Gromacs Runs On Most of All Computer Systems in water t= 80000.00000 step= 80000000
11584
    1RU5    O5'    1   2.727   2.185   4.538 -0.4979  0.2111 -0.3273
    1RU5    H5T    2   2.644   2.141   4.519 -1.2193  0.7294  1.5557
    1RU5    C5'    3   2.748   2.286   4.444 -0.1753 -0.5714  0.2577
    1RU5   H5'1    4   2.723   2.252   4.343  2.7265  0.6340 -0.9162
    1RU5   H5'2    5   2.855   2.302   4.443 -0.1285 -0.7135  1.6380
    1RU5    C4'    6   2.682   2.426   4.466 -0.0390  0.6147  0.5919
    1RU5    H4'    7   2.720   2.498   4.394  1.3666 -0.3341  0.3765
    1RU5    O4'    8   2.545   2.425   4.455  0.2326 -0.7516 -0.3928
    1RU5    C1'    9   2.499   2.550   4.499  0.2419 -0.0148 -0.4068
    1RU5    H1'   10   2.505   2.624   4.419 -0.2319  0.1621 -0.2793
    1RU5     N1   11   2.353   2.533   4.551 -0.2969 -0.1751 -0.5054
    1RU5     C6   12   2.299   2.404   4.569  0.2565 -0.0758 -0.2641
    1RU5     H6   13   2.363   2.317   4.563  0.0032 -0.3247  0.4892
    1RU5     C5   14   2.159   2.392   4.592 -0.2226  0.1872  0.7309
    1RU5     H5   15   2.118   2.293   4.603 -0.5910  0.2274 -0.2292
    1RU5     C4   16   2.077   2.514   4.606  0.6516  0.6477  0.1596
    1RU5     O4   17   1.952   2.507   4.620 -0.2346 -0.1994 -0.1708
    1RU5     N3   18   2.138   2.631   4.584 -0.3716 -0.0975 -0.1272
    1RU5     H3   19   2.081   2.715   4.580  0.7769  0.7756  1.2113
    1RU5     C2   20   2.270   2.643   4.546  0.4113 -0.2634  0.0969
    1RU5     O2   21   2.312   2.760   4.521 -0.2005  0.0961  0.5144
    1RU5    C3'   22   2.694   2.476   4.615 -0.3395  0.2587 -0.4577
    1RU5    H3'   23   2.660   2.404   4.689 -1.2512  0.4572 -0.6733
    1RU5    C2'   24   2.593   2.594   4.610  0.1986  0.1793 -0.5885
    1RU5   H2'1   25   2.539   2.598   4.705  0.3318 -2.1222 -0.4015
    1RU5    O2'   26   2.644   2.720   4.582 -0.1515  0.4176 -0.2666
    1RU5   HO'2   27   2.694   2.722   4.500  0.5432  0.1287  0.1448
    1RU5    O3'   28   2.828   2.521   4.628 -0.0122  0.4077 -0.9801
    2RG3      P   29   2.905   2.533   4.766  0.0353  0.2081 -0.1159
    2RG3    O1P   30   3.029   2.613   4.741 -0.1535 -0.5472  0.0264
    2RG3    O2P   31   2.918   2.402   4.831  0.5354  0.3491 -0.1213
    2RG3    O5'   32   2.813   2.623   4.859  0.3001 -0.1596  0.4154
    2RG3    C5'   33   2.828   2.769   4.855 -0.2237  0.3154  0.6766
    2RG3   H5'1   34   2.804   2.810   4.757 -0.1068  1.1667  0.9971
    2RG3   H5'2   35   2.928   2.796   4.889 -0.1853  0.8667  0.1234
    2RG3    C4'   36   2.723   2.837   4.947  0.4132 -0.1720 -0.0293
    2RG3    H4'   37   2.752   2.942   4.951  1.4508 -0.4486 -0.0943
    2RG3    O4'   38   2.586   2.830   4.898 -0.8425  0.3203 -0.3768
    2RG3    C1'   39   2.507   2.794   5.005  0.0710  0.4383 -0.1287
    2RG3    H1'   40   2.419   2.858   5.003  0.3338  0.9218  2.2851
    2RG3     N9   41   2.462   2.661   4.982 -0.0067  0.6346 -0.6466
    2RG3     C8   42   2.526   2.544   4.997 -0.1064  0.2221  0.0030
    2RG3     H8   43   2.634   2.542   5.005 -0.1309  0.5569  0.4421
    2RG3     N7   44   2.449   2.436   4.991 -0.0812 -0.1083 -0.2879
    2RG3     C5   45   2.325   2.490   4.963  0.5658 -0.9051  0.1871
    2RG3     C6   46   2.200   2.426   4.940  0.2760 -0.1695 -0.2609
    2RG3     O6   47   2.178   2.305   4.943 -0.6085  0.6628 -0.2452
    2RG3     N1   48   2.097   2.512   4.919  0.1263 -0.4608  0.1211
    2RG3     H1   49   2.002   2.480   4.914 -0.3081  0.8855 -0.4478
    2RG3     C2   50   2.117   2.645   4.917  0.1758  0.4520  0.0692
    2RG3     N2   51   2.006   2.714   4.895  0.1024 -0.4564 -0.3708
    2RG3    H21   52   1.922   2.663   4.871 -0.2237 -0.3037  0.4448
    2RG3    H22   53   2.007   2.814   4.897 -0.5450 -0.4668  1.2937
    2RG3     N3   54   2.229   2.713   4.932  0.2524  0.3886  0.0149
    2RG3     C4   55   2.330   2.629   4.956  0.1493  0.7644  1.0358
    2RG3    C3'   56   2.722   2.793   5.094 -0.1773  0.0277  0.7387
    2RG3    H3'   57   2.739   2.686   5.104  2.4474  0.3474  0.1434
    2RG3    C2'   58   2.587   2.823   5.139  0.2750  0.2639  0.1726
    2RG3   H2'1   59   2.550   2.756   5.216  0.0622 -0.1940 -0.3267
    2RG3    O2'   60   2.567   2.959   5.174  0.5066  0.7707 -0.1780
    2RG3   HO'2   61   2.654   2.990   5.200  0.7086 -0.4605  0.6121
    2RG3    O3'   62   2.817   2.852   5.179 -0.1852  0.0766  0.5705
    2RG3    H3T   63   2.901   2.811   5.159 -0.5627 -0.1505 -0.5942
    3SOL     OW   64   2.757   3.770   0.297 -0.2126  0.3796  0.1399
    3SOL    HW2   65   2.703   3.810   0.365 -0.2653  0.7374 -0.1099
    3SOL    HW3   66   2.840   3.752   0.340 -0.2337  0.6343  0.2888
    3SOL    MW4   67   2.761   3.773   0.312 -0.2222  0.4606  0.1266
    4SOL     OW   68   3.175   3.991   0.775 -0.0562 -0.1584 -0.1161
    4SOL    HW2   69   3.249   3.954   0.823 -0.6444 -1.5191 -0.2421
    4SOL    HW3   70   3.099   3.968   0.827 -0.3614  1.7580  0.3250
    4SOL    MW4   71   3.175   3.983   0.788 -0.1740 -0.0851 -0.0745
    5SOL     OW   72   1.552   2.322   0.809  0.5814  0.0932 -0.1879
    5SOL    HW2   73   1.542   2.232   0.777  1.5437  0.1400 -0.6204
    5SOL    HW3   74   1.467   2.362   0.792  0.4626 -0.4514 -0.9059
    5SOL    MW4   75   1.539   2.315   0.803  0.6928  0.0274 -0.3397
    6SOL     OW   76   0.974   4.522   0.423 -0.1593 -0.1002  0.1414
    6SOL    HW2   77   0.940   4.611   0.431 -1.6994 -0.6130 -0.4484
    6SOL    HW3   78   0.896   4.467   0.424  0.6094 -1.2868 -2.0550
    6SOL    MW4   79   0.959   4.527   0.424 -0.2610 -0.3247 -0.2263
    7SOL     OW   80   3.441   1.301   0.499  0.1006 -0.4322  0.0232
    7SOL    HW2   81   3.428   1.313   0.593 -0.8650 -0.5860 -0.0839
    7SOL    HW3   82   3.385   1.227   0.477 -0.3346  0.1471 -0.8286
    7SOL    MW4   83   3.432   1.293   0.509 -0.0839 -0.3761 -0.1034
    8SOL     OW   84   1.574   0.021   0.850 -0.5823  0.2732  0.0460
    8SOL    HW2   85   1.588   0.015   0.945 -0.7490  1.3957  0.1574
    8SOL    HW3   86   1.488   0.063   0.842 -0.9049 -0.5094 -0.6035
    8SOL    MW4   87   1.564   0.026   0.862 -0.6469  0.3180 -0.0250
    9SOL     OW   88   0.398   0.058   0.519  0.3679 -0.1485 -0.1273
    9SOL    HW2   89   0.353   0.131   0.562  0.8293  0.4425 -0.6453
    9SOL    HW3   90   0.342   0.037   0.444 -0.5817 -1.3594  0.8860
    9SOL    MW4   91   0.384   0.065   0.515  0.3035 -0.2303 -0.0620
   10SOL     OW   92   0.575   2.279   0.405 -0.2432  0.2674 -0.2646
   10SOL    HW2   93   0.539   2.204   0.453  0.9206  0.3923  0.8318
   10SOL    HW3   94   0.669   2.277   0.425  0.0477  1.0790 -1.5231
   10SOL    MW4   95   0.582   2.269   0.414 -0.0513  0.3908 -0.2860
   11SOL     OW   96   3.338   3.077   0.864  0.2465  0.1561  0.6950
   11SOL    HW2   97   3.367   2.989   0.843 -1.1743  0.0271 -0.7690
   11SOL    HW3   98   3.327   3.077   0.959 -1.4565 -1.7680  0.5127
   11SOL    MW4   99   3.341   3.066   0.874 -0.1657 -0.1149  0.4777
   12SOL     OW  100   2.002   0.654   0.499  0.0129  0.0763 -0.1091
   12SOL    HW2  101   2.028   0.584   0.440 -0.8467 -0.1048 -0.2842
   12SOL    HW3  102   1.973   0.609   0.579  0.5290  0.2848  0.1968
   12SOL    MW4  103   2.001   0.639   0.502 -0.0319  0.0799 -0.0918
   13SOL     OW  104   0.865   4.097   0.470 -0.1644 -0.4076  0.1788
   13SOL    HW2  105   0.868   4.109   0.565  1.5234 -0.9652  0.2063
   13SOL    HW3  106   0.827   4.010   0.458  1.2802 -1.0873  0.4106
   13SOL    MW4  107   0.860   4.087   0.481  0.2489 -0.5703  0.2131
   14SOL     OW  108   3.180   2.047   0.350  0.5688 -0.1381  0.5143
   14SOL    HW2  109   3.166   2.138   0.327  0.7676 -0.1801  0.2297
   14SOL    HW3  110   3.267   2.044   0.388  0.2053 -0.0517  1.3697
   14SOL    MW4  111   3.189   2.058   0.352  0.5469 -0.1323  0.5896
   15SOL     OW  112   3.140   2.487   0.762  0.1425 -0.2381 -0.0525
   15SOL    HW2  113   3.230   2.470   0.787  0.1728 -0.7411 -0.4841
   15SOL    HW3  114   3.088   2.424   0.812 -0.0964  0.9247  1.1886
   15SOL    MW4  115   3.145   2.477   0.772  0.1149 -0.1512  0.0543
   16SOL     OW  116   0.297   2.032   0.770 -0.4132  0.0728 -0.3588
   16SOL    HW2  117   0.301   2.127   0.781  2.7037 -0.3424  3.6319
   16SOL    HW3  118   0.207   2.009   0.792 -1.0769  2.0480 -0.9084
   16SOL    MW4  119   0.286   2.041   0.775 -0.0895  0.2785  0.0951
   17SOL     OW  120   4.424   1.630   0.182  0.2654  0.0430  0.6392
   17SOL    HW2  121   4.484   1.688   0.228  1.1245 -0.0466 -0.3687
   17SOL    HW3  122   4.384   1.685   0.115  0.9023 -0.4733 -0.1627
   17SOL    MW4  123   4.426   1.645   0.180  0.4630 -0.0370  0.4004
   18SOL     OW  124   2.416   1.971   0.493  0.1730  0.0619 -0.1216
   18SOL    HW2  125   2.502   1.942   0.462  1.0801  1.9887  0.4667
   18SOL    HW3  126   2.370   1.891   0.516  1.5325 -1.0516 -1.1778
   18SOL    MW4  127   2.421   1.957   0.492  0.4721  0.1692 -0.1833
   19SOL     OW  128   0.842   0.460   0.855 -0.1385  0.0914  0.0499
   19SOL    HW2  129   0.861   0.417   0.939 -1.9049  0.0535  0.4321
   19SOL    HW3  130   0.915   0.520   0.843  1.4679 -1.7306  0.3627
   19SOL    MW4  131   0.854   0.462   0.864 -0.1596 -0.1540  0.1416
   20SOL     OW  132   1.813   3.176   0.727 -0.3497  0.3212  0.0427
   20SOL    HW2  133   1.880   3.129   0.778 -1.4065 -2.0558 -0.6912
   20SOL    HW3  134   1.731   3.159   0.774 -1.2735 -1.5283 -2.1399
   20SOL    MW4  135   1.811   3.167   0.740 -0.6111 -0.2365 -0.3420
   21SOL     OW  136   3.795   3.109   0.909 -0.5975 -0.1266 -0.0406
   21SOL    HW2  137   3.714   3.148   0.876 -0.3905 -1.2500 -1.9672
   21SOL    HW3  138   3.863   3.142   0.851  0.2083  0.1571  1.0593
   21SOL    MW4  139   3.793   3.118   0.897 -0.4640 -0.2375 -0.1497
   22SOL     OW  140   2.262   0.165   0.453 -0.2712 -0.4653 -0.1652
   22SOL    HW2  141   2.254   0.074   0.424  0.0132 -0.4266 -0.3663
   22SOL    HW3  142   2.342   0.196   0.412 -0.3211 -0.1494 -0.0227
   22SOL    MW4  143   2.272   0.157   0.444 -0.2401 -0.4185 -0.1729
   23SOL     OW  144   3.147   1.627   0.784 -0.3942 -0.5225 -0.1673
   23SOL    HW2  145   3.149   1.712   0.829  0.5238 -0.5878 -0.0874
   23SOL    HW3  146   3.146   1.649   0.691  0.7275 -0.4376 -0.1604
   23SOL    MW4  147   3.147   1.641   0.778 -0.1252 -0.5200 -0.1558
   24SOL     OW  148   0.762   3.844   0.422 -0.8055 -0.2570 -0.2788
   24SOL    HW2  149   0.846   3.822   0.382 -0.2078 -1.3245  1.5103
   24SOL    HW3  150   0.742   3.768   0.478 -2.3613  0.5284  0.2497
   24SOL    MW4  151   0.770   3.831   0.424 -0.9319 -0.2940  0.0270
   25SOL     OW  152   3.843   3.636   0.502 -0.5989 -0.4186 -0.3844
   25SOL    HW2  153   3.863   3.550   0.465  1.4634  0.2857 -0.9733
   25SOL    HW3  154   3.850   3.624   0.597  1.3649 -0.5239 -0.5304
   25SOL    MW4  155   3.846   3.623   0.510 -0.0677 -0.3397 -0.4814
   26SOL     OW  156   4.056   3.143   0.501 -0.0282 -0.3040 -0.1766
   26SOL    HW2  157   4.015   3.159   0.586  1.2525 -1.4923  0.6899
   26SOL    HW3  158   4.148   3.128   0.521  0.6703  1.3443 -1.9958
   26SOL    MW4  159   4.063   3.143   0.515  0.2327 -0.2434 -0.3023
   27SOL     OW  160   2.746   3.455   0.438  0.2481 -0.0521 -0.3678
   27SOL    HW2  161   2.725   3.465   0.345  0.3198  0.9479 -0.2882
   27SOL    HW3  162   2.669   3.489   0.484  1.5011  2.5354 -0.0801
   27SOL    MW4  163   2.733   3.461   0.432  0.4232  0.4213 -0.3193
   28SOL     OW  164   0.847   4.024   0.753  0.2482 -0.1640  0.3136
   28SOL    HW2  165   0.845   4.116   0.779  0.2994  0.0877 -0.5787
   28SOL    HW3  166   0.923   3.988   0.799  0.5720  0.3740  0.2007
   28SOL    MW4  167   0.857   4.031   0.763  0.2978 -0.0596  0.1810
   29SOL     OW  168   4.161   3.993   0.355 -0.4730 -0.0553 -0.3276
   29SOL    HW2  169   4.082   3.939   0.351 -0.5075 -0.1024  0.7996
   29SOL    HW3  170   4.221   3.944   0.411  1.1117 -0.9635 -2.7419
   29SOL    MW4  171   4.158   3.979   0.362 -0.2689 -0.1812 -0.4974
   30SOL     OW  172   4.131   0.820   0.473 -0.8970 -0.7460 -0.0060
   30SOL    HW2  173   4.117   0.833   0.567  0.0730  0.9244 -0.0692
   30SOL    HW3  174   4.116   0.907   0.435 -0.5529 -1.2431 -1.3069
   30SOL    MW4  175   4.127   0.833   0.480 -0.7234 -0.5912 -0.1860
   31SOL     OW  176   4.426   3.368   0.372 -0.6541 -0.4034  0.2558
   31SOL    HW2  177   4.387   3.297   0.423 -1.1978  0.5077  1.1437
   31SOL    HW3  178   4.432   3.334   0.283 -1.2275 -1.4321  0.5986
   31SOL    MW4  179   4.422   3.354   0.367 -0.8016 -0.4187  0.4182
   32SOL     OW  180   0.191   0.735   0.852  0.9198  0.1618  0.2571
   32SOL    HW2  181   0.216   0.642   0.845  1.9309  0.3983  0.6022
   32SOL    HW3  182   0.179   0.749   0.946  1.8493  0.6498  0.3081
   32SOL    MW4  183   0.193   0.724   0.863  1.1759  0.2573  0.3094
   33SOL     OW  184   1.005   1.745   0.402  0.0009 -0.2372  0.1270
   33SOL    HW2  185   0.980   1.838   0.406 -0.3380 -0.2679 -1.0278
   33SOL    HW3  186   0.922   1.698   0.409  0.1033 -0.4329  0.0026
   33SOL    MW4  187   0.991   1.751   0.403 -0.0303 -0.2670 -0.0418
   34SOL     OW  188   3.963   0.135   0.511  0.2166  0.0896  0.9184
   34SOL    HW2  189   4.046   0.103   0.474 -0.7888  0.1219 -1.4794
   34SOL    HW3  190   3.974   0.230   0.513 -0.1484  0.1723 -0.4321
   34SOL    MW4  191   3.976   0.143   0.506  0.0358  0.1048  0.4238
   35SOL     OW  192   3.346   3.618   0.778 -0.0442  0.8408  0.2103
   35SOL    HW2  193   3.268   3.587   0.824  1.4384  1.4622  3.3165
   35SOL    HW3  194   3.352   3.711   0.801  1.7517  0.7244  0.3082
   35SOL    MW4  195   3.337   3.626   0.787  0.3884  0.9077  0.6331
   36SOL     OW  196   3.397   4.367   0.769  0.2589  0.0762  0.1811
   36SOL    HW2  197   3.405   4.354   0.674 -2.5832  1.0435 -0.2541
   36SOL    HW3  198   3.386   4.461   0.779 -2.9496 -0.3321  1.1111
   36SOL    MW4  199   3.396   4.377   0.758 -0.5393  0.1493  0.2465
   37SOL     OW  200   1.778   2.444   0.719  0.0694  0.2495 -0.5330
   37SOL    HW2  201   1.704   2.393   0.750  0.2177  0.7395  0.6875
   37SOL    HW3  202   1.765   2.453   0.625 -1.4723  0.4223 -0.3051
   37SOL    MW4  203   1.767   2.439   0.711 -0.1143  0.3369 -0.3419
   38SOL     OW  204   4.002   2.230   0.322  0.0795 -0.4534 -0.0358
   38SOL    HW2  205   3.933   2.291   0.348 -1.5729 -1.9889 -0.6827
   38SOL    HW3  206   4.041   2.269   0.244 -0.0062  0.4719  0.3837
   38SOL    MW4  207   3.998   2.243   0.315 -0.1500 -0.5341 -0.0658
   39SOL     OW  208   0.181   3.373   0.540  0.2757 -0.1291  0.9949
   39SOL    HW2  209   0.103   3.374   0.484 -0.9943 -2.0636  2.6557
   39SOL    HW3  210   0.237   3.441   0.504  0.3306 -2.4851 -3.7503
   39SOL    MW4  211   0.178   3.382   0.528  0.1154 -0.6955  0.5879
   40SOL     OW  212   3.013   3.255   0.553 -0.0800 -0.1505  0.0856
   40SOL    HW2  213   3.040   3.244   0.644  0.6574  1.5905  0.0939
   40SOL    HW3  214   3.052   3.338   0.526  0.1763 -0.9263 -2.0023
   40SOL    MW4  215   3.022   3.264   0.561  0.0510 -0.0231 -0.1887
   41SOL     OW  216   4.255   3.086   0.867 -0.0663  0.2288 -0.2013
   41SOL    HW2  217   4.335   3.131   0.843  0.0584 -0.5939 -1.3630
   41SOL    HW3  218   4.268   2.996   0.837 -1.2751  0.0069 -0.0960
   41SOL    MW4  219   4.267   3.080   0.860 -0.2089  0.0908 -0.3406
   42SOL     OW  220   0.510   2.724   0.945 -0.0079  0.1442 -0.5227
   42SOL    HW2  221   0.517   2.636   0.908  2.2871  0.5333 -1.0921
   42SOL    HW3  222   0.439   2.765   0.895  1.2355 -0.2420 -2.6565
   42SOL    MW4  223   0.502   2.717   0.934  0.4590  0.1450 -0.8793
   43SOL     OW  224   0.271   4.371   0.445 -0.2755 -0.3747  0.2142
   43SOL    HW2  225   0.300   4.282   0.427  1.0250  0.2364 -0.7788
   43SOL    HW3  226   0.265   4.375   0.541 -0.6296 -1.5996  0.2536
   43SOL    MW4  227   0.274   4.360   0.456 -0.1507 -0.4554  0.0884
   44SOL     OW  228   2.421   3.439   0.172 -0.0857  0.4993  0.0535
   44SOL    HW2  229   2.437   3.344   0.171 -0.5817  0.4116  0.5215
   44SOL    HW3  230   2.506   3.477   0.152  0.3254 -0.0224  0.7804
   44SOL    MW4  231   2.434   3.431   0.169 -0.0970  0.4194  0.2112
   45SOL     OW  232   2.253   1.662   0.800  0.0262  0.0796 -0.2867
   45SOL    HW2  233   2.280   1.681   0.710  0.6132  0.0874 -0.1138
   45SOL    HW3  234   2.326   1.612   0.836 -0.2695 -0.0423  0.1431
   45SOL    MW4  235   2.266   1.658   0.793  0.0646  0.0646 -0.2072
   46SOL     OW  236   1.596   4.426   0.731  0.0263  0.1243 -0.4595
   46SOL    HW2  237   1.568   4.513   0.760 -0.3050  0.2562 -1.1793
   46SOL    HW3  238   1.549   4.411   0.649  0.3725 -0.5770 -0.5345
   46SOL    MW4  239   1.586   4.435   0.724  0.0281  0.0491 -0.5644
   47SOL     OW  240   1.101   0.576   0.865  0.2769  0.2468 -0.0110
   47SOL    HW2  241   1.107   0.643   0.933  0.4456 -0.7124  0.9450
   47SOL    HW3  242   1.179   0.521   0.878 -0.1327 -0.4482 -0.4281
   47SOL    MW4  243   1.112   0.577   0.876  0.2452  0.0286  0.0600
   48SOL     OW  244   0.757   1.251   0.459  0.0570 -0.4220 -0.1664
   48SOL    HW2  245   0.821   1.182   0.443  0.4344 -0.0200 -0.4150
   48SOL    HW3  246   0.674   1.215   0.428  0.2633 -0.7425 -0.3450
   48SOL    MW4  247   0.754   1.237   0.453  0.1340 -0.4112 -0.2228
   49SOL     OW  248   0.522   0.419   0.469 -0.1341 -0.2815  0.4577
   49SOL    HW2  249   0.566   0.349   0.420  0.2275 -1.0900  1.9016
   49SOL    HW3  250   0.592   0.469   0.509 -0.4459 -0.2798  1.0158
   49SOL    MW4  251   0.537   0.416   0.468 -0.1275 -0.3879  0.7218
   50SOL     OW  252   4.033   1.951   0.853 -0.5815  0.3533  0.0442
   50SOL    HW2  253   4.047   1.860   0.826  0.1127  0.1049  1.2039
   50SOL    HW3  254   3.959   1.981   0.799  0.6295 -0.1790 -1.9488
   50SOL    MW4  255   4.025   1.943   0.842 -0.3304  0.2503 -0.0657
   51SOL     OW  256   4.351   2.832   0.467  0.1700  0.2569 -0.6225
   51SOL    HW2  257   4.436   2.789   0.475 -0.1870 -0.3273  0.1523
   51SOL    HW3  258   4.302   2.777   0.406 -0.2580 -0.4039  0.3041
   51SOL    MW4  259   4.356   2.819   0.460  0.0663  0.0923 -0.3980
   52SOL     OW  260   1.336   3.270   0.797 -0.0218  0.1681 -0.2794
   52SOL    HW2  261   1.410   3.224   0.837  0.1205  0.8248  0.2341
   52SOL    HW3  262   1.348   3.258   0.703  1.6282  1.6113 -0.2668
   52SOL    MW4  263   1.347   3.262   0.790  0.2146  0.4449 -0.2100
   53SOL     OW  264   1.301   2.442   0.750 -0.1440  0.0006  0.3822
   53SOL    HW2  265   1.290   2.401   0.665 -0.2725  1.2245 -0.2076
   53SOL    HW3  266   1.241   2.396   0.808  0.8488 -1.6755  0.1130
   53SOL    MW4  267   1.292   2.431   0.747 -0.0300 -0.0594  0.2689
   54SOL     OW  268   1.769   0.235   0.437 -0.0130  0.1479 -0.2536
   54SOL    HW2  269   1.780   0.171   0.507  0.7974  0.0752 -0.4398
   54SOL    HW3  270   1.730   0.186   0.365  1.7262 -0.4430 -0.8287
   54SOL    MW4  271   1.765   0.220   0.437  0.3234  0.0603 -0.3540
   55SOL     OW  272   3.608   2.466   0.748 -0.2100  0.0929  0.1616
   55SOL    HW2  273   3.533   2.430   0.795  0.3764  0.3407  1.3217
   55SOL    HW3  274   3.625   2.550   0.792  1.6207 -0.6087  0.8494
   55SOL    MW4  275   3.600   2.473   0.760  0.1087  0.0329  0.4054
   56SOL     OW  276   2.139   1.140   0.466 -0.1543  0.1010  0.3224
   56SOL    HW2  277   2.226   1.179   0.470 -0.4264  1.2453 -2.8855
   56SOL    HW3  278   2.153   1.047   0.480  1.6201  0.2704 -0.2428
   56SOL    MW4  279   2.152   1.133   0.468  0.0439  0.2743 -0.1754
   57SOL     OW  280   4.070   1.678   0.768  0.6496  0.2173 -0.2621
   57SOL    HW2  281   4.007   1.639   0.828  0.7773  1.5035  0.7161
   57SOL    HW3  282   4.155   1.649   0.800  0.7267  1.0467  0.2703
   57SOL    MW4  283   4.073   1.669   0.780  0.6766  0.4964 -0.0628
   58SOL     OW  284   0.721   0.788   0.569 -0.2894 -0.5808  0.1791
   58SOL    HW2  285   0.735   0.698   0.542 -0.4760 -0.3044 -0.8437
   58SOL    HW3  286   0.646   0.817   0.517  0.1471  0.3532  0.0711
   58SOL    MW4  287   0.713   0.780   0.559 -0.2564 -0.4212  0.0299
   59SOL     OW  288   2.949   0.016   0.490  0.3871  0.4078  0.1504
   59SOL    HW2  289   2.938   0.038   0.583 -0.7311  1.9509 -0.3144
   59SOL    HW3  290   3.025   0.067   0.462  1.3209 -0.8075  0.4365
   59SOL    MW4  291   2.957   0.025   0.499  0.3629  0.4511  0.1268
   60SOL     OW  292   0.649   3.595   0.531 -0.0007  0.4408 -0.5062
   60SOL    HW2  293   0.678   3.516   0.486  0.5723  0.7643 -0.7160
   60SOL    HW3  294   0.558   3.607   0.503  0.6609  1.2276 -2.4547
   60SOL    MW4  295   0.641   3.586   0.521  0.1622  0.5870 -0.7910
   61SOL     OW  296   4.319   2.828   0.743 -0.2764 -0.1758  0.2276
   61SOL    HW2  297   4.310   2.822   0.648 -0.0469 -0.1468  0.2022
   61SOL    HW3  298   4.410   2.803   0.760 -0.2786 -0.0528  0.4261
   61SOL    MW4  299   4.330   2.824   0.733 -0.2470 -0.1557  0.2505
   62SOL     OW  300   4.238   3.559   0.471  0.5348 -0.5318  0.1524
   62SOL    HW2  301   4.313   3.513   0.434  1.9319 -0.3377  2.6259
   62SOL    HW3  302   4.268   3.649   0.483  0.2219 -0.6394  1.9242
   62SOL    MW4  303   4.252   3.564   0.467  0.6776 -0.5205  0.7125
   63SOL     OW  304   4.433   0.222   0.518  1.0863 -0.6026  0.2042
   63SOL    HW2  305   4.396   0.307   0.541 -0.2955 -0.9556 -0.6648
   63SOL    HW3  306   4.462   0.185   0.602  0.2193  0.0432  0.7990
   63SOL    MW4  307   4.432   0.228   0.532  0.7892 -0.5640  0.1679
   64SOL     OW  308   2.722   4.056   0.797 -0.3780  0.1347 -0.2310
   64SOL    HW2  309   2.686   4.136   0.836  1.0711 -0.3124  2.0914
   64SOL    HW3  310   2.761   4.086   0.715 -0.3125  1.7266  0.3517
   64SOL    MW4  311   2.723   4.071   0.792 -0.1783  0.2856  0.1522
   65SOL     OW  312   4.111   1.637   0.496 -0.1153 -0.1456  0.4509
   65SOL    HW2  313   4.099   1.615   0.588  0.6453 -0.2180  0.5381
   65SOL    HW3  314   4.038   1.595   0.451 -0.2531 -0.4588  0.9704
   65SOL    MW4  315   4.100   1.629   0.502 -0.0324 -0.1966  0.5310
   66SOL     OW  316   0.730   2.730   0.499  0.0976 -0.1713  0.2996
   66SOL    HW2  317   0.730   2.763   0.589  1.7281 -1.0345  0.6170
   66SOL    HW3  318   0.689   2.801   0.448 -0.4697  0.4850  1.6476
   66SOL    MW4  319   0.724   2.744   0.504  0.2379 -0.1986  0.5194
   67SOL     OW  320   0.447   1.844   0.895 -0.3721  0.8014  0.2201
   67SOL    HW2  321   0.401   1.918   0.856 -1.9396  0.2317  0.9414
   67SOL    HW3  322   0.466   1.872   0.985  0.0646  0.7598  0.1426
   67SOL    MW4  323   0.444   1.857   0.902 -0.5213  0.7206  0.3050
   68SOL     OW  324   1.636   0.116   0.235 -0.1869 -0.3043 -0.0467
   68SOL    HW2  325   1.604   0.143   0.148  1.9788 -2.9009 -1.7255
   68SOL    HW3  326   1.567   0.059   0.269 -0.0118 -1.1713 -1.1119
   68SOL    MW4  327   1.622   0.112   0.228  0.1220 -0.7613 -0.4087
   69SOL     OW  328   2.941   0.745   0.862  0.2763 -0.0407 -0.5359
   69SOL    HW2  329   2.936   0.650   0.854  1.9016 -0.1956  0.2592
   69SOL    HW3  330   2.928   0.762   0.956  0.6807  0.4842 -0.5766
   69SOL    MW4  331   2.938   0.735   0.874  0.5441  0.0080 -0.4364
   70SOL     OW  332   2.421   2.935   0.100 -0.0361 -0.0646 -0.5469
   70SOL    HW2  333   2.349   2.906   0.156  0.4390  1.5738  0.9466
   70SOL    HW3  334   2.396   2.906   0.012 -2.7804  0.9559 -0.1618
   70SOL    MW4  335   2.408   2.927   0.096 -0.3352  0.2861 -0.2991
   71SOL     OW  336   2.726   1.621   0.851  0.4283 -0.3294  0.0050
   71SOL    HW2  337   2.759   1.585   0.934  1.3106  1.1173  0.3036
   71SOL    HW3  338   2.736   1.715   0.860  2.2451 -0.2274 -2.4419
   71SOL    MW4  339   2.732   1.628   0.863  0.7842 -0.1252 -0.2785
   72SOL     OW  340   0.665   1.254   0.739 -0.5905  0.2123  0.4183
   72SOL    HW2  341   0.669   1.342   0.777  2.1346 -0.3961  1.6477
   72SOL    HW3  342   0.694   1.266   0.649  0.0064  0.5408  0.6526
   72SOL    MW4  343   0.669   1.268   0.732 -0.1523  0.1754  0.6114
   73SOL     OW  344   1.134   3.097   0.872 -0.0266 -0.5484  0.4387
   73SOL    HW2  345   1.132   3.021   0.813 -0.5782 -0.8518  0.8368
   73SOL    HW3  346   1.215   3.143   0.850 -1.0238  0.2515 -1.6890
   73SOL    MW4  347   1.144   3.093   0.861 -0.2309 -0.4830  0.2105
   74SOL     OW  348   1.841   1.138   0.439  0.2029 -0.1383  0.1577
   74SOL    HW2  349   1.933   1.154   0.460  0.0499  0.1856  0.5796
   74SOL    HW3  350   1.835   1.043   0.428  0.9047 -0.0150 -1.3838
   74SOL    MW4  351   1.852   1.128   0.440  0.2754 -0.0793  0.0100
   75SOL     OW  352   0.992   2.677   0.356  0.7308  0.0141  0.0730
   75SOL    HW2  353   1.061   2.741   0.373 -0.8916  1.9087 -0.2952
   75SOL    HW3  354   0.919   2.705   0.412 -0.6201 -0.4637 -1.4045
   75SOL    MW4  355   0.991   2.689   0.366  0.3385  0.2012 -0.1706
   76SOL     OW  356   3.629   0.814   0.502 -0.5060 -0.1955 -0.1016
   76SOL    HW2  357   3.666   0.889   0.457  0.4679 -0.1089  0.8412
   76SOL    HW3  358   3.690   0.743   0.485 -0.4877 -0.3303  0.5072
   76SOL    MW4  359   3.642   0.814   0.494 -0.3753 -0.2018  0.1031
   77SOL     OW  360   4.262   2.088   0.764  0.3508  0.4696 -0.0084
   77SOL    HW2  361   4.184   2.042   0.796 -0.1232  1.3165  0.0795
   77SOL    HW3  362   4.249   2.095   0.670  1.4176 -1.4095 -0.3204
   77SOL    MW4  363   4.250   2.083   0.756  0.4287  0.3333 -0.0380
   78SOL     OW  364   1.073   0.528   0.477  0.4375  0.6043  0.0821
   78SOL    HW2  365   1.083   0.573   0.393  1.0811 -0.0224 -0.1903
   78SOL    HW3  366   1.120   0.582   0.539 -1.3012  1.8543  0.3325
   78SOL    MW4  367   1.081   0.541   0.474  0.2930  0.6866  0.0792
   79SOL     OW  368   1.811   1.103   0.867  0.2295 -0.2705 -0.0478
   79SOL    HW2  369   1.882   1.146   0.820 -0.1713 -0.4394 -0.8183
   79SOL    HW3  370   1.731   1.140   0.829 -0.0957 -0.2037  0.6946
   79SOL    MW4  371   1.810   1.114   0.856  0.1336 -0.2841 -0.0516
   80SOL     OW  372   2.896   2.918   0.197  0.2112  0.1399  0.2390
   80SOL    HW2  373   2.824   2.869   0.157 -0.2633  0.4083  0.7657
   80SOL    HW3  374   2.958   2.850   0.224 -0.3189 -0.1591  0.7186
   80SOL    MW4  375   2.895   2.903   0.195  0.0784  0.1359  0.3718
   81SOL     OW  376   1.567   1.518   0.834  0.4523 -0.1885 -0.3600
   81SOL    HW2  377   1.549   1.527   0.928 -0.7855  0.1175 -0.6218
   81SOL    HW3  378   1.642   1.576   0.818  0.9884 -0.6351  0.5397
   81SOL    MW4  379   1.575   1.527   0.844  0.3597 -0.2071 -0.2758
   82SOL     OW  380   2.531   3.184   0.162  0.0984 -0.0674 -0.1442
   82SOL    HW2  381   2.626   3.185   0.174  0.4807  0.3863 -2.9559
   82SOL    HW3  382   2.511   3.093   0.140  0.1744  0.2439 -1.5478
   82SOL    MW4  383   2.541   3.172   0.161  0.1590  0.0339 -0.7003
   83SOL     OW  384   1.468   1.611   0.186  0.6924  0.2658 -0.1113
   83SOL    HW2  385   1.553   1.574   0.210  0.4650 -0.4265 -0.3482
   83SOL    HW3  386   1.455   1.583   0.095 -0.2291 -0.4591  0.2372
   83SOL    MW4  387   1.477   1.603   0.177  0.5407  0.0786 -0.0965
   84SOL     OW  388   2.931   2.827   0.729  0.3254 -0.0370  0.0216
   84SOL    HW2  389   3.015   2.806   0.769  0.5051 -1.7911 -1.2451
   84SOL    HW3  390   2.867   2.777   0.779  0.1456  0.4726  0.3066
   84SOL    MW4  391   2.934   2.818   0.741  0.3254 -0.2012 -0.1079
   85SOL     OW  392   0.700   3.608   0.803  0.3085 -0.2849 -0.1344
   85SOL    HW2  393   0.684   3.607   0.709 -1.3434  1.2583  0.0936
   85SOL    HW3  394   0.788   3.571   0.813  0.5188 -0.4407 -2.2737
   85SOL    MW4  395   0.709   3.603   0.792  0.1183 -0.1020 -0.3865
   86SOL     OW  396   2.035   2.285   0.812  0.5359  0.3230  0.0428
   86SOL    HW2  397   2.025   2.283   0.907 -0.7556 -2.5626 -0.0940
   86SOL    HW3  398   1.966   2.343   0.781 -1.7403 -2.0074  0.6325
   86SOL    MW4  399   2.025   2.293   0.820  0.0653 -0.3653  0.1025
   87SOL     OW  400   2.707   3.523   0.178 -0.2453 -0.1052 -0.2281
   87SOL    HW2  401   2.795   3.497   0.150 -0.1201 -0.4526  0.4946
   87SOL    HW3  402   2.720   3.607   0.222 -0.4287  0.3893 -1.1054
   87SOL    MW4  403   2.720   3.531   0.180 -0.2532 -0.0856 -0.2485
   88SOL     OW  404   0.639   4.385   0.726  0.2878  0.3748 -0.0795
   88SOL    HW2  405   0.606   4.474   0.739 -0.2317  0.0000  1.1923
   88SOL    HW3  406   0.657   4.380   0.632 -2.0794  1.0028 -0.5954
   88SOL    MW4  407   0.637   4.396   0.715 -0.0932  0.4086  0.0202
   89SOL     OW  408   1.801   0.837   0.733 -0.0440  0.1428  0.0585
   89SOL    HW2  409   1.733   0.783   0.773  0.6054 -0.6064  0.1680
   89SOL    HW3  410   1.778   0.926   0.757 -0.4579 -0.1830  0.8947
   89SOL    MW4  411   1.789   0.841   0.741 -0.0130  0.0010  0.1833
   90SOL     OW  412   1.828   2.681   0.837 -0.0259  0.1574  0.0819
   90SOL    HW2  413   1.763   2.733   0.789  0.9678 -0.5884 -2.1461
   90SOL    HW3  414   1.824   2.595   0.796  1.3303 -0.3036  0.9150
   90SOL    MW4  415   1.819   2.677   0.825  0.2842 -0.0017 -0.1021
   91SOL     OW  416   1.571   2.322   0.454  0.3299  0.3375 -0.3402
   91SOL    HW2  417   1.476   2.321   0.439  0.5595  0.4298 -1.8930
   91SOL    HW3  418   1.595   2.230   0.458  0.0268  0.3103  1.1225
   91SOL    MW4  419   1.561   2.310   0.453  0.3202  0.3462 -0.3521
   92SOL     OW  420   0.720   3.120   0.815  0.1312 -0.2381  0.3897
   92SOL    HW2  421   0.635   3.157   0.792 -0.2312  0.0981  2.2525
   92SOL    HW3  422   0.705   3.025   0.814  0.5480 -0.3350 -2.3322
   92SOL    MW4  423   0.707   3.112   0.812  0.1384 -0.2062  0.2763
   93SOL     OW  424   1.115   2.290   0.879 -0.2251  0.7494 -0.0787
   93SOL    HW2  425   1.109   2.201   0.844  2.5666  0.6657 -0.4513
   93SOL    HW3  426   1.116   2.279   0.974 -0.7642  0.4688 -0.1003
   93SOL    MW4  427   1.114   2.277   0.887  0.0722  0.7017 -0.1307
   94SOL     OW  428   1.205   3.532   0.493 -0.8249  0.3620 -0.2637
   94SOL    HW2  429   1.116   3.504   0.473 -0.4070 -1.3605  0.1891
   94SOL    HW3  430   1.260   3.463   0.456  0.3644  1.9179 -1.4195
   94SOL    MW4  431   1.201   3.519   0.485 -0.6130  0.3402 -0.3564
   95SOL     OW  432   2.624   2.204   0.508  0.3510 -0.0838  0.0078
   95SOL    HW2  433   2.672   2.286   0.500 -0.4538  0.5995  1.7126
   95SOL    HW3  434   2.533   2.228   0.488  0.2481 -0.7428 -0.3243
   95SOL    MW4  435   2.618   2.218   0.505  0.2315 -0.0803  0.1889
   96SOL     OW  436   2.492   0.944   0.481 -0.0209 -0.1773  0.2454
   96SOL    HW2  437   2.403   0.911   0.476 -0.2144  0.0046  2.0936
   96SOL    HW3  438   2.483   1.038   0.493  0.4657  0.1304 -1.7277
   96SOL    MW4  439   2.479   0.952   0.482  0.0179 -0.1127  0.2289
   97SOL     OW  440   2.525   0.250   0.360  0.8390 -0.0520  0.4184
   97SOL    HW2  441   2.560   0.172   0.404  1.3982  0.1964  0.4124
   97SOL    HW3  442   2.586   0.320   0.382 -0.4120  0.6945  1.5368
   97SOL    MW4  443   2.538   0.249   0.369  0.7477  0.0792  0.5652
   98SOL     OW  444   0.705   2.839   0.801  0.0058  0.0041  0.2364
   98SOL    HW2  445   0.780   2.783   0.823 -0.5068 -0.0984  1.7908
   98SOL    HW3  446   0.633   2.803   0.853 -0.7440  1.0803 -0.0547
   98SOL    MW4  447   0.706   2.827   0.810 -0.1606  0.1328  0.4030
   99SOL     OW  448   0.339   3.620   0.457 -0.2748 -0.3233  0.0772
   99SOL    HW2  449   0.313   3.637   0.547  0.8563  0.2259  0.3089
   99SOL    HW3  450   0.348   3.707   0.418  1.0772 -0.5002 -0.0223
   99SOL    MW4  451   0.337   3.634   0.464  0.0528 -0.2742  0.0947
  100SOL     OW  452   2.310   2.783   0.867 -0.0859  0.0889 -0.0344
  100SOL    HW2  453   2.293   2.756   0.957 -0.7468 -0.6375 -0.3807
  100SOL    HW3  454   2.230   2.763   0.820 -0.2684  1.8102 -0.4859
  100SOL    MW4  455   2.297   2.777   0.873 -0.1974  0.2203 -0.1397
  101SOL     OW  456   1.596   4.153   0.452  0.5463  0.0870  0.5923
  101SOL    HW2  457   1.691   4.146   0.436  0.0198  0.2049 -2.8986
  101SOL    HW3  458   1.571   4.066   0.482  1.6557 -0.1185  0.9653
  101SOL    MW4  459   1.606   4.141   0.454  0.6232  0.0753  0.1810
  102SOL     OW  460   0.491   3.916   0.468 -0.2921 -0.1722 -0.3174
  102SOL    HW2  461   0.478   3.934   0.561 -0.3088  1.3060 -0.5837
  102SOL    HW3  462   0.585   3.904   0.458 -0.1068  1.2194 -0.3508
  102SOL    MW4  463   0.501   3.917   0.479 -0.2699  0.2065 -0.3569
  103SOL     OW  464   3.914   1.495   0.379  0.0987 -0.4623 -0.0709
  103SOL    HW2  465   3.858   1.561   0.339  1.2387  0.8214  0.4377
  103SOL    HW3  466   3.925   1.428   0.311 -2.6401 -1.1152  0.0790
  103SOL    MW4  467   3.908   1.495   0.365 -0.1121 -0.3790  0.0159
  104SOL     OW  468   0.694   3.365   0.366 -0.4296  0.1013 -0.4074
  104SOL    HW2  469   0.689   3.384   0.272 -0.7322  2.1268  0.0104
  104SOL    HW3  470   0.610   3.324   0.386 -1.1339  1.4190 -0.6377
  104SOL    MW4  471   0.683   3.362   0.356 -0.5625  0.5424 -0.3827
  105SOL     OW  472   3.767   1.074   0.393  0.1568  0.5301 -0.3163
  105SOL    HW2  473   3.851   1.048   0.430 -0.0825  1.4747  0.9191
  105SOL    HW3  474   3.741   1.151   0.443 -2.3248 -0.8418  0.6025
  105SOL    MW4  475   3.774   1.081   0.405 -0.2027  0.4737 -0.0321
  106SOL     OW  476   3.421   2.023   0.505 -0.1103  0.1659  0.1319
  106SOL    HW2  477   3.412   2.047   0.597  1.2677  0.6097  0.1725
  106SOL    HW3  478   3.506   2.059   0.479 -0.4279 -0.0487 -1.2835
  106SOL    MW4  479   3.431   2.031   0.514  0.0298  0.1962 -0.0494
  107SOL     OW  480   3.194   3.855   0.528  0.3037 -0.2446 -0.4046
  107SOL    HW2  481   3.194   3.894   0.616  2.0598 -0.2382 -0.3836
  107SOL    HW3  482   3.174   3.928   0.470 -2.1704 -0.5123  0.0815
  107SOL    MW4  483   3.192   3.870   0.532  0.2091 -0.2794 -0.3377
  108SOL     OW  484   3.702   3.099   0.269 -0.1559  0.1278 -0.2670
  108SOL    HW2  485   3.636   3.064   0.329 -0.2834 -0.2094 -0.5984
  108SOL    HW3  486   3.696   3.194   0.279 -0.6060  0.0947 -0.1989
  108SOL    MW4  487   3.693   3.107   0.278 -0.2325  0.0789 -0.3017
  109SOL     OW  488   2.508   3.880   0.891 -0.3826  0.9496  0.1845
  109SOL    HW2  489   2.432   3.933   0.869  0.1717  1.0003 -1.7028
  109SOL    HW3  490   2.581   3.921   0.844  0.2078 -0.9653 -0.6451
  109SOL    MW4  491   2.508   3.892   0.882 -0.2317  0.7038 -0.1739
  110SOL     OW  492   4.103   2.712   0.304 -0.2566  0.2306  0.3903
  110SOL    HW2  493   4.049   2.790   0.299  0.4925  0.7774  0.7848
  110SOL    HW3  494   4.058   2.656   0.367 -0.7875  0.3451  0.1139
  110SOL    MW4  495   4.090   2.715   0.311 -0.2279  0.3178  0.4059
  111SOL     OW  496   0.041   1.838   0.313  0.8486  0.3375 -0.0684
  111SOL    HW2  497   0.079   1.783   0.381 -1.6787 -0.8804  0.4116
  111SOL    HW3  498  -0.052   1.845   0.336  0.4196  1.8957 -2.0644
  111SOL    MW4  499   0.033   1.832   0.325  0.4586  0.3823 -0.2685
  112SOL     OW  500   0.531   4.414   0.321 -0.2811  0.7368  0.5186
  112SOL    HW2  501   0.521   4.483   0.256 -1.1085  0.5056  0.3917
  112SOL    HW3  502   0.445   4.409   0.364 -0.3162 -0.3843  0.3392
  112SOL    MW4  503   0.518   4.423   0.318 -0.3949  0.5584  0.4782
  113SOL     OW  504   0.677   1.844   0.723 -0.0977 -0.2822 -0.8111
  113SOL    HW2  505   0.594   1.843   0.771  0.1253 -0.9738 -0.4319
  113SOL    HW3  506   0.731   1.908   0.769 -0.0062 -0.6917 -0.3567
  113SOL    MW4  507   0.673   1.852   0.735 -0.0563 -0.4275 -0.7011
  114SOL     OW  508   3.453   3.888   0.365 -0.3090 -0.0808 -0.1375
  114SOL    HW2  509   3.374   3.858   0.410 -1.3095 -0.3114 -1.9743
  114SOL    HW3  510   3.433   3.979   0.342 -0.4373 -0.4433 -1.4738
  114SOL    MW4  511   3.440   3.896   0.368 -0.4580 -0.1590 -0.5562
  115SOL     OW  512   1.159   2.845   0.730  0.2596 -0.2860  0.0040
  115SOL    HW2  513   1.081   2.807   0.771  1.1550 -1.1981  0.9092
  115SOL    HW3  514   1.233   2.800   0.773  1.2662  0.1091 -1.2763
  115SOL    MW4  515   1.159   2.834   0.741  0.5105 -0.3543 -0.0455
  116SOL     OW  516   1.862   4.556   0.311  0.3255 -0.1000 -0.0012
  116SOL    HW2  517   1.778   4.562   0.356  0.7348  0.8871  0.6660
  116SOL    HW3  518   1.880   4.645   0.282  0.3784 -0.6166 -1.5710
  116SOL    MW4  519   1.854   4.568   0.313  0.3866 -0.0381 -0.1203
  117SOL     OW  520   4.216   0.033   0.450 -0.3018  0.2602  0.1216
  117SOL    HW2  521   4.231   0.009   0.359 -0.1863  1.3514 -0.1510
  117SOL    HW3  522   4.291   0.088   0.473  1.3144 -2.5763  1.8453
  117SOL    MW4  523   4.228   0.037   0.441 -0.0734  0.0300  0.3130
  118SOL     OW  524   3.694   3.378   0.323 -0.1340  0.1143  0.5436
  118SOL    HW2  525   3.784   3.393   0.350 -0.1293  0.3984  0.3680
  118SOL    HW3  526   3.651   3.462   0.336 -0.4527 -0.1050  0.9375
  118SOL    MW4  527   3.700   3.391   0.328 -0.1752  0.1233  0.5724
  119SOL     OW  528   2.439   4.413   0.750  0.2071  0.1724  0.0391
  119SOL    HW2  529   2.515   4.360   0.776  0.5985  0.9433  0.4872
  119SOL    HW3  530   2.453   4.497   0.793 -1.6165 -0.1237  1.2789
  119SOL    MW4  531   2.451   4.417   0.759  0.0181  0.2351  0.2618
  120SOL     OW  532   2.520   0.530   0.716 -0.1896 -0.2756  0.2287
  120SOL    HW2  533   2.429   0.509   0.735  0.2868 -0.5855  2.2944
  120SOL    HW3  534   2.571   0.463   0.761  1.0623 -0.1424 -0.9488
  120SOL    MW4  535   2.515   0.519   0.724  0.0384 -0.2989  0.3459
  121SOL     OW  536   0.299   0.302   0.578  0.0447  0.2830  0.0916
  121SOL    HW2  537   0.378   0.352   0.555  0.1378  0.6550  1.2058
  121SOL    HW3  538   0.248   0.301   0.497  0.7747  0.8255 -0.3873
  121SOL    MW4  539   0.303   0.308   0.564  0.1533  0.4037  0.1754
  122SOL     OW  540   0.778   0.499   0.574 -0.2077 -0.3444  0.6483
  122SOL    HW2  541   0.862   0.512   0.530 -0.5022 -0.0164  0.1792
  122SOL    HW3  542   0.801   0.486   0.666  0.3460 -0.0696  0.5501
  122SOL    MW4  543   0.792   0.499   0.580 -0.1735 -0.2649  0.5735
  123SOL     OW  544   3.779   2.402   0.419 -0.2276 -0.2619  0.3242
  123SOL    HW2  545   3.698   2.453   0.428  0.6627  1.2114  0.1691
  123SOL    HW3  546   3.844   2.453   0.467  0.8831 -0.8053 -0.5904
  123SOL    MW4  547   3.777   2.416   0.427  0.0362 -0.1395  0.1831
  124SOL     OW  548   2.309   1.711   0.529  0.3738 -0.0537  0.3105
  124SOL    HW2  549   2.346   1.627   0.500  1.1461 -0.0830  1.3844
  124SOL    HW3  550   2.228   1.719   0.478  0.5275 -1.2283 -0.1449
  124SOL    MW4  551   2.303   1.701   0.518  0.4959 -0.2126  0.3920
  125SOL     OW  552   3.248   0.435   0.477  0.2746 -0.1101 -0.6674
  125SOL    HW2  553   3.299   0.510   0.508  0.2366 -0.0225 -0.8114
  125SOL    HW3  554   3.166   0.473   0.445 -0.8136 -0.4770  1.5835
  125SOL    MW4  555   3.244   0.450   0.477  0.1261 -0.1470 -0.3894
  126SOL     OW  556   1.696   2.766   0.457 -0.5286  0.2893  0.0524
  126SOL    HW2  557   1.730   2.679   0.436 -0.1168  0.3433  0.4789
  126SOL    HW3  558   1.630   2.783   0.390 -0.3086 -0.1756 -0.2858
  126SOL    MW4  559   1.692   2.757   0.445 -0.4454  0.2351  0.0641
  127SOL     OW  560   0.868   1.647   0.716 -0.1088  0.1566  0.1225
  127SOL    HW2  561   0.845   1.618   0.628 -0.6021 -0.5002  0.4709
  127SOL    HW3  562   0.808   1.720   0.733 -0.0591  0.2400 -0.0506
  127SOL    MW4  563   0.857   1.653   0.706 -0.1674  0.0809  0.1456
  128SOL     OW  564   0.441   3.942   0.742  0.1084  0.5881  0.6718
  128SOL    HW2  565   0.487   3.891   0.809  0.0176  0.0020  0.2895
  128SOL    HW3  566   0.420   4.025   0.786 -0.6264 -0.0870  1.6138
  128SOL    MW4  567   0.444   3.946   0.757 -0.0006  0.4222  0.7457
  129SOL     OW  568   4.097   0.312   0.924 -0.3646  0.0692  0.5299
  129SOL    HW2  569   4.083   0.234   0.871  0.6562  0.8312 -0.9110
  129SOL    HW3  570   4.185   0.341   0.901 -1.3564  2.6052 -0.2705
  129SOL    MW4  571   4.107   0.306   0.914 -0.3605  0.5043  0.2341
  130SOL     OW  572   1.093   4.661   0.855 -0.2889  0.5897  0.0330
  130SOL    HW2  573   1.020   4.714   0.822 -0.5962  0.3453  0.3156
  130SOL    HW3  574   1.088   4.579   0.805 -1.2260 -0.0917  1.2070
  130SOL    MW4  575   1.082   4.657   0.844 -0.4530  0.4675  0.2252
  131SOL     OW  576   3.956   3.401   0.411 -0.0644 -0.3054 -0.1601
  131SOL    HW2  577   3.977   3.312   0.437 -0.5114  0.1344  1.8087
  131SOL    HW3  578   4.037   3.450   0.424 -0.0536 -0.2506 -0.4277
  131SOL    MW4  579   3.969   3.396   0.416 -0.1218 -0.2401  0.0643
  132SOL     OW  580   3.345   1.558   0.396  0.1264 -0.1428  0.0175
  132SOL    HW2  581   3.331   1.536   0.304  0.4497 -0.2489 -0.0073
  132SOL    HW3  582   3.342   1.474   0.441 -1.0439  0.0079  0.2407
  132SOL    MW4  583   3.343   1.544   0.389  0.0145 -0.1370  0.0436
  133SOL     OW  584   0.461   3.225   0.488 -0.0598  0.1963 -0.0033
  133SOL    HW2  585   0.471   3.130   0.487  0.9529  0.2988 -0.1693
  133SOL    HW3  586   0.367   3.239   0.499 -0.1210 -0.8233  0.9053
  133SOL    MW4  587   0.450   3.214   0.489  0.0657  0.0753  0.0947
  134SOL     OW  588   2.506   0.781   0.845 -0.1561 -0.9606 -0.1862
  134SOL    HW2  589   2.424   0.813   0.807 -0.0738 -0.6511 -0.0998
  134SOL    HW3  590   2.531   0.708   0.788 -0.1712 -0.6649 -0.5769
  134SOL    MW4  591   2.499   0.776   0.832 -0.1471 -0.8807 -0.2264
  135SOL     OW  592   2.791   3.187   0.262  0.0089  0.0219  0.2444
  135SOL    HW2  593   2.853   3.256   0.238 -0.2857 -0.1138 -0.9634
  135SOL    HW3  594   2.832   3.106   0.232 -1.0365 -0.0040 -1.1902
  135SOL    MW4  595   2.805   3.186   0.255 -0.1678  0.0010 -0.1042
  136SOL     OW  596   2.012   4.636   0.800 -0.2014  0.6264 -0.0693
  136SOL    HW2  597   2.033   4.554   0.756  0.8094  0.6310  0.3980
  136SOL    HW3  598   2.067   4.702   0.757  0.0244  0.8132  0.5017
  136SOL    MW4  599   2.022   4.634   0.788 -0.0381  0.6514  0.0677
  137SOL     OW  600   2.012   1.488   0.807  0.5377  0.1030 -0.7456
  137SOL    HW2  601   1.995   1.458   0.896 -0.1511 -0.1682 -0.9668
  137SOL    HW3  602   2.092   1.541   0.815 -0.5921  1.6891  0.3802
  137SOL    MW4  603   2.020   1.491   0.820  0.2978  0.2766 -0.6263
  138SOL     OW  604   0.263   3.648   0.707 -0.1801  0.0699  0.4078
  138SOL    HW2  605   0.319   3.592   0.760  0.9321 -0.2233 -1.0594
  138SOL    HW3  606   0.228   3.712   0.770  0.9371 -0.3935  1.5382
  138SOL    MW4  607   0.266   3.649   0.723  0.1141 -0.0300  0.3633
  139SOL     OW  608   1.896   4.026   0.779 -0.2560 -0.6977  0.4439
  139SOL    HW2  609   1.893   4.022   0.684 -0.2654  0.1802  0.4048
  139SOL    HW3  610   1.847   4.105   0.801  1.1440 -0.0115  1.1034
  139SOL    MW4  611   1.889   4.036   0.770 -0.0726 -0.4911  0.5257
  140SOL     OW  612   2.027   2.353   0.400  0.0775 -0.3084 -0.5387
  140SOL    HW2  613   2.078   2.385   0.326  0.7614  0.0613  0.0788
  140SOL    HW3  614   2.034   2.258   0.395  1.0751 -0.2533 -0.3062
  140SOL    MW4  615   2.035   2.345   0.390  0.2995 -0.2525 -0.4266
  141SOL     OW  616   1.179   4.667   0.281 -0.3299  0.3778  0.4369
  141SOL    HW2  617   1.104   4.609   0.296 -0.3581  0.1191 -0.6422
  141SOL    HW3  618   1.167   4.738   0.343 -0.3744 -0.7065  1.6906
  141SOL    MW4  619   1.167   4.668   0.291 -0.3395  0.2003  0.4599
  142SOL     OW  620   3.413   1.286   0.773  0.4782  0.3552 -0.3852
  142SOL    HW2  621   3.322   1.255   0.779  1.0692 -1.1972  0.8757
  142SOL    HW3  622   3.418   1.357   0.838  0.5051 -0.4490  0.5039
  142SOL    MW4  623   3.402   1.292   0.782  0.5596  0.0443 -0.1015
  143SOL     OW  624   0.303   0.674   0.403 -0.1239  0.6741 -0.1837
  143SOL    HW2  625   0.217   0.672   0.359 -0.9948  1.0370  1.4572
  143SOL    HW3  626   0.333   0.583   0.398 -1.2227  0.2590  0.3673
  143SOL    MW4  627   0.295   0.661   0.397 -0.3837  0.6673  0.1055
  144SOL     OW  628   2.153   3.157   0.368  0.4009  0.1914  0.5859
  144SOL    HW2  629   2.063   3.185   0.381  0.0387 -1.3778  1.6325
  144SOL    HW3  630   2.206   3.223   0.414 -0.2489  0.7050  0.6000
  144SOL    MW4  631   2.148   3.170   0.376  0.2675  0.0522  0.7259
  145SOL     OW  632   1.802   0.853   0.457 -0.4212  0.0591  0.7937
  145SOL    HW2  633   1.846   0.772   0.431 -0.1711 -0.2501  2.1601
  145SOL    HW3  634   1.803   0.852   0.552  1.2990  2.6057  0.8557
  145SOL    MW4  635   1.808   0.842   0.466 -0.1613  0.3542  0.9822
  146SOL     OW  636   3.702   2.114   0.436 -0.4697  0.0793 -0.3422
  146SOL    HW2  637   3.707   2.206   0.411  0.2593  0.2736  0.4750
  146SOL    HW3  638   3.775   2.073   0.389  0.5790  0.3483  1.0034
  146SOL    MW4  639   3.712   2.120   0.427 -0.2348  0.1404 -0.0569
  147SOL     OW  640   1.863   3.137   0.446 -0.4723 -0.0069  0.0910
  147SOL    HW2  641   1.852   3.159   0.539 -1.0139  0.6664 -0.1309
  147SOL    HW3  642   1.776   3.106   0.419 -0.3516 -0.0601 -0.2300
  147SOL    MW4  643   1.850   3.136   0.455 -0.5277  0.0749  0.0194
  148SOL     OW  644   1.149   4.065   0.440  0.2874 -0.4789  0.1698
  148SOL    HW2  645   1.179   3.979   0.412  0.4591 -1.1030  2.1579
  148SOL    HW3  646   1.057   4.051   0.464  0.8081 -0.5597  2.2241
  148SOL    MW4  647   1.141   4.052   0.440  0.3788 -0.5717  0.7032
  149SOL     OW  648   2.057   2.785   0.716  0.0242  0.2078 -0.3317
  149SOL    HW2  649   1.974   2.753   0.752 -0.5334  1.9188 -0.0508
  149SOL    HW3  650   2.034   2.819   0.630  0.5877 -0.0806 -0.5954
  149SOL    MW4  651   2.043   2.785   0.710  0.0246  0.3955 -0.3294
  150SOL     OW  652   3.384   0.684   0.551  0.3224  0.1186  0.7642
  150SOL    HW2  653   3.474   0.714   0.538  1.1532 -2.9896 -1.1608
  150SOL    HW3  654   3.387   0.633   0.632  0.2064  0.3164  0.8940
  150SOL    MW4  655   3.396   0.682   0.560  0.4170 -0.2653  0.5274
  151SOL     OW  656   4.371   3.832   0.501  0.0912 -0.2834  0.2913
  151SOL    HW2  657   4.402   3.907   0.451  0.0893 -0.4407  0.0558
  151SOL    HW3  658   4.400   3.849   0.591  1.3282 -0.6891 -0.0235
  151SOL    MW4  659   4.379   3.844   0.507  0.2546 -0.3579  0.2187
  152SOL     OW  660   3.395   3.873   0.884  0.2401 -0.2892  0.3903
  152SOL    HW2  661   3.404   3.856   0.978  0.4055  1.5533  0.7349
  152SOL    HW3  662   3.485   3.877   0.851  0.1875 -0.7497  0.1905
  152SOL    MW4  663   3.408   3.871   0.892  0.2551 -0.1070  0.4095
  153SOL     OW  664   4.259   0.436   0.566 -0.1720  0.2265  0.6343
  153SOL    HW2  665   4.257   0.442   0.662  0.0783  1.8867  0.5475
  153SOL    HW3  666   4.308   0.513   0.538 -0.3937 -0.1570 -0.8449
  153SOL    MW4  667   4.265   0.447   0.575 -0.1683  0.3949  0.4277
  154SOL     OW  668   2.670   2.788   0.121  0.3469 -0.1216  0.3206
  154SOL    HW2  669   2.591   2.838   0.099 -0.0966 -0.7524  0.4695
  154SOL    HW3  670   2.641   2.725   0.187  0.7659 -0.9972 -0.3261
  154SOL    MW4  671   2.656   2.787   0.127  0.3438 -0.3207  0.2549
  155SOL     OW  672   3.362   2.770   0.500  0.0470 -0.2658  0.2055
  155SOL    HW2  673   3.415   2.843   0.467  0.4652 -0.6477  0.0308
  155SOL    HW3  674   3.420   2.694   0.494 -0.6338 -0.7419 -0.2721
  155SOL    MW4  675   3.377   2.770   0.495  0.0124 -0.3788  0.1194
  156SOL     OW  676   1.461   4.388   0.494 -0.4050  0.3245  0.5582
  156SOL    HW2  677   1.512   4.309   0.474 -0.7929  0.5210 -1.2650
  156SOL    HW3  678   1.369   4.361   0.483 -0.5181  1.1955 -0.6890
  156SOL    MW4  679   1.455   4.374   0.490 -0.4710  0.4654  0.1531
  157SOL     OW  680   2.955   2.302   0.902 -0.1088  0.5075 -0.3805
  157SOL    HW2  681   2.874   2.341   0.870 -1.6025 -0.4875  2.0078
  157SOL    HW3  682   2.946   2.304   0.997  1.2740 -2.4017 -0.1207
  157SOL    MW4  683   2.943   2.307   0.910 -0.1235 -0.0074 -0.0311
  158SOL     OW  684   2.055   1.802   0.440  0.1370  0.0236  0.2533
  158SOL    HW2  685   1.966   1.767   0.434 -0.1733  0.9704 -0.9572
  158SOL    HW3  686   2.045   1.896   0.425  1.5124 -0.0950 -1.5564
  158SOL    MW4  687   2.042   1.810   0.437  0.2775  0.1328 -0.1452
  159SOL     OW  688   4.370   0.678   0.458  0.0782 -0.0291 -0.1352
  159SOL    HW2  689   4.280   0.710   0.455  0.3059  0.6232 -0.2784
  159SOL    HW3  690   4.410   0.727   0.530  0.9530  1.4320 -1.5659
  159SOL    MW4  691   4.364   0.689   0.467  0.2236  0.2497 -0.3428
  160SOL     OW  692   0.021   0.112   0.754 -0.3096  0.5345 -0.0826
  160SOL    HW2  693  -0.038   0.053   0.800  0.0638  0.4589  0.3095
  160SOL    HW3  694   0.032   0.186   0.814 -0.1481  0.6280 -0.2275
  160SOL    MW4  695   0.015   0.114   0.768 -0.2389  0.5369 -0.0499
  161SOL     OW  696   1.133   1.255   0.793 -0.2084  0.1308  0.1438
  161SOL    HW2  697   1.215   1.231   0.837 -0.0913  0.3077  0.0226
  161SOL    HW3  698   1.155   1.253   0.700 -0.0930  1.1219  0.1525
  161SOL    MW4  699   1.147   1.251   0.786 -0.1777  0.2850  0.1290
  162SOL     OW  700   1.976   2.073   0.439 -0.2665  0.0799  0.4473
  162SOL    HW2  701   1.884   2.049   0.445 -0.0620 -0.6153  0.7959
  162SOL    HW3  702   2.008   2.071   0.529  0.3870 -0.8771  0.2099
  162SOL    MW4  703   1.968   2.070   0.451 -0.1533 -0.1378  0.4620
  163SOL     OW  704   4.013   4.224   0.455  0.2735 -0.6076  0.0856
  163SOL    HW2  705   4.074   4.298   0.458 -0.4066 -0.0602  0.7200
  163SOL    HW3  706   4.062   4.155   0.412  0.6381  0.4735 -1.2654
  163SOL    MW4  707   4.028   4.225   0.450  0.2322 -0.3929 -0.0090
  164SOL     OW  708   0.062   1.126   0.583  0.2443  0.2679 -0.0027
  164SOL    HW2  709  -0.028   1.146   0.559  0.1720  0.6187  0.5535
  164SOL    HW3  710   0.074   1.167   0.668  1.0929  0.6848 -0.3132
  164SOL    MW4  711   0.052   1.134   0.591  0.3468  0.3692  0.0297
  165SOL     OW  712   3.134   1.207   0.511 -0.3615  0.0223  0.3431
  165SOL    HW2  713   3.130   1.111   0.516  1.2347 -0.1096 -0.4625
  165SOL    HW3  714   3.045   1.236   0.529 -0.3180 -1.4973  3.2798
  165SOL    MW4  715   3.122   1.198   0.514 -0.1450 -0.1955  0.6242
  166SOL     OW  716   0.960   0.878   0.643  0.6413  0.1801  0.3966
  166SOL    HW2  717   0.878   0.848   0.604  1.0970  0.2449 -0.6335
  166SOL    HW3  718   0.933   0.934   0.716 -0.2323  0.5953 -0.2371
  166SOL    MW4  719   0.946   0.882   0.648  0.5861  0.2434  0.1770
  167SOL     OW  720   0.014   3.170   0.748 -0.4938 -0.2465 -0.4021
  167SOL    HW2  721   0.093   3.125   0.777 -0.7502 -1.0962 -0.9940
  167SOL    HW3  722   0.037   3.263   0.748  0.6519 -0.5243 -1.0115
  167SOL    MW4  723   0.027   3.176   0.752 -0.3765 -0.3953 -0.5606
  168SOL     OW  724   3.437   4.362   0.502 -0.2058 -0.0914  0.0046
  168SOL    HW2  725   3.412   4.454   0.488 -1.9544 -0.5426  0.0260
  168SOL    HW3  726   3.532   4.361   0.490 -0.1045  1.8080  0.4368
  168SOL    MW4  727   3.446   4.374   0.499 -0.4232  0.0997  0.0644
  169SOL     OW  728   1.563   3.060   0.460  0.0720 -0.1470 -0.0788
  169SOL    HW2  729   1.505   3.020   0.395 -1.1757 -0.5127  1.2232
  169SOL    HW3  730   1.561   3.000   0.534 -0.8200  1.6749  1.4187
  169SOL    MW4  731   1.555   3.047   0.461 -0.2102  0.0451  0.2906
  170SOL     OW  732   0.476   4.648   0.164 -0.0725  0.0453 -0.4912
  170SOL    HW2  733   0.443   4.661   0.075  0.5822  0.3781 -0.6876
  170SOL    HW3  734   0.399   4.657   0.220 -0.5728 -0.6439 -1.0629
  170SOL    MW4  735   0.461   4.651   0.159 -0.0521 -0.0019 -0.5925
  171SOL     OW  736   2.025   1.222   0.725 -0.2839  0.2429 -0.1719
  171SOL    HW2  737   2.042   1.221   0.630  1.0116  0.8036  0.0473
  171SOL    HW3  738   1.995   1.311   0.743 -0.0629  0.2778  0.0249
  171SOL    MW4  739   2.023   1.234   0.715 -0.0839  0.3216 -0.1170
  172SOL     OW  740   2.154   2.566   0.564 -0.2836  0.1399  0.4049
  172SOL    HW2  741   2.125   2.639   0.619 -2.2385  0.8765 -1.5065
  172SOL    HW3  742   2.074   2.518   0.543  0.3047  0.2502 -2.2877
  172SOL    MW4  743   2.139   2.569   0.568 -0.4640  0.2515 -0.2025
  173SOL     OW  744   3.575   3.633   0.375 -0.4132 -0.4678  0.4002
  173SOL    HW2  745   3.657   3.642   0.423 -0.1750 -0.7219  0.0387
  173SOL    HW3  746   3.550   3.723   0.355  0.5455 -0.4553 -0.7853
  173SOL    MW4  747   3.583   3.646   0.379 -0.2551 -0.4997  0.1961
  174SOL     OW  748   3.177   0.174   0.508  0.3766 -0.1507  0.0354
  174SOL    HW2  749   3.212   0.263   0.517  1.9612 -0.6442 -1.1306
  174SOL    HW3  750   3.178   0.139   0.597  2.9940 -0.1961  0.0037
  174SOL    MW4  751   3.182   0.181   0.521  0.9310 -0.2218 -0.1227
  175SOL     OW  752   0.385   2.757   0.511  0.3012 -0.1931  0.0150
  175SOL    HW2  753   0.365   2.776   0.603  0.6605 -0.5672  0.1688
  175SOL    HW3  754   0.433   2.674   0.513 -1.3281 -1.1695 -0.6740
  175SOL    MW4  755   0.389   2.749   0.524  0.1336 -0.3710 -0.0557
  176SOL     OW  756   2.586   3.864   0.515 -0.1303 -0.0117  0.2356
  176SOL    HW2  757   2.648   3.931   0.544  0.5355 -1.1820  1.5832
  176SOL    HW3  758   2.502   3.909   0.510  0.4369  1.0769  0.4586
  176SOL    MW4  759   2.583   3.879   0.518  0.0324 -0.0226  0.4427
  177SOL     OW  760   2.266   2.333   0.680 -0.0932  0.2253  0.2184
  177SOL    HW2  761   2.255   2.427   0.664  0.0227  0.4395  1.3759
  177SOL    HW3  762   2.186   2.307   0.726 -0.4501 -0.3953 -0.7431
  177SOL    MW4  763   2.254   2.342   0.684 -0.1249  0.1714  0.2442
  178SOL     OW  764   2.813   4.074   0.538  0.5322 -0.2163 -0.2071
  178SOL    HW2  765   2.774   4.124   0.467  0.6269 -0.4216 -0.4020
  178SOL    HW3  766   2.905   4.064   0.514  0.5195 -0.4646 -0.1564
  178SOL    MW4  767   2.820   4.079   0.526  0.5434 -0.2761 -0.2261
  179SOL     OW  768   2.295   2.513   0.331 -0.1036 -0.2808 -0.1563
  179SOL    HW2  769   2.316   2.421   0.344 -0.2918 -0.4121 -0.7764
  179SOL    HW3  770   2.242   2.537   0.407  1.2028 -0.2828  0.7708
  179SOL    MW4  771   2.291   2.504   0.343  0.0441 -0.2985 -0.1158
  180SOL     OW  772   2.975   1.932   0.496  0.1805 -0.4649  0.4104
  180SOL    HW2  773   3.023   1.850   0.509  1.1899  0.1020  0.2811
  180SOL    HW3  774   3.027   1.981   0.433 -0.4335  0.2699  0.4633
  180SOL    MW4  775   2.988   1.928   0.489  0.2327 -0.2930  0.4003
  181SOL     OW  776   1.086   2.040   0.778  0.1939 -0.1317  0.4651
  181SOL    HW2  777   1.111   2.049   0.686 -0.2344 -0.8367  0.2775
  181SOL    HW3  778   1.163   2.001   0.820 -0.1854 -1.3142  0.0900
  181SOL    MW4  779   1.100   2.036   0.771  0.0874 -0.3808  0.3909
  182SOL     OW  780   4.322   2.375   0.866 -0.3811 -0.3921  0.1415
  182SOL    HW2  781   4.397   2.380   0.808  1.3197  0.2990  2.3216
  182SOL    HW3  782   4.289   2.286   0.856  0.6218 -0.6463 -0.9408
  182SOL    MW4  783   4.327   2.364   0.857 -0.0238 -0.3345  0.2864
  183SOL     OW  784   2.019   0.499   0.738 -0.4064  0.2300  0.2174
  183SOL    HW2  785   1.959   0.438   0.783 -0.9274  0.9758  0.5489
  183SOL    HW3  786   2.036   0.457   0.654  0.1138 -0.9052  0.8784
  183SOL    MW4  787   2.013   0.485   0.733 -0.4065  0.1786  0.3483
  184SOL     OW  788   1.342   1.711   0.801  0.3687  0.2414 -0.0596
  184SOL    HW2  789   1.415   1.650   0.812  0.2224 -0.2898 -1.9291
  184SOL    HW3  790   1.264   1.656   0.801  0.0908  0.6313  0.2005
  184SOL    MW4  791   1.341   1.696   0.802  0.3126  0.2227 -0.2720
  185SOL     OW  792   0.103   2.684   0.439 -0.1636  0.2447  0.2348
  185SOL    HW2  793   0.126   2.613   0.499 -0.4362 -1.1988 -1.3234
  185SOL    HW3  794   0.181   2.740   0.436  0.3910 -0.4972  0.7779
  185SOL    MW4  795   0.116   2.682   0.446 -0.1264 -0.0436  0.1009
  186SOL     OW  796   0.888   1.077   0.835 -0.0430  0.0909 -0.4579
  186SOL    HW2  797   0.942   1.152   0.811 -0.1259  0.1086 -0.5861
  186SOL    HW3  798   0.799   1.110   0.836 -0.1863 -0.2395 -1.4777
  186SOL    MW4  799   0.883   1.091   0.832 -0.0728  0.0497 -0.6093
  187SOL     OW  800   3.629   1.676   0.742  0.3247 -0.0613 -0.0270
  187SOL    HW2  801   3.624   1.696   0.648  0.8409  0.1950 -0.0025
  187SOL    HW3  802   3.546   1.633   0.762 -0.1401  0.6546 -0.4153
  187SOL    MW4  803   3.618   1.673   0.732  0.3316  0.0670 -0.0750
  188SOL     OW  804   3.567   3.235   0.827 -0.1972  0.4507 -0.2074
  188SOL    HW2  805   3.489   3.192   0.860  0.9571 -1.4422  0.1335
  188SOL    HW3  806   3.553   3.241   0.732 -0.4980 -0.3989 -0.2161
  188SOL    MW4  807   3.555   3.230   0.819 -0.0846  0.0887 -0.1636
  189SOL     OW  808   2.655   1.156   0.654  0.0994  0.3305 -0.0842
  189SOL    HW2  809   2.691   1.068   0.664 -0.8886 -0.2701 -1.7646
  189SOL    HW3  810   2.732   1.213   0.652  0.9087 -0.8141 -2.3164
  189SOL    MW4  811   2.670   1.152   0.655  0.0761  0.1004 -0.6004
  190SOL     OW  812   3.002   1.404   0.856 -0.0616 -0.2884  0.6680
  190SOL    HW2  813   3.051   1.483   0.835 -0.5514  0.2115  1.4189
  190SOL    HW3  814   3.069   1.336   0.863  0.3056 -0.0500 -0.4896
  190SOL    MW4  815   3.017   1.405   0.854 -0.0777 -0.1911  0.6144
  191SOL     OW  816   4.347   4.208   0.280  0.1718  0.0244 -0.2564
  191SOL    HW2  817   4.283   4.138   0.291 -0.5790  0.7736  0.1580
  191SOL    HW3  818   4.328   4.271   0.350  0.4984  0.9029 -0.9358
  191SOL    MW4  819   4.336   4.207   0.291  0.1159  0.2394 -0.2913
  192SOL     OW  820   0.087   2.451   0.662 -0.3548 -0.0152 -0.4373
  192SOL    HW2  821   0.149   2.394   0.709 -0.2822  0.2966 -0.1514
  192SOL    HW3  822   0.038   2.392   0.606 -1.2634 -0.5694  0.9024
  192SOL    MW4  823   0.089   2.436   0.661 -0.4651 -0.0470 -0.2229
  193SOL     OW  824   2.557   3.149   0.455  0.0901  0.4836  0.0854
  193SOL    HW2  825   2.536   3.057   0.469  1.0031  0.1343 -0.8478
  193SOL    HW3  826   2.562   3.159   0.360  0.1334  1.4653  0.1863
  193SOL    MW4  827   2.555   3.138   0.445  0.2165  0.5672 -0.0244
  194SOL     OW  828   2.452   3.605   0.806  0.4875  0.0436 -0.1945
  194SOL    HW2  829   2.467   3.696   0.832  0.0087  0.4927 -1.4612
  194SOL    HW3  830   2.471   3.603   0.712  0.1396 -1.0799 -0.2511
  194SOL    MW4  831   2.457   3.617   0.797  0.3784 -0.0453 -0.3691
  195SOL     OW  832   2.269   3.524   0.393  0.5438  0.5201 -0.3438
  195SOL    HW2  833   2.307   3.508   0.306  2.0535  0.7360  0.2612
  195SOL    HW3  834   2.291   3.446   0.443 -1.4151 -0.1527 -0.5006
  195SOL    MW4  835   2.277   3.512   0.388  0.4845  0.4599 -0.2847
  196SOL     OW  836   1.168   0.905   0.302  0.3878  0.0637 -0.4374
  196SOL    HW2  837   1.085   0.943   0.329  0.6059  0.3430 -0.1464
  196SOL    HW3  838   1.145   0.840   0.236 -0.1940 -0.8395  0.6374
  196SOL    MW4  839   1.154   0.901   0.297  0.3399 -0.0186 -0.2572
  197SOL     OW  840   2.699   0.352   0.815  0.0423 -0.1263 -0.6291
  197SOL    HW2  841   2.779   0.403   0.798 -0.9309  1.6331 -0.0580
  197SOL    HW3  842   2.678   0.371   0.906 -0.7476 -0.9789 -0.6346
  197SOL    MW4  843   2.707   0.361   0.824 -0.1900 -0.0067 -0.5545
  198SOL     OW  844   2.098   3.882   0.891 -0.1505 -0.1110  0.1825
  198SOL    HW2  845   2.027   3.939   0.861 -0.5858 -1.0476 -0.5894
  198SOL    HW3  846   2.068   3.849   0.976  0.1281  0.8349  0.6600
  198SOL    MW4  847   2.085   3.885   0.899 -0.1712 -0.1099  0.1436
  199SOL     OW  848   0.886   0.171   0.760 -0.0667 -0.2960  0.0920
  199SOL    HW2  849   0.895   0.265   0.778  0.9027 -0.7479  2.0270
  199SOL    HW3  850   0.807   0.145   0.806  0.4149 -0.7039  0.6934
  199SOL    MW4  851   0.877   0.180   0.768  0.1248 -0.4094  0.4267
  200SOL     OW  852   2.350   2.252   0.428  0.2719  0.0707  0.0432
  200SOL    HW2  853   2.333   2.158   0.423  0.4067  0.0420  0.1213
  200SOL    HW3  854   2.325   2.275   0.517 -0.8198  0.3175 -0.3228
  200SOL    MW4  855   2.344   2.243   0.439  0.1457  0.0994  0.0052
  201SOL     OW  856   0.354   1.542   0.508 -0.2153  0.1709  0.3629
  201SOL    HW2  857   0.372   1.568   0.598 -1.5866 -0.1902  0.7601
  201SOL    HW3  858   0.332   1.449   0.515 -0.0674  0.0816 -0.3833
  201SOL    MW4  859   0.353   1.533   0.521 -0.3767  0.1115  0.3168
  202SOL     OW  860   4.070   2.479   0.787 -0.2258  0.6940 -0.3512
  202SOL    HW2  861   3.994   2.428   0.816 -0.1725  0.5751 -0.4197
  202SOL    HW3  862   4.143   2.417   0.792 -0.2176  0.6704 -0.7422
  202SOL    MW4  863   4.069   2.464   0.792 -0.2174  0.6752 -0.4119
  203SOL     OW  864   4.092   0.857   0.755  0.4773  0.2934  0.1435
  203SOL    HW2  865   4.010   0.820   0.788  0.9572 -0.1303  0.9026
  203SOL    HW3  866   4.091   0.948   0.783  0.1431  0.3582 -0.0809
  203SOL    MW4  867   4.081   0.864   0.763  0.4964  0.2460  0.2140
  204SOL     OW  868   1.586   3.619   0.799 -0.0215  0.1550  0.0164
  204SOL    HW2  869   1.620   3.707   0.815 -1.2624  1.2934 -3.2488
  204SOL    HW3  870   1.661   3.562   0.809  0.6855  1.4786  2.8104
  204SOL    MW4  871   1.600   3.623   0.803 -0.0918  0.4797 -0.0458
  205SOL     OW  872   3.574   2.589   0.505 -0.1223 -0.2173  0.2567
  205SOL    HW2  873   3.640   2.658   0.508 -0.3565  0.0197  0.0025
  205SOL    HW3  874   3.582   2.545   0.590  0.8001 -0.6122 -0.0311
  205SOL    MW4  875   3.583   2.592   0.517 -0.0315 -0.2382  0.1852
  206SOL     OW  876   2.406   0.028   0.850 -0.7070 -0.5761 -0.0637
  206SOL    HW2  877   2.390   0.020   0.944 -2.8198  1.4538 -0.2142
  206SOL    HW3  878   2.501   0.043   0.844 -0.5611 -0.6183  1.7374
  206SOL    MW4  879   2.417   0.029   0.862 -0.9665 -0.3138  0.1541
  207SOL     OW  880   4.298   1.232   0.522 -0.2314 -0.4377  0.1635
  207SOL    HW2  881   4.308   1.310   0.468  0.0700 -0.9135 -0.4752
  207SOL    HW3  882   4.274   1.266   0.609 -0.5373  0.3352 -0.2160
  207SOL    MW4  883   4.296   1.247   0.526 -0.2313 -0.3985  0.0291
  208SOL     OW  884   3.086   3.130   0.149  0.0842  0.1393  0.8640
  208SOL    HW2  885   3.038   3.054   0.118  0.2507  0.8001 -1.0582
  208SOL    HW3  886   3.129   3.100   0.229 -1.1812 -1.2844  1.0344
  208SOL    MW4  887   3.085   3.116   0.156 -0.0608  0.0384  0.6329
  209SOL     OW  888   3.716   1.317   0.506  0.1269 -0.6636  0.3294
  209SOL    HW2  889   3.739   1.397   0.459  2.1102 -2.0638 -1.1523
  209SOL    HW3  890   3.621   1.311   0.497  0.2158  0.2681 -1.6333
  209SOL    MW4  891   3.706   1.327   0.498  0.4001 -0.7254 -0.1251
  210SOL     OW  892   2.254   4.570   0.420  0.1656  0.0512 -0.0310
  210SOL    HW2  893   2.344   4.537   0.410  0.5321  0.9736  0.1621
  210SOL    HW3  894   2.205   4.495   0.454  0.8161 -0.5235 -0.3312
  210SOL    MW4  895   2.260   4.555   0.423  0.2997  0.0973 -0.0452
  211SOL     OW  896   3.997   2.590   0.535  0.0773 -0.4368  0.1605
  211SOL    HW2  897   3.932   2.652   0.568  0.5978  0.2932 -0.1709
  211SOL    HW3  898   4.022   2.538   0.612  0.3935  0.4439  0.6544
  211SOL    MW4  899   3.991   2.591   0.550  0.1876 -0.2244  0.1819
  212SOL     OW  900   2.948   0.485   0.780 -0.0479  0.0530 -0.4918
  212SOL    HW2  901   2.955   0.481   0.685 -1.2054 -0.3845 -0.5706
  212SOL    HW3  902   3.026   0.438   0.812 -0.5765 -1.3735 -1.2522
  212SOL    MW4  903   2.959   0.478   0.772 -0.2704 -0.1929 -0.6025
  213SOL     OW  904   0.072   0.556   0.292 -0.5447 -0.2022  0.3177
  213SOL    HW2  905   0.040   0.572   0.203 -0.1279  0.7136  0.3206
  213SOL    HW3  906   0.009   0.601   0.348  0.1404  0.7059  0.3794
  213SOL    MW4  907   0.059   0.564   0.287 -0.3993  0.0384  0.3263
  214SOL     OW  908   3.769   2.770   0.554 -0.5909 -0.5999 -0.1623
  214SOL    HW2  909   3.789   2.813   0.637 -0.4641 -0.5677 -0.2087
  214SOL    HW3  910   3.816   2.822   0.489 -0.1477 -1.0212 -0.1796
  214SOL    MW4  911   3.778   2.783   0.556 -0.5157 -0.6511 -0.1706
  215SOL     OW  912   0.889   2.023   0.442 -0.2351 -0.0386  0.4745
  215SOL    HW2  913   0.800   1.990   0.454 -0.0691 -0.9076 -0.5044
  215SOL    HW3  914   0.883   2.117   0.458 -1.3772 -0.0605  0.2069
  215SOL    MW4  915   0.876   2.031   0.445 -0.3639 -0.1564  0.3100
  216SOL     OW  916   3.805   2.090   0.726 -0.2611 -0.3117 -0.2006
  216SOL    HW2  917   3.782   2.111   0.636  1.5507 -1.0541 -0.8532
  216SOL    HW3  918   3.818   2.175   0.768 -0.3375  0.0255 -0.8551
  216SOL    MW4  919   3.804   2.104   0.720 -0.0319 -0.3653 -0.3731
  217SOL     OW  920   2.219   4.262   0.819  0.1702  0.0788  0.2322
  217SOL    HW2  921   2.259   4.177   0.798 -1.1158 -0.5114  0.1209
  217SOL    HW3  922   2.285   4.326   0.794  0.4108 -0.8103 -1.4878
  217SOL    MW4  923   2.233   4.259   0.813  0.0324 -0.1163 -0.0094
  218SOL     OW  924   1.054   2.403   0.332 -0.2916  0.5113 -0.0027
  218SOL    HW2  925   1.031   2.496   0.327 -0.5077  0.4705  0.2479
  218SOL    HW3  926   1.031   2.369   0.245  1.3614  1.0451 -0.6637
  218SOL    MW4  927   1.048   2.411   0.320 -0.1019  0.5763 -0.0568
  219SOL     OW  928   3.920   3.887   0.465 -0.1945  0.0308 -0.4091
  219SOL    HW2  929   3.892   3.796   0.475 -0.0967 -0.3550 -3.3933
  219SOL    HW3  930   3.838   3.937   0.473 -0.5565 -0.4763 -0.8781
  219SOL    MW4  931   3.905   3.882   0.468 -0.2294 -0.0870 -0.8647
  220SOL     OW  932   1.997   4.339   0.409  0.3684 -0.3384 -0.0896
  220SOL    HW2  933   1.956   4.419   0.375  0.6645 -0.4320 -0.6614
  220SOL    HW3  934   2.009   4.357   0.503  2.6017  1.2211 -0.6420
  220SOL    MW4  935   1.993   4.352   0.417  0.7020 -0.1450 -0.2379
  221SOL     OW  936   1.360   1.053   0.416 -0.2383  0.1004 -0.0190
  221SOL    HW2  937   1.289   1.010   0.368  0.5083 -0.3093 -0.7672
  221SOL    HW3  938   1.423   0.983   0.432  0.3971  0.6511 -0.1195
  221SOL    MW4  939   1.359   1.038   0.412 -0.0558  0.1190 -0.1311
  222SOL     OW  940   1.794   3.410   0.426  0.2135 -0.2247  0.1434
  222SOL    HW2  941   1.796   3.314   0.427  0.5456 -0.2290  2.1037
  222SOL    HW3  942   1.704   3.432   0.452  0.8353 -0.0271  2.2125
  222SOL    MW4  943   1.782   3.400   0.430  0.3395 -0.1993  0.6750
  223SOL     OW  944   3.176   1.174   0.861  0.0105  0.0659  0.3178
  223SOL    HW2  945   3.172   1.084   0.829 -1.7538 -0.1778  1.1547
  223SOL    HW3  946   3.170   1.166   0.956 -2.5215  1.1599  0.2942
  223SOL    MW4  947   3.174   1.161   0.870 -0.5562  0.1781  0.4251
  224SOL     OW  948   3.728   4.280   0.491 -0.3400  0.2958  0.0148
  224SOL    HW2  949   3.821   4.275   0.470 -0.2204 -0.6561  0.7076
  224SOL    HW3  950   3.698   4.189   0.491 -0.9602  0.4804  1.1072
  224SOL    MW4  951   3.736   4.268   0.489 -0.4060  0.1945  0.2504
  225SOL     OW  952   4.259   1.845   0.394 -0.2238  0.2094  0.2562
  225SOL    HW2  953   4.191   1.790   0.433 -0.3725  0.5376  0.4650
  225SOL    HW3  954   4.250   1.930   0.438  0.3641  0.2353  0.3361
  225SOL    MW4  955   4.249   1.849   0.405 -0.1655  0.2562  0.2944
  226SOL     OW  956   0.506   2.470   0.799  0.1460  0.1459  0.2648
  226SOL    HW2  957   0.566   2.400   0.824 -0.4457 -0.2815  0.5059
  226SOL    HW3  958   0.524   2.485   0.706 -0.4812 -1.0857 -0.0630
  226SOL    MW4  959   0.516   2.463   0.790 -0.0148 -0.0732  0.2534
  227SOL     OW  960   1.788   0.084   0.675 -0.0711 -0.0064  0.0837
  227SOL    HW2  961   1.854   0.025   0.712  0.5866 -0.0940 -1.2225
  227SOL    HW3  962   1.705   0.047   0.703  0.3579 -1.2714 -0.3124
  227SOL    MW4  963   1.786   0.072   0.684  0.0724 -0.1849 -0.1409
  228SOL     OW  964   0.315   2.820   0.787  0.1190  0.0100 -0.4425
  228SOL    HW2  965   0.243   2.761   0.812 -0.4856  0.4486 -1.1437
  228SOL    HW3  966   0.296   2.902   0.833  1.2296 -0.4923  0.9301
  228SOL    MW4  967   0.303   2.823   0.796  0.1858  0.0017 -0.3539
  229SOL     OW  968   0.908   2.447   0.783 -0.0321  0.2430  0.1640
  229SOL    HW2  969   0.992   2.405   0.801  0.0059  0.1859 -0.1445
  229SOL    HW3  970   0.844   2.397   0.833 -0.0456 -0.4393 -0.5282
  229SOL    MW4  971   0.911   2.435   0.792 -0.0289  0.1454  0.0319
  230SOL     OW  972   3.966   0.400   0.534 -0.0109  0.6047 -0.0176
  230SOL    HW2  973   4.061   0.412   0.531 -0.0160  0.5270 -0.5365
  230SOL    HW3  974   3.943   0.418   0.626  0.6623 -0.6139  0.4029
  230SOL    MW4  975   3.976   0.404   0.546  0.0772  0.4337 -0.0305
  231SOL     OW  976   3.041   4.040   0.372 -0.5373  0.1292  0.0443
  231SOL    HW2  977   3.066   4.125   0.335 -0.9921 -0.0956 -0.7685
  231SOL    HW3  978   2.981   4.002   0.308 -1.2400 -0.3076  0.9522
  231SOL    MW4  979   3.037   4.046   0.359 -0.6900  0.0415  0.0569
  232SOL     OW  980   3.117   3.474   0.437 -0.2480  0.4049 -0.1460
  232SOL    HW2  981   3.204   3.493   0.473 -0.4918  1.1927  0.0458
  232SOL    HW3  982   3.072   3.559   0.437 -1.1858 -0.0832  0.2081
  232SOL    MW4  983   3.122   3.488   0.442 -0.4036  0.4444 -0.0740
  233SOL     OW  984   2.564   2.639   0.371 -0.5130 -0.0793  0.4279
  233SOL    HW2  985   2.614   2.573   0.420  0.3021  0.6711  0.6094
  233SOL    HW3  986   2.486   2.592   0.342  1.0497 -1.7333 -1.2673
  233SOL    MW4  987   2.560   2.624   0.374 -0.1993 -0.1986  0.2281
  234SOL     OW  988   1.386   1.107   0.875 -0.0066 -0.1975  0.6251
  234SOL    HW2  989   1.463   1.155   0.845  0.4025 -1.3418 -0.1922
  234SOL    HW3  990   1.379   1.034   0.814 -1.3145 -0.5043  1.1436
  234SOL    MW4  991   1.395   1.104   0.863 -0.1253 -0.3889  0.5858
  235SOL     OW  992   4.219   2.125   0.497 -0.2949 -0.3467 -0.1324
  235SOL    HW2  993   4.285   2.193   0.485  1.1518 -1.9253 -1.4956
  235SOL    HW3  994   4.145   2.154   0.443  0.0534  0.4580 -0.1889
  235SOL    MW4  995   4.218   2.138   0.488 -0.0587 -0.4489 -0.3198
  236SOL     OW  996   1.446   2.861   0.312  0.5778  0.4185 -0.5648
  236SOL    HW2  997   1.428   2.842   0.220  1.5058  0.6558 -0.7975
  236SOL    HW3  998   1.376   2.815   0.360  0.2574  0.0602 -1.3655
  236SOL    MW4  999   1.434   2.852   0.307  0.6579  0.4025 -0.7012
  237SOL     OW 1000   1.599   1.241   0.764 -0.4909 -0.0750  0.4788
  237SOL    HW2 1001   1.584   1.327   0.801 -1.6396 -0.8720  1.8929
  237SOL    HW3 1002   1.595   1.254   0.669  1.7932  1.8491  0.5993
  237SOL    MW4 1003   1.597   1.254   0.756 -0.3412  0.0737  0.6813
  238SOL     OW 1004   0.573   2.963   0.524  0.4275  0.3006  0.0705
  238SOL    HW2 1005   0.611   2.961   0.612  0.3798 -0.1974  0.0833
  238SOL    HW3 1006   0.501   2.899   0.528 -0.7579  1.6227  0.2097
  238SOL    MW4 1007   0.568   2.954   0.536  0.2648  0.4091  0.0905
  239SOL     OW 1008   4.488   3.966   0.704  0.4143 -0.2304 -0.5342
  239SOL    HW2 1009   4.530   3.985   0.620 -1.3055 -0.3662 -1.4403
  239SOL    HW3 1010   4.558   3.928   0.758  1.5014 -0.2580 -1.9378
  239SOL    MW4 1011   4.503   3.964   0.700  0.3309 -0.2520 -0.8390
  240SOL     OW 1012   2.215   0.861   0.505 -0.1813  0.0347 -0.1141
  240SOL    HW2 1013   2.142   0.799   0.502  1.2169 -1.6505  0.0867
  240SOL    HW3 1014   2.239   0.867   0.597  1.9568 -1.8661 -0.5105
  240SOL    MW4 1015   2.209   0.854   0.517  0.2851 -0.4384 -0.1400
  241SOL     OW 1016   1.527   0.858   0.479  0.0148  0.3434 -0.4866
  241SOL    HW2 1017   1.620   0.870   0.462  0.1506  0.1960  0.1394
  241SOL    HW3 1018   1.506   0.775   0.436  0.6116 -0.6039  0.9992
  241SOL    MW4 1019   1.537   0.848   0.471  0.1113  0.1990 -0.2080
  242SOL     OW 1020   0.407   2.057   0.509 -0.1404 -0.1127 -0.1416
  242SOL    HW2 1021   0.326   2.058   0.458  0.4008  0.3344 -1.0081
  242SOL    HW3 1022   0.379   2.063   0.600 -1.1041 -0.5358 -0.4115
  242SOL    MW4 1023   0.393   2.058   0.514 -0.1961 -0.1097 -0.2915
  243SOL     OW 1024   0.272   0.468   0.813  0.6277 -0.1350 -0.0943
  243SOL    HW2 1025   0.275   0.427   0.727  2.3416 -1.5477  0.6045
  243SOL    HW3 1026   0.361   0.459   0.847 -0.1613 -0.0894  2.0573
  243SOL    MW4 1027   0.285   0.462   0.806  0.7497 -0.3153  0.2817
  244SOL     OW 1028   0.235   4.614   0.843 -0.2523  0.2024  0.7324
  244SOL    HW2 1029   0.172   4.670   0.797 -0.6449  0.0571  1.0832
  244SOL    HW3 1030   0.228   4.529   0.800 -0.6536  0.0541  1.0775
  244SOL    MW4 1031   0.226   4.610   0.831 -0.3571  0.1640  0.8242
  245SOL     OW 1032   0.058   0.325   0.908  0.0859 -0.2479  0.2793
  245SOL    HW2 1033   0.137   0.373   0.885 -0.5538  0.5564 -0.3052
  245SOL    HW3 1034   0.042   0.346   1.000  0.1211  0.2126  0.1807
  245SOL    MW4 1035   0.066   0.334   0.917  0.0062 -0.0810  0.1891
  246SOL     OW 1036   1.253   3.779   0.374 -0.2113  0.0152  0.1977
  246SOL    HW2 1037   1.238   3.713   0.441  0.0619  0.1140  0.3564
  246SOL    HW3 1038   1.345   3.769   0.350  0.3917  1.6649  1.6687
  246SOL    MW4 1039   1.263   3.769   0.379 -0.0956  0.2458  0.4127
  247SOL     OW 1040   3.385   4.157   0.327  0.2957 -0.3488 -0.2816
  247SOL    HW2 1041   3.301   4.197   0.303 -0.2950 -0.8421  0.8746
  247SOL    HW3 1042   3.430   4.224   0.379 -0.6861 -1.1243  1.6405
  247SOL    MW4 1043   3.380   4.171   0.331  0.0882 -0.5159  0.1245
  248SOL     OW 1044   4.090   1.130   0.833  0.0796  0.4813 -0.4759
  248SOL    HW2 1045   4.018   1.182   0.795 -1.7730 -1.6534 -0.0034
  248SOL    HW3 1046   4.084   1.146   0.927  0.1300  0.2075 -0.4252
  248SOL    MW4 1047   4.080   1.139   0.840 -0.1583  0.1637 -0.4069
  249SOL     OW 1048   0.082   1.625   0.510 -0.1180  0.2146  0.3781
  249SOL    HW2 1049   0.025   1.555   0.478 -0.3900  0.9074 -0.6576
  249SOL    HW3 1050   0.169   1.585   0.515 -0.5249 -0.5917  1.1243
  249SOL    MW4 1051   0.086   1.610   0.507 -0.2076  0.1996  0.3399
  250SOL     OW 1052   4.280   1.314   0.781 -0.3721  0.3712 -0.0621
  250SOL    HW2 1053   4.210   1.254   0.804  0.1032 -0.1877 -0.0603
  250SOL    HW3 1054   4.361   1.267   0.802 -0.0046  1.3548  0.7794
  250SOL    MW4 1055   4.282   1.300   0.787 -0.2613  0.4274  0.0492
  251SOL     OW 1056   3.097   2.783   0.391 -0.3955 -0.2724 -0.3217
  251SOL    HW2 1057   3.056   2.710   0.436 -0.6167 -0.4215 -0.7673
  251SOL    HW3 1058   3.190   2.774   0.411 -0.2338 -1.5371 -1.6198
  251SOL    MW4 1059   3.104   2.773   0.400 -0.4034 -0.4590 -0.5518
  252SOL     OW 1060   0.537   2.519   0.522  0.2719 -0.0430 -0.0766
  252SOL    HW2 1061   0.546   2.432   0.485 -0.2715  0.1894 -0.7709
  252SOL    HW3 1062   0.617   2.565   0.498  0.5653 -0.3539  0.3045
  252SOL    MW4 1063   0.549   2.514   0.514  0.2388 -0.0534 -0.1179
  253SOL     OW 1064   0.554   1.670   0.325 -0.2737 -0.1809 -0.3641
  253SOL    HW2 1065   0.481   1.639   0.379 -0.1185 -0.1898 -0.1566
  253SOL    HW3 1066   0.578   1.754   0.363 -0.8761  0.3303 -1.1019
  253SOL    MW4 1067   0.548   1.677   0.337 -0.3326 -0.1147 -0.4340
  254SOL     OW 1068   2.675   0.496   0.455  0.0544 -0.3067  0.1718
  254SOL    HW2 1069   2.632   0.504   0.540 -1.2817  1.1441 -0.6110
  254SOL    HW3 1070   2.682   0.586   0.422  3.0184 -0.5788 -0.0844
  254SOL    MW4 1071   2.670   0.509   0.462  0.2694 -0.1512  0.0347
  255SOL     OW 1072   0.287   2.315   0.810 -0.4213 -0.4441  0.5298
  255SOL    HW2 1073   0.270   2.305   0.903 -1.6478 -0.5750  0.2985
  255SOL    HW3 1074   0.361   2.376   0.805 -0.9127  0.2462  1.5536
  255SOL    MW4 1075   0.294   2.322   0.822 -0.6479 -0.3703  0.6344
  256SOL     OW 1076   0.046   1.945   0.859 -0.5524  0.1134 -0.3456
  256SOL    HW2 1077   0.034   1.854   0.834  2.4134  0.2030 -2.3242
  256SOL    HW3 1078  -0.023   1.993   0.812  0.2899 -0.6519 -2.3992
  256SOL    MW4 1079   0.035   1.939   0.850 -0.0500  0.0241 -0.8775
  257SOL     OW 1080   0.078   2.694   0.827 -0.4392  0.0234 -0.2305
  257SOL    HW2 1081   0.043   2.689   0.915 -1.8040 -0.5940 -0.7924
  257SOL    HW3 1082   0.084   2.603   0.798  1.5378  0.1251 -0.1914
  257SOL    MW4 1083   0.074   2.681   0.834 -0.3584 -0.0446 -0.2994
  258SOL     OW 1084   4.120   2.432   0.151 -0.4624  0.4366  0.2363
  258SOL    HW2 1085   4.140   2.469   0.065  1.3862 -0.3305  0.3253
  258SOL    HW3 1086   4.124   2.507   0.211 -0.7109  0.7798 -0.1719
  258SOL    MW4 1087   4.123   2.447   0.148 -0.2513  0.3808  0.1942
  259SOL     OW 1088   0.268   3.075   0.874  0.0888 -0.0663 -0.2225
  259SOL    HW2 1089   0.277   3.100   0.966  1.0808 -0.0212 -0.3234
  259SOL    HW3 1090   0.334   3.128   0.829  0.6066 -1.1550 -0.7492
  259SOL    MW4 1091   0.278   3.085   0.881  0.2880 -0.2041 -0.3052
  260SOL     OW 1092   3.611   1.934   0.862  0.2534  0.2957  0.1488
  260SOL    HW2 1093   3.616   1.852   0.813  0.3183  0.4277 -0.0651
  260SOL    HW3 1094   3.674   1.992   0.820  2.1741 -0.4121  1.9940
  260SOL    MW4 1095   3.620   1.931   0.850  0.5152  0.2197  0.3641
  261SOL     OW 1096   0.059   3.442   0.816 -0.3282 -0.5812 -0.1290
  261SOL    HW2 1097  -0.023   3.491   0.810  0.3435  0.4436 -1.1491
  261SOL    HW3 1098   0.109   3.469   0.739  1.2310 -0.7230  0.8063
  261SOL    MW4 1099   0.055   3.452   0.805 -0.0339 -0.4649 -0.1402
  262SOL     OW 1100   3.642   1.178   0.836 -0.1251  0.3997  0.3932
  262SOL    HW2 1101   3.555   1.209   0.811  0.1250  1.8215  1.1963
  262SOL    HW3 1102   3.638   1.170   0.932  0.7552  0.9660  0.4930
  262SOL    MW4 1103   3.630   1.181   0.846  0.0241  0.6621  0.5123
  263SOL     OW 1104   3.527   3.273   0.558 -0.3411  0.1491  0.1507
  263SOL    HW2 1105   3.468   3.348   0.560  0.5905  0.8986 -0.2225
  263SOL    HW3 1106   3.593   3.296   0.493 -0.4455 -1.2973 -0.5036
  263SOL    MW4 1107   3.528   3.286   0.549 -0.2317  0.0575  0.0151
  264SOL     OW 1108   0.195   3.865   0.867 -0.1540 -0.1699  0.3756
  264SOL    HW2 1109   0.213   3.860   0.961  1.7554 -1.3542 -0.0291
  264SOL    HW3 1110   0.273   3.905   0.830 -0.5741 -0.4447 -0.8221
  264SOL    MW4 1111   0.207   3.870   0.875  0.0425 -0.3624  0.1641
  265SOL     OW 1112   0.014   4.240   0.812 -0.1860  0.4083  0.2710
  265SOL    HW2 1113   0.013   4.152   0.776 -1.8052 -0.0051  1.2415
  265SOL    HW3 1114   0.001   4.228   0.906  0.5141  1.6296  0.5431
  265SOL    MW4 1115   0.012   4.227   0.820 -0.3071  0.5145  0.4350
  266SOL     OW 1116   0.337   4.118   0.391  0.0695  0.1699  0.0350
  266SOL    HW2 1117   0.363   4.127   0.299 -0.0297  0.9187  0.0787
  266SOL    HW3 1118   0.398   4.054   0.427  0.8720  0.7678 -0.2510
  266SOL    MW4 1119   0.349   4.111   0.384  0.1623  0.3481  0.0030
  267SOL     OW 1120   0.635   0.146   0.901 -0.0592 -0.1358  0.7034
  267SOL    HW2 1121   0.592   0.084   0.841  0.2338  0.1649  0.1803
  267SOL    HW3 1122   0.674   0.090   0.968  1.5009 -0.6386 -0.5884
  267SOL    MW4 1123   0.635   0.130   0.902  0.1854 -0.1624  0.4640
  268SOL     OW 1124   2.523   3.593   0.531 -0.1451 -0.1183 -0.5227
  268SOL    HW2 1125   2.446   3.579   0.475 -0.7828 -0.2590  0.3778
  268SOL    HW3 1126   2.543   3.686   0.522 -0.8603  0.0681 -0.2078
  268SOL    MW4 1127   2.516   3.603   0.522 -0.3238 -0.1121 -0.3623
  269SOL     OW 1128   0.480   0.898   0.482 -0.1273  0.7841  0.1007
  269SOL    HW2 1129   0.427   0.835   0.433  0.3323 -0.3622  1.0591
  269SOL    HW3 1130   0.450   0.889   0.572  2.3820 -0.6229  0.8321
  269SOL    MW4 1131   0.469   0.888   0.487  0.2644  0.4473  0.3237
  270SOL     OW 1132   2.329   3.302   0.542 -0.1563 -0.0790  0.3620
  270SOL    HW2 1133   2.416   3.267   0.523 -0.5260 -0.6390 -0.3443
  270SOL    HW3 1134   2.299   3.251   0.617 -0.3673 -0.7344 -0.1609
  270SOL    MW4 1135   2.337   3.291   0.550 -0.2327 -0.2394  0.1999
  271SOL     OW 1136   0.620   0.737   0.844 -0.0768  0.4005  0.0576
  271SOL    HW2 1137   0.668   0.752   0.762  1.1813  1.2868  0.9514
  271SOL    HW3 1138   0.543   0.793   0.837  0.1775  0.6973 -0.4014
  271SOL    MW4 1139   0.616   0.746   0.832  0.1228  0.5566  0.1150
  272SOL     OW 1140   0.066   1.223   0.834  0.0217  0.1523  0.1386
  272SOL    HW2 1141   0.100   1.313   0.836 -0.6739  0.4047  0.4034
  272SOL    HW3 1142   0.053   1.200   0.926  0.4594 -0.3225  0.0854
  272SOL    MW4 1143   0.069   1.232   0.846 -0.0123  0.1230  0.1666
  273SOL     OW 1144   1.192   0.708   0.645 -0.6307 -0.3644  0.2042
  273SOL    HW2 1145   1.118   0.769   0.636 -0.9387 -0.8061 -0.3245
  273SOL    HW3 1146   1.170   0.654   0.720 -0.4061  0.1068  0.6123
  273SOL    MW4 1147   1.179   0.709   0.653 -0.6417 -0.3605  0.1884
  274SOL     OW 1148   2.221   1.928   0.890  0.2513 -0.4052 -0.0172
  274SOL    HW2 1149   2.215   1.835   0.869 -0.7971 -0.7438  1.6366
  274SOL    HW3 1150   2.305   1.956   0.853  0.2791 -1.8475 -1.0871
  274SOL    MW4 1151   2.231   1.919   0.883  0.1168 -0.6400  0.0598
  275SOL     OW 1152   1.189   2.860   0.442 -0.0457 -0.3073  0.1962
  275SOL    HW2 1153   1.174   2.953   0.425  1.0456  0.1342  1.5420
  275SOL    HW3 1154   1.182   2.851   0.537  1.1313 -1.3597  0.1975
  275SOL    MW4 1155   1.186   2.871   0.452  0.2534 -0.3877  0.3740
  276SOL     OW 1156   0.173   1.473   0.863 -0.3989  0.3449 -0.3856
  276SOL    HW2 1157   0.126   1.550   0.832  0.4490  0.4189 -1.4942
  276SOL    HW3 1158   0.260   1.480   0.824  0.0858 -0.5388  0.4943
  276SOL    MW4 1159   0.178   1.484   0.854 -0.2230  0.2381 -0.4157
  277SOL     OW 1160   0.873   0.124   0.455 -0.5152 -0.1768 -0.1285
  277SOL    HW2 1161   0.784   0.129   0.420 -0.7413 -0.5044  0.3879
  277SOL    HW3 1162   0.865   0.156   0.545 -0.2046 -0.6812  0.0843
  277SOL    MW4 1163   0.860   0.129   0.462 -0.5041 -0.2865 -0.0323
  278SOL     OW 1164   1.106   4.406   0.731  0.2030 -0.3287  0.0196
  278SOL    HW2 1165   1.182   4.385   0.785 -0.0173 -0.5664  0.2371
  278SOL    HW3 1166   1.137   4.398   0.641  0.4134 -0.4941  0.1074
  278SOL    MW4 1167   1.120   4.402   0.727  0.2018 -0.3819  0.0598
  279SOL     OW 1168   0.691   2.274   0.906 -0.0361  0.1063  0.3154
  279SOL    HW2 1169   0.723   2.189   0.876 -0.5436 -0.1028  0.3733
  279SOL    HW3 1170   0.710   2.275   1.000  1.7871  0.8651 -0.0482
  279SOL    MW4 1171   0.698   2.263   0.915  0.1374  0.1786  0.2750
  280SOL     OW 1172   0.938   2.720   0.845 -0.4334  0.4271  0.0605
  280SOL    HW2 1173   0.945   2.736   0.939  2.0123  1.3068 -0.2414
  280SOL    HW3 1174   0.939   2.624   0.837 -0.9998  0.3370  0.9326
  280SOL    MW4 1175   0.939   2.709   0.856 -0.1855  0.5317  0.1357
  281SOL     OW 1176   1.285   2.316   0.496  0.5151 -0.0851  0.3580
  281SOL    HW2 1177   1.226   2.359   0.434 -0.0740  0.5409  1.3401
  281SOL    HW3 1178   1.253   2.226   0.500  0.5620 -0.1305 -0.2555
  281SOL    MW4 1179   1.273   2.310   0.488  0.4436 -0.0086  0.4066
  282SOL     OW 1180   2.910   4.612   0.812  0.2047 -0.5603 -0.2672
  282SOL    HW2 1181   2.998   4.646   0.799 -0.1954  0.4879 -0.2702
  282SOL    HW3 1182   2.920   4.517   0.806  1.8115 -0.6178  2.4554
  282SOL    MW4 1183   2.923   4.604   0.810  0.3638 -0.4301  0.0917
  283SOL     OW 1184   1.325   4.288   0.865 -0.3489  0.0041 -0.7132
  283SOL    HW2 1185   1.408   4.308   0.820 -0.0875 -1.8014 -1.0651
  283SOL    HW3 1186   1.296   4.206   0.826 -0.9319 -0.7735  1.3042
  283SOL    MW4 1187   1.332   4.280   0.854 -0.3914 -0.3366 -0.4935
  284SOL     OW 1188   0.443   3.481   0.864  0.1302 -0.1462 -0.1337
  284SOL    HW2 1189   0.433   3.470   0.959  2.3407  0.4583  0.1976
  284SOL    HW3 1190   0.519   3.539   0.855 -0.3680  0.1919 -2.2667
  284SOL    MW4 1191   0.452   3.487   0.876  0.3561 -0.0217 -0.3715
  285SOL     OW 1192   1.593   1.254   0.479 -0.0006 -0.4576  0.1656
  285SOL    HW2 1193   1.671   1.203   0.457 -0.6179 -0.9835 -0.8120
  285SOL    HW3 1194   1.520   1.207   0.438 -0.7709  0.3173  0.6272
  285SOL    MW4 1195   1.594   1.241   0.470 -0.1837 -0.4247  0.0975
  286SOL     OW 1196   2.449   1.487   0.463  0.4843  0.2355  0.4058
  286SOL    HW2 1197   2.477   1.494   0.372  0.7090 -1.3957  0.3347
  286SOL    HW3 1198   2.530   1.481   0.513  0.3450  0.0232  0.6066
  286SOL    MW4 1199   2.463   1.487   0.458  0.4957 -0.0077  0.4230
  287SOL     OW 1200   4.251   3.807   0.817 -0.2660  0.0034 -0.3001
  287SOL    HW2 1201   4.233   3.822   0.910 -0.4779 -1.1708 -0.1465
  287SOL    HW3 1202   4.305   3.882   0.791  0.1229  0.1453  0.8640
  287SOL    MW4 1203   4.256   3.819   0.826 -0.2427 -0.1328 -0.1262
  288SOL     OW 1204   1.808   1.658   0.726 -0.2675 -0.0231  0.1097
  288SOL    HW2 1205   1.890   1.614   0.746  0.3061  0.9684 -0.0158
  288SOL    HW3 1206   1.812   1.677   0.633 -0.5749  0.1567  0.1305
  288SOL    MW4 1207   1.819   1.655   0.717 -0.2325  0.1316  0.0958
  289SOL     OW 1208   0.421   4.234   0.835 -0.5549 -0.1310  0.0487
  289SOL    HW2 1209   0.423   4.233   0.930  0.2831  2.1362  0.0851
  289SOL    HW3 1210   0.506   4.270   0.809 -1.0035 -0.1517 -1.5372
  289SOL    MW4 1211   0.432   4.239   0.844 -0.5035  0.1655 -0.1557
  290SOL     OW 1212   3.808   4.342   0.762  0.0063 -0.4224 -0.3098
  290SOL    HW2 1213   3.778   4.305   0.679 -0.2002  0.5330 -0.6569
  290SOL    HW3 1214   3.888   4.293   0.782  1.2257  0.7753 -2.1268
  290SOL    MW4 1215   3.815   4.330   0.754  0.1402 -0.1383 -0.5953
  291SOL     OW 1216   2.964   4.414   0.487  0.0553 -0.5977 -0.2165
  291SOL    HW2 1217   2.880   4.380   0.456  0.2476 -0.3492 -1.0037
  291SOL    HW3 1218   2.963   4.506   0.464  0.3897 -0.5063  0.1249
  291SOL    MW4 1219   2.953   4.422   0.480  0.1249 -0.5531 -0.2754
  292SOL     OW 1220   4.344   0.731   0.859 -0.3892  0.2179 -0.4310
  292SOL    HW2 1221   4.259   0.768   0.833 -0.4636 -0.9314 -1.9150
  292SOL    HW3 1222   4.408   0.780   0.808 -0.3616 -0.6169 -1.1984
  292SOL    MW4 1223   4.341   0.743   0.849 -0.3953 -0.0438 -0.7280
  293SOL     OW 1224   0.527   0.451   0.889 -0.5278  0.7855 -0.0155
  293SOL    HW2 1225   0.591   0.384   0.868 -0.8256  0.9897 -1.6541
  293SOL    HW3 1226   0.569   0.533   0.863 -0.6398  1.1217  0.8500
  293SOL    MW4 1227   0.541   0.453   0.883 -0.5818  0.8568 -0.1175
  294SOL     OW 1228   0.673   1.511   0.866 -0.0442  0.2867  0.1637
  294SOL    HW2 1229   0.738   1.567   0.824 -0.3291  0.8815  0.5103
  294SOL    HW3 1230   0.694   1.517   0.960 -0.8915  0.8617  0.3240
  294SOL    MW4 1231   0.684   1.519   0.873 -0.1936  0.4412  0.2305
  295SOL     OW 1232   1.557   0.407   0.515 -0.0228 -0.2738 -0.3427
  295SOL    HW2 1233   1.648   0.387   0.492  0.0450  0.3646 -0.6244
  295SOL    HW3 1234   1.513   0.322   0.512 -0.1817 -0.1526 -3.5549
  295SOL    MW4 1235   1.563   0.393   0.512 -0.0348 -0.1736 -0.8037
  296SOL     OW 1236   1.545   1.807   0.387 -0.1219  0.3901  0.7075
  296SOL    HW2 1237   1.514   1.746   0.320  0.8960  0.4086  0.2009
  296SOL    HW3 1238   1.475   1.811   0.451  0.0551 -1.8031  1.0685
  296SOL    MW4 1239   1.532   1.800   0.386  0.0356  0.1032  0.6883
  297SOL     OW 1240   0.421   1.593   0.775  0.7233 -0.2884 -0.1372
  297SOL    HW2 1241   0.400   1.673   0.823  0.0882 -0.1774 -0.5944
  297SOL    HW3 1242   0.512   1.574   0.799  0.6992  0.2578  0.4066
  297SOL    MW4 1243   0.430   1.601   0.785  0.6363 -0.2017 -0.1258
  298SOL     OW 1244   1.685   1.462   0.317 -0.0754  0.0782 -0.0169
  298SOL    HW2 1245   1.729   1.395   0.265 -0.1865 -0.2593  0.3191
  298SOL    HW3 1246   1.656   1.416   0.396  1.0584  0.8117  0.8558
  298SOL    MW4 1247   1.687   1.447   0.321  0.0596  0.1304  0.1426
  299SOL     OW 1248   1.126   1.548   0.840  0.5780 -0.3717  0.0588
  299SOL    HW2 1249   1.039   1.574   0.810  0.6033  0.5106  0.7348
  299SOL    HW3 1250   1.135   1.457   0.813 -0.2775 -0.2507 -0.6347
  299SOL    MW4 1251   1.116   1.540   0.832  0.4685 -0.2393  0.0565
  300SOL     OW 1252   0.385   0.896   0.741  0.1911 -0.1223  0.6239
  300SOL    HW2 1253   0.313   0.852   0.787 -0.0456  0.8394  1.1742
  300SOL    HW3 1254   0.380   0.987   0.770  2.3436 -0.2681  1.5631
  300SOL    MW4 1255   0.375   0.902   0.751  0.4439 -0.0147  0.8205
  301SOL     OW 1256   3.164   0.882   0.793 -0.0158  0.3973  0.1653
  301SOL    HW2 1257   3.082   0.833   0.803  0.2661  0.0653  0.9209
  301SOL    HW3 1258   3.175   0.892   0.699 -0.4073 -0.4396  0.0298
  301SOL    MW4 1259   3.154   0.877   0.782 -0.0303  0.2431  0.2472
  302SOL     OW 1260   3.474   3.031   0.439 -0.2537  0.5253 -0.2328
  302SOL    HW2 1261   3.379   3.023   0.426 -0.3969 -1.2049  1.7421
  302SOL    HW3 1262   3.485   3.115   0.484 -0.8502  0.6979 -0.4036
  302SOL    MW4 1263   3.463   3.041   0.443 -0.3514  0.3197  0.0052
  303SOL     OW 1264   2.649   0.762   0.348 -0.7652  0.1348  0.1371
  303SOL    HW2 1265   2.637   0.786   0.256 -1.1258  1.7498  0.5956
  303SOL    HW3 1266   2.591   0.821   0.396  0.1164 -0.0617  1.4726
  303SOL    MW4 1267   2.640   0.773   0.342 -0.6967  0.3219  0.3738
  304SOL     OW 1268   3.380   3.509   0.536  0.1145 -0.0014 -0.0955
  304SOL    HW2 1269   3.441   3.560   0.483 -0.0521  0.3291  0.0290
  304SOL    HW3 1270   3.376   3.556   0.619 -2.3438  1.4565 -1.0098
  304SOL    MW4 1271   3.388   3.522   0.540 -0.2315  0.2346 -0.1998
  305SOL     OW 1272   1.391   2.712   0.826 -0.5840  0.5335  0.0023
  305SOL    HW2 1273   1.385   2.703   0.921  0.1325 -0.1230 -0.0065
  305SOL    HW3 1274   1.366   2.625   0.793  1.3034  0.0755 -0.3127
  305SOL    MW4 1275   1.387   2.699   0.834 -0.2404  0.3865 -0.0404
  306SOL     OW 1276   2.973   3.713   0.458  0.2629  0.1348  0.1845
  306SOL    HW2 1277   2.936   3.677   0.539  1.6330 -1.5723  0.0882
  306SOL    HW3 1278   3.050   3.762   0.487  0.0167  0.5986  0.0443
  306SOL    MW4 1279   2.978   3.714   0.473  0.4110 -0.0291  0.1533
  307SOL     OW 1280   2.825   3.005   0.501  0.1686 -0.6557  0.2508
  307SOL    HW2 1281   2.868   2.947   0.564  2.6888  1.0188  0.1390
  307SOL    HW3 1282   2.838   2.962   0.416  2.1217  0.0908  0.1536
  307SOL    MW4 1283   2.833   2.992   0.498  0.7586 -0.3364  0.2233
  308SOL     OW 1284   0.651   3.875   0.898 -0.5812  0.5456  0.0085
  308SOL    HW2 1285   0.702   3.941   0.852  0.7621  0.0750  0.7841
  308SOL    HW3 1286   0.684   3.792   0.864 -0.3223  0.2269  1.0213
  308SOL    MW4 1287   0.662   3.873   0.888 -0.3698  0.4416  0.2444
  309SOL     OW 1288   1.538   3.754   0.360  0.1434 -0.0432 -0.4221
  309SOL    HW2 1289   1.581   3.802   0.289  1.5385  0.3857  0.6994
  309SOL    HW3 1290   1.541   3.814   0.435  0.1051 -1.0979  0.4336
  309SOL    MW4 1291   1.544   3.768   0.360  0.3223 -0.1256 -0.1612
  310SOL     OW 1292   1.170   3.151   0.405  0.0783 -0.2098  0.4359
  310SOL    HW2 1293   1.101   3.217   0.412  1.1809  0.8679  1.5715
  310SOL    HW3 1294   1.241   3.186   0.458  0.9428 -2.0129  0.4999
  310SOL    MW4 1295   1.170   3.164   0.413  0.3377 -0.3052  0.5942
  311SOL     OW 1296   1.313   0.126   0.802  0.1755  0.2157  0.1634
  311SOL    HW2 1297   1.227   0.085   0.817  1.1261 -1.7712  0.3094
  311SOL    HW3 1298   1.316   0.140   0.707 -0.9949  1.8919  0.3493
  311SOL    MW4 1299   1.302   0.122   0.791  0.1465  0.1747  0.2072
  312SOL     OW 1300   0.934   3.496   0.870 -0.2722  0.0735 -0.3290
  312SOL    HW2 1301   0.917   3.415   0.821 -1.7123 -1.1222  2.0903
  312SOL    HW3 1302   1.027   3.514   0.854  0.3212 -2.6045 -0.0900
  312SOL    MW4 1303   0.944   3.488   0.861 -0.3839 -0.4377  0.0217
  313SOL     OW 1304   0.876   4.284   0.838  0.0230  0.3503 -0.0578
  313SOL    HW2 1305   0.804   4.334   0.799  0.6786  0.1418 -1.5770
  313SOL    HW3 1306   0.955   4.324   0.800  0.6113 -0.7671 -0.0074
  313SOL    MW4 1307   0.877   4.296   0.827  0.1871  0.1755 -0.2515
  314SOL     OW 1308   0.783   1.562   0.463  0.1342  0.5085 -0.1270
  314SOL    HW2 1309   0.799   1.469   0.449  0.6105  0.4545  0.7610
  314SOL    HW3 1310   0.699   1.578   0.420 -0.1344 -0.4120  0.0396
  314SOL    MW4 1311   0.774   1.552   0.456  0.1617  0.3798  0.0121
  315SOL     OW 1312   1.802   0.297   0.855 -0.1596 -0.2541  0.2203
  315SOL    HW2 1313   1.792   0.219   0.801 -1.1141 -0.4919  0.7305
  315SOL    HW3 1314   1.723   0.348   0.839  0.1903  0.3339  0.3388
  315SOL    MW4 1315   1.790   0.294   0.846 -0.2394 -0.2079  0.3032
  316SOL     OW 1316   3.369   2.056   0.772 -0.3793 -0.1755 -0.2066
  316SOL    HW2 1317   3.451   2.017   0.802 -0.2549 -0.0427 -0.3720
  316SOL    HW3 1318   3.301   2.001   0.810 -0.1951 -1.0102 -1.0529
  316SOL    MW4 1319   3.371   2.044   0.781 -0.3386 -0.2680 -0.3401
  317SOL     OW 1320   2.021   3.868   0.351 -0.0524  0.0034  0.1956
  317SOL    HW2 1321   2.017   3.774   0.373  1.4807  0.0359  0.6773
  317SOL    HW3 1322   2.008   3.871   0.256 -2.0566 -0.5292  0.4347
  317SOL    MW4 1323   2.019   3.856   0.342 -0.1144 -0.0627  0.2907
  318SOL     OW 1324   0.932   3.271   0.732 -0.0250 -0.2013  0.3244
  318SOL    HW2 1325   0.858   3.213   0.749  0.3149 -0.4591  0.9636
  318SOL    HW3 1326   1.008   3.224   0.767  0.2812  0.5321  0.6556
  318SOL    MW4 1327   0.932   3.257   0.739  0.0603 -0.1385  0.4524
  319SOL     OW 1328   3.397   0.521   0.789 -0.3738  0.2438  0.1030
  319SOL    HW2 1329   3.460   0.461   0.828 -1.2936 -0.9945 -0.2570
  319SOL    HW3 1330   3.408   0.603   0.837  1.6512  0.1295 -0.1110
  319SOL    MW4 1331   3.407   0.524   0.800 -0.2277  0.0653  0.0273
  320SOL     OW 1332   2.315   3.948   0.483 -0.1403 -0.3092  0.1636
  320SOL    HW2 1333   2.247   3.897   0.439  0.1550 -1.2114  0.7569
  320SOL    HW3 1334   2.298   4.038   0.455 -1.5777 -0.5182  0.2951
  320SOL    MW4 1335   2.304   3.953   0.473 -0.2911 -0.4561  0.2592
  321SOL     OW 1336   2.528   1.248   0.893  0.0589  0.3208  0.1271
  321SOL    HW2 1337   2.580   1.219   0.818  0.3293 -1.2599  0.9016
  321SOL    HW3 1338   2.446   1.201   0.886  0.7605 -1.2239  1.7764
  321SOL    MW4 1339   2.524   1.238   0.882  0.1872 -0.0916  0.4469
  322SOL     OW 1340   3.424   4.651   0.452 -0.0842  0.1411 -0.1843
  322SOL    HW2 1341   3.365   4.726   0.457  0.1492  0.2442  1.2414
  322SOL    HW3 1342   3.511   4.689   0.463  0.0346 -0.3387  0.5488
  322SOL    MW4 1343   3.428   4.666   0.454 -0.0377  0.0911  0.1005
  323SOL     OW 1344   1.399   0.880   0.718  0.0771  0.4737  0.3738
  323SOL    HW2 1345   1.320   0.828   0.703 -0.1190  1.2276 -1.2719
  323SOL    HW3 1346   1.449   0.871   0.637  1.0341  1.1351  0.8893
  323SOL    MW4 1347   1.395   0.872   0.706  0.1775  0.6604  0.2247
  324SOL     OW 1348   3.768   1.704   0.282 -0.4321 -0.0560 -0.1756
  324SOL    HW2 1349   3.812   1.785   0.306 -0.7728 -0.0481  0.4207
  324SOL    HW3 1350   3.681   1.710   0.322  0.2105 -1.5610  1.5128
  324SOL    MW4 1351   3.762   1.716   0.290 -0.3924 -0.2536  0.1259
  325SOL     OW 1352   0.807   2.027   0.861 -0.0129  0.6370 -0.1505
  325SOL    HW2 1353   0.809   2.004   0.954 -0.8243  0.0988 -0.2603
  325SOL    HW3 1354   0.897   2.016   0.832  0.3228  1.1667  0.6561
  325SOL    MW4 1355   0.819   2.022   0.870 -0.0756  0.6359 -0.0586
  326SOL     OW 1356   0.758   4.366   0.461  0.0456  0.1871 -0.2194
  326SOL    HW2 1357   0.690   4.367   0.393 -0.6031 -1.0571  0.4023
  326SOL    HW3 1358   0.794   4.278   0.459  0.2892  0.2515  0.8021
  326SOL    MW4 1359   0.754   4.355   0.452 -0.0078  0.0315 -0.0026
  327SOL     OW 1360   3.604   4.185   0.866 -0.4450  0.1428 -0.1425
  327SOL    HW2 1361   3.674   4.250   0.867 -0.2940  0.0302 -1.9292
  327SOL    HW3 1362   3.534   4.226   0.816 -1.0396 -0.3680  0.2732
  327SOL    MW4 1363   3.604   4.199   0.860 -0.5033  0.0610 -0.3234
  328SOL     OW 1364   0.290   1.272   0.538  0.3779  0.1553  0.0027
  328SOL    HW2 1365   0.357   1.232   0.483  1.1052  1.4626 -0.0744
  328SOL    HW3 1366   0.219   1.207   0.541  1.5005 -1.0873 -0.1829
  328SOL    MW4 1367   0.289   1.258   0.531  0.6220  0.1637 -0.0319
  329SOL     OW 1368   1.540   3.525   0.535 -0.3563 -0.2132  0.4224
  329SOL    HW2 1369   1.561   3.564   0.621  0.6928 -0.9323  0.4978
  329SOL    HW3 1370   1.560   3.595   0.472 -0.5049  0.0951  0.7136
  329SOL    MW4 1371   1.545   3.540   0.538 -0.2376 -0.2670  0.4708
  330SOL     OW 1372   2.192   2.887   0.344  0.0066 -0.1565  0.5513
  330SOL    HW2 1373   2.108   2.849   0.368 -0.0304 -1.6280 -1.7459
  330SOL    HW3 1374   2.179   2.982   0.354 -2.1630 -0.3175 -0.5012
  330SOL    MW4 1375   2.179   2.895   0.348 -0.2847 -0.3722  0.1094
  331SOL     OW 1376   1.546   3.094   0.854  0.2164 -0.3673 -0.1245
  331SOL    HW2 1377   1.531   3.008   0.815  1.8988 -0.2829 -0.9764
  331SOL    HW3 1378   1.549   3.078   0.948 -0.5349 -1.0725 -0.2178
  331SOL    MW4 1379   1.544   3.080   0.862  0.3392 -0.4489 -0.2493
  332SOL     OW 1380   3.407   1.554   0.863 -0.3063 -0.0452 -0.2453
  332SOL    HW2 1381   3.387   1.555   0.956 -0.8869  1.6230 -0.3711
  332SOL    HW3 1382   3.325   1.583   0.821  0.8546  2.1545 -1.0713
  332SOL    MW4 1383   3.393   1.558   0.869 -0.2296  0.4650 -0.3709
  333SOL     OW 1384   2.020   3.607   0.496 -0.2183  0.0624 -0.0269
  333SOL    HW2 1385   2.106   3.583   0.462  0.4374  0.0187  1.6137
  333SOL    HW3 1386   1.968   3.528   0.489 -0.1059  0.0581 -0.9237
  333SOL    MW4 1387   2.024   3.594   0.490 -0.1171  0.0563  0.0713
  334SOL     OW 1388   0.221   0.022   0.312 -0.4628  0.2467 -0.2860
  334SOL    HW2 1389   0.190   0.110   0.332 -1.4268 -0.2030  0.2312
  334SOL    HW3 1390   0.144  -0.034   0.324  0.1239 -0.6549 -0.6739
  334SOL    MW4 1391   0.207   0.026   0.316 -0.5126  0.0684 -0.2690
  335SOL     OW 1392   1.086   3.881   0.839 -0.0687 -0.2843 -0.5744
  335SOL    HW2 1393   1.112   3.797   0.803 -0.2785 -0.5021 -0.2286
  335SOL    HW3 1394   1.110   3.876   0.932 -1.3010 -0.4825 -0.2514
  335SOL    MW4 1395   1.093   3.869   0.847 -0.2589 -0.3390 -0.4862
  336SOL     OW 1396   2.649   0.038   0.505  0.2513  0.2752 -0.1866
  336SOL    HW2 1397   2.740   0.044   0.477  0.3583  0.7375  0.2611
  336SOL    HW3 1398   2.648   0.076   0.593 -0.5063  0.9286 -0.4725
  336SOL    MW4 1399   2.661   0.044   0.513  0.1655  0.4224 -0.1652
  337SOL     OW 1400   0.967   3.349   0.453 -0.3235 -0.2318 -0.1098
  337SOL    HW2 1401   0.877   3.359   0.425 -0.3342 -2.5245 -0.9903
  337SOL    HW3 1402   0.961   3.310   0.540 -0.1811  0.0043  0.0073
  337SOL    MW4 1403   0.955   3.345   0.461 -0.3061 -0.5031 -0.2105
  338SOL     OW 1404   1.313   1.813   0.544  0.3870  0.5175  0.1008
  338SOL    HW2 1405   1.268   1.744   0.495 -0.6084  0.4739  1.0409
  338SOL    HW3 1406   1.302   1.788   0.636 -0.2200  2.0570  0.4669
  338SOL    MW4 1407   1.305   1.801   0.550  0.1756  0.7148  0.2730
  339SOL     OW 1408   2.016   4.382   0.688 -0.8165 -0.1886  0.1870
  339SOL    HW2 1409   2.081   4.332   0.737 -0.7577 -0.1614  0.1362
  339SOL    HW3 1410   1.932   4.353   0.724 -0.8328 -1.1041 -0.5711
  339SOL    MW4 1411   2.013   4.371   0.699 -0.8109 -0.3061  0.0803
  340SOL     OW 1412   2.919   2.064   0.776  0.2339  0.4580  0.8409
  340SOL    HW2 1413   2.914   2.085   0.683 -1.2971  1.2709  1.0916
  340SOL    HW3 1414   2.942   2.146   0.818 -0.1936  0.3457  1.2934
  340SOL    MW4 1415   2.921   2.077   0.769 -0.0246  0.5505  0.9336
  341SOL     OW 1416   1.221   1.560   0.388  0.4128  0.2918 -0.1010
  341SOL    HW2 1417   1.143   1.616   0.387  0.5102  0.4525  1.0157
  341SOL    HW3 1418   1.266   1.582   0.307 -0.6282  0.3090 -0.6890
  341SOL    MW4 1419   1.216   1.571   0.377  0.2881  0.3152 -0.0313
  342SOL     OW 1420   1.319   0.398   0.900 -0.7032  0.4569 -0.7203
  342SOL    HW2 1421   1.312   0.306   0.872  0.7309  0.2293 -0.4050
  342SOL    HW3 1422   1.347   0.392   0.991  2.2416  1.1888 -1.5298
  342SOL    MW4 1423   1.322   0.385   0.908 -0.1255  0.5234 -0.7854
  343SOL     OW 1424   2.916   3.644   0.720  0.5198  0.0305  0.2164
  343SOL    HW2 1425   2.911   3.725   0.772  1.3210 -0.9487  1.8385
  343SOL    HW3 1426   2.842   3.592   0.751  1.6759 -1.0364  1.2230
  343SOL    MW4 1427   2.905   3.648   0.731  0.7777 -0.2394  0.5633
  344SOL     OW 1428   4.277   4.420   0.510  0.5722  0.5092  0.1872
  344SOL    HW2 1429   4.275   4.395   0.603 -0.1601 -0.0918  0.0201
  344SOL    HW3 1430   4.236   4.507   0.508 -0.1132  0.1970  0.3408
  344SOL    MW4 1431   4.271   4.428   0.522  0.3848  0.3891  0.1854
  345SOL     OW 1432   3.923   1.946   0.317  0.0099 -0.5586  0.0731
  345SOL    HW2 1433   3.934   2.030   0.272  0.6132 -0.9493 -0.5295
  345SOL    HW3 1434   4.008   1.902   0.306 -0.1532 -1.0522  0.7822
  345SOL    MW4 1435   3.936   1.951   0.309  0.0679 -0.6752  0.0872
  346SOL     OW 1436   1.583   0.449   0.783 -0.1071 -0.2713 -0.4976
  346SOL    HW2 1437   1.498   0.415   0.812 -0.3812  0.4589 -0.4413
  346SOL    HW3 1438   1.583   0.435   0.688 -0.7739  0.7658 -0.6645
  346SOL    MW4 1439   1.572   0.442   0.774 -0.2311 -0.0381 -0.5122
  347SOL     OW 1440   0.485   3.237   0.771  0.2784 -0.3593 -0.1883
  347SOL    HW2 1441   0.464   3.314   0.824  0.2858 -0.8464  0.5358
  347SOL    HW3 1442   0.475   3.266   0.681 -0.8056  0.1907  0.1000
  347SOL    MW4 1443   0.481   3.251   0.766  0.1363 -0.3510 -0.0547
  348SOL     OW 1444   1.344   1.965   0.884 -0.4618  0.1168 -0.4355
  348SOL    HW2 1445   1.345   1.873   0.860  3.7488  0.0255 -0.2358
  348SOL    HW3 1446   1.354   1.965   0.979 -0.8346  0.7727 -0.3916
  348SOL    MW4 1447   1.345   1.953   0.893  0.0445  0.1913 -0.4033
  349SOL     OW 1448   1.817   1.916   0.838  0.3947  0.0332  0.0630
  349SOL    HW2 1449   1.827   1.832   0.795 -0.3967  0.6030 -1.2706
  349SOL    HW3 1450   1.879   1.974   0.793  0.3892  0.3558  0.4622
  349SOL    MW4 1451   1.827   1.913   0.826  0.2897  0.1509 -0.0603
  350SOL     OW 1452   0.030   4.516   0.407  0.0780  0.0393  0.3802
  350SOL    HW2 1453   0.094   4.454   0.442 -0.4987  0.5015  2.2946
  350SOL    HW3 1454  -0.054   4.483   0.439 -0.4414  0.5756 -0.4437
  350SOL    MW4 1455   0.027   4.503   0.416 -0.0667  0.1707  0.5241
  351SOL     OW 1456   1.570   2.042   0.743 -0.0370 -0.0775 -0.4021
  351SOL    HW2 1457   1.645   2.004   0.787 -0.1691  1.1204  0.8930
  351SOL    HW3 1458   1.495   2.019   0.797 -0.4576 -0.2529 -1.0477
  351SOL    MW4 1459   1.570   2.034   0.756 -0.1100  0.0575 -0.3164
  352SOL     OW 1460   0.158   0.293   0.351 -0.4005  0.1882  0.0035
  352SOL    HW2 1461   0.078   0.251   0.383 -1.7658  1.9153 -0.9970
  352SOL    HW3 1462   0.130   0.382   0.328  1.4090  0.2538 -2.1015
  352SOL    MW4 1463   0.143   0.299   0.352 -0.3419  0.4247 -0.4063
  353SOL     OW 1464   2.019   3.622   0.772 -0.1343 -0.2168 -0.1592
  353SOL    HW2 1465   2.026   3.713   0.800  0.3065 -0.4270  0.4185
  353SOL    HW3 1466   2.039   3.624   0.678  1.2499  0.0881  0.1372
  353SOL    MW4 1467   2.022   3.634   0.763  0.1066 -0.2041 -0.0439
  354SOL     OW 1468   2.335   1.757   0.216 -0.4492 -0.2745  0.9115
  354SOL    HW2 1469   2.246   1.753   0.250 -1.6778 -0.1575 -2.1153
  354SOL    HW3 1470   2.352   1.851   0.205  0.0754 -0.2964  1.5111
  354SOL    MW4 1471   2.326   1.769   0.219 -0.5422 -0.2620  0.5912
  355SOL     OW 1472   1.948   2.876   0.472 -0.5130 -0.1684 -0.7931
  355SOL    HW2 1473   1.863   2.841   0.447 -0.7777 -0.2535  0.1908
  355SOL    HW3 1474   1.939   2.971   0.466 -1.3361 -0.0912  1.3238
  355SOL    MW4 1475   1.936   2.884   0.468 -0.6566 -0.1698 -0.3840
  356SOL     OW 1476   1.498   3.920   0.581 -0.3568 -0.2222  0.0173
  356SOL    HW2 1477   1.421   3.964   0.617 -1.3588 -0.9448 -1.1505
  356SOL    HW3 1478   1.558   3.911   0.654 -1.3733  0.4008  0.9425
  356SOL    MW4 1479   1.495   3.925   0.595 -0.6231 -0.2353 -0.0147
  357SOL     OW 1480   3.673   4.003   0.479  0.2903 -0.4725  0.3401
  357SOL    HW2 1481   3.652   3.985   0.570 -0.2517  1.6256  0.6478
  357SOL    HW3 1482   3.601   3.963   0.430  0.5638 -1.5704  0.8164
  357SOL    MW4 1483   3.661   3.995   0.484  0.2549 -0.3405  0.4436
  358SOL     OW 1484   2.278   4.215   0.380  0.2026  0.2591  0.2609
  358SOL    HW2 1485   2.197   4.266   0.379 -1.0122 -1.6320 -0.3090
  358SOL    HW3 1486   2.320   4.235   0.296 -1.1079 -0.9701 -0.7062
  358SOL    MW4 1487   2.273   4.225   0.369 -0.1304 -0.1526  0.0581
  359SOL     OW 1488   1.803   3.447   0.833  0.0126  0.1034 -0.2283
  359SOL    HW2 1489   1.879   3.498   0.805  0.6877 -1.0821 -0.5969
  359SOL    HW3 1490   1.808   3.366   0.782 -1.3208 -0.1215 -0.0210
  359SOL    MW4 1491   1.814   3.443   0.823 -0.0744 -0.0825 -0.2496
  360SOL     OW 1492   1.350   3.510   0.911  0.4439 -0.0660  0.5541
  360SOL    HW2 1493   1.334   3.424   0.872 -1.5137  1.4414 -2.2021
  360SOL    HW3 1494   1.439   3.532   0.883 -0.1148  0.0225 -1.2287
  360SOL    MW4 1495   1.360   3.501   0.902  0.1119  0.1445 -0.0448
  361SOL     OW 1496   1.798   4.272   0.840  0.2480  0.0160 -0.0163
  361SOL    HW2 1497   1.786   4.282   0.935  1.5330  1.6579 -0.0130
  361SOL    HW3 1498   1.736   4.333   0.802  1.6534  1.3713 -0.1694
  361SOL    MW4 1499   1.788   4.281   0.848  0.6030  0.4120 -0.0359
  362SOL     OW 1500   2.969   0.536   0.509 -0.3315 -0.2556  0.3004
  362SOL    HW2 1501   2.896   0.502   0.458 -0.2386  0.9174 -0.6360
  362SOL    HW3 1502   2.956   0.631   0.511  2.4673  0.2396 -1.9876
  362SOL    MW4 1503   2.958   0.544   0.503  0.0501 -0.0356 -0.1251
  363SOL     OW 1504   2.664   0.092   0.772 -0.4590 -0.2190 -0.0006
  363SOL    HW2 1505   2.743   0.056   0.810 -0.1994  0.8428  0.4766
  363SOL    HW3 1506   2.670   0.187   0.787 -0.7737  0.1193 -1.8599
  363SOL    MW4 1507   2.675   0.100   0.779 -0.4666 -0.0343 -0.1830
  364SOL     OW 1508   2.269   0.869   0.762 -0.4386  0.3622 -0.4463
  364SOL    HW2 1509   2.191   0.830   0.801 -0.5536  1.1498  0.1009
  364SOL    HW3 1510   2.267   0.960   0.789 -0.5401  0.9321 -2.2998
  364SOL    MW4 1511   2.258   0.876   0.770 -0.4673  0.5413 -0.6187
  365SOL     OW 1512   2.035   0.751   0.866  0.2925  0.6248 -0.4233
  365SOL    HW2 1513   2.033   0.660   0.836  0.5320 -0.0382  1.5150
  365SOL    HW3 1514   1.949   0.786   0.840 -0.3438 -0.5560  0.0278
  365SOL    MW4 1515   2.023   0.744   0.859  0.2401  0.3815 -0.1080
  366SOL     OW 1516   4.350   1.488   0.397 -0.0556  0.3394 -0.6550
  366SOL    HW2 1517   4.287   1.548   0.437 -0.2797 -0.1607 -0.2609
  366SOL    HW3 1518   4.375   1.531   0.315 -0.5179  0.7814 -0.5656
  366SOL    MW4 1519   4.345   1.502   0.392 -0.1464  0.3318 -0.5912
  367SOL     OW 1520   2.529   4.456   0.453  0.1185 -0.0264 -0.0957
  367SOL    HW2 1521   2.566   4.543   0.462 -1.3441  0.5472  0.5122
  367SOL    HW3 1522   2.502   4.432   0.542 -1.0961 -0.3629 -0.5446
  367SOL    MW4 1523   2.530   4.464   0.466 -0.2348  0.0052 -0.0747
  368SOL     OW 1524   2.883   1.296   0.638  0.1838  0.3314  0.4872
  368SOL    HW2 1525   2.836   1.372   0.605 -0.4094  0.1115  0.8001
  368SOL    HW3 1526   2.924   1.326   0.719  0.7837  0.5923  0.0820
  368SOL    MW4 1527   2.882   1.310   0.645  0.1845  0.3368  0.4750
  369SOL     OW 1528   2.270   1.120   0.877 -0.2683 -0.4390 -0.0492
  369SOL    HW2 1529   2.258   1.141   0.970 -1.6948  0.2378 -0.3683
  369SOL    HW3 1530   2.198   1.166   0.833  1.0261  0.1214 -1.6101
  369SOL    MW4 1531   2.259   1.129   0.884 -0.2856 -0.2759 -0.2973
  370SOL     OW 1532   1.562   2.860   0.669  0.0472 -0.1558 -0.2059
  370SOL    HW2 1533   1.507   2.794   0.712  0.1983  0.7580  1.4204
  370SOL    HW3 1534   1.614   2.810   0.606 -0.8935 -1.3798 -0.0334
  370SOL    MW4 1535   1.562   2.844   0.666 -0.0570 -0.1969  0.0315
  371SOL     OW 1536   2.546   1.572   0.215 -0.0203 -0.2216 -0.0437
  371SOL    HW2 1537   2.562   1.543   0.125 -0.0956  1.3063 -0.5620
  371SOL    HW3 1538   2.473   1.633   0.209  0.2514  0.2276  0.9839
  371SOL    MW4 1539   2.539   1.576   0.202  0.0057  0.0392  0.0235
  372SOL     OW 1540   2.468   1.993   0.766 -0.3315  0.0294  0.0865
  372SOL    HW2 1541   2.556   1.960   0.786  0.1819  1.2327 -0.1583
  372SOL    HW3 1542   2.467   2.000   0.670 -0.4693  0.6256  0.1314
  372SOL    MW4 1543   2.480   1.990   0.756 -0.2820  0.2668  0.0601
  373SOL     OW 1544   2.017   2.037   0.708 -0.2469 -0.2910 -0.0499
  373SOL    HW2 1545   2.033   2.124   0.743 -0.2506 -0.2134 -0.2370
  373SOL    HW3 1546   2.086   1.982   0.746 -1.4334 -0.6347  1.6525
  373SOL    MW4 1547   2.028   2.041   0.718 -0.4041 -0.3259  0.1500
  374SOL     OW 1548   1.168   2.053   0.510 -0.8535 -0.0591 -0.1308
  374SOL    HW2 1549   1.225   1.976   0.510  0.3617  0.8058 -1.5269
  374SOL    HW3 1550   1.086   2.022   0.471  0.3696 -0.1838 -2.7476
  374SOL    MW4 1551   1.165   2.039   0.505 -0.5318  0.0386 -0.6603
  375SOL     OW 1552   2.492   2.255   0.865  0.1402 -0.2120  0.2152
  375SOL    HW2 1553   2.492   2.164   0.837 -1.3669 -0.8649  2.1957
  375SOL    HW3 1554   2.419   2.295   0.819  0.5956 -0.0765 -0.3974
  375SOL    MW4 1555   2.483   2.248   0.855  0.0014 -0.2801  0.3957
  376SOL     OW 1556   0.158   2.108   0.386  0.3379 -0.2808 -0.2959
  376SOL    HW2 1557   0.130   2.018   0.372  2.0932 -0.8651 -0.2167
  376SOL    HW3 1558   0.192   2.137   0.301  1.2612 -0.2434  0.0812
  376SOL    MW4 1559   0.159   2.100   0.373  0.6913 -0.3529 -0.2356
  377SOL     OW 1560   2.013   3.026   0.866  0.2357  0.1778  0.0842
  377SOL    HW2 1561   2.083   3.087   0.843 -0.0564  1.1907  1.7603
  377SOL    HW3 1562   2.037   2.944   0.823  2.2349  0.6406  0.2709
  377SOL    MW4 1563   2.026   3.023   0.858  0.4606  0.3724  0.3299
  378SOL     OW 1564   2.742   2.677   0.849 -0.1134  0.0234 -0.0651
  378SOL    HW2 1565   2.731   2.678   0.944 -1.5163  1.8125 -0.2235
  378SOL    HW3 1566   2.667   2.726   0.816  0.8554  0.1915 -2.0527
  378SOL    MW4 1567   2.731   2.683   0.857 -0.1707  0.2816 -0.3482
  379SOL     OW 1568   2.514   3.102   0.853  0.1211 -0.3361 -0.0718
  379SOL    HW2 1569   2.543   3.091   0.943  1.5670 -0.4827 -0.5435
  379SOL    HW3 1570   2.528   3.017   0.812 -1.3327 -0.5163 -0.2215
  379SOL    MW4 1571   2.520   3.089   0.859  0.1202 -0.3791 -0.1538
  380SOL     OW 1572   2.221   3.187   0.781 -0.2772  0.0871  0.0209
  380SOL    HW2 1573   2.310   3.158   0.802 -0.0199  0.7164 -0.1901
  380SOL    HW3 1574   2.217   3.277   0.813 -0.5335  0.3719 -0.7920
  380SOL    MW4 1575   2.232   3.195   0.788 -0.2773  0.2077 -0.1143
  381SOL     OW 1576   2.234   3.467   0.883 -0.0332  0.3215 -0.1596
  381SOL    HW2 1577   2.312   3.515   0.856  0.5889 -0.8409 -0.4300
  381SOL    HW3 1578   2.162   3.514   0.839  0.6992  0.1491 -1.5915
  381SOL    MW4 1579   2.234   3.480   0.873  0.1454  0.1452 -0.3842
  382SOL     OW 1580   3.181   3.054   0.413  0.4045 -0.3551 -0.2452
  382SOL    HW2 1581   3.132   3.127   0.449  1.0939  0.3534 -0.7269
  382SOL    HW3 1582   3.127   2.977   0.432 -0.2754  0.2593  0.3478
  382SOL    MW4 1583   3.167   3.053   0.420  0.4058 -0.1807 -0.2305
  383SOL     OW 1584   1.379   0.167   0.548 -0.2245  0.0275 -0.0594
  383SOL    HW2 1585   1.402   0.088   0.499  0.0959 -0.4143  0.7932
  383SOL    HW3 1586   1.299   0.199   0.505  0.8345  0.4640 -1.7840
  383SOL    MW4 1587   1.372   0.161   0.536 -0.0424  0.0268 -0.1745
  384SOL     OW 1588   1.380   0.627   0.407  0.0824 -0.1626 -0.1911
  384SOL    HW2 1589   1.431   0.552   0.438  1.1747  0.7568  0.2705
  384SOL    HW3 1590   1.324   0.650   0.481 -1.7441 -1.7843 -1.0317
  384SOL    MW4 1591   1.379   0.620   0.421 -0.0145 -0.2553 -0.2411
  385SOL     OW 1592   2.307   4.007   0.768  0.0709  0.0136  0.2999
  385SOL    HW2 1593   2.328   3.987   0.677  0.2070  1.3574  0.0118
  385SOL    HW3 1594   2.229   3.956   0.787  0.0963 -0.3455 -0.5401
  385SOL    MW4 1595   2.300   3.998   0.759  0.0920  0.1438  0.1510
  386SOL     OW 1596   3.903   2.952   0.367 -0.1153 -0.1519 -0.1575
  386SOL    HW2 1597   3.829   3.003   0.334 -0.5584  0.0436  1.0987
  386SOL    HW3 1598   3.960   3.016   0.410  0.2599 -0.4467 -0.2088
  386SOL    MW4 1599   3.901   2.967   0.369 -0.1242 -0.1652  0.0014
  387SOL     OW 1600   0.974   1.066   0.438 -0.1702 -0.4299 -0.3543
  387SOL    HW2 1601   1.039   1.128   0.470 -1.6988  1.1803 -0.2737
  387SOL    HW3 1602   0.962   1.005   0.511  0.0595  0.2438  0.2589
  387SOL    MW4 1603   0.981   1.066   0.452 -0.3415 -0.1286 -0.2627
  388SOL     OW 1604   4.344   3.129   0.529  0.3240  0.0329 -0.1996
  388SOL    HW2 1605   4.374   3.041   0.504  1.1992  0.9394 -2.5411
  388SOL    HW3 1606   4.403   3.155   0.599  1.1961 -0.5531 -0.7005
  388SOL    MW4 1607   4.356   3.121   0.535  0.5546  0.0753 -0.5746
  389SOL     OW 1608   2.290   0.420   0.827 -0.0733  0.2268  0.6761
  389SOL    HW2 1609   2.206   0.458   0.802 -0.1118 -0.5390 -0.4022
  389SOL    HW3 1610   2.285   0.329   0.797  2.4401  1.0398 -2.5538
  389SOL    MW4 1611   2.278   0.413   0.819  0.2534  0.2330  0.1077
  390SOL     OW 1612   4.074   1.077   0.421  0.1945  0.5879  0.1673
  390SOL    HW2 1613   4.046   1.145   0.360  0.6622  1.0035  0.4173
  390SOL    HW3 1614   4.138   1.120   0.477 -0.1642  0.1775  0.8922
  390SOL    MW4 1615   4.079   1.092   0.420  0.2089  0.5885  0.2959
  391SOL     OW 1616   2.892   0.824   0.498  0.0890 -0.0326  0.1636
  391SOL    HW2 1617   2.816   0.817   0.440  0.1964 -1.0213  0.1362
  391SOL    HW3 1618   2.856   0.853   0.581 -0.0769  1.3177 -0.3743
  391SOL    MW4 1619   2.877   0.827   0.501  0.0813  0.0151  0.0890
  392SOL     OW 1620   3.685   0.120   0.476 -0.0533 -0.2477 -0.1749
  392SOL    HW2 1621   3.672   0.194   0.417 -1.0071 -1.8337 -2.0309
  392SOL    HW3 1622   3.780   0.110   0.482  0.0692 -0.7583 -2.4259
  392SOL    MW4 1623   3.696   0.128   0.469 -0.1628 -0.5243 -0.7167
  393SOL     OW 1624   1.442   4.631   0.376  0.5530  0.1215 -0.1884
  393SOL    HW2 1625   1.450   4.544   0.414 -0.1801 -0.3871 -1.1706
  393SOL    HW3 1626   1.359   4.629   0.328  0.1925  1.5898  0.3643
  393SOL    MW4 1627   1.432   4.619   0.374  0.4089  0.2480 -0.2451
  394SOL     OW 1628   1.785   2.490   0.436 -0.2300  0.3633  0.5460
  394SOL    HW2 1629   1.713   2.427   0.433 -0.3373  0.5615 -1.2300
  394SOL    HW3 1630   1.861   2.442   0.405  0.2970  0.3156  1.8917
  394SOL    MW4 1631   1.785   2.476   0.432 -0.1748  0.3834  0.4892
  395SOL     OW 1632   2.032   0.367   0.478  0.2470 -0.4725  0.2884
  395SOL    HW2 1633   1.950   0.324   0.454  0.2348 -1.0543  1.3494
  395SOL    HW3 1634   2.100   0.305   0.454  0.3174 -0.4239  0.3621
  395SOL    MW4 1635   2.030   0.353   0.472  0.2546 -0.5428  0.4381
  396SOL     OW 1636   3.179   0.913   0.530 -0.0722 -0.2071  0.1398
  396SOL    HW2 1637   3.245   0.846   0.515  0.2329  0.6507 -2.5791
  396SOL    HW3 1638   3.097   0.874   0.499 -0.2858 -0.0894  0.5436
  396SOL    MW4 1639   3.177   0.899   0.524 -0.0601 -0.0783 -0.1656
  397SOL     OW 1640   2.755   1.677   0.376  0.2351  0.0262 -0.2891
  397SOL    HW2 1641   2.735   1.760   0.418  0.1130 -0.5871  0.8741
  397SOL    HW3 1642   2.678   1.658   0.322  1.3372  1.9494 -2.6489
  397SOL    MW4 1643   2.742   1.685   0.374  0.3645  0.1991 -0.4469
  398SOL     OW 1644   1.175   0.639   0.210  0.1911 -0.0945  0.2301
  398SOL    HW2 1645   1.251   0.632   0.268 -0.8998 -1.7640  1.5038
  398SOL    HW3 1646   1.203   0.598   0.128  0.8148 -0.3139  0.5481
  398SOL    MW4 1647   1.188   0.633   0.207  0.1295 -0.3437  0.4401
  399SOL     OW 1648   2.210   0.181   0.724  0.2521  0.4374  0.0647
  399SOL    HW2 1649   2.215   0.169   0.629  2.3410  0.5562  0.1318
  399SOL    HW3 1650   2.270   0.115   0.760 -1.4013 -0.3898  1.3866
  399SOL    MW4 1651   2.218   0.170   0.716  0.3095  0.3439  0.2479
  400SOL     OW 1652   2.717   2.397   0.781 -0.0832  0.1845 -0.6284
  400SOL    HW2 1653   2.712   2.479   0.831 -0.6975 -0.4091  0.3056
  400SOL    HW3 1654   2.642   2.346   0.812  0.3091 -0.7357 -1.1888
  400SOL    MW4 1655   2.706   2.401   0.792 -0.1125 -0.0153 -0.5791
  401SOL     OW 1656   2.537   2.846   0.734 -0.3671  0.2703  0.0227
  401SOL    HW2 1657   2.456   2.833   0.782 -0.8586 -2.7921 -1.5443
  401SOL    HW3 1658   2.511   2.848   0.642  1.3019 -0.4603 -0.4888
  401SOL    MW4 1659   2.523   2.845   0.728 -0.2117 -0.2301 -0.2515
  402SOL     OW 1660   1.566   0.728   0.874 -0.0795 -0.2934 -0.1438
  402SOL    HW2 1661   1.560   0.635   0.851  0.6004 -0.4897  0.4742
  402SOL    HW3 1662   1.490   0.768   0.830 -0.3844 -1.1364 -0.3987
  402SOL    MW4 1663   1.555   0.721   0.865 -0.0299 -0.4305 -0.0960
  403SOL     OW 1664   2.907   3.073   0.869  0.3251  0.4814 -0.1375
  403SOL    HW2 1665   2.847   3.132   0.823 -2.0435 -0.4139  1.6508
  403SOL    HW3 1666   2.898   2.989   0.824  1.9591  0.9012 -1.2617
  403SOL    MW4 1667   2.898   3.070   0.857  0.2282  0.4184 -0.0499
  404SOL     OW 1668   2.721   3.249   0.738 -0.5219 -0.4134  0.1556
  404SOL    HW2 1669   2.722   3.341   0.763 -0.6913 -0.5519  0.6815
  404SOL    HW3 1670   2.637   3.216   0.771 -0.2701 -0.8587  0.3547
  404SOL    MW4 1671   2.710   3.257   0.746 -0.5112 -0.4902  0.2513
  405SOL     OW 1672   2.713   3.489   0.885  0.1478 -0.0194 -0.5098
  405SOL    HW2 1673   2.719   3.483   0.980 -0.4775  0.8583 -0.4121
  405SOL    HW3 1674   2.626   3.524   0.868  0.5198  0.5170 -1.3693
  405SOL    MW4 1675   2.703   3.493   0.895  0.1147  0.1671 -0.6102
  406SOL     OW 1676   2.970   2.582   0.560 -0.1222 -0.1231 -0.2348
  406SOL    HW2 1677   2.930   2.650   0.614  1.3298  0.5571  0.0141
  406SOL    HW3 1678   3.043   2.550   0.613 -0.8844 -2.0123 -0.2741
  406SOL    MW4 1679   2.974   2.587   0.575 -0.0310 -0.2828 -0.2071
  407SOL     OW 1680   2.937   3.883   0.861 -0.1619  0.3183  0.5237
  407SOL    HW2 1681   2.865   3.945   0.847  0.1727  0.5197 -0.3528
  407SOL    HW3 1682   2.937   3.867   0.955 -0.5729  1.2650  0.6888
  407SOL    MW4 1683   2.928   3.889   0.872 -0.1721  0.4697  0.4299
  408SOL     OW 1684   2.742   4.295   0.383 -0.0840  0.2355  0.1548
  408SOL    HW2 1685   2.741   4.280   0.288  0.5548  0.2208  0.1463
  408SOL    HW3 1686   2.665   4.349   0.400  0.0772  0.6572 -0.4469
  408SOL    MW4 1687   2.732   4.300   0.373  0.0215  0.2894  0.0743
  409SOL     OW 1688   2.647   4.311   0.882  0.0560  0.1832 -0.3517
  409SOL    HW2 1689   2.650   4.326   0.977  0.5696 -0.5280 -0.2489
  409SOL    HW3 1690   2.734   4.336   0.851 -0.6062  1.8623 -0.8606
  409SOL    MW4 1691   2.659   4.316   0.891  0.0365  0.3114 -0.4053
  410SOL     OW 1692   1.168   3.636   0.753 -0.5560  0.0989  0.5284
  410SOL    HW2 1693   1.187   3.598   0.667  0.3478  0.3029  0.6253
  410SOL    HW3 1694   1.240   3.606   0.808 -1.3795 -0.4060  1.3341
  410SOL    MW4 1695   1.180   3.627   0.749 -0.5454  0.0591  0.6475
  411SOL     OW 1696   3.410   4.633   0.851  0.1765  0.1969 -0.5305
  411SOL    HW2 1697   3.418   4.619   0.945  0.1171  0.3329 -0.5051
  411SOL    HW3 1698   3.489   4.681   0.827 -0.7059  1.8257 -0.2230
  411SOL    MW4 1699   3.422   4.637   0.860  0.0522  0.4296 -0.4867
  412SOL     OW 1700   2.466   1.530   0.892  0.3459 -0.4833 -0.4851
  412SOL    HW2 1701   2.475   1.436   0.903  2.1855 -0.3325 -0.4885
  412SOL    HW3 1702   2.545   1.556   0.845 -0.9007  0.8363 -1.9024
  412SOL    MW4 1703   2.477   1.521   0.887  0.4241 -0.2893 -0.6726
  413SOL     OW 1704   1.794   1.679   0.443  0.2373  0.1640  0.5713
  413SOL    HW2 1705   1.774   1.605   0.387  0.6641  0.6802 -0.2859
  413SOL    HW3 1706   1.714   1.732   0.444  0.8033  1.0804 -1.0343
  413SOL    MW4 1707   1.781   1.676   0.436  0.3684  0.3531  0.2463
  414SOL     OW 1708   3.155   0.051   0.773 -0.0687 -0.3197  0.6935
  414SOL    HW2 1709   3.243   0.021   0.797 -0.4584 -0.8819  1.4428
  414SOL    HW3 1710   3.158   0.146   0.788  0.3515 -0.3650  0.9105
  414SOL    MW4 1711   3.167   0.060   0.779 -0.0646 -0.3999  0.8211
  415SOL     OW 1712   3.416   0.779   0.889  0.3011  0.4817  0.8715
  415SOL    HW2 1713   3.481   0.828   0.840 -0.0257  0.5492  0.4968
  415SOL    HW3 1714   3.332   0.813   0.858  0.0749 -0.1778  0.7491
  415SOL    MW4 1715   3.413   0.790   0.879  0.2282  0.4035  0.8059
  416SOL     OW 1716   2.729   2.459   0.496 -0.2224  0.8756 -0.0935
  416SOL    HW2 1717   2.697   2.458   0.586 -1.2057  2.8915 -0.3716
  416SOL    HW3 1718   2.817   2.497   0.502 -0.6427  1.8769 -0.0472
  416SOL    MW4 1719   2.736   2.464   0.508 -0.4077  1.2734 -0.1242
  417SOL     OW 1720   3.087   1.666   0.495 -0.3425 -0.6952 -0.1706
  417SOL    HW2 1721   3.158   1.647   0.435 -0.0569 -1.5058  0.4260
  417SOL    HW3 1722   3.013   1.616   0.462 -0.1474 -1.2483  0.2371
  417SOL    MW4 1723   3.086   1.657   0.483 -0.2792 -0.8751 -0.0381
  418SOL     OW 1724   2.694   1.950   0.455 -0.1078 -0.3226 -0.1520
  418SOL    HW2 1725   2.664   2.039   0.474  0.1436 -0.2181 -0.2395
  418SOL    HW3 1726   2.789   1.954   0.468 -0.0886 -0.5589 -0.2270
  418SOL    MW4 1727   2.703   1.962   0.459 -0.0720 -0.3399 -0.1734
  419SOL     OW 1728   2.406   1.223   0.526  0.0731  0.0102  0.2297
  419SOL    HW2 1729   2.393   1.317   0.510 -1.6390  0.0067  1.4181
  419SOL    HW3 1730   2.486   1.218   0.578 -0.0170  0.8373  0.4509
  419SOL    MW4 1731   2.415   1.235   0.530 -0.1645  0.1189  0.4157
  420SOL     OW 1732   1.900   4.077   0.494  0.1146  0.2241  0.0291
  420SOL    HW2 1733   1.940   4.159   0.463  1.6065  0.0272  1.3710
  420SOL    HW3 1734   1.954   4.008   0.455  0.1516 -0.0793  0.6176
  420SOL    MW4 1735   1.913   4.079   0.485  0.3164  0.1578  0.2837
  421SOL     OW 1736   3.131   1.899   0.867  0.0281 -0.1807 -0.1104
  421SOL    HW2 1737   3.068   1.961   0.830 -0.0763 -0.3166 -0.1603
  421SOL    HW3 1738   3.115   1.902   0.961 -0.2358 -0.4155 -0.1470
  421SOL    MW4 1739   3.121   1.908   0.874 -0.0205 -0.2296 -0.1218
  422SOL     OW 1740   0.610   0.140   0.374 -0.1173  0.1290 -0.0823
  422SOL    HW2 1741   0.543   0.110   0.436  0.4363 -0.7057  0.1274
  422SOL    HW3 1742   0.595   0.089   0.295 -0.1470  0.4201 -0.2662
  422SOL    MW4 1743   0.599   0.129   0.372 -0.0482  0.0573 -0.0789
  423SOL     OW 1744   2.711   1.511   0.595  0.0144  0.2076  0.3882
  423SOL    HW2 1745   2.741   1.581   0.537 -0.1268  0.0259  0.0958
  423SOL    HW3 1746   2.729   1.544   0.684  1.2308  0.0399  0.2148
  423SOL    MW4 1747   2.717   1.525   0.599  0.1562  0.1615  0.3267
  424SOL     OW 1748   0.501   4.632   0.755  0.1578 -0.2590 -0.3215
  424SOL    HW2 1749   0.420   4.620   0.804  0.4297  1.2634  0.5583
  424SOL    HW3 1750   0.474   4.661   0.668 -0.2903 -1.7895 -0.7110
  424SOL    MW4 1751   0.487   4.634   0.750  0.1346 -0.2599 -0.2568
  425SOL     OW 1752   3.361   2.812   0.772 -0.0980  0.3298  0.4848
  425SOL    HW2 1753   3.341   2.792   0.681 -1.4471  1.6645  0.4769
  425SOL    HW3 1754   3.444   2.767   0.789 -0.4960 -1.0046 -1.0092
  425SOL    MW4 1755   3.369   2.803   0.762 -0.3285  0.3300  0.2867
  426SOL     OW 1756   4.449   2.291   0.473 -0.0677 -0.0059 -0.1600
  426SOL    HW2 1757   4.511   2.222   0.450 -1.4467 -1.7151  1.0719
  426SOL    HW3 1758   4.436   2.340   0.392  1.4256 -0.8052 -0.8998
  426SOL    MW4 1759   4.455   2.288   0.460 -0.0525 -0.3366 -0.0951
  427SOL     OW 1760   3.135   2.721   0.900  0.4368 -0.1710 -0.1543
  427SOL    HW2 1761   3.222   2.756   0.881  0.0208 -0.1207 -2.0424
  427SOL    HW3 1762   3.133   2.636   0.856 -1.1672  0.7169 -1.8970
  427SOL    MW4 1763   3.146   2.714   0.892  0.1702 -0.0470 -0.6334
  428SOL     OW 1764   3.121   3.241   0.806  0.4751 -0.0256 -0.1304
  428SOL    HW2 1765   3.197   3.186   0.823  0.2405 -0.4766 -0.5198
  428SOL    HW3 1766   3.046   3.188   0.835  0.1522 -0.4019 -1.6263
  428SOL    MW4 1767   3.121   3.227   0.812  0.4015 -0.1345 -0.3791
  429SOL     OW 1768   3.112   3.509   0.877 -0.4265  0.8584  0.5625
  429SOL    HW2 1769   3.110   3.419   0.846  0.2851 -0.0791  3.0961
  429SOL    HW3 1770   3.049   3.555   0.821  1.5159 -0.4590 -2.8470
  429SOL    MW4 1771   3.103   3.503   0.866 -0.0765  0.5608  0.4469
  430SOL     OW 1772   3.586   3.510   0.883  0.1237  0.3261 -0.0683
  430SOL    HW2 1773   3.504   3.540   0.845 -0.2222 -1.1694 -0.5448
  430SOL    HW3 1774   3.582   3.415   0.878  1.1550  0.1762  1.4715
  430SOL    MW4 1775   3.575   3.501   0.877  0.2143  0.1087  0.0721
  431SOL     OW 1776   3.657   3.936   0.758 -0.3830 -0.5740  0.1266
  431SOL    HW2 1777   3.734   3.896   0.798  0.0185 -0.3086 -0.3865
  431SOL    HW3 1778   3.650   4.021   0.801  0.5796  0.0895 -1.0090
  431SOL    MW4 1779   3.666   3.942   0.769 -0.2031 -0.4513 -0.0910
  432SOL     OW 1780   3.174   4.244   0.883  0.0119  0.5735  0.2381
  432SOL    HW2 1781   3.168   4.168   0.825 -0.2069  0.6862  0.1104
  432SOL    HW3 1782   3.249   4.294   0.850 -0.2770  0.7739 -0.1114
  432SOL    MW4 1783   3.183   4.241   0.871 -0.0551  0.6142  0.1751
  433SOL     OW 1784   2.938   4.329   0.776 -0.6109  0.4615  0.4051
  433SOL    HW2 1785   3.020   4.295   0.813 -0.1920  0.2226 -0.7356
  433SOL    HW3 1786   2.962   4.360   0.689 -1.5184  1.3836  0.4777
  433SOL    MW4 1787   2.952   4.329   0.769 -0.6752  0.5517  0.2641
  434SOL     OW 1788   3.117   4.303   0.280  0.3451 -0.4666  0.0258
  434SOL    HW2 1789   3.071   4.352   0.349  0.7502  0.2709 -0.2142
  434SOL    HW3 1790   3.117   4.363   0.205  0.8078 -0.8589 -0.2881
  434SOL    MW4 1791   3.111   4.318   0.279  0.4597 -0.4206 -0.0473
  435SOL     OW 1792   3.823   4.600   0.869 -0.0758  0.1428  0.2374
  435SOL    HW2 1793   3.819   4.511   0.834 -1.2309 -0.3898  1.6994
  435SOL    HW3 1794   3.750   4.645   0.828  0.8454  0.6095 -0.9445
  435SOL    MW4 1795   3.813   4.594   0.859 -0.1068  0.1340  0.2744
  436SOL     OW 1796   3.645   0.095   0.761  0.0112 -0.2997 -0.4750
  436SOL    HW2 1797   3.642   0.183   0.798  0.1697 -0.7638  0.6636
  436SOL    HW3 1798   3.648   0.108   0.666  0.2944  0.9181 -0.2942
  436SOL    MW4 1799   3.645   0.108   0.753  0.0696 -0.2002 -0.3009
  437SOL     OW 1800   3.186   0.355   0.847 -0.3514 -0.0601  0.2583
  437SOL    HW2 1801   3.258   0.415   0.826 -0.9521  0.6289  0.1584
  437SOL    HW3 1802   3.173   0.367   0.941 -0.4774 -0.0299  0.2362
  437SOL    MW4 1803   3.194   0.365   0.857 -0.4470  0.0348  0.2421
  438SOL     OW 1804   0.044   4.062   0.443  0.8442 -0.5157 -0.1666
  438SOL    HW2 1805  -0.010   4.125   0.395  2.1214  0.6584 -0.0934
  438SOL    HW3 1806   0.134   4.095   0.434  1.1898 -0.5677  2.5286
  438SOL    MW4 1807   0.049   4.075   0.436  1.0583 -0.3672  0.1986
  439SOL     OW 1808   4.327   0.459   0.838  0.0652  0.4548 -0.0994
  439SOL    HW2 1809   4.352   0.551   0.845 -0.0183  0.5712 -1.1544
  439SOL    HW3 1810   4.407   0.410   0.858  0.7805  0.8022 -1.9983
  439SOL    MW4 1811   4.341   0.464   0.841  0.1488  0.5160 -0.4891
  440SOL     OW 1812   3.865   0.741   0.837 -0.1999 -0.4321 -0.0518
  440SOL    HW2 1813   3.835   0.733   0.928  1.1578  0.2059  0.4678
  440SOL    HW3 1814   3.798   0.795   0.795 -0.9022 -0.8348  0.5311
  440SOL    MW4 1815   3.852   0.747   0.844 -0.1135 -0.4011  0.0936
  441SOL     OW 1816   3.644   0.910   0.773  0.2954 -0.4705 -0.4073
  441SOL    HW2 1817   3.657   1.005   0.776 -0.8037 -0.3308  0.5797
  441SOL    HW3 1818   3.632   0.890   0.680 -1.0723  0.6069 -0.4745
  441SOL    MW4 1819   3.644   0.920   0.762 -0.0303 -0.3099 -0.2860
  442SOL     OW 1820   2.965   3.405   0.197  0.1577  0.4432  0.4379
  442SOL    HW2 1821   3.020   3.434   0.270  0.2845 -0.5563  0.7560
  442SOL    HW3 1822   3.012   3.329   0.161 -1.2741 -0.7517  1.0421
  442SOL    MW4 1823   2.979   3.399   0.202 -0.0145  0.1535  0.5596
  443SOL     OW 1824   3.856   1.534   0.855 -0.1423 -0.0535  0.2185
  443SOL    HW2 1825   3.849   1.453   0.805 -0.6410 -0.2135  0.5435
  443SOL    HW3 1826   3.777   1.583   0.833  1.1032  1.2211 -1.5093
  443SOL    MW4 1827   3.845   1.530   0.846 -0.0439  0.0936  0.0335
  444SOL     OW 1828   3.934   1.245   0.243  0.2103  0.4075 -0.1731
  444SOL    HW2 1829   3.944   1.210   0.155  1.8871  1.1573 -0.3114
  444SOL    HW3 1830   3.868   1.190   0.284 -0.4942 -0.0345 -1.8481
  444SOL    MW4 1831   3.927   1.233   0.237  0.3386  0.4482 -0.4123
  445SOL     OW 1832   1.184   4.334   0.471 -0.1300 -0.5980  0.0984
  445SOL    HW2 1833   1.112   4.384   0.434  0.2395 -0.0144  0.1590
  445SOL    HW3 1834   1.168   4.244   0.445 -0.8718 -0.4629  0.0998
  445SOL    MW4 1835   1.173   4.329   0.463 -0.1791 -0.5035  0.1066
  446SOL     OW 1836   3.829   2.322   0.847 -0.1264  0.6098  0.2130
  446SOL    HW2 1837   3.829   2.317   0.943 -0.9737 -1.7893  0.1233
  446SOL    HW3 1838   3.745   2.362   0.825 -0.1148  0.7696  0.4549
  446SOL    MW4 1839   3.818   2.327   0.857 -0.2367  0.3145  0.2331
  447SOL     OW 1840   3.383   2.339   0.843 -0.2103  0.0401  0.1387
  447SOL    HW2 1841   3.372   2.347   0.937 -0.6743 -0.9780  0.1897
  447SOL    HW3 1842   3.379   2.244   0.827 -1.0532  0.2553 -0.9938
  447SOL    MW4 1843   3.381   2.327   0.853 -0.3829 -0.0660 -0.0039
  448SOL     OW 1844   1.392   3.263   0.529  0.4837  0.5782 -0.3356
  448SOL    HW2 1845   1.437   3.347   0.531  1.6525 -0.0486  0.7059
  448SOL    HW3 1846   1.462   3.199   0.517 -0.2803 -0.3189 -0.0927
  448SOL    MW4 1847   1.407   3.265   0.528  0.5370  0.3772 -0.1661
  449SOL     OW 1848   3.616   2.701   0.876 -0.0512 -0.0036  0.1685
  449SOL    HW2 1849   3.622   2.699   0.972 -0.8465  0.0745  0.2265
  449SOL    HW3 1850   3.687   2.758   0.848  0.6027 -0.5616  0.6729
  449SOL    MW4 1851   3.626   2.708   0.885 -0.0701 -0.0670  0.2428
  450SOL     OW 1852   0.852   2.309   0.486  0.0495  0.3035  0.3983
  450SOL    HW2 1853   0.866   2.342   0.575  1.1262  1.1722 -0.0905
  450SOL    HW3 1854   0.914   2.357   0.432  1.8494 -2.6927 -0.3093
  450SOL    MW4 1855   0.862   2.319   0.491  0.4292  0.0224  0.2405
  451SOL     OW 1856   4.102   2.720   0.913  0.3269 -0.3607  0.1988
  451SOL    HW2 1857   4.175   2.755   0.862  0.2612  0.1371  0.4431
  451SOL    HW3 1858   4.086   2.633   0.875 -0.9082  0.7077 -1.8561
  451SOL    MW4 1859   4.109   2.713   0.901  0.1554 -0.1540 -0.0402
  452SOL     OW 1860   1.267   4.049   0.695  0.2267  0.2210  0.4800
  452SOL    HW2 1861   1.215   3.980   0.736 -0.2611  1.0889  1.3293
  452SOL    HW3 1862   1.230   4.058   0.607  1.2052 -1.5716 -0.1376
  452SOL    MW4 1863   1.255   4.041   0.689  0.2915  0.0987  0.5105
  453SOL     OW 1864   3.836   3.609   0.786 -0.1590  0.0723 -0.4449
  453SOL    HW2 1865   3.755   3.568   0.815 -0.3246  0.6734 -0.0412
  453SOL    HW3 1866   3.905   3.564   0.834 -0.5105  1.7670  1.7081
  453SOL    MW4 1867   3.835   3.598   0.796 -0.2272  0.3750 -0.1076
  454SOL     OW 1868   1.677   2.051   0.477  0.2977 -0.1571 -0.2853
  454SOL    HW2 1869   1.642   1.979   0.424 -1.7835  0.6959 -0.1140
  454SOL    HW3 1870   1.628   2.046   0.559  0.4898  1.1512 -0.0935
  454SOL    MW4 1871   1.666   2.041   0.481  0.0484  0.1280 -0.2374
  455SOL     OW 1872   3.855   3.835   0.927  0.5715 -0.0748  0.1178
  455SOL    HW2 1873   3.860   3.746   0.893  1.7845 -0.1880  0.5584
  455SOL    HW3 1874   3.923   3.883   0.879 -0.0268  0.5943 -0.0699
  455SOL    MW4 1875   3.865   3.830   0.916  0.6523 -0.0014  0.1512
  456SOL     OW 1876   1.134   0.251   0.446 -0.1031  0.3491  0.1860
  456SOL    HW2 1877   1.049   0.208   0.456  0.2935 -0.4378  0.2565
  456SOL    HW3 1878   1.116   0.344   0.456 -1.1419  0.2805 -0.9921
  456SOL    MW4 1879   1.121   0.257   0.449 -0.1879  0.2363  0.0399
  457SOL     OW 1880   4.028   4.210   0.865  0.6441 -0.4610  0.2055
  457SOL    HW2 1881   4.038   4.120   0.835  1.8360  0.1103 -1.1907
  457SOL    HW3 1882   4.104   4.256   0.829 -0.5461  1.3506 -0.0779
  457SOL    MW4 1883   4.040   4.204   0.857  0.6447 -0.1469 -0.0161
  458SOL     OW 1884   4.043   0.069   0.791  0.1072 -0.4737 -0.2518
  458SOL    HW2 1885   4.015   0.073   0.699 -0.8915 -1.9532 -0.0320
  458SOL    HW3 1886   3.975   0.017   0.834  0.9629 -0.4194  1.1809
  458SOL    MW4 1887   4.030   0.062   0.784  0.0882 -0.6617 -0.0337
  459SOL     OW 1888   4.289   4.619   0.850 -0.0104 -0.4852  0.0636
  459SOL    HW2 1889   4.285   4.636   0.944  1.1673  0.9790 -0.1187
  459SOL    HW3 1890   4.214   4.666   0.814  0.9210  1.0106  0.0227
  459SOL    MW4 1891   4.279   4.628   0.858  0.2675 -0.0944  0.0342
  460SOL     OW 1892   3.892   0.461   0.798 -0.2189  0.3054 -0.4014
  460SOL    HW2 1893   3.887   0.556   0.787  0.5432  0.2652 -1.0943
  460SOL    HW3 1894   3.968   0.447   0.854  0.7491 -0.0029 -1.7694
  460SOL    MW4 1895   3.901   0.472   0.804  0.0093  0.2594 -0.6733
  461SOL     OW 1896   0.511   1.165   0.379  0.2232 -0.0425 -0.1116
  461SOL    HW2 1897   0.492   1.073   0.397 -1.1768  0.0605 -0.9578
  461SOL    HW3 1898   0.504   1.174   0.284 -1.7975  1.3647  0.1296
  461SOL    MW4 1899   0.507   1.154   0.369 -0.2282  0.1566 -0.1915
  462SOL     OW 1900   3.634   0.365   0.849  0.2141  0.3572 -0.9149
  462SOL    HW2 1901   3.726   0.385   0.829  0.8904 -0.8822  0.9118
  462SOL    HW3 1902   3.627   0.379   0.943 -1.1753 -0.7582 -0.8552
  462SOL    MW4 1903   3.646   0.370   0.859  0.1199  0.0465 -0.6660
  463SOL     OW 1904   0.399   1.186   0.793  0.1872  0.1526  0.5202
  463SOL    HW2 1905   0.346   1.228   0.726  0.3432 -0.6448 -0.1024
  463SOL    HW3 1906   0.490   1.205   0.768  0.2344  0.6323  1.0183
  463SOL    MW4 1907   0.404   1.194   0.781  0.2140  0.1109  0.5038
  464SOL     OW 1908   2.754   0.897   0.737 -0.1851 -0.0399 -0.3028
  464SOL    HW2 1909   2.820   0.847   0.784  0.1072  0.3266 -0.3200
  464SOL    HW3 1910   2.674   0.885   0.788 -0.1652 -0.6998 -0.4271
  464SOL    MW4 1911   2.752   0.889   0.750 -0.1440 -0.0786 -0.3214
  465SOL     OW 1912   2.450   2.887   0.460  0.1492  0.0286  0.4107
  465SOL    HW2 1913   2.500   2.815   0.420  0.1528 -0.0429  0.5465
  465SOL    HW3 1914   2.363   2.880   0.420  0.3277  0.3304 -0.0451
  465SOL    MW4 1915   2.445   2.877   0.449  0.1731  0.0589  0.3685
  466SOL     OW 1916   3.893   0.667   0.474 -0.0783 -0.1399  0.3100
  466SOL    HW2 1917   3.905   0.572   0.470  0.4906 -0.0686  0.4028
  466SOL    HW3 1918   3.979   0.704   0.457 -0.3302  0.3682  0.0979
  466SOL    MW4 1919   3.906   0.659   0.471 -0.0362 -0.0634  0.2942
  467SOL     OW 1920   4.299   1.570   0.868 -0.2876 -0.3872 -0.1837
  467SOL    HW2 1921   4.298   1.576   0.964  1.7110 -1.0481 -0.0978
  467SOL    HW3 1922   4.294   1.476   0.850  1.3917 -0.4019 -0.6595
  467SOL    MW4 1923   4.298   1.558   0.878  0.1974 -0.4764 -0.2351
  468SOL     OW 1924   1.195   1.240   0.537  0.0197  0.8586 -0.1036
  468SOL    HW2 1925   1.200   1.324   0.492 -1.3467  0.2306 -1.4360
  468SOL    HW3 1926   1.273   1.193   0.509  0.5046  1.4464  0.2233
  468SOL    MW4 1927   1.206   1.245   0.528 -0.0967  0.8534 -0.2362
  469SOL     OW 1928   0.636   1.911   0.462  0.7830 -0.0613 -0.1033
  469SOL    HW2 1929   0.555   1.961   0.466  1.0062  0.1739  2.1170
  469SOL    HW3 1930   0.654   1.886   0.553  2.3837 -1.4175 -0.7569
  469SOL    MW4 1931   0.628   1.914   0.475  1.0237 -0.2092  0.1034
  470SOL     OW 1932   3.880   1.266   0.728  0.8786  0.0163  0.1868
  470SOL    HW2 1933   3.847   1.304   0.646  1.4525  1.9106  0.7933
  470SOL    HW3 1934   3.802   1.247   0.779  0.5863  0.8735  0.0721
  470SOL    MW4 1935   3.866   1.269   0.724  0.9155  0.3793  0.2517
  471SOL     OW 1936   0.038   1.679   0.770  0.3574 -0.0340 -0.0967
  471SOL    HW2 1937   0.057   1.668   0.677 -0.0973 -0.2090 -0.1657
  471SOL    HW3 1938  -0.046   1.635   0.784  1.6588 -2.2965  0.9270
  471SOL    MW4 1939   0.030   1.672   0.760  0.4691 -0.3556  0.0293
  472SOL     OW 1940   1.666   3.887   0.822  0.2120 -0.4759  0.3399
  472SOL    HW2 1941   1.752   3.926   0.803  0.7576 -1.0750  1.4824
  472SOL    HW3 1942   1.653   3.904   0.916 -0.8188 -0.5948  0.2233
  472SOL    MW4 1943   1.676   3.895   0.832  0.1481 -0.5703  0.4753
  473SOL     OW 1944   3.863   2.844   0.805 -0.4144 -0.1829 -0.0165
  473SOL    HW2 1945   3.949   2.816   0.837 -0.8630 -0.8447  0.6365
  473SOL    HW3 1946   3.850   2.930   0.844  0.3200  0.2889 -0.8081
  473SOL    MW4 1947   3.873   2.851   0.814 -0.3765 -0.2081 -0.0347
  474SOL     OW 1948   3.545   1.754   0.468 -0.3325  0.1968  0.1166
  474SOL    HW2 1949   3.488   1.830   0.479  0.1659  0.5112  0.5176
  474SOL    HW3 1950   3.485   1.681   0.452 -0.9199  0.3134  1.7042
  474SOL    MW4 1951   3.530   1.754   0.467 -0.3443  0.2537  0.3789
  475SOL     OW 1952   4.025   3.218   0.780 -0.5682  0.3405  0.5024
  475SOL    HW2 1953   4.107   3.172   0.797 -0.3276  0.0957 -1.2763
  475SOL    HW3 1954   4.038   3.305   0.819 -0.1719 -0.3098  1.8543
  475SOL    MW4 1955   4.037   3.224   0.788 -0.4840  0.2224  0.4461
  476SOL     OW 1956   4.046   3.468   0.889 -0.3882  0.1946  0.0235
  476SOL    HW2 1957   4.058   3.470   0.984  0.9071 -0.0776 -0.1265
  476SOL    HW3 1958   4.134   3.480   0.854 -0.7991 -0.1962 -1.1476
  476SOL    MW4 1959   4.059   3.470   0.897 -0.2708  0.1070 -0.1508
  477SOL     OW 1960   0.232   4.374   0.710  0.0612  0.2791  0.2818
  477SOL    HW2 1961   0.302   4.318   0.744  1.2100  0.2175 -2.1296
  477SOL    HW3 1962   0.152   4.330   0.739  0.9693 -1.5265  0.1405
  477SOL    MW4 1963   0.231   4.361   0.719  0.3326  0.0324 -0.0550
  478SOL     OW 1964   4.292   3.538   0.760  0.0500  0.6567  0.3863
  478SOL    HW2 1965   4.264   3.532   0.668 -0.9720 -0.0870  0.7345
  478SOL    HW3 1966   4.277   3.630   0.783  0.7468  0.9548 -0.3245
  478SOL    MW4 1967   4.286   3.549   0.751  0.0072  0.5977  0.3385
  479SOL     OW 1968   4.490   0.860   0.648  0.2760  0.1870 -0.2719
  479SOL    HW2 1969   4.563   0.831   0.702  0.0871  1.8023  0.8820
  479SOL    HW3 1970   4.516   0.946   0.616 -0.1841 -0.1803 -1.6636
  479SOL    MW4 1971   4.503   0.867   0.651  0.1903  0.3517 -0.3033
  480SOL     OW 1972   4.009   3.956   0.733  0.4190 -0.1786 -0.6679
  480SOL    HW2 1973   3.993   3.936   0.641  2.6558 -0.6016 -0.9837
  480SOL    HW3 1974   4.087   3.905   0.756  0.1458  0.2600  1.3439
  480SOL    MW4 1975   4.017   3.947   0.724  0.6785 -0.1767 -0.4442
  481SOL     OW 1976   4.248   4.338   0.784 -0.0133  0.0614  0.1387
  481SOL    HW2 1977   4.251   4.424   0.826 -0.4089  0.7893 -1.3117
  481SOL    HW3 1978   4.339   4.307   0.788  0.3071  0.9491 -0.1555
  481SOL    MW4 1979   4.261   4.345   0.790 -0.0238  0.2747 -0.0916
  482SOL     OW 1980   0.997   3.751   0.292 -0.0429  0.3354 -0.2281
  482SOL    HW2 1981   1.091   3.751   0.312  0.2494  1.4871 -1.5532
  482SOL    HW3 1982   0.992   3.731   0.199 -1.0784  0.9761 -0.3120
  482SOL    MW4 1983   1.009   3.748   0.283 -0.1409  0.5720 -0.4140
  483SOL     OW 1984   0.191   4.641   1.120 -0.0778  0.4421 -0.1277
  483SOL    HW2 1985   0.278   4.680   1.133 -0.2505  0.4872  0.8812
  483SOL    HW3 1986   0.178   4.644   1.025  0.7666  0.9940 -0.2317
  483SOL    MW4 1987   0.201   4.647   1.109  0.0108  0.5202 -0.0082
  484SOL     OW 1988   4.450   0.118   1.231  0.5368 -0.2258  0.1781
  484SOL    HW2 1989   4.385   0.058   1.195  1.3985 -1.4715  0.6880
  484SOL    HW3 1990   4.533   0.090   1.193  0.8523  1.0837 -0.1335
  484SOL    MW4 1991   4.452   0.106   1.221  0.6924 -0.2174  0.2043
  485SOL     OW 1992   4.444   0.403   1.183 -0.1959  0.5084  0.0562
  485SOL    HW2 1993   4.360   0.441   1.207 -0.8436 -0.1873 -1.0421
  485SOL    HW3 1994   4.437   0.311   1.210  0.3497  0.5346  0.2921
  485SOL    MW4 1995   4.432   0.396   1.190 -0.2089  0.4201 -0.0576
  486SOL     OW 1996   0.219   0.491   1.226  0.1902  0.4738 -0.3972
  486SOL    HW2 1997   0.218   0.587   1.219 -0.0873  0.4668 -0.4582
  486SOL    HW3 1998   0.129   0.465   1.210  0.4859  0.1185 -1.5659
  486SOL    MW4 1999   0.207   0.501   1.223  0.1926  0.4260 -0.5596
  487SOL     OW 2000   0.200   0.762   1.129  0.3554  0.2807  0.3211
  487SOL    HW2 2001   0.284   0.808   1.139  0.3331  0.2250  0.7954
  487SOL    HW3 2002   0.134   0.828   1.153  0.2460  0.4034 -0.3040
  487SOL    MW4 2003   0.203   0.777   1.134  0.3380  0.2896  0.3011
  488SOL     OW 2004   4.489   0.920   1.223  0.0599 -0.2352  0.1476
  488SOL    HW2 2005   4.477   0.920   1.318 -0.6119 -1.3799  0.0704
  488SOL    HW3 2006   4.415   0.870   1.189  0.1828  0.3386 -1.0032
  488SOL    MW4 2007   4.478   0.914   1.231 -0.0125 -0.3105 -0.0145
  489SOL     OW 2008   0.017   1.173   1.092 -0.0339  0.0853 -0.6736
  489SOL    HW2 2009  -0.056   1.231   1.117  1.2329  1.3642  0.1608
  489SOL    HW3 2010  -0.007   1.088   1.128 -1.2732  0.4139 -0.6779
  489SOL    MW4 2011   0.004   1.170   1.100 -0.0303  0.2973 -0.5639
  490SOL     OW 2012   0.224   1.264   1.241 -0.1729  0.2280  0.0612
  490SOL    HW2 2013   0.281   1.210   1.186 -0.6070 -0.4955  0.3172
  490SOL    HW3 2014   0.137   1.252   1.203 -0.5026 -0.4114  1.0226
  490SOL    MW4 2015   0.220   1.255   1.229 -0.2737  0.0482  0.2218
  491SOL     OW 2016   0.240   1.517   1.130 -0.2595 -0.2992 -0.4104
  491SOL    HW2 2017   0.248   1.429   1.168 -0.3407 -0.1823 -0.1206
  491SOL    HW3 2018   0.220   1.501   1.038  0.6405 -0.5819 -0.5566
  491SOL    MW4 2019   0.238   1.503   1.123 -0.1515 -0.3210 -0.3914
  492SOL     OW 2020   0.013   1.657   1.249 -0.2763 -0.2276 -0.4492
  492SOL    HW2 2021   0.024   1.745   1.214 -1.9044  0.2679  0.2661
  492SOL    HW3 2022   0.083   1.606   1.208  0.1296  1.1930 -1.5427
  492SOL    MW4 2023   0.024   1.662   1.239 -0.4376  0.0252 -0.4989
  493SOL     OW 2024   0.014   1.909   1.141  0.0246 -0.5307 -0.4423
  493SOL    HW2 2025  -0.076   1.941   1.154  0.8441  1.5350  0.2434
  493SOL    HW3 2026   0.030   1.922   1.048 -0.1087 -0.1382 -0.4131
  493SOL    MW4 2027   0.004   1.915   1.131  0.1151 -0.2062 -0.3480
  494SOL     OW 2028   0.224   2.071   1.220 -0.2734 -0.0093  0.1474
  494SOL    HW2 2029   0.219   2.160   1.184  0.2062 -0.1841 -0.3629
  494SOL    HW3 2030   0.149   2.026   1.181  0.9308 -0.5426 -1.6380
  494SOL    MW4 2031   0.213   2.076   1.210 -0.0512 -0.1028 -0.1556
  495SOL     OW 2032   0.236   2.328   1.109  0.0061 -0.0065 -0.4907
  495SOL    HW2 2033   0.324   2.359   1.130  0.4568 -1.4594 -0.1685
  495SOL    HW3 2034   0.178   2.386   1.159  0.9108 -0.7801  1.5108
  495SOL    MW4 2035   0.240   2.340   1.119  0.1849 -0.3004 -0.1841
  496SOL     OW 2036   0.028   2.458   1.249  0.2288  0.0562 -0.2016
  496SOL    HW2 2037   0.022   2.458   1.345  0.7336 -0.0853 -0.1687
  496SOL    HW3 2038  -0.040   2.396   1.221 -0.3951  0.6239  0.0281
  496SOL    MW4 2039   0.018   2.450   1.258  0.2130  0.1123 -0.1671
  497SOL     OW 2040   0.029   2.705   1.106  0.5112  0.2538  0.5331
  497SOL    HW2 2041  -0.027   2.767   1.153 -0.4613  0.2584 -0.6073
  497SOL    HW3 2042   0.023   2.624   1.157 -0.6456  0.2218  0.3804
  497SOL    MW4 2043   0.020   2.702   1.119  0.2302  0.2501  0.3625
  498SOL     OW 2044   0.214   2.856   1.268 -0.1440  0.3313 -0.1729
  498SOL    HW2 2045   0.232   2.854   1.362  0.2820 -0.1977 -0.2625
  498SOL    HW3 2046   0.150   2.785   1.255  0.2219  0.0315 -0.3637
  498SOL    MW4 2047   0.208   2.846   1.279 -0.0395  0.2220 -0.2099
  499SOL     OW 2048   0.260   3.119   1.158 -0.1675  0.0936  0.2637
  499SOL    HW2 2049   0.342   3.146   1.200 -0.5105  0.5595  0.6325
  499SOL    HW3 2050   0.245   3.030   1.191 -0.2676  0.3379  0.8870
  499SOL    MW4 2051   0.269   3.111   1.168 -0.2259  0.1872  0.3946
  500SOL     OW 2052   0.041   3.266   1.236  0.3057  0.1622  0.1602
  500SOL    HW2 2053  -0.020   3.197   1.209  0.5916  0.0547 -0.2131
  500SOL    HW3 2054   0.125   3.238   1.202  0.3738  0.8297 -0.2275
  500SOL    MW4 2055   0.044   3.253   1.228  0.3523  0.2358  0.0597
  501SOL     OW 2056   0.033   3.499   1.093  0.7446 -0.3219  0.4764
  501SOL    HW2 2057   0.027   3.411   1.130 -0.0981 -0.3889  0.1978
  501SOL    HW3 2058   0.061   3.485   1.002  1.6540 -0.2300  0.7350
  501SOL    MW4 2059   0.036   3.485   1.086  0.7529 -0.3185  0.4739
  502SOL     OW 2060   0.236   3.618   1.259  0.0427  0.0853  0.1040
  502SOL    HW2 2061   0.231   3.586   1.349  1.1641 -0.2992  0.0362
  502SOL    HW3 2062   0.168   3.570   1.212 -0.7270  0.4838  0.8032
  502SOL    MW4 2063   0.226   3.607   1.265  0.0891  0.0870  0.1873
  503SOL     OW 2064   0.260   3.871   1.157 -0.0372  0.5329  0.0073
  503SOL    HW2 2065   0.175   3.896   1.192 -0.4069  0.9338 -1.1660
  503SOL    HW3 2066   0.281   3.789   1.202 -0.3381  1.2193  1.4135
  503SOL    MW4 2067   0.252   3.863   1.168 -0.1256  0.6762  0.0381
  504SOL     OW 2068   0.001   3.948   1.220  0.1910 -0.7269 -0.2582
  504SOL    HW2 2069   0.003   3.937   1.315 -0.2601  0.3399 -0.1216
  504SOL    HW3 2070  -0.055   3.878   1.189  0.0180 -0.8367  0.2971
  504SOL    MW4 2071  -0.006   3.937   1.229  0.1087 -0.6003 -0.1670
  505SOL     OW 2072   0.006   4.220   1.104  0.0448 -0.3300 -0.1672
  505SOL    HW2 2073   0.055   4.278   1.162  0.5734  0.3330 -1.2662
  505SOL    HW3 2074   0.009   4.135   1.147  0.6190  0.1095  0.6688
  505SOL    MW4 2075   0.013   4.216   1.117  0.1907 -0.1850 -0.2019
  506SOL     OW 2076   0.185   4.390   1.223  0.0745  0.5515 -0.0020
  506SOL    HW2 2077   0.221   4.388   1.312 -0.2153  2.9183  0.2036
  506SOL    HW3 2078   0.195   4.481   1.195  1.9013 -0.5470 -3.1520
  506SOL    MW4 2079   0.191   4.402   1.231  0.2773  0.7191 -0.3904
  507SOL     OW 2080   0.672   4.630   1.122 -0.3446 -0.1913 -0.0086
  507SOL    HW2 2081   0.736   4.688   1.164 -1.3905 -0.2967  1.7859
  507SOL    HW3 2082   0.682   4.546   1.167 -0.6264 -0.6738 -0.8328
  507SOL    MW4 2083   0.682   4.627   1.134 -0.5198 -0.2689  0.1194
  508SOL     OW 2084   0.421   0.102   1.176 -0.4780 -0.0427 -0.2195
  508SOL    HW2 2085   0.424   0.189   1.136  0.5773 -0.1946 -0.4854
  508SOL    HW3 2086   0.504   0.062   1.151 -1.6660 -1.7510 -1.5101
  508SOL    MW4 2087   0.432   0.108   1.167 -0.4955 -0.2881 -0.4247
  509SOL     OW 2088   0.460   0.368   1.148 -0.0135 -0.1845  0.4696
  509SOL    HW2 2089   0.385   0.428   1.158 -0.6499 -0.7643 -0.6960
  509SOL    HW3 2090   0.500   0.394   1.065  0.8489 -0.1468  0.8904
  509SOL    MW4 2091   0.455   0.379   1.138  0.0163 -0.2560  0.3713
  510SOL     OW 2092   0.673   0.500   1.248  0.2593  0.4624 -0.0775
  510SOL    HW2 2093   0.676   0.579   1.196  0.1923 -0.8465 -2.1134
  510SOL    HW3 2094   0.591   0.458   1.223 -0.8278  0.8288  2.6435
  510SOL    MW4 2095   0.662   0.505   1.238  0.1070  0.3380  0.0128
  511SOL     OW 2096   0.715   0.749   1.119 -0.0090 -0.1805  0.8042
  511SOL    HW2 2097   0.634   0.789   1.150 -0.2245  0.7628 -0.9421
  511SOL    HW3 2098   0.705   0.742   1.024  1.3482 -1.4354  0.7264
  511SOL    MW4 2099   0.703   0.753   1.111  0.1416 -0.2216  0.5635
  512SOL     OW 2100   0.462   0.880   1.175 -0.5469  0.2924 -0.3980
  512SOL    HW2 2101   0.451   0.887   1.270  0.0729 -0.1072 -0.2883
  512SOL    HW3 2102   0.458   0.970   1.143  1.5968  0.6823  0.2874
  512SOL    MW4 2103   0.460   0.893   1.183 -0.1823  0.2912 -0.2933
  513SOL     OW 2104   0.426   1.156   1.093 -0.2117  0.4694 -0.6268
  513SOL    HW2 2105   0.487   1.213   1.140 -0.0985  0.2379 -0.4932
  513SOL    HW3 2106   0.439   1.178   1.001  1.6651 -1.1198 -0.7854
  513SOL    MW4 2107   0.436   1.166   1.087  0.0508  0.2292 -0.6301
  514SOL     OW 2108   0.649   1.295   1.193 -0.1278  0.1288  0.0661
  514SOL    HW2 2109   0.729   1.251   1.165 -0.3988 -1.1669  1.2588
  514SOL    HW3 2110   0.670   1.388   1.192  1.8567 -0.2865  1.8277
  514SOL    MW4 2111   0.662   1.301   1.189  0.0983 -0.0969  0.4560
  515SOL     OW 2112   0.710   1.572   1.145 -0.3037  0.8041 -0.4065
  515SOL    HW2 2113   0.773   1.626   1.194 -0.6050 -0.3309  1.2640
  515SOL    HW3 2114   0.625   1.610   1.166 -0.3376  1.1075 -1.0874
  515SOL    MW4 2115   0.707   1.585   1.155 -0.3480  0.6944 -0.2759
  516SOL     OW 2116   0.444   1.673   1.206  0.3404 -0.0713 -0.0486
  516SOL    HW2 2117   0.436   1.668   1.301 -1.9546  0.8576 -0.1694
  516SOL    HW3 2118   0.377   1.614   1.172 -0.6987  1.6398 -1.0839
  516SOL    MW4 2119   0.434   1.665   1.214 -0.0995  0.2769 -0.2011
  517SOL     OW 2120   0.455   1.937   1.166  0.1087  0.3944 -0.4056
  517SOL    HW2 2121   0.437   1.845   1.187  1.2550  0.0618 -0.8535
  517SOL    HW3 2122   0.369   1.979   1.166 -0.4682 -0.7761 -0.6326
  517SOL    MW4 2123   0.441   1.930   1.169  0.1838  0.1962 -0.4946
  518SOL     OW 2124   0.693   2.010   1.283  0.2707  0.1065  0.0475
  518SOL    HW2 2125   0.683   2.018   1.378  0.8277  0.2319  0.0977
  518SOL    HW3 2126   0.607   1.980   1.252 -0.0814  0.6274  0.5237
  518SOL    MW4 2127   0.680   2.007   1.291  0.2978  0.1917  0.1169
  519SOL     OW 2128   0.710   2.270   1.182  0.0425 -0.0224 -0.2581
  519SOL    HW2 2129   0.628   2.318   1.195 -0.2227 -0.0229 -1.8126
  519SOL    HW3 2130   0.700   2.190   1.233 -0.1207  0.8759  1.1495
  519SOL    MW4 2131   0.698   2.266   1.190 -0.0141  0.0958 -0.2775
  520SOL     OW 2132   0.479   2.440   1.213 -0.1395  0.1210 -0.4496
  520SOL    HW2 2133   0.495   2.398   1.298  0.9627  0.0759 -0.6702
  520SOL    HW3 2134   0.477   2.534   1.234  0.8667  0.1580 -0.4689
  520SOL    MW4 2135   0.481   2.447   1.227  0.1386  0.1202 -0.4812
  521SOL     OW 2136   0.459   2.713   1.228  0.0628  0.1746 -0.1024
  521SOL    HW2 2137   0.371   2.748   1.244 -0.7664 -1.3916 -1.0602
  521SOL    HW3 2138   0.469   2.718   1.133  0.5731 -0.6492 -0.0904
  521SOL    MW4 2139   0.448   2.718   1.218  0.0208 -0.1409 -0.2272
  522SOL     OW 2140   0.697   2.859   1.241  0.8551  0.2899 -0.1614
  522SOL    HW2 2141   0.694   2.946   1.201  0.6967  0.6284  0.5816
  522SOL    HW3 2142   0.608   2.825   1.232  0.3702  1.0648  1.4194
  522SOL    MW4 2143   0.685   2.866   1.234  0.7703  0.4368  0.1453
  523SOL     OW 2144   0.715   3.097   1.094  0.0723 -0.3694 -0.5180
  523SOL    HW2 2145   0.784   3.143   1.143  0.1565 -0.1144 -0.8710
  523SOL    HW3 2146   0.736   3.114   1.002  0.2820 -1.3786 -0.6603
  523SOL    MW4 2147   0.727   3.106   1.088  0.1111 -0.4687 -0.5834
  524SOL     OW 2148   0.509   3.216   1.252  0.3221 -0.2789  0.2397
  524SOL    HW2 2149   0.502   3.302   1.212 -0.0833  0.0378  0.9690
  524SOL    HW3 2150   0.582   3.174   1.207 -0.0386  0.1119 -0.7244
  524SOL    MW4 2151   0.517   3.222   1.241  0.2210 -0.1855  0.2087
  525SOL     OW 2152   0.473   3.486   1.127 -0.5183  0.0503  0.3964
  525SOL    HW2 2153   0.557   3.528   1.148  0.0863 -1.4641  1.0682
  525SOL    HW3 2154   0.408   3.537   1.176  0.1138  0.6360  0.6368
  525SOL    MW4 2155   0.476   3.498   1.136 -0.3551 -0.0722  0.5168
  526SOL     OW 2156   0.683   3.636   1.197  0.2083 -0.2881 -0.4946
  526SOL    HW2 2157   0.673   3.629   1.292  1.1393 -0.5588 -0.4187
  526SOL    HW3 2158   0.698   3.730   1.181 -1.3719 -0.0242 -0.5140
  526SOL    MW4 2159   0.683   3.648   1.207  0.1226 -0.2890 -0.4870
  527SOL     OW 2160   0.704   3.912   1.163  0.1262 -0.1411  0.3581
  527SOL    HW2 2161   0.624   3.954   1.195 -0.8288 -1.6198 -0.0407
  527SOL    HW3 2162   0.686   3.892   1.071  1.4188  0.6156 -0.0755
  527SOL    MW4 2163   0.691   3.915   1.155  0.1708 -0.2363  0.2482
  528SOL     OW 2164   0.470   4.006   1.254  0.0954  0.3389 -0.1651
  528SOL    HW2 2165   0.465   4.092   1.214  1.1530  0.6613  0.3716
  528SOL    HW3 2166   0.393   3.959   1.222  0.1302  1.0989 -1.3615
  528SOL    MW4 2167   0.459   4.011   1.244  0.2396  0.4816 -0.2521
  529SOL     OW 2168   0.423   4.241   1.124  0.3128 -0.0162 -0.1684
  529SOL    HW2 2169   0.490   4.305   1.146 -0.5986  1.3337 -1.2127
  529SOL    HW3 2170   0.341   4.283   1.151 -0.3756 -0.3520 -1.7008
  529SOL    MW4 2171   0.421   4.255   1.131  0.1017  0.1173 -0.5083
  530SOL     OW 2172   0.652   4.357   1.230 -0.4148  0.1879 -0.2735
  530SOL    HW2 2173   0.659   4.351   1.325 -0.5002 -0.0421 -0.2808
  530SOL    HW3 2174   0.742   4.348   1.199 -0.4652 -0.4600 -0.2488
  530SOL    MW4 2175   0.665   4.355   1.238 -0.4326  0.0725 -0.2712
  531SOL     OW 2176   1.115   0.038   1.131  0.6379  0.0859 -0.0993
  531SOL    HW2 2177   1.111  -0.043   1.181  0.1323  0.4681  0.4903
  531SOL    HW3 2178   1.099   0.012   1.041  0.1701 -0.4256  0.1290
  531SOL    MW4 2179   1.113   0.024   1.126  0.5095  0.0688  0.0086
  532SOL     OW 2180   0.861   0.126   1.231  0.2628  0.1914 -0.0459
  532SOL    HW2 2181   0.849   0.126   1.326  1.0117 -2.3804  0.0772
  532SOL    HW3 2182   0.950   0.095   1.218  0.0787  0.2805 -1.5977
  532SOL    MW4 2183   0.871   0.122   1.242  0.3373 -0.1361 -0.2345
  533SOL     OW 2184   0.882   0.388   1.137  0.3714  0.2215  0.3312
  533SOL    HW2 2185   0.873   0.294   1.151 -1.1148  0.3423  0.3302
  533SOL    HW3 2186   0.816   0.427   1.196  1.8228  1.3218  1.2566
  533SOL    MW4 2187   0.872   0.381   1.147  0.3668  0.3826  0.4531
  534SOL     OW 2188   1.124   0.496   1.204  0.1602 -0.1023  0.2275
  534SOL    HW2 2189   1.111   0.508   1.298 -1.6557  1.8461 -0.2301
  534SOL    HW3 2190   1.044   0.452   1.174 -0.9479  2.5731 -0.9438
  534SOL    MW4 2191   1.112   0.492   1.212 -0.2254  0.5077  0.0124
  535SOL     OW 2192   1.137   0.743   1.093 -0.4721 -0.6088 -0.2594
  535SOL    HW2 2193   1.077   0.796   1.144 -1.8882 -1.1450 -1.3326
  535SOL    HW3 2194   1.129   0.655   1.131 -0.0331 -0.5881 -0.1174
  535SOL    MW4 2195   1.128   0.738   1.104 -0.6011 -0.6768 -0.3822
  536SOL     OW 2196   0.951   0.887   1.228  0.4089  0.0968 -0.3030
  536SOL    HW2 2197   0.933   0.971   1.187 -0.7151 -0.4887 -1.0326
  536SOL    HW3 2198   0.882   0.829   1.195  1.6208 -1.3016 -0.4156
  536SOL    MW4 2199   0.940   0.890   1.218  0.4205 -0.1650 -0.4141
  537SOL     OW 2200   0.881   1.128   1.119 -0.0013  0.3127 -0.1484
  537SOL    HW2 2201   0.955   1.187   1.133 -0.1077  0.6165 -0.8254
  537SOL    HW3 2202   0.882   1.111   1.025  0.0923 -0.8479  0.0551
  537SOL    MW4 2203   0.891   1.133   1.108 -0.0030  0.1996 -0.2110
  538SOL     OW 2204   1.101   1.275   1.192  0.0070  0.5146  0.3828
  538SOL    HW2 2205   1.098   1.275   1.288 -0.3451  0.7133  0.3698
  538SOL    HW3 2206   1.183   1.229   1.171 -1.7201 -2.8559  0.7118
  538SOL    MW4 2207   1.111   1.269   1.202 -0.2674  0.0962  0.4245
  539SOL     OW 2208   1.101   1.547   1.124  0.4550  0.0872 -0.6554
  539SOL    HW2 2209   1.109   1.455   1.150  0.1702 -0.0530 -1.0621
  539SOL    HW3 2210   1.105   1.546   1.029  0.3987  0.4940 -0.6642
  539SOL    MW4 2211   1.103   1.535   1.115  0.4098  0.1223 -0.7102
  540SOL     OW 2212   0.917   1.717   1.270  0.0286  0.3780  0.6270
  540SOL    HW2 2213   0.889   1.787   1.211 -1.4722 -1.3513 -0.7839
  540SOL    HW3 2214   0.979   1.666   1.220  0.3039  0.0700  1.2717
  540SOL    MW4 2215   0.921   1.720   1.256 -0.1331  0.1092  0.5258
  541SOL     OW 2216   0.872   1.929   1.115  0.2568 -0.0478  0.0954
  541SOL    HW2 2217   0.952   1.951   1.162 -0.3774 -0.4304  1.3886
  541SOL    HW3 2218   0.802   1.968   1.167 -0.3008  1.6831 -1.8915
  541SOL    MW4 2219   0.873   1.937   1.128  0.0995  0.1301  0.0038
  542SOL     OW 2220   1.096   2.010   1.257 -0.3888 -0.4913  0.1047
  542SOL    HW2 2221   1.097   2.009   1.353 -0.6235 -0.7131  0.1045
  542SOL    HW3 2222   1.106   2.102   1.234 -1.0019 -0.3661  0.3489
  542SOL    MW4 2223   1.098   2.022   1.267 -0.5006 -0.5043  0.1370
  543SOL     OW 2224   1.115   2.277   1.160  0.3242  0.0845  0.0056
  543SOL    HW2 2225   1.191   2.335   1.163 -0.2402  0.8528 -0.4805
  543SOL    HW3 2226   1.041   2.333   1.182  0.1127 -1.0571  2.4152
  543SOL    MW4 2227   1.115   2.292   1.164  0.2220  0.0355  0.2594
  544SOL     OW 2228   0.927   2.460   1.242 -0.6052 -0.0242  0.4242
  544SOL    HW2 2229   0.946   2.452   1.335  2.6473  1.0024 -0.1146
  544SOL    HW3 2230   0.843   2.414   1.231 -1.3569  0.3781  3.9173
  544SOL    MW4 2231   0.918   2.453   1.253 -0.2753  0.1645  0.8141
  545SOL     OW 2232   0.918   2.723   1.124 -0.0879  0.0240 -0.5936
  545SOL    HW2 2233   0.902   2.639   1.168 -0.0700 -0.1327 -0.8816
  545SOL    HW3 2234   0.838   2.773   1.138 -0.5870 -0.5068 -1.4576
  545SOL    MW4 2235   0.905   2.718   1.131 -0.1515 -0.0668 -0.7457
  546SOL     OW 2236   1.148   2.841   1.241 -0.0261  0.2026 -0.1160
  546SOL    HW2 2237   1.149   2.832   1.336 -1.5077  1.9478  0.0963
  546SOL    HW3 2238   1.063   2.805   1.214 -0.6839  1.9490 -0.4865
  546SOL    MW4 2239   1.137   2.835   1.250 -0.3084  0.6635 -0.1370
  547SOL     OW 2240   1.152   3.105   1.150  0.4166  0.1816 -0.5684
  547SOL    HW2 2241   1.149   3.018   1.189  2.0910  0.8859  1.2043
  547SOL    HW3 2242   1.142   3.089   1.056 -2.1443 -1.6592 -0.0437
  547SOL    MW4 2243   1.150   3.091   1.143  0.2998  0.0315 -0.2652
  548SOL     OW 2244   0.926   3.237   1.234  0.1865  0.0337 -0.1091
  548SOL    HW2 2245   0.943   3.323   1.196  0.3713  0.0040 -0.0923
  548SOL    HW3 2246   1.007   3.188   1.221  0.6608  0.3989  1.3613
  548SOL    MW4 2247   0.939   3.242   1.228  0.2735  0.0775  0.0871
  549SOL     OW 2248   0.935   3.507   1.155 -0.0129  0.3383 -0.6896
  549SOL    HW2 2249   0.848   3.545   1.165 -0.5785 -1.1461  0.2392
  549SOL    HW3 2250   0.952   3.508   1.061 -1.0294  0.6573 -0.8693
  549SOL    MW4 2251   0.926   3.512   1.144 -0.2216  0.1843 -0.5907
  550SOL     OW 2252   1.143   3.650   1.273 -0.0645 -0.5251  0.0933
  550SOL    HW2 2253   1.223   3.604   1.248 -0.8469 -0.4516 -2.6513
  550SOL    HW3 2254   1.072   3.596   1.239 -1.0838  1.0732 -0.3846
  550SOL    MW4 2255   1.144   3.637   1.265 -0.3023 -0.3042 -0.3320
  551SOL     OW 2256   1.158   3.898   1.115  0.2206  0.3796  0.3194
  551SOL    HW2 2257   1.082   3.947   1.147  0.5696  0.3231  1.2498
  551SOL    HW3 2258   1.145   3.809   1.147  0.2339  0.1536 -0.2849
  551SOL    MW4 2259   1.146   3.893   1.123  0.2686  0.3424  0.3624
  552SOL     OW 2260   0.941   4.071   1.213 -0.1330 -0.3667 -0.2701
  552SOL    HW2 2261   0.970   4.055   1.303  0.8911 -0.4631 -0.6090
  552SOL    HW3 2262   0.864   4.015   1.202 -0.2945 -0.3157  0.5634
  552SOL    MW4 2263   0.935   4.061   1.223 -0.0192 -0.3724 -0.2049
  553SOL     OW 2264   0.910   4.326   1.121 -0.3881  0.4443 -0.5957
  553SOL    HW2 2265   0.910   4.236   1.154 -0.7014  0.7060  0.1172
  553SOL    HW3 2266   0.908   4.316   1.026  1.4463 -0.3187 -0.5844
  553SOL    MW4 2267   0.910   4.313   1.113 -0.1874  0.3781 -0.5001
  554SOL     OW 2268   1.129   4.442   1.239 -0.2529 -0.3431  0.6742
  554SOL    HW2 2269   1.130   4.414   1.330  0.2307  1.0946  1.1085
  554SOL    HW3 2270   1.051   4.400   1.202  0.3929 -2.1827  1.3351
  554SOL    MW4 2271   1.119   4.432   1.246 -0.1038 -0.3963  0.8187
  555SOL     OW 2272   1.585   4.661   1.138 -0.0312 -0.2406  0.1418
  555SOL    HW2 2273   1.665   4.683   1.185 -1.0755  1.1286  1.3433
  555SOL    HW3 2274   1.577   4.566   1.146  0.6807 -0.2024  1.3075
  555SOL    MW4 2275   1.594   4.652   1.145 -0.0750 -0.0548  0.4542
  556SOL     OW 2276   1.362   0.110   1.272  0.0818  0.5094 -0.1483
  556SOL    HW2 2277   1.433   0.057   1.235  1.1164  2.1125 -0.4782
  556SOL    HW3 2278   1.287   0.090   1.216  0.3636 -0.8413 -0.0788
  556SOL    MW4 2279   1.362   0.100   1.260  0.2555  0.5427 -0.1826
  557SOL     OW 2280   1.371   0.373   1.185  0.0191  0.1588 -0.6518
  557SOL    HW2 2281   1.370   0.280   1.208  1.1876 -0.1138 -1.6255
  557SOL    HW3 2282   1.281   0.402   1.199  0.0346 -0.6871  1.3539
  557SOL    MW4 2283   1.359   0.364   1.190  0.1754  0.0112 -0.5156
  558SOL     OW 2284   1.632   0.513   1.234  0.1474 -0.1424  0.3420
  558SOL    HW2 2285   1.599   0.598   1.207  0.5681 -0.5053 -1.3582
  558SOL    HW3 2286   1.555   0.458   1.242 -0.0084  0.0596  0.2261
  558SOL    MW4 2287   1.618   0.517   1.232  0.1823 -0.1636  0.1025
  559SOL     OW 2288   1.586   0.771   1.154 -0.3744  0.3234  0.1553
  559SOL    HW2 2289   1.672   0.806   1.176 -0.4345  0.1366  0.6934
  559SOL    HW3 2290   1.590   0.756   1.059  0.2658  0.1085  0.2109
  559SOL    MW4 2291   1.598   0.773   1.144 -0.2980  0.2704  0.2335
  560SOL     OW 2292   1.353   0.844   1.259  0.3339  0.0457 -0.5235
  560SOL    HW2 2293   1.436   0.821   1.218  1.2692  1.8010  0.3679
  560SOL    HW3 2294   1.288   0.795   1.208  1.8379 -0.9381 -1.5574
  560SOL    MW4 2295   1.355   0.834   1.247  0.6558  0.1475 -0.5422
  561SOL     OW 2296   1.319   1.089   1.150  0.5588 -0.1904  0.3068
  561SOL    HW2 2297   1.338   1.001   1.181 -0.4189  0.0233  1.5346
  561SOL    HW3 2298   1.315   1.080   1.054  2.2904 -1.0998  0.3116
  561SOL    MW4 2299   1.321   1.076   1.141  0.6582 -0.2820  0.4693
  562SOL     OW 2300   1.555   1.248   1.189  0.3230 -0.0652 -0.3696
  562SOL    HW2 2301   1.632   1.196   1.165  0.0061 -0.5967 -0.2506
  562SOL    HW3 2302   1.481   1.188   1.177 -0.0279  0.3022 -0.0561
  562SOL    MW4 2303   1.555   1.233   1.185  0.2348 -0.0869 -0.3126
  563SOL     OW 2304   1.533   1.515   1.113 -0.2258 -0.0909  0.4366
  563SOL    HW2 2305   1.614   1.552   1.146 -0.9189 -0.2620  2.4184
  563SOL    HW3 2306   1.532   1.425   1.146 -0.8572 -0.3313 -0.2143
  563SOL    MW4 2307   1.543   1.508   1.122 -0.4007 -0.1452  0.6123
  564SOL     OW 2308   1.326   1.650   1.241 -0.0383 -0.2035 -0.0012
  564SOL    HW2 2309   1.395   1.600   1.196 -0.5136 -0.3077 -0.6203
  564SOL    HW3 2310   1.245   1.616   1.205 -0.4291 -0.3702  1.0424
  564SOL    MW4 2311   1.325   1.639   1.230 -0.1527 -0.2391  0.0547
  565SOL     OW 2312   1.333   1.914   1.149 -0.3385  0.1302 -0.1282
  565SOL    HW2 2313   1.257   1.964   1.179  0.8185  1.7434  0.2042
  565SOL    HW3 2314   1.314   1.824   1.173 -1.9973  0.5574  0.2377
  565SOL    MW4 2315   1.320   1.909   1.156 -0.4046  0.3995 -0.0360
  566SOL     OW 2316   1.591   2.049   1.183 -0.2246  0.4395 -0.4753
  566SOL    HW2 2317   1.571   2.138   1.155 -0.3837  0.4576 -0.3084
  566SOL    HW3 2318   1.509   2.001   1.169 -0.7508  0.7823  1.3327
  566SOL    MW4 2319   1.577   2.054   1.177 -0.3151  0.4871 -0.2148
  567SOL     OW 2320   1.556   2.300   1.096  0.4282  0.0931  0.5443
  567SOL    HW2 2321   1.476   2.342   1.129 -0.2564 -0.4834 -0.3417
  567SOL    HW3 2322   1.560   2.328   1.004  1.0376 -0.1874  0.4882
  567SOL    MW4 2323   1.546   2.310   1.088  0.4183 -0.0200  0.4200
  568SOL     OW 2324   1.347   2.431   1.180 -0.7532 -0.0836 -0.3617
  568SOL    HW2 2325   1.375   2.427   1.272  0.8595 -1.1284 -0.8746
  568SOL    HW3 2326   1.352   2.524   1.158  0.3344 -0.0058  0.1780
  568SOL    MW4 2327   1.351   2.443   1.190 -0.3970 -0.2112 -0.3582
  569SOL     OW 2328   1.355   2.716   1.129 -0.3367 -0.4004  0.1527
  569SOL    HW2 2329   1.435   2.756   1.163 -0.3359 -0.0434 -0.2636
  569SOL    HW3 2330   1.284   2.763   1.172 -0.3292 -0.5859  0.3727
  569SOL    MW4 2331   1.357   2.727   1.139 -0.3356 -0.3777  0.1268
  570SOL     OW 2332   1.605   2.813   1.216  0.1357 -0.7361 -0.4687
  570SOL    HW2 2333   1.683   2.771   1.182  0.7046 -0.4541  0.4851
  570SOL    HW3 2334   1.614   2.905   1.189 -0.2986 -0.8749 -1.1109
  570SOL    MW4 2335   1.616   2.820   1.208  0.1535 -0.7172 -0.4277
  571SOL     OW 2336   1.595   3.091   1.137 -0.0016 -0.2348  0.5124
  571SOL    HW2 2337   1.667   3.146   1.167  0.4665 -1.3757  1.5086
  571SOL    HW3 2338   1.517   3.130   1.177  0.1693  0.4968  0.1264
  571SOL    MW4 2339   1.594   3.103   1.147  0.0829 -0.2887  0.5929
  572SOL     OW 2340   1.373   3.230   1.255  0.1064  0.5266  0.6097
  572SOL    HW2 2341   1.358   3.212   1.348 -1.6554 -0.5318  0.1421
  572SOL    HW3 2342   1.290   3.208   1.213  0.4052  2.4344 -1.0395
  572SOL    MW4 2343   1.360   3.225   1.262 -0.0864  0.6387  0.3303
  573SOL     OW 2344   1.378   3.510   1.183  0.1388  0.6466 -0.1066
  573SOL    HW2 2345   1.409   3.420   1.195  1.2453  1.0751  0.2776
  573SOL    HW3 2346   1.361   3.517   1.089  0.3766  0.1461 -0.1864
  573SOL    MW4 2347   1.380   3.499   1.172  0.3163  0.6373 -0.0664
  574SOL     OW 2348   1.613   3.629   1.256  0.2539  0.8060  0.4831
  574SOL    HW2 2349   1.676   3.565   1.224  0.8277  2.1721 -1.2009
  574SOL    HW3 2350   1.528   3.596   1.229  0.5008  0.4534  0.1445
  574SOL    MW4 2351   1.610   3.616   1.248  0.3620  0.9401  0.2164
  575SOL     OW 2352   1.566   3.872   1.099 -0.3070 -0.0722 -0.4175
  575SOL    HW2 2353   1.489   3.917   1.134  0.2890  0.5020  0.1700
  575SOL    HW3 2354   1.578   3.798   1.158 -0.1443  0.0955 -0.2375
  575SOL    MW4 2355   1.557   3.868   1.112 -0.2069  0.0257 -0.3163
  576SOL     OW 2356   1.377   3.997   1.234 -0.0194 -0.0102  0.6082
  576SOL    HW2 2357   1.373   4.090   1.209 -0.8214 -0.5986 -1.6137
  576SOL    HW3 2358   1.291   3.963   1.211  0.7490 -1.6234  0.0509
  576SOL    MW4 2359   1.365   4.005   1.227 -0.0238 -0.3004  0.2415
  577SOL     OW 2360   1.322   4.256   1.144 -0.7103  0.1465 -0.2276
  577SOL    HW2 2361   1.321   4.255   1.048  0.6555 -0.6139 -0.2529
  577SOL    HW3 2362   1.266   4.329   1.168 -0.2262  1.0047 -1.6415
  577SOL    MW4 2363   1.315   4.265   1.135 -0.4663  0.1593 -0.4175
  578SOL     OW 2364   1.580   4.390   1.209  0.1652 -0.2893  0.5262
  578SOL    HW2 2365   1.578   4.379   1.304  2.7623  1.1114  0.7867
  578SOL    HW3 2366   1.509   4.335   1.177 -0.9880 -0.4994  3.3002
  578SOL    MW4 2367   1.571   4.382   1.217  0.3556 -0.1326  0.9265
  579SOL     OW 2368   2.044   0.006   1.080 -0.3623  0.2105 -0.0950
  579SOL    HW2 2369   2.054  -0.080   1.120  1.0325  0.1744 -0.4799
  579SOL    HW3 2370   2.032  -0.012   0.987  0.8440  0.4519 -0.3079
  579SOL    MW4 2371   2.044  -0.008   1.073 -0.0191  0.2375 -0.1739
  580SOL     OW 2372   1.817   0.086   1.224  0.1641 -0.1574 -0.2135
  580SOL    HW2 2373   1.812   0.180   1.204  0.4959  0.0297  0.5599
  580SOL    HW3 2374   1.893   0.055   1.176  1.2286  0.3828  1.0914
  580SOL    MW4 2375   1.826   0.094   1.215  0.3482 -0.0615  0.0607
  581SOL     OW 2376   1.830   0.351   1.133  0.0885 -0.2142  0.2896
  581SOL    HW2 2377   1.765   0.420   1.146  0.7174  0.4651 -0.0837
  581SOL    HW3 2378   1.826   0.331   1.039  0.5973  0.0337  0.2073
  581SOL    MW4 2379   1.821   0.357   1.122  0.2387 -0.0919  0.2295
  582SOL     OW 2380   2.062   0.476   1.225 -0.1102 -0.2823  0.3293
  582SOL    HW2 2381   2.063   0.478   1.321  2.2977 -0.9746  0.3456
  582SOL    HW3 2382   1.982   0.429   1.203  0.4285 -2.0952  2.0719
  582SOL    MW4 2383   2.052   0.470   1.235  0.2782 -0.6128  0.5614
  583SOL     OW 2384   2.052   0.743   1.167 -0.0015 -0.0944 -0.1310
  583SOL    HW2 2385   2.041   0.654   1.198 -0.7512  0.0288 -0.0416
  583SOL    HW3 2386   2.051   0.735   1.071 -0.4498 -0.1357 -0.1235
  583SOL    MW4 2387   2.050   0.730   1.158 -0.1595 -0.0836 -0.1184
  584SOL     OW 2388   1.816   0.880   1.238 -0.0755 -0.6144  0.5963
  584SOL    HW2 2389   1.815   0.906   1.330 -1.4152 -1.8970  0.9623
  584SOL    HW3 2390   1.894   0.825   1.230 -0.5637 -1.4060  1.2291
  584SOL    MW4 2391   1.826   0.876   1.249 -0.3166 -0.8881  0.7281
  585SOL     OW 2392   1.799   1.143   1.143  0.4267  0.2636  0.0545
  585SOL    HW2 2393   1.811   1.134   1.048  0.8126 -1.2427  0.2250
  585SOL    HW3 2394   1.808   1.053   1.176 -1.0967  0.5760  1.3565
  585SOL    MW4 2395   1.802   1.130   1.135  0.2767  0.1060  0.2487
  586SOL     OW 2396   2.007   1.281   1.262  0.5853  0.1932 -0.0292
  586SOL    HW2 2397   2.087   1.234   1.238  0.5333  1.6894 -3.3665
  586SOL    HW3 2398   1.936   1.224   1.232  0.4446  0.5591 -0.3782
  586SOL    MW4 2399   2.009   1.267   1.255  0.5600  0.4388 -0.5155
  587SOL     OW 2400   1.991   1.499   1.079  0.0430  0.2527 -0.1471
  587SOL    HW2 2401   2.003   1.423   1.137  0.1344  0.3502 -0.0387
  587SOL    HW3 2402   2.055   1.563   1.110 -1.1700  1.0159  0.8186
  587SOL    MW4 2403   2.001   1.497   1.091 -0.1049  0.3662 -0.0055
  588SOL     OW 2404   1.774   1.629   1.207 -0.1619 -0.1868 -0.4615
  588SOL    HW2 2405   1.795   1.714   1.169  0.7200  0.1498  0.7641
  588SOL    HW3 2406   1.840   1.570   1.171 -0.0007 -0.0969 -0.3118
  588SOL    MW4 2407   1.785   1.633   1.197 -0.0242 -0.1307 -0.2801
  589SOL     OW 2408   1.830   1.895   1.117  0.0798  0.4649  0.2659
  589SOL    HW2 2409   1.759   1.955   1.139  0.5496  0.7617  0.9817
  589SOL    HW3 2410   1.831   1.893   1.021 -0.5567  0.8537  0.2470
  589SOL    MW4 2411   1.821   1.902   1.107  0.0578  0.5554  0.3577
  590SOL     OW 2412   2.018   2.052   1.230 -0.2865 -0.5288  0.0026
  590SOL    HW2 2413   1.998   2.032   1.321  1.7307 -0.3629  0.5073
  590SOL    HW3 2414   1.959   1.996   1.179  0.1943 -2.3373  1.3966
  590SOL    MW4 2415   2.008   2.042   1.235  0.0429 -0.7455  0.2530
  591SOL     OW 2416   2.028   2.297   1.090  0.3195 -0.3009 -0.0561
  591SOL    HW2 2417   2.098   2.348   1.131  0.5764 -0.5827 -0.1383
  591SOL    HW3 2418   2.024   2.217   1.142  0.3705 -0.4848 -0.3337
  591SOL    MW4 2419   2.037   2.293   1.102  0.3600 -0.3624 -0.1035
  592SOL     OW 2420   1.796   2.415   1.185 -0.1293 -0.0646  0.3108
  592SOL    HW2 2421   1.864   2.360   1.146  0.1707  0.5541 -0.0579
  592SOL    HW3 2422   1.714   2.372   1.163  0.0957 -0.2952 -0.0878
  592SOL    MW4 2423   1.794   2.402   1.177 -0.0600 -0.0134  0.2096
  593SOL     OW 2424   1.850   2.692   1.123  0.6694  0.2972  0.3604
  593SOL    HW2 2425   1.851   2.601   1.152  1.2488  0.1720 -0.0549
  593SOL    HW3 2426   1.841   2.688   1.028  2.5453  0.6332  0.1583
  593SOL    MW4 2427   1.849   2.680   1.114  0.9933  0.3250  0.2789
  594SOL     OW 2428   2.048   2.817   1.279 -0.2978 -0.1224  0.2003
  594SOL    HW2 2429   2.069   2.900   1.236 -1.8790  0.7799  1.1284
  594SOL    HW3 2430   1.975   2.781   1.229 -1.4796  0.4445  1.4784
  594SOL    MW4 2431   2.041   2.824   1.267 -0.6626  0.0715  0.4913
  595SOL     OW 2432   2.070   3.076   1.138 -0.0305  0.2092  0.0663
  595SOL    HW2 2433   1.997   3.135   1.157  0.3300  0.4746  0.6381
  595SOL    HW3 2434   2.061   3.056   1.044 -1.2726 -0.3640  0.2953
  595SOL    MW4 2435   2.059   3.081   1.128 -0.1464  0.1688  0.1719
  596SOL     OW 2436   1.827   3.217   1.202  0.5727 -0.4397  0.1779
  596SOL    HW2 2437   1.823   3.219   1.298  0.8055 -0.5268  0.1905
  596SOL    HW3 2438   1.814   3.307   1.175  0.5303 -0.4111  0.2949
  596SOL    MW4 2439   1.825   3.229   1.211  0.5980 -0.4473  0.1950
  597SOL     OW 2440   1.796   3.468   1.114  0.1812  0.0191  0.5353
  597SOL    HW2 2441   1.880   3.502   1.145  1.0181 -1.8000  0.3496
  597SOL    HW3 2442   1.809   3.455   1.020 -0.5647  0.4825  0.3700
  597SOL    MW4 2443   1.809   3.471   1.106  0.1932 -0.1595  0.4890
  598SOL     OW 2444   1.991   3.570   1.246 -0.8268 -0.7843 -0.5170
  598SOL    HW2 2445   1.992   3.593   1.339  0.4244  1.1947 -0.9916
  598SOL    HW3 2446   2.074   3.524   1.232 -0.5053 -0.1190 -0.8570
  598SOL    MW4 2447   2.002   3.567   1.257 -0.6194 -0.4354 -0.6245
  599SOL     OW 2448   2.042   3.830   1.161 -0.2933  0.3117  0.2892
  599SOL    HW2 2449   1.955   3.870   1.171 -0.5123  0.0220 -0.4199
  599SOL    HW3 2450   2.031   3.739   1.189  0.1440  0.6633  1.6472
  599SOL    MW4 2451   2.029   3.823   1.166 -0.2644  0.3197  0.3748
  600SOL     OW 2452   1.804   4.000   1.203 -0.0863 -0.2123 -0.2344
  600SOL    HW2 2453   1.805   3.999   1.299  0.4380 -0.3519 -0.2383
  600SOL    HW3 2454   1.714   3.977   1.180 -0.3136  0.1959  0.2255
  600SOL    MW4 2455   1.792   3.997   1.213 -0.0470 -0.1767 -0.1743
  601SOL     OW 2456   1.822   4.269   1.118 -0.4367 -0.0461 -0.5405
  601SOL    HW2 2457   1.815   4.181   1.156 -1.7198 -0.6417 -2.0969
  601SOL    HW3 2458   1.745   4.315   1.151 -0.8305 -0.1425 -1.3103
  601SOL    MW4 2459   1.811   4.263   1.128 -0.6579 -0.1373 -0.8473
  602SOL     OW 2460   2.038   4.419   1.217  0.3457  0.1351  0.1617
  602SOL    HW2 2461   2.036   4.397   1.310 -0.8635 -2.5164 -0.4376
  602SOL    HW3 2462   1.958   4.379   1.181 -0.2231  2.7475 -1.6772
  602SOL    MW4 2463   2.027   4.411   1.224  0.1111  0.1302 -0.1599
  603SOL     OW 2464   2.440   4.638   1.124  0.1234  0.1209 -0.3024
  603SOL    HW2 2465   2.514   4.684   1.163  0.2339 -1.8859  1.9371
  603SOL    HW3 2466   2.365   4.661   1.180 -0.3179 -0.4361 -0.6590
  603SOL    MW4 2467   2.440   4.647   1.137  0.0796 -0.2174 -0.0539
  604SOL     OW 2468   2.221   0.132   1.259  0.2722 -0.4040  0.3282
  604SOL    HW2 2469   2.264   0.192   1.198  0.5606 -0.8885  0.0580
  604SOL    HW3 2470   2.160   0.082   1.204 -1.3629  0.9435  0.8514
  604SOL    MW4 2471   2.219   0.133   1.244  0.0947 -0.2901  0.3617
  605SOL     OW 2472   2.288   0.351   1.120  0.1804  0.0770 -0.0134
  605SOL    HW2 2473   2.209   0.389   1.157  0.6055  0.8204  0.1431
  605SOL    HW3 2474   2.282   0.370   1.026 -0.9578 -1.9152 -0.3950
  605SOL    MW4 2475   2.277   0.358   1.113  0.0865 -0.0878 -0.0430
  606SOL     OW 2476   2.479   0.544   1.199 -0.0226 -0.1276  0.2963
  606SOL    HW2 2477   2.488   0.535   1.294 -0.9754  1.0888  0.5212
  606SOL    HW3 2478   2.407   0.484   1.176  1.1242 -1.4617  0.1267
  606SOL    MW4 2479   2.471   0.535   1.209  0.0031 -0.1432  0.3036
  607SOL     OW 2480   2.459   0.802   1.124 -0.0526  0.4026 -0.3688
  607SOL    HW2 2481   2.461   0.709   1.144  0.9891  0.8160  1.6409
  607SOL    HW3 2482   2.446   0.807   1.030 -1.0940 -1.7551 -0.3501
  607SOL    MW4 2483   2.458   0.790   1.115 -0.0522  0.1725 -0.1012
  608SOL     OW 2484   2.244   0.904   1.291  0.5497 -0.5069  0.7602
  608SOL    HW2 2485   2.320   0.870   1.244  0.6300  0.6654  0.0195
  608SOL    HW3 2486   2.171   0.852   1.258  0.9096 -1.0850  0.8677
  608SOL    MW4 2487   2.244   0.893   1.280  0.6080 -0.4286  0.6766
  609SOL     OW 2488   2.219   1.151   1.151 -0.1976  0.0712 -0.1586
  609SOL    HW2 2489   2.290   1.200   1.192 -0.5228  0.1392  0.3280
  609SOL    HW3 2490   2.229   1.061   1.184  0.6270 -0.2928 -1.3431
  609SOL    MW4 2491   2.230   1.145   1.161 -0.1316  0.0321 -0.2507
  610SOL     OW 2492   2.456   1.297   1.240 -0.2474 -0.0233  0.2269
  610SOL    HW2 2493   2.531   1.251   1.201 -0.2796 -0.0060  0.1434
  610SOL    HW3 2494   2.462   1.386   1.205 -0.6986 -0.2064 -0.3243
  610SOL    MW4 2495   2.467   1.303   1.230 -0.3109 -0.0452  0.1432
  611SOL     OW 2496   2.463   1.560   1.161 -0.0701  0.2715  0.2851
  611SOL    HW2 2497   2.378   1.596   1.187  0.3829  0.5335  1.4418
  611SOL    HW3 2498   2.462   1.564   1.066 -0.5839  2.1372  0.3361
  611SOL    MW4 2499   2.451   1.566   1.152 -0.0782  0.5523  0.4443
  612SOL     OW 2500   2.260   1.918   1.167 -0.0054  0.0194  0.3640
  612SOL    HW2 2501   2.196   1.985   1.192  1.7287  1.4160  1.1666
  612SOL    HW3 2502   2.264   1.923   1.072 -1.5051 -0.4844  0.2593
  612SOL    MW4 2503   2.252   1.927   1.158  0.0255  0.1373  0.4561
  613SOL     OW 2504   2.707   1.898   0.851  0.1029  0.4651  0.0905
  613SOL    HW2 2505   2.720   1.916   0.944  1.2204  1.4113 -0.2407
  613SOL    HW3 2506   2.776   1.948   0.807  0.3869 -1.0094 -1.1579
  613SOL    MW4 2507   2.718   1.907   0.857  0.2878  0.3954 -0.1179
  614SOL     OW 2508   2.499   1.998   1.285 -0.6877 -0.1829 -0.4662
  614SOL    HW2 2509   2.577   1.960   1.245 -0.3645 -1.6175  1.4492
  614SOL    HW3 2510   2.426   1.962   1.234 -0.1813 -0.0500 -1.3001
  614SOL    MW4 2511   2.499   1.988   1.273 -0.5784 -0.3548 -0.3235
  615SOL     OW 2512   2.481   2.258   1.154  0.5166  0.2529 -0.3944
  615SOL    HW2 2513   2.502   2.181   1.207 -0.0189 -0.2585 -0.9113
  615SOL    HW3 2514   2.480   2.225   1.064 -2.1103  0.3350 -0.4286
  615SOL    MW4 2515   2.484   2.243   1.149  0.0994  0.1965 -0.4672
  616SOL     OW 2516   2.254   2.411   1.222 -0.2850 -0.2355  0.1997
  616SOL    HW2 2517   2.234   2.419   1.316  0.5565  2.9581  0.1691
  616SOL    HW3 2518   2.327   2.351   1.218 -0.6328 -0.7727  1.5682
  616SOL    MW4 2519   2.261   2.404   1.234 -0.2201  0.1152  0.3762
  617SOL     OW 2520   2.236   2.676   1.133  0.0741 -0.1300  0.1621
  617SOL    HW2 2521   2.260   2.588   1.162 -1.2842 -0.4119  0.4516
  617SOL    HW3 2522   2.179   2.710   1.202  1.4854  1.4337  0.6193
  617SOL    MW4 2523   2.232   2.669   1.146  0.0811  0.0391  0.2607
  618SOL     OW 2524   2.473   2.823   1.212  0.1674  0.2754 -0.1678
  618SOL    HW2 2525   2.478   2.802   1.306  1.3598 -1.0036 -0.5008
  618SOL    HW3 2526   2.390   2.785   1.183 -0.7889  1.7042  0.5942
  618SOL    MW4 2527   2.463   2.815   1.221  0.1986  0.2954 -0.1112
  619SOL     OW 2528   2.546   3.070   1.117 -0.2877 -0.2507 -0.1779
  619SOL    HW2 2529   2.462   3.112   1.134  0.3507  0.9902 -0.0406
  619SOL    HW3 2530   2.540   2.984   1.160 -0.2750  1.1138  2.6276
  619SOL    MW4 2531   2.534   3.064   1.125 -0.2017  0.0930  0.2103
  620SOL     OW 2532   2.323   3.209   1.227 -0.0920  0.3429 -0.1800
  620SOL    HW2 2533   2.312   3.302   1.205 -0.5414  0.9266  2.2935
  620SOL    HW3 2534   2.245   3.167   1.190 -1.2878  1.4191  1.0478
  620SOL    MW4 2535   2.311   3.216   1.219 -0.3092  0.5617  0.3084
  621SOL     OW 2536   2.239   3.461   1.156 -0.0989  0.3297 -0.0571
  621SOL    HW2 2537   2.315   3.505   1.196 -0.4821  0.9140  0.0402
  621SOL    HW3 2538   2.251   3.472   1.062  0.7708 -0.9898 -0.1101
  621SOL    MW4 2539   2.251   3.468   1.149 -0.0346  0.2327 -0.0511
  622SOL     OW 2540   2.470   3.598   1.241  0.1985 -0.1548 -0.0421
  622SOL    HW2 2541   2.481   3.614   1.335  1.8789  1.4715 -0.4761
  622SOL    HW3 2542   2.450   3.684   1.204  1.4456 -0.4358 -1.4138
  622SOL    MW4 2543   2.469   3.611   1.249  0.5846  0.0224 -0.2804
  623SOL     OW 2544   2.507   3.860   1.173 -0.1038  0.0537 -0.5062
  623SOL    HW2 2545   2.443   3.930   1.192  1.9893  2.0765 -0.7183
  623SOL    HW3 2546   2.507   3.852   1.078 -1.1298 -1.0451 -0.4351
  623SOL    MW4 2547   2.498   3.868   1.163  0.0370  0.1755 -0.5249
  624SOL     OW 2548   2.274   3.991   1.213  0.2022 -0.1022  0.1638
  624SOL    HW2 2549   2.258   4.075   1.169  2.2327  0.2080 -0.0267
  624SOL    HW3 2550   2.197   3.938   1.192 -0.6796  1.3905 -0.4878
  624SOL    MW4 2551   2.261   3.995   1.204  0.3538  0.1354  0.0527
  625SOL     OW 2552   2.211   4.242   1.101  0.0027 -0.1580  0.1987
  625SOL    HW2 2553   2.143   4.305   1.126  0.0741 -0.1742  0.4303
  625SOL    HW3 2554   2.205   4.237   1.005  0.1477  0.3714  0.1578
  625SOL    MW4 2555   2.201   4.249   1.092  0.0315 -0.0901  0.2239
  626SOL     OW 2556   2.421   4.367   1.227  0.5009  0.1792 -0.1298
  626SOL    HW2 2557   2.355   4.324   1.172 -2.4465  0.7654  2.8353
  626SOL    HW3 2558   2.426   4.456   1.194  0.6192 -0.1564 -1.0394
  626SOL    MW4 2559   2.413   4.373   1.215  0.1273  0.2127  0.1414
  627SOL     OW 2560   2.848   0.003   1.080 -0.2825  0.4042 -0.4894
  627SOL    HW2 2561   2.871  -0.074   1.132  0.8103  0.1278 -1.3520
  627SOL    HW3 2562   2.850  -0.028   0.989  1.4711  1.7355 -0.9456
  627SOL    MW4 2563   2.851  -0.011   1.075  0.0927  0.5431 -0.6634
  628SOL     OW 2564   2.642   0.130   1.214 -0.2461  0.5337 -0.2786
  628SOL    HW2 2565   2.662   0.121   1.308  0.8646  2.6665 -0.2773
  628SOL    HW3 2566   2.719   0.095   1.170 -0.2339  0.6861 -0.3768
  628SOL    MW4 2567   2.655   0.124   1.221 -0.0978  0.8352 -0.2912
  629SOL     OW 2568   2.692   0.386   1.081 -0.5623  0.1193 -0.3426
  629SOL    HW2 2569   2.673   0.305   1.129  0.2504 -0.1025 -0.3921
  629SOL    HW3 2570   2.633   0.451   1.120  0.1823 -0.0280  1.0546
  629SOL    MW4 2571   2.681   0.384   1.092 -0.3569  0.0706 -0.1650
  630SOL     OW 2572   2.887   0.490   1.225 -0.5323  0.3331 -0.1395
  630SOL    HW2 2573   2.881   0.582   1.201  1.0218  0.4634 -0.0691
  630SOL    HW3 2574   2.832   0.445   1.161 -3.0448  1.5083  1.1430
  630SOL    MW4 2575   2.879   0.496   1.213 -0.6588  0.5054  0.0391
  631SOL     OW 2576   2.899   0.766   1.138  0.7339 -0.0703  0.1197
  631SOL    HW2 2577   2.971   0.811   1.182 -0.4660  1.1149  0.9583
  631SOL    HW3 2578   2.820   0.811   1.170 -0.3519 -1.0777 -1.0581
  631SOL    MW4 2579   2.898   0.778   1.148  0.4323 -0.0468  0.0750
  632SOL     OW 2580   2.683   0.911   1.244  0.2365  0.4897 -0.4560
  632SOL    HW2 2581   2.691   1.001   1.213  0.7595  0.0692 -1.5654
  632SOL    HW3 2582   2.599   0.880   1.210 -1.0139  1.2757  1.8238
  632SOL    MW4 2583   2.673   0.919   1.235  0.1409  0.5379 -0.3016
  633SOL     OW 2584   2.678   1.182   1.142 -0.0201 -0.0601  0.2044
  633SOL    HW2 2585   2.671   1.188   1.047 -1.2993 -0.1516  0.2770
  633SOL    HW3 2586   2.768   1.207   1.162  0.8397 -1.8963 -1.1752
  633SOL    MW4 2587   2.689   1.186   1.132 -0.0756 -0.3144  0.0319
  634SOL     OW 2588   2.919   1.315   1.236  0.1188 -0.1796 -0.3155
  634SOL    HW2 2589   2.906   1.340   1.328  1.7533  0.7562 -0.3189
  634SOL    HW3 2590   2.919   1.397   1.188  0.7866 -0.5487 -0.9622
  634SOL    MW4 2591   2.918   1.329   1.242  0.4230 -0.1047 -0.4013
  635SOL     OW 2592   2.901   1.540   1.083 -0.2509 -0.4415 -0.2445
  635SOL    HW2 2593   2.973   1.586   1.127  0.4553 -1.6632 -0.1114
  635SOL    HW3 2594   2.944   1.486   1.017 -0.9820 -1.8485  0.4294
  635SOL    MW4 2595   2.916   1.539   1.080 -0.2539 -0.7883 -0.1380
  636SOL     OW 2596   2.711   1.656   1.267 -0.0296  0.1584  0.2258
  636SOL    HW2 2597   2.769   1.608   1.208 -0.6515  0.8246 -0.9410
  636SOL    HW3 2598   2.623   1.627   1.243 -0.2901  0.3968  0.8700
  636SOL    MW4 2599   2.707   1.646   1.256 -0.1462  0.2775  0.1569
  637SOL     OW 2600   2.724   1.890   1.136  0.2023  0.0611 -0.4079
  637SOL    HW2 2601   2.787   1.953   1.169  0.0329  0.7903 -1.4474
  637SOL    HW3 2602   2.740   1.811   1.187  1.9161  0.2609 -0.6148
  637SOL    MW4 2603   2.734   1.888   1.147  0.4060  0.1837 -0.5723
  638SOL     OW 2604   2.892   2.067   1.272  0.4308  0.2630 -0.0699
  638SOL    HW2 2605   2.900   2.084   1.366 -2.3825  0.3066  0.2201
  638SOL    HW3 2606   2.903   2.153   1.231 -0.1489  0.5645  0.3868
  638SOL    MW4 2607   2.894   2.081   1.279 -0.0167  0.3085  0.0286
  639SOL     OW 2608   2.930   2.319   1.175 -0.3442 -0.3404  0.4674
  639SOL    HW2 2609   3.009   2.373   1.178  0.3841 -1.2553 -1.7348
  639SOL    HW3 2610   2.865   2.369   1.226  0.3303  2.5724 -1.4150
  639SOL    MW4 2611   2.932   2.333   1.182 -0.1590 -0.0770 -0.0714
  640SOL     OW 2612   2.684   2.444   1.257  0.0249 -0.0069 -0.0430
  640SOL    HW2 2613   2.678   2.445   1.352 -1.1823  0.5121 -0.1203
  640SOL    HW3 2614   2.619   2.380   1.229 -0.3579  0.6170 -0.5745
  640SOL    MW4 2615   2.675   2.436   1.266 -0.1848  0.1438 -0.1234
  641SOL     OW 2616   2.693   2.691   1.140  0.2169  0.2502 -0.2477
  641SOL    HW2 2617   2.677   2.602   1.173  0.4181  0.8774  1.6091
  641SOL    HW3 2618   2.609   2.736   1.151  0.5824  0.7743  0.4438
  641SOL    MW4 2619   2.679   2.685   1.146  0.2916  0.4020  0.0886
  642SOL     OW 2620   2.919   2.816   1.250  0.6454  0.0298 -0.6906
  642SOL    HW2 2621   2.916   2.826   1.345  1.5660 -0.6458 -0.5847
  642SOL    HW3 2622   2.836   2.774   1.228  0.7592 -0.5347 -0.0853
  642SOL    MW4 2623   2.908   2.811   1.260  0.7820 -0.1340 -0.5969
  643SOL     OW 2624   2.948   3.084   1.150  0.2314 -0.5327 -0.1898
  643SOL    HW2 2625   2.948   2.995   1.183  3.4135 -1.3160 -2.0863
  643SOL    HW3 2626   2.942   3.075   1.055  0.8154  1.2481 -0.4189
  643SOL    MW4 2627   2.947   3.071   1.142  0.7281 -0.4010 -0.4704
  644SOL     OW 2628   2.733   3.210   1.287 -0.0397 -0.2003  0.2111
  644SOL    HW2 2629   2.821   3.182   1.261  0.1327  2.1789 -1.9948
  644SOL    HW3 2630   2.675   3.155   1.234  0.1261 -0.8332  0.6712
  644SOL    MW4 2631   2.737   3.199   1.276  0.0045  0.0300 -0.0193
  645SOL     OW 2632   2.705   3.469   1.159 -0.3087  0.1636 -0.0503
  645SOL    HW2 2633   2.713   3.389   1.209 -0.0710  0.5053  0.4589
  645SOL    HW3 2634   2.630   3.514   1.197  0.2699  0.7322  0.4374
  645SOL    MW4 2635   2.696   3.465   1.171 -0.2010  0.2835  0.0813
  646SOL     OW 2636   2.946   3.592   1.250  0.2014  0.1921 -0.0581
  646SOL    HW2 2637   3.017   3.534   1.223  0.7485  0.2548  1.2042
  646SOL    HW3 2638   2.867   3.551   1.214  0.6345 -1.1143  0.4269
  646SOL    MW4 2639   2.945   3.579   1.242  0.3304  0.0279  0.1725
  647SOL     OW 2640   2.927   3.863   1.125 -0.4141 -0.1086  0.5304
  647SOL    HW2 2641   2.994   3.916   1.169 -0.6810  0.8514 -0.2041
  647SOL    HW3 2642   2.941   3.775   1.158  0.3981  0.3181  1.3540
  647SOL    MW4 2643   2.938   3.859   1.135 -0.3424  0.0744  0.5422
  648SOL     OW 2644   2.730   4.032   1.203  0.2695 -0.1201  0.0312
  648SOL    HW2 2645   2.800   3.977   1.169 -0.0752 -0.2897 -0.4159
  648SOL    HW3 2646   2.650   3.981   1.189 -0.1101  0.7007 -0.8776
  648SOL    MW4 2647   2.728   4.018   1.196  0.1740 -0.0343 -0.1476
  649SOL     OW 2648   2.686   4.304   1.164  0.2186 -0.0104 -0.2182
  649SOL    HW2 2649   2.707   4.212   1.181  0.2843 -0.1745 -1.1898
  649SOL    HW3 2650   2.595   4.313   1.194  0.7554  0.0289  1.4355
  649SOL    MW4 2651   2.676   4.293   1.170  0.2983 -0.0272 -0.1280
  650SOL     OW 2652   2.923   4.433   1.219 -0.0911 -0.0799 -0.2245
  650SOL    HW2 2653   2.991   4.373   1.189 -0.3959 -0.3062 -0.4699
  650SOL    HW3 2654   2.841   4.384   1.208 -0.3483  0.4151 -0.5313
  650SOL    MW4 2655   2.921   4.419   1.213 -0.1652 -0.0443 -0.2974
  651SOL     OW 2656   3.377   4.633   1.132  0.0084  0.0628  0.0781
  651SOL    HW2 2657   3.449   4.691   1.158 -0.6958  1.0071 -0.0208
  651SOL    HW3 2658   3.298   4.683   1.154 -0.6105 -0.0608 -1.7868
  651SOL    MW4 2659   3.376   4.648   1.138 -0.1662  0.1711 -0.1810
  652SOL     OW 2660   3.126   0.094   1.178 -0.3203 -0.0364  0.7917
  652SOL    HW2 2661   3.106   0.074   1.269 -0.7070 -1.7870  0.3437
  652SOL    HW3 2662   3.048   0.066   1.130  0.8047 -1.3291 -0.3245
  652SOL    MW4 2663   3.113   0.088   1.184 -0.2229 -0.4379  0.5852
  653SOL     OW 2664   3.163   0.373   1.132 -0.0730 -0.3042  0.2818
  653SOL    HW2 2665   3.158   0.279   1.153 -0.5503 -0.2478  0.4297
  653SOL    HW3 2666   3.087   0.411   1.176 -0.0039  0.1200  0.0341
  653SOL    MW4 2667   3.152   0.365   1.141 -0.1268 -0.2408  0.2686
  654SOL     OW 2668   3.376   0.499   1.260 -0.4925 -0.0358 -0.0334
  654SOL    HW2 2669   3.367   0.590   1.233 -1.6758  0.1464  0.9268
  654SOL    HW3 2670   3.305   0.453   1.215 -1.7860  0.0739  1.8135
  654SOL    MW4 2671   3.366   0.505   1.251 -0.8192  0.0027  0.3370
  655SOL     OW 2672   3.366   0.764   1.163  0.2886 -0.3324  0.6161
  655SOL    HW2 2673   3.285   0.814   1.174  1.9680  2.5920  0.4779
  655SOL    HW3 2674   3.378   0.760   1.068 -0.0443 -1.3687  0.6161
  655SOL    MW4 2675   3.357   0.770   1.152  0.4663 -0.0833  0.5980
  656SOL     OW 2676   3.134   0.905   1.246 -0.3378  0.2503  0.0307
  656SOL    HW2 2677   3.117   0.923   1.339 -1.2125 -0.7789  0.0828
  656SOL    HW3 2678   3.128   0.990   1.203  0.5919  0.8162  0.9923
  656SOL    MW4 2679   3.131   0.919   1.253 -0.3304  0.1892  0.1644
  657SOL     OW 2680   3.152   1.161   1.145  0.3883 -0.0894 -0.5128
  657SOL    HW2 2681   3.229   1.203   1.182  0.1801 -1.3782  1.4119
  657SOL    HW3 2682   3.078   1.206   1.185  0.1641 -1.0823  0.2186
  657SOL    MW4 2683   3.152   1.172   1.155  0.3314 -0.3905 -0.1622
  658SOL     OW 2684   3.381   1.291   1.219  0.0676 -0.0240  0.1135
  658SOL    HW2 2685   3.392   1.298   1.313  0.2850  0.0365  0.0833
  658SOL    HW3 2686   3.370   1.381   1.189  0.2531 -0.0213  0.0505
  658SOL    MW4 2687   3.381   1.303   1.227  0.1204 -0.0157  0.1012
  659SOL     OW 2688   3.363   1.564   1.142 -0.0538 -0.0447  0.2097
  659SOL    HW2 2689   3.441   1.603   1.184 -0.7590 -0.6438  2.1364
  659SOL    HW3 2690   3.289   1.599   1.192 -0.9120 -1.0596 -0.3343
  659SOL    MW4 2691   3.364   1.574   1.154 -0.2601 -0.2575  0.3922
  660SOL     OW 2692   3.124   1.662   1.247  0.4656  0.2537  0.1036
  660SOL    HW2 2693   3.113   1.677   1.340  1.2248  1.0964  0.0571
  660SOL    HW3 2694   3.117   1.748   1.207 -0.0189 -0.1195 -0.6416
  660SOL    MW4 2695   3.122   1.675   1.254  0.5016  0.3157 -0.0008
  661SOL     OW 2696   3.103   1.914   1.147  0.2715 -0.2206 -0.0523
  661SOL    HW2 2697   3.180   1.965   1.171  0.7370 -1.4629  1.1518
  661SOL    HW3 2698   3.031   1.955   1.194  0.5917 -0.4920  0.6783
  661SOL    MW4 2699   3.104   1.926   1.156  0.3748 -0.4203  0.2030
  662SOL     OW 2700   3.331   2.042   1.227 -0.0484  0.5459 -0.2831
  662SOL    HW2 2701   3.412   1.996   1.208  0.5758  1.0493  1.0866
  662SOL    HW3 2702   3.348   2.132   1.198 -0.1952  0.6099 -0.1678
  662SOL    MW4 2703   3.344   2.048   1.220  0.0145  0.6208 -0.0871
  663SOL     OW 2704   3.381   2.288   1.147  0.2587 -0.5238  0.0866
  663SOL    HW2 2705   3.462   2.331   1.177  1.4660 -3.3037  0.9977
  663SOL    HW3 2706   3.311   2.350   1.170  2.0163  1.4712  0.2345
  663SOL    MW4 2707   3.383   2.302   1.154  0.6499 -0.6275  0.2263
  664SOL     OW 2708   3.176   2.449   1.212 -0.0853  0.3357 -0.1056
  664SOL    HW2 2709   3.157   2.437   1.305 -0.2935  0.6845 -0.1006
  664SOL    HW3 2710   3.160   2.542   1.196 -1.3830  0.0213 -0.7833
  664SOL    MW4 2711   3.171   2.460   1.222 -0.2842  0.3402 -0.1945
  665SOL     OW 2712   3.145   2.719   1.168 -0.5212 -0.0109  0.0912
  665SOL    HW2 2713   3.059   2.746   1.201 -0.5847 -0.9335  0.7091
  665SOL    HW3 2714   3.134   2.718   1.073 -0.8644  0.9390  0.1098
  665SOL    MW4 2715   3.132   2.722   1.160 -0.5751 -0.0072  0.1752
  666SOL     OW 2716   3.398   2.812   1.259 -0.2204  0.2102  0.3255
  666SOL    HW2 2717   3.386   2.900   1.225 -0.4566 -0.5539 -1.6498
  666SOL    HW3 2718   3.317   2.766   1.237  0.6301 -1.0108 -0.3301
  666SOL    MW4 2719   3.386   2.818   1.252 -0.1395 -0.0517 -0.0216
  667SOL     OW 2720   3.356   3.054   1.160  0.2626  0.0777  0.1946
  667SOL    HW2 2721   3.436   3.103   1.178  0.2820 -0.6017  2.0463
  667SOL    HW3 2722   3.288   3.100   1.210  0.1157 -1.2423  1.2232
  667SOL    MW4 2723   3.358   3.067   1.169  0.2458 -0.1862  0.5746
  668SOL     OW 2724   3.158   3.209   1.269 -0.1846  0.0042 -0.1432
  668SOL    HW2 2725   3.166   3.292   1.222 -1.8883  0.9411  1.1930
  668SOL    HW3 2726   3.080   3.168   1.232  0.1859 -0.6315 -0.2258
  668SOL    MW4 2727   3.149   3.215   1.258 -0.3603  0.0439  0.0222
  669SOL     OW 2728   3.150   3.463   1.142 -0.1172 -0.5415 -0.2970
  669SOL    HW2 2729   3.207   3.534   1.173 -0.8526  0.0835 -0.3626
  669SOL    HW3 2730   3.139   3.480   1.049  0.5617 -1.3513 -0.5292
  669SOL    MW4 2731   3.156   3.475   1.134 -0.1245 -0.5658 -0.3364
  670SOL     OW 2732   3.360   3.626   1.241 -0.1864  0.6285 -0.1454
  670SOL    HW2 2733   3.357   3.644   1.335  0.2870  0.9922 -0.2024
  670SOL    HW3 2734   3.438   3.573   1.229  0.1472  1.1865 -0.4396
  670SOL    MW4 2735   3.370   3.622   1.252 -0.0799  0.7498 -0.1917
  671SOL     OW 2736   3.381   3.892   1.161  0.3678  0.2286  0.1808
  671SOL    HW2 2737   3.382   3.803   1.196 -0.4541  1.4554  3.5243
  671SOL    HW3 2738   3.298   3.929   1.191  1.1078  2.4244 -0.3866
  671SOL    MW4 2739   3.370   3.885   1.169  0.3574  0.6802  0.5471
  672SOL     OW 2740   3.147   4.003   1.238  0.0031 -0.1463  0.2813
  672SOL    HW2 2741   3.151   4.014   1.333  0.0237 -0.9388  0.3746
  672SOL    HW3 2742   3.159   4.091   1.203 -1.1920  0.3276  1.0481
  672SOL    MW4 2743   3.149   4.016   1.246 -0.1519 -0.1888  0.3947
  673SOL     OW 2744   3.137   4.271   1.141 -0.2671 -0.2819  0.2916
  673SOL    HW2 2745   3.206   4.330   1.170 -1.7915  1.2317  0.9628
  673SOL    HW3 2746   3.154   4.257   1.047  1.5300 -0.8057  0.6746
  673SOL    MW4 2747   3.148   4.277   1.132 -0.2315 -0.1512  0.4307
  674SOL     OW 2748   3.360   4.388   1.245  0.1917 -0.0138  0.3663
  674SOL    HW2 2749   3.430   4.341   1.199 -0.3807 -1.2785  0.7490
  674SOL    HW3 2750   3.369   4.479   1.215  2.2847 -0.0496  0.7873
  674SOL    MW4 2751   3.370   4.394   1.235  0.3922 -0.1860  0.4723
  675SOL     OW 2752   3.811   4.653   1.160  0.0185  0.0693  0.0934
  675SOL    HW2 2753   3.814   4.562   1.188  1.2709  0.3227  0.8577
  675SOL    HW3 2754   3.830   4.650   1.066 -0.3495 -0.4871  0.0349
  675SOL    MW4 2755   3.814   4.641   1.151  0.1354  0.0291  0.1864
  676SOL     OW 2756   3.605   0.121   1.253 -0.5621 -0.1629 -0.3763
  676SOL    HW2 2757   3.622   0.208   1.216 -2.7060  0.2756 -0.4180
  676SOL    HW3 2758   3.680   0.068   1.226  0.4748  1.5214 -0.8700
  676SOL    MW4 2759   3.617   0.126   1.244 -0.7081  0.1172 -0.4470
  677SOL     OW 2760   3.606   0.373   1.143 -0.3531 -0.3166  0.2389
  677SOL    HW2 2761   3.676   0.432   1.169 -0.6383  0.6450 -1.1643
  677SOL    HW3 2762   3.529   0.404   1.191 -0.5813  0.6865 -0.7438
  677SOL    MW4 2763   3.605   0.385   1.153 -0.4206 -0.0574 -0.0758
  678SOL     OW 2764   3.803   0.526   1.244  0.5420 -0.2035  0.3733
  678SOL    HW2 2765   3.882   0.475   1.226  0.5105 -0.2525  0.3713
  678SOL    HW3 2766   3.809   0.601   1.184 -0.6041 -1.4694 -1.3942
  678SOL    MW4 2767   3.814   0.529   1.233  0.3867 -0.3771  0.1400
  679SOL     OW 2768   3.785   0.769   1.100  0.2223 -0.0999  0.1978
  679SOL    HW2 2769   3.867   0.811   1.126  0.2641 -0.5769  0.8342
  679SOL    HW3 2770   3.717   0.827   1.134  0.2889  0.2841 -0.3109
  679SOL    MW4 2771   3.787   0.782   1.108  0.2365 -0.1122  0.2147
  680SOL     OW 2772   3.586   0.910   1.241  0.2646 -0.0546 -0.2209
  680SOL    HW2 2773   3.579   0.996   1.199 -1.1744  0.1635  0.4065
  680SOL    HW3 2774   3.506   0.864   1.215 -1.1123  0.4090  2.8826
  680SOL    MW4 2775   3.575   0.916   1.232 -0.1073  0.0352  0.2713
  681SOL     OW 2776   3.609   1.168   1.109  0.1590 -0.2712 -0.1141
  681SOL    HW2 2777   3.687   1.215   1.137 -0.4266  1.1586 -0.8023
  681SOL    HW3 2778   3.536   1.216   1.150 -0.4365 -0.7644 -0.5763
  681SOL    MW4 2779   3.609   1.180   1.118  0.0029 -0.1476 -0.2658
  682SOL     OW 2780   3.844   1.269   1.207 -0.5850 -0.1253  0.0443
  682SOL    HW2 2781   3.823   1.267   1.301 -0.8374  0.7175  0.0103
  682SOL    HW3 2782   3.837   1.362   1.183  1.0004 -0.1221 -0.4630
  682SOL    MW4 2783   3.841   1.281   1.216 -0.4089 -0.0136 -0.0272
  683SOL     OW 2784   3.820   1.557   1.136 -0.2778 -0.1714 -0.8141
  683SOL    HW2 2785   3.894   1.611   1.165 -1.2179  0.9993 -0.5554
  683SOL    HW3 2786   3.833   1.547   1.042  0.5488 -0.5038 -0.6691
  683SOL    MW4 2787   3.831   1.563   1.127 -0.2928 -0.0609 -0.7608
  684SOL     OW 2788   3.596   1.675   1.250 -0.2029  0.7771 -0.0090
  684SOL    HW2 2789   3.589   1.763   1.213  0.5728  1.1253  0.6601
  684SOL    HW3 2790   3.675   1.638   1.209 -1.2447 -0.0959 -1.2800
  684SOL    MW4 2791   3.605   1.682   1.239 -0.2379  0.7079 -0.0885
  685SOL     OW 2792   3.588   1.920   1.143 -0.3007 -0.3378  0.2602
  685SOL    HW2 2793   3.636   1.994   1.180 -1.7748  1.3827 -1.1448
  685SOL    HW3 2794   3.610   1.921   1.050 -2.7786  0.3223 -0.3629
  685SOL    MW4 2795   3.597   1.930   1.136 -0.8221 -0.0238 -0.0075
  686SOL     OW 2796   3.793   2.096   1.242  0.0944 -0.8475  0.0893
  686SOL    HW2 2797   3.800   2.077   1.336  0.7935  0.5324  0.3247
  686SOL    HW3 2798   3.871   2.055   1.204 -1.0096 -2.8172 -0.1486
  686SOL    MW4 2799   3.805   2.088   1.250  0.0410 -0.9255  0.0888
  687SOL     OW 2800   3.833   2.340   1.123 -0.4682  0.2107 -0.2959
  687SOL    HW2 2801   3.907   2.393   1.154  0.4759 -0.7575 -0.8346
  687SOL    HW3 2802   3.831   2.265   1.183 -1.2467  0.4129 -0.0659
  687SOL    MW4 2803   3.843   2.337   1.135 -0.4463  0.1099 -0.3368
  688SOL     OW 2804   3.601   2.450   1.205  0.3621  0.3740 -0.6217
  688SOL    HW2 2805   3.605   2.439   1.300  0.9137  2.1220 -0.4356
  688SOL    HW3 2806   3.681   2.407   1.173  0.3301  0.0554 -0.2769
  688SOL    MW4 2807   3.612   2.443   1.213  0.4306  0.5627 -0.5516
  689SOL     OW 2808   3.641   2.713   1.168  0.2973  0.1923 -0.0746
  689SOL    HW2 2809   3.627   2.619   1.177  1.2013 -0.0880 -1.4124
  689SOL    HW3 2810   3.565   2.753   1.210  0.9428 -1.0869  2.3759
  689SOL    MW4 2811   3.629   2.706   1.175  0.5019 -0.0134  0.0724
  690SOL     OW 2812   3.879   2.836   1.271  0.3176  0.4220 -0.1338
  690SOL    HW2 2813   3.875   2.833   1.367  1.1360  0.0838 -0.1135
  690SOL    HW3 2814   3.796   2.796   1.243  0.5789 -0.5259  0.4180
  690SOL    MW4 2815   3.867   2.830   1.280  0.4601  0.2522 -0.0584
  691SOL     OW 2816   3.840   3.101   1.187  0.0056 -0.1457  0.0179
  691SOL    HW2 2817   3.858   3.009   1.208  0.3468 -0.0019  0.3536
  691SOL    HW3 2818   3.838   3.103   1.091  0.6766 -0.3754 -0.0002
  691SOL    MW4 2819   3.842   3.089   1.177  0.1392 -0.1571  0.0600
  692SOL     OW 2820   3.579   3.194   1.263 -0.1985 -0.0251  0.2846
  692SOL    HW2 2821   3.572   3.283   1.227  0.8876 -0.7707 -1.7878
  692SOL    HW3 2822   3.664   3.162   1.234 -1.0462 -2.1628  0.0791
  692SOL    MW4 2823   3.589   3.202   1.255 -0.1671 -0.4055 -0.0160
  693SOL     OW 2824   3.579   3.454   1.171  0.2943  0.4412  0.0283
  693SOL    HW2 2825   3.663   3.494   1.195  0.3058 -0.0622  0.8446
  693SOL    HW3 2826   3.571   3.471   1.078  0.3086  2.3515  0.3457
  693SOL    MW4 2827   3.589   3.462   1.162  0.2978  0.6270  0.1777
  694SOL     OW 2828   3.841   3.568   1.260 -0.0282  0.1116  0.1503
  694SOL    HW2 2829   3.842   3.574   1.356  1.3139 -0.6050  0.1851
  694SOL    HW3 2830   3.829   3.659   1.231  1.1791  0.5375  0.9720
  694SOL    MW4 2831   3.839   3.581   1.269  0.3083  0.0732  0.2633
  695SOL     OW 2832   3.794   3.844   1.201 -0.4742  0.1268  0.0599
  695SOL    HW2 2833   3.716   3.895   1.225 -0.0089  0.0355  1.8058
  695SOL    HW3 2834   3.792   3.842   1.105 -1.5209  1.8277  0.0256
  695SOL    MW4 2835   3.783   3.850   1.192 -0.5510  0.3393  0.2857
  696SOL     OW 2836   3.593   4.012   1.289 -0.2905  0.2453  0.4706
  696SOL    HW2 2837   3.586   3.985   1.380  0.2024 -1.8527 -0.0637
  696SOL    HW3 2838   3.511   3.982   1.249  0.5279 -1.0860 -0.2677
  696SOL    MW4 2839   3.582   4.004   1.295 -0.1173 -0.2069  0.3027
  697SOL     OW 2840   3.576   4.250   1.147 -0.0185 -0.1779  0.2820
  697SOL    HW2 2841   3.588   4.175   1.206  0.0705 -0.0085  0.4791
  697SOL    HW3 2842   3.580   4.212   1.060  1.7634 -0.1748  0.3360
  697SOL    MW4 2843   3.578   4.235   1.144  0.2286 -0.1550  0.3153
  698SOL     OW 2844   3.803   4.387   1.213  0.1398  0.2949 -0.0720
  698SOL    HW2 2845   3.815   4.368   1.306  0.7591  0.3671 -0.1378
  698SOL    HW3 2846   3.723   4.341   1.189  0.1138  0.0763  0.4380
  698SOL    MW4 2847   3.794   4.379   1.222  0.2184  0.2756 -0.0134
  699SOL     OW 2848   4.241   4.620   1.133  0.1781  0.1489 -0.1644
  699SOL    HW2 2849   4.249   4.540   1.184 -0.7040 -1.2873 -2.1971
  699SOL    HW3 2850   4.168   4.667   1.172  0.4852 -0.1990  0.8273
  699SOL    MW4 2851   4.233   4.616   1.145  0.1025 -0.0863 -0.3017
  700SOL     OW 2852   4.053   0.110   1.262  0.1047  0.5419 -0.6311
  700SOL    HW2 2853   4.061   0.096   1.357 -0.5487  0.2363 -0.6224
  700SOL    HW3 2854   3.974   0.063   1.237 -0.9508  2.4432 -0.9634
  700SOL    MW4 2855   4.044   0.102   1.271 -0.1211  0.7524 -0.6737
  701SOL     OW 2856   4.019   0.384   1.173  0.3781  0.2103 -0.3208
  701SOL    HW2 2857   4.010   0.298   1.213 -0.4340  0.1449 -0.6250
  701SOL    HW3 2858   4.056   0.367   1.087 -0.5563  0.0769 -0.7064
  701SOL    MW4 2859   4.022   0.371   1.167  0.1478  0.1841 -0.4116
  702SOL     OW 2860   4.226   0.542   1.246 -0.2090 -0.2277 -0.0193
  702SOL    HW2 2861   4.235   0.512   1.336 -0.2454 -0.6324 -0.1509
  702SOL    HW3 2862   4.147   0.500   1.213  0.3849 -0.9261 -0.5739
  702SOL    MW4 2863   4.217   0.533   1.253 -0.1359 -0.3732 -0.1097
  703SOL     OW 2864   4.287   0.777   1.125 -0.2090  0.0315  0.0169
  703SOL    HW2 2865   4.266   0.691   1.163  0.4921 -0.4020 -0.5604
  703SOL    HW3 2866   4.268   0.766   1.032 -1.1245  0.8345  0.1019
  703SOL    MW4 2867   4.282   0.764   1.118 -0.2375  0.0802 -0.0482
  704SOL     OW 2868   4.040   0.885   1.223 -0.0264 -0.1171  0.4646
  704SOL    HW2 2869   4.031   0.913   1.314  1.6489  1.9150  0.0563
  704SOL    HW3 2870   4.132   0.860   1.214 -0.5043 -1.6794 -0.3174
  704SOL    MW4 2871   4.051   0.886   1.234  0.1316 -0.0551  0.3076
  705SOL     OW 2872   4.070   1.137   1.115  0.0063  0.2104 -0.3830
  705SOL    HW2 2873   4.057   1.045   1.139 -1.5686  0.6401  0.4241
  705SOL    HW3 2874   3.996   1.183   1.154  0.2756  1.6944 -1.6002
  705SOL    MW4 2875   4.059   1.131   1.124 -0.1659  0.4630 -0.4370
  706SOL     OW 2876   4.265   1.318   1.208 -0.4031  0.3902  0.1952
  706SOL    HW2 2877   4.276   1.302   1.302 -0.5634  0.5228  0.2376
  706SOL    HW3 2878   4.195   1.259   1.181  1.6475 -1.8124 -0.4644
  706SOL    MW4 2879   4.257   1.308   1.217 -0.1535  0.1172  0.1138
  707SOL     OW 2880   4.264   1.573   1.142  0.3712  0.0984 -0.0875
  707SOL    HW2 2881   4.271   1.481   1.167 -0.4139 -0.2400 -1.0853
  707SOL    HW3 2882   4.344   1.614   1.176 -0.7845 -0.2772  3.2629
  707SOL    MW4 2883   4.275   1.567   1.150  0.1149  0.0042  0.2229
  708SOL     OW 2884   4.014   1.712   1.235  0.0293  0.2689 -0.2503
  708SOL    HW2 2885   4.011   1.690   1.328 -1.8028  0.5364 -0.2193
  708SOL    HW3 2886   4.101   1.686   1.207  0.2610 -0.7349  1.3168
  708SOL    MW4 2887   4.025   1.706   1.244 -0.1822  0.1718 -0.0395
  709SOL     OW 2888   4.008   1.973   1.127 -0.0708 -0.0705  0.1628
  709SOL    HW2 2889   3.998   1.882   1.154 -0.1715 -0.3596 -0.8214
  709SOL    HW3 2890   4.014   1.969   1.031 -0.8129  1.0225  0.0663
  709SOL    MW4 2891   4.008   1.961   1.118 -0.1817  0.0356  0.0203
  710SOL     OW 2892   4.267   2.061   1.215 -0.5242 -0.3975  0.2214
  710SOL    HW2 2893   4.275   2.150   1.183 -0.2479 -0.6458 -0.4231
  710SOL    HW3 2894   4.183   2.030   1.182  0.3556 -1.1135 -1.4927
  710SOL    MW4 2895   4.257   2.068   1.206 -0.3719 -0.5250 -0.0899
  711SOL     OW 2896   4.297   2.326   1.155 -0.3271 -0.4957  0.5112
  711SOL    HW2 2897   4.213   2.362   1.182 -0.7782 -1.6105  0.6190
  711SOL    HW3 2898   4.309   2.357   1.065 -0.1459  0.8994  1.0161
  711SOL    MW4 2899   4.288   2.334   1.146 -0.3629 -0.4587  0.5919
  712SOL     OW 2900   4.056   2.454   1.242  0.3542 -0.0396 -0.2688
  712SOL    HW2 2901   4.056   2.442   1.337 -1.1113  1.3418 -0.0813
  712SOL    HW3 2902   4.081   2.545   1.229  0.3772 -0.1704 -1.2130
  712SOL    MW4 2903   4.060   2.464   1.253  0.1640  0.1254 -0.3687
  713SOL     OW 2904   4.112   2.720   1.189 -0.2375 -0.3096 -0.2160
  713SOL    HW2 2905   4.029   2.756   1.218  0.4122 -0.1319  1.5190
  713SOL    HW3 2906   4.107   2.719   1.093 -1.5344  1.3189 -0.1810
  713SOL    MW4 2907   4.101   2.725   1.180 -0.3228 -0.0713  0.0175
  714SOL     OW 2908   4.358   2.856   1.244 -0.2506  0.9018 -0.3759
  714SOL    HW2 2909   4.346   2.944   1.210  0.1528  1.7076  1.5243
  714SOL    HW3 2910   4.273   2.814   1.232 -0.5653  1.6898 -0.9027
  714SOL    MW4 2911   4.345   2.862   1.238 -0.2389  1.1120 -0.1947
  715SOL     OW 2912   4.322   3.104   1.137 -0.1363 -0.0586 -0.2774
  715SOL    HW2 2913   4.240   3.146   1.161 -0.8540 -0.9013 -1.1803
  715SOL    HW3 2914   4.312   3.084   1.043  0.9750 -0.4247 -0.3268
  715SOL    MW4 2915   4.310   3.107   1.128 -0.0839 -0.2184 -0.4030
  716SOL     OW 2916   4.092   3.219   1.254 -0.4674 -0.2262 -0.4549
  716SOL    HW2 2917   4.097   3.211   1.349  1.3947 -2.1621 -0.6704
  716SOL    HW3 2918   4.012   3.172   1.231 -1.2139  0.7124  0.1974
  716SOL    MW4 2919   4.082   3.212   1.264 -0.3200 -0.3581 -0.3974
  717SOL     OW 2920   4.078   3.474   1.160  0.0796  0.0765 -0.1737
  717SOL    HW2 2921   4.098   3.388   1.197  0.9674 -0.6995 -2.3755
  717SOL    HW3 2922   3.989   3.492   1.189 -0.2750 -1.7980 -0.0232
  717SOL    MW4 2923   4.069   3.465   1.168  0.1507 -0.2730 -0.4444
  718SOL     OW 2924   4.329   3.607   1.245  0.3666 -0.3446 -0.3873
  718SOL    HW2 2925   4.252   3.556   1.221 -0.0091  0.5949 -1.2081
  718SOL    HW3 2926   4.398   3.575   1.188  0.1692 -0.0622 -0.7927
  718SOL    MW4 2927   4.328   3.596   1.235  0.2913 -0.1836 -0.5490
  719SOL     OW 2928   4.228   3.839   1.104 -0.2304 -0.3051  0.3873
  719SOL    HW2 2929   4.152   3.883   1.143 -0.1373  0.8763 -0.7302
  719SOL    HW3 2930   4.234   3.756   1.152  1.2190  2.0113  4.4859
  719SOL    MW4 2931   4.218   3.834   1.116 -0.0267  0.1559  0.7806
  720SOL     OW 2932   4.029   3.981   1.230  0.1983 -0.2656  0.3120
  720SOL    HW2 2933   4.027   4.073   1.207  0.0976 -0.3229  0.0892
  720SOL    HW3 2934   3.937   3.954   1.230  0.2477 -0.4417  0.0587
  720SOL    MW4 2935   4.016   3.989   1.227  0.1917 -0.2966  0.2490
  721SOL     OW 2936   4.036   4.251   1.132  0.0862 -0.3038 -0.3276
  721SOL    HW2 2937   3.959   4.306   1.144  0.2222 -0.3977  1.0700
  721SOL    HW3 2938   4.039   4.233   1.038 -2.0044 -0.9217 -0.2833
  721SOL    MW4 2939   4.026   4.256   1.121 -0.1717 -0.3977 -0.1373
  722SOL     OW 2940   4.276   4.334   1.247 -0.4856 -0.1626 -0.1254
  722SOL    HW2 2941   4.201   4.282   1.220 -0.4066 -1.2201  1.6311
  722SOL    HW3 2942   4.348   4.303   1.191 -1.0870  0.0659 -1.0313
  722SOL    MW4 2943   4.276   4.323   1.236 -0.5550 -0.2713 -0.0132
  723SOL     OW 2944   0.234   4.611   1.615 -0.2946 -0.3458  0.4769
  723SOL    HW2 2945   0.287   4.677   1.570 -1.2539  0.8595  1.0623
  723SOL    HW3 2946   0.144   4.633   1.591 -0.5908 -1.7806  0.2589
  723SOL    MW4 2947   0.229   4.623   1.606 -0.4603 -0.3762  0.5254
  724SOL     OW 2948   0.007   0.081   1.526 -0.1260  0.2217  0.3784
  724SOL    HW2 2949  -0.067   0.047   1.576  0.0323  0.8039  1.0106
  724SOL    HW3 2950  -0.022   0.077   1.435  0.3610 -2.7904  0.3171
  724SOL    MW4 2951  -0.006   0.076   1.521 -0.0409 -0.0989  0.4537
  725SOL     OW 2952   0.011   0.346   1.618 -0.3731 -0.2239 -0.0078
  725SOL    HW2 2953   0.023   0.342   1.713 -1.6888  1.2856  0.2313
  725SOL    HW3 2954   0.006   0.254   1.591  0.2192 -0.6640  1.3526
  725SOL    MW4 2955   0.012   0.333   1.627 -0.4686 -0.0828  0.2034
  726SOL     OW 2956   0.216   0.489   1.499  0.3886 -0.3610  0.4526
  726SOL    HW2 2957   0.140   0.442   1.535  0.9469 -1.7267 -0.1119
  726SOL    HW3 2958   0.197   0.496   1.406 -0.3654  1.8606  0.7449
  726SOL    MW4 2959   0.203   0.483   1.492  0.3628 -0.2480  0.4166
  727SOL     OW 2960   0.233   0.751   1.570 -0.3580  0.3709  0.4702
  727SOL    HW2 2961   0.313   0.782   1.527 -1.0339  0.9940 -0.3417
  727SOL    HW3 2962   0.227   0.659   1.545 -0.2063  0.4696  0.0745
  727SOL    MW4 2963   0.243   0.743   1.561 -0.4272  0.4661  0.3108
  728SOL     OW 2964   4.483   0.881   1.503 -0.0344 -0.2710 -0.1036
  728SOL    HW2 2965   4.490   0.965   1.548  0.2890 -0.6950  0.6446
  728SOL    HW3 2966   4.565   0.836   1.522 -0.7981 -1.3605  0.7543
  728SOL    MW4 2967   4.494   0.886   1.512 -0.0935 -0.4706  0.1082
  729SOL     OW 2968   0.005   1.152   1.633 -0.4147  0.0700 -0.2214
  729SOL    HW2 2969  -0.001   1.158   1.728 -1.3570 -1.0701 -0.1969
  729SOL    HW3 2970   0.071   1.217   1.608  0.2338 -0.0077  1.2648
  729SOL    MW4 2971   0.013   1.161   1.642 -0.4535 -0.0906 -0.0221
  730SOL     OW 2972   0.243   1.305   1.524 -0.4618 -0.0299  0.2400
  730SOL    HW2 2973   0.239   1.401   1.527 -0.9511 -0.0486  0.1565
  730SOL    HW3 2974   0.251   1.285   1.431 -0.0609 -0.0607  0.2785
  730SOL    MW4 2975   0.244   1.315   1.512 -0.4735 -0.0364  0.2341
  731SOL     OW 2976   0.222   1.575   1.599 -0.1682  0.5532  0.4402
  731SOL    HW2 2977   0.239   1.559   1.692  1.5119 -0.4812 -0.0275
  731SOL    HW3 2978   0.137   1.618   1.597 -0.7292 -0.4246  2.3946
  731SOL    MW4 2979   0.213   1.578   1.611 -0.0205  0.2877  0.6362
  732SOL     OW 2980   4.442   1.664   1.534  0.7753  0.0648  0.0596
  732SOL    HW2 2981   4.455   1.752   1.567  0.6963  0.6197 -1.3613
  732SOL    HW3 2982   4.460   1.670   1.440 -0.2437 -1.2114 -0.2370
  732SOL    MW4 2983   4.446   1.676   1.526  0.6304 -0.0305 -0.1670
  733SOL     OW 2984   4.489   1.927   1.610 -0.2311 -0.1629 -0.3893
  733SOL    HW2 2985   4.472   1.908   1.702  0.4656 -0.2477 -0.2705
  733SOL    HW3 2986   4.407   1.962   1.577 -0.5337 -0.2785  0.2285
  733SOL    MW4 2987   4.476   1.929   1.618 -0.1791 -0.1894 -0.2919
  734SOL     OW 2988   0.226   2.069   1.518  0.5685 -0.2227  0.0808
  734SOL    HW2 2989   0.148   2.019   1.543  0.7678 -0.8610 -0.5465
  734SOL    HW3 2990   0.232   2.059   1.423  0.9049  0.5801  0.0130
  734SOL    MW4 2991   0.217   2.061   1.509  0.6392 -0.2010 -0.0108
  735SOL     OW 2992   0.209   2.320   1.617 -0.4846  0.6893  0.2322
  735SOL    HW2 2993   0.210   2.304   1.712  0.0660  1.2833  0.3264
  735SOL    HW3 2994   0.204   2.232   1.579  0.5646  0.3686  0.7954
  735SOL    MW4 2995   0.209   2.306   1.625 -0.2736  0.7255  0.3189
  736SOL     OW 2996   4.467   2.421   1.510 -0.3915  0.0121  0.1245
  736SOL    HW2 2997   4.381   2.389   1.538  0.0672 -1.7264 -0.3903
  736SOL    HW3 2998   4.529   2.370   1.561  0.3591  1.1960  0.4211
  736SOL    MW4 2999   4.464   2.410   1.520 -0.2322 -0.0608  0.0956
  737SOL     OW 3000   0.007   2.686   1.615  0.1335 -0.1977 -0.2995
  737SOL    HW2 3001  -0.060   2.744   1.580 -0.6091 -0.7890  0.1291
  737SOL    HW3 3002  -0.013   2.600   1.578  0.4233 -0.4515  0.1228
  737SOL    MW4 3003  -0.004   2.682   1.606  0.0739 -0.3092 -0.1870
  738SOL     OW 3004   0.227   2.824   1.534 -0.0983  0.5777  0.0007
  738SOL    HW2 3005   0.302   2.772   1.560 -0.7085 -0.1767  0.2771
  738SOL    HW3 3006   0.153   2.782   1.578 -0.5800  1.7237  0.2944
  738SOL    MW4 3007   0.227   2.812   1.543 -0.2424  0.6294  0.0759
  739SOL     OW 3008   0.296   3.073   1.608 -0.1266 -0.2698 -0.2580
  739SOL    HW2 3009   0.226   3.127   1.572  0.2480  0.1830 -0.3166
  739SOL    HW3 3010   0.276   2.985   1.578  0.8810  0.2938 -2.6720
  739SOL    MW4 3011   0.284   3.069   1.599  0.0558 -0.1359 -0.5841
  740SOL     OW 3012   0.081   3.213   1.503 -0.4209  0.1259  0.4336
  740SOL    HW2 3013   0.065   3.303   1.534 -2.1085 -0.0740  0.1650
  740SOL    HW3 3014   0.076   3.219   1.408  0.5135 -0.0737  0.3623
  740SOL    MW4 3015   0.078   3.226   1.495 -0.5203  0.0734  0.3889
  741SOL     OW 3016   4.484   3.450   1.627 -0.3204 -0.3623  0.7038
  741SOL    HW2 3017   4.473   3.465   1.721  0.1341 -1.9673  1.0384
  741SOL    HW3 3018   4.401   3.476   1.588 -0.3812  0.6594  1.5108
  741SOL    MW4 3019   4.471   3.455   1.635 -0.2685 -0.4392  0.8544
  742SOL     OW 3020   0.209   3.577   1.524 -0.5185  0.1393  0.2416
  742SOL    HW2 3021   0.218   3.666   1.557  1.9732  0.2340 -0.5634
  742SOL    HW3 3022   0.133   3.541   1.570 -0.1067  1.8697  2.3399
  742SOL    MW4 3023   0.200   3.584   1.534 -0.1354  0.3803  0.4122
  743SOL     OW 3024   0.458   3.956   1.517  0.1478 -0.4084 -0.0986
  743SOL    HW2 3025   0.538   3.925   1.558  0.1056  0.0464  0.3227
  743SOL    HW3 3026   0.483   3.970   1.425 -0.0252 -2.4168 -0.4971
  743SOL    MW4 3027   0.472   3.953   1.510  0.1194 -0.6135 -0.0957
  744SOL     OW 3028   0.007   3.941   1.509  0.3049 -0.2577  0.1246
  744SOL    HW2 3029   0.002   4.036   1.509  1.6481 -0.1616 -1.5301
  744SOL    HW3 3030   0.096   3.921   1.536 -0.3381 -1.0891  1.6632
  744SOL    MW4 3031   0.018   3.951   1.512  0.3972 -0.3548  0.1093
  745SOL     OW 3032   0.017   4.218   1.555 -1.0865 -0.0301 -0.1821
  745SOL    HW2 3033  -0.008   4.234   1.647 -3.2253  0.2237 -0.7810
  745SOL    HW3 3034  -0.053   4.260   1.504  0.3237  0.2261 -1.9408
  745SOL    MW4 3035   0.004   4.226   1.561 -1.1821  0.0372 -0.4930
  746SOL     OW 3036   0.252   4.371   1.495  0.6231  0.2473  0.3587
  746SOL    HW2 3037   0.175   4.327   1.531 -1.5544  2.6133 -1.1671
  746SOL    HW3 3038   0.245   4.461   1.527  0.8959  1.3446 -2.4838
  746SOL    MW4 3039   0.241   4.377   1.504  0.3718  0.7043 -0.2178
  747SOL     OW 3040   0.630   4.629   1.569  0.2931 -0.4403 -0.0547
  747SOL    HW2 3041   0.702   4.687   1.543  0.3296 -0.7557 -0.6752
  747SOL    HW3 3042   0.551   4.680   1.552  0.3955  0.4308  1.9302
  747SOL    MW4 3043   0.629   4.644   1.563  0.3114 -0.3672  0.1253
  748SOL     OW 3044   0.417   0.105   1.459 -0.3618 -0.1168  0.2920
  748SOL    HW2 3045   0.434   0.192   1.495  0.3250 -0.4852  0.8715
  748SOL    HW3 3046   0.423   0.116   1.364 -0.1090  0.4309  0.3736
  748SOL    MW4 3047   0.420   0.118   1.451 -0.2378 -0.0932  0.3790
  749SOL     OW 3048   0.437   0.357   1.572  0.1001  0.2307 -0.0226
  749SOL    HW2 3049   0.512   0.402   1.534  0.8087 -1.2781 -0.4510
  749SOL    HW3 3050   0.362   0.412   1.549  0.8438  0.7466 -1.2718
  749SOL    MW4 3051   0.437   0.370   1.564  0.2917  0.0997 -0.2440
  750SOL     OW 3052   0.694   0.510   1.515  0.4235  0.0838  0.2023
  750SOL    HW2 3053   0.685   0.605   1.520 -2.0226 -0.0791 -0.0580
  750SOL    HW3 3054   0.702   0.491   1.421 -0.5498 -0.0451  0.1363
  750SOL    MW4 3055   0.694   0.520   1.503 -0.0277  0.0453  0.1594
  751SOL     OW 3056   0.681   0.782   1.567  0.1385  0.3195 -0.2645
  751SOL    HW2 3057   0.663   0.801   1.659  0.9616  0.4889 -0.1348
  751SOL    HW3 3058   0.762   0.829   1.548 -0.2273  0.5939 -1.1841
  751SOL    MW4 3059   0.689   0.791   1.577  0.1988  0.3780 -0.3687
  752SOL     OW 3060   0.449   0.894   1.457  0.2995 -0.2322 -0.1257
  752SOL    HW2 3061   0.441   0.974   1.509 -0.3973 -0.5980  0.3303
  752SOL    HW3 3062   0.525   0.849   1.494  1.4139  0.7801 -1.1499
  752SOL    MW4 3063   0.458   0.899   1.469  0.3546 -0.1469 -0.2006
  753SOL     OW 3064   0.444   1.125   1.612  0.0927 -0.1359  0.2208
  753SOL    HW2 3065   0.527   1.169   1.590 -0.2245  1.3367  1.9315
  753SOL    HW3 3066   0.377   1.191   1.598 -0.6274 -0.7952  0.5310
  753SOL    MW4 3067   0.446   1.139   1.607 -0.0441 -0.0287  0.4876
  754SOL     OW 3068   0.665   1.262   1.500  0.1326  0.4133  0.5061
  754SOL    HW2 3069   0.643   1.345   1.542 -1.1563  0.0571  0.5583
  754SOL    HW3 3070   0.671   1.283   1.407 -0.7810  0.4614  0.4495
  754SOL    MW4 3071   0.663   1.276   1.493 -0.1581  0.3725  0.5054
  755SOL     OW 3072   0.619   1.521   1.632  0.4191  0.1341  0.0462
  755SOL    HW2 3073   0.690   1.577   1.599 -1.0483  2.2677  0.4299
  755SOL    HW3 3074   0.540   1.561   1.597 -0.5814 -2.7645 -1.1414
  755SOL    MW4 3075   0.618   1.534   1.623  0.0935  0.0331 -0.0598
  756SOL     OW 3076   0.445   1.676   1.488  0.2038 -0.4418  0.4650
  756SOL    HW2 3077   0.447   1.764   1.523  1.2278 -0.9312  1.6604
  756SOL    HW3 3078   0.363   1.638   1.522 -0.4817  0.2033 -0.4583
  756SOL    MW4 3079   0.435   1.682   1.497  0.2485 -0.4213  0.5008
  757SOL     OW 3080   0.448   1.933   1.615  0.1714  0.1406 -0.2199
  757SOL    HW2 3081   0.448   1.933   1.711  0.4231 -0.9467 -0.2199
  757SOL    HW3 3082   0.366   1.977   1.592  0.2140  0.6095  0.4921
  757SOL    MW4 3083   0.437   1.939   1.625  0.2102  0.0589 -0.1260
  758SOL     OW 3084   0.693   2.043   1.547 -0.1812  0.1542  0.2211
  758SOL    HW2 3085   0.758   1.987   1.589  1.3556  2.2481  0.7312
  758SOL    HW3 3086   0.609   2.006   1.572  0.7732 -0.8342  2.0682
  758SOL    MW4 3087   0.691   2.031   1.556  0.1475  0.2999  0.5322
  759SOL     OW 3088   0.673   2.313   1.623 -0.6817  0.1136 -0.2850
  759SOL    HW2 3089   0.596   2.350   1.580 -0.8871 -0.6950 -0.6232
  759SOL    HW3 3090   0.673   2.221   1.597  0.1861  0.0215  0.0230
  759SOL    MW4 3091   0.663   2.306   1.614 -0.5943 -0.0055 -0.2890
  760SOL     OW 3092   0.453   2.415   1.500  0.0585 -0.0710 -0.1849
  760SOL    HW2 3093   0.454   2.502   1.540 -0.3921 -0.4805  0.7336
  760SOL    HW3 3094   0.367   2.380   1.521 -0.3017 -0.1801 -1.7921
  760SOL    MW4 3095   0.442   2.422   1.508 -0.0485 -0.1395 -0.2760
  761SOL     OW 3096   0.440   2.680   1.627 -0.4077  0.0179  0.5408
  761SOL    HW2 3097   0.443   2.681   1.723 -0.5593 -0.8886  0.5554
  761SOL    HW3 3098   0.524   2.718   1.600 -0.0622 -0.3915  1.0331
  761SOL    MW4 3099   0.451   2.685   1.636 -0.3821 -0.1557  0.6077
  762SOL     OW 3100   0.667   2.780   1.522  0.7378 -0.1590 -0.3391
  762SOL    HW2 3101   0.679   2.868   1.559 -0.2201 -0.3253  0.3830
  762SOL    HW3 3102   0.666   2.794   1.427 -1.6847  0.9239 -0.1964
  762SOL    MW4 3103   0.668   2.794   1.514  0.2918 -0.0381 -0.2251
  763SOL     OW 3104   0.695   3.049   1.620  0.4320 -0.3455  0.1676
  763SOL    HW2 3105   0.782   3.084   1.602  0.2853  1.1614  2.2535
  763SOL    HW3 3106   0.635   3.119   1.593  0.0473  0.1980  2.3974
  763SOL    MW4 3107   0.699   3.063   1.614  0.3619 -0.0751  0.7370
  764SOL     OW 3108   0.496   3.246   1.532 -0.0893 -0.3093  0.1121
  764SOL    HW2 3109   0.418   3.201   1.564 -0.7218  1.1438  0.6845
  764SOL    HW3 3110   0.496   3.229   1.437 -1.1331 -0.2884  0.0976
  764SOL    MW4 3111   0.485   3.238   1.523 -0.3105 -0.1147  0.1856
  765SOL     OW 3112   0.466   3.501   1.593 -0.0204 -0.1236  0.0214
  765SOL    HW2 3113   0.483   3.409   1.572 -0.0175 -0.0148 -0.4600
  765SOL    HW3 3114   0.377   3.516   1.564  0.0426  0.0776 -0.0663
  765SOL    MW4 3115   0.457   3.491   1.587 -0.0117 -0.0830 -0.0538
  766SOL     OW 3116   0.692   3.626   1.483 -0.2155  0.2597 -0.0162
  766SOL    HW2 3117   0.748   3.576   1.542 -0.1730 -0.6746 -0.8309
  766SOL    HW3 3118   0.604   3.592   1.500 -0.5028  1.4956  1.0296
  766SOL    MW4 3119   0.688   3.615   1.493 -0.2478  0.2995  0.0142
  767SOL     OW 3120   0.728   3.877   1.605  0.1601 -0.0576 -0.1150
  767SOL    HW2 3121   0.799   3.924   1.560  0.8667 -0.3283  0.7099
  767SOL    HW3 3122   0.729   3.790   1.567  0.0494  0.0399 -0.3432
  767SOL    MW4 3123   0.737   3.872   1.594  0.2388 -0.0806 -0.0362
  768SOL     OW 3124   0.232   3.840   1.615 -0.2055  0.1380  0.2178
  768SOL    HW2 3125   0.232   3.850   1.710 -0.9028 -1.5209  0.4125
  768SOL    HW3 3126   0.318   3.872   1.587  0.6611 -0.9565  1.5893
  768SOL    MW4 3127   0.243   3.845   1.623 -0.1831 -0.2253  0.4244
  769SOL     OW 3128   0.444   4.216   1.618  0.4194  0.3937  0.3069
  769SOL    HW2 3129   0.433   4.128   1.581  0.4134  0.3085  0.5092
  769SOL    HW3 3130   0.385   4.271   1.567  0.9550  0.4191 -0.3020
  769SOL    MW4 3131   0.435   4.212   1.607  0.4893  0.3858  0.2533
  770SOL     OW 3132   0.669   4.359   1.498  0.1759 -0.2362 -0.2825
  770SOL    HW2 3133   0.591   4.315   1.531 -0.6362  0.4485 -1.2681
  770SOL    HW3 3134   0.652   4.452   1.512  0.6853 -0.0629 -0.7763
  770SOL    MW4 3135   0.657   4.366   1.504  0.1360 -0.1230 -0.4777
  771SOL     OW 3136   1.108   4.651   1.610  0.1296 -0.5418 -0.0016
  771SOL    HW2 3137   1.106   4.661   1.705 -0.2818  0.4332 -0.1016
  771SOL    HW3 3138   1.194   4.685   1.584 -0.1236  0.0697 -0.0593
  771SOL    MW4 3139   1.119   4.657   1.619  0.0418 -0.3328 -0.0224
  772SOL     OW 3140   0.869   0.110   1.512 -0.0301  0.4171  0.0711
  772SOL    HW2 3141   0.878   0.200   1.541 -0.6177  0.5964 -0.3023
  772SOL    HW3 3142   0.948   0.066   1.545  2.0169  1.8575 -2.7644
  772SOL    MW4 3143   0.881   0.116   1.520  0.1625  0.6308 -0.3524
  773SOL     OW 3144   0.909   0.373   1.606  0.3239  0.5809  0.1637
  773SOL    HW2 3145   0.919   0.377   1.701  0.6292  0.6057  0.1297
  773SOL    HW3 3146   0.826   0.418   1.589  0.0684  0.2264  0.4534
  773SOL    MW4 3147   0.899   0.379   1.616  0.3304  0.5373  0.1975
  774SOL     OW 3148   1.083   0.526   1.476 -0.3282 -0.1363  0.1140
  774SOL    HW2 3149   1.094   0.605   1.528  0.6144 -0.7400  0.8523
  774SOL    HW3 3150   1.017   0.475   1.523  0.7916 -0.8479  0.9338
  774SOL    MW4 3151   1.076   0.529   1.489 -0.0561 -0.3098  0.3197
  775SOL     OW 3152   1.157   0.769   1.612  0.5140  0.0078  0.1535
  775SOL    HW2 3153   1.157   0.774   1.708  0.4858  0.9677  0.1052
  775SOL    HW3 3154   1.239   0.810   1.586 -0.7806  2.3887 -0.3488
  775SOL    MW4 3155   1.168   0.775   1.621  0.3395  0.4486  0.0808
  776SOL     OW 3156   0.943   0.911   1.524  0.5439  0.3994  0.1620
  776SOL    HW2 3157   1.017   0.862   1.560 -0.5880 -0.8965  0.7872
  776SOL    HW3 3158   0.944   0.892   1.430  1.8388  1.5237 -0.0543
  776SOL    MW4 3159   0.953   0.902   1.516  0.5653  0.3768  0.2160
  777SOL     OW 3160   0.911   1.155   1.621 -0.1688 -0.9120  0.2800
  777SOL    HW2 3161   0.920   1.067   1.585 -0.6825 -0.5100 -0.8763
  777SOL    HW3 3162   0.826   1.186   1.590 -0.7230 -0.6194  2.0622
  777SOL    MW4 3163   0.901   1.148   1.612 -0.3096 -0.8203  0.3626
  778SOL     OW 3164   1.091   1.295   1.461  0.2074  0.5806 -0.3783
  778SOL    HW2 3165   1.174   1.257   1.491  0.4701  1.7430  0.3826
  778SOL    HW3 3166   1.025   1.248   1.512  0.4836  0.6602  0.0574
  778SOL    MW4 3167   1.094   1.284   1.472  0.2785  0.7445 -0.2204
  779SOL     OW 3168   1.084   1.532   1.602 -0.1846  0.4325 -0.3249
  779SOL    HW2 3169   1.173   1.567   1.594  0.2483 -0.0311  2.0825
  779SOL    HW3 3170   1.084   1.453   1.549  1.2602 -0.2843  0.7065
  779SOL    MW4 3171   1.096   1.526   1.594  0.0632  0.2768  0.1287
  780SOL     OW 3172   0.844   1.667   1.530  0.0565 -0.1308 -0.2060
  780SOL    HW2 3173   0.927   1.625   1.551 -0.1296 -0.6661 -0.5404
  780SOL    HW3 3174   0.853   1.694   1.439 -0.7342 -1.6122 -0.7249
  780SOL    MW4 3175   0.856   1.665   1.521 -0.0724 -0.3970 -0.3185
  781SOL     OW 3176   0.889   1.896   1.665 -0.0378 -0.8018  0.1496
  781SOL    HW2 3177   0.954   1.947   1.617 -0.3782  1.0986  1.6420
  781SOL    HW3 3178   0.875   1.818   1.611  1.4093  0.0865 -1.5703
  781SOL    MW4 3179   0.896   1.892   1.652  0.1082 -0.4339  0.1194
  782SOL     OW 3180   1.088   2.030   1.532 -0.1999 -0.8111  0.2614
  782SOL    HW2 3181   1.174   1.989   1.543  0.6391  0.2459 -1.9170
  782SOL    HW3 3182   1.103   2.122   1.553 -0.9693 -0.7526  0.5545
  782SOL    MW4 3183   1.101   2.037   1.536 -0.1905 -0.6638  0.0125
  783SOL     OW 3184   1.156   2.309   1.604  0.2037  0.2221 -0.4057
  783SOL    HW2 3185   1.238   2.342   1.567  0.7638  2.7940  2.8941
  783SOL    HW3 3186   1.088   2.363   1.564  0.5262  0.8623 -0.1042
  783SOL    MW4 3187   1.158   2.321   1.594  0.3201  0.6461  0.0693
  784SOL     OW 3188   0.941   2.444   1.527  0.7462 -0.2878  0.8089
  784SOL    HW2 3189   0.937   2.528   1.572 -0.7307  0.3824 -0.5440
  784SOL    HW3 3190   0.854   2.405   1.542  0.7334 -0.6756 -0.2578
  784SOL    MW4 3191   0.929   2.450   1.535  0.5497 -0.2503  0.4897
  785SOL     OW 3192   0.925   2.693   1.649 -0.1721  0.3426  0.4490
  785SOL    HW2 3193   0.923   2.689   1.744 -0.9364 -0.1449  0.4166
  785SOL    HW3 3194   0.838   2.724   1.624  0.2556  1.1830 -0.0635
  785SOL    MW4 3195   0.913   2.696   1.658 -0.2165  0.3891  0.3772
  786SOL     OW 3196   1.127   2.850   1.529 -0.1411 -0.1061 -0.2120
  786SOL    HW2 3197   1.114   2.943   1.548 -0.0845 -0.2303  0.4344
  786SOL    HW3 3198   1.051   2.807   1.570 -0.3845 -0.3005 -0.8669
  786SOL    MW4 3199   1.115   2.857   1.537 -0.1658 -0.1481 -0.2131
  787SOL     OW 3200   1.100   3.123   1.614  0.2105  0.2041 -0.2433
  787SOL    HW2 3201   1.097   3.117   1.710 -0.0300 -0.4644 -0.2907
  787SOL    HW3 3202   1.184   3.163   1.596 -0.0564  1.0168  0.2824
  787SOL    MW4 3203   1.111   3.127   1.624  0.1434  0.2232 -0.1802
  788SOL     OW 3204   0.872   3.228   1.501  0.4018 -0.2556 -0.4311
  788SOL    HW2 3205   0.957   3.191   1.525 -0.3564 -2.6623 -1.2794
  788SOL    HW3 3206   0.878   3.240   1.406 -1.0793 -2.9495 -0.9213
  788SOL    MW4 3207   0.884   3.225   1.492  0.1063 -0.9286 -0.6076
  789SOL     OW 3208   0.893   3.468   1.627  0.4629 -0.3780  0.3983
  789SOL    HW2 3209   0.983   3.498   1.611  0.3346 -0.2353 -0.0713
  789SOL    HW3 3210   0.891   3.379   1.591 -0.3666  0.6370 -2.2302
  789SOL    MW4 3211   0.905   3.461   1.620  0.3365 -0.2255 -0.0105
  790SOL     OW 3212   1.158   3.592   1.541  0.3214 -0.2517  0.5307
  790SOL    HW2 3213   1.236   3.536   1.543  0.6588  0.2270  0.6830
  790SOL    HW3 3214   1.156   3.627   1.452 -0.1071 -0.8056  0.3159
  790SOL    MW4 3215   1.168   3.589   1.529  0.3093 -0.2618  0.5225
  791SOL     OW 3216   1.154   3.858   1.606 -0.2707 -0.2007  0.0734
  791SOL    HW2 3217   1.228   3.900   1.563 -0.4686 -0.8186 -0.8915
  791SOL    HW3 3218   1.173   3.764   1.600 -0.6233 -0.3168  0.7370
  791SOL    MW4 3219   1.166   3.851   1.600 -0.3433 -0.2973  0.0337
  792SOL     OW 3220   0.953   4.002   1.478  0.0785 -0.4479  0.0267
  792SOL    HW2 3221   0.952   4.074   1.540 -0.5269 -0.9144  0.5647
  792SOL    HW3 3222   0.991   3.928   1.526  0.0796 -0.6746 -0.3109
  792SOL    MW4 3223   0.958   4.001   1.492 -0.0013 -0.5398  0.0530
  793SOL     OW 3224   0.908   4.251   1.621  0.2439  0.1232 -0.2686
  793SOL    HW2 3225   0.898   4.272   1.714  0.3846  0.0777 -0.2430
  793SOL    HW3 3226   0.825   4.278   1.582 -0.2650 -0.9057  0.0597
  793SOL    MW4 3227   0.896   4.257   1.628  0.1952 -0.0191 -0.2218
  794SOL     OW 3228   1.121   4.402   1.506  0.1761  0.1445  0.3100
  794SOL    HW2 3229   1.053   4.347   1.545 -0.3572  0.6720  0.1403
  794SOL    HW3 3230   1.114   4.485   1.553  0.5930  0.2565  0.1762
  794SOL    MW4 3231   1.111   4.406   1.517  0.1608  0.2284  0.2700
  795SOL     OW 3232   1.571   4.633   1.594 -0.6009 -0.2380  0.6347
  795SOL    HW2 3233   1.571   4.633   1.690 -0.2350  1.4793  0.6422
  795SOL    HW3 3234   1.487   4.672   1.570 -0.2082  0.3894  0.2668
  795SOL    MW4 3235   1.560   4.638   1.603 -0.5009  0.0715  0.5872
  796SOL     OW 3236   1.335   0.120   1.534 -0.3252  0.2472 -0.7570
  796SOL    HW2 3237   1.334   0.210   1.565  0.9936  0.0118  0.0227
  796SOL    HW3 3238   1.354   0.127   1.440 -0.7231  0.7968 -0.7945
  796SOL    MW4 3239   1.338   0.133   1.526 -0.2037  0.2886 -0.6591
  797SOL     OW 3240   1.318   0.386   1.590 -0.1962 -0.2220  0.0446
  797SOL    HW2 3241   1.396   0.430   1.557  0.4328 -1.0567  0.4195
  797SOL    HW3 3242   1.246   0.443   1.563  0.5444  0.6152 -0.1929
  797SOL    MW4 3243   1.319   0.400   1.582 -0.0156 -0.2217  0.0628
  798SOL     OW 3244   1.547   0.549   1.502 -0.0199  0.3305  0.5666
  798SOL    HW2 3245   1.619   0.494   1.534 -2.2875 -2.8686  0.4564
  798SOL    HW3 3246   1.569   0.566   1.410 -0.1568 -2.0763  0.0401
  798SOL    MW4 3247   1.559   0.544   1.494 -0.3372 -0.4091  0.4827
  799SOL     OW 3248   1.622   0.786   1.649 -0.2056  0.4710 -0.3427
  799SOL    HW2 3249   1.615   0.782   1.745  0.0403 -0.4349 -0.3605
  799SOL    HW3 3250   1.610   0.695   1.620  1.5114  0.4521 -1.0420
  799SOL    MW4 3251   1.619   0.773   1.658  0.0533  0.3490 -0.4374
  800SOL     OW 3252   1.393   0.909   1.526 -0.5788 -0.6530  0.3546
  800SOL    HW2 3253   1.461   0.861   1.573 -0.4613 -0.8180  0.0189
  800SOL    HW3 3254   1.400   0.879   1.436 -3.1300 -2.9669  0.8586
  800SOL    MW4 3255   1.403   0.899   1.520 -0.9000 -0.9801  0.3767
  801SOL     OW 3256   1.355   1.174   1.598  0.0280 -0.0864 -0.0714
  801SOL    HW2 3257   1.363   1.171   1.694  0.0335 -2.1333 -0.1041
  801SOL    HW3 3258   1.343   1.082   1.573  0.0275  0.4403 -2.0415
  801SOL    MW4 3259   1.355   1.161   1.608  0.0287 -0.2871 -0.3358
  802SOL     OW 3260   1.587   1.292   1.470 -0.4285  0.3826 -0.2864
  802SOL    HW2 3261   1.504   1.254   1.500 -0.0831  1.0953  1.6288
  802SOL    HW3 3262   1.572   1.311   1.378 -2.0993 -0.3317 -0.1867
  802SOL    MW4 3263   1.574   1.290   1.462 -0.6033  0.3824 -0.0205
  803SOL     OW 3264   1.585   1.533   1.602  0.7941 -0.2208 -0.2448
  803SOL    HW2 3265   1.616   1.539   1.692  0.5768 -0.3217 -0.1641
  803SOL    HW3 3266   1.587   1.439   1.581 -0.4958 -0.3389  0.1239
  803SOL    MW4 3267   1.590   1.521   1.611  0.5952 -0.2497 -0.1855
  804SOL     OW 3268   1.335   1.660   1.519  0.0914  0.0325 -0.0276
  804SOL    HW2 3269   1.419   1.621   1.542  0.5814  0.9967 -0.1119
  804SOL    HW3 3270   1.329   1.651   1.424  0.5581  0.8241 -0.1389
  804SOL    MW4 3271   1.345   1.654   1.509  0.2178  0.2642 -0.0533
  805SOL     OW 3272   1.344   1.938   1.588 -0.2558 -0.2525 -0.3238
  805SOL    HW2 3273   1.345   1.937   1.684  0.3892  0.0073 -0.3223
  805SOL    HW3 3274   1.340   1.846   1.564 -1.8628 -0.2624 -0.0455
  805SOL    MW4 3275   1.344   1.926   1.598 -0.3828 -0.2195 -0.2868
  806SOL     OW 3276   1.584   2.032   1.503 -0.0236 -0.3745  0.2442
  806SOL    HW2 3277   1.502   1.990   1.528 -0.3266 -0.8113 -1.4322
  806SOL    HW3 3278   1.595   2.010   1.410  1.4694  0.5267  0.1923
  806SOL    MW4 3279   1.575   2.024   1.494  0.1333 -0.3130  0.0162
  807SOL     OW 3280   1.575   2.299   1.612  0.3544 -0.2973  0.1486
  807SOL    HW2 3281   1.648   2.349   1.574  0.4857 -0.2580  0.4536
  807SOL    HW3 3282   1.585   2.211   1.575  0.5221 -0.2756  0.1394
  807SOL    MW4 3283   1.586   2.294   1.602  0.3940 -0.2892  0.1876
  808SOL     OW 3284   1.379   2.406   1.455  0.0898 -0.1951 -0.1747
  808SOL    HW2 3285   1.371   2.492   1.497  0.2133  1.0570 -2.6346
  808SOL    HW3 3286   1.452   2.365   1.500  0.5436  1.3084  0.5127
  808SOL    MW4 3287   1.387   2.412   1.467  0.1659  0.1686 -0.4086
  809SOL     OW 3288   1.337   2.674   1.565  0.0869  0.0058  0.0316
  809SOL    HW2 3289   1.418   2.725   1.564  0.4458 -0.5621  0.0920
  809SOL    HW3 3290   1.268   2.738   1.551  0.5711  0.4540 -0.2927
  809SOL    MW4 3291   1.339   2.689   1.563  0.1982 -0.0103 -0.0031
  810SOL     OW 3292   1.585   2.803   1.511  0.0277 -0.4766 -0.3084
  810SOL    HW2 3293   1.651   2.754   1.560  0.1657  1.4688  1.5086
  810SOL    HW3 3294   1.610   2.792   1.420  0.9806 -2.4373  0.1709
  810SOL    MW4 3295   1.597   2.795   1.506  0.1717 -0.4785 -0.0055
  811SOL     OW 3296   1.606   3.067   1.606 -0.2507 -0.0802 -0.7106
  811SOL    HW2 3297   1.678   3.116   1.566  1.1885 -1.2049  0.4011
  811SOL    HW3 3298   1.616   2.978   1.573  0.6396 -0.8963  1.6507
  811SOL    MW4 3299   1.617   3.062   1.597  0.0566 -0.3362 -0.2521
  812SOL     OW 3300   1.377   3.181   1.542 -0.1814  0.3650 -0.1168
  812SOL    HW2 3301   1.394   3.270   1.573 -0.5717  0.1796  0.6630
  812SOL    HW3 3302   1.452   3.130   1.572 -0.4175  0.2449  0.2821
  812SOL    MW4 3303   1.389   3.186   1.550 -0.2642  0.3242  0.0387
  813SOL     OW 3304   1.381   3.444   1.607 -0.0717 -0.0037 -0.1609
  813SOL    HW2 3305   1.377   3.446   1.703 -1.8799 -1.2667 -0.1659
  813SOL    HW3 3306   1.454   3.500   1.584  0.1632  0.5922  1.9592
  813SOL    MW4 3307   1.390   3.451   1.617 -0.2794 -0.0918  0.1181
  814SOL     OW 3308   1.580   3.636   1.523 -0.3185 -0.0552  0.4855
  814SOL    HW2 3309   1.604   3.723   1.556  0.3242  0.0611 -0.2787
  814SOL    HW3 3310   1.603   3.638   1.431  1.6341 -1.7239  0.8853
  814SOL    MW4 3311   1.586   3.648   1.516  0.0240 -0.2601  0.4375
  815SOL     OW 3312   1.620   3.871   1.651  0.2864  0.0475 -0.0060
  815SOL    HW2 3313   1.590   3.875   1.742 -0.2940 -1.1841 -0.1511
  815SOL    HW3 3314   1.546   3.901   1.599 -0.5357 -2.4366 -0.3177
  815SOL    MW4 3315   1.606   3.876   1.656  0.1013 -0.4427 -0.0663
  816SOL     OW 3316   1.391   3.997   1.523  0.2030 -0.1177  0.4027
  816SOL    HW2 3317   1.379   4.088   1.550  0.3508 -0.5621  2.0654
  816SOL    HW3 3318   1.398   4.000   1.428  0.1728  1.6037  0.4442
  816SOL    MW4 3319   1.391   4.009   1.514  0.2184  0.0505  0.6275
  817SOL     OW 3320   1.334   4.281   1.622 -0.2757 -0.0249 -0.0827
  817SOL    HW2 3321   1.416   4.302   1.577 -0.4387  0.2451 -0.2569
  817SOL    HW3 3322   1.266   4.321   1.568 -0.6390 -1.4702 -0.7118
  817SOL    MW4 3323   1.336   4.289   1.609 -0.3451 -0.1802 -0.1886
  818SOL     OW 3324   1.564   4.381   1.481  0.1298  0.0979 -0.4301
  818SOL    HW2 3325   1.646   4.346   1.515 -0.2611 -0.1678  0.2427
  818SOL    HW3 3326   1.555   4.467   1.523 -0.6688 -0.5019  0.6109
  818SOL    MW4 3327   1.574   4.388   1.491 -0.0272 -0.0167 -0.2040
  819SOL     OW 3328   2.022   4.660   1.627  0.1068 -0.4422  0.0590
  819SOL    HW2 3329   2.023   4.649   1.722 -0.5082  0.1892  0.1316
  819SOL    HW3 3330   1.948   4.717   1.609 -0.7635 -1.8392 -0.9428
  819SOL    MW4 3331   2.013   4.666   1.637 -0.0892 -0.5431 -0.0637
  820SOL     OW 3332   1.800   0.124   1.513 -0.7380  0.1134  0.1261
  820SOL    HW2 3333   1.721   0.080   1.546  0.2762 -2.2009 -0.4156
  820SOL    HW3 3334   1.802   0.103   1.420 -1.3552  3.1403 -0.5902
  820SOL    MW4 3335   1.789   0.115   1.505 -0.6856  0.2074 -0.0398
  821SOL     OW 3336   1.783   0.426   1.580  0.0933 -0.0388  0.2486
  821SOL    HW2 3337   1.863   0.473   1.557 -0.2371  0.5127  0.2174
  821SOL    HW3 3338   1.799   0.336   1.551 -0.2356  0.5876 -1.9417
  821SOL    MW4 3339   1.796   0.420   1.573  0.0063  0.1166 -0.0443
  822SOL     OW 3340   2.027   0.536   1.499 -0.1608 -0.4392 -0.0270
  822SOL    HW2 3341   2.096   0.499   1.554 -1.0052 -0.4952  1.0378
  822SOL    HW3 3342   2.004   0.618   1.542 -1.9595 -1.2613  0.6609
  822SOL    MW4 3343   2.033   0.542   1.512 -0.5097 -0.5550  0.2044
  823SOL     OW 3344   2.036   0.803   1.581 -0.2277 -0.1739 -0.2602
  823SOL    HW2 3345   2.117   0.852   1.569 -0.4119  0.2002 -0.0122
  823SOL    HW3 3346   1.967   0.866   1.559 -0.4509 -0.4515 -0.3535
  823SOL    MW4 3347   2.037   0.818   1.577 -0.2813 -0.1612 -0.2398
  824SOL     OW 3348   1.808   0.935   1.512  0.0743 -0.6740 -0.2749
  824SOL    HW2 3349   1.809   1.023   1.550  0.4026 -0.3664 -0.9756
  824SOL    HW3 3350   1.740   0.889   1.561  0.6272 -0.3561  0.8019
  824SOL    MW4 3351   1.799   0.941   1.523  0.1906 -0.5915 -0.2252
  825SOL     OW 3352   1.849   1.198   1.575  0.0512  0.2156  0.6450
  825SOL    HW2 3353   1.913   1.269   1.564  0.2681 -0.2272 -1.0836
  825SOL    HW3 3354   1.774   1.225   1.522  0.2220 -0.9538 -0.1923
  825SOL    MW4 3355   1.848   1.211   1.567  0.1023  0.0030  0.3064
  826SOL     OW 3356   2.041   1.397   1.523 -0.2383  0.3145 -0.0074
  826SOL    HW2 3357   1.986   1.474   1.536 -0.4964  0.1479 -0.1062
  826SOL    HW3 3358   2.037   1.379   1.429  0.6055  0.7579 -0.1350
  826SOL    MW4 3359   2.033   1.405   1.512 -0.1609  0.3511 -0.0373
  827SOL     OW 3360   2.226   1.603   1.482 -0.8872 -0.0722  0.1919
  827SOL    HW2 3361   2.318   1.580   1.499 -0.4856  0.3529 -1.3570
  827SOL    HW3 3362   2.176   1.538   1.532  0.2344  0.6264  2.3012
  827SOL    MW4 3363   2.232   1.591   1.491 -0.6859  0.0761  0.2660
  828SOL     OW 3364   1.847   1.588   1.545  0.1307 -0.3668 -0.4769
  828SOL    HW2 3365   1.754   1.568   1.549  0.8567 -4.0796 -0.1501
  828SOL    HW3 3366   1.861   1.619   1.455 -1.1295 -1.4647 -1.0638
  828SOL    MW4 3367   1.837   1.589   1.534  0.0602 -1.0016 -0.5113
  829SOL     OW 3368   1.791   1.858   1.631 -0.4991 -0.4677  0.2972
  829SOL    HW2 3369   1.803   1.768   1.601 -1.7633 -0.8133  0.8022
  829SOL    HW3 3370   1.714   1.889   1.582 -1.6376 -0.5272  2.0217
  829SOL    MW4 3371   1.782   1.850   1.620 -0.8161 -0.5211  0.5914
  830SOL     OW 3372   1.996   2.002   1.513 -0.2680 -0.5967 -0.0000
  830SOL    HW2 3373   2.071   1.959   1.553  0.3705  1.2517  0.8390
  830SOL    HW3 3374   1.921   1.976   1.568  0.1734 -0.3336  0.7338
  830SOL    MW4 3375   1.996   1.993   1.526 -0.1256 -0.3182  0.2075
  831SOL     OW 3376   2.005   2.269   1.577 -0.2044 -0.4207  0.3737
  831SOL    HW2 3377   2.024   2.272   1.670  2.5341 -0.9383 -0.1446
  831SOL    HW3 3378   2.011   2.177   1.553 -0.4989 -0.2482 -0.4036
  831SOL    MW4 3379   2.008   2.257   1.586  0.1180 -0.4659  0.2028
  832SOL     OW 3380   1.782   2.417   1.478 -0.7237 -0.1188  0.1374
  832SOL    HW2 3381   1.858   2.360   1.492  0.2029  1.4702  1.7242
  832SOL    HW3 3382   1.779   2.429   1.383  1.8614  0.8780  0.1283
  832SOL    MW4 3383   1.792   2.411   1.467 -0.2605  0.2220  0.3457
  833SOL     OW 3384   1.798   2.653   1.612 -0.3178 -0.4668 -0.4849
  833SOL    HW2 3385   1.874   2.711   1.601  0.1031 -0.9462 -0.0972
  833SOL    HW3 3386   1.828   2.568   1.582 -0.4034 -0.8809  0.5847
  833SOL    MW4 3387   1.812   2.650   1.607 -0.2736 -0.5846 -0.2925
  834SOL     OW 3388   2.025   2.826   1.563 -0.0292  0.3126  0.0458
  834SOL    HW2 3389   2.010   2.919   1.577  0.0224  0.1403  1.3019
  834SOL    HW3 3390   2.035   2.817   1.468 -0.9699  1.4345 -0.1610
  834SOL    MW4 3391   2.025   2.837   1.552 -0.1466  0.4377  0.1843
  835SOL     OW 3392   2.009   3.090   1.610  0.0858 -0.2715 -0.4554
  835SOL    HW2 3393   2.016   3.106   1.704 -0.9786  0.4695 -0.4885
  835SOL    HW3 3394   2.096   3.110   1.576  0.2761  0.1699  0.2726
  835SOL    MW4 3395   2.021   3.095   1.618 -0.0296 -0.1156 -0.3637
  836SOL     OW 3396   1.798   3.227   1.489  0.2423 -0.0941  0.5461
  836SOL    HW2 3397   1.793   3.313   1.532  0.6486  0.1957  0.0320
  836SOL    HW3 3398   1.872   3.184   1.530  1.2271  0.5552 -0.4913
  836SOL    MW4 3399   1.807   3.233   1.500  0.4259  0.0296  0.3413
  837SOL     OW 3400   1.794   3.487   1.603 -0.4955  0.2751 -0.4256
  837SOL    HW2 3401   1.803   3.501   1.697 -0.5425  0.3939 -0.4391
  837SOL    HW3 3402   1.720   3.541   1.577 -0.0530  0.7831 -0.6499
  837SOL    MW4 3403   1.786   3.496   1.612 -0.4432  0.3576 -0.4569
  838SOL     OW 3404   2.041   3.617   1.522 -0.4266  0.4538  0.1672
  838SOL    HW2 3405   2.126   3.574   1.535 -0.1856  0.3491 -1.6478
  838SOL    HW3 3406   1.978   3.557   1.561  0.1522 -0.4029 -0.2029
  838SOL    MW4 3407   2.044   3.603   1.529 -0.3185  0.3271 -0.1211
  839SOL     OW 3408   2.043   3.876   1.612 -0.4597  0.3739  0.0129
  839SOL    HW2 3409   2.122   3.918   1.577 -2.1177  2.0238 -1.8263
  839SOL    HW3 3410   2.041   3.790   1.570  0.4280  0.2621  0.1832
  839SOL    MW4 3411   2.053   3.871   1.602 -0.5610  0.5767 -0.2074
  840SOL     OW 3412   1.809   4.020   1.510  0.2381 -0.3901  0.1550
  840SOL    HW2 3413   1.889   3.977   1.541  1.5422  2.4219  0.8271
  840SOL    HW3 3414   1.741   3.991   1.571  0.9580 -1.8541  0.2915
  840SOL    MW4 3415   1.811   4.010   1.522  0.5051 -0.2117  0.2617
  841SOL     OW 3416   1.815   4.272   1.605 -0.2968 -0.1122 -0.1714
  841SOL    HW2 3417   1.897   4.316   1.582 -0.6110  0.1863 -0.7320
  841SOL    HW3 3418   1.818   4.189   1.556 -0.7941  0.3557 -1.0069
  841SOL    MW4 3419   1.826   4.266   1.595 -0.4038 -0.0114 -0.3555
  842SOL     OW 3420   2.064   4.390   1.505 -0.1389 -0.3634 -0.0730
  842SOL    HW2 3421   2.135   4.352   1.556  1.7032  0.0598 -2.2651
  842SOL    HW3 3422   2.061   4.482   1.531 -0.2156 -0.4960  0.3854
  842SOL    MW4 3423   2.073   4.397   1.515  0.0942 -0.3252 -0.3017
  843SOL     OW 3424   2.447   4.648   1.599  0.0215 -0.0678 -0.0588
  843SOL    HW2 3425   2.443   4.641   1.694  0.1202  0.6311 -0.0005
  843SOL    HW3 3426   2.371   4.701   1.575 -0.1960 -0.5246 -0.4024
  843SOL    MW4 3427   2.436   4.654   1.608  0.0057 -0.0362 -0.0963
  844SOL     OW 3428   2.227   0.138   1.525 -0.1020 -0.0394 -0.5537
  844SOL    HW2 3429   2.157   0.077   1.548 -0.7539  0.5749 -0.8858
  844SOL    HW3 3430   2.237   0.128   1.430  2.0910 -2.0507 -0.1724
  844SOL    MW4 3431   2.219   0.128   1.515  0.1013 -0.2237 -0.5472
  845SOL     OW 3432   2.255   0.411   1.621 -0.0077  0.1108  0.3148
  845SOL    HW2 3433   2.250   0.394   1.715 -1.1600 -0.6289  0.1281
  845SOL    HW3 3434   2.244   0.326   1.580 -0.8189  0.6117 -0.5255
  845SOL    MW4 3435   2.253   0.398   1.628 -0.2666  0.0793  0.1793
  846SOL     OW 3436   2.484   0.507   1.478 -0.0061 -0.0559 -0.5626
  846SOL    HW2 3437   2.549   0.445   1.512 -0.4600 -0.7222 -0.8883
  846SOL    HW3 3438   2.406   0.491   1.532  0.3115  1.2320  0.2940
  846SOL    MW4 3439   2.482   0.496   1.490 -0.0241  0.0262 -0.4925
  847SOL     OW 3440   2.467   0.717   1.664  0.0531  0.0395  0.5696
  847SOL    HW2 3441   2.386   0.757   1.632  0.0327 -1.0942 -0.8476
  847SOL    HW3 3442   2.478   0.640   1.609  1.7097 -0.2153  1.2527
  847SOL    MW4 3443   2.458   0.712   1.652  0.2689 -0.1436  0.4728
  848SOL     OW 3444   2.291   0.922   1.551 -0.0139 -0.0107 -0.1447
  848SOL    HW2 3445   2.257   1.005   1.584  0.3288  0.8218 -1.8752
  848SOL    HW3 3446   2.287   0.929   1.456 -0.6555 -2.2541 -0.3197
  848SOL    MW4 3447   2.286   0.934   1.543 -0.0536 -0.1969 -0.3961
  849SOL     OW 3448   2.237   1.215   1.614  0.4565 -0.0349 -0.5208
  849SOL    HW2 3449   2.237   1.221   1.709  0.1283 -0.6702 -0.4748
  849SOL    HW3 3450   2.154   1.254   1.587  1.0791  1.2436 -0.6321
  849SOL    MW4 3451   2.226   1.221   1.623  0.4957  0.0499 -0.5293
  850SOL     OW 3452   2.466   1.304   1.503  0.1460 -0.0760 -0.1468
  850SOL    HW2 3453   2.385   1.275   1.546  0.4649  0.7277  1.0097
  850SOL    HW3 3454   2.448   1.292   1.409 -1.1610 -0.2886  0.1086
  850SOL    MW4 3455   2.453   1.298   1.496  0.0155  0.0019  0.0395
  851SOL     OW 3456   2.494   1.558   1.578  0.1554  0.0941  0.2276
  851SOL    HW2 3457   2.583   1.590   1.566  1.0575 -1.3313  2.6424
  851SOL    HW3 3458   2.501   1.463   1.568 -0.9300 -0.0992  1.2040
  851SOL    MW4 3459   2.507   1.550   1.575  0.1311 -0.1193  0.6751
  852SOL     OW 3460   2.184   1.663   1.209  0.2040 -0.0575  0.5696
  852SOL    HW2 3461   2.197   1.645   1.302 -0.7047 -1.7223  0.4090
  852SOL    HW3 3462   2.210   1.754   1.198 -1.3167  0.7158  2.8068
  852SOL    MW4 3463   2.189   1.672   1.220 -0.1163 -0.1752  0.8436
  853SOL     OW 3464   2.227   1.866   1.589  0.9309 -0.8361  0.0124
  853SOL    HW2 3465   2.217   1.860   1.684 -1.1356 -0.3571 -0.1575
  853SOL    HW3 3466   2.226   1.775   1.558 -1.3143 -0.9140  0.2032
  853SOL    MW4 3467   2.226   1.853   1.597  0.3624 -0.7833  0.0151
  854SOL     OW 3468   2.451   2.033   1.547  0.5166  0.0297  0.3272
  854SOL    HW2 3469   2.375   1.974   1.551 -0.5831  1.4194  0.3532
  854SOL    HW3 3470   2.483   2.023   1.458 -0.3981  0.2764 -0.0397
  854SOL    MW4 3471   2.445   2.024   1.536  0.2506  0.2453  0.2822
  855SOL     OW 3472   2.428   2.302   1.641  0.0741 -0.0133  0.1122
  855SOL    HW2 3473   2.437   2.301   1.736 -1.1467 -0.7354  0.2329
  855SOL    HW3 3474   2.409   2.211   1.617  3.3788 -0.4528 -1.1499
  855SOL    MW4 3475   2.426   2.290   1.650  0.3493 -0.1664 -0.0384
  856SOL     OW 3476   2.220   2.426   1.499 -0.3769  0.1048  0.1633
  856SOL    HW2 3477   2.287   2.374   1.544 -0.0440  0.5920  0.2459
  856SOL    HW3 3478   2.140   2.375   1.507 -0.2281 -0.0129  0.9533
  856SOL    MW4 3479   2.219   2.413   1.506 -0.3133  0.1538  0.2785
  857SOL     OW 3480   2.247   2.669   1.630  0.4075 -0.0321 -0.0202
  857SOL    HW2 3481   2.222   2.589   1.584 -0.9684  0.5788 -0.3777
  857SOL    HW3 3482   2.181   2.733   1.603 -0.2450  0.4327  2.5325
  857SOL    MW4 3483   2.235   2.667   1.620  0.1400  0.1099  0.2694
  858SOL     OW 3484   2.462   2.785   1.502  0.2793  0.3586 -0.0768
  858SOL    HW2 3485   2.452   2.874   1.537  0.0249  0.4741 -0.4427
  858SOL    HW3 3486   2.391   2.735   1.542  0.5563  0.2664  0.3017
  858SOL    MW4 3487   2.452   2.790   1.512  0.2820  0.3617 -0.0751
  859SOL     OW 3488   2.449   3.030   1.599 -0.2283 -0.7370  0.2921
  859SOL    HW2 3489   2.508   3.105   1.594 -0.5645 -0.3436  2.1542
  859SOL    HW3 3490   2.365   3.062   1.567  0.8186 -1.6365 -3.6342
  859SOL    MW4 3491   2.446   3.044   1.594 -0.1345 -0.8039  0.0198
  860SOL     OW 3492   2.248   3.194   1.499  0.4641 -0.1512  0.0267
  860SOL    HW2 3493   2.257   3.283   1.534 -0.9893  0.4264 -1.0481
  860SOL    HW3 3494   2.272   3.202   1.407  1.5233 -1.1348  0.1952
  860SOL    MW4 3495   2.253   3.207   1.492  0.4120 -0.2048 -0.0930
  861SOL     OW 3496   2.252   3.473   1.588 -0.2379  0.2787  0.0315
  861SOL    HW2 3497   2.260   3.462   1.682 -1.2196  0.7187  0.1749
  861SOL    HW3 3498   2.337   3.507   1.560 -0.4014  1.4677  0.9589
  861SOL    MW4 3499   2.264   3.476   1.597 -0.3891  0.4935  0.1729
  862SOL     OW 3500   2.486   3.610   1.524 -0.2542 -0.0767  0.3644
  862SOL    HW2 3501   2.578   3.592   1.545 -0.4672  0.8773  2.2433
  862SOL    HW3 3502   2.474   3.702   1.549 -1.9827 -0.4852  1.0718
  862SOL    MW4 3503   2.496   3.620   1.530 -0.5102 -0.0045  0.7057
  863SOL     OW 3504   2.480   3.888   1.609 -0.3554 -0.0055  0.3445
  863SOL    HW2 3505   2.488   3.894   1.704  1.2423 -2.4378  0.4010
  863SOL    HW3 3506   2.558   3.932   1.576 -0.8233  0.6854  0.1437
  863SOL    MW4 3507   2.491   3.895   1.617 -0.2065 -0.2351  0.3254
  864SOL     OW 3508   2.259   3.997   1.489  0.0201  0.3059 -0.3993
  864SOL    HW2 3509   2.346   3.968   1.517  0.6865  0.2603 -2.4299
  864SOL    HW3 3510   2.261   3.990   1.394 -2.8845 -1.4880 -0.3814
  864SOL    MW4 3511   2.271   3.993   1.480 -0.2751  0.0632 -0.6648
  865SOL     OW 3512   2.243   4.225   1.634  0.2579  0.5294  0.0536
  865SOL    HW2 3513   2.321   4.271   1.603  0.9767  0.7448  2.0913
  865SOL    HW3 3514   2.245   4.141   1.588  1.6031  0.6140 -0.0516
  865SOL    MW4 3515   2.254   4.220   1.624  0.5302  0.5684  0.3084
  866SOL     OW 3516   2.456   4.381   1.513  0.0151  0.1161 -0.0569
  866SOL    HW2 3517   2.484   4.472   1.525  0.8456 -0.0096 -0.9710
  866SOL    HW3 3518   2.447   4.371   1.419 -0.4350 -0.6456  0.0696
  866SOL    MW4 3519   2.459   4.392   1.502  0.0656 -0.0014 -0.1607
  867SOL     OW 3520   2.901   0.008   1.624 -0.2604  0.4246 -0.3068
  867SOL    HW2 3521   2.892   0.015   1.719 -0.0102  1.5286 -0.3589
  867SOL    HW3 3522   2.815   0.031   1.590 -0.6673 -1.0451 -0.3157
  867SOL    MW4 3523   2.888   0.012   1.632 -0.2811  0.3764 -0.3148
  868SOL     OW 3524   2.666   0.104   1.498  0.3066 -0.3161 -0.2350
  868SOL    HW2 3525   2.662   0.196   1.521 -0.3002 -0.1653 -0.9204
  868SOL    HW3 3526   2.601   0.062   1.554  1.3455 -0.5031  0.8515
  868SOL    MW4 3527   2.657   0.110   1.509  0.3636 -0.3209 -0.1822
  869SOL     OW 3528   2.694   0.368   1.588 -0.4974 -0.0109  0.3392
  869SOL    HW2 3529   2.686   0.387   1.682  0.6599  1.9699  0.0546
  869SOL    HW3 3530   2.778   0.407   1.563  0.3585 -2.5870 -1.0360
  869SOL    MW4 3531   2.704   0.375   1.597 -0.2320 -0.0895  0.1202
  870SOL     OW 3532   2.911   0.503   1.497  0.1184  0.6113 -0.4251
  870SOL    HW2 3533   2.924   0.598   1.499  0.2431  0.6126 -1.3127
  870SOL    HW3 3534   2.895   0.483   1.405 -3.6158  0.2436  0.2559
  870SOL    MW4 3535   2.911   0.513   1.485 -0.3579  0.5630 -0.4523
  871SOL     OW 3536   2.923   0.774   1.602  0.5592 -0.7793 -0.4480
  871SOL    HW2 3537   2.928   0.754   1.696  0.0254  0.8273 -0.0549
  871SOL    HW3 3538   2.830   0.790   1.586  0.8117  0.2278 -0.9695
  871SOL    MW4 3539   2.911   0.773   1.612  0.5224 -0.4344 -0.4650
  872SOL     OW 3540   2.674   0.872   1.539 -0.3336 -0.0929 -0.0044
  872SOL    HW2 3541   2.589   0.838   1.567 -0.5176  1.3356  1.2243
  872SOL    HW3 3542   2.670   0.870   1.444 -1.3599 -0.9548  0.0406
  872SOL    MW4 3543   2.662   0.867   1.530 -0.4933 -0.0182  0.1638
  873SOL     OW 3544   2.689   1.157   1.579 -0.3455  0.0568  0.0225
  873SOL    HW2 3545   2.680   1.062   1.573 -0.2507  0.1015 -1.0566
  873SOL    HW3 3546   2.604   1.191   1.550  0.2717  0.3220 -1.5708
  873SOL    MW4 3547   2.677   1.149   1.574 -0.2515  0.0976 -0.3300
  874SOL     OW 3548   2.912   1.331   1.521  0.1921 -0.3212 -0.7956
  874SOL    HW2 3549   2.990   1.277   1.527  0.2198 -0.1842  0.1142
  874SOL    HW3 3550   2.840   1.273   1.548  0.1096 -0.1568 -0.6600
  874SOL    MW4 3551   2.913   1.316   1.525  0.1848 -0.2816 -0.6577
  875SOL     OW 3552   2.947   1.583   1.686 -0.0316 -0.1133  0.0073
  875SOL    HW2 3553   2.867   1.617   1.644  0.3853  0.5033 -0.2970
  875SOL    HW3 3554   2.963   1.499   1.642 -0.9097 -0.5753  0.5627
  875SOL    MW4 3555   2.938   1.576   1.675 -0.0925 -0.0929  0.0404
  876SOL     OW 3556   2.729   1.692   1.539 -0.3198  0.1487  0.2002
  876SOL    HW2 3557   2.721   1.782   1.571 -0.0577  0.0628  0.5190
  876SOL    HW3 3558   2.734   1.700   1.444 -0.2684  0.4745  0.2296
  876SOL    MW4 3559   2.728   1.705   1.531 -0.2787  0.1804  0.2463
  877SOL     OW 3560   2.706   1.946   1.656  0.0633  0.2722 -0.1086
  877SOL    HW2 3561   2.681   1.933   1.748  0.3694 -0.8002 -0.1669
  877SOL    HW3 3562   2.623   1.963   1.612 -0.3024 -0.9566  0.0877
  877SOL    MW4 3563   2.691   1.947   1.663  0.0556 -0.0316 -0.0906
  878SOL     OW 3564   2.908   2.081   1.561 -0.3796 -0.3011 -0.3979
  878SOL    HW2 3565   2.914   2.170   1.594  0.5861 -0.5795  0.2226
  878SOL    HW3 3566   2.827   2.046   1.598 -1.0050  0.4718 -1.0369
  878SOL    MW4 3567   2.898   2.088   1.570 -0.3347 -0.2358 -0.4004
  879SOL     OW 3568   2.902   2.345   1.616 -0.4371 -0.1795  0.0078
  879SOL    HW2 3569   2.896   2.343   1.712 -0.4530  0.0261  0.0111
  879SOL    HW3 3570   2.814   2.369   1.587 -0.4605 -0.3508 -0.0630
  879SOL    MW4 3571   2.890   2.348   1.625 -0.4423 -0.1750 -0.0010
  880SOL     OW 3572   2.657   2.444   1.539 -0.4623  0.6638 -0.1988
  880SOL    HW2 3573   2.677   2.529   1.578 -2.8144  1.2821 -0.2582
  880SOL    HW3 3574   2.578   2.415   1.585  0.4296 -1.6133 -0.0216
  880SOL    MW4 3575   2.649   2.451   1.550 -0.6554  0.4449 -0.1832
  881SOL     OW 3576   2.698   2.701   1.623  0.6171  0.0927  0.0742
  881SOL    HW2 3577   2.771   2.754   1.591  0.3488  0.3235 -0.1607
  881SOL    HW3 3578   2.620   2.748   1.594  0.3706 -0.9938 -1.0962
  881SOL    MW4 3579   2.698   2.714   1.615  0.5493 -0.0200 -0.1112
  882SOL     OW 3580   2.911   2.852   1.540  0.0571 -0.2432 -0.5877
  882SOL    HW2 3581   2.988   2.810   1.579 -0.5817 -0.4242  0.4997
  882SOL    HW3 3582   2.915   2.942   1.571 -0.0874 -0.2178 -0.6420
  882SOL    MW4 3583   2.922   2.858   1.549 -0.0463 -0.2639 -0.4514
  883SOL     OW 3584   2.917   3.134   1.659  0.0612 -0.2863 -0.1891
  883SOL    HW2 3585   2.957   3.103   1.741  1.1660  0.7121 -0.3398
  883SOL    HW3 3586   2.987   3.182   1.615 -0.9430  0.3863 -1.0637
  883SOL    MW4 3587   2.931   3.136   1.664  0.0741 -0.0660 -0.3244
  884SOL     OW 3588   2.642   3.223   1.578 -0.4749 -0.4657  0.3509
  884SOL    HW2 3589   2.711   3.201   1.641 -0.2023  0.9037  0.5426
  884SOL    HW3 3590   2.685   3.216   1.492  0.0393  0.8647  0.4965
  884SOL    MW4 3591   2.657   3.219   1.575 -0.3710 -0.1094  0.3954
  885SOL     OW 3592   2.722   3.469   1.597  0.3882 -0.4538  0.4516
  885SOL    HW2 3593   2.715   3.489   1.691 -0.8312  0.4041  0.1781
  885SOL    HW3 3594   2.683   3.382   1.588 -2.7157  0.9212  0.2079
  885SOL    MW4 3595   2.716   3.460   1.609 -0.1822 -0.1590  0.3833
  886SOL     OW 3596   2.918   3.653   1.511  0.4657  0.1528  0.3020
  886SOL    HW2 3597   2.845   3.599   1.538 -0.5087  1.0697 -0.4493
  886SOL    HW3 3598   2.925   3.639   1.416 -0.2708  1.8951 -0.0223
  886SOL    MW4 3599   2.910   3.644   1.502  0.2403  0.5035  0.1601
  887SOL     OW 3600   2.920   3.925   1.609  0.2816  0.1267  0.2854
  887SOL    HW2 3601   2.847   3.953   1.554 -0.6516 -0.4701  1.2065
  887SOL    HW3 3602   2.927   3.831   1.594 -0.4476 -0.1747  1.6987
  887SOL    MW4 3603   2.911   3.917   1.600  0.0622  0.0081  0.5933
  888SOL     OW 3604   2.699   4.004   1.481 -0.1732 -0.2698 -0.1537
  888SOL    HW2 3605   2.693   4.094   1.514 -0.7001 -0.5490  0.5172
  888SOL    HW3 3606   2.717   4.014   1.388 -0.5292  0.5360 -0.1391
  888SOL    MW4 3607   2.700   4.017   1.473 -0.2899 -0.2003 -0.0632
  889SOL     OW 3608   2.685   4.252   1.630 -0.2690  0.1983  0.0524
  889SOL    HW2 3609   2.758   4.309   1.605 -0.4307  0.4358  0.1182
  889SOL    HW3 3610   2.606   4.303   1.608 -0.4230  0.8286  1.9719
  889SOL    MW4 3611   2.684   4.267   1.624 -0.3107  0.3128  0.3144
  890SOL     OW 3612   2.913   4.403   1.518 -0.0102 -0.1740 -0.3605
  890SOL    HW2 3613   2.921   4.484   1.568 -0.4132 -0.5476  0.3260
  890SOL    HW3 3614   2.914   4.430   1.427 -0.0987  0.5963 -0.1335
  890SOL    MW4 3615   2.914   4.417   1.513 -0.0751 -0.1221 -0.2400
  891SOL     OW 3616   3.362   0.009   1.582 -0.2342 -0.5491 -0.1968
  891SOL    HW2 3617   3.448   0.047   1.564 -0.5783  0.9163  1.1773
  891SOL    HW3 3618   3.366  -0.078   1.542  1.5915 -0.1879 -0.8683
  891SOL    MW4 3619   3.374   0.003   1.574 -0.0386 -0.3081 -0.1041
  892SOL     OW 3620   3.127   0.090   1.465 -0.1412 -0.1142 -0.2743
  892SOL    HW2 3621   3.209   0.080   1.513 -0.2387  2.1297  0.4074
  892SOL    HW3 3622   3.059   0.069   1.529 -0.1667 -0.2266 -0.3377
  892SOL    MW4 3623   3.129   0.086   1.480 -0.1574  0.1670 -0.1926
  893SOL     OW 3624   3.133   0.333   1.582 -0.1297  0.2642 -0.4143
  893SOL    HW2 3625   3.134   0.251   1.532  0.0803 -0.5987  0.9760
  893SOL    HW3 3626   3.052   0.376   1.556 -1.0101 -1.1192  0.0163
  893SOL    MW4 3627   3.123   0.328   1.572 -0.2179 -0.0322 -0.1740
  894SOL     OW 3628   3.356   0.500   1.530 -0.0046 -0.1835  0.4158
  894SOL    HW2 3629   3.286   0.444   1.560  0.7447 -0.8261  0.9751
  894SOL    HW3 3630   3.358   0.488   1.435 -1.3478  0.6636  0.2722
  894SOL    MW4 3631   3.347   0.491   1.521 -0.0830 -0.1565  0.4706
  895SOL     OW 3632   3.357   0.760   1.619 -0.0095  0.3248 -0.0279
  895SOL    HW2 3633   3.384   0.759   1.711  1.0561  0.6288 -0.3355
  895SOL    HW3 3634   3.359   0.668   1.593  0.7191  0.3425 -0.0442
  895SOL    MW4 3635   3.361   0.748   1.628  0.2275  0.3672 -0.0706
  896SOL     OW 3636   3.141   0.911   1.523 -0.0166 -0.1718 -0.4377
  896SOL    HW2 3637   3.214   0.854   1.549  0.5213  0.6794 -0.0356
  896SOL    HW3 3638   3.063   0.866   1.554  0.3402 -1.1356 -0.9373
  896SOL    MW4 3639   3.141   0.898   1.531  0.1016 -0.1867 -0.4505
  897SOL     OW 3640   3.144   1.182   1.595  0.0928  0.1885 -0.2010
  897SOL    HW2 3641   3.137   1.189   1.690  0.5232  0.9538 -0.2227
  897SOL    HW3 3642   3.135   1.088   1.577  2.2586 -0.2439  0.8105
  897SOL    MW4 3643   3.142   1.170   1.605  0.4354  0.2323 -0.0705
  898SOL     OW 3644   3.367   1.309   1.503 -0.0793  0.1746 -0.3747
  898SOL    HW2 3645   3.293   1.258   1.535  0.9687 -0.2908  1.3408
  898SOL    HW3 3646   3.444   1.264   1.537  0.9802  1.0003 -1.6376
  898SOL    MW4 3647   3.367   1.297   1.512  0.1986  0.2221 -0.3151
  899SOL     OW 3648   3.361   1.566   1.591  0.1689  0.2250  0.1483
  899SOL    HW2 3649   3.364   1.555   1.686  0.3522  2.4301  0.4241
  899SOL    HW3 3650   3.359   1.477   1.556 -0.9283 -0.6017  2.2511
  899SOL    MW4 3651   3.361   1.553   1.599  0.0486  0.4069  0.4621
  900SOL     OW 3652   3.129   1.722   1.528 -0.2844 -0.0178  0.2282
  900SOL    HW2 3653   3.212   1.675   1.539 -0.3676 -0.0433  0.7509
  900SOL    HW3 3654   3.068   1.677   1.586 -0.5460  0.2977  0.1961
  900SOL    MW4 3655   3.132   1.710   1.537 -0.3297  0.0205  0.2930
  901SOL     OW 3656   3.146   1.962   1.655  0.2327  0.2430  0.2230
  901SOL    HW2 3657   3.137   1.877   1.612 -0.9027  0.3824  0.1666
  901SOL    HW3 3658   3.060   2.002   1.646  0.0662  0.4189  2.3426
  901SOL    MW4 3659   3.133   1.956   1.648  0.0610  0.2844  0.4952
  902SOL     OW 3660   3.363   2.055   1.497 -0.1967 -0.3476  0.0918
  902SOL    HW2 3661   3.278   2.029   1.535 -0.9729  0.1824 -1.2555
  902SOL    HW3 3662   3.346   2.060   1.403  0.9297  1.3294 -0.0314
  902SOL    MW4 3663   3.349   2.052   1.490 -0.1507 -0.0563 -0.1023
  903SOL     OW 3664   3.355   2.322   1.584 -0.0318  0.0070  0.7151
  903SOL    HW2 3665   3.443   2.356   1.570  0.3364 -1.1631  0.1179
  903SOL    HW3 3666   3.365   2.227   1.582 -1.0100 -0.1645  2.5755
  903SOL    MW4 3667   3.368   2.314   1.582 -0.1125 -0.1700  0.8817
  904SOL     OW 3668   3.129   2.462   1.480 -0.5039 -0.4415 -0.3263
  904SOL    HW2 3669   3.208   2.418   1.512  0.1353 -0.4317 -1.8324
  904SOL    HW3 3670   3.057   2.418   1.524  0.2480 -1.6989 -0.3402
  904SOL    MW4 3671   3.130   2.451   1.490 -0.3204 -0.6061 -0.5269
  905SOL     OW 3672   3.155   2.716   1.619  0.2012 -0.1193 -0.2006
  905SOL    HW2 3673   3.226   2.750   1.565 -0.4582  0.0831 -0.9429
  905SOL    HW3 3674   3.136   2.630   1.581 -2.2839  1.2463 -2.2140
  905SOL    MW4 3675   3.162   2.709   1.607 -0.2136  0.0877 -0.5642
  906SOL     OW 3676   3.383   2.840   1.524 -0.0422 -0.3550 -0.2583
  906SOL    HW2 3677   3.379   2.931   1.551 -0.4378 -0.1967 -0.8489
  906SOL    HW3 3678   3.404   2.843   1.431  1.1088 -0.8952 -0.0189
  906SOL    MW4 3679   3.385   2.852   1.515  0.0575 -0.4053 -0.3045
  907SOL     OW 3680   3.395   3.117   1.591  0.6393 -0.3044 -0.2512
  907SOL    HW2 3681   3.400   3.113   1.687  1.2881 -0.4270 -0.2877
  907SOL    HW3 3682   3.482   3.148   1.564  0.4411 -0.2197 -0.7988
  907SOL    MW4 3683   3.407   3.121   1.600  0.6986 -0.3095 -0.3283
  908SOL     OW 3684   3.148   3.232   1.552  0.5854 -0.4211 -0.3091
  908SOL    HW2 3685   3.237   3.208   1.578  0.5876 -1.7434 -1.4700
  908SOL    HW3 3686   3.151   3.236   1.456 -0.3744  0.4431 -0.3111
  908SOL    MW4 3687   3.160   3.229   1.542  0.4592 -0.4816 -0.4625
  909SOL     OW 3688   3.145   3.519   1.635  0.5485  0.0315  0.2254
  909SOL    HW2 3689   3.135   3.424   1.626 -0.2489  0.1505 -0.1664
  909SOL    HW3 3690   3.063   3.555   1.603  1.0907  0.8897 -0.2080
  909SOL    MW4 3691   3.133   3.511   1.630  0.5147  0.1605  0.1165
  910SOL     OW 3692   3.380   3.650   1.513 -0.2816  0.2710  0.4087
  910SOL    HW2 3693   3.455   3.598   1.540  0.8329  3.1851  3.2400
  910SOL    HW3 3694   3.304   3.602   1.546  0.6653 -0.2023  1.9316
  910SOL    MW4 3695   3.380   3.637   1.521 -0.0095  0.5932  0.9832
  911SOL     OW 3696   3.364   3.911   1.628  0.1790 -0.1385 -0.3621
  911SOL    HW2 3697   3.284   3.952   1.597 -0.1034  0.5843  1.2386
  911SOL    HW3 3698   3.364   3.824   1.588 -0.9532  0.1822 -1.0744
  911SOL    MW4 3699   3.354   3.905   1.619 -0.0076 -0.0010 -0.2449
  912SOL     OW 3700   3.152   4.056   1.525 -0.2555  0.1734  0.1466
  912SOL    HW2 3701   3.140   4.148   1.550  1.5710  0.5072 -0.1803
  912SOL    HW3 3702   3.076   4.011   1.563 -0.2529  1.5340  1.8205
  912SOL    MW4 3703   3.140   4.062   1.534 -0.0143  0.3967  0.3242
  913SOL     OW 3704   3.158   4.315   1.603 -0.2951 -0.0880 -0.0519
  913SOL    HW2 3705   3.146   4.328   1.697 -1.1286  0.4579 -0.2246
  913SOL    HW3 3706   3.070   4.329   1.566 -0.1863 -1.3729 -0.7925
  913SOL    MW4 3707   3.144   4.319   1.611 -0.3910 -0.1855 -0.1725
  914SOL     OW 3708   3.397   4.423   1.513 -0.2067 -0.0755  0.1909
  914SOL    HW2 3709   3.327   4.377   1.560 -0.3605  0.2189  0.2496
  914SOL    HW3 3710   3.375   4.413   1.421  0.1183 -0.6919  0.1804
  914SOL    MW4 3711   3.385   4.416   1.507 -0.1841 -0.1183  0.1972
  915SOL     OW 3712   3.808   4.612   1.642  0.3672  0.4396 -0.2032
  915SOL    HW2 3713   3.828   4.603   1.735  0.0017  0.7858 -0.0955
  915SOL    HW3 3714   3.888   4.649   1.604  1.0837 -1.1138 -0.2825
  915SOL    MW4 3715   3.821   4.616   1.649  0.4134  0.2804 -0.1993
  916SOL     OW 3716   3.608   0.124   1.523 -0.4124  0.1107 -0.5237
  916SOL    HW2 3717   3.672   0.059   1.553  1.0181  0.9448 -1.7069
  916SOL    HW3 3718   3.599   0.107   1.429 -0.4109  1.2897 -0.7402
  916SOL    MW4 3719   3.615   0.113   1.515 -0.2234  0.3763 -0.7082
  917SOL     OW 3720   3.593   0.371   1.643 -0.1178  0.2091  0.1269
  917SOL    HW2 3721   3.599   0.284   1.604  0.7885  0.5528 -0.5049
  917SOL    HW3 3722   3.511   0.406   1.609  0.7439  0.5646 -1.6117
  917SOL    MW4 3723   3.583   0.364   1.633  0.1154  0.3014 -0.1857
  918SOL     OW 3724   3.846   0.475   1.524  0.4818  0.2030  0.0138
  918SOL    HW2 3725   3.764   0.450   1.567 -0.2079 -0.0545 -1.4200
  918SOL    HW3 3726   3.820   0.494   1.434  1.9908  0.2565 -0.4090
  918SOL    MW4 3727   3.831   0.474   1.518  0.5898  0.1761 -0.2311
  919SOL     OW 3728   3.813   0.740   1.632 -0.3973  0.3017 -0.1449
  919SOL    HW2 3729   3.741   0.782   1.585 -0.5368  0.2267  0.0034
  919SOL    HW3 3730   3.814   0.650   1.598 -1.4222 -0.1739  1.0390
  919SOL    MW4 3731   3.803   0.734   1.621 -0.5510  0.2290  0.0310
  920SOL     OW 3732   3.571   0.913   1.515  0.1881 -0.2978 -0.0035
  920SOL    HW2 3733   3.493   0.868   1.548 -0.7149  0.7483 -0.6857
  920SOL    HW3 3734   3.574   0.891   1.422  1.5984 -1.5989  0.3228
  920SOL    MW4 3735   3.562   0.904   1.507  0.2549 -0.3315 -0.0504
  921SOL     OW 3736   3.578   1.179   1.594 -0.2972  0.1441 -0.1592
  921SOL    HW2 3737   3.656   1.212   1.548  0.2975  0.4492  1.0614
  921SOL    HW3 3738   3.579   1.085   1.577  0.6592  0.0610  0.3169
  921SOL    MW4 3739   3.588   1.171   1.585 -0.0927  0.1733  0.0647
  922SOL     OW 3740   3.802   1.269   1.466  0.3859  0.0328 -0.1766
  922SOL    HW2 3741   3.874   1.215   1.497 -0.1838 -0.2369  0.7032
  922SOL    HW3 3742   3.811   1.351   1.515 -0.0416 -0.0867  0.0979
  922SOL    MW4 3743   3.813   1.273   1.476  0.2544 -0.0186 -0.0242
  923SOL     OW 3744   3.830   1.498   1.630  0.2290  0.2774  0.2370
  923SOL    HW2 3745   3.853   1.511   1.722  1.0856  1.1594 -0.0878
  923SOL    HW3 3746   3.746   1.541   1.620  1.0213  1.8428  0.1809
  923SOL    MW4 3747   3.822   1.505   1.641  0.4466  0.6003  0.1868
  924SOL     OW 3748   3.610   1.651   1.526 -0.0555 -0.0016 -0.3405
  924SOL    HW2 3749   3.522   1.614   1.538 -0.4996  0.4956 -1.8659
  924SOL    HW3 3750   3.617   1.663   1.431  1.3599  0.7067 -0.1515
  924SOL    MW4 3751   3.599   1.648   1.515  0.0730  0.1575 -0.5169
  925SOL     OW 3752   3.567   1.916   1.612 -0.3602 -0.1399  0.5421
  925SOL    HW2 3753   3.548   1.825   1.589 -0.6637  0.0987 -0.1484
  925SOL    HW3 3754   3.494   1.966   1.575 -0.6495  0.2920  1.6671
  925SOL    MW4 3755   3.555   1.911   1.604 -0.4385 -0.0515  0.5995
  926SOL     OW 3756   3.789   2.049   1.511  0.0049 -0.4744  0.3130
  926SOL    HW2 3757   3.790   2.134   1.555  1.8890 -0.0347 -0.5098
  926SOL    HW3 3758   3.706   2.009   1.538 -1.1755  1.8389  0.2938
  926SOL    MW4 3759   3.778   2.055   1.520  0.0978 -0.1111  0.2019
  927SOL     OW 3760   3.805   2.299   1.587  0.3632  0.1592  0.0043
  927SOL    HW2 3761   3.811   2.295   1.683  1.0747 -0.8656 -0.0751
  927SOL    HW3 3762   3.887   2.338   1.560  0.1158  0.5484 -0.1900
  927SOL    MW4 3763   3.816   2.304   1.596  0.4244  0.0753 -0.0319
  928SOL     OW 3764   3.596   2.441   1.473  0.0933 -0.3471 -0.4342
  928SOL    HW2 3765   3.597   2.530   1.506  0.9914 -0.4126 -0.2725
  928SOL    HW3 3766   3.676   2.401   1.509 -0.8831 -1.5568  0.4595
  928SOL    MW4 3767   3.607   2.447   1.482  0.0830 -0.5155 -0.2949
  929SOL     OW 3768   3.574   2.677   1.618 -0.3544  0.1014  0.7294
  929SOL    HW2 3769   3.580   2.682   1.714 -1.2504  2.3492  0.6964
  929SOL    HW3 3770   3.500   2.733   1.596 -0.1508 -0.3940 -1.3016
  929SOL    MW4 3771   3.565   2.685   1.628 -0.4458  0.3326  0.4573
  930SOL     OW 3772   3.816   2.811   1.548 -0.0870  0.2520  0.2618
  930SOL    HW2 3773   3.895   2.768   1.581  0.9942  2.6656  0.9080
  930SOL    HW3 3774   3.744   2.759   1.583  1.1717 -0.7689  1.3974
  930SOL    MW4 3775   3.817   2.798   1.557  0.2220  0.4356  0.4969
  931SOL     OW 3776   3.855   3.062   1.630  0.0074 -0.4827  0.1077
  931SOL    HW2 3777   3.929   3.096   1.581 -0.2265  0.1378  0.1843
  931SOL    HW3 3778   3.849   2.970   1.603 -1.1258  0.2521 -2.2850
  931SOL    MW4 3779   3.864   3.054   1.620 -0.1731 -0.3037 -0.1979
  932SOL     OW 3780   3.641   3.220   1.527 -0.1999 -0.1569 -0.7499
  932SOL    HW2 3781   3.714   3.162   1.548  1.7955  1.3553 -3.1469
  932SOL    HW3 3782   3.633   3.215   1.431 -1.0236  2.2368 -0.8449
  932SOL    MW4 3783   3.649   3.212   1.517 -0.0453  0.3583 -1.0787
  933SOL     OW 3784   3.599   3.506   1.592 -0.4685 -0.1359 -0.2112
  933SOL    HW2 3785   3.689   3.536   1.582 -0.7813  1.1317  0.7370
  933SOL    HW3 3786   3.603   3.413   1.570  0.9067  0.0970 -1.0139
  933SOL    MW4 3787   3.611   3.497   1.587 -0.3283  0.0618 -0.1920
  934SOL     OW 3788   3.855   3.590   1.529  0.0878 -0.3283 -0.0804
  934SOL    HW2 3789   3.927   3.543   1.571  0.3779  0.2640  0.0959
  934SOL    HW3 3790   3.851   3.674   1.576  0.2635  0.2448 -1.0922
  934SOL    MW4 3791   3.864   3.595   1.541  0.1490 -0.1745 -0.1906
  935SOL     OW 3792   3.848   3.833   1.704  0.6543  0.3358  0.1236
  935SOL    HW2 3793   3.913   3.891   1.664  0.3287  0.7170  0.1349
  935SOL    HW3 3794   3.764   3.871   1.679  0.3779 -1.4837 -1.8435
  935SOL    MW4 3795   3.846   3.846   1.696  0.5748  0.1459 -0.1345
  936SOL     OW 3796   3.622   3.983   1.581  0.0076  0.0044  0.0566
  936SOL    HW2 3797   3.626   4.079   1.577 -0.4189 -0.0173 -1.4894
  936SOL    HW3 3798   3.535   3.965   1.616  0.0326  0.1860  0.2140
  936SOL    MW4 3799   3.611   3.994   1.585 -0.0451  0.0253 -0.1266
  937SOL     OW 3800   3.614   4.268   1.599 -0.4515 -0.0216  0.0395
  937SOL    HW2 3801   3.614   4.279   1.694 -0.5243  0.6796 -0.0412
  937SOL    HW3 3802   3.558   4.339   1.567 -1.0308 -0.7063 -0.4746
  937SOL    MW4 3803   3.607   4.279   1.607 -0.5379 -0.0191 -0.0391
  938SOL     OW 3804   3.835   4.371   1.492  0.4575  0.1827 -0.0880
  938SOL    HW2 3805   3.773   4.312   1.533  0.4483 -0.8340 -1.5325
  938SOL    HW3 3806   3.821   4.455   1.535 -1.9873  0.0024 -0.4733
  938SOL    MW4 3807   3.825   4.374   1.503  0.1338  0.0248 -0.3295
  939SOL     OW 3808   4.272   4.664   1.625 -0.1332  0.1994  1.0732
  939SOL    HW2 3809   4.244   4.658   1.716 -2.5277  0.3719  0.3867
  939SOL    HW3 3810   4.269   4.574   1.593  0.4776  0.1693  1.0961
  939SOL    MW4 3811   4.268   4.651   1.633 -0.3686  0.2179  0.9856
  940SOL     OW 3812   4.038   0.096   1.539 -0.0562  0.4569  0.1017
  940SOL    HW2 3813   4.032   0.184   1.578 -1.4354  0.5130 -0.1895
  940SOL    HW3 3814   4.121   0.062   1.570  0.0675  1.5148  0.9902
  940SOL    MW4 3815   4.048   0.103   1.548 -0.2222  0.6039  0.1806
  941SOL     OW 3816   4.069   0.374   1.641 -0.1990  0.0852  0.1232
  941SOL    HW2 3817   4.058   0.374   1.737  0.2684  0.9197  0.1818
  941SOL    HW3 3818   3.987   0.409   1.608 -0.0948  0.4696  0.2607
  941SOL    MW4 3819   4.057   0.379   1.650 -0.1240  0.2460  0.1491
  942SOL     OW 3820   4.271   0.471   1.505 -0.1009  0.4167 -0.0088
  942SOL    HW2 3821   4.199   0.439   1.560 -0.6136 -0.3958 -1.1379
  942SOL    HW3 3822   4.349   0.432   1.544 -0.5790 -1.1132 -0.5248
  942SOL    MW4 3823   4.272   0.462   1.518 -0.2317  0.1076 -0.2259
  943SOL     OW 3824   4.264   0.742   1.616 -0.4521 -0.1772 -0.1534
  943SOL    HW2 3825   4.266   0.655   1.575 -0.8029  1.1936 -3.1859
  943SOL    HW3 3826   4.343   0.785   1.585  1.2943 -0.3680  3.7230
  943SOL    MW4 3827   4.275   0.736   1.607 -0.2680 -0.0216 -0.0420
  944SOL     OW 3828   4.033   0.870   1.514  0.0505 -0.1639  0.2946
  944SOL    HW2 3829   4.112   0.828   1.547  0.7847  2.0894  1.5092
  944SOL    HW3 3830   3.962   0.815   1.545  0.9576 -0.2483  2.3104
  944SOL    MW4 3831   4.034   0.857   1.522  0.2675  0.1223  0.7210
  945SOL     OW 3832   4.028   1.148   1.575  0.4912  0.1408 -0.2560
  945SOL    HW2 3833   4.038   1.157   1.670 -1.6578 -2.6231  0.3001
  945SOL    HW3 3834   4.028   1.053   1.560 -1.3374  0.4903 -2.7725
  945SOL    MW4 3835   4.029   1.136   1.586 -0.0334 -0.1777 -0.5146
  946SOL     OW 3836   4.269   1.269   1.490 -0.3067 -0.0561  0.0329
  946SOL    HW2 3837   4.197   1.215   1.525 -0.8333  1.3828  1.2164
  946SOL    HW3 3838   4.348   1.226   1.524 -0.7048 -0.2972  0.6815
  946SOL    MW4 3839   4.270   1.256   1.499 -0.4287  0.1019  0.2745
  947SOL     OW 3840   4.234   1.515   1.602  0.1837 -0.0178  0.2672
  947SOL    HW2 3841   4.251   1.430   1.562 -2.7187 -0.0813 -1.0069
  947SOL    HW3 3842   4.309   1.569   1.577  1.0496 -1.6273 -0.6731
  947SOL    MW4 3843   4.246   1.511   1.593 -0.0849 -0.2387 -0.0249
  948SOL     OW 3844   4.017   1.648   1.513  0.2007  0.0852  0.1797
  948SOL    HW2 3845   4.101   1.616   1.546 -0.0246  0.0622  0.7256
  948SOL    HW3 3846   3.952   1.588   1.549 -0.4461  2.3475  2.9279
  948SOL    MW4 3847   4.019   1.636   1.522  0.0858  0.3806  0.6143
  949SOL     OW 3848   4.013   1.916   1.607 -0.5142  0.2302 -0.4544
  949SOL    HW2 3849   3.998   1.824   1.585  0.2769 -0.3048  1.1737
  949SOL    HW3 3850   3.933   1.960   1.580 -1.6833 -1.2537  0.5119
  949SOL    MW4 3851   4.001   1.909   1.600 -0.5641 -0.0362 -0.1122
  950SOL     OW 3852   4.245   2.017   1.493 -0.0726  0.5184 -0.2344
  950SOL    HW2 3853   4.165   1.968   1.512  0.2349 -0.1096 -0.5410
  950SOL    HW3 3854   4.244   2.028   1.398 -0.0130  0.8876 -0.1919
  950SOL    MW4 3855   4.235   2.012   1.483 -0.0243  0.4842 -0.2693
  951SOL     OW 3856   4.256   2.276   1.606  0.3321  0.1537 -0.3896
  951SOL    HW2 3857   4.262   2.261   1.701  0.6040  1.7909 -0.1401
  951SOL    HW3 3858   4.250   2.188   1.569  0.6936 -0.5291  1.1131
  951SOL    MW4 3859   4.256   2.262   1.614  0.4153  0.2799 -0.1583
  952SOL     OW 3860   4.049   2.420   1.531  0.2920  0.2509 -0.4125
  952SOL    HW2 3861   4.057   2.504   1.576 -2.4653  0.0603  0.5266
  952SOL    HW3 3862   4.129   2.373   1.554  0.0157  1.0871  2.3964
  952SOL    MW4 3863   4.061   2.425   1.540 -0.1082  0.3359  0.0819
  953SOL     OW 3864   4.059   2.707   1.622 -0.1598 -0.2447  0.4059
  953SOL    HW2 3865   4.079   2.712   1.716  1.0468  0.8062  0.1019
  953SOL    HW3 3866   4.120   2.768   1.581 -3.3504  2.3905 -0.6546
  953SOL    MW4 3867   4.070   2.716   1.629 -0.4215  0.2418  0.2259
  954SOL     OW 3868   4.277   2.839   1.515 -0.0789  0.3754 -0.1866
  954SOL    HW2 3869   4.298   2.929   1.538 -0.1286  0.1179  0.8705
  954SOL    HW3 3870   4.298   2.833   1.421 -0.9885  1.7356 -0.4784
  954SOL    MW4 3871   4.283   2.850   1.506 -0.2055  0.5209 -0.0857
  955SOL     OW 3872   4.341   3.102   1.615 -0.1408 -0.1425 -0.1533
  955SOL    HW2 3873   4.330   3.107   1.710 -0.6039  0.6342 -0.2375
  955SOL    HW3 3874   4.425   3.145   1.598 -1.0297  1.6024 -0.2716
  955SOL    MW4 3875   4.351   3.108   1.625 -0.3190  0.1900 -0.1800
  956SOL     OW 3876   4.093   3.193   1.532  0.2352  0.0087 -0.0909
  956SOL    HW2 3877   4.081   3.280   1.570  0.4582  0.3961 -0.8808
  956SOL    HW3 3878   4.181   3.167   1.559  0.1516  0.0120  0.1807
  956SOL    MW4 3879   4.103   3.201   1.540  0.2537  0.0606 -0.1594
  957SOL     OW 3880   4.058   3.432   1.651  0.2056 -0.4162 -0.3227
  957SOL    HW2 3881   4.050   3.458   1.743 -0.3643  0.6435 -0.6688
  957SOL    HW3 3882   4.127   3.488   1.616 -1.3599  1.0046 -1.1898
  957SOL    MW4 3883   4.066   3.443   1.659 -0.0768 -0.0887 -0.4829
  958SOL     OW 3884   4.252   3.589   1.508 -0.1501  0.2784  0.6769
  958SOL    HW2 3885   4.255   3.673   1.553 -0.5953  0.2384  0.7835
  958SOL    HW3 3886   4.270   3.609   1.416 -1.7145  0.6840  0.4413
  958SOL    MW4 3887   4.255   3.602   1.502 -0.4153  0.3266  0.6599
  959SOL     OW 3888   4.255   3.831   1.629  0.1040  0.2886  0.0728
  959SOL    HW2 3889   4.188   3.887   1.590 -1.0220 -1.1575 -0.1028
  959SOL    HW3 3890   4.338   3.868   1.598 -0.6662  0.9010 -1.3232
  959SOL    MW4 3891   4.258   3.844   1.620 -0.1469  0.1788 -0.1346
  960SOL     OW 3892   4.032   3.969   1.521 -0.0376 -0.0749  0.0769
  960SOL    HW2 3893   4.032   4.065   1.529 -0.2327  0.0715 -1.5408
  960SOL    HW3 3894   4.035   3.953   1.427 -0.3504 -1.6692  0.3298
  960SOL    MW4 3895   4.033   3.980   1.510 -0.1044 -0.2661 -0.1030
  961SOL     OW 3896   4.075   4.241   1.575 -0.1623 -0.0344  0.3951
  961SOL    HW2 3897   4.055   4.228   1.667 -1.6606 -1.7055 -0.1467
  961SOL    HW3 3898   4.001   4.291   1.540  0.9913  1.6969  0.3447
  961SOL    MW4 3899   4.063   4.246   1.582 -0.2079 -0.0257  0.3169
  962SOL     OW 3900   4.280   4.413   1.520  0.2561 -0.2844  0.3285
  962SOL    HW2 3901   4.220   4.345   1.550  1.8257 -1.6445  0.4941
  962SOL    HW3 3902   4.277   4.407   1.424  0.1699 -0.3884  0.3384
  962SOL    MW4 3903   4.272   4.403   1.511  0.4520 -0.4773  0.3518
  963SOL     OW 3904   0.216   4.622   1.898  0.0589 -0.2849 -0.1991
  963SOL    HW2 3905   0.278   4.684   1.936 -0.7515  1.1250 -1.1273
  963SOL    HW3 3906   0.226   4.634   1.803  0.4766 -2.1634 -0.4114
  963SOL    MW4 3907   0.226   4.632   1.890  0.0071 -0.3462 -0.3496
  964SOL     OW 3908   4.470   0.089   1.983  0.2337  0.2231 -0.0245
  964SOL    HW2 3909   4.486   0.179   1.954  1.1867 -0.0743 -0.4473
  964SOL    HW3 3910   4.549   0.041   1.956 -1.2446 -1.2481 -1.9236
  964SOL    MW4 3911   4.483   0.095   1.975  0.1640 -0.0103 -0.3308
  965SOL     OW 3912   0.036   0.324   1.886  0.2053 -0.3309  0.2921
  965SOL    HW2 3913  -0.044   0.363   1.920 -0.1305 -0.7932  0.0526
  965SOL    HW3 3914   0.107   0.372   1.928 -0.1999  0.0166  0.5798
  965SOL    MW4 3915   0.035   0.335   1.896  0.1075 -0.3461  0.2984
  966SOL     OW 3916   0.240   0.463   2.008  0.0603 -0.0634 -0.3889
  966SOL    HW2 3917   0.314   0.415   1.971  1.2681  0.6729  1.0397
  966SOL    HW3 3918   0.234   0.543   1.955  1.9937  1.1470  1.1615
  966SOL    MW4 3919   0.249   0.467   1.996  0.4747  0.1934  0.0042
  967SOL     OW 3920   0.222   0.719   1.878  0.7125  0.1958  0.0312
  967SOL    HW2 3921   0.296   0.768   1.914  1.4689 -1.1162  0.2695
  967SOL    HW3 3922   0.249   0.697   1.789 -0.5646  2.1802 -0.8771
  967SOL    MW4 3923   0.235   0.723   1.871  0.6438  0.2846 -0.0572
  968SOL     OW 3924   0.004   0.894   1.974 -0.0468  0.0918  0.1437
  968SOL    HW2 3925  -0.066   0.843   1.934  0.6019  0.2511 -1.2323
  968SOL    HW3 3926   0.084   0.852   1.944  0.4497  0.2080  1.3066
  968SOL    MW4 3927   0.005   0.882   1.964  0.1043  0.1281  0.1155
  969SOL     OW 3928   4.470   1.181   1.919  0.4773 -0.0757  0.6503
  969SOL    HW2 3929   4.381   1.212   1.935 -0.7444 -1.6912 -2.5173
  969SOL    HW3 3930   4.468   1.088   1.939  0.7763 -0.6238 -1.6569
  969SOL    MW4 3931   4.458   1.173   1.923  0.3555 -0.3612 -0.0722
  970SOL     OW 3932   0.235   1.279   1.972 -0.3925 -0.0380 -0.3521
  970SOL    HW2 3933   0.243   1.373   1.955 -0.7267  0.0379 -0.0943
  970SOL    HW3 3934   0.152   1.254   1.932  0.8291 -0.7142 -2.5186
  970SOL    MW4 3935   0.225   1.288   1.965 -0.2754 -0.1171 -0.6040
  971SOL     OW 3936   0.217   1.537   1.864 -0.1114 -0.0105 -0.0906
  971SOL    HW2 3937   0.284   1.579   1.918 -0.0774  0.1024 -0.2202
  971SOL    HW3 3938   0.134   1.568   1.901 -0.0978 -0.3186  0.2049
  971SOL    MW4 3939   0.214   1.547   1.876 -0.1051 -0.0364 -0.0687
  972SOL     OW 3940   4.459   1.639   1.967  0.3267 -0.1982  0.1431
  972SOL    HW2 3941   4.438   1.662   2.058 -0.5870  1.2585 -0.4264
  972SOL    HW3 3942   4.376   1.606   1.932  0.7677 -1.0902 -0.0747
  972SOL    MW4 3943   4.445   1.638   1.975  0.2646 -0.1237  0.0392
  973SOL     OW 3944   0.023   1.892   1.899 -0.1931 -0.1692  0.1782
  973SOL    HW2 3945  -0.047   1.950   1.927 -0.5061 -0.2494 -0.4184
  973SOL    HW3 3946  -0.004   1.805   1.929 -1.2719 -0.4961 -1.6640
  973SOL    MW4 3947   0.010   1.888   1.906 -0.3767 -0.2229 -0.1436
  974SOL     OW 3948   0.241   2.029   2.009  0.6279 -0.0578 -0.5004
  974SOL    HW2 3949   0.243   2.121   1.982  0.5437 -0.3236 -1.4520
  974SOL    HW3 3950   0.171   1.991   1.956  0.5725 -0.6386 -0.0070
  974SOL    MW4 3951   0.232   2.036   1.998  0.6095 -0.1695 -0.5610
  975SOL     OW 3952   0.238   2.277   1.886  0.0618  0.0024 -0.0844
  975SOL    HW2 3953   0.305   2.331   1.926 -0.5269  2.0468 -1.7825
  975SOL    HW3 3954   0.155   2.318   1.911 -0.5046 -1.3668  0.3792
  975SOL    MW4 3955   0.236   2.289   1.895 -0.0906  0.0913 -0.2472
  976SOL     OW 3956   0.017   2.409   1.977  0.2376  0.5231  0.9030
  976SOL    HW2 3957  -0.020   2.409   2.065 -2.0052  1.1205 -0.0147
  976SOL    HW3 3958   0.022   2.502   1.953 -0.6023  0.2850 -0.1942
  976SOL    MW4 3959   0.013   2.422   1.985 -0.1692  0.5708  0.6372
  977SOL     OW 3960   0.033   2.680   1.883  0.5688  0.1686  0.0261
  977SOL    HW2 3961  -0.042   2.722   1.927 -0.1444 -1.2318  0.1965
  977SOL    HW3 3962   0.013   2.688   1.790 -0.0674 -0.6635  0.0832
  977SOL    MW4 3963   0.020   2.687   1.877  0.3907 -0.1259  0.0563
  978SOL     OW 3964   0.254   2.817   1.957 -0.4304  0.2344  0.4413
  978SOL    HW2 3965   0.234   2.899   1.912 -2.0111 -0.1065  0.5100
  978SOL    HW3 3966   0.178   2.762   1.941  1.3951 -1.9015 -1.1856
  978SOL    MW4 3967   0.242   2.821   1.949 -0.3981 -0.0925  0.2357
  979SOL     OW 3968   0.215   3.071   1.863 -0.0100 -0.5803  0.0295
  979SOL    HW2 3969   0.279   3.121   1.913 -0.5615 -0.5648  0.7252
  979SOL    HW3 3970   0.245   3.078   1.773  0.4145  0.2686  0.2263
  979SOL    MW4 3971   0.227   3.079   1.858 -0.0268 -0.4661  0.1472
  980SOL     OW 3972   4.488   3.217   1.989  0.1089 -0.2074  0.0864
  980SOL    HW2 3973   4.407   3.179   1.954  0.5547 -0.5195 -0.6133
  980SOL    HW3 3974   4.558   3.167   1.947  0.6889  1.0880 -0.5010
  980SOL    MW4 3975   4.486   3.205   1.979  0.2441 -0.0780 -0.0834
  981SOL     OW 3976   4.462   3.477   1.908 -0.1106 -0.1248  0.2550
  981SOL    HW2 3977   4.549   3.516   1.908 -0.2571  0.2187  0.6578
  981SOL    HW3 3978   4.476   3.386   1.934  0.0070  0.2424  1.5409
  981SOL    MW4 3979   4.475   3.470   1.912 -0.1144 -0.0310  0.4779
  982SOL     OW 3980   0.218   3.589   1.954  0.4446  0.6294  0.1684
  982SOL    HW2 3981   0.197   3.594   2.047  1.9864  1.5096  0.4862
  982SOL    HW3 3982   0.297   3.535   1.951 -0.3098 -0.4314 -0.7487
  982SOL    MW4 3983   0.225   3.583   1.966  0.5485  0.6053  0.0894
  983SOL     OW 3984   0.199   3.872   1.898  0.2964  0.3205 -0.3502
  983SOL    HW2 3985   0.274   3.921   1.933 -0.2458  0.5605  0.5087
  983SOL    HW3 3986   0.216   3.782   1.923 -0.3782  0.5758  1.0850
  983SOL    MW4 3987   0.211   3.867   1.906  0.1359  0.3860 -0.0473
  984SOL     OW 3988   4.466   4.014   1.996  0.1553  0.7523 -0.0532
  984SOL    HW2 3989   4.447   4.093   1.946 -0.6765 -0.5924 -1.9563
  984SOL    HW3 3990   4.542   3.975   1.951  1.1194  0.9184  1.4041
  984SOL    MW4 3991   4.474   4.019   1.984  0.1721  0.5970 -0.1121
  985SOL     OW 3992   4.438   4.251   1.828  0.2133 -0.4443 -0.0727
  985SOL    HW2 3993   4.369   4.299   1.875 -0.1541  0.5889 -1.6272
  985SOL    HW3 3994   4.519   4.294   1.856  0.0524 -0.2410  0.0921
  985SOL    MW4 3995   4.439   4.263   1.838  0.1440 -0.2813 -0.2562
  986SOL     OW 3996   0.175   4.366   1.971 -0.5682  0.1725  0.6727
  986SOL    HW2 3997   0.189   4.360   2.065  0.8973  0.7214  0.5104
  986SOL    HW3 3998   0.192   4.457   1.949  0.5303 -0.2401 -0.3157
  986SOL    MW4 3999   0.179   4.377   1.980 -0.2299  0.1907  0.5209
  987SOL     OW 4000   0.639   0.019   1.841 -0.0214  0.0932  0.4513
  987SOL    HW2 4001   0.668  -0.065   1.879 -2.1419 -1.0341 -0.3238
  987SOL    HW3 4002   0.634   0.002   1.747 -2.6358  0.3582  0.4940
  987SOL    MW4 4003   0.642   0.005   1.834 -0.6461 -0.0205  0.3546
  988SOL     OW 4004   0.420   0.130   1.999  0.3509  0.0939  0.5472
  988SOL    HW2 4005   0.433   0.218   1.964 -0.9921 -0.7242 -2.1202
  988SOL    HW3 4006   0.488   0.077   1.956  0.6785 -0.3221  1.5731
  988SOL    MW4 4007   0.431   0.134   1.989  0.2169 -0.0689  0.3306
  989SOL     OW 4008   0.432   0.377   1.842  0.3923  0.3026 -0.3854
  989SOL    HW2 4009   0.498   0.446   1.849 -1.8445  2.5325 -0.1995
  989SOL    HW3 4010   0.435   0.351   1.750  0.7372  1.2139 -0.6383
  989SOL    MW4 4011   0.441   0.383   1.830  0.1427  0.7171 -0.3943
  990SOL     OW 4012   0.660   0.512   1.948 -0.1700 -0.3549  0.2710
  990SOL    HW2 4013   0.631   0.490   2.037  0.7821 -1.4074  0.3303
  990SOL    HW3 4014   0.740   0.460   1.936  0.7791  1.2687 -0.4824
  990SOL    MW4 4015   0.667   0.502   1.958  0.0809 -0.2795  0.1795
  991SOL     OW 4016   0.674   0.788   1.861  0.2425 -0.1124 -0.0626
  991SOL    HW2 4017   0.762   0.811   1.890  0.7432  0.0053 -1.6603
  991SOL    HW3 4018   0.659   0.700   1.896  0.5946  0.2531  1.0407
  991SOL    MW4 4019   0.683   0.779   1.869  0.3550 -0.0486 -0.1278
  992SOL     OW 4020   0.442   0.839   1.984 -0.0352  0.1539  0.0561
  992SOL    HW2 4021   0.415   0.931   1.975  0.9682  0.4775  0.1974
  992SOL    HW3 4022   0.533   0.839   1.953 -0.1342 -0.8551 -0.2249
  992SOL    MW4 4023   0.451   0.851   1.979  0.0841  0.0635  0.0377
  993SOL     OW 4024   0.434   1.104   1.904  0.2050  0.1391  0.0234
  993SOL    HW2 4025   0.364   1.165   1.928 -0.6137 -0.2236 -1.3687
  993SOL    HW3 4026   0.438   1.109   1.809  0.8392 -1.1999 -0.0282
  993SOL    MW4 4027   0.425   1.112   1.895  0.1806 -0.0854 -0.1671
  994SOL     OW 4028   0.640   1.286   1.995 -0.3752 -0.4921 -0.5918
  994SOL    HW2 4029   0.649   1.252   2.084  0.2009 -1.3692 -0.9802
  994SOL    HW3 4030   0.574   1.230   1.955 -0.7036 -0.0358 -0.6846
  994SOL    MW4 4031   0.633   1.274   2.002 -0.3425 -0.5476 -0.6554
  995SOL     OW 4032   0.640   1.546   1.914  0.0078  0.6218 -0.0035
  995SOL    HW2 4033   0.638   1.453   1.939 -1.6062  0.6235 -0.0849
  995SOL    HW3 4034   0.636   1.546   1.819 -0.2534  0.7949  0.0087
  995SOL    MW4 4035   0.640   1.534   1.905 -0.2397  0.6447 -0.0126
  996SOL     OW 4036   0.411   1.639   2.017  0.3440 -0.2024 -0.1439
  996SOL    HW2 4037   0.417   1.633   2.112 -3.4832 -2.3767  0.0658
  996SOL    HW3 4038   0.492   1.600   1.985  1.2179 -0.3755  2.2099
  996SOL    MW4 4039   0.422   1.633   2.026 -0.0456 -0.5121  0.1941
  997SOL     OW 4040   0.460   1.896   1.911 -0.2165 -0.3860 -0.5745
  997SOL    HW2 4041   0.465   1.806   1.945 -0.8687 -0.2768 -0.1788
  997SOL    HW3 4042   0.378   1.929   1.946  0.9145  1.0179  0.8297
  997SOL    MW4 4043   0.450   1.888   1.920 -0.1533 -0.1863 -0.3370
  998SOL     OW 4044   0.656   2.060   2.001  0.3641  0.2814 -0.2035
  998SOL    HW2 4045   0.644   2.063   2.096 -0.7293  1.4005 -0.3649
  998SOL    HW3 4046   0.586   2.002   1.970  0.1023  0.7147 -0.4218
  998SOL    MW4 4047   0.645   2.053   2.010  0.1853  0.4866 -0.2537
  999SOL     OW 4048   0.676   2.313   1.922  0.2083 -0.4819 -0.3081
  999SOL    HW2 4049   0.671   2.220   1.944  0.0066 -0.4539 -0.2312
  999SOL    HW3 4050   0.667   2.316   1.827  0.0664 -0.5296 -0.2958
  999SOL    MW4 4051   0.674   2.301   1.912  0.1630 -0.4847 -0.2965
 1000SOL     OW 4052   0.447   2.411   2.014 -0.0204  0.2956 -0.2593
 1000SOL    HW2 4053   0.463   2.432   2.106 -1.4442 -0.5296  0.1973
 1000SOL    HW3 4054   0.532   2.381   1.981  0.2276 -0.5370  1.0977
 1000SOL    MW4 4055   0.460   2.410   2.022 -0.1756  0.0770 -0.0203
 1001SOL     OW 4056   0.471   2.673   1.906  0.0279 -0.0547  0.1518
 1001SOL    HW2 4057   0.463   2.582   1.936  0.2138  0.1517  0.8357
 1001SOL    HW3 4058   0.395   2.717   1.943 -0.6025 -0.1432 -1.0020
 1001SOL    MW4 4059   0.460   2.667   1.915 -0.0308 -0.0391  0.0899
 1002SOL     OW 4060   0.704   2.794   2.006  0.1852 -0.1960  0.2442
 1002SOL    HW2 4061   0.684   2.834   2.091  0.1577 -1.3802  0.8089
 1002SOL    HW3 4062   0.622   2.753   1.979  0.1877  0.1996 -0.3842
 1002SOL    MW4 4063   0.690   2.794   2.014  0.1819 -0.3002  0.2356
 1003SOL     OW 4064   0.691   3.051   1.905 -0.4655 -0.3344  0.5036
 1003SOL    HW2 4065   0.684   2.958   1.927  2.9351 -0.7674  0.0129
 1003SOL    HW3 4066   0.699   3.053   1.809 -1.6372  0.5645  0.4098
 1003SOL    MW4 4067   0.691   3.039   1.895 -0.1714 -0.2732  0.4265
 1004SOL     OW 4068   0.447   3.192   1.955  0.2970 -0.1075 -0.3251
 1004SOL    HW2 4069   0.445   3.281   1.919  0.0432 -0.5141 -1.3566
 1004SOL    HW3 4070   0.530   3.156   1.924 -0.3368 -0.7735 -1.3020
 1004SOL    MW4 4071   0.458   3.199   1.946  0.1799 -0.2491 -0.5900
 1005SOL     OW 4072   0.445   3.454   1.870  0.4245 -0.5558  0.0539
 1005SOL    HW2 4073   0.512   3.512   1.906 -0.3280 -0.3256  1.1212
 1005SOL    HW3 4074   0.447   3.469   1.776  1.7873 -0.4586  0.0989
 1005SOL    MW4 4075   0.454   3.463   1.862  0.5050 -0.5124  0.2007
 1006SOL     OW 4076   0.652   3.612   2.012  0.2781  0.2248  0.3928
 1006SOL    HW2 4077   0.728   3.565   1.978 -0.1964  0.4881 -1.0801
 1006SOL    HW3 4078   0.650   3.694   1.962 -0.4799  0.5961  1.0152
 1006SOL    MW4 4079   0.662   3.617   2.001  0.1156  0.3083  0.2806
 1007SOL     OW 4080   0.683   3.874   1.877 -0.0973  0.1397  0.3399
 1007SOL    HW2 4081   0.755   3.924   1.917  0.6084 -1.2877  0.8885
 1007SOL    HW3 4082   0.705   3.872   1.784 -0.0585  0.7189  0.3312
 1007SOL    MW4 4083   0.696   3.881   1.870  0.0010  0.0281  0.4112
 1008SOL     OW 4084   0.438   4.020   1.970  0.3080  0.0898 -0.0182
 1008SOL    HW2 4085   0.438   4.116   1.963  1.0664  0.0627 -0.4361
 1008SOL    HW3 4086   0.515   3.992   1.919  0.0816 -0.7399  0.0892
 1008SOL    MW4 4087   0.448   4.029   1.962  0.3782 -0.0234 -0.0592
 1009SOL     OW 4088   0.451   4.287   1.886 -0.3607 -0.6978 -0.7318
 1009SOL    HW2 4089   0.367   4.325   1.911  0.3397  1.0168 -0.9867
 1009SOL    HW3 4090   0.442   4.270   1.792 -0.3118 -0.2543 -0.8155
 1009SOL    MW4 4091   0.438   4.289   1.877 -0.2618 -0.4129 -0.7766
 1010SOL     OW 4092   0.699   4.434   1.964  0.0244  0.0179 -0.3574
 1010SOL    HW2 4093   0.773   4.377   1.939 -0.1839 -0.4614  0.1152
 1010SOL    HW3 4094   0.622   4.379   1.951 -0.0892 -0.2616  1.3898
 1010SOL    MW4 4095   0.699   4.419   1.959 -0.0180 -0.0825 -0.0646
 1011SOL     OW 4096   1.135   0.025   1.884  0.3452  0.3175  0.3708
 1011SOL    HW2 4097   1.217   0.068   1.907 -0.1668  1.2250  0.5021
 1011SOL    HW3 4098   1.136  -0.057   1.935  1.0242  0.4671  0.6028
 1011SOL    MW4 4099   1.146   0.020   1.894  0.3673  0.4569  0.4189
 1012SOL     OW 4100   0.864   0.100   1.979 -0.2475 -0.1074 -0.0390
 1012SOL    HW2 4101   0.940   0.071   1.928  0.2857  1.1449  0.0196
 1012SOL    HW3 4102   0.789   0.073   1.927  0.2502 -0.8551 -0.3811
 1012SOL    MW4 4103   0.864   0.093   1.965 -0.1115 -0.0409 -0.0764
 1013SOL     OW 4104   0.905   0.381   1.886 -0.1362  0.0173 -0.5671
 1013SOL    HW2 4105   0.995   0.391   1.918 -0.1165 -0.5650 -0.4298
 1013SOL    HW3 4106   0.882   0.291   1.907 -0.8582  0.2510 -0.3449
 1013SOL    MW4 4107   0.914   0.370   1.893 -0.2289 -0.0287 -0.5196
 1014SOL     OW 4108   1.173   0.482   1.980 -0.1098  0.0391  0.3306
 1014SOL    HW2 4109   1.262   0.468   1.946 -0.0626  0.6067  0.2167
 1014SOL    HW3 4110   1.147   0.567   1.944 -0.5696  0.0250  0.6348
 1014SOL    MW4 4111   1.181   0.492   1.971 -0.1643  0.1121  0.3557
 1015SOL     OW 4112   1.143   0.746   1.880  0.0352 -0.5679 -0.3872
 1015SOL    HW2 4113   1.205   0.810   1.915  0.8995 -1.7230  0.2139
 1015SOL    HW3 4114   1.057   0.787   1.894  0.6129  0.7631 -0.6528
 1015SOL    MW4 4115   1.140   0.760   1.887  0.2255 -0.5447 -0.3427
 1016SOL     OW 4116   0.922   0.873   1.976 -0.0951  0.4797  0.4424
 1016SOL    HW2 4117   0.922   0.871   2.071 -0.7981 -1.4850  0.4222
 1016SOL    HW3 4118   0.928   0.966   1.954  0.6371  0.9089  2.3836
 1016SOL    MW4 4119   0.922   0.885   1.985 -0.0913  0.2771  0.6957
 1017SOL     OW 4120   0.907   1.162   1.903  0.5300 -0.2922 -0.3719
 1017SOL    HW2 4121   0.820   1.187   1.934  1.4477  2.0555  0.4160
 1017SOL    HW3 4122   0.898   1.160   1.808  0.4274  3.4338 -0.5335
 1017SOL    MW4 4123   0.894   1.165   1.895  0.6375  0.5093 -0.2892
 1018SOL     OW 4124   1.115   1.294   2.012 -0.1278 -0.8164 -0.3519
 1018SOL    HW2 4125   1.114   1.385   1.980  0.0678 -0.2099  1.3455
 1018SOL    HW3 4126   1.038   1.254   1.973  0.6617 -0.3892 -2.4340
 1018SOL    MW4 4127   1.105   1.301   2.002  0.0023 -0.6800 -0.4029
 1019SOL     OW 4128   1.097   1.546   1.889  0.3635 -0.1736  0.1652
 1019SOL    HW2 4129   1.021   1.585   1.931  1.6646  0.9022  1.5830
 1019SOL    HW3 4130   1.073   1.538   1.797 -2.0506 -1.3558  0.8790
 1019SOL    MW4 4131   1.084   1.550   1.882  0.2166 -0.1876  0.4463
 1020SOL     OW 4132   0.872   1.647   2.002 -0.0709 -0.0519  0.0936
 1020SOL    HW2 4133   0.873   1.741   1.986  1.3172 -0.1093 -0.1713
 1020SOL    HW3 4134   0.789   1.618   1.965  0.3573  0.7695 -1.5546
 1020SOL    MW4 4135   0.861   1.656   1.995  0.1687  0.0489 -0.1587
 1021SOL     OW 4136   0.909   1.916   1.944 -0.0179  0.1300  0.0707
 1021SOL    HW2 4137   0.837   1.965   1.983 -0.4636 -1.2704  1.0344
 1021SOL    HW3 4138   0.885   1.908   1.851  0.2554  2.0466 -0.1839
 1021SOL    MW4 4139   0.896   1.921   1.937 -0.0407  0.1979  0.1644
 1022SOL     OW 4140   1.140   2.035   1.996 -0.2644 -0.2566  0.0393
 1022SOL    HW2 4141   1.125   2.125   1.968  0.7812 -0.2018 -0.3539
 1022SOL    HW3 4142   1.059   1.989   1.973  0.5024 -0.1953 -3.0317
 1022SOL    MW4 4143   1.127   2.041   1.989 -0.0253 -0.2413 -0.4178
 1023SOL     OW 4144   1.107   2.288   1.877 -0.0543 -0.0161  0.0531
 1023SOL    HW2 4145   1.176   2.343   1.914 -1.0666  1.6554 -0.5450
 1023SOL    HW3 4146   1.116   2.298   1.782 -0.6662 -0.3604 -0.0439
 1023SOL    MW4 4147   1.118   2.296   1.869 -0.2686  0.1590 -0.0386
 1024SOL     OW 4148   0.902   2.430   2.004  0.2007 -0.2470  0.5230
 1024SOL    HW2 4149   0.968   2.375   1.961 -0.4719 -0.3614 -0.3677
 1024SOL    HW3 4150   0.819   2.387   1.985 -0.1692  0.0662  1.3900
 1024SOL    MW4 4151   0.900   2.417   1.996  0.0631 -0.2208  0.5198
 1025SOL     OW 4152   0.954   2.690   1.920  0.1641 -0.0026  0.6717
 1025SOL    HW2 4153   0.953   2.594   1.926  0.0961  0.0077  0.8178
 1025SOL    HW3 4154   0.872   2.718   1.961 -0.1064  0.0866  0.0819
 1025SOL    MW4 4155   0.943   2.681   1.926  0.1193  0.0107  0.6132
 1026SOL     OW 4156   1.176   2.859   1.979 -0.4654 -0.0109 -0.0959
 1026SOL    HW2 4157   1.176   2.864   2.074 -1.1693 -0.5445 -0.0695
 1026SOL    HW3 4158   1.098   2.808   1.957  0.0577 -0.4534 -0.9315
 1026SOL    MW4 4159   1.166   2.853   1.989 -0.4892 -0.1395 -0.2027
 1027SOL     OW 4160   1.134   3.111   1.876  0.1900  0.1544 -0.2173
 1027SOL    HW2 4161   1.053   3.134   1.920  0.8668  1.7773  0.1868
 1027SOL    HW3 4162   1.148   3.019   1.898 -1.0096  0.1459  0.5218
 1027SOL    MW4 4163   1.125   3.102   1.885  0.1210  0.3672 -0.0665
 1028SOL     OW 4164   0.910   3.202   2.004 -0.2238 -0.1007  0.1588
 1028SOL    HW2 4165   0.914   3.216   2.099 -1.4144  1.8075 -0.0510
 1028SOL    HW3 4166   0.837   3.142   1.992 -0.9048  0.6883  0.3473
 1028SOL    MW4 4167   0.901   3.196   2.015 -0.4707  0.2553  0.1559
 1029SOL     OW 4168   0.858   3.463   1.912  0.1451 -0.5289  0.4669
 1029SOL    HW2 4169   0.873   3.371   1.934  0.4464 -0.5033  0.3819
 1029SOL    HW3 4170   0.863   3.466   1.816  0.6109 -0.3479  0.4929
 1029SOL    MW4 4171   0.861   3.451   1.902  0.2463 -0.5016  0.4591
 1030SOL     OW 4172   1.103   3.572   1.936  0.1775  0.3203 -0.4143
 1030SOL    HW2 4173   1.100   3.577   2.032  0.0730  2.6214 -0.5121
 1030SOL    HW3 4174   1.025   3.522   1.912 -0.6277  1.0542  0.6265
 1030SOL    MW4 4175   1.093   3.566   1.946  0.0576  0.7207 -0.2898
 1031SOL     OW 4176   1.113   3.853   1.873 -0.2632  0.0283  0.0208
 1031SOL    HW2 4177   1.115   3.758   1.884  0.3040 -0.0585 -0.8197
 1031SOL    HW3 4178   1.127   3.867   1.779  1.3259  1.0062  0.3917
 1031SOL    MW4 4179   1.115   3.842   1.862  0.0213  0.1459 -0.0412
 1032SOL     OW 4180   0.915   4.016   1.983  0.3549  0.0671  0.4098
 1032SOL    HW2 4181   0.940   4.010   2.075  1.0173 -1.5831  0.1427
 1032SOL    HW3 4182   0.984   3.969   1.937 -1.8883 -2.3703 -0.5830
 1032SOL    MW4 4183   0.927   4.009   1.989  0.1463 -0.4721  0.2437
 1033SOL     OW 4184   0.920   4.276   1.904 -0.1229  0.0699  0.4186
 1033SOL    HW2 4185   0.991   4.323   1.946  0.5546 -0.6526  0.0847
 1033SOL    HW3 4186   0.924   4.188   1.941  0.3116 -0.4951 -0.9674
 1033SOL    MW4 4187   0.930   4.271   1.914  0.0238 -0.1001  0.1917
 1034SOL     OW 4188   1.103   4.436   2.021  0.2189 -0.4629 -0.0305
 1034SOL    HW2 4189   1.115   4.418   2.114 -0.5260 -0.0931  0.1395
 1034SOL    HW3 4190   1.182   4.401   1.980  0.1754 -1.3633  0.6438
 1034SOL    MW4 4191   1.115   4.429   2.028  0.1149 -0.5326  0.0811
 1035SOL     OW 4192   1.596   4.643   1.870  0.1043 -0.1929  0.4774
 1035SOL    HW2 4193   1.679   4.680   1.899  1.3838 -0.9866 -1.9921
 1035SOL    HW3 4194   1.590   4.558   1.914 -0.0348  0.4220  1.6519
 1035SOL    MW4 4195   1.606   4.637   1.880  0.2549 -0.2165  0.3065
 1036SOL     OW 4196   1.370   0.161   1.946  0.1601  0.1179  0.0969
 1036SOL    HW2 4197   1.374   0.154   2.041 -1.4394  0.3492  0.1926
 1036SOL    HW3 4198   1.430   0.093   1.914 -0.5836 -1.0982  1.2529
 1036SOL    MW4 4199   1.379   0.151   1.954 -0.1490 -0.0120  0.2620
 1037SOL     OW 4200   1.402   0.415   1.838  0.1048  0.1598 -0.4364
 1037SOL    HW2 4201   1.402   0.322   1.860  0.3770  0.2646  0.0097
 1037SOL    HW3 4202   1.356   0.420   1.754 -1.6715 -0.1515  0.4825
 1037SOL    MW4 4203   1.396   0.404   1.829 -0.0936  0.1326 -0.2563
 1038SOL     OW 4204   1.613   0.514   1.984 -0.3165  0.0903 -0.0013
 1038SOL    HW2 4205   1.697   0.495   1.943  0.6549  3.6998  0.0866
 1038SOL    HW3 4206   1.548   0.491   1.919  0.9206  0.2443 -1.3166
 1038SOL    MW4 4207   1.616   0.509   1.970 -0.0252  0.5868 -0.1631
 1039SOL     OW 4208   1.544   0.783   1.915  0.5871  0.1017  0.1156
 1039SOL    HW2 4209   1.622   0.822   1.954  1.4157 -1.2988 -0.1115
 1039SOL    HW3 4210   1.550   0.690   1.938 -0.7004 -0.1208 -0.4208
 1039SOL    MW4 4211   1.555   0.776   1.923  0.5267 -0.1124  0.0149
 1040SOL     OW 4212   1.297   0.931   2.003  0.3105  0.2353 -0.3408
 1040SOL    HW2 4213   1.294   0.928   2.099 -0.2880  0.4114 -0.3480
 1040SOL    HW3 4214   1.370   0.874   1.979  2.1628  2.2678  0.3005
 1040SOL    MW4 4215   1.306   0.923   2.013  0.4760  0.5267 -0.2570
 1041SOL     OW 4216   1.351   1.178   1.889 -0.1979  0.1066 -0.4788
 1041SOL    HW2 4217   1.355   1.084   1.909 -0.3727 -0.5256 -3.2210
 1041SOL    HW3 4218   1.267   1.206   1.925 -0.8108 -1.1146 -0.9206
 1041SOL    MW4 4219   1.340   1.169   1.896 -0.3018 -0.1379 -0.8988
 1042SOL     OW 4220   1.601   1.269   1.969 -0.8485  0.1216  0.2475
 1042SOL    HW2 4221   1.606   1.359   1.939 -0.9928 -0.5990 -2.0669
 1042SOL    HW3 4222   1.516   1.237   1.936 -0.3652 -1.1283  0.1753
 1042SOL    MW4 4223   1.590   1.276   1.960 -0.8037 -0.1384 -0.0675
 1043SOL     OW 4224   1.604   1.555   1.886  0.4946  0.1769 -0.1439
 1043SOL    HW2 4225   1.657   1.601   1.951  2.0375  0.4732 -1.5698
 1043SOL    HW3 4226   1.515   1.586   1.901  0.7208 -0.1706  2.1703
 1043SOL    MW4 4227   1.599   1.565   1.897  0.7280  0.1701 -0.0266
 1044SOL     OW 4228   1.344   1.660   1.927 -0.2805 -0.3098  0.1565
 1044SOL    HW2 4229   1.348   1.673   2.021  0.2065  0.0613  0.0834
 1044SOL    HW3 4230   1.262   1.611   1.913  0.2825 -1.4795  0.8927
 1044SOL    MW4 4231   1.334   1.655   1.937 -0.1420 -0.4151  0.2440
 1045SOL     OW 4232   1.355   1.926   1.855 -0.4431  0.1988 -0.4122
 1045SOL    HW2 4233   1.363   1.833   1.876 -0.5638  0.3482  0.3175
 1045SOL    HW3 4234   1.279   1.955   1.906  0.6257  1.0716  0.7255
 1045SOL    MW4 4235   1.346   1.918   1.865 -0.3179  0.3335 -0.1658
 1046SOL     OW 4236   1.555   2.031   2.020  0.0236  0.6558  0.0562
 1046SOL    HW2 4237   1.572   2.112   1.972  1.2015 -0.1134 -0.8584
 1046SOL    HW3 4238   1.483   1.989   1.972  0.6649  0.2743 -0.5881
 1046SOL    MW4 4239   1.548   2.036   2.007  0.2637  0.5038 -0.1495
 1047SOL     OW 4240   1.565   2.280   1.906  0.1160 -0.0495 -0.1141
 1047SOL    HW2 4241   1.642   2.319   1.947  0.3030 -0.2056 -0.3162
 1047SOL    HW3 4242   1.567   2.312   1.816 -0.3900  0.4307  0.0375
 1047SOL    MW4 4243   1.576   2.290   1.900  0.0739 -0.0067 -0.1208
 1048SOL     OW 4244   1.345   2.450   1.962  0.1967  0.2181  0.3849
 1048SOL    HW2 4245   1.345   2.538   1.924  0.3478 -0.8714 -2.2556
 1048SOL    HW3 4246   1.424   2.409   1.926 -1.3943 -1.9481 -0.8142
 1048SOL    MW4 4247   1.356   2.456   1.952  0.0067 -0.2115 -0.1217
 1049SOL     OW 4248   1.369   2.704   1.855 -0.2611  0.0040 -0.0629
 1049SOL    HW2 4249   1.299   2.763   1.883 -0.2058  0.7697 -1.4789
 1049SOL    HW3 4250   1.356   2.695   1.760 -0.2595 -2.2581  0.1284
 1049SOL    MW4 4251   1.358   2.711   1.846 -0.2537 -0.1936 -0.2245
 1050SOL     OW 4252   1.570   2.824   1.996 -0.2469 -0.3289  0.4985
 1050SOL    HW2 4253   1.649   2.777   1.970 -1.0484 -1.9806  0.9705
 1050SOL    HW3 4254   1.498   2.777   1.954 -1.1146  0.1494  1.4107
 1050SOL    MW4 4255   1.571   2.812   1.987 -0.4671 -0.4840  0.6812
 1051SOL     OW 4256   1.604   3.089   1.878  0.2990 -0.2257 -0.1775
 1051SOL    HW2 4257   1.582   3.005   1.918 -2.1639 -0.0591 -1.1066
 1051SOL    HW3 4258   1.595   3.075   1.784 -0.7644  1.2361 -0.3131
 1051SOL    MW4 4259   1.600   3.076   1.871 -0.1663 -0.0107 -0.3179
 1052SOL     OW 4260   1.374   3.222   1.989 -0.0708  0.2432 -0.2086
 1052SOL    HW2 4261   1.438   3.170   1.941 -1.0969 -0.2214 -1.0942
 1052SOL    HW3 4262   1.289   3.185   1.964 -0.7817  1.8996 -0.3285
 1052SOL    MW4 4263   1.371   3.210   1.980 -0.3000  0.4005 -0.3413
 1053SOL     OW 4264   1.355   3.480   1.900 -0.3894 -0.4958  0.3354
 1053SOL    HW2 4265   1.354   3.387   1.922 -1.0274 -0.9491 -1.5018
 1053SOL    HW3 4266   1.268   3.511   1.925 -0.5425 -0.6334 -0.0259
 1053SOL    MW4 4267   1.344   3.472   1.906 -0.4938 -0.5739  0.0454
 1054SOL     OW 4268   1.585   3.599   2.001 -0.0752 -0.0122 -0.2872
 1054SOL    HW2 4269   1.571   3.590   2.095  1.1027 -1.0406 -0.1937
 1054SOL    HW3 4270   1.511   3.555   1.961 -0.3352  0.0188  0.1606
 1054SOL    MW4 4271   1.574   3.592   2.008  0.0459 -0.1438 -0.2160
 1055SOL     OW 4272   1.551   3.877   1.918  0.6504 -0.0890  0.6666
 1055SOL    HW2 4273   1.633   3.916   1.949 -0.0954  0.0892  2.4193
 1055SOL    HW3 4274   1.556   3.785   1.945  0.7564 -0.3570 -0.2249
 1055SOL    MW4 4275   1.562   3.870   1.926  0.5659 -0.1006  0.7803
 1056SOL     OW 4276   1.315   4.028   1.954 -0.4115 -0.5864  0.3881
 1056SOL    HW2 4277   1.398   3.980   1.944 -0.6190 -0.6540 -1.1169
 1056SOL    HW3 4278   1.248   3.964   1.930 -0.7173  0.3295 -1.2135
 1056SOL    MW4 4279   1.317   4.013   1.950 -0.4793 -0.4745 -0.0217
 1057SOL     OW 4280   1.346   4.306   1.904 -0.1603 -0.0853 -0.3354
 1057SOL    HW2 4281   1.330   4.213   1.917  0.7885 -0.2935 -0.5872
 1057SOL    HW3 4282   1.334   4.321   1.811  0.2677 -0.0788 -0.3918
 1057SOL    MW4 4283   1.343   4.296   1.894  0.0215 -0.1125 -0.3760
 1058SOL     OW 4284   1.608   4.385   1.981  0.0884 -0.0933 -0.1076
 1058SOL    HW2 4285   1.605   4.397   2.076 -0.2092  2.7077 -0.4142
 1058SOL    HW3 4286   1.521   4.354   1.957  0.2991 -1.2199  0.5750
 1058SOL    MW4 4287   1.596   4.383   1.990  0.0770  0.1273 -0.0579
 1059SOL     OW 4288   2.041   4.642   1.898  0.4222  0.1256  0.1854
 1059SOL    HW2 4289   2.115   4.686   1.940  0.5857 -0.3472  0.4043
 1059SOL    HW3 4290   2.040   4.555   1.938 -1.2303  0.6514  1.3040
 1059SOL    MW4 4291   2.051   4.636   1.909  0.2260  0.1326  0.3619
 1060SOL     OW 4292   1.820   0.143   1.956 -0.4468 -0.0082 -0.0844
 1060SOL    HW2 4293   1.803   0.149   2.050 -0.3899 -0.6835 -0.0280
 1060SOL    HW3 4294   1.894   0.082   1.949 -1.2274 -0.9066 -0.6370
 1060SOL    MW4 4295   1.828   0.135   1.968 -0.5423 -0.2158 -0.1498
 1061SOL     OW 4296   1.837   0.412   1.847  0.6096 -0.0692  0.2520
 1061SOL    HW2 4297   1.827   0.324   1.884 -0.9481  0.2594  0.6583
 1061SOL    HW3 4298   1.787   0.408   1.765 -1.7820  1.1826  1.5721
 1061SOL    MW4 4299   1.829   0.400   1.841  0.0886  0.1393  0.4798
 1062SOL     OW 4300   2.043   0.525   1.977  0.0200  0.4017 -0.2775
 1062SOL    HW2 4301   2.064   0.605   1.929  1.1054 -0.7500 -1.7452
 1062SOL    HW3 4302   1.990   0.474   1.917  0.1978 -0.4367  0.2732
 1062SOL    MW4 4303   2.039   0.529   1.963  0.1864  0.1392 -0.3986
 1063SOL     OW 4304   2.039   0.762   1.850 -0.1430 -0.3642 -0.0629
 1063SOL    HW2 4305   2.113   0.818   1.874  0.9261 -1.9897  0.4844
 1063SOL    HW3 4306   2.031   0.772   1.755  1.4611 -0.9903 -0.2737
 1063SOL    MW4 4307   2.048   0.771   1.840  0.2098 -0.6613 -0.0185
 1064SOL     OW 4308   1.792   0.912   1.989  0.4215 -0.1710 -0.4219
 1064SOL    HW2 4309   1.808   1.005   1.971 -0.5663 -0.3924 -2.5060
 1064SOL    HW3 4310   1.855   0.865   1.934  0.6400 -0.7622  0.3175
 1064SOL    MW4 4311   1.802   0.918   1.980  0.3200 -0.2782 -0.5995
 1065SOL     OW 4312   1.836   1.151   1.854  0.3238  0.0450  0.1239
 1065SOL    HW2 4313   1.756   1.193   1.886  0.9208  0.8141  0.6393
 1065SOL    HW3 4314   1.831   1.160   1.759 -0.7530 -0.9344  0.0777
 1065SOL    MW4 4315   1.825   1.158   1.846  0.2605  0.0173  0.1858
 1066SOL     OW 4316   2.049   1.309   1.983  0.0703  0.5240  0.5994
 1066SOL    HW2 4317   2.133   1.271   1.958 -0.0489  0.0824  0.8673
 1066SOL    HW3 4318   1.985   1.264   1.928 -0.0514  0.4596  0.7926
 1066SOL    MW4 4319   2.052   1.298   1.973  0.0384  0.4572  0.6602
 1067SOL     OW 4320   2.001   1.535   1.838 -0.2778  0.2869  0.2528
 1067SOL    HW2 4321   2.019   1.461   1.897  0.1831  0.1071 -0.1099
 1067SOL    HW3 4322   1.957   1.495   1.763  1.4071  0.1347 -0.6740
 1067SOL    MW4 4323   1.998   1.520   1.836  0.0051  0.2431  0.0826
 1068SOL     OW 4324   1.800   1.688   2.036  0.3504 -0.1007 -0.1265
 1068SOL    HW2 4325   1.792   1.775   1.998  0.1174 -0.1359 -0.1591
 1068SOL    HW3 4326   1.856   1.641   1.974 -0.6347 -0.3806 -0.8310
 1068SOL    MW4 4327   1.806   1.693   2.023  0.1895 -0.1422 -0.2239
 1069SOL     OW 4328   1.799   1.922   1.889 -0.1312 -0.3874  0.5591
 1069SOL    HW2 4329   1.709   1.950   1.907 -0.0477  0.2944 -0.0566
 1069SOL    HW3 4330   1.797   1.892   1.798  0.4965  0.5976  0.2203
 1069SOL    MW4 4331   1.787   1.922   1.880 -0.0374 -0.1676  0.4332
 1070SOL     OW 4332   2.002   2.066   1.994  0.3192  0.4863  0.0310
 1070SOL    HW2 4333   2.075   2.018   1.955  0.6820 -1.0385  2.4866
 1070SOL    HW3 4334   1.924   2.026   1.956  0.6727 -0.7368  0.5677
 1070SOL    MW4 4335   2.002   2.055   1.984  0.4134  0.1235  0.4257
 1071SOL     OW 4336   2.036   2.318   1.861 -0.1479 -0.1594  0.0429
 1071SOL    HW2 4337   2.109   2.356   1.910 -0.6420  0.1412  0.5570
 1071SOL    HW3 4338   2.015   2.238   1.909  0.3541 -0.6577 -0.5614
 1071SOL    MW4 4339   2.043   2.312   1.874 -0.1469 -0.1855  0.0310
 1072SOL     OW 4340   1.792   2.400   1.999 -0.3373  0.5954 -0.6613
 1072SOL    HW2 4341   1.795   2.414   2.094  0.3912  0.1766 -0.6229
 1072SOL    HW3 4342   1.878   2.366   1.977 -0.6965  0.1512 -1.3911
 1072SOL    MW4 4343   1.804   2.397   2.009 -0.2885  0.4816 -0.7527
 1073SOL     OW 4344   1.808   2.672   1.892  0.1915 -0.2560 -0.3079
 1073SOL    HW2 4345   1.807   2.582   1.924 -2.1826 -0.1425  0.0463
 1073SOL    HW3 4346   1.813   2.664   1.797  0.6992 -0.7371 -0.2396
 1073SOL    MW4 4347   1.808   2.659   1.883 -0.0548 -0.3045 -0.2521
 1074SOL     OW 4348   2.037   2.822   2.010  0.1373  0.5426  0.4588
 1074SOL    HW2 4349   2.018   2.852   2.099  0.3414  2.3445 -0.0849
 1074SOL    HW3 4350   1.965   2.764   1.989 -0.5685  1.0812  1.3452
 1074SOL    MW4 4351   2.025   2.818   2.019  0.0710  0.8514  0.5043
 1075SOL     OW 4352   2.060   3.068   1.877  0.2861 -0.1227 -0.2840
 1075SOL    HW2 4353   1.988   3.123   1.908 -0.4915 -0.4077 -1.5477
 1075SOL    HW3 4354   2.042   2.982   1.915  0.2856 -0.0550 -0.1278
 1075SOL    MW4 4355   2.048   3.064   1.886  0.1836 -0.1514 -0.4301
 1076SOL     OW 4356   1.827   3.209   1.954  0.1049 -0.2555  0.4481
 1076SOL    HW2 4357   1.810   3.231   2.045 -1.5516 -1.1931  0.3880
 1076SOL    HW3 4358   1.743   3.177   1.921  0.8696 -0.6226 -1.1989
 1076SOL    MW4 4359   1.814   3.207   1.962 -0.0126 -0.4277  0.2227
 1077SOL     OW 4360   1.802   3.465   1.898 -0.3300  0.5802 -0.1769
 1077SOL    HW2 4361   1.794   3.373   1.924 -0.0845  0.0836 -1.8258
 1077SOL    HW3 4362   1.726   3.508   1.937 -0.0627 -0.1624  1.2131
 1077SOL    MW4 4363   1.791   3.459   1.907 -0.2623  0.4168 -0.2111
 1078SOL     OW 4364   2.024   3.620   1.982 -0.5744  0.0552  0.1446
 1078SOL    HW2 4365   2.008   3.702   1.935 -0.1568  0.4631  0.7120
 1078SOL    HW3 4366   1.950   3.564   1.959 -0.6527  0.4503 -0.5609
 1078SOL    MW4 4367   2.012   3.623   1.973 -0.5295  0.1607  0.1265
 1079SOL     OW 4368   2.015   3.866   1.883  0.3565  0.1109 -0.1453
 1079SOL    HW2 4369   2.103   3.888   1.915 -0.3054  1.2416  0.9343
 1079SOL    HW3 4370   2.023   3.870   1.788  1.5795 -0.2232 -0.0736
 1079SOL    MW4 4371   2.028   3.869   1.875  0.4306  0.2162  0.0066
 1080SOL     OW 4372   1.804   4.007   1.996 -0.0558 -0.5390  0.0227
 1080SOL    HW2 4373   1.809   4.097   1.964  0.6100 -0.3028  0.7792
 1080SOL    HW3 4374   1.871   3.960   1.947  0.7585 -0.2417  0.8254
 1080SOL    MW4 4375   1.814   4.012   1.986  0.1395 -0.4683  0.2284
 1081SOL     OW 4376   1.821   4.243   1.891 -0.0109  0.2852 -0.0124
 1081SOL    HW2 4377   1.749   4.295   1.928  0.6815  0.7120  0.7490
 1081SOL    HW3 4378   1.804   4.243   1.797 -1.0820  0.2724  0.1703
 1081SOL    MW4 4379   1.809   4.250   1.884 -0.0608  0.3400  0.1123
 1082SOL     OW 4380   2.052   4.373   1.985  0.1466 -0.3836 -0.0328
 1082SOL    HW2 4381   2.124   4.313   1.964 -0.0762 -0.5214 -0.4112
 1082SOL    HW3 4382   1.977   4.337   1.937  0.3016  0.9005 -1.2685
 1082SOL    MW4 4383   2.052   4.360   1.975  0.1376 -0.2327 -0.2458
 1083SOL     OW 4384   2.436   4.635   1.894 -0.2550  0.6890  0.1689
 1083SOL    HW2 4385   2.512   4.680   1.932 -0.4550  0.4731  0.8268
 1083SOL    HW3 4386   2.442   4.545   1.929 -0.2265  0.3861 -0.6127
 1083SOL    MW4 4387   2.447   4.629   1.904 -0.2778  0.6204  0.1527
 1084SOL     OW 4388   2.237   0.121   1.995  0.4219 -0.2682  0.2803
 1084SOL    HW2 4389   2.244   0.132   2.090  0.4729 -0.1952  0.2680
 1084SOL    HW3 4390   2.307   0.059   1.974 -0.0980 -0.9087  0.3997
 1084SOL    MW4 4391   2.247   0.114   2.005  0.3600 -0.3431  0.2944
 1085SOL     OW 4392   2.265   0.386   1.914  0.6819  0.1072  0.1144
 1085SOL    HW2 4393   2.240   0.297   1.939 -0.8633  0.1995 -1.0105
 1085SOL    HW3 4394   2.195   0.441   1.949 -0.9147  0.3573 -3.3349
 1085SOL    MW4 4395   2.253   0.381   1.922  0.2673  0.1524 -0.4891
 1086SOL     OW 4396   2.485   0.531   2.014  0.0086 -0.0871 -0.2591
 1086SOL    HW2 4397   2.556   0.491   1.964  0.2099 -2.1809  1.6150
 1086SOL    HW3 4398   2.407   0.482   1.989 -0.0029 -0.7028  0.9720
 1086SOL    MW4 4399   2.484   0.519   2.004  0.0336 -0.4446  0.1509
 1087SOL     OW 4400   2.514   0.797   1.927 -0.6201  0.0463 -0.4890
 1087SOL    HW2 4401   2.504   0.717   1.978  1.9169  0.0716  0.1386
 1087SOL    HW3 4402   2.507   0.769   1.835 -2.0981 -0.4856 -0.2277
 1087SOL    MW4 4403   2.512   0.783   1.921 -0.4802 -0.0205 -0.3717
 1088SOL     OW 4404   2.263   0.914   1.967  0.1383  0.1807 -0.1322
 1088SOL    HW2 4405   2.274   0.905   2.062 -1.3382 -0.8806 -0.0513
 1088SOL    HW3 4406   2.343   0.877   1.931  0.1332 -0.6375  0.6676
 1088SOL    MW4 4407   2.275   0.908   1.975 -0.0572 -0.0672 -0.0160
 1089SOL     OW 4408   2.266   1.190   1.899  0.3243 -0.0788  0.0852
 1089SOL    HW2 4409   2.357   1.216   1.915 -0.0917  0.5450  1.4738
 1089SOL    HW3 4410   2.263   1.097   1.923  0.7237 -0.2583 -0.5350
 1089SOL    MW4 4411   2.278   1.181   1.904  0.3221 -0.0203  0.1867
 1090SOL     OW 4412   2.511   1.307   1.936 -0.0576 -0.3209 -0.3633
 1090SOL    HW2 4413   2.515   1.305   2.032 -3.4211  0.0930 -0.1595
 1090SOL    HW3 4414   2.507   1.400   1.915  2.0875 -0.3560 -1.0251
 1090SOL    MW4 4415   2.511   1.319   1.946 -0.2184 -0.2710 -0.4236
 1091SOL     OW 4416   2.499   1.559   1.861 -0.3842 -0.0183  0.0275
 1091SOL    HW2 4417   2.420   1.603   1.891 -1.0004 -0.3782 -1.0199
 1091SOL    HW3 4418   2.498   1.570   1.766  0.7839 -0.1018 -0.0042
 1091SOL    MW4 4419   2.488   1.566   1.852 -0.3114 -0.0769 -0.1148
 1092SOL     OW 4420   2.249   1.656   1.926 -0.1703  0.1011  0.0045
 1092SOL    HW2 4421   2.245   1.663   2.022  0.0049 -1.2522  0.1143
 1092SOL    HW3 4422   2.164   1.620   1.901  0.3005 -0.8494 -0.2253
 1092SOL    MW4 4423   2.237   1.652   1.935 -0.0849 -0.2029 -0.0112
 1093SOL     OW 4424   2.189   1.926   1.858  0.0317  0.1479  0.3423
 1093SOL    HW2 4425   2.265   1.983   1.852  0.1701  0.0842  1.5356
 1093SOL    HW3 4426   2.222   1.845   1.898 -0.3102 -0.5139 -0.6846
 1093SOL    MW4 4427   2.203   1.923   1.862  0.0045  0.0521  0.3643
 1094SOL     OW 4428   2.416   2.052   1.969  0.1602 -0.4015 -0.2570
 1094SOL    HW2 4429   2.501   2.010   1.952 -0.9327 -1.6779 -2.8973
 1094SOL    HW3 4430   2.429   2.142   1.941  0.4277 -0.7859 -1.3956
 1094SOL    MW4 4431   2.429   2.058   1.963  0.0513 -0.6208 -0.7555
 1095SOL     OW 4432   2.468   2.319   1.902 -0.1064  0.0900 -0.1252
 1095SOL    HW2 4433   2.552   2.342   1.942 -0.4722 -0.1511  0.8061
 1095SOL    HW3 4434   2.402   2.361   1.958 -0.6328 -0.3413 -0.4120
 1095SOL    MW4 4435   2.470   2.327   1.915 -0.2244  0.0012 -0.0402
 1096SOL     OW 4436   2.232   2.413   2.012  0.6663  0.2350 -0.0486
 1096SOL    HW2 4437   2.219   2.419   2.107 -0.4027  2.6019 -0.3010
 1096SOL    HW3 4438   2.258   2.501   1.986  0.3027 -0.2334 -2.0552
 1096SOL    MW4 4439   2.233   2.425   2.021  0.4773  0.4854 -0.3467
 1097SOL     OW 4440   2.259   2.677   1.910  0.1336 -0.3902  0.3321
 1097SOL    HW2 4441   2.175   2.713   1.937  0.3992  0.5867 -0.1053
 1097SOL    HW3 4442   2.246   2.651   1.819  0.1591 -0.6963  0.4162
 1097SOL    MW4 4443   2.246   2.679   1.901  0.1721 -0.3016  0.2855
 1098SOL     OW 4444   2.487   2.803   2.018  0.1924  0.2070 -0.5889
 1098SOL    HW2 4445   2.491   2.891   1.980 -1.2135  0.5267 -0.0408
 1098SOL    HW3 4446   2.402   2.769   1.990  0.5418 -0.8121 -0.4345
 1098SOL    MW4 4447   2.476   2.810   2.009  0.0532  0.1149 -0.4964
 1099SOL     OW 4448   2.504   3.054   1.887 -0.1888 -0.4823  0.0228
 1099SOL    HW2 4449   2.426   3.100   1.919  0.6185  1.8200 -1.1981
 1099SOL    HW3 4450   2.493   3.051   1.792  1.1448 -0.2473 -0.1503
 1099SOL    MW4 4451   2.492   3.060   1.879  0.0935 -0.1478 -0.1612
 1100SOL     OW 4452   2.286   3.208   1.966 -0.2343 -0.0363  0.1371
 1100SOL    HW2 4453   2.279   3.211   2.061  0.6162  1.5492  0.1725
 1100SOL    HW3 4454   2.208   3.161   1.937 -0.4239 -0.6421  1.6233
 1100SOL    MW4 4455   2.275   3.202   1.974 -0.1471  0.0930  0.3378
 1101SOL     OW 4456   2.266   3.473   1.864 -0.5319 -0.5103 -0.1357
 1101SOL    HW2 4457   2.270   3.388   1.907  1.1089 -0.2741  0.2071
 1101SOL    HW3 4458   2.196   3.520   1.909 -0.4680 -1.1529  0.6391
 1101SOL    MW4 4459   2.258   3.468   1.875 -0.3071 -0.5639  0.0118
 1102SOL     OW 4460   2.491   3.611   1.979 -0.0179  0.2938  0.1218
 1102SOL    HW2 4461   2.469   3.606   2.072 -0.2702 -0.7372  0.0104
 1102SOL    HW3 4462   2.414   3.575   1.934  0.1970  0.5684 -0.4768
 1102SOL    MW4 4463   2.478   3.606   1.985 -0.0226  0.1941  0.0280
 1103SOL     OW 4464   2.487   3.868   1.896 -0.2461  0.0514 -0.1970
 1103SOL    HW2 4465   2.404   3.899   1.931 -0.1787  0.1139 -0.0929
 1103SOL    HW3 4466   2.490   3.774   1.918  0.1610  0.2617  0.6809
 1103SOL    MW4 4467   2.477   3.859   1.903 -0.1836  0.0873 -0.0675
 1104SOL     OW 4468   2.272   3.947   2.021  0.2210  0.1684  0.2913
 1104SOL    HW2 4469   2.262   3.933   2.115 -1.1099  1.0121  0.2779
 1104SOL    HW3 4470   2.271   4.042   2.010  0.9463  0.0881 -0.5197
 1104SOL    MW4 4471   2.271   3.958   2.032  0.1411  0.2692  0.1826
 1105SOL     OW 4472   2.269   4.212   1.934 -0.1565  0.1135 -0.4443
 1105SOL    HW2 4473   2.343   4.267   1.958 -1.1053  1.0000  0.4936
 1105SOL    HW3 4474   2.263   4.220   1.838  0.7962  0.2292 -0.4982
 1105SOL    MW4 4475   2.278   4.220   1.924 -0.1559  0.2456 -0.3277
 1106SOL     OW 4476   2.464   4.373   1.993  0.1845  0.1470 -0.1078
 1106SOL    HW2 4477   2.463   4.357   2.088  0.6625  1.4081  0.1230
 1106SOL    HW3 4478   2.551   4.342   1.965  0.4730  0.7946  0.0596
 1106SOL    MW4 4479   2.476   4.367   2.002  0.2854  0.3986 -0.0551
 1107SOL     OW 4480   2.885   4.656   1.907 -0.3750  0.1313  0.0556
 1107SOL    HW2 4481   2.953   4.696   1.962 -0.8118  1.3186 -0.2560
 1107SOL    HW3 4482   2.872   4.569   1.945  1.6261 -0.2702 -0.1553
 1107SOL    MW4 4483   2.892   4.650   1.920 -0.1686  0.2351 -0.0134
 1108SOL     OW 4484   2.653   0.117   1.971  0.0178  0.4443 -0.0739
 1108SOL    HW2 4485   2.639   0.130   2.064 -2.1288 -0.8381 -0.1817
 1108SOL    HW3 4486   2.740   0.079   1.964 -0.5180 -1.1735  1.5889
 1108SOL    MW4 4487   2.662   0.114   1.982 -0.3357  0.0617  0.1312
 1109SOL     OW 4488   2.660   0.376   1.854  0.3386  0.1111  0.3545
 1109SOL    HW2 4489   2.741   0.407   1.894  0.4892 -0.4214  0.4550
 1109SOL    HW3 4490   2.646   0.289   1.891 -1.2122  0.9026  1.7189
 1109SOL    MW4 4491   2.669   0.369   1.864  0.1538  0.1453  0.5479
 1110SOL     OW 4492   2.897   0.502   1.952 -0.3261  0.5176  0.1643
 1110SOL    HW2 4493   2.967   0.458   1.904  1.3968  1.1003  2.0664
 1110SOL    HW3 4494   2.902   0.593   1.925  0.1012  0.6869  0.7977
 1110SOL    MW4 4495   2.907   0.508   1.942 -0.0424  0.6169  0.4988
 1111SOL     OW 4496   2.929   0.765   1.886  0.1617  0.1659 -0.4465
 1111SOL    HW2 4497   3.015   0.790   1.920 -0.2164  0.4282  0.3457
 1111SOL    HW3 4498   2.869   0.830   1.923 -0.7666 -1.5526  1.2053
 1111SOL    MW4 4499   2.932   0.777   1.895 -0.0107 -0.0263 -0.1241
 1112SOL     OW 4500   2.742   0.945   1.986  0.1793 -0.0033  0.2001
 1112SOL    HW2 4501   2.753   1.014   1.921  0.0763  0.3282  0.5353
 1112SOL    HW3 4502   2.658   0.904   1.965  0.5569 -0.4778 -0.4208
 1112SOL    MW4 4503   2.733   0.948   1.975  0.2155 -0.0222  0.1624
 1113SOL     OW 4504   2.762   1.191   1.865 -0.3373 -0.4782 -0.2487
 1113SOL    HW2 4505   2.682   1.229   1.901  0.0438  0.3022 -0.2114
 1113SOL    HW3 4506   2.752   1.196   1.770 -0.6140 -0.9909 -0.2495
 1113SOL    MW4 4507   2.750   1.196   1.858 -0.3235 -0.4429 -0.2437
 1114SOL     OW 4508   2.943   1.279   2.048 -0.3408  0.1963 -0.2636
 1114SOL    HW2 4509   2.969   1.367   2.022  1.4944 -0.2507  0.0091
 1114SOL    HW3 4510   2.871   1.257   1.988 -0.2699  1.5620 -0.8646
 1114SOL    MW4 4511   2.937   1.288   2.036 -0.0892  0.3176 -0.3068
 1115SOL     OW 4512   2.956   1.542   1.959 -0.1153 -1.2047  0.1796
 1115SOL    HW2 4513   3.024   1.603   1.989 -0.9523 -0.8328  1.3214
 1115SOL    HW3 4514   2.953   1.556   1.864  0.4796 -0.2733  0.2810
 1115SOL    MW4 4515   2.965   1.552   1.950 -0.1473 -1.0326  0.3437
 1116SOL     OW 4516   2.713   1.670   2.005  0.2306  0.2889 -0.0559
 1116SOL    HW2 4517   2.798   1.637   1.978 -0.4508 -1.2638 -0.3503
 1116SOL    HW3 4518   2.650   1.621   1.952 -0.8614  1.0762  0.4947
 1116SOL    MW4 4519   2.716   1.659   1.995 -0.0033  0.1881 -0.0221
 1117SOL     OW 4520   2.661   1.930   1.939 -0.5839 -0.0218  0.0706
 1117SOL    HW2 4521   2.731   1.971   1.990  0.0326 -1.0898  0.1018
 1117SOL    HW3 4522   2.672   1.836   1.954 -1.5651 -0.2425 -0.5243
 1117SOL    MW4 4523   2.672   1.923   1.948 -0.6320 -0.1919 -0.0036
 1118SOL     OW 4524   2.906   2.073   2.022  0.3867  0.0093  0.8205
 1118SOL    HW2 4525   2.898   2.068   2.118 -0.5052  0.2373  0.7590
 1118SOL    HW3 4526   2.987   2.024   2.003  1.2652  1.0420  1.7982
 1118SOL    MW4 4527   2.916   2.066   2.032  0.3853  0.1755  0.9413
 1119SOL     OW 4528   2.896   2.318   1.900  0.4116  0.1848  0.3855
 1119SOL    HW2 4529   2.973   2.362   1.935 -0.1430  0.8833  0.7254
 1119SOL    HW3 4530   2.900   2.230   1.936  1.1432  0.1642  0.2614
 1119SOL    MW4 4531   2.907   2.312   1.909  0.4351  0.2742  0.4140
 1120SOL     OW 4532   2.695   2.419   2.049 -0.5749  0.4006  0.2242
 1120SOL    HW2 4533   2.688   2.508   2.016  0.8828  0.6543  0.5838
 1120SOL    HW3 4534   2.772   2.382   2.007 -1.6453 -0.9998 -0.5810
 1120SOL    MW4 4535   2.704   2.426   2.039 -0.5236  0.2494  0.1655
 1121SOL     OW 4536   2.697   2.671   1.885 -0.0245 -0.3870 -0.1950
 1121SOL    HW2 4537   2.617   2.714   1.914 -0.7766 -1.7411 -0.2094
 1121SOL    HW3 4538   2.694   2.676   1.790  0.7917  1.1038 -0.1616
 1121SOL    MW4 4539   2.686   2.677   1.876 -0.0160 -0.3691 -0.1925
 1122SOL     OW 4540   2.914   2.799   2.018 -0.1059  0.4347 -0.4650
 1122SOL    HW2 4541   2.911   2.887   1.980 -1.1485 -0.1163 -1.7147
 1122SOL    HW3 4542   2.845   2.751   1.972 -0.6995 -0.5537  1.4163
 1122SOL    MW4 4543   2.904   2.804   2.007 -0.3216  0.2315 -0.3817
 1123SOL     OW 4544   2.934   3.062   1.936  0.0378 -0.0481  0.5968
 1123SOL    HW2 4545   2.994   3.120   1.982  0.9294  0.6825 -1.4146
 1123SOL    HW3 4546   2.848   3.103   1.946  0.3420  0.5203  0.9084
 1123SOL    MW4 4547   2.930   3.075   1.943  0.1953  0.1233  0.3726
 1124SOL     OW 4548   2.704   3.214   2.004 -0.2339  0.1000 -0.4401
 1124SOL    HW2 4549   2.708   3.298   1.958 -1.1879  0.4176  0.0500
 1124SOL    HW3 4550   2.630   3.169   1.965 -1.1373  0.4301  0.8731
 1124SOL    MW4 4551   2.695   3.219   1.993 -0.4790  0.1857 -0.2023
 1125SOL     OW 4552   2.718   3.484   1.876 -0.0083 -0.0738  0.2189
 1125SOL    HW2 4553   2.798   3.530   1.905  0.1338  1.1577 -2.0321
 1125SOL    HW3 4554   2.647   3.542   1.904  0.1036  0.8482 -1.3511
 1125SOL    MW4 4555   2.719   3.498   1.884  0.0250  0.2105 -0.2851
 1126SOL     OW 4556   2.921   3.647   1.944 -0.1661  0.1581  0.5547
 1126SOL    HW2 4557   2.929   3.651   2.040 -1.4069 -1.1156  0.7380
 1126SOL    HW3 4558   2.991   3.588   1.916 -1.6150 -1.8569  1.0082
 1126SOL    MW4 4559   2.931   3.639   1.953 -0.5212 -0.2759  0.6387
 1127SOL     OW 4560   2.913   3.945   1.882 -0.2848 -0.3464  0.1914
 1127SOL    HW2 4561   2.916   3.852   1.904  1.1873 -0.8852 -2.1323
 1127SOL    HW3 4562   2.903   3.947   1.787 -2.0480  1.8926  0.3641
 1127SOL    MW4 4563   2.912   3.933   1.873 -0.3231 -0.1223 -0.0924
 1128SOL     OW 4564   2.681   4.012   2.015 -0.2842 -0.3472  0.2430
 1128SOL    HW2 4565   2.764   3.986   1.975  0.6861  2.1160  0.6277
 1128SOL    HW3 4566   2.617   3.952   1.976  1.8418 -3.2164  0.9906
 1128SOL    MW4 4567   2.684   4.000   2.004  0.1245 -0.4005  0.3924
 1129SOL     OW 4568   2.688   4.257   1.897 -0.5411  0.1431  0.0928
 1129SOL    HW2 4569   2.678   4.170   1.936  0.1955 -0.0837 -0.2171
 1129SOL    HW3 4570   2.683   4.242   1.803  1.1771  0.2120 -0.0241
 1129SOL    MW4 4571   2.686   4.243   1.890 -0.2172  0.1225  0.0365
 1130SOL     OW 4572   2.911   4.395   2.017  0.2452  0.1421 -0.1937
 1130SOL    HW2 4573   2.919   4.384   2.112 -2.1180 -0.2699 -0.0227
 1130SOL    HW3 4574   2.838   4.338   1.992 -0.0474  1.3036 -2.0571
 1130SOL    MW4 4575   2.902   4.386   2.027 -0.1051  0.2408 -0.4170
 1131SOL     OW 4576   3.331   0.027   1.853 -0.1117  0.0621 -0.1687
 1131SOL    HW2 4577   3.351  -0.061   1.885  1.3702  0.4240 -0.1048
 1131SOL    HW3 4578   3.324   0.016   1.758 -1.2055 -0.3640 -0.0481
 1131SOL    MW4 4579   3.332   0.014   1.844 -0.0606  0.0539 -0.1445
 1132SOL     OW 4580   3.128   0.142   2.006 -0.7301 -0.2819 -0.1853
 1132SOL    HW2 4581   3.124   0.121   2.099  0.6643  0.7285  0.1239
 1132SOL    HW3 4582   3.203   0.092   1.974 -0.6181  0.1212 -0.5556
 1132SOL    MW4 4583   3.138   0.133   2.014 -0.5314 -0.0954 -0.1934
 1133SOL     OW 4584   3.129   0.364   1.859 -0.2366 -0.2461  0.1730
 1133SOL    HW2 4585   3.127   0.276   1.897  3.0182 -0.6578 -0.4330
 1133SOL    HW3 4586   3.137   0.349   1.765  1.1143  0.6623  0.1261
 1133SOL    MW4 4587   3.130   0.350   1.852  0.3710 -0.1805  0.0869
 1134SOL     OW 4588   3.332   0.524   1.957  0.7444  0.0155  0.0471
 1134SOL    HW2 4589   3.416   0.487   1.929 -0.4054 -0.4511 -3.0101
 1134SOL    HW3 4590   3.267   0.469   1.913 -1.1004  1.8727  0.4149
 1134SOL    MW4 4591   3.335   0.512   1.947  0.3493  0.1990 -0.3077
 1135SOL     OW 4592   3.387   0.777   1.887 -0.3410  0.3208  0.1673
 1135SOL    HW2 4593   3.312   0.834   1.907 -0.7104  0.0820 -0.5235
 1135SOL    HW3 4594   3.356   0.689   1.907  0.1582  0.3322  1.0192
 1135SOL    MW4 4595   3.373   0.773   1.892 -0.3242  0.2908  0.1886
 1136SOL     OW 4596   3.153   0.902   1.957 -0.7943 -0.0504 -0.0518
 1136SOL    HW2 4597   3.155   0.901   2.053  1.4158 -0.3291 -0.0701
 1136SOL    HW3 4598   3.145   0.995   1.935  2.9344  0.4864  0.4381
 1136SOL    MW4 4599   3.152   0.914   1.967 -0.0107 -0.0163  0.0105
 1137SOL     OW 4600   3.147   1.181   1.874  0.3813 -0.2629 -0.2960
 1137SOL    HW2 4601   3.229   1.215   1.910  0.9925 -0.5425 -1.4038
 1137SOL    HW3 4602   3.080   1.206   1.938  1.5905 -1.6804  1.5694
 1137SOL    MW4 4603   3.149   1.189   1.887  0.6213 -0.4867 -0.1961
 1138SOL     OW 4604   3.363   1.298   1.987  0.1660 -0.1297 -0.1210
 1138SOL    HW2 4605   3.355   1.305   2.082 -2.2420  0.6002 -0.3477
 1138SOL    HW3 4606   3.352   1.387   1.955  1.1815 -0.3427 -1.0783
 1138SOL    MW4 4607   3.360   1.311   1.996 -0.0179 -0.0615 -0.2772
 1139SOL     OW 4608   3.330   1.553   1.877  0.5161 -0.0140  0.0519
 1139SOL    HW2 4609   3.406   1.579   1.930  0.0796  0.8111  0.2698
 1139SOL    HW3 4610   3.254   1.574   1.931  0.0765  0.5265 -0.7661
 1139SOL    MW4 4611   3.330   1.559   1.891  0.4005  0.1663 -0.0273
 1140SOL     OW 4612   3.164   1.697   2.038 -0.0433 -0.7735  0.0086
 1140SOL    HW2 4613   3.155   1.701   2.133 -1.1654 -0.7333 -0.0906
 1140SOL    HW3 4614   3.147   1.787   2.009  2.2421 -0.3502 -0.0870
 1140SOL    MW4 4615   3.160   1.710   2.046  0.1099 -0.7123 -0.0169
 1141SOL     OW 4616   3.122   1.950   1.925 -0.7100 -0.0770 -0.3023
 1141SOL    HW2 4617   3.198   1.998   1.955 -1.1178  0.5480 -0.2710
 1141SOL    HW3 4618   3.132   1.946   1.830 -0.3796 -0.4333 -0.2520
 1141SOL    MW4 4619   3.133   1.955   1.916 -0.7200 -0.0416 -0.2915
 1142SOL     OW 4620   3.356   2.058   2.025  0.2946 -0.0396  0.1745
 1142SOL    HW2 4621   3.436   2.012   2.001  1.5504  1.2289  1.8301
 1142SOL    HW3 4622   3.350   2.132   1.964  0.8560  0.3540  0.5917
 1142SOL    MW4 4623   3.366   2.062   2.014  0.5343  0.1795  0.4480
 1143SOL     OW 4624   3.372   2.315   1.870  0.6044 -0.1901  0.1998
 1143SOL    HW2 4625   3.296   2.365   1.901 -0.4108 -1.4290 -0.2983
 1143SOL    HW3 4626   3.370   2.325   1.775  0.6939 -0.7588  0.1381
 1143SOL    MW4 4627   3.362   2.323   1.862  0.4823 -0.4287  0.1259
 1144SOL     OW 4628   3.144   2.455   1.983 -0.1823 -0.2973  0.0235
 1144SOL    HW2 4629   3.136   2.461   2.078 -0.2458 -0.6211  0.0385
 1144SOL    HW3 4630   3.151   2.546   1.954 -1.9835 -0.0950  0.1814
 1144SOL    MW4 4631   3.144   2.468   1.992 -0.4282 -0.3133  0.0464
 1145SOL     OW 4632   3.150   2.720   1.888 -0.5440 -0.1813  0.0449
 1145SOL    HW2 4633   3.065   2.737   1.928 -0.6835  2.8855 -1.4217
 1145SOL    HW3 4634   3.135   2.729   1.794  1.0908 -1.1093 -0.3233
 1145SOL    MW4 4635   3.137   2.723   1.881 -0.3467  0.1009 -0.1971
 1146SOL     OW 4636   3.381   2.832   1.995  0.2513 -0.1836 -0.1237
 1146SOL    HW2 4637   3.361   2.832   2.088  1.1425 -2.0900  0.0767
 1146SOL    HW3 4638   3.299   2.804   1.954 -0.2939  1.1391  0.0298
 1146SOL    MW4 4639   3.367   2.828   2.002  0.2968 -0.2604 -0.0770
 1147SOL     OW 4640   3.358   3.084   1.870  0.5258  0.2035  0.2729
 1147SOL    HW2 4641   3.432   3.140   1.894 -0.0623  1.2843 -0.4001
 1147SOL    HW3 4642   3.377   3.000   1.912  2.6733  0.1261 -0.7738
 1147SOL    MW4 4643   3.370   3.081   1.879  0.7317  0.3359  0.0460
 1148SOL     OW 4644   3.153   3.205   2.035 -0.3660  0.1357 -0.2216
 1148SOL    HW2 4645   3.165   3.295   2.003  0.1743  0.1603  0.0413
 1148SOL    HW3 4646   3.221   3.155   1.991  0.1912  0.1109  0.6489
 1148SOL    MW4 4647   3.164   3.210   2.025 -0.2213  0.1359 -0.0718
 1149SOL     OW 4648   3.136   3.461   1.916 -0.4050  0.0831  0.0403
 1149SOL    HW2 4649   3.203   3.527   1.934 -1.0885  0.7555  0.1619
 1149SOL    HW3 4650   3.136   3.451   1.821  0.6740 -0.7769  0.1267
 1149SOL    MW4 4651   3.144   3.468   1.906 -0.3529  0.0584  0.0678
 1150SOL     OW 4652   3.339   3.614   2.005  0.2388  0.5249  0.0681
 1150SOL    HW2 4653   3.418   3.576   1.968  0.7654 -0.1917  1.8441
 1150SOL    HW3 4654   3.333   3.702   1.967  1.8226  0.5481 -0.1452
 1150SOL    MW4 4655   3.348   3.620   1.995  0.5174  0.4334  0.2742
 1151SOL     OW 4656   3.325   3.866   1.897  0.0152  0.6155  0.0478
 1151SOL    HW2 4657   3.260   3.933   1.918  0.5983  1.5297 -1.0140
 1151SOL    HW3 4658   3.343   3.878   1.804 -0.6979 -1.7530 -0.4160
 1151SOL    MW4 4659   3.319   3.876   1.888 -0.0021  0.4237 -0.1534
 1152SOL     OW 4660   3.149   4.063   1.995 -0.1962 -0.0389 -0.2466
 1152SOL    HW2 4661   3.153   4.034   2.086 -0.9376  2.3048  0.5707
 1152SOL    HW3 4662   3.075   4.016   1.958 -1.2590  0.6316  0.9932
 1152SOL    MW4 4663   3.140   4.053   2.002 -0.4342  0.3591  0.0246
 1153SOL     OW 4664   3.139   4.331   1.878  0.0121 -0.2649  0.3311
 1153SOL    HW2 4665   3.147   4.247   1.925 -1.1474 -0.5793 -0.0008
 1153SOL    HW3 4666   3.064   4.373   1.919  2.4108  1.9894  2.5476
 1153SOL    MW4 4667   3.130   4.325   1.890  0.1752 -0.0091  0.5800
 1154SOL     OW 4668   3.386   4.450   1.974  0.6255  0.3541 -0.4579
 1154SOL    HW2 4669   3.464   4.404   1.941  0.2526 -0.3757 -0.3330
 1154SOL    HW3 4670   3.312   4.403   1.936  0.2222  0.3117  0.3660
 1154SOL    MW4 4671   3.387   4.438   1.965  0.5233  0.2522 -0.3327
 1155SOL     OW 4672   3.823   4.625   1.910 -0.2564 -0.2447 -0.6227
 1155SOL    HW2 4673   3.796   4.542   1.951 -0.3688 -0.7770 -1.7600
 1155SOL    HW3 4674   3.756   4.688   1.938  0.8704 -0.0454  1.8455
 1155SOL    MW4 4675   3.810   4.622   1.919 -0.1225 -0.2885 -0.4472
 1156SOL     OW 4676   3.602   0.122   1.964 -0.3159 -0.0554  0.3271
 1156SOL    HW2 4677   3.599   0.115   2.060  0.8667 -0.2205  0.3530
 1156SOL    HW3 4678   3.517   0.088   1.936 -0.3855 -0.6980  1.2840
 1156SOL    MW4 4679   3.590   0.116   1.973 -0.1690 -0.1620  0.4567
 1157SOL     OW 4680   3.614   0.398   1.909 -0.1530  0.1976 -0.4537
 1157SOL    HW2 4681   3.614   0.309   1.946  0.0958  0.5733  0.4621
 1157SOL    HW3 4682   3.603   0.384   1.815 -0.1213 -0.8092 -0.3212
 1157SOL    MW4 4683   3.613   0.384   1.902 -0.1161  0.1144 -0.3153
 1158SOL     OW 4684   3.840   0.530   1.978 -0.4856 -0.3923  0.0009
 1158SOL    HW2 4685   3.828   0.622   1.952 -1.2923 -1.2078 -2.7711
 1158SOL    HW3 4686   3.756   0.489   1.956 -0.3901 -1.6723  1.9218
 1158SOL    MW4 4687   3.827   0.537   1.971 -0.5796 -0.6688 -0.1113
 1159SOL     OW 4688   3.837   0.804   1.905  0.6945  0.0845 -0.1284
 1159SOL    HW2 4689   3.756   0.841   1.938  1.4128  0.3362  1.3791
 1159SOL    HW3 4690   3.819   0.787   1.812 -1.3113 -0.5824  0.3552
 1159SOL    MW4 4691   3.824   0.807   1.897  0.5245  0.0297  0.1345
 1160SOL     OW 4692   3.608   0.897   1.996 -0.0226 -0.4043 -0.0546
 1160SOL    HW2 4693   3.613   0.985   1.958  0.2076  0.2202  1.3996
 1160SOL    HW3 4694   3.529   0.860   1.958 -0.1591  0.4532 -0.6352
 1160SOL    MW4 4695   3.598   0.904   1.986 -0.0105 -0.2089  0.0607
 1161SOL     OW 4696   3.583   1.158   1.887 -0.1327  0.3200  0.8974
 1161SOL    HW2 4697   3.502   1.196   1.920 -0.0867  0.7435  0.5259
 1161SOL    HW3 4698   3.580   1.173   1.793 -0.5747 -1.4934  0.6215
 1161SOL    MW4 4699   3.572   1.165   1.879 -0.1848  0.1365  0.8121
 1162SOL     OW 4700   3.790   1.296   2.011 -0.8438 -0.2693  0.0114
 1162SOL    HW2 4701   3.794   1.292   2.107 -0.9778 -2.0366 -0.0496
 1162SOL    HW3 4702   3.704   1.260   1.989 -1.1182  0.8086 -0.7542
 1162SOL    MW4 4703   3.779   1.291   2.021 -0.8979 -0.3603 -0.0973
 1163SOL     OW 4704   3.772   1.549   1.920  0.3897 -0.4797  0.2725
 1163SOL    HW2 4705   3.845   1.594   1.964 -0.6021  0.9356  0.5085
 1163SOL    HW3 4706   3.780   1.458   1.948  1.0559 -0.0030  1.6899
 1163SOL    MW4 4707   3.783   1.543   1.930  0.3469 -0.2301  0.4907
 1164SOL     OW 4708   3.547   1.660   2.018  0.1238 -0.2606 -0.1810
 1164SOL    HW2 4709   3.531   1.743   1.974  0.7645  0.5727  1.1188
 1164SOL    HW3 4710   3.618   1.619   1.968  0.6160  0.5232 -0.1296
 1164SOL    MW4 4711   3.554   1.665   2.006  0.2730 -0.0472 -0.0026
 1165SOL     OW 4712   3.570   1.922   1.915 -0.0799 -0.4592  0.3328
 1165SOL    HW2 4713   3.649   1.970   1.940  1.2324 -2.7099  0.6553
 1165SOL    HW3 4714   3.577   1.913   1.820  0.0635 -0.6928  0.3663
 1165SOL    MW4 4715   3.581   1.927   1.906  0.1123 -0.7869  0.3798
 1166SOL     OW 4716   3.824   2.068   1.984 -0.1379  0.1619 -0.0188
 1166SOL    HW2 4717   3.896   2.026   1.938 -0.6593  0.3278 -1.0033
 1166SOL    HW3 4718   3.819   2.156   1.947 -1.0357  0.0520 -0.1773
 1166SOL    MW4 4719   3.833   2.074   1.973 -0.3250  0.1693 -0.1696
 1167SOL     OW 4720   3.802   2.315   1.871 -0.0628 -0.0002 -0.2534
 1167SOL    HW2 4721   3.871   2.369   1.910  0.3268 -0.6144 -0.0790
 1167SOL    HW3 4722   3.721   2.346   1.911  0.3000 -0.4075  0.8051
 1167SOL    MW4 4723   3.800   2.326   1.881  0.0365 -0.1349 -0.0907
 1168SOL     OW 4724   3.585   2.438   2.001  0.2747 -0.3489  0.1193
 1168SOL    HW2 4725   3.601   2.524   1.962  1.5155 -0.5351  0.2124
 1168SOL    HW3 4726   3.508   2.405   1.954  0.8518  0.0637 -1.1359
 1168SOL    MW4 4727   3.577   2.445   1.990  0.5145 -0.3192 -0.0339
 1169SOL     OW 4728   3.614   2.696   1.919 -0.0919 -0.3778  0.1030
 1169SOL    HW2 4729   3.688   2.752   1.943  0.9458 -1.4372 -0.6053
 1169SOL    HW3 4730   3.538   2.743   1.951  0.7781  1.3908 -0.3381
 1169SOL    MW4 4731   3.614   2.710   1.926  0.1597 -0.2844 -0.0486
 1170SOL     OW 4732   3.830   2.845   1.981  0.1628 -0.2892  0.1669
 1170SOL    HW2 4733   3.825   2.842   2.077 -0.2261  1.0857  0.1956
 1170SOL    HW3 4734   3.826   2.938   1.960  3.6218 -0.3352 -0.9953
 1170SOL    MW4 4735   3.829   2.857   1.991  0.5677 -0.1137  0.0172
 1171SOL     OW 4736   3.802   3.121   1.906  0.0592  0.4879  0.5370
 1171SOL    HW2 4737   3.721   3.170   1.921  0.3148  0.9126  0.5535
 1171SOL    HW3 4738   3.813   3.121   1.811 -0.1261  0.1546  0.5142
 1171SOL    MW4 4739   3.793   3.128   1.896  0.0684  0.5002  0.5362
 1172SOL     OW 4740   3.574   3.240   1.982  0.5414 -0.8064  0.3993
 1172SOL    HW2 4741   3.566   3.241   2.077  0.3347 -0.6733  0.3814
 1172SOL    HW3 4742   3.565   3.331   1.956  0.3650 -0.8713  0.2320
 1172SOL    MW4 4743   3.572   3.252   1.991  0.4909 -0.7975  0.3748
 1173SOL     OW 4744   3.568   3.502   1.887 -0.0669  0.1986 -0.0615
 1173SOL    HW2 4745   3.650   3.521   1.933 -0.5879 -0.7999  1.2882
 1173SOL    HW3 4746   3.593   3.499   1.795  1.5347 -0.6711  0.3769
 1173SOL    MW4 4747   3.582   3.504   1.881  0.0756 -0.0482  0.1744
 1174SOL     OW 4748   3.778   3.571   2.045 -0.0869  0.3480 -0.0775
 1174SOL    HW2 4749   3.858   3.535   2.007  0.8127 -1.1403  3.0550
 1174SOL    HW3 4750   3.782   3.665   2.024  2.4660  0.2834 -0.0260
 1174SOL    MW4 4751   3.789   3.579   2.037  0.3686  0.1433  0.3424
 1175SOL     OW 4752   3.822   3.845   1.984  0.0765 -0.0063  0.0786
 1175SOL    HW2 4753   3.742   3.898   1.992 -0.1810 -0.5352  1.1097
 1175SOL    HW3 4754   3.838   3.840   1.890 -0.8629  0.4704 -0.1157
 1175SOL    MW4 4755   3.813   3.851   1.973 -0.0818 -0.0134  0.1889
 1176SOL     OW 4756   3.576   3.990   1.992 -0.1535  0.3551 -0.0893
 1176SOL    HW2 4757   3.570   4.002   2.086  0.3039  1.3495 -0.1744
 1176SOL    HW3 4758   3.495   3.947   1.967  0.1867 -0.8752  0.9035
 1176SOL    MW4 4759   3.565   3.986   2.001 -0.0484  0.3240  0.0303
 1177SOL     OW 4760   3.577   4.281   1.872  0.2571  0.1690 -0.3682
 1177SOL    HW2 4761   3.660   4.312   1.906  0.4093  0.1788 -0.7392
 1177SOL    HW3 4762   3.566   4.193   1.909 -1.0822  1.3896  2.1995
 1177SOL    MW4 4763   3.586   4.273   1.881  0.1006  0.3309 -0.0784
 1178SOL     OW 4764   3.804   4.365   1.984  0.0195 -0.3706 -0.0588
 1178SOL    HW2 4765   3.832   4.377   2.075  0.1304 -0.5607 -0.0676
 1178SOL    HW3 4766   3.883   4.335   1.938 -0.0872 -0.4791 -0.1735
 1178SOL    MW4 4767   3.818   4.362   1.990  0.0200 -0.4106 -0.0751
 1179SOL     OW 4768   4.230   4.663   1.887 -0.4004 -0.2782  0.7372
 1179SOL    HW2 4769   4.155   4.705   1.930 -0.4313 -0.7174  1.1105
 1179SOL    HW3 4770   4.305   4.716   1.913 -0.4217 -0.5323  1.3170
 1179SOL    MW4 4771   4.230   4.676   1.896 -0.4077 -0.3697  0.8630
 1180SOL     OW 4772   4.023   0.116   2.013 -0.1378  0.2324 -0.1946
 1180SOL    HW2 4773   4.036   0.108   2.108  0.2982  0.4542 -0.2351
 1180SOL    HW3 4774   3.950   0.057   1.994 -0.0879  0.0274  0.2467
 1180SOL    MW4 4775   4.015   0.107   2.023 -0.0739  0.2346 -0.1419
 1181SOL     OW 4776   4.067   0.369   1.926  0.4228 -0.2682 -0.0195
 1181SOL    HW2 4777   4.053   0.277   1.951  1.4748 -0.3127  0.4391
 1181SOL    HW3 4778   3.987   0.413   1.954  0.1383 -0.9551  0.2695
 1181SOL    MW4 4779   4.055   0.362   1.933  0.5240 -0.3647  0.0790
 1182SOL     OW 4780   4.322   0.473   1.985 -0.7205  0.7065 -0.2078
 1182SOL    HW2 4781   4.309   0.446   2.075 -2.2759  0.7535 -0.4069
 1182SOL    HW3 4782   4.241   0.447   1.940 -0.5689  1.9914 -1.2588
 1182SOL    MW4 4783   4.309   0.466   1.991 -0.9060  0.8823 -0.3726
 1183SOL     OW 4784   4.282   0.749   1.903 -0.3040 -0.4657 -0.7558
 1183SOL    HW2 4785   4.285   0.657   1.929 -0.6211 -0.7327 -1.6497
 1183SOL    HW3 4786   4.272   0.747   1.808  0.0284  0.4947 -0.8179
 1183SOL    MW4 4787   4.281   0.737   1.894 -0.3018 -0.3743 -0.8819
 1184SOL     OW 4788   4.067   0.938   1.972  0.0791 -0.4122  0.2839
 1184SOL    HW2 4789   4.134   0.875   1.946  0.1746 -0.8025  1.4415
 1184SOL    HW3 4790   3.985   0.900   1.939  0.3826 -0.1169 -0.8101
 1184SOL    MW4 4791   4.065   0.925   1.964  0.1321 -0.4247  0.2923
 1185SOL     OW 4792   3.990   1.174   1.860  0.2547  0.4588  0.2886
 1185SOL    HW2 4793   4.008   1.097   1.913 -0.6764 -0.6912 -1.0455
 1185SOL    HW3 4794   3.908   1.209   1.896 -0.7793 -0.7517 -0.8448
 1185SOL    MW4 4795   3.981   1.169   1.872 -0.0048  0.1475 -0.0371
 1186SOL     OW 4796   4.216   1.286   1.978  0.0079  0.1433  0.6370
 1186SOL    HW2 4797   4.216   1.300   2.073 -1.7034  0.6493  0.5785
 1186SOL    HW3 4798   4.131   1.246   1.959  0.5924 -0.5392 -0.6090
 1186SOL    MW4 4799   4.205   1.283   1.988 -0.1402  0.1199  0.4648
 1187SOL     OW 4800   4.220   1.540   1.909  0.5973  0.8310  0.1621
 1187SOL    HW2 4801   4.218   1.450   1.942  3.1471  1.1070  1.1804
 1187SOL    HW3 4802   4.223   1.531   1.814  0.6478 -0.1630  0.2554
 1187SOL    MW4 4803   4.220   1.527   1.901  0.9398  0.7362  0.3088
 1188SOL     OW 4804   3.988   1.697   2.010 -0.3307 -0.0766  0.6016
 1188SOL    HW2 4805   4.017   1.731   2.095  1.6258 -0.9021  0.2845
 1188SOL    HW3 4806   4.055   1.632   1.986 -0.7412  0.3092 -1.6849
 1188SOL    MW4 4807   4.001   1.693   2.018 -0.1268 -0.1345  0.2580
 1189SOL     OW 4808   4.043   1.931   1.873 -0.0603 -0.3494  0.0728
 1189SOL    HW2 4809   4.030   1.843   1.907 -0.5797 -0.4020 -0.2651
 1189SOL    HW3 4810   4.034   1.922   1.779  1.6663 -0.2551 -0.1224
 1189SOL    MW4 4811   4.040   1.918   1.865  0.0987 -0.3439  0.0024
 1190SOL     OW 4812   4.279   2.028   1.981 -0.1944  0.0905  0.2446
 1190SOL    HW2 4813   4.254   2.053   2.070 -1.3109 -0.2891  0.0393
 1190SOL    HW3 4814   4.203   1.982   1.946 -0.0489  0.9170 -1.1932
 1190SOL    MW4 4815   4.266   2.025   1.988 -0.3228  0.1495  0.0275
 1191SOL     OW 4816   4.273   2.291   1.890 -0.7038 -0.1837  0.3609
 1191SOL    HW2 4817   4.269   2.202   1.925  0.5498 -0.4287 -0.0820
 1191SOL    HW3 4818   4.362   2.321   1.912 -0.6513  0.4523 -0.6944
 1191SOL    MW4 4819   4.285   2.283   1.898 -0.5312 -0.1318  0.1632
 1192SOL     OW 4820   4.008   2.450   1.985 -0.4755 -0.2097  0.2300
 1192SOL    HW2 4821   4.009   2.441   2.080 -0.7781 -0.0505  0.2466
 1192SOL    HW3 4822   4.088   2.405   1.956 -0.0226  0.3307  0.6118
 1192SOL    MW4 4823   4.019   2.443   1.994 -0.4554 -0.1173  0.2826
 1193SOL     OW 4824   4.054   2.711   1.898 -0.2746 -0.4219 -0.0040
 1193SOL    HW2 4825   4.024   2.624   1.923  1.4013 -0.4150  2.1592
 1193SOL    HW3 4826   3.983   2.769   1.926 -0.1008 -0.8102  1.2918
 1193SOL    MW4 4827   4.041   2.707   1.905 -0.0305 -0.4723  0.4524
 1194SOL     OW 4828   4.305   2.820   1.979  0.1185  0.1934 -0.0064
 1194SOL    HW2 4829   4.292   2.829   2.073  0.8720 -0.7473  0.2012
 1194SOL    HW3 4830   4.228   2.772   1.948  0.8061 -1.2533  0.4640
 1194SOL    MW4 4831   4.293   2.815   1.987  0.3085 -0.1218  0.0831
 1195SOL     OW 4832   4.285   3.079   1.889 -0.0201  0.1059  0.1994
 1195SOL    HW2 4833   4.204   3.100   1.935 -0.2467 -0.2748 -0.0276
 1195SOL    HW3 4834   4.309   2.992   1.922  1.5890  1.2198  2.0984
 1195SOL    MW4 4835   4.278   3.070   1.900  0.1621  0.2024  0.4200
 1196SOL     OW 4836   4.052   3.190   2.002  0.2790 -0.2946 -0.1342
 1196SOL    HW2 4837   4.043   3.196   2.097 -0.6478 -0.6119 -0.1947
 1196SOL    HW3 4838   3.963   3.172   1.970  0.0691  2.4441 -1.2768
 1196SOL    MW4 4839   4.039   3.189   2.010  0.1292  0.0250 -0.2928
 1197SOL     OW 4840   4.020   3.473   1.921 -0.4314  0.0505  0.5308
 1197SOL    HW2 4841   4.081   3.534   1.963  2.0938 -0.2629 -2.5438
 1197SOL    HW3 4842   4.053   3.386   1.945 -1.0136 -0.1180  0.7222
 1197SOL    MW4 4843   4.033   3.470   1.930 -0.1750 -0.0131  0.1504
 1198SOL     OW 4844   4.240   3.609   2.046 -0.3817 -0.6504 -0.1260
 1198SOL    HW2 4845   4.241   3.698   2.011  0.1908  0.6114  2.9591
 1198SOL    HW3 4846   4.320   3.569   2.011 -0.1852  0.3121 -0.8106
 1198SOL    MW4 4847   4.250   3.615   2.037 -0.2799 -0.3572  0.1907
 1199SOL     OW 4848   4.250   3.852   1.918  0.0169  0.3169  0.6120
 1199SOL    HW2 4849   4.335   3.890   1.939  0.5158 -0.9902  0.9428
 1199SOL    HW3 4850   4.245   3.856   1.823  0.7752 -0.2959  0.5406
 1199SOL    MW4 4851   4.260   3.858   1.908  0.1826  0.0639  0.6462
 1200SOL     OW 4852   4.050   4.029   1.968  0.0089  0.1941 -0.1520
 1200SOL    HW2 4853   4.112   3.959   1.946 -0.9679 -0.9951  0.7787
 1200SOL    HW3 4854   3.972   3.983   1.997 -0.8580  1.6910 -0.0555
 1200SOL    MW4 4855   4.048   4.014   1.969 -0.2346  0.2346 -0.0165
 1201SOL     OW 4856   4.021   4.255   1.837 -0.1443  0.3526 -0.4349
 1201SOL    HW2 4857   4.102   4.300   1.862  0.2009 -0.9704  0.8788
 1201SOL    HW3 4858   4.027   4.169   1.878 -1.6003 -0.2687 -1.4625
 1201SOL    MW4 4859   4.032   4.250   1.845 -0.2904  0.0963 -0.3971
 1202SOL     OW 4860   4.235   4.374   1.946  0.8062 -0.4043  0.2793
 1202SOL    HW2 4861   4.257   4.366   2.039  0.9643 -0.4992  0.2337
 1202SOL    HW3 4862   4.234   4.468   1.930 -0.4113 -0.3353  0.6608
 1202SOL    MW4 4863   4.238   4.385   1.957  0.6661 -0.4077  0.3235
 1203SOL     OW 4864   0.227   4.611   2.371 -0.3454 -0.0844  0.2482
 1203SOL    HW2 4865   0.243   4.598   2.465  0.0746 -0.4847  0.1220
 1203SOL    HW3 4866   0.299   4.667   2.342  0.4213 -1.2690 -0.1651
 1203SOL    MW4 4867   0.239   4.617   2.380 -0.1888 -0.2937  0.1769
 1204SOL     OW 4868   0.003   0.097   2.264 -0.0851  0.3086  0.2526
 1204SOL    HW2 4869   0.076   0.040   2.286  0.9426  2.1468  1.7508
 1204SOL    HW3 4870  -0.007   0.089   2.169  1.7710 -0.2973  0.1035
 1204SOL    MW4 4871   0.011   0.089   2.254  0.2954  0.4712  0.4308
 1205SOL     OW 4872   0.011   0.346   2.414 -0.3863  0.2244  0.4161
 1205SOL    HW2 4873   0.081   0.394   2.370 -0.3577 -0.5939 -0.4532
 1205SOL    HW3 4874   0.014   0.259   2.375 -2.3260  0.3779 -0.1276
 1205SOL    MW4 4875   0.020   0.341   2.403 -0.6384  0.1367  0.2294
 1206SOL     OW 4876   0.215   0.527   2.297 -0.6630  0.5737  0.2871
 1206SOL    HW2 4877   0.281   0.475   2.342 -1.9090 -0.6087  0.7929
 1206SOL    HW3 4878   0.215   0.493   2.207 -0.9712  0.1829  0.4327
 1206SOL    MW4 4879   0.224   0.516   2.291 -0.8681  0.3662  0.3731
 1207SOL     OW 4880   0.191   0.795   2.376 -0.2809 -0.0223  0.6261
 1207SOL    HW2 4881   0.194   0.787   2.472  2.0499  0.2174  0.6116
 1207SOL    HW3 4882   0.200   0.705   2.344  0.2393  0.0190  0.6432
 1207SOL    MW4 4883   0.193   0.782   2.385  0.0952  0.0148  0.6268
 1208SOL     OW 4884   4.453   0.872   2.256 -0.1932 -0.3805 -0.2705
 1208SOL    HW2 4885   4.529   0.836   2.301 -0.6116 -0.4518  0.3963
 1208SOL    HW3 4886   4.474   0.865   2.163  1.3049  1.1411 -0.0558
 1208SOL    MW4 4887   4.466   0.866   2.250 -0.0505 -0.1891 -0.1540
 1209SOL     OW 4888   4.488   1.124   2.345  0.3791  0.4964  0.1542
 1209SOL    HW2 4889   4.476   1.130   2.439 -0.6118  0.5693  0.0263
 1209SOL    HW3 4890   4.466   1.033   2.324 -2.6288  1.3154 -0.4475
 1209SOL    MW4 4891   4.484   1.112   2.354 -0.1488  0.6140  0.0577
 1210SOL     OW 4892   0.238   1.243   2.256 -0.2959  0.1187 -0.1190
 1210SOL    HW2 4893   0.158   1.195   2.275  0.4533 -0.1815  2.3934
 1210SOL    HW3 4894   0.233   1.260   2.162 -2.6188 -1.1127 -0.2667
 1210SOL    MW4 4895   0.227   1.239   2.246 -0.5036 -0.0834  0.1934
 1211SOL     OW 4896   0.198   1.519   2.354 -0.4701 -0.0363  0.1548
 1211SOL    HW2 4897   0.183   1.515   2.448 -3.2441 -0.8817 -0.2778
 1211SOL    HW3 4898   0.202   1.427   2.326  2.6610  0.1623 -0.2662
 1211SOL    MW4 4899   0.197   1.506   2.363 -0.4230 -0.1216  0.0424
 1212SOL     OW 4900   4.450   1.669   2.251  0.2400  0.2349  0.4213
 1212SOL    HW2 4901   4.456   1.761   2.279 -0.4572  0.8217 -1.2732
 1212SOL    HW3 4902   4.524   1.626   2.295  0.0274  1.4021  1.9638
 1212SOL    MW4 4903   4.461   1.676   2.261  0.1202  0.4663  0.4013
 1213SOL     OW 4904   4.462   1.928   2.371  0.4729 -0.0649  0.0124
 1213SOL    HW2 4905   4.394   1.985   2.336  1.1160  0.1088 -0.9632
 1213SOL    HW3 4906   4.544   1.971   2.346  0.9596 -1.3303 -0.5572
 1213SOL    MW4 4907   4.464   1.941   2.363  0.6223 -0.2089 -0.1917
 1214SOL     OW 4908   0.211   2.027   2.295 -0.1632  0.3462 -0.3036
 1214SOL    HW2 4909   0.296   2.001   2.332 -1.1163 -0.9259  1.0238
 1214SOL    HW3 4910   0.226   2.026   2.200  1.0634 -0.7591 -0.1141
 1214SOL    MW4 4911   0.225   2.023   2.287 -0.1271  0.0327 -0.1037
 1215SOL     OW 4912   0.201   2.331   2.356  0.1626 -0.2568 -0.2155
 1215SOL    HW2 4913   0.223   2.358   2.445  2.0897  0.5509 -0.9153
 1215SOL    HW3 4914   0.189   2.236   2.362  2.3095 -0.4911  0.5103
 1215SOL    MW4 4915   0.202   2.322   2.369  0.7001 -0.1810 -0.2122
 1216SOL     OW 4916   4.461   2.463   2.251 -0.0406  0.1864 -0.0288
 1216SOL    HW2 4917   4.459   2.557   2.272  0.9538  0.8354 -2.6897
 1216SOL    HW3 4918   4.540   2.431   2.294 -0.2237  0.6210  0.6494
 1216SOL    MW4 4919   4.471   2.471   2.259  0.0668  0.3293 -0.2906
 1217SOL     OW 4920   0.002   2.719   2.351 -0.1752  0.5525  0.0749
 1217SOL    HW2 4921   0.017   2.723   2.446 -1.1263  1.4501  0.1888
 1217SOL    HW3 4922   0.087   2.742   2.313  0.5547 -1.0101  0.6909
 1217SOL    MW4 4923   0.015   2.722   2.359 -0.2044  0.4647  0.1712
 1218SOL     OW 4924   0.213   2.837   2.226  0.1221  0.2433  0.0374
 1218SOL    HW2 4925   0.293   2.802   2.265 -0.2496  0.3071  0.8625
 1218SOL    HW3 4926   0.227   2.828   2.131  0.3605 -1.3698  0.2245
 1218SOL    MW4 4927   0.226   2.831   2.218  0.1045  0.0389  0.1709
 1219SOL     OW 4928   0.194   3.109   2.330 -0.0519  0.4717 -0.3391
 1219SOL    HW2 4929   0.106   3.144   2.318 -0.1041  0.5465  0.2351
 1219SOL    HW3 4930   0.189   3.019   2.296  0.0622  0.9832 -1.7348
 1219SOL    MW4 4931   0.182   3.102   2.324 -0.0437  0.5488 -0.4475
 1220SOL     OW 4932   4.448   3.200   2.265  0.1792  0.5265 -0.2589
 1220SOL    HW2 4933   4.437   3.286   2.306 -2.2405  0.2213 -0.2292
 1220SOL    HW3 4934   4.449   3.218   2.171 -3.1285  0.3352 -0.3692
 1220SOL    MW4 4935   4.447   3.214   2.258 -0.5765  0.4611 -0.2697
 1221SOL     OW 4936   4.463   3.462   2.360 -0.0123 -0.3409  0.1936
 1221SOL    HW2 4937   4.468   3.454   2.455 -1.0532  1.4288  0.4091
 1221SOL    HW3 4938   4.383   3.512   2.344 -0.1227 -1.0708 -1.6415
 1221SOL    MW4 4939   4.453   3.467   2.370 -0.1645 -0.2034 -0.0200
 1222SOL     OW 4940   0.185   3.543   2.220  0.0299 -0.2092  0.5097
 1222SOL    HW2 4941   0.261   3.507   2.266 -0.2678 -0.9455  0.4183
 1222SOL    HW3 4942   0.110   3.499   2.258 -0.3491  0.4075  0.4855
 1222SOL    MW4 4943   0.185   3.533   2.231 -0.0594 -0.2248  0.4947
 1223SOL     OW 4944   0.206   3.801   2.320 -0.0753 -0.1937 -0.0414
 1223SOL    HW2 4945   0.135   3.860   2.297 -0.4986 -0.1969  1.2018
 1223SOL    HW3 4946   0.177   3.715   2.291 -0.2886 -0.0870 -0.1400
 1223SOL    MW4 4947   0.193   3.797   2.313 -0.1593 -0.1800  0.1094
 1224SOL     OW 4948   4.482   3.982   2.263 -0.0656 -0.2667  0.4989
 1224SOL    HW2 4949   4.495   4.070   2.298  1.2576 -0.4697  0.5311
 1224SOL    HW3 4950   4.475   3.994   2.169 -0.9350 -0.0195  0.5878
 1224SOL    MW4 4951   4.483   3.995   2.255 -0.0057 -0.2608  0.5147
 1225SOL     OW 4952   4.475   4.246   2.377 -0.1183  0.2053 -0.0515
 1225SOL    HW2 4953   4.470   4.260   2.472 -0.6665  0.7822 -0.1563
 1225SOL    HW3 4954   4.555   4.291   2.351 -0.5766  1.0528 -0.0234
 1225SOL    MW4 4955   4.485   4.254   2.386 -0.2503  0.3929 -0.0615
 1226SOL     OW 4956   0.198   4.356   2.248 -0.1050 -0.1334  0.6436
 1226SOL    HW2 4957   0.271   4.302   2.278 -0.5304 -0.6732  0.7079
 1226SOL    HW3 4958   0.220   4.444   2.278  1.7585  0.1887 -1.4652
 1226SOL    MW4 4959   0.211   4.360   2.256  0.0847 -0.1621  0.3741
 1227SOL     OW 4960   0.635   4.657   2.348  0.0923  0.2286 -0.1158
 1227SOL    HW2 4961   0.629   4.643   2.443  0.4279 -2.2942 -0.4225
 1227SOL    HW3 4962   0.723   4.689   2.333 -0.0520  0.8951  0.4530
 1227SOL    MW4 4963   0.646   4.659   2.359  0.1175 -0.0167 -0.0813
 1228SOL     OW 4964   0.417   0.141   2.290 -0.1690 -0.2650  0.1104
 1228SOL    HW2 4965   0.499   0.098   2.316 -0.3300 -0.5777  0.1047
 1228SOL    HW3 4966   0.424   0.151   2.195 -0.4742 -1.0029  0.0088
 1228SOL    MW4 4967   0.429   0.137   2.280 -0.2305 -0.4036  0.0961
 1229SOL     OW 4968   0.431   0.396   2.389 -0.4739  0.5409 -0.0330
 1229SOL    HW2 4969   0.425   0.401   2.485 -0.4269  1.0941 -0.0603
 1229SOL    HW3 4970   0.422   0.302   2.370 -0.5130  0.4309  0.5103
 1229SOL    MW4 4971   0.429   0.384   2.399 -0.4728  0.5993  0.0350
 1230SOL     OW 4972   0.626   0.468   2.223  0.2959 -0.4364 -0.2057
 1230SOL    HW2 4973   0.646   0.557   2.250 -0.4213  0.3118 -2.0549
 1230SOL    HW3 4974   0.558   0.439   2.284 -0.6928  0.8951 -0.6510
 1230SOL    MW4 4975   0.620   0.476   2.235  0.0708 -0.1620 -0.5083
 1231SOL     OW 4976   0.672   0.720   2.352  0.3429  0.1950  0.2414
 1231SOL    HW2 4977   0.676   0.716   2.448 -0.0744 -0.9316  0.2161
 1231SOL    HW3 4978   0.598   0.776   2.334  1.2653  1.5496  0.5819
 1231SOL    MW4 4979   0.663   0.727   2.363  0.4095  0.2251  0.2828
 1232SOL     OW 4980   0.447   0.853   2.261 -0.1715 -0.3762 -0.2453
 1232SOL    HW2 4981   0.359   0.829   2.291 -0.0186 -0.0758  0.4462
 1232SOL    HW3 4982   0.445   0.839   2.166 -0.1492 -2.9452  0.1058
 1232SOL    MW4 4983   0.435   0.848   2.252 -0.1484 -0.6755 -0.1078
 1233SOL     OW 4984   0.449   1.116   2.354  0.3337  0.3695 -0.0478
 1233SOL    HW2 4985   0.462   1.026   2.325  1.9177  0.9272 -1.1808
 1233SOL    HW3 4986   0.367   1.143   2.314  0.2528 -0.3242 -0.3491
 1233SOL    MW4 4987   0.440   1.108   2.345  0.5320  0.3515 -0.2372
 1234SOL     OW 4988   0.668   1.249   2.270 -0.3062 -0.2820  0.4044
 1234SOL    HW2 4989   0.675   1.337   2.306 -2.8479  0.7674 -1.4734
 1234SOL    HW3 4990   0.593   1.210   2.315  0.9123 -1.5764  1.3532
 1234SOL    MW4 4991   0.659   1.255   2.281 -0.4808 -0.3142  0.2818
 1235SOL     OW 4992   0.671   1.512   2.372 -0.4790 -0.8524  0.3943
 1235SOL    HW2 4993   0.668   1.534   2.465 -1.4917  1.2503 -0.1212
 1235SOL    HW3 4994   0.757   1.542   2.343 -0.2163 -1.3875  0.6039
 1235SOL    MW4 4995   0.682   1.519   2.380 -0.5780 -0.6455  0.3541
 1236SOL     OW 4996   0.446   1.658   2.289  0.1554 -0.0998  0.0057
 1236SOL    HW2 4997   0.522   1.607   2.318 -0.6302 -2.2171 -1.5624
 1236SOL    HW3 4998   0.371   1.617   2.333 -0.4453 -0.1018 -1.0107
 1236SOL    MW4 4999   0.446   1.646   2.299 -0.0275 -0.3793 -0.3352
 1237SOL     OW 5000   0.470   1.922   2.402 -0.1474 -0.1882 -0.2219
 1237SOL    HW2 5001   0.530   1.976   2.349  0.0953 -0.4211 -0.1880
 1237SOL    HW3 5002   0.469   1.837   2.357 -1.1599  0.0943 -0.7292
 1237SOL    MW4 5003   0.478   1.918   2.389 -0.2489 -0.1817 -0.2842
 1238SOL     OW 5004   0.661   2.082   2.274 -0.2481  0.5162  0.4096
 1238SOL    HW2 5005   0.743   2.049   2.311 -0.4520 -0.0493  0.3635
 1238SOL    HW3 5006   0.657   2.173   2.303  0.5309  0.6272  0.1764
 1238SOL    MW4 5007   0.671   2.090   2.283 -0.1722  0.4563  0.3726
 1239SOL     OW 5008   0.656   2.342   2.390 -0.3840 -0.0565 -0.0100
 1239SOL    HW2 5009   0.657   2.337   2.485  0.0954 -0.8196 -0.0488
 1239SOL    HW3 5010   0.740   2.384   2.368 -1.4145  2.0596 -0.0062
 1239SOL    MW4 5011   0.667   2.347   2.399 -0.4566  0.1218 -0.0145
 1240SOL     OW 5012   0.441   2.481   2.280 -0.1984  0.2815  0.6585
 1240SOL    HW2 5013   0.513   2.433   2.321 -0.3074 -0.4334  0.0164
 1240SOL    HW3 5014   0.365   2.423   2.287 -0.0762 -0.1173 -1.0874
 1240SOL    MW4 5015   0.441   2.467   2.286 -0.1966  0.1342  0.3433
 1241SOL     OW 5016   0.458   2.744   2.346 -0.5503  0.1350  0.4538
 1241SOL    HW2 5017   0.480   2.759   2.438  0.9554 -1.0251  0.3137
 1241SOL    HW3 5018   0.456   2.648   2.338 -2.9127  0.2090 -0.2262
 1241SOL    MW4 5019   0.460   2.733   2.357 -0.6633 -0.0081  0.3457
 1242SOL     OW 5020   0.682   2.882   2.272 -0.4321  0.0154 -0.5790
 1242SOL    HW2 5021   0.757   2.824   2.283  0.4459  1.0544 -1.0115
 1242SOL    HW3 5022   0.606   2.828   2.294  0.5202 -0.7296  0.9235
 1242SOL    MW4 5023   0.682   2.868   2.276 -0.1907  0.0544 -0.4380
 1243SOL     OW 5024   0.683   3.135   2.373  0.3305 -0.1310 -0.7219
 1243SOL    HW2 5025   0.606   3.173   2.332 -1.3978 -2.0107  0.6583
 1243SOL    HW3 5026   0.685   3.045   2.341  1.4104 -0.3670 -0.0191
 1243SOL    MW4 5027   0.673   3.128   2.363  0.2450 -0.4098 -0.4473
 1244SOL     OW 5028   0.435   3.199   2.234  0.3752  0.2003  0.0898
 1244SOL    HW2 5029   0.351   3.156   2.253  0.3769 -0.5379 -1.4827
 1244SOL    HW3 5030   0.441   3.198   2.138  2.1444  0.3187  0.1831
 1244SOL    MW4 5031   0.424   3.193   2.224  0.6089  0.1187 -0.1056
 1245SOL     OW 5032   0.395   3.458   2.354 -0.2346 -0.2496 -0.0639
 1245SOL    HW2 5033   0.475   3.503   2.326 -0.8348  0.5326 -0.5221
 1245SOL    HW3 5034   0.399   3.373   2.309  0.2917 -0.1699 -0.1710
 1245SOL    MW4 5035   0.406   3.452   2.344 -0.2443 -0.1359 -0.1388
 1246SOL     OW 5036   0.625   3.597   2.270  0.0754  0.2496  0.0409
 1246SOL    HW2 5037   0.645   3.683   2.305  0.2482  0.2016  0.0579
 1246SOL    HW3 5038   0.629   3.608   2.175 -0.8776  0.5003  0.0219
 1246SOL    MW4 5039   0.628   3.610   2.262 -0.0275  0.2763  0.0403
 1247SOL     OW 5040   0.692   3.884   2.333  0.2128  0.3575  0.0026
 1247SOL    HW2 5041   0.667   3.878   2.425  0.4835 -0.6931  0.0151
 1247SOL    HW3 5042   0.614   3.915   2.288 -0.1008  0.2897  0.5058
 1247SOL    MW4 5043   0.679   3.887   2.339  0.2070  0.2100  0.0706
 1248SOL     OW 5044   0.434   3.947   2.252  0.1371 -0.2303  0.2896
 1248SOL    HW2 5045   0.364   3.886   2.277  0.6696 -1.1201 -0.3391
 1248SOL    HW3 5046   0.426   3.955   2.157  1.6441 -1.3143  0.0508
 1248SOL    MW4 5047   0.424   3.940   2.243  0.4062 -0.4902  0.1750
 1249SOL     OW 5048   0.451   4.234   2.323 -0.4128  0.2455  0.2267
 1249SOL    HW2 5049   0.528   4.283   2.297 -0.4946  0.2690  0.0240
 1249SOL    HW3 5050   0.470   4.144   2.296 -0.3897  0.2234  0.3190
 1249SOL    MW4 5051   0.463   4.228   2.316 -0.4205  0.2460  0.2122
 1250SOL     OW 5052   0.674   4.396   2.248 -0.3997 -0.1555 -0.1647
 1250SOL    HW2 5053   0.645   4.480   2.284 -1.2791 -1.0072  1.1575
 1250SOL    HW3 5054   0.687   4.413   2.155 -2.5825  0.9403 -0.2986
 1250SOL    MW4 5055   0.672   4.409   2.240 -0.8038 -0.1235 -0.0079
 1251SOL     OW 5056   1.106   4.646   2.364 -0.1730 -0.4787  0.3957
 1251SOL    HW2 5057   1.098   4.642   2.459  0.2548  1.1201  0.5116
 1251SOL    HW3 5058   1.031   4.698   2.335 -0.8456 -1.7718 -0.2443
 1251SOL    MW4 5059   1.095   4.652   2.373 -0.2054 -0.4377  0.3269
 1252SOL     OW 5060   0.882   0.116   2.259  0.1309 -0.0079 -0.2551
 1252SOL    HW2 5061   0.873   0.208   2.281 -1.5021  0.0369 -1.0397
 1252SOL    HW3 5062   0.880   0.114   2.163 -0.6272 -0.9197 -0.2297
 1252SOL    MW4 5063   0.880   0.128   2.249 -0.1845 -0.1223 -0.3552
 1253SOL     OW 5064   0.888   0.368   2.360 -0.0138  0.2121  0.2627
 1253SOL    HW2 5065   0.958   0.414   2.314 -1.0127  0.7929 -0.6884
 1253SOL    HW3 5066   0.807   0.405   2.324 -0.8105 -0.7106  1.0885
 1253SOL    MW4 5067   0.886   0.379   2.349 -0.2508  0.1670  0.2460
 1254SOL     OW 5068   1.101   0.481   2.249  0.0952 -0.0869 -0.3272
 1254SOL    HW2 5069   1.185   0.453   2.287  0.6737  1.0976 -0.7027
 1254SOL    HW3 5070   1.119   0.489   2.155 -0.4847  0.0346 -0.4302
 1254SOL    MW4 5071   1.115   0.478   2.241  0.0949  0.0854 -0.3905
 1255SOL     OW 5072   1.109   0.738   2.366  0.3038 -0.0034 -0.1043
 1255SOL    HW2 5073   1.025   0.775   2.339  0.7313 -0.6124 -2.3670
 1255SOL    HW3 5074   1.107   0.648   2.332  1.5264 -0.2967  0.5732
 1255SOL    MW4 5075   1.097   0.731   2.358  0.5214 -0.1224 -0.3133
 1256SOL     OW 5076   0.880   0.888   2.276  0.0598  0.5105 -0.4954
 1256SOL    HW2 5077   0.885   0.969   2.326 -0.3579 -0.0168  0.4071
 1256SOL    HW3 5078   0.800   0.845   2.305  0.0375 -0.0191 -1.2907
 1256SOL    MW4 5079   0.870   0.893   2.286  0.0017  0.3711 -0.4814
 1257SOL     OW 5080   0.889   1.137   2.415 -0.0659  0.1586  0.1123
 1257SOL    HW2 5081   0.952   1.196   2.375  0.0658 -0.5520 -0.7398
 1257SOL    HW3 5082   0.806   1.159   2.373 -0.1586  0.2797  0.3625
 1257SOL    MW4 5083   0.886   1.148   2.404 -0.0607  0.0808  0.0329
 1258SOL     OW 5084   1.095   1.287   2.292 -0.2055  0.0277  0.2116
 1258SOL    HW2 5085   1.170   1.236   2.321 -0.9759 -0.2326  1.8308
 1258SOL    HW3 5086   1.099   1.285   2.196  0.8366 -1.4665  0.2774
 1258SOL    MW4 5087   1.105   1.280   2.283 -0.1696 -0.2038  0.4337
 1259SOL     OW 5088   1.153   1.550   2.366 -0.3533 -0.2884  0.2789
 1259SOL    HW2 5089   1.072   1.590   2.335  0.1568  0.3949 -0.2141
 1259SOL    HW3 5090   1.140   1.456   2.355 -1.2946 -0.2217  0.7584
 1259SOL    MW4 5091   1.141   1.543   2.361 -0.4102 -0.1895  0.2770
 1260SOL     OW 5092   0.894   1.647   2.288 -0.1602  0.1451  0.2693
 1260SOL    HW2 5093   0.862   1.736   2.304  1.9555  1.0565 -0.4266
 1260SOL    HW3 5094   0.890   1.636   2.193  0.0247 -0.3403  0.3141
 1260SOL    MW4 5095   0.889   1.657   2.278  0.1433  0.2013  0.1833
 1261SOL     OW 5096   0.886   1.918   2.356  0.4169 -0.1628 -0.0636
 1261SOL    HW2 5097   0.892   1.917   2.451  1.1815 -1.7965 -0.1173
 1261SOL    HW3 5098   0.968   1.958   2.327  0.0289  0.6666 -0.0369
 1261SOL    MW4 5099   0.897   1.923   2.365  0.4666 -0.2688 -0.0670
 1262SOL     OW 5100   1.110   2.075   2.272  0.3530  0.1899  0.3683
 1262SOL    HW2 5101   1.182   2.025   2.311 -0.5241 -0.7459  0.8244
 1262SOL    HW3 5102   1.106   2.045   2.181  0.9601  0.7162  0.1731
 1262SOL    MW4 5103   1.119   2.064   2.265  0.3173  0.1359  0.4027
 1263SOL     OW 5104   1.151   2.333   2.359  0.3895  0.3729  0.5052
 1263SOL    HW2 5105   1.227   2.370   2.315  1.6405 -0.7005  1.7168
 1263SOL    HW3 5106   1.139   2.247   2.319  0.7663 -0.0925  1.3775
 1263SOL    MW4 5107   1.159   2.326   2.348  0.6043  0.1698  0.7803
 1264SOL     OW 5108   0.906   2.438   2.289 -0.4283 -0.0548 -0.7129
 1264SOL    HW2 5109   0.987   2.399   2.322 -0.4431  0.9070  0.5289
 1264SOL    HW3 5110   0.912   2.431   2.194  1.3617  0.4900 -0.6535
 1264SOL    MW4 5111   0.917   2.432   2.281 -0.1941  0.1440 -0.5412
 1265SOL     OW 5112   0.913   2.713   2.325  0.1337  0.1523  0.3673
 1265SOL    HW2 5113   0.903   2.722   2.419 -0.5518 -0.0500  0.3168
 1265SOL    HW3 5114   0.918   2.619   2.309  0.5960  0.1989  0.2381
 1265SOL    MW4 5115   0.912   2.702   2.335  0.1042  0.1318  0.3438
 1266SOL     OW 5116   1.173   2.848   2.251 -0.0127 -0.7367 -0.5807
 1266SOL    HW2 5117   1.252   2.823   2.298  0.0360 -0.3579 -0.4566
 1266SOL    HW3 5118   1.105   2.790   2.285 -0.0112 -0.3705  0.0719
 1266SOL    MW4 5119   1.174   2.837   2.262 -0.0060 -0.6385 -0.4783
 1267SOL     OW 5120   1.139   3.088   2.362 -0.2643 -0.2055  0.3517
 1267SOL    HW2 5121   1.066   3.134   2.319 -0.0250 -1.7515 -1.7869
 1267SOL    HW3 5122   1.137   3.000   2.324  2.6270 -0.3089  0.3424
 1267SOL    MW4 5123   1.129   3.083   2.351  0.1487 -0.4232  0.0682
 1268SOL     OW 5124   0.920   3.235   2.276 -0.3050  0.0728 -0.1101
 1268SOL    HW2 5125   0.908   3.325   2.307  0.8011 -0.0632  0.7484
 1268SOL    HW3 5126   0.845   3.187   2.313  0.5429  0.0963  1.7062
 1268SOL    MW4 5127   0.908   3.240   2.285 -0.0472  0.0579  0.2427
 1269SOL     OW 5128   0.877   3.498   2.365 -0.2203  0.0776 -0.0326
 1269SOL    HW2 5129   0.894   3.491   2.459 -0.4855 -0.5290 -0.0247
 1269SOL    HW3 5130   0.805   3.560   2.357  0.4543  0.8744  0.0971
 1269SOL    MW4 5131   0.870   3.505   2.376 -0.1663  0.1028 -0.0145
 1270SOL     OW 5132   1.094   3.610   2.228  0.0203  0.6244  0.4323
 1270SOL    HW2 5133   1.167   3.564   2.270 -1.2627 -0.5384  1.4305
 1270SOL    HW3 5134   1.016   3.576   2.271 -1.3041  0.0927 -2.2558
 1270SOL    MW4 5135   1.094   3.600   2.239 -0.3238  0.4008  0.2096
 1271SOL     OW 5136   1.140   3.856   2.355  0.2316  0.0068  0.4128
 1271SOL    HW2 5137   1.215   3.896   2.311  0.6406 -0.6838  0.4881
 1271SOL    HW3 5138   1.129   3.771   2.313 -0.6031  0.1546  0.3036
 1271SOL    MW4 5139   1.148   3.850   2.344  0.1754 -0.0648  0.4082
 1272SOL     OW 5140   0.926   3.991   2.253 -0.2901  0.1968  0.2663
 1272SOL    HW2 5141   1.000   3.935   2.276  1.3744  2.0744 -0.4326
 1272SOL    HW3 5142   0.849   3.939   2.275  1.2135 -0.7819  3.4585
 1272SOL    MW4 5143   0.925   3.977   2.259  0.1279  0.3152  0.5956
 1273SOL     OW 5144   0.897   4.261   2.358  0.4033  0.5058 -0.5305
 1273SOL    HW2 5145   0.913   4.173   2.325 -0.4725  0.3642 -0.5976
 1273SOL    HW3 5146   0.814   4.287   2.318  0.1404  0.9576  0.3003
 1273SOL    MW4 5147   0.888   4.253   2.348  0.2530  0.5469 -0.4301
 1274SOL     OW 5148   1.124   4.379   2.283  0.3437  0.4579 -0.3140
 1274SOL    HW2 5149   1.044   4.336   2.316  0.6397 -0.2177 -0.4644
 1274SOL    HW3 5150   1.116   4.469   2.313  0.1726  0.0726  0.8491
 1274SOL    MW4 5151   1.112   4.385   2.292  0.3603  0.3176 -0.1805
 1275SOL     OW 5152   1.563   4.660   2.384 -0.1184  0.0843  0.1519
 1275SOL    HW2 5153   1.638   4.706   2.346  0.0900  0.6173  1.1987
 1275SOL    HW3 5154   1.488   4.689   2.332  0.5170 -1.1813 -1.5146
 1275SOL    MW4 5155   1.563   4.670   2.372 -0.0070 -0.0119  0.0703
 1276SOL     OW 5156   1.350   0.105   2.236  0.6699  0.1383 -0.2603
 1276SOL    HW2 5157   1.362   0.191   2.276 -0.6213  0.4034 -0.4221
 1276SOL    HW3 5158   1.278   0.065   2.285 -0.3994  0.1496 -1.7641
 1276SOL    MW4 5159   1.342   0.111   2.248  0.3585  0.1747 -0.4799
 1277SOL     OW 5160   1.355   0.349   2.355 -0.1399 -0.3441 -0.0405
 1277SOL    HW2 5161   1.352   0.359   2.450  0.6709  0.3435 -0.0734
 1277SOL    HW3 5162   1.428   0.406   2.327  0.2217 -1.2438 -0.9766
 1277SOL    MW4 5163   1.364   0.358   2.363  0.0149 -0.3720 -0.1686
 1278SOL     OW 5164   1.552   0.518   2.269  0.0691 -0.0795 -0.6261
 1278SOL    HW2 5165   1.624   0.474   2.315 -0.0986  1.1088  0.7829
 1278SOL    HW3 5166   1.580   0.518   2.177  1.1994 -0.9162 -0.2997
 1278SOL    MW4 5167   1.565   0.512   2.263  0.1960 -0.0330 -0.3972
 1279SOL     OW 5168   1.573   0.794   2.357  0.4127 -0.1922  0.1674
 1279SOL    HW2 5169   1.656   0.826   2.323 -0.2293 -0.4279 -1.6304
 1279SOL    HW3 5170   1.578   0.699   2.345 -0.4146 -0.1351 -0.5871
 1279SOL    MW4 5171   1.585   0.785   2.351  0.2189 -0.2158 -0.1693
 1280SOL     OW 5172   1.330   0.897   2.267  0.0221 -0.0531 -0.1811
 1280SOL    HW2 5173   1.418   0.865   2.288  0.1268  0.0492 -0.4595
 1280SOL    HW3 5174   1.271   0.839   2.315  0.3130  1.2716  1.8202
 1280SOL    MW4 5175   1.334   0.885   2.276  0.0743  0.1352  0.0463
 1281SOL     OW 5176   1.325   1.157   2.350  0.2904  0.0445 -0.3703
 1281SOL    HW2 5177   1.339   1.148   2.444 -0.6880  0.6519 -0.1603
 1281SOL    HW3 5178   1.336   1.068   2.316 -0.0763 -0.3075  0.4215
 1281SOL    MW4 5179   1.328   1.144   2.357  0.1129  0.0782 -0.2384
 1282SOL     OW 5180   1.571   1.281   2.259  0.1482 -0.1539  0.3152
 1282SOL    HW2 5181   1.484   1.246   2.276 -0.2805  1.0737  0.6586
 1282SOL    HW3 5182   1.581   1.276   2.163 -1.7616  3.0864 -0.1192
 1282SOL    MW4 5183   1.561   1.276   2.248 -0.1603  0.4356  0.3033
 1283SOL     OW 5184   1.556   1.558   2.362  0.4060  0.0575  0.6869
 1283SOL    HW2 5185   1.638   1.604   2.346 -0.1960  0.2360 -2.2429
 1283SOL    HW3 5186   1.575   1.467   2.341 -0.4508  0.3199 -1.4196
 1283SOL    MW4 5187   1.569   1.552   2.357  0.2134  0.1156  0.0224
 1284SOL     OW 5188   1.352   1.653   2.212 -0.3432  0.0876  0.0441
 1284SOL    HW2 5189   1.428   1.612   2.254 -0.3280  0.5877  0.5120
 1284SOL    HW3 5190   1.276   1.613   2.255 -0.3524 -0.6916 -0.6897
 1284SOL    MW4 5191   1.352   1.643   2.224 -0.3424  0.0508  0.0091
 1285SOL     OW 5192   1.309   1.910   2.335  0.4260  0.3192 -0.4665
 1285SOL    HW2 5193   1.383   1.954   2.294  1.2916  0.6680  1.4252
 1285SOL    HW3 5194   1.316   1.819   2.306  1.0247  0.5463 -1.0557
 1285SOL    MW4 5195   1.320   1.904   2.326  0.6191  0.3951 -0.2947
 1286SOL     OW 5196   1.520   2.079   2.284 -0.8457  0.1776 -0.5887
 1286SOL    HW2 5197   1.605   2.042   2.310 -1.2117  0.4726  1.1354
 1286SOL    HW3 5198   1.519   2.074   2.189  0.5904 -0.9805 -0.5615
 1286SOL    MW4 5199   1.531   2.073   2.275 -0.7044  0.0637 -0.3576
 1287SOL     OW 5200   1.566   2.343   2.356 -0.1502 -0.0462  0.5018
 1287SOL    HW2 5201   1.565   2.355   2.451  1.2895 -0.1391  0.5446
 1287SOL    HW3 5202   1.544   2.251   2.343  1.4223 -0.4842  0.8476
 1287SOL    MW4 5203   1.563   2.333   2.367  0.2472 -0.1161  0.5531
 1288SOL     OW 5204   1.355   2.500   2.252 -0.0449 -0.2874  0.3667
 1288SOL    HW2 5205   1.440   2.463   2.275 -0.0025 -0.6407 -0.3220
 1288SOL    HW3 5206   1.349   2.487   2.157 -0.8286 -0.1848  0.4021
 1288SOL    MW4 5207   1.366   2.493   2.242 -0.1428 -0.3204  0.2804
 1289SOL     OW 5208   1.362   2.735   2.393 -0.2269 -0.2995 -0.2529
 1289SOL    HW2 5209   1.441   2.765   2.349 -0.2935  0.1638 -0.0662
 1289SOL    HW3 5210   1.347   2.647   2.359  0.1393 -0.2324 -0.5922
 1289SOL    MW4 5211   1.371   2.728   2.383 -0.1873 -0.2296 -0.2730
 1290SOL     OW 5212   1.596   2.833   2.272 -0.2830 -0.7766 -0.3756
 1290SOL    HW2 5213   1.614   2.924   2.294  0.5010 -0.8131 -0.8479
 1290SOL    HW3 5214   1.571   2.836   2.180 -1.4021 -0.8972 -0.0831
 1290SOL    MW4 5215   1.595   2.845   2.263 -0.3272 -0.7975 -0.3994
 1291SOL     OW 5216   1.622   3.103   2.360 -0.3340 -0.3776  0.2628
 1291SOL    HW2 5217   1.610   3.097   2.454 -0.6500  1.0727  0.3208
 1291SOL    HW3 5218   1.540   3.139   2.327 -0.2094 -0.8363 -0.5703
 1291SOL    MW4 5219   1.610   3.107   2.368 -0.3593 -0.2470  0.1607
 1292SOL     OW 5220   1.373   3.213   2.288 -0.3059 -0.6395  0.6353
 1292SOL    HW2 5221   1.292   3.171   2.313 -0.7653 -0.8056 -1.0483
 1292SOL    HW3 5222   1.369   3.219   2.192  1.3957 -0.1315  0.5637
 1292SOL    MW4 5223   1.362   3.209   2.278 -0.1422 -0.5946  0.4041
 1293SOL     OW 5224   1.272   3.465   2.378 -0.3171  0.0045 -0.3276
 1293SOL    HW2 5225   1.298   3.472   2.470 -0.1167  0.1082 -0.3922
 1293SOL    HW3 5226   1.304   3.380   2.350 -1.3606 -0.5061  0.0131
 1293SOL    MW4 5227   1.279   3.455   2.387 -0.4282 -0.0494 -0.2911
 1294SOL     OW 5228   1.541   3.603   2.289 -0.5476 -0.1530  0.1375
 1294SOL    HW2 5229   1.528   3.696   2.309  0.5813  0.6502 -2.5895
 1294SOL    HW3 5230   1.456   3.563   2.307 -1.2944  1.5735  0.5696
 1294SOL    MW4 5231   1.528   3.610   2.294 -0.4972  0.1807 -0.1650
 1295SOL     OW 5232   1.550   3.867   2.362 -0.0685  0.1260  0.8825
 1295SOL    HW2 5233   1.555   3.853   2.456  1.6798 -1.0741  0.6388
 1295SOL    HW3 5234   1.634   3.907   2.339 -0.6787  0.8636 -0.0908
 1295SOL    MW4 5235   1.562   3.870   2.371  0.0817  0.0651  0.7219
 1296SOL     OW 5236   1.338   4.009   2.255  0.0446  0.2024  0.7574
 1296SOL    HW2 5237   1.418   3.965   2.283  0.3806  0.1452 -0.2713
 1296SOL    HW3 5238   1.347   4.016   2.160 -0.6667  1.1892  0.7596
 1296SOL    MW4 5239   1.350   4.004   2.246 -0.0051  0.3247  0.6220
 1297SOL     OW 5240   1.379   4.276   2.354 -0.0343  0.1680  0.4984
 1297SOL    HW2 5241   1.378   4.187   2.319  2.2053  0.1598  0.3699
 1297SOL    HW3 5242   1.290   4.308   2.340 -0.5171 -1.5842 -0.6607
 1297SOL    MW4 5243   1.367   4.268   2.347  0.1974 -0.0639  0.3285
 1298SOL     OW 5244   1.587   4.404   2.254 -0.3555  0.5091  0.7154
 1298SOL    HW2 5245   1.514   4.357   2.294 -0.0161 -1.3829 -0.8358
 1298SOL    HW3 5246   1.578   4.494   2.285 -1.7660 -0.2927  2.6991
 1298SOL    MW4 5247   1.576   4.410   2.264 -0.4970  0.1535  0.7725
 1299SOL     OW 5248   1.992   0.024   2.359 -0.3469  0.0395  0.2684
 1299SOL    HW2 5249   2.064   0.077   2.325  0.1274 -0.6622  0.1713
 1299SOL    HW3 5250   2.012  -0.065   2.330 -1.4599 -0.1010 -0.1039
 1299SOL    MW4 5251   2.004   0.019   2.351 -0.4313 -0.0716  0.2065
 1300SOL     OW 5252   1.779   0.117   2.230 -0.7888 -0.2249  0.5615
 1300SOL    HW2 5253   1.767   0.204   2.268 -0.3385  0.0962 -0.0307
 1300SOL    HW3 5254   1.845   0.075   2.284 -0.4999  0.0547  0.4224
 1300SOL    MW4 5255   1.786   0.123   2.242 -0.6913 -0.1457  0.4652
 1301SOL     OW 5256   1.762   0.369   2.360 -0.0631  0.3415  0.4791
 1301SOL    HW2 5257   1.781   0.362   2.453  0.6071  0.8522  0.3805
 1301SOL    HW3 5258   1.839   0.411   2.322 -1.2754  2.2363  0.0574
 1301SOL    MW4 5259   1.775   0.373   2.367 -0.1346  0.6588  0.4106
 1302SOL     OW 5260   1.973   0.521   2.264  0.2229  0.2504  0.2954
 1302SOL    HW2 5261   1.991   0.609   2.298  0.4575  0.1388  0.4679
 1302SOL    HW3 5262   2.002   0.524   2.173  0.5240  0.2638  0.3887
 1302SOL    MW4 5263   1.979   0.533   2.257  0.2936  0.2374  0.3304
 1303SOL     OW 5264   2.039   0.774   2.371 -0.3034 -0.4821  0.1192
 1303SOL    HW2 5265   2.118   0.802   2.324 -0.7359 -1.1085 -0.9973
 1303SOL    HW3 5266   1.967   0.819   2.326 -0.5271  0.7233  1.6357
 1303SOL    MW4 5267   2.040   0.784   2.358 -0.3903 -0.4057  0.1719
 1304SOL     OW 5268   1.824   0.888   2.257  0.0960 -0.8708  0.0777
 1304SOL    HW2 5269   1.815   0.976   2.293  2.3174 -1.3399  1.8934
 1304SOL    HW3 5270   1.816   0.899   2.162  0.2197  1.2406  0.3012
 1304SOL    MW4 5271   1.822   0.901   2.249  0.4054 -0.6541  0.3467
 1305SOL     OW 5272   1.804   1.142   2.346  0.6318 -0.2927  0.2056
 1305SOL    HW2 5273   1.879   1.200   2.331  0.5049 -0.1173  0.2403
 1305SOL    HW3 5274   1.732   1.183   2.297  0.8356 -1.0554 -0.7311
 1305SOL    MW4 5275   1.804   1.155   2.338  0.6419 -0.3703  0.0863
 1306SOL     OW 5276   2.036   1.289   2.270  0.4224 -0.3664  0.4822
 1306SOL    HW2 5277   2.049   1.378   2.302  0.9263 -0.0315 -0.6351
 1306SOL    HW3 5278   2.045   1.296   2.175 -0.9498 -1.3561  0.2545
 1306SOL    MW4 5279   2.039   1.301   2.261  0.3080 -0.4529  0.3047
 1307SOL     OW 5280   2.038   1.560   2.355 -0.2693  0.1405  0.2728
 1307SOL    HW2 5281   2.049   1.576   2.448  0.4124  0.0121  0.2182
 1307SOL    HW3 5282   1.954   1.601   2.333 -1.4394 -1.5908  1.3635
 1307SOL    MW4 5283   2.028   1.567   2.364 -0.3338 -0.1048  0.4096
 1308SOL     OW 5284   1.789   1.674   2.305 -0.1757 -0.3347  0.2969
 1308SOL    HW2 5285   1.792   1.767   2.329  1.5037 -0.3867  0.3456
 1308SOL    HW3 5286   1.803   1.673   2.210 -0.8638 -0.5081  0.1928
 1308SOL    MW4 5287   1.791   1.686   2.296 -0.0449 -0.3644  0.2899
 1309SOL     OW 5288   1.753   1.949   2.371  0.2312 -0.5167  0.5164
 1309SOL    HW2 5289   1.756   1.953   2.466  2.1464 -0.7671  0.4800
 1309SOL    HW3 5290   1.832   1.995   2.342 -0.6462  0.0882 -0.9678
 1309SOL    MW4 5291   1.764   1.956   2.379  0.3680 -0.4699  0.3159
 1310SOL     OW 5292   2.002   2.054   2.289 -0.2812 -0.2969 -0.0258
 1310SOL    HW2 5293   2.089   2.015   2.303  0.6012  1.2323 -1.0661
 1310SOL    HW3 5294   1.992   2.056   2.194 -1.0110  0.4701  0.0611
 1310SOL    MW4 5295   2.012   2.049   2.278 -0.2611  0.0060 -0.1516
 1311SOL     OW 5296   2.018   2.304   2.420 -0.2153 -0.0129 -0.0501
 1311SOL    HW2 5297   2.104   2.334   2.393 -0.9783  0.3453 -2.2269
 1311SOL    HW3 5298   2.006   2.220   2.375 -1.7804  0.8904 -1.3828
 1311SOL    MW4 5299   2.028   2.297   2.411 -0.5229  0.1535 -0.5131
 1312SOL     OW 5300   1.823   2.431   2.276 -0.4609  0.3844 -0.1367
 1312SOL    HW2 5301   1.890   2.394   2.332 -0.6838  0.7072  0.3452
 1312SOL    HW3 5302   1.740   2.403   2.314 -0.6303  1.2756  0.1732
 1312SOL    MW4 5303   1.821   2.423   2.288 -0.5126  0.5445 -0.0322
 1313SOL     OW 5304   1.828   2.694   2.362 -0.1970  0.0848 -0.1462
 1313SOL    HW2 5305   1.843   2.613   2.314  0.4852  0.5410 -0.7018
 1313SOL    HW3 5306   1.746   2.728   2.326  1.4630  1.6167 -2.6777
 1313SOL    MW4 5307   1.819   2.688   2.351  0.1119  0.3471 -0.5534
 1314SOL     OW 5308   2.034   2.868   2.309  0.0403 -0.3481  0.6774
 1314SOL    HW2 5309   2.110   2.809   2.309 -0.3069 -0.8430 -1.5100
 1314SOL    HW3 5310   1.961   2.813   2.335  0.1932 -0.1878  1.4625
 1314SOL    MW4 5311   2.034   2.853   2.313  0.0148 -0.3924  0.4923
 1315SOL     OW 5312   2.060   3.144   2.344  0.2574  0.2618 -0.2935
 1315SOL    HW2 5313   2.146   3.166   2.309  0.5388 -0.3821 -0.0165
 1315SOL    HW3 5314   2.048   3.052   2.322 -0.8082  0.6146 -1.2518
 1315SOL    MW4 5315   2.070   3.135   2.337  0.1543  0.2234 -0.3836
 1316SOL     OW 5316   1.831   3.249   2.241  0.1075 -0.4348  0.5114
 1316SOL    HW2 5317   1.911   3.220   2.284  0.0023  0.4607  1.3185
 1316SOL    HW3 5318   1.761   3.211   2.294 -0.0145 -0.4074  0.3705
 1316SOL    MW4 5319   1.832   3.240   2.253  0.0776 -0.3130  0.5996
 1317SOL     OW 5320   1.792   3.510   2.350 -0.6928  0.0625  0.1476
 1317SOL    HW2 5321   1.797   3.424   2.308  2.4585  0.6951 -0.8932
 1317SOL    HW3 5322   1.703   3.541   2.331 -1.7538 -2.7919  0.2597
 1317SOL    MW4 5323   1.781   3.503   2.342 -0.4171 -0.2308  0.0250
 1318SOL     OW 5324   2.026   3.629   2.260 -0.1835  0.0032  0.0784
 1318SOL    HW2 5325   1.946   3.585   2.289  0.8480 -1.2991  0.9506
 1318SOL    HW3 5326   2.034   3.605   2.167 -0.3875 -0.4775  0.1860
 1318SOL    MW4 5327   2.016   3.620   2.251 -0.0744 -0.2322  0.2079
 1319SOL     OW 5328   1.996   3.888   2.373 -0.1593 -0.1669 -0.1221
 1319SOL    HW2 5329   1.978   3.872   2.466 -1.8043  0.3074 -0.3323
 1319SOL    HW3 5330   2.007   3.800   2.336  0.1597 -0.3730  0.4558
 1319SOL    MW4 5331   1.995   3.874   2.381 -0.3343 -0.1316 -0.0737
 1320SOL     OW 5332   1.773   4.006   2.283  0.0257 -0.3924 -0.7218
 1320SOL    HW2 5333   1.850   3.968   2.325 -0.3113  0.2712  0.5354
 1320SOL    HW3 5334   1.790   3.998   2.189  0.3441 -2.8309 -0.4975
 1320SOL    MW4 5335   1.785   4.000   2.276  0.0232 -0.6268 -0.5267
 1321SOL     OW 5336   1.778   4.247   2.387  0.0525  0.5390 -0.4238
 1321SOL    HW2 5337   1.760   4.159   2.354 -0.3846  0.5025 -0.0837
 1321SOL    HW3 5338   1.702   4.299   2.362  0.3872  0.8717 -0.7828
 1321SOL    MW4 5339   1.766   4.242   2.379  0.0390  0.5779 -0.4263
 1322SOL     OW 5340   1.982   4.409   2.276  0.0042  0.0381  0.1439
 1322SOL    HW2 5341   1.912   4.352   2.308 -0.2956  0.8714  0.9803
 1322SOL    HW3 5342   1.983   4.395   2.181  0.1515 -1.5996  0.3763
 1322SOL    MW4 5343   1.973   4.400   2.268 -0.0160 -0.0677  0.2849
 1323SOL     OW 5344   2.451   0.022   2.364  0.1191  0.5173 -0.1097
 1323SOL    HW2 5345   2.528   0.060   2.324  0.2892  0.6068  0.3027
 1323SOL    HW3 5346   2.460  -0.072   2.349  0.2734  0.5344 -0.1238
 1323SOL    MW4 5347   2.462   0.014   2.357  0.1621  0.5313 -0.0572
 1324SOL     OW 5348   2.227   0.161   2.279 -0.0496 -0.6940 -0.1934
 1324SOL    HW2 5349   2.241   0.251   2.309  1.0633 -1.3317  1.2483
 1324SOL    HW3 5350   2.299   0.111   2.319 -1.2362 -2.4033 -0.1564
 1324SOL    MW4 5351   2.238   0.166   2.288 -0.0596 -1.0037  0.0019
 1325SOL     OW 5352   2.222   0.428   2.372  0.0064 -0.2943 -0.3251
 1325SOL    HW2 5353   2.287   0.486   2.331 -0.1225  1.0186  1.2945
 1325SOL    HW3 5354   2.138   0.463   2.343 -0.0424 -1.5175 -1.7725
 1325SOL    MW4 5355   2.220   0.440   2.363 -0.0169 -0.2825 -0.3023
 1326SOL     OW 5356   2.463   0.545   2.283  0.1353 -0.0394 -0.7009
 1326SOL    HW2 5357   2.534   0.492   2.320  1.4476  1.3850 -1.1160
 1326SOL    HW3 5358   2.473   0.535   2.188  0.9555  1.6152 -0.8102
 1326SOL    MW4 5359   2.474   0.537   2.276  0.4168  0.3669 -0.7699
 1327SOL     OW 5360   2.521   0.800   2.370 -0.3076  0.1476  0.0485
 1327SOL    HW2 5361   2.595   0.840   2.325 -0.2968  0.5453  0.4213
 1327SOL    HW3 5362   2.524   0.708   2.345 -0.5491  0.4487 -1.1094
 1327SOL    MW4 5363   2.531   0.793   2.361 -0.3383  0.2398 -0.0553
 1328SOL     OW 5364   2.273   0.861   2.250  0.0149 -0.5985  0.5268
 1328SOL    HW2 5365   2.271   0.955   2.270  0.2271 -0.5531  0.3305
 1328SOL    HW3 5366   2.354   0.830   2.291  1.2718 -0.2083 -1.6053
 1328SOL    MW4 5367   2.283   0.870   2.258  0.2091 -0.5410  0.2196
 1329SOL     OW 5368   2.281   1.141   2.323 -0.4828  0.2756  0.0160
 1329SOL    HW2 5369   2.352   1.191   2.283 -0.7703 -0.5228 -1.5462
 1329SOL    HW3 5370   2.202   1.191   2.304 -0.4198  0.7924  1.1191
 1329SOL    MW4 5371   2.280   1.154   2.315 -0.5126  0.2383 -0.0446
 1330SOL     OW 5372   2.495   1.295   2.230  0.0073  0.1780  0.0427
 1330SOL    HW2 5373   2.556   1.249   2.288 -1.7615 -0.6408  1.2722
 1330SOL    HW3 5374   2.502   1.387   2.255  0.9326  0.1324 -0.0212
 1330SOL    MW4 5375   2.504   1.301   2.241 -0.1042  0.0639  0.1967
 1331SOL     OW 5376   2.451   1.552   2.330  0.5100  0.2863 -0.2949
 1331SOL    HW2 5377   2.450   1.539   2.425  1.0240 -1.1251 -0.4768
 1331SOL    HW3 5378   2.533   1.598   2.312  1.6200 -1.6464 -0.3170
 1331SOL    MW4 5379   2.461   1.557   2.340  0.7246 -0.1549 -0.3216
 1332SOL     OW 5380   2.232   1.680   2.202  0.5770 -0.0615  0.1311
 1332SOL    HW2 5381   2.312   1.634   2.228  0.1981 -1.2381 -0.7503
 1332SOL    HW3 5382   2.165   1.646   2.261  0.4981  0.1185  0.1465
 1332SOL    MW4 5383   2.234   1.669   2.213  0.5164 -0.1930  0.0167
 1333SOL     OW 5384   2.230   1.930   2.348  0.2400  0.2730 -0.4815
 1333SOL    HW2 5385   2.308   1.980   2.324  0.2382  0.3462 -0.3406
 1333SOL    HW3 5386   2.235   1.850   2.296  0.4205  0.2684 -0.4565
 1333SOL    MW4 5387   2.241   1.926   2.338  0.2637  0.2820 -0.4597
 1334SOL     OW 5388   2.435   2.085   2.260  0.3500  0.1703  0.1606
 1334SOL    HW2 5389   2.511   2.034   2.287 -0.7172 -0.5237  1.9236
 1334SOL    HW3 5390   2.431   2.072   2.165  0.9365 -1.8890  0.3851
 1334SOL    MW4 5391   2.445   2.076   2.251  0.2866 -0.1929  0.4232
 1335SOL     OW 5392   2.454   2.298   2.427 -0.5769 -0.6243 -0.1995
 1335SOL    HW2 5393   2.527   2.344   2.387 -0.9916 -0.1848 -0.4573
 1335SOL    HW3 5394   2.445   2.217   2.376 -2.1683  0.7015 -2.0748
 1335SOL    MW4 5395   2.462   2.293   2.415 -0.8414 -0.3915 -0.4807
 1336SOL     OW 5396   2.240   2.420   2.302 -0.6504  0.2662 -0.0300
 1336SOL    HW2 5397   2.224   2.505   2.344  0.3292  1.2299 -1.5571
 1336SOL    HW3 5398   2.314   2.383   2.348 -0.0639  0.9752 -0.3973
 1336SOL    MW4 5399   2.247   2.426   2.314 -0.4435  0.4866 -0.2797
 1337SOL     OW 5400   2.236   2.683   2.364  0.1128 -0.0426  0.5015
 1337SOL    HW2 5401   2.233   2.689   2.459  0.5802 -1.0024  0.5909
 1337SOL    HW3 5402   2.319   2.724   2.340 -0.3555  0.8740  0.4424
 1337SOL    MW4 5403   2.246   2.689   2.373  0.1128 -0.0482  0.5054
 1338SOL     OW 5404   2.447   2.843   2.294  0.2310  0.4793  0.2309
 1338SOL    HW2 5405   2.502   2.787   2.349  0.9095  0.5250 -0.3874
 1338SOL    HW3 5406   2.477   2.825   2.205 -0.1481  1.1827 -0.0426
 1338SOL    MW4 5407   2.458   2.833   2.289  0.2706  0.5779  0.1132
 1339SOL     OW 5408   2.472   3.101   2.405  0.0495  0.5174  0.2609
 1339SOL    HW2 5409   2.558   3.123   2.369  0.4585 -2.0142 -0.3832
 1339SOL    HW3 5410   2.457   3.011   2.378 -1.3200 -0.2059  3.2285
 1339SOL    MW4 5411   2.481   3.092   2.397 -0.0772  0.0880  0.5674
 1340SOL     OW 5412   2.311   3.232   2.248  0.4315  0.0222  0.2736
 1340SOL    HW2 5413   2.297   3.320   2.283 -3.4017 -0.5873  0.5366
 1340SOL    HW3 5414   2.374   3.192   2.308 -0.6820  1.3457  2.3864
 1340SOL    MW4 5415   2.317   3.238   2.261 -0.2215  0.1161  0.5870
 1341SOL     OW 5416   2.243   3.506   2.359  0.0017  0.4154  0.2501
 1341SOL    HW2 5417   2.238   3.518   2.454  0.6714  1.2460  0.1785
 1341SOL    HW3 5418   2.164   3.548   2.326  0.2595  0.9783  0.3531
 1341SOL    MW4 5419   2.232   3.513   2.368  0.1242  0.5994  0.2542
 1342SOL     OW 5420   2.491   3.601   2.295  0.1653 -0.4127  0.2460
 1342SOL    HW2 5421   2.474   3.690   2.327  0.9519 -0.3495  0.4818
 1342SOL    HW3 5422   2.410   3.554   2.314  0.4090 -0.2244  1.8011
 1342SOL    MW4 5423   2.478   3.607   2.301  0.3014 -0.3798  0.4826
 1343SOL     OW 5424   2.477   3.864   2.414 -0.1947  0.3796 -0.2600
 1343SOL    HW2 5425   2.474   3.843   2.507  0.1177  0.0004 -0.3346
 1343SOL    HW3 5426   2.395   3.911   2.397 -0.8297 -0.6300 -0.0595
 1343SOL    MW4 5427   2.466   3.867   2.424 -0.2372  0.1962 -0.2432
 1344SOL     OW 5428   2.222   4.018   2.297 -0.0464 -0.0285 -0.1034
 1344SOL    HW2 5429   2.229   4.108   2.330  0.4075  0.8715 -2.5520
 1344SOL    HW3 5430   2.137   3.988   2.328  0.2278  0.8879  1.5859
 1344SOL    MW4 5431   2.212   4.026   2.305  0.0496  0.2112 -0.2036
 1345SOL     OW 5432   2.211   4.278   2.404 -0.1426 -0.0349 -0.0345
 1345SOL    HW2 5433   2.224   4.276   2.499  1.6406  0.4684 -0.2340
 1345SOL    HW3 5434   2.118   4.297   2.392 -0.3977 -0.1746  1.6063
 1345SOL    MW4 5435   2.201   4.281   2.415  0.0591  0.0134  0.1559
 1346SOL     OW 5436   2.469   4.410   2.280  0.0700 -0.0137  0.2365
 1346SOL    HW2 5437   2.538   4.372   2.334 -0.3588  0.7077  1.3342
 1346SOL    HW3 5438   2.389   4.365   2.308 -0.0677 -0.0517 -0.2185
 1346SOL    MW4 5439   2.467   4.399   2.291 -0.0045  0.0763  0.3209
 1347SOL     OW 5440   2.880   4.664   2.368  0.1964 -0.0961 -0.1525
 1347SOL    HW2 5441   2.964   4.706   2.346  0.0440 -0.1449 -0.8456
 1347SOL    HW3 5442   2.890   4.574   2.337  0.3642 -0.4663  0.9507
 1347SOL    MW4 5443   2.892   4.658   2.361  0.1986 -0.1514 -0.0982
 1348SOL     OW 5444   2.674   0.148   2.251 -0.9523 -0.1327  0.5520
 1348SOL    HW2 5445   2.682   0.236   2.289 -1.3652  0.3710 -0.4774
 1348SOL    HW3 5446   2.743   0.097   2.292  0.2478  1.0897  0.0949
 1348SOL    MW4 5447   2.684   0.153   2.261 -0.8485  0.0951  0.3560
 1349SOL     OW 5448   2.685   0.389   2.360  0.3736 -0.0347  0.7467
 1349SOL    HW2 5449   2.700   0.373   2.453  1.9735 -0.0972  0.4881
 1349SOL    HW3 5450   2.769   0.418   2.326  0.0869 -1.0203 -0.8947
 1349SOL    MW4 5451   2.698   0.391   2.367  0.5467 -0.1730  0.4961
 1350SOL     OW 5452   2.914   0.478   2.231 -0.7463 -0.1061 -0.2409
 1350SOL    HW2 5453   2.901   0.570   2.256  1.0459  0.2986 -0.6910
 1350SOL    HW3 5454   2.924   0.482   2.135  1.5849 -0.4713 -0.0305
 1350SOL    MW4 5455   2.914   0.491   2.221 -0.2022 -0.1009 -0.2728
 1351SOL     OW 5456   2.926   0.742   2.343 -0.6935 -0.1067 -0.4402
 1351SOL    HW2 5457   2.953   0.752   2.435 -1.3829 -0.1249 -0.2255
 1351SOL    HW3 5458   2.856   0.806   2.332 -0.7295 -0.2262 -0.9078
 1351SOL    MW4 5459   2.920   0.752   2.354 -0.7892 -0.1248 -0.4733
 1352SOL     OW 5460   2.745   0.937   2.286 -0.2587 -0.3256 -0.0939
 1352SOL    HW2 5461   2.729   1.029   2.307 -2.2394 -0.7912  0.5265
 1352SOL    HW3 5462   2.775   0.938   2.195 -0.2086  0.9339 -0.0712
 1352SOL    MW4 5463   2.747   0.950   2.276 -0.5138 -0.2209 -0.0088
 1353SOL     OW 5464   2.712   1.190   2.365 -0.2979  0.2783 -0.5778
 1353SOL    HW2 5465   2.729   1.171   2.457  0.4585  0.0166 -0.7713
 1353SOL    HW3 5466   2.786   1.243   2.337  0.3389 -1.0735 -1.4962
 1353SOL    MW4 5467   2.724   1.195   2.373 -0.1142  0.0654 -0.7248
 1354SOL     OW 5468   2.937   1.317   2.322 -0.7659 -0.5002 -0.3816
 1354SOL    HW2 5469   3.005   1.265   2.365 -0.3361  0.2214 -0.1961
 1354SOL    HW3 5470   2.939   1.290   2.231 -0.3118 -0.5580 -0.3514
 1354SOL    MW4 5471   2.946   1.306   2.316 -0.6497 -0.4127 -0.3533
 1355SOL     OW 5472   2.931   1.576   2.418 -0.3999  0.2960 -0.2231
 1355SOL    HW2 5473   2.915   1.596   2.511  0.2624  0.0290 -0.0467
 1355SOL    HW3 5474   2.940   1.481   2.416  0.2653  0.3647 -0.4557
 1355SOL    MW4 5475   2.930   1.566   2.430 -0.2248  0.2698 -0.2306
 1356SOL     OW 5476   2.691   1.684   2.288 -0.1056 -0.4662 -0.1027
 1356SOL    HW2 5477   2.767   1.654   2.338 -0.1417 -1.1722 -0.4618
 1356SOL    HW3 5478   2.715   1.668   2.197 -0.0283  0.8338 -0.3191
 1356SOL    MW4 5479   2.704   1.678   2.282 -0.0999 -0.3879 -0.1788
 1357SOL     OW 5480   2.649   1.954   2.368  0.5549  0.6736  0.2669
 1357SOL    HW2 5481   2.663   1.962   2.462 -0.0690  0.9351  0.3421
 1357SOL    HW3 5482   2.660   1.860   2.350 -0.1261  0.4990  0.7377
 1357SOL    MW4 5483   2.652   1.942   2.378  0.3829  0.6851  0.3390
 1358SOL     OW 5484   2.886   2.073   2.309 -0.1269 -0.0549  0.3457
 1358SOL    HW2 5485   2.953   2.016   2.346  0.5517 -0.1820 -1.0482
 1358SOL    HW3 5486   2.803   2.033   2.334  0.3426 -1.6024 -0.5237
 1358SOL    MW4 5487   2.884   2.060   2.317  0.0248 -0.2756  0.0472
 1359SOL     OW 5488   2.934   2.328   2.423 -0.1244 -0.0415 -0.3997
 1359SOL    HW2 5489   2.939   2.305   2.516 -0.1074  0.9548 -0.1528
 1359SOL    HW3 5490   2.917   2.245   2.379 -1.6311 -0.3187  0.6376
 1359SOL    MW4 5491   2.932   2.314   2.430 -0.3209  0.0534 -0.2303
 1360SOL     OW 5492   2.673   2.424   2.327 -0.0896  1.0731 -0.4422
 1360SOL    HW2 5493   2.762   2.407   2.358 -0.2109  1.1047 -0.0772
 1360SOL    HW3 5494   2.679   2.417   2.232  0.2151  0.6607 -0.3947
 1360SOL    MW4 5495   2.685   2.421   2.319 -0.0653  1.0228 -0.3879
 1361SOL     OW 5496   2.649   2.707   2.425  0.0063 -0.3741 -0.0950
 1361SOL    HW2 5497   2.718   2.745   2.371 -1.0299 -0.7981 -1.7232
 1361SOL    HW3 5498   2.656   2.613   2.411 -0.3302 -0.4866  0.4408
 1361SOL    MW4 5499   2.659   2.699   2.416 -0.1748 -0.4451 -0.2391
 1362SOL     OW 5500   2.866   2.811   2.296 -0.1477 -0.2247  0.1564
 1362SOL    HW2 5501   2.891   2.899   2.324 -0.3381  0.1697 -0.8953
 1362SOL    HW3 5502   2.882   2.810   2.202  0.7531 -1.6317  0.3086
 1362SOL    MW4 5503   2.871   2.822   2.287 -0.0536 -0.3583  0.0377
 1363SOL     OW 5504   2.914   3.067   2.374 -0.0519 -0.2744  0.1083
 1363SOL    HW2 5505   2.979   3.134   2.352 -0.2613 -0.7529 -2.0855
 1363SOL    HW3 5506   2.830   3.108   2.354 -0.2442 -0.7412 -0.0466
 1363SOL    MW4 5507   2.912   3.081   2.368 -0.1049 -0.3994 -0.2012
 1364SOL     OW 5508   2.687   3.212   2.281 -0.4721 -0.5791 -0.6511
 1364SOL    HW2 5509   2.700   3.304   2.301  1.0048 -0.9811  0.3703
 1364SOL    HW3 5510   2.696   3.206   2.186 -1.3622  0.4469 -0.7970
 1364SOL    MW4 5511   2.690   3.223   2.271 -0.3946 -0.4964 -0.5355
 1365SOL     OW 5512   2.728   3.481   2.335  0.0128  0.3372 -0.0332
 1365SOL    HW2 5513   2.792   3.528   2.281 -0.0357 -1.5334 -1.7645
 1365SOL    HW3 5514   2.644   3.520   2.310  0.1842  0.8115  0.1191
 1365SOL    MW4 5515   2.725   3.493   2.324  0.0288  0.1531 -0.2418
 1366SOL     OW 5516   2.946   3.636   2.219 -0.1461  0.4042 -0.5318
 1366SOL    HW2 5517   3.015   3.585   2.261  0.4068  1.4367 -0.1840
 1366SOL    HW3 5518   2.929   3.708   2.280  0.4766  1.7635 -1.9389
 1366SOL    MW4 5519   2.953   3.639   2.233  0.0091  0.7198 -0.6714
 1367SOL     OW 5520   2.903   3.859   2.387  0.0021 -0.0876  0.3287
 1367SOL    HW2 5521   2.897   3.840   2.481 -0.3680  0.4504  0.4154
 1367SOL    HW3 5522   2.824   3.911   2.369 -0.0363 -0.3720 -0.3203
 1367SOL    MW4 5523   2.892   3.863   2.397 -0.0522 -0.0541  0.2546
 1368SOL     OW 5524   2.693   3.998   2.288  0.4931 -0.5548  0.1450
 1368SOL    HW2 5525   2.622   3.959   2.339  1.6216 -0.8376  1.5367
 1368SOL    HW3 5526   2.658   4.004   2.199 -1.2898 -0.6294  0.8136
 1368SOL    MW4 5527   2.679   3.993   2.283  0.4067 -0.6020  0.4165
 1369SOL     OW 5528   2.692   4.262   2.419 -0.2351 -0.3253  0.2765
 1369SOL    HW2 5529   2.707   4.243   2.511 -1.3329  0.1845  0.5739
 1369SOL    HW3 5530   2.695   4.177   2.376  0.6792 -0.5230  0.7184
 1369SOL    MW4 5531   2.694   4.248   2.425 -0.2592 -0.2837  0.3738
 1370SOL     OW 5532   2.894   4.389   2.285  0.1815 -0.5933 -0.3417
 1370SOL    HW2 5533   2.971   4.347   2.322 -0.1223 -0.4004  0.5230
 1370SOL    HW3 5534   2.821   4.354   2.336 -0.2090 -0.0645 -0.5305
 1370SOL    MW4 5535   2.894   4.379   2.297  0.0899 -0.4983 -0.2525
 1371SOL     OW 5536   3.348   4.619   2.335  0.2135 -0.3148  0.5511
 1371SOL    HW2 5537   3.362   4.620   2.430 -0.3907  1.9111  0.6323
 1371SOL    HW3 5538   3.422   4.668   2.299 -2.2143  3.3280  0.2908
 1371SOL    MW4 5539   3.359   4.626   2.343 -0.1862  0.4594  0.5276
 1372SOL     OW 5540   3.124   0.111   2.292  0.1620 -0.2630 -0.6929
 1372SOL    HW2 5541   3.145   0.202   2.312  1.0217 -0.5137 -0.4016
 1372SOL    HW3 5542   3.198   0.061   2.328  0.3154 -0.9664 -1.9375
 1372SOL    MW4 5543   3.137   0.116   2.299  0.2956 -0.3889 -0.8187
 1373SOL     OW 5544   3.150   0.375   2.350  0.0375  0.2374  0.2570
 1373SOL    HW2 5545   3.225   0.423   2.316  0.4087 -0.4418  0.1174
 1373SOL    HW3 5546   3.075   0.410   2.301  0.5270 -0.5210 -1.0363
 1373SOL    MW4 5547   3.150   0.386   2.339  0.1512  0.0478  0.0682
 1374SOL     OW 5548   3.378   0.503   2.227 -0.0953 -0.2978 -0.2033
 1374SOL    HW2 5549   3.467   0.470   2.241  0.2660 -0.1003 -1.8320
 1374SOL    HW3 5550   3.370   0.508   2.131 -1.0298  1.8544 -0.0536
 1374SOL    MW4 5551   3.389   0.500   2.216 -0.1709  0.0122 -0.3984
 1375SOL     OW 5552   3.354   0.760   2.373 -0.3679  0.2689  0.3776
 1375SOL    HW2 5553   3.441   0.797   2.358 -0.1319 -0.0621  0.9216
 1375SOL    HW3 5554   3.353   0.680   2.321 -0.2511  0.1306  0.5901
 1375SOL    MW4 5555   3.365   0.754   2.364 -0.3211  0.2070  0.4773
 1376SOL     OW 5556   3.140   0.870   2.236  0.3713  0.2632 -0.0594
 1376SOL    HW2 5557   3.221   0.836   2.276 -0.2667 -0.8847  0.2845
 1376SOL    HW3 5558   3.073   0.808   2.264 -0.5387  0.9321 -0.7754
 1376SOL    MW4 5559   3.142   0.857   2.245  0.1669  0.2000 -0.1085
 1377SOL     OW 5560   3.140   1.132   2.383  0.0126  0.3986 -0.1453
 1377SOL    HW2 5561   3.216   1.171   2.342  0.7325 -1.3928 -0.5763
 1377SOL    HW3 5562   3.116   1.059   2.325 -1.1687  0.0883  0.7072
 1377SOL    MW4 5563   3.147   1.127   2.370 -0.0484  0.1214 -0.0894
 1378SOL     OW 5564   3.348   1.289   2.278  0.3991 -0.2575  0.3321
 1378SOL    HW2 5565   3.428   1.235   2.283  0.6572  0.2741  2.5072
 1378SOL    HW3 5566   3.368   1.366   2.331 -1.9303 -0.6108  1.8040
 1378SOL    MW4 5567   3.362   1.292   2.286  0.1259 -0.2340  0.8130
 1379SOL     OW 5568   3.406   1.531   2.402  0.5587 -0.3009  0.6056
 1379SOL    HW2 5569   3.401   1.546   2.497 -0.5832  0.1093  0.4766
 1379SOL    HW3 5570   3.333   1.580   2.366  0.2438 -1.4952 -0.3767
 1379SOL    MW4 5571   3.396   1.539   2.410  0.3664 -0.4044  0.4587
 1380SOL     OW 5572   3.175   1.671   2.320  0.2850  0.1724 -0.1186
 1380SOL    HW2 5573   3.172   1.761   2.352 -0.3524  0.4419 -0.9157
 1380SOL    HW3 5574   3.097   1.630   2.355  1.2911 -0.4793  1.4017
 1380SOL    MW4 5575   3.165   1.677   2.328  0.3333  0.1221 -0.0234
 1381SOL     OW 5576   3.115   1.934   2.378  0.1846 -0.1159 -0.0816
 1381SOL    HW2 5577   3.121   1.930   2.473 -0.7875 -2.3331 -0.0716
 1381SOL    HW3 5578   3.185   1.993   2.352 -1.6527  3.1668  2.1787
 1381SOL    MW4 5579   3.125   1.941   2.387 -0.1862  0.0248  0.2177
 1382SOL     OW 5580   3.316   2.101   2.293  0.6281  0.0400 -0.1655
 1382SOL    HW2 5581   3.400   2.067   2.324  0.7125  0.0169 -0.4192
 1382SOL    HW3 5582   3.321   2.093   2.198  1.2652  2.1745 -0.3340
 1382SOL    MW4 5583   3.328   2.096   2.285  0.7234  0.3185 -0.2208
 1383SOL     OW 5584   3.324   2.359   2.382 -0.0171 -0.2699 -0.2524
 1383SOL    HW2 5585   3.245   2.401   2.347  0.3184  0.6805  0.1223
 1383SOL    HW3 5586   3.331   2.277   2.333 -0.5347  0.2333 -1.1774
 1383SOL    MW4 5587   3.314   2.354   2.371 -0.0412 -0.0782 -0.3252
 1384SOL     OW 5588   3.111   2.492   2.263 -0.5792 -0.9781 -0.4562
 1384SOL    HW2 5589   3.110   2.573   2.314 -1.8082 -0.1228 -1.8311
 1384SOL    HW3 5590   3.043   2.437   2.303  0.5296 -1.5167  0.7331
 1384SOL    MW4 5591   3.102   2.495   2.275 -0.5951 -0.9363 -0.4807
 1385SOL     OW 5592   3.105   2.758   2.388 -0.0204 -0.2270  0.1004
 1385SOL    HW2 5593   3.101   2.759   2.484  0.6732 -0.1149  0.1366
 1385SOL    HW3 5594   3.015   2.772   2.359 -0.3334 -0.8865  0.7355
 1385SOL    MW4 5595   3.093   2.760   2.397  0.0296 -0.2992  0.1888
 1386SOL     OW 5596   3.340   2.827   2.281 -0.3904 -0.3447 -0.0857
 1386SOL    HW2 5597   3.356   2.898   2.343 -0.1122  0.5613 -1.1963
 1386SOL    HW3 5598   3.253   2.793   2.306 -1.2056  1.3866 -0.5260
 1386SOL    MW4 5599   3.330   2.832   2.292 -0.4613  0.0031 -0.2902
 1387SOL     OW 5600   3.368   3.095   2.390  0.1801  0.5298 -0.2163
 1387SOL    HW2 5601   3.434   3.135   2.333  0.0882  0.5440 -0.3109
 1387SOL    HW3 5602   3.289   3.147   2.376 -0.0921 -0.0316 -0.7558
 1387SOL    MW4 5603   3.366   3.108   2.381  0.1321  0.4578 -0.2999
 1388SOL     OW 5604   3.135   3.231   2.313 -0.0504 -0.3779 -0.1100
 1388SOL    HW2 5605   3.139   3.324   2.335  0.1809 -0.3064 -0.4455
 1388SOL    HW3 5606   3.148   3.228   2.218  2.2054 -0.9170  0.1984
 1388SOL    MW4 5607   3.137   3.243   2.303  0.2778 -0.4399 -0.1135
 1389SOL     OW 5608   3.149   3.514   2.347 -0.0647  0.3602  0.5552
 1389SOL    HW2 5609   3.156   3.510   2.442  0.4917 -0.5506  0.4777
 1389SOL    HW3 5610   3.227   3.563   2.320 -0.9501  1.8516  0.6642
 1389SOL    MW4 5611   3.161   3.520   2.356 -0.1082  0.4370  0.5593
 1390SOL     OW 5612   3.374   3.641   2.272 -0.5535  0.1152  0.2865
 1390SOL    HW2 5613   3.434   3.578   2.313 -0.1876  0.9728  1.0821
 1390SOL    HW3 5614   3.377   3.620   2.178  1.0736  0.2022  0.3060
 1390SOL    MW4 5615   3.382   3.630   2.265 -0.2906  0.2398  0.3941
 1391SOL     OW 5616   3.340   3.892   2.377  0.5935  0.0146 -0.0932
 1391SOL    HW2 5617   3.418   3.936   2.343  1.5146 -1.4892  0.0268
 1391SOL    HW3 5618   3.340   3.807   2.333 -0.4414 -0.3815  0.6612
 1391SOL    MW4 5619   3.350   3.887   2.367  0.5786 -0.2360  0.0222
 1392SOL     OW 5620   3.103   3.989   2.277 -0.3345 -0.3945 -0.0739
 1392SOL    HW2 5621   3.179   3.947   2.316 -0.0053  0.9081  0.7411
 1392SOL    HW3 5622   3.028   3.938   2.307  0.0998 -0.7897  0.3450
 1392SOL    MW4 5623   3.103   3.977   2.286 -0.2337 -0.2747  0.0892
 1393SOL     OW 5624   3.114   4.243   2.370 -0.2755  0.1994  0.2377
 1393SOL    HW2 5625   3.191   4.280   2.327 -1.1067  0.7445 -0.8141
 1393SOL    HW3 5626   3.099   4.159   2.326  0.2119 -0.2988  1.0137
 1393SOL    MW4 5627   3.122   4.237   2.358 -0.3209  0.2050  0.2015
 1394SOL     OW 5628   3.340   4.363   2.253 -0.3104 -0.7253 -0.4505
 1394SOL    HW2 5629   3.346   4.453   2.284 -0.4599 -0.5784 -0.8522
 1394SOL    HW3 5630   3.354   4.368   2.159 -0.1571 -1.1404 -0.4537
 1394SOL    MW4 5631   3.342   4.375   2.245 -0.3099 -0.7601 -0.5040
 1395SOL     OW 5632   3.812   0.007   2.353 -0.0935  0.0429 -0.4610
 1395SOL    HW2 5633   3.818   0.021   2.448 -0.9367  0.1501 -0.4226
 1395SOL    HW3 5634   3.898   0.033   2.320 -0.1805  1.1013  0.1380
 1395SOL    MW4 5635   3.824   0.012   2.361 -0.2160  0.1965 -0.3772
 1396SOL     OW 5636   3.566   0.101   2.249  0.1463 -0.2386 -0.1327
 1396SOL    HW2 5637   3.571   0.197   2.252  1.7600 -0.2122 -2.2243
 1396SOL    HW3 5638   3.647   0.072   2.290 -0.6626 -0.7254  1.1171
 1396SOL    MW4 5639   3.578   0.110   2.255  0.2522 -0.2993 -0.2439
 1397SOL     OW 5640   3.621   0.394   2.306 -0.1367 -0.4970 -0.5153
 1397SOL    HW2 5641   3.623   0.386   2.401 -1.7798  0.3072 -0.3817
 1397SOL    HW3 5642   3.706   0.429   2.282  0.7427 -1.8927  0.5341
 1397SOL    MW4 5643   3.632   0.398   2.315 -0.2375 -0.5750 -0.3593
 1398SOL     OW 5644   3.877   0.509   2.249 -0.3265 -0.8008  0.1042
 1398SOL    HW2 5645   3.885   0.596   2.290  0.5827 -1.1793  0.7559
 1398SOL    HW3 5646   3.873   0.527   2.155 -2.6505  0.0953  0.3526
 1398SOL    MW4 5647   3.878   0.523   2.242 -0.5128 -0.7325  0.2229
 1399SOL     OW 5648   3.839   0.762   2.343 -0.1089 -0.1861  0.1384
 1399SOL    HW2 5649   3.841   0.769   2.438  0.7316 -1.9898  0.2910
 1399SOL    HW3 5650   3.912   0.816   2.313 -0.0088 -0.0840  0.5667
 1399SOL    MW4 5651   3.849   0.770   2.351  0.0150 -0.4107  0.2151
 1400SOL     OW 5652   3.596   0.879   2.284 -0.0243  0.0579  0.3801
 1400SOL    HW2 5653   3.675   0.837   2.319 -0.7869 -1.6575  0.1045
 1400SOL    HW3 5654   3.613   0.890   2.191  0.0884  0.1692  0.4133
 1400SOL    MW4 5655   3.608   0.875   2.277 -0.1099 -0.1537  0.3481
 1401SOL     OW 5656   3.575   1.153   2.338 -0.2329 -0.0871  0.0863
 1401SOL    HW2 5657   3.574   1.158   2.433  1.2640  0.7248  0.0751
 1401SOL    HW3 5658   3.595   1.061   2.319  0.7867  0.0276  0.5704
 1401SOL    MW4 5659   3.578   1.142   2.348  0.0992  0.0353  0.1488
 1402SOL     OW 5660   3.815   1.306   2.297  0.2281 -0.0438 -0.3047
 1402SOL    HW2 5661   3.809   1.400   2.311  0.5202  0.0071 -0.5254
 1402SOL    HW3 5662   3.738   1.271   2.342 -0.7039  0.4455 -1.4831
 1402SOL    MW4 5663   3.804   1.314   2.304  0.1435  0.0275 -0.4892
 1403SOL     OW 5664   3.824   1.581   2.357  0.4541 -0.2454 -0.5494
 1403SOL    HW2 5665   3.822   1.572   2.452  0.8543 -0.9442 -0.6030
 1403SOL    HW3 5666   3.742   1.624   2.335 -0.8020 -2.3563 -0.1154
 1403SOL    MW4 5667   3.813   1.586   2.367  0.3409 -0.6160 -0.4990
 1404SOL     OW 5668   3.577   1.713   2.282  0.2210 -0.0075 -0.4132
 1404SOL    HW2 5669   3.518   1.656   2.332  1.1244 -0.1558  0.4888
 1404SOL    HW3 5670   3.573   1.679   2.192 -1.4626  0.2976 -0.4863
 1404SOL    MW4 5671   3.569   1.701   2.277  0.1183  0.0131 -0.3037
 1405SOL     OW 5672   3.563   1.992   2.372 -0.3739  0.5090  0.5329
 1405SOL    HW2 5673   3.638   2.043   2.343  0.8060  0.1247  2.7991
 1405SOL    HW3 5674   3.571   1.909   2.325  1.0807  0.1704  1.3501
 1405SOL    MW4 5675   3.574   1.988   2.362 -0.0262  0.4137  0.9398
 1406SOL     OW 5676   3.806   2.073   2.262 -0.3404 -0.0567  0.0932
 1406SOL    HW2 5677   3.891   2.044   2.297  0.2277  2.4322  0.8541
 1406SOL    HW3 5678   3.818   2.072   2.167  0.6180  0.4553  0.1975
 1406SOL    MW4 5679   3.819   2.069   2.254 -0.1392  0.3395  0.2074
 1407SOL     OW 5680   3.781   2.327   2.389 -0.1234 -0.1719  0.2693
 1407SOL    HW2 5681   3.707   2.382   2.363  1.3050  1.4636 -0.3551
 1407SOL    HW3 5682   3.774   2.250   2.333  0.1047  1.1275 -1.5674
 1407SOL    MW4 5683   3.770   2.324   2.378  0.0951  0.2155 -0.0551
 1408SOL     OW 5684   3.560   2.467   2.297 -0.4206  0.1099 -0.2657
 1408SOL    HW2 5685   3.473   2.434   2.319 -1.3262  2.4447 -0.1859
 1408SOL    HW3 5686   3.566   2.458   2.202 -0.3616 -0.9182 -0.1716
 1408SOL    MW4 5687   3.549   2.462   2.288 -0.5322  0.2823 -0.2427
 1409SOL     OW 5688   3.597   2.727   2.380  0.0953 -0.2785  0.1052
 1409SOL    HW2 5689   3.592   2.634   2.360 -0.0054  0.0541 -1.5223
 1409SOL    HW3 5690   3.513   2.763   2.350 -0.2120  0.1972  1.5017
 1409SOL    MW4 5691   3.585   2.720   2.373  0.0417 -0.1719  0.0744
 1410SOL     OW 5692   3.812   2.833   2.256  0.0000 -0.4580  0.3009
 1410SOL    HW2 5693   3.817   2.920   2.295  0.3977 -1.1314  1.7621
 1410SOL    HW3 5694   3.738   2.791   2.301 -0.9874 -0.4591 -1.2671
 1410SOL    MW4 5695   3.803   2.839   2.267 -0.0777 -0.5472  0.2871
 1411SOL     OW 5696   3.781   3.071   2.378 -0.4885 -0.1789  0.2457
 1411SOL    HW2 5697   3.794   3.081   2.472 -0.9514  1.7020  0.1367
 1411SOL    HW3 5698   3.858   3.112   2.339 -0.8906  0.1517 -0.2078
 1411SOL    MW4 5699   3.793   3.078   2.385 -0.6027  0.1128  0.1714
 1412SOL     OW 5700   3.572   3.206   2.260 -0.0241 -0.0375  0.1257
 1412SOL    HW2 5701   3.568   3.291   2.305 -2.0952 -1.1200  2.0843
 1412SOL    HW3 5702   3.640   3.157   2.307 -0.3093 -0.2068  0.3656
 1412SOL    MW4 5703   3.580   3.211   2.272 -0.3350 -0.2027  0.4158
 1413SOL     OW 5704   3.557   3.461   2.382  0.0156  0.0240 -0.1531
 1413SOL    HW2 5705   3.532   3.454   2.474 -0.2996  0.1544 -0.2261
 1413SOL    HW3 5706   3.639   3.511   2.383 -0.7211  1.2492 -0.0397
 1413SOL    MW4 5707   3.564   3.467   2.394 -0.1230  0.2029 -0.1476
 1414SOL     OW 5708   3.801   3.602   2.323 -0.1051 -0.3642 -0.0041
 1414SOL    HW2 5709   3.793   3.698   2.317  1.7973 -0.2450 -1.2017
 1414SOL    HW3 5710   3.785   3.571   2.234  1.3219 -0.9747 -0.0655
 1414SOL    MW4 5711   3.798   3.611   2.310  0.3340 -0.4292 -0.1702
 1415SOL     OW 5712   3.802   3.874   2.368 -0.4443 -0.1702  0.3953
 1415SOL    HW2 5713   3.804   3.866   2.464 -1.0039  1.1322  0.5336
 1415SOL    HW3 5714   3.881   3.923   2.346 -0.1730 -0.7118  0.1595
 1415SOL    MW4 5715   3.812   3.880   2.378 -0.4823 -0.0696  0.3822
 1416SOL     OW 5716   3.568   3.991   2.279  0.0017  0.0262 -0.1426
 1416SOL    HW2 5717   3.573   4.082   2.308  0.5222 -0.1761  0.4085
 1416SOL    HW3 5718   3.649   3.951   2.311  0.4232 -0.2832 -1.5702
 1416SOL    MW4 5719   3.579   3.998   2.287  0.1261 -0.0420 -0.2582
 1417SOL     OW 5720   3.597   4.265   2.363  0.6867  0.0208 -0.4063
 1417SOL    HW2 5721   3.653   4.332   2.324  1.2526 -0.0604  0.2649
 1417SOL    HW3 5722   3.509   4.286   2.331  0.6847  1.7574  0.7023
 1417SOL    MW4 5723   3.592   4.277   2.353  0.7610  0.2398 -0.1717
 1418SOL     OW 5724   3.815   4.412   2.261  0.0077 -0.2718 -0.0937
 1418SOL    HW2 5725   3.898   4.374   2.290  0.5273  0.6100 -0.3774
 1418SOL    HW3 5726   3.817   4.501   2.296 -1.1506 -0.4683  0.5006
 1418SOL    MW4 5727   3.826   4.419   2.270 -0.0765 -0.1817 -0.0525
 1419SOL     OW 5728   4.281   4.614   2.368  0.0405 -0.3214  0.2109
 1419SOL    HW2 5729   4.309   4.605   2.459  0.2113 -0.6779  0.1205
 1419SOL    HW3 5730   4.350   4.666   2.326 -0.1395  0.0206  0.3325
 1419SOL    MW4 5731   4.294   4.620   2.374  0.0391 -0.3228  0.2151
 1420SOL     OW 5732   4.053   0.063   2.273  0.3799 -0.0137 -0.0269
 1420SOL    HW2 5733   4.050   0.144   2.324  1.0905 -0.6032  0.9832
 1420SOL    HW3 5734   4.128   0.016   2.309  0.1945 -0.9485 -0.8607
 1420SOL    MW4 5735   4.062   0.068   2.285  0.4492 -0.2148 -0.0036
 1421SOL     OW 5736   4.075   0.339   2.348 -0.1591 -0.2353  0.3353
 1421SOL    HW2 5737   4.151   0.396   2.335 -0.6515  0.0016 -1.5971
 1421SOL    HW3 5738   4.002   0.388   2.311 -0.7270 -1.8004 -0.6205
 1421SOL    MW4 5739   4.076   0.353   2.342 -0.2990 -0.4106 -0.0458
 1422SOL     OW 5740   4.307   0.451   2.258 -0.1770 -0.3118  0.0026
 1422SOL    HW2 5741   4.310   0.542   2.288 -0.4735 -1.1377  2.7081
 1422SOL    HW3 5742   4.369   0.405   2.314 -0.8508 -1.9805 -0.5797
 1422SOL    MW4 5743   4.316   0.457   2.270 -0.3052 -0.6409  0.2825
 1423SOL     OW 5744   4.262   0.722   2.363 -0.2749 -0.0274 -0.1393
 1423SOL    HW2 5745   4.176   0.745   2.330 -1.1060  0.0755  1.9986
 1423SOL    HW3 5746   4.322   0.783   2.320 -1.5086  1.1127 -0.2630
 1423SOL    MW4 5747   4.259   0.733   2.353 -0.5474  0.1366  0.1264
 1424SOL     OW 5748   4.061   0.879   2.236 -0.0574  1.0644  0.1484
 1424SOL    HW2 5749   4.072   0.964   2.280  0.0123  1.7397 -1.1553
 1424SOL    HW3 5750   4.036   0.901   2.147  2.6301 -0.2207 -0.9725
 1424SOL    MW4 5751   4.059   0.893   2.230  0.3061  0.9840 -0.1717
 1425SOL     OW 5752   4.021   1.124   2.354  0.2458 -0.3127 -0.0942
 1425SOL    HW2 5753   4.041   1.139   2.446  2.3278 -0.0539 -0.5702
 1425SOL    HW3 5754   3.952   1.188   2.334  1.9935  1.7991  0.4878
 1425SOL    MW4 5755   4.015   1.135   2.363  0.7510  0.0000 -0.0801
 1426SOL     OW 5756   4.235   1.285   2.250  0.2674  0.1488  0.4408
 1426SOL    HW2 5757   4.169   1.243   2.305  0.5068 -1.6812 -0.6132
 1426SOL    HW3 5758   4.315   1.233   2.264  0.6418  0.3961 -0.6932
 1426SOL    MW4 5759   4.237   1.273   2.259  0.3481 -0.0600  0.1521
 1427SOL     OW 5760   4.241   1.543   2.359  0.4796  0.5623 -0.4510
 1427SOL    HW2 5761   4.228   1.459   2.316  1.3776 -0.2390  0.8234
 1427SOL    HW3 5762   4.312   1.585   2.310  0.7066  0.1470 -0.4755
 1427SOL    MW4 5763   4.249   1.538   2.347  0.6280  0.4017 -0.2859
 1428SOL     OW 5764   4.058   1.721   2.273 -0.2955 -0.0284 -0.0077
 1428SOL    HW2 5765   4.132   1.665   2.296 -0.4174 -0.0541  0.3137
 1428SOL    HW3 5766   3.982   1.679   2.312 -0.0798  1.6082  2.3217
 1428SOL    MW4 5767   4.058   1.708   2.281 -0.2828  0.1841  0.3421
 1429SOL     OW 5768   4.049   1.980   2.385 -0.2416  0.2568 -0.1183
 1429SOL    HW2 5769   4.050   1.972   2.480 -1.5005 -0.0357 -0.1206
 1429SOL    HW3 5770   4.057   1.890   2.353 -0.6238  0.2762 -0.2761
 1429SOL    MW4 5771   4.050   1.967   2.393 -0.4587  0.2208 -0.1395
 1430SOL     OW 5772   4.249   2.082   2.245 -0.1067 -0.2255  0.2042
 1430SOL    HW2 5773   4.277   2.166   2.283 -1.5356  0.6402 -0.6012
 1430SOL    HW3 5774   4.173   2.056   2.296 -0.2811 -0.5105 -0.1987
 1430SOL    MW4 5775   4.243   2.090   2.257 -0.3185 -0.1490  0.0446
 1431SOL     OW 5776   4.244   2.337   2.377  0.1286 -0.3025  0.0058
 1431SOL    HW2 5777   4.162   2.374   2.345 -0.2598 -0.2390  1.0451
 1431SOL    HW3 5778   4.312   2.389   2.334 -0.3975  0.8850  0.5674
 1431SOL    MW4 5779   4.242   2.349   2.367  0.0076 -0.1376  0.2172
 1432SOL     OW 5780   4.003   2.433   2.279  0.4057  0.2643 -0.0378
 1432SOL    HW2 5781   4.007   2.525   2.304  0.9494  0.3472 -0.4085
 1432SOL    HW3 5782   3.929   2.398   2.329 -0.5057  1.1566 -0.7142
 1432SOL    MW4 5783   3.993   2.441   2.289  0.3572  0.3932 -0.1757
 1433SOL     OW 5784   4.037   2.701   2.393  0.2881  0.2035 -0.6321
 1433SOL    HW2 5785   4.039   2.722   2.486  0.8402 -0.8751 -0.3964
 1433SOL    HW3 5786   3.964   2.753   2.358 -0.3392  0.1022  0.5207
 1433SOL    MW4 5787   4.027   2.711   2.401  0.2780  0.0477 -0.4489
 1434SOL     OW 5788   4.253   2.803   2.253  0.1404  0.5250 -0.1720
 1434SOL    HW2 5789   4.189   2.745   2.295  0.0034 -0.3583 -1.5760
 1434SOL    HW3 5790   4.335   2.785   2.299 -0.3210  0.6468  0.7087
 1434SOL    MW4 5791   4.255   2.793   2.265  0.0615  0.4244 -0.2410
 1435SOL     OW 5792   4.245   3.064   2.373 -0.3304  0.5407  0.5566
 1435SOL    HW2 5793   4.248   2.974   2.342 -1.3082  0.1929  1.4210
 1435SOL    HW3 5794   4.320   3.106   2.333 -0.4123 -0.4125 -0.6274
 1435SOL    MW4 5795   4.255   3.058   2.364 -0.4706  0.3688  0.5145
 1436SOL     OW 5796   3.999   3.196   2.286 -0.2988 -0.0411  0.2963
 1436SOL    HW2 5797   3.984   3.284   2.321  0.0646  0.8780 -1.7964
 1436SOL    HW3 5798   4.076   3.164   2.333 -0.3008  0.8513  0.9090
 1436SOL    MW4 5799   4.007   3.203   2.297 -0.2513  0.1979  0.1009
 1437SOL     OW 5800   3.993   3.444   2.440 -0.1148  0.0008  0.4157
 1437SOL    HW2 5801   4.068   3.475   2.389 -0.1568  0.0366  0.3753
 1437SOL    HW3 5802   3.917   3.485   2.398 -0.2421 -0.7303 -0.0739
 1437SOL    MW4 5803   3.993   3.454   2.428 -0.1373 -0.0908  0.3457
 1438SOL     OW 5804   4.209   3.588   2.310 -0.0595 -0.1200  0.0539
 1438SOL    HW2 5805   4.210   3.682   2.326  1.4744 -0.0651 -0.2405
 1438SOL    HW3 5806   4.209   3.579   2.215 -0.8081 -0.4303  0.0743
 1438SOL    MW4 5807   4.209   3.599   2.300  0.0443 -0.1538  0.0179
 1439SOL     OW 5808   4.252   3.859   2.351 -0.3399  0.3938 -0.0510
 1439SOL    HW2 5809   4.261   3.857   2.447 -0.3844 -0.7653 -0.0582
 1439SOL    HW3 5810   4.332   3.902   2.321  0.0415  0.0630  0.4729
 1439SOL    MW4 5811   4.264   3.864   2.360 -0.2952  0.1972  0.0172
 1440SOL     OW 5812   4.017   3.994   2.269  0.2619  0.6754 -0.2470
 1440SOL    HW2 5813   4.086   3.939   2.308 -0.0114  0.5052 -0.0009
 1440SOL    HW3 5814   4.035   3.991   2.175 -0.4332 -0.7806 -0.3515
 1440SOL    MW4 5815   4.029   3.986   2.262  0.1345  0.4611 -0.2282
 1441SOL     OW 5816   4.049   4.270   2.356  0.0353  0.3450 -0.3387
 1441SOL    HW2 5817   4.120   4.313   2.308  1.2026  0.0985  1.1294
 1441SOL    HW3 5818   4.048   4.181   2.323  1.3848 -0.0585  0.6390
 1441SOL    MW4 5819   4.058   4.264   2.346  0.3672  0.2594 -0.0160
 1442SOL     OW 5820   4.279   4.370   2.227  0.4739 -0.1439  0.2047
 1442SOL    HW2 5821   4.282   4.456   2.269 -0.8074 -0.4655  0.9747
 1442SOL    HW3 5822   4.340   4.317   2.277  1.2237  0.2852 -0.2344
 1442SOL    MW4 5823   4.287   4.375   2.239  0.4034 -0.1292  0.2484
 1443SOL     OW 5824   0.272   4.603   2.654  0.1185  0.1945 -0.0361
 1443SOL    HW2 5825   0.261   4.521   2.703  0.9401  0.6746  0.9709
 1443SOL    HW3 5826   0.201   4.659   2.684 -0.4583 -0.1546 -0.7431
 1443SOL    MW4 5827   0.261   4.599   2.665  0.1508  0.2112  0.0038
 1444SOL     OW 5828   0.065   0.076   2.765 -0.2495  0.1686 -0.4356
 1444SOL    HW2 5829   0.041   0.069   2.858  0.9521  1.3063 -0.0116
 1444SOL    HW3 5830   0.027   0.159   2.737 -0.5522 -0.1441 -0.9384
 1444SOL    MW4 5831   0.057   0.086   2.774 -0.1309  0.2775 -0.4461
 1445SOL     OW 5832   4.472   0.337   2.698  0.1555  0.1514  0.3545
 1445SOL    HW2 5833   4.552   0.379   2.731 -0.8507  3.2287 -1.0132
 1445SOL    HW3 5834   4.488   0.324   2.605  0.0811 -1.7215  0.5794
 1445SOL    MW4 5835   4.485   0.341   2.690  0.0130  0.3104  0.2038
 1446SOL     OW 5836   0.207   0.508   2.758 -0.4360  0.1894 -0.0087
 1446SOL    HW2 5837   0.210   0.509   2.854  0.4669  1.3041 -0.0398
 1446SOL    HW3 5838   0.282   0.454   2.733 -0.6214 -0.0298 -0.0948
 1446SOL    MW4 5839   0.218   0.501   2.767 -0.3413  0.3075 -0.0241
 1447SOL     OW 5840   0.195   0.784   2.648  0.1059 -0.3123  0.0511
 1447SOL    HW2 5841   0.276   0.822   2.683 -1.2588  1.1205  1.7414
 1447SOL    HW3 5842   0.197   0.693   2.677  0.6077 -0.0101  0.9870
 1447SOL    MW4 5843   0.206   0.777   2.657 -0.0079 -0.0833  0.3974
 1448SOL     OW 5844   4.465   0.919   2.764 -0.6831 -0.2863 -0.3098
 1448SOL    HW2 5845   4.384   0.876   2.736 -0.0466 -0.4580 -1.9376
 1448SOL    HW3 5846   4.534   0.869   2.721  0.1860  1.0603 -0.4951
 1448SOL    MW4 5847   4.464   0.906   2.754 -0.4844 -0.1313 -0.5493
 1449SOL     OW 5848   4.465   1.153   2.612  0.1289  0.3444  0.6675
 1449SOL    HW2 5849   4.552   1.192   2.626  0.1078 -0.0340  1.8915
 1449SOL    HW3 5850   4.463   1.078   2.671 -0.0013 -1.2762 -1.3808
 1449SOL    MW4 5851   4.476   1.148   2.622  0.1092  0.0806  0.5586
 1450SOL     OW 5852   0.232   1.247   2.709  0.1576 -0.1890 -0.1844
 1450SOL    HW2 5853   0.316   1.208   2.688  0.1568  0.0183 -0.5787
 1450SOL    HW3 5854   0.234   1.333   2.667 -0.4798 -0.4157 -0.6798
 1450SOL    MW4 5855   0.243   1.253   2.701  0.0734 -0.1916 -0.3018
 1451SOL     OW 5856   0.217   1.507   2.629  0.1736  0.3624 -0.1069
 1451SOL    HW2 5857   0.304   1.543   2.647  0.3187  0.3291 -0.7259
 1451SOL    HW3 5858   0.157   1.559   2.682  0.3206  1.8376 -1.3735
 1451SOL    MW4 5859   0.221   1.518   2.638  0.2122  0.5528 -0.3555
 1452SOL     OW 5860   0.006   1.697   2.699  0.2208  0.1487  0.1379
 1452SOL    HW2 5861  -0.009   1.703   2.793 -0.6778  0.4213 -0.0212
 1452SOL    HW3 5862   0.003   1.788   2.668 -1.0972 -0.0672 -0.3975
 1452SOL    MW4 5863   0.004   1.710   2.707 -0.0716  0.1560  0.0465
 1453SOL     OW 5864   4.464   1.978   2.648  0.3713  0.2630  0.6953
 1453SOL    HW2 5865   4.553   2.009   2.664  0.0939  0.8818  1.0881
 1453SOL    HW3 5866   4.456   1.972   2.553  1.7050 -2.4068  0.7111
 1453SOL    MW4 5867   4.475   1.981   2.638  0.5107 -0.0076  0.7491
 1454SOL     OW 5868   0.236   2.075   2.690  0.2182  0.1450 -0.2292
 1454SOL    HW2 5869   0.304   2.009   2.676  0.2441  0.2419 -0.5805
 1454SOL    HW3 5870   0.266   2.151   2.639 -0.0950  0.2252 -0.2957
 1454SOL    MW4 5871   0.249   2.076   2.681  0.1803  0.1683 -0.2842
 1455SOL     OW 5872   0.263   2.328   2.624 -0.5062 -0.0866  0.1606
 1455SOL    HW2 5873   0.318   2.392   2.669 -1.0724 -0.4022  1.3251
 1455SOL    HW3 5874   0.176   2.340   2.662 -1.6329  1.4841 -2.7628
 1455SOL    MW4 5875   0.258   2.338   2.635 -0.7296  0.0789 -0.0715
 1456SOL     OW 5876   0.021   2.431   2.725  0.1333  0.0456  0.4730
 1456SOL    HW2 5877  -0.004   2.448   2.816  0.3868 -0.2139  0.5962
 1456SOL    HW3 5878  -0.053   2.383   2.688  0.1827 -0.1756  0.6541
 1456SOL    MW4 5879   0.008   2.427   2.732  0.1736 -0.0174  0.5131
 1457SOL     OW 5880   0.007   2.710   2.629  0.2030  0.7973 -0.5167
 1457SOL    HW2 5881  -0.058   2.756   2.682  0.1346  0.3798 -0.2325
 1457SOL    HW3 5882  -0.006   2.618   2.650 -1.0407  0.4643 -2.6248
 1457SOL    MW4 5883  -0.003   2.704   2.639  0.0299  0.6983 -0.7572
 1458SOL     OW 5884   0.236   2.836   2.756 -0.1889 -0.2752 -0.4340
 1458SOL    HW2 5885   0.210   2.921   2.720 -0.0847 -0.1220 -0.1448
 1458SOL    HW3 5886   0.182   2.773   2.708  0.9755 -0.1906 -1.8786
 1458SOL    MW4 5887   0.225   2.839   2.745 -0.0215 -0.2437 -0.5863
 1459SOL     OW 5888   0.189   3.081   2.617 -0.0016 -0.3885  0.0479
 1459SOL    HW2 5889   0.261   3.139   2.641 -0.5929 -0.0021  0.8825
 1459SOL    HW3 5890   0.188   3.083   2.521 -0.0626  1.0400  0.0629
 1459SOL    MW4 5891   0.198   3.089   2.607 -0.0877 -0.1490  0.1602
 1460SOL     OW 5892   4.464   3.189   2.768  0.2574 -0.1071 -0.1089
 1460SOL    HW2 5893   4.383   3.160   2.727  0.1492 -0.9269  0.6671
 1460SOL    HW3 5894   4.532   3.163   2.706  0.1112 -1.5007  0.2951
 1460SOL    MW4 5895   4.462   3.181   2.754  0.2236 -0.3989  0.0470
 1461SOL     OW 5896   4.475   3.450   2.638 -0.1691 -0.3601 -0.4087
 1461SOL    HW2 5897   4.551   3.498   2.670 -0.4426 -0.3331  0.2085
 1461SOL    HW3 5898   4.477   3.368   2.687  0.7376 -1.3241 -2.0036
 1461SOL    MW4 5899   4.485   3.445   2.649 -0.0858 -0.4835 -0.5374
 1462SOL     OW 5900   0.204   3.601   2.731  0.0952 -0.4054 -0.2518
 1462SOL    HW2 5901   0.209   3.616   2.825  1.0100 -0.1042 -0.3445
 1462SOL    HW3 5902   0.294   3.579   2.705 -0.1120 -0.2959 -1.0830
 1462SOL    MW4 5903   0.217   3.600   2.740  0.1886 -0.3512 -0.3736
 1463SOL     OW 5904   0.232   3.835   2.610  0.1646 -0.1747  0.1680
 1463SOL    HW2 5905   0.219   3.754   2.659  0.6497 -0.5192 -0.2587
 1463SOL    HW3 5906   0.238   3.806   2.519  0.2222  0.3570  0.0047
 1463SOL    MW4 5907   0.231   3.820   2.604  0.2362 -0.1502  0.0901
 1464SOL     OW 5908   0.027   3.976   2.735 -0.0097 -0.0123 -0.2126
 1464SOL    HW2 5909   0.029   4.069   2.713 -0.9691  0.3704  1.2526
 1464SOL    HW3 5910   0.096   3.937   2.681  0.8895  1.6572 -0.2856
 1464SOL    MW4 5911   0.036   3.983   2.725 -0.0176  0.2582 -0.0288
 1465SOL     OW 5912   0.009   4.256   2.648  0.1374 -0.1702  0.0905
 1465SOL    HW2 5913  -0.062   4.301   2.694 -0.5214 -0.2272 -0.8593
 1465SOL    HW3 5914   0.088   4.303   2.675 -0.4499  1.0273 -0.2339
 1465SOL    MW4 5915   0.010   4.268   2.658 -0.0267 -0.0196 -0.0777
 1466SOL     OW 5916   0.240   4.357   2.752 -0.0841 -0.3306  0.3764
 1466SOL    HW2 5917   0.256   4.345   2.846  2.2176 -0.2823  0.0163
 1466SOL    HW3 5918   0.310   4.307   2.710 -1.5509 -0.9799 -1.3336
 1466SOL    MW4 5919   0.251   4.348   2.759  0.0260 -0.4091  0.1035
 1467SOL     OW 5920   0.671   4.628   2.617 -0.0659 -0.5224 -0.1583
 1467SOL    HW2 5921   0.757   4.660   2.643 -0.7860  1.6476 -0.4095
 1467SOL    HW3 5922   0.608   4.687   2.659 -1.3980 -1.1953 -1.1405
 1467SOL    MW4 5923   0.674   4.640   2.626 -0.3366 -0.3252 -0.3209
 1468SOL     OW 5924   0.487   0.117   2.727  0.3411 -0.3056 -0.3456
 1468SOL    HW2 5925   0.480   0.110   2.822  0.0195  0.1626 -0.3311
 1468SOL    HW3 5926   0.420   0.057   2.694 -1.0958  1.2114 -0.2445
 1468SOL    MW4 5927   0.477   0.108   2.735  0.1091 -0.0437 -0.3304
 1469SOL     OW 5928   0.429   0.384   2.663 -0.2333 -0.1045 -0.1668
 1469SOL    HW2 5929   0.511   0.424   2.693 -0.1605 -0.6822  0.4198
 1469SOL    HW3 5930   0.443   0.290   2.672 -0.1299 -0.3211 -2.2497
 1469SOL    MW4 5931   0.441   0.377   2.668 -0.2100 -0.2093 -0.3641
 1470SOL     OW 5932   0.689   0.479   2.730  0.1290  0.0209  0.1292
 1470SOL    HW2 5933   0.689   0.457   2.823  0.7561  0.0004  0.1223
 1470SOL    HW3 5934   0.767   0.438   2.695  0.5709  1.0853 -0.1572
 1470SOL    MW4 5935   0.699   0.471   2.738  0.2700  0.1586  0.0908
 1471SOL     OW 5936   0.669   0.748   2.629  0.0229  0.1319 -0.0551
 1471SOL    HW2 5937   0.745   0.791   2.666 -0.7129  0.5437  0.9937
 1471SOL    HW3 5938   0.664   0.664   2.674 -1.3259  0.9549  1.3970
 1471SOL    MW4 5939   0.678   0.743   2.640 -0.2521  0.2948  0.2747
 1472SOL     OW 5940   0.448   0.885   2.733  0.1519 -0.5499  0.1660
 1472SOL    HW2 5941   0.453   0.978   2.710 -0.4736 -0.5579  0.0112
 1472SOL    HW3 5942   0.524   0.846   2.689  0.7257 -0.0223  0.6710
 1472SOL    MW4 5943   0.459   0.892   2.724  0.1451 -0.4814  0.2120
 1473SOL     OW 5944   0.469   1.151   2.631 -0.0143  0.2501  0.0326
 1473SOL    HW2 5945   0.553   1.185   2.659 -1.6955  3.7201  1.0954
 1473SOL    HW3 5946   0.471   1.157   2.535  1.2009 -0.4040  0.0090
 1473SOL    MW4 5947   0.480   1.156   2.622 -0.0758  0.6217  0.1695
 1474SOL     OW 5948   0.696   1.289   2.709  0.0047 -0.1433  0.1168
 1474SOL    HW2 5949   0.686   1.292   2.804  2.6392  0.2359  0.4218
 1474SOL    HW3 5950   0.775   1.237   2.695 -1.5201 -2.0265 -1.9771
 1474SOL    MW4 5951   0.705   1.282   2.720  0.1511 -0.3418 -0.1192
 1475SOL     OW 5952   0.668   1.548   2.641 -0.5939 -0.1955  0.1834
 1475SOL    HW2 5953   0.580   1.576   2.667 -1.4220  0.3066 -2.9027
 1475SOL    HW3 5954   0.675   1.457   2.670 -1.5315  0.2519  1.8339
 1475SOL    MW4 5955   0.657   1.540   2.648 -0.8268 -0.0703 -0.0062
 1476SOL     OW 5956   0.417   1.657   2.728  0.0511 -0.2270  0.1617
 1476SOL    HW2 5957   0.409   1.662   2.823  2.1235 -1.5878  0.4424
 1476SOL    HW3 5958   0.423   1.748   2.699  1.3131  0.1460  1.5424
 1476SOL    MW4 5959   0.417   1.670   2.736  0.4910 -0.3573  0.3810
 1477SOL     OW 5960   0.426   1.909   2.662  0.1207 -0.2030  0.1625
 1477SOL    HW2 5961   0.499   1.954   2.705  0.6594  0.8699 -1.8111
 1477SOL    HW3 5962   0.445   1.916   2.569 -1.9106 -0.9609 -0.3351
 1477SOL    MW4 5963   0.438   1.916   2.656 -0.0762 -0.1615 -0.1636
 1478SOL     OW 5964   0.651   2.042   2.755  0.0342 -0.1124  0.0369
 1478SOL    HW2 5965   0.664   2.041   2.850  0.2709 -0.2224  0.0057
 1478SOL    HW3 5966   0.729   1.998   2.721 -0.6060 -1.1097 -0.1484
 1478SOL    MW4 5967   0.663   2.036   2.763 -0.0190 -0.2584  0.0086
 1479SOL     OW 5968   0.666   2.319   2.657  0.6253  0.1084 -0.3841
 1479SOL    HW2 5969   0.746   2.363   2.686  1.1870 -0.7463 -0.6067
 1479SOL    HW3 5970   0.673   2.231   2.694 -0.3196  0.0956 -0.2255
 1479SOL    MW4 5971   0.677   2.313   2.666  0.5748 -0.0060 -0.3924
 1480SOL     OW 5972   0.459   2.487   2.730 -0.5546  0.2641  0.1174
 1480SOL    HW2 5973   0.471   2.574   2.691  0.1744  0.1496  0.0969
 1480SOL    HW3 5974   0.532   2.435   2.696 -1.6820 -0.7090 -0.8756
 1480SOL    MW4 5975   0.470   2.492   2.720 -0.6072  0.1206 -0.0165
 1481SOL     OW 5976   0.468   2.747   2.640  0.2038  0.1158  0.1355
 1481SOL    HW2 5977   0.543   2.798   2.671  0.0883 -0.7833  1.9655
 1481SOL    HW3 5978   0.392   2.788   2.681 -0.0998 -0.2244 -0.0817
 1481SOL    MW4 5979   0.468   2.759   2.650  0.1485 -0.0479  0.3481
 1482SOL     OW 5980   0.710   2.854   2.725  0.0760  0.1209 -0.2125
 1482SOL    HW2 5981   0.691   2.832   2.816 -3.3878  0.1340 -0.8492
 1482SOL    HW3 5982   0.708   2.950   2.722  1.3161  0.1538 -0.0943
 1482SOL    MW4 5983   0.707   2.864   2.737 -0.2174  0.1268 -0.2809
 1483SOL     OW 5984   0.682   3.140   2.647 -0.1673  0.3069 -0.3313
 1483SOL    HW2 5985   0.766   3.155   2.689  0.4148 -1.1066 -0.9825
 1483SOL    HW3 5986   0.699   3.150   2.554 -0.7838  0.3395 -0.4444
 1483SOL    MW4 5987   0.695   3.143   2.641 -0.1719  0.1249 -0.4325
 1484SOL     OW 5988   0.407   3.234   2.722  0.6684  0.1526 -0.2993
 1484SOL    HW2 5989   0.419   3.227   2.817 -0.3048 -1.4369 -0.2744
 1484SOL    HW3 5990   0.487   3.196   2.685 -0.1111 -1.7454 -0.1049
 1484SOL    MW4 5991   0.419   3.228   2.730  0.4371 -0.3073 -0.2704
 1485SOL     OW 5992   0.438   3.493   2.639  0.0550 -0.1567  0.1644
 1485SOL    HW2 5993   0.433   3.402   2.668  0.0576  0.0159  0.7103
 1485SOL    HW3 5994   0.439   3.487   2.544  2.0935 -0.8166  0.2051
 1485SOL    MW4 5995   0.437   3.480   2.630  0.3243 -0.2210  0.2420
 1486SOL     OW 5996   0.671   3.619   2.724  0.5237  0.0398 -0.0418
 1486SOL    HW2 5997   0.661   3.612   2.819  0.8740  0.7062  0.0488
 1486SOL    HW3 5998   0.596   3.572   2.689  1.3071 -1.6847  0.5381
 1486SOL    MW4 5999   0.660   3.612   2.732  0.6733 -0.0999  0.0467
 1487SOL     OW 6000   0.651   3.873   2.634  0.0280 -0.1420  0.1354
 1487SOL    HW2 6001   0.576   3.903   2.686 -0.0693 -0.5467  0.2307
 1487SOL    HW3 6002   0.674   3.788   2.671  0.4646 -0.0733  0.0312
 1487SOL    MW4 6003   0.644   3.866   2.645  0.0728 -0.1862  0.1340
 1488SOL     OW 6004   0.432   3.981   2.737  0.4490 -0.0612  0.6203
 1488SOL    HW2 6005   0.442   4.061   2.684  3.0759 -0.9973 -0.3547
 1488SOL    HW3 6006   0.350   3.943   2.706 -0.2979  1.6946  0.3495
 1488SOL    MW4 6007   0.422   3.987   2.726  0.6970  0.0470  0.4559
 1489SOL     OW 6008   0.431   4.219   2.612 -0.2315 -0.1802  0.0801
 1489SOL    HW2 6009   0.499   4.271   2.655 -0.5484  0.2970  0.0066
 1489SOL    HW3 6010   0.450   4.227   2.518 -1.4494  1.4391 -0.0444
 1489SOL    MW4 6011   0.442   4.227   2.605 -0.4340  0.0963  0.0541
 1490SOL     OW 6012   0.633   4.361   2.723  0.4194  0.1139 -0.6120
 1490SOL    HW2 6013   0.724   4.333   2.711  1.1144  2.4695 -1.1730
 1490SOL    HW3 6014   0.630   4.447   2.681 -2.2592 -0.2511 -1.2131
 1490SOL    MW4 6015   0.645   4.369   2.716  0.1577  0.3767 -0.7653
 1491SOL     OW 6016   1.135   4.641   2.647  0.0772 -0.4588  0.2579
 1491SOL    HW2 6017   1.224   4.671   2.664  0.4339 -0.4615 -1.5334
 1491SOL    HW3 6018   1.133   4.551   2.679  0.9246 -0.6908 -0.3293
 1491SOL    MW4 6019   1.146   4.633   2.654  0.2362 -0.4902 -0.0558
 1492SOL     OW 6020   0.893   0.084   2.707 -0.0478  0.1910 -0.3859
 1492SOL    HW2 6021   0.890   0.076   2.802  0.5730  0.5707 -0.3320
 1492SOL    HW3 6022   0.982   0.059   2.683 -0.0958  0.4407 -0.8363
 1492SOL    MW4 6023   0.904   0.080   2.716  0.0277  0.2740 -0.4385
 1493SOL     OW 6024   0.904   0.344   2.647  0.2144  0.0783 -0.1096
 1493SOL    HW2 6025   0.884   0.252   2.663 -1.4658  0.3368 -0.5746
 1493SOL    HW3 6026   0.902   0.352   2.551 -0.2758  0.7291 -0.0458
 1493SOL    MW4 6027   0.901   0.333   2.636 -0.0720  0.1983 -0.1626
 1494SOL     OW 6028   1.147   0.438   2.782  0.4921  0.2032 -0.6085
 1494SOL    HW2 6029   1.134   0.523   2.740 -1.2907  0.4794  0.4240
 1494SOL    HW3 6030   1.079   0.382   2.744 -1.2079  0.4759  1.8554
 1494SOL    MW4 6031   1.136   0.442   2.772  0.0327  0.2756 -0.1471
 1495SOL     OW 6032   1.121   0.702   2.676  0.3582 -0.2921  0.1638
 1495SOL    HW2 6033   1.206   0.744   2.691  0.9405 -1.3234 -0.2086
 1495SOL    HW3 6034   1.107   0.710   2.582 -0.2951  0.5157  0.3316
 1495SOL    MW4 6035   1.131   0.709   2.665  0.3488 -0.3216  0.1369
 1496SOL     OW 6036   0.903   0.854   2.764  0.5379  0.3859 -0.3170
 1496SOL    HW2 6037   0.902   0.860   2.860  1.1345  2.4322 -0.4251
 1496SOL    HW3 6038   0.971   0.789   2.745  1.8360  1.4624  0.5890
 1496SOL    MW4 6039   0.912   0.846   2.774  0.7879  0.7979 -0.2115
 1497SOL     OW 6040   0.920   1.118   2.692 -0.2027 -0.3912  0.3519
 1497SOL    HW2 6041   0.914   1.026   2.717  1.3753 -0.5538  0.1453
 1497SOL    HW3 6042   0.933   1.116   2.597 -2.5294  0.1275 -0.0188
 1497SOL    MW4 6043   0.921   1.106   2.682 -0.3014 -0.3443  0.2756
 1498SOL     OW 6044   1.151   1.256   2.753  0.0055  0.1638  0.0752
 1498SOL    HW2 6045   1.138   1.342   2.713 -0.4250  0.4792  0.8735
 1498SOL    HW3 6046   1.067   1.212   2.742  0.7295 -0.7765 -1.7883
 1498SOL    MW4 6047   1.138   1.262   2.746  0.0442  0.0814 -0.0656
 1499SOL     OW 6048   1.115   1.528   2.645 -0.4298  0.1129  0.0685
 1499SOL    HW2 6049   1.037   1.564   2.689  0.3628  1.2807  0.5424
 1499SOL    HW3 6050   1.100   1.547   2.552 -0.4053  0.9509  0.2275
 1499SOL    MW4 6051   1.102   1.535   2.639 -0.3219  0.3777  0.1519
 1500SOL     OW 6052   0.890   1.663   2.750  0.2949  0.2859  0.1185
 1500SOL    HW2 6053   0.879   1.682   2.843  1.2494  0.1815  0.2617
 1500SOL    HW3 6054   0.809   1.620   2.724  0.2931 -0.2857  1.0658
 1500SOL    MW4 6055   0.878   1.660   2.759  0.4205  0.1968  0.2625
 1501SOL     OW 6056   0.880   1.916   2.637  0.1003 -0.1476 -0.2577
 1501SOL    HW2 6057   0.953   1.952   2.688  0.4896 -1.0069 -0.2102
 1501SOL    HW3 6058   0.867   1.828   2.672 -0.0431 -0.5158 -1.2106
 1501SOL    MW4 6059   0.888   1.909   2.648  0.1327 -0.3095 -0.3769
 1502SOL     OW 6060   1.117   2.044   2.767  0.4865 -0.4269  0.2748
 1502SOL    HW2 6061   1.200   2.013   2.730  1.1013 -0.1472  1.3952
 1502SOL    HW3 6062   1.111   2.135   2.738  0.0876 -0.7304 -0.6160
 1502SOL    MW4 6063   1.127   2.052   2.758  0.5151 -0.4303  0.3054
 1503SOL     OW 6064   1.140   2.295   2.626  0.1410  0.1949  0.0899
 1503SOL    HW2 6065   1.201   2.358   2.663 -0.5451  1.5039 -0.9636
 1503SOL    HW3 6066   1.160   2.293   2.532 -0.4996 -0.4079 -0.0440
 1503SOL    MW4 6067   1.150   2.303   2.618 -0.0340  0.2880 -0.0670
 1504SOL     OW 6068   0.920   2.428   2.730 -0.3536  0.2204 -0.2434
 1504SOL    HW2 6069   0.915   2.518   2.696 -2.8491 -0.0731 -0.6924
 1504SOL    HW3 6070   0.993   2.389   2.682  0.1188  1.7060 -0.7644
 1504SOL    MW4 6071   0.929   2.435   2.719 -0.6204  0.3779 -0.3717
 1505SOL     OW 6072   0.904   2.692   2.622 -0.2064 -0.2481 -0.2408
 1505SOL    HW2 6073   0.982   2.743   2.644 -0.7540 -0.0721  1.3130
 1505SOL    HW3 6074   0.831   2.745   2.652 -0.9772 -0.1907 -2.1331
 1505SOL    MW4 6075   0.905   2.706   2.629 -0.3803 -0.2172 -0.2854
 1506SOL     OW 6076   1.118   2.838   2.739  0.1258 -0.1304  0.0648
 1506SOL    HW2 6077   1.118   2.858   2.833 -0.6359 -1.9650  0.4885
 1506SOL    HW3 6078   1.201   2.792   2.725  0.7577  1.1251 -0.4083
 1506SOL    MW4 6079   1.129   2.834   2.749  0.1087 -0.2069  0.0584
 1507SOL     OW 6080   1.148   3.096   2.640  0.0000  0.0000 -0.1365
 1507SOL    HW2 6081   1.122   3.007   2.663  0.0000  0.0000 -0.1328
 1507SOL    HW3 6082   1.136   3.101   2.545  0.0000  0.0000 -0.1367
 1507SOL    MW4 6083   1.143   3.085   2.631  0.0000  0.0000 -0.1361
 1508SOL     OW 6084   0.919   3.208   2.760  0.0000  0.0000 -0.0028
 1508SOL    HW2 6085   0.903   3.287   2.708  0.0000  0.0000  0.0021
 1508SOL    HW3 6086   1.006   3.179   2.733  0.0000  0.0000  0.0038
 1508SOL    MW4 6087   0.928   3.215   2.750  0.0000  0.0000 -0.0014
 1509SOL     OW 6088   0.887   3.462   2.632  0.0000  0.0000  0.1211
 1509SOL    HW2 6089   0.961   3.509   2.672  0.0000  0.0000  0.1075
 1509SOL    HW3 6090   0.810   3.512   2.660  0.0000  0.0000  0.1480
 1509SOL    MW4 6091   0.887   3.475   2.641  0.0000  0.0000  0.1228
 1510SOL     OW 6092   1.102   3.599   2.737  0.0000  0.0000  0.0769
 1510SOL    HW2 6093   1.101   3.626   2.829  0.0000  0.0000  0.0751
 1510SOL    HW3 6094   1.100   3.681   2.688  0.0000  0.0000  0.0707
 1510SOL    MW4 6095   1.102   3.613   2.742  0.0000  0.0000  0.0758
 1511SOL     OW 6096   1.098   3.851   2.632  0.0000  0.0000 -0.2550
 1511SOL    HW2 6097   1.178   3.889   2.670  0.0000  0.0000 -0.2578
 1511SOL    HW3 6098   1.110   3.859   2.537  0.0000  0.0000 -0.2558
 1511SOL    MW4 6099   1.110   3.857   2.625  0.0000  0.0000 -0.2553
 1512SOL     OW 6100   0.893   4.008   2.748  0.0000  0.0000 -0.6139
 1512SOL    HW2 6101   0.957   3.963   2.693  0.0000  0.0000 -0.6179
 1512SOL    HW3 6102   0.809   3.969   2.722  0.0000  0.0000 -0.6072
 1512SOL    MW4 6103   0.890   3.997   2.737  0.0000  0.0000 -0.6135
 1513SOL     OW 6104   0.888   4.266   2.659  0.0000  0.0000  0.0023
 1513SOL    HW2 6105   0.892   4.173   2.683  0.0000  0.0000  0.0031
 1513SOL    HW3 6106   0.884   4.265   2.563  0.0000  0.0000  0.0019
 1513SOL    MW4 6107   0.888   4.254   2.649  0.0000  0.0000  0.0024
 1514SOL     OW 6108   1.144   4.351   2.761  0.0000  0.0000 -0.3591
 1514SOL    HW2 6109   1.137   4.378   2.853  0.0000  0.0000 -0.3612
 1514SOL    HW3 6110   1.055   4.327   2.736  0.0000  0.0000 -0.3590
 1514SOL    MW4 6111   1.131   4.351   2.770  0.0000  0.0000 -0.3593
 1515SOL     OW 6112   1.593   4.643   2.654  0.0000  0.0000  0.2401
 1515SOL    HW2 6113   1.588   4.549   2.670  0.0000  0.0000  0.2449
 1515SOL    HW3 6114   1.581   4.652   2.559  0.0000  0.0000  0.2402
 1515SOL    MW4 6115   1.591   4.632   2.643  0.0000  0.0000  0.2410
 1516SOL     OW 6116   1.364   0.105   2.755  0.2100 -0.1564  0.2160
 1516SOL    HW2 6117   1.362   0.191   2.713 -0.4746 -0.1367  0.2893
 1516SOL    HW3 6118   1.443   0.063   2.719 -0.5519 -0.2694 -1.3664
 1516SOL    MW4 6119   1.374   0.111   2.745  0.0190 -0.1687  0.0174
 1517SOL     OW 6120   1.378   0.366   2.655 -0.2081 -0.1279  0.0596
 1517SOL    HW2 6121   1.454   0.414   2.689 -1.8327  2.1090  0.6276
 1517SOL    HW3 6122   1.305   0.395   2.710 -1.9850 -0.1879 -2.2342
 1517SOL    MW4 6123   1.379   0.376   2.667 -0.6568  0.1593 -0.1681
 1518SOL     OW 6124   1.599   0.503   2.754  0.0455 -0.5413 -0.4720
 1518SOL    HW2 6125   1.684   0.466   2.731  0.8219 -0.4088  2.0184
 1518SOL    HW3 6126   1.601   0.592   2.721  0.4686 -0.8750 -1.3430
 1518SOL    MW4 6127   1.611   0.510   2.747  0.2038 -0.5679 -0.2582
 1519SOL     OW 6128   1.612   0.770   2.640 -0.0238 -0.0126 -0.3263
 1519SOL    HW2 6129   1.526   0.801   2.668  0.0519  0.5950 -0.7545
 1519SOL    HW3 6130   1.613   0.785   2.546  0.1565 -0.9937 -0.4903
 1519SOL    MW4 6131   1.601   0.776   2.632  0.0099 -0.0619 -0.4044
 1520SOL     OW 6132   1.350   0.849   2.723 -0.3851  0.3461 -0.1167
 1520SOL    HW2 6133   1.360   0.874   2.815  0.4757  1.1002 -0.4000
 1520SOL    HW3 6134   1.375   0.928   2.674  1.7533 -0.8390 -1.0309
 1520SOL    MW4 6135   1.355   0.863   2.728  0.0106  0.2892 -0.2747
 1521SOL     OW 6136   1.356   1.123   2.627  0.0548  0.2839 -0.0739
 1521SOL    HW2 6137   1.424   1.174   2.672 -0.7094 -0.2272  1.6979
 1521SOL    HW3 6138   1.274   1.162   2.657 -0.4835 -0.3836 -0.6723
 1521SOL    MW4 6139   1.354   1.135   2.637 -0.1169  0.1283  0.0813
 1522SOL     OW 6140   1.578   1.250   2.714 -0.0443 -0.1562  0.1504
 1522SOL    HW2 6141   1.590   1.253   2.809  0.4024 -1.2406  0.1328
 1522SOL    HW3 6142   1.660   1.212   2.681  0.0123  0.7056 -0.7159
 1522SOL    MW4 6143   1.591   1.245   2.722  0.0222 -0.1856  0.0339
 1523SOL     OW 6144   1.551   1.542   2.631 -0.3540 -0.2125  0.0809
 1523SOL    HW2 6145   1.553   1.447   2.642  0.9979 -0.3897 -1.5279
 1523SOL    HW3 6146   1.543   1.555   2.537 -0.9544  1.2804  0.3289
 1523SOL    MW4 6147   1.550   1.531   2.620 -0.2549 -0.0387 -0.0987
 1524SOL     OW 6148   1.332   1.693   2.731 -0.1073  0.1647 -0.2448
 1524SOL    HW2 6149   1.406   1.642   2.698  0.2125  0.8329 -0.5745
 1524SOL    HW3 6150   1.255   1.651   2.692 -0.0307 -1.4917  1.3517
 1524SOL    MW4 6151   1.331   1.681   2.721 -0.0550  0.0343 -0.0775
 1525SOL     OW 6152   1.353   1.933   2.599  0.0796 -0.6891  0.0634
 1525SOL    HW2 6153   1.367   1.844   2.633  3.4219  0.0072  0.6863
 1525SOL    HW3 6154   1.342   1.921   2.505 -1.2881 -1.8917  0.3446
 1525SOL    MW4 6155   1.353   1.920   2.591  0.3402 -0.7558  0.1829
 1526SOL     OW 6156   1.531   2.087   2.731 -0.1905 -0.1574  0.1010
 1526SOL    HW2 6157   1.613   2.040   2.721 -0.8409 -1.2643 -0.0526
 1526SOL    HW3 6158   1.464   2.027   2.699 -1.2302  0.1473  1.6094
 1526SOL    MW4 6159   1.533   2.073   2.726 -0.4134 -0.2632  0.2797
 1527SOL     OW 6160   1.532   2.345   2.634 -0.2114 -0.0340 -0.1723
 1527SOL    HW2 6161   1.618   2.382   2.653  0.3879 -0.7170 -1.4775
 1527SOL    HW3 6162   1.540   2.253   2.659 -0.0337 -0.4802 -1.8194
 1527SOL    MW4 6163   1.544   2.338   2.640 -0.1090 -0.1829 -0.5617
 1528SOL     OW 6164   1.316   2.447   2.788  0.2362 -0.1450 -0.0002
 1528SOL    HW2 6165   1.316   2.538   2.758 -0.1310  0.1086  0.7539
 1528SOL    HW3 6166   1.388   2.406   2.740  0.2405  0.4768 -0.5370
 1528SOL    MW4 6167   1.326   2.454   2.778  0.1885 -0.0296  0.0286
 1529SOL     OW 6168   1.337   2.704   2.666 -0.1510  0.5003  0.7802
 1529SOL    HW2 6169   1.413   2.750   2.701 -0.1863  1.0118  0.2058
 1529SOL    HW3 6170   1.344   2.715   2.571  0.5834 -1.8768  0.5377
 1529SOL    MW4 6171   1.348   2.712   2.658 -0.0588  0.2542  0.6723
 1530SOL     OW 6172   1.589   2.844   2.751 -0.1931  0.0968 -0.0329
 1530SOL    HW2 6173   1.612   2.844   2.844  0.5827  1.7213 -0.2046
 1530SOL    HW3 6174   1.662   2.798   2.708 -0.0557  0.2319  0.0553
 1530SOL    MW4 6175   1.602   2.838   2.757 -0.0726  0.3290 -0.0436
 1531SOL     OW 6176   1.600   3.100   2.650 -0.0606 -0.1030 -0.5072
 1531SOL    HW2 6177   1.686   3.141   2.663 -0.9017  1.3828  0.4401
 1531SOL    HW3 6178   1.610   3.012   2.688 -0.4342  1.8292  4.4092
 1531SOL    MW4 6179   1.613   3.094   2.657 -0.2209  0.3481  0.2666
 1532SOL     OW 6180   1.373   3.174   2.777 -0.0402 -0.1606 -0.1430
 1532SOL    HW2 6181   1.458   3.147   2.742 -0.2388 -0.8484 -0.0943
 1532SOL    HW3 6182   1.309   3.138   2.715 -0.4504 -2.3209  1.5022
 1532SOL    MW4 6183   1.376   3.166   2.764 -0.1205 -0.5362  0.0806
 1533SOL     OW 6184   1.328   3.473   2.654 -0.1665  0.0056  0.3386
 1533SOL    HW2 6185   1.328   3.384   2.688 -0.5879 -0.2523 -0.3160
 1533SOL    HW3 6186   1.248   3.512   2.689  0.3621  0.3430  1.1722
 1533SOL    MW4 6187   1.317   3.466   2.663 -0.1523  0.0160  0.3622
 1534SOL     OW 6188   1.542   3.575   2.771 -0.0588 -0.0080 -0.0406
 1534SOL    HW2 6189   1.604   3.523   2.719  0.3155 -0.3701  0.7588
 1534SOL    HW3 6190   1.456   3.551   2.737  0.1888 -0.1665 -0.5641
 1534SOL    MW4 6191   1.539   3.565   2.760  0.0232 -0.0768 -0.0038
 1535SOL     OW 6192   1.576   3.846   2.659 -0.2934  0.2987 -0.0751
 1535SOL    HW2 6193   1.504   3.900   2.690  0.7878  0.7683  1.6731
 1535SOL    HW3 6194   1.569   3.765   2.709  0.3031  0.3031  0.0258
 1535SOL    MW4 6195   1.566   3.843   2.670 -0.0719  0.3607  0.1688
 1536SOL     OW 6196   1.329   3.960   2.737 -0.4282  0.1797 -0.2809
 1536SOL    HW2 6197   1.330   3.981   2.830 -0.7435  0.7382 -0.4000
 1536SOL    HW3 6198   1.334   4.045   2.693  1.7013 -0.1700 -0.7856
 1536SOL    MW4 6199   1.330   3.974   2.744 -0.1888  0.2072 -0.3633
 1537SOL     OW 6200   1.340   4.206   2.627  0.5610  0.6004 -0.2450
 1537SOL    HW2 6201   1.273   4.264   2.663 -0.7120 -0.4794 -0.8261
 1537SOL    HW3 6202   1.346   4.232   2.535  0.6131  0.3906 -0.3006
 1537SOL    MW4 6203   1.332   4.217   2.619  0.3998  0.4301 -0.3293
 1538SOL     OW 6204   1.565   4.363   2.695 -0.6045  0.0150  0.0261
 1538SOL    HW2 6205   1.556   4.361   2.790  0.2676  0.5885  0.1279
 1538SOL    HW3 6206   1.496   4.305   2.663 -1.7843  0.9015  0.9422
 1538SOL    MW4 6207   1.555   4.355   2.704 -0.6453  0.2074  0.1605
 1539SOL     OW 6208   2.041   4.637   2.624  0.5465  0.4647  0.9914
 1539SOL    HW2 6209   2.116   4.685   2.657 -0.6695  1.9106  1.7051
 1539SOL    HW3 6210   2.041   4.654   2.530 -0.2420  2.4439  1.3200
 1539SOL    MW4 6211   2.051   4.645   2.616  0.2820  0.9170  1.1289
 1540SOL     OW 6212   1.816   0.116   2.738  0.4394 -0.0126 -0.2727
 1540SOL    HW2 6213   1.891   0.092   2.684  0.5113  0.6761 -0.4759
 1540SOL    HW3 6214   1.745   0.060   2.706  0.4441  0.4886 -1.1785
 1540SOL    MW4 6215   1.816   0.105   2.727  0.4495  0.1444 -0.4191
 1541SOL     OW 6216   1.818   0.370   2.649 -0.5772 -0.4290  0.1746
 1541SOL    HW2 6217   1.901   0.413   2.670 -1.8168  1.2510  1.7731
 1541SOL    HW3 6218   1.825   0.284   2.689  0.9633 -0.8529 -0.9557
 1541SOL    MW4 6219   1.830   0.365   2.657 -0.5375 -0.2633  0.2363
 1542SOL     OW 6220   2.058   0.474   2.730 -0.0071 -0.3126 -0.5841
 1542SOL    HW2 6221   2.141   0.433   2.703 -0.1579  1.0405 -3.3242
 1542SOL    HW3 6222   2.058   0.559   2.686 -2.5175  0.0306 -0.0039
 1542SOL    MW4 6223   2.069   0.480   2.720 -0.3583 -0.0888 -0.8690
 1543SOL     OW 6224   2.043   0.726   2.649  0.0509  0.0560  0.1933
 1543SOL    HW2 6225   1.982   0.788   2.689  1.1528  0.9006  0.5693
 1543SOL    HW3 6226   2.042   0.749   2.556  0.9053  1.0269  0.4188
 1543SOL    MW4 6227   2.035   0.737   2.642  0.3092  0.2956  0.2728
 1544SOL     OW 6228   1.837   0.898   2.757 -0.0081  0.6876 -0.8634
 1544SOL    HW2 6229   1.844   0.987   2.722 -0.5949  0.4275 -1.6594
 1544SOL    HW3 6230   1.758   0.862   2.716 -0.2746  0.1077  0.1395
 1544SOL    MW4 6231   1.827   0.905   2.747 -0.1206  0.5769 -0.8364
 1545SOL     OW 6232   1.836   1.151   2.650 -0.5304  0.0511  0.2085
 1545SOL    HW2 6233   1.917   1.195   2.675  0.8150 -3.4236  2.3943
 1545SOL    HW3 6234   1.843   1.141   2.555  1.8965 -0.6012  0.4065
 1545SOL    MW4 6235   1.848   1.155   2.641 -0.0328 -0.4933  0.5231
 1546SOL     OW 6236   2.054   1.296   2.729 -0.1105 -0.0531 -0.4203
 1546SOL    HW2 6237   2.053   1.301   2.824  0.9021  0.4404 -0.4257
 1546SOL    HW3 6238   2.132   1.244   2.708 -0.4695 -0.3778 -0.9740
 1546SOL    MW4 6239   2.064   1.290   2.738 -0.0246 -0.0308 -0.4940
 1547SOL     OW 6240   2.024   1.558   2.632  0.3542  0.0444  0.5568
 1547SOL    HW2 6241   1.948   1.590   2.680 -1.7138 -2.5175 -0.8926
 1547SOL    HW3 6242   2.032   1.466   2.658  0.9557 -0.6017 -1.7872
 1547SOL    MW4 6243   2.015   1.550   2.642  0.1607 -0.3788  0.0563
 1548SOL     OW 6244   1.788   1.684   2.730 -0.4199 -0.3288 -0.1023
 1548SOL    HW2 6245   1.778   1.679   2.825 -1.7144 -0.4398 -0.2423
 1548SOL    HW3 6246   1.724   1.622   2.696 -0.0588 -0.1823 -1.0643
 1548SOL    MW4 6247   1.779   1.675   2.738 -0.5431 -0.3240 -0.2477
 1549SOL     OW 6248   1.766   1.954   2.649 -0.5828  0.0136 -0.0788
 1549SOL    HW2 6249   1.851   1.975   2.689 -0.5463  0.4907 -0.4030
 1549SOL    HW3 6250   1.757   1.859   2.661 -0.0706 -0.0189  0.0833
 1549SOL    MW4 6251   1.776   1.944   2.656 -0.5105  0.0724 -0.1001
 1550SOL     OW 6252   2.006   2.023   2.773 -0.0860 -0.0289  0.0439
 1550SOL    HW2 6253   2.037   2.035   2.863  0.1894  1.0713 -0.1844
 1550SOL    HW3 6254   2.004   2.112   2.737  0.3738 -0.5261 -1.2175
 1550SOL    MW4 6255   2.010   2.037   2.780  0.0112  0.0508 -0.1526
 1551SOL     OW 6256   2.000   2.287   2.681 -0.1009  0.5574 -0.0041
 1551SOL    HW2 6257   2.081   2.327   2.713 -0.3932  0.8971  0.3056
 1551SOL    HW3 6258   2.004   2.298   2.586  0.7336 -0.3933 -0.0813
 1551SOL    MW4 6259   2.011   2.294   2.672 -0.0293  0.4768  0.0265
 1552SOL     OW 6260   1.779   2.447   2.717  0.1530 -0.2744 -1.1433
 1552SOL    HW2 6261   1.761   2.438   2.811 -1.9359  0.7959 -1.4030
 1552SOL    HW3 6262   1.861   2.400   2.704  0.9837  0.3653  1.3876
 1552SOL    MW4 6263   1.787   2.439   2.728 -0.0129 -0.0489 -0.8438
 1553SOL     OW 6264   1.800   2.717   2.628  0.4101 -0.2698 -0.4056
 1553SOL    HW2 6265   1.809   2.624   2.653  0.7502  0.1641  1.1491
 1553SOL    HW3 6266   1.813   2.718   2.533 -1.2593 -2.0440 -0.6931
 1553SOL    MW4 6267   1.803   2.705   2.619  0.2346 -0.4466 -0.2384
 1554SOL     OW 6268   2.005   2.847   2.729 -0.1597  0.0920 -0.4512
 1554SOL    HW2 6269   2.077   2.792   2.698  0.7485  0.5850  0.7157
 1554SOL    HW3 6270   1.926   2.802   2.700  0.5522 -2.0988  0.8582
 1554SOL    MW4 6271   2.004   2.834   2.721  0.0541 -0.1318 -0.1247
 1555SOL     OW 6272   2.063   3.102   2.615  0.5457 -0.0967  0.0153
 1555SOL    HW2 6273   2.038   3.010   2.625  0.0165  0.2216  1.8703
 1555SOL    HW3 6274   2.038   3.124   2.525 -1.9785 -0.9740  0.4704
 1555SOL    MW4 6275   2.056   3.093   2.604  0.1431 -0.1705  0.3200
 1556SOL     OW 6276   1.841   3.206   2.725 -0.4313  0.0429 -0.3290
 1556SOL    HW2 6277   1.837   3.295   2.691 -1.5165  0.0970 -0.0564
 1556SOL    HW3 6278   1.929   3.175   2.700 -0.1333  1.1009 -0.6131
 1556SOL    MW4 6279   1.852   3.214   2.717 -0.5351  0.1893 -0.3304
 1557SOL     OW 6280   1.773   3.462   2.632 -0.3588 -0.2422  0.0684
 1557SOL    HW2 6281   1.820   3.536   2.672 -2.7340  0.8332  0.9458
 1557SOL    HW3 6282   1.775   3.481   2.538  0.4633  0.0608  0.1373
 1557SOL    MW4 6283   1.780   3.474   2.625 -0.5639 -0.0603  0.1934
 1558SOL     OW 6284   2.004   3.611   2.734 -0.2781  0.0279 -0.3067
 1558SOL    HW2 6285   2.000   3.607   2.830  0.7431 -1.0701 -0.3090
 1558SOL    HW3 6286   2.090   3.575   2.712  0.5283  2.6050 -1.5100
 1558SOL    MW4 6287   2.015   3.606   2.744 -0.0370  0.2232 -0.4656
 1559SOL     OW 6288   2.003   3.886   2.654  0.3892  0.1604 -0.5912
 1559SOL    HW2 6289   1.935   3.930   2.706  0.4724  1.2843 -1.4006
 1559SOL    HW3 6290   1.999   3.795   2.681 -2.2057 -0.0143 -1.4161
 1559SOL    MW4 6291   1.994   3.880   2.664  0.0578  0.2856 -0.8068
 1560SOL     OW 6292   1.777   4.016   2.780 -0.1915  0.2118 -0.1370
 1560SOL    HW2 6293   1.777   4.096   2.727 -1.2198 -0.0875 -0.5875
 1560SOL    HW3 6294   1.708   3.961   2.742 -0.5388 -0.2501  1.1372
 1560SOL    MW4 6295   1.768   4.019   2.768 -0.3729  0.1116 -0.0284
 1561SOL     OW 6296   1.819   4.257   2.664  0.3269  0.4098 -0.1077
 1561SOL    HW2 6297   1.731   4.290   2.683 -0.1569 -1.2143  0.5716
 1561SOL    HW3 6298   1.822   4.249   2.569 -0.3191  0.2792 -0.1178
 1561SOL    MW4 6299   1.808   4.260   2.654  0.1780  0.1779 -0.0191
 1562SOL     OW 6300   2.013   4.394   2.779 -0.2120 -0.1777 -0.2266
 1562SOL    HW2 6301   1.952   4.336   2.733  0.6763 -0.2709 -1.3122
 1562SOL    HW3 6302   2.001   4.479   2.737  0.4832 -0.2198 -0.5032
 1562SOL    MW4 6303   2.003   4.397   2.768 -0.0026 -0.1950 -0.4063
 1563SOL     OW 6304   2.472   4.654   2.632  0.3046 -0.0432  0.1212
 1563SOL    HW2 6305   2.543   4.705   2.671  1.1973 -1.3659  0.2677
 1563SOL    HW3 6306   2.476   4.676   2.539  0.2023  0.7059  0.2869
 1563SOL    MW4 6307   2.482   4.664   2.625  0.4089 -0.1183  0.1626
 1564SOL     OW 6308   2.253   0.110   2.745 -0.2056  0.3678 -0.3833
 1564SOL    HW2 6309   2.269   0.103   2.839 -0.9804 -0.3699 -0.2984
 1564SOL    HW3 6310   2.321   0.058   2.704  2.1087  3.2647 -0.4197
 1564SOL    MW4 6311   2.264   0.102   2.752 -0.0024  0.6527 -0.3769
 1565SOL     OW 6312   2.305   0.366   2.668 -0.0230 -0.3352  0.1399
 1565SOL    HW2 6313   2.288   0.278   2.700  0.3155 -0.3437  0.3006
 1565SOL    HW3 6314   2.284   0.363   2.575 -1.3164 -0.2286  0.4247
 1565SOL    MW4 6315   2.300   0.354   2.660 -0.1490 -0.3223  0.1988
 1566SOL     OW 6316   2.523   0.523   2.707  0.1414  0.3495 -0.0642
 1566SOL    HW2 6317   2.500   0.614   2.725 -0.0713  0.5352 -1.2150
 1566SOL    HW3 6318   2.438   0.481   2.691  0.0812 -0.4454  2.1052
 1566SOL    MW4 6319   2.509   0.529   2.707  0.1054  0.2691  0.0701
 1567SOL     OW 6320   2.504   0.793   2.664 -0.5292 -0.2078  0.2579
 1567SOL    HW2 6321   2.420   0.836   2.681 -1.3066 -1.4936 -0.1887
 1567SOL    HW3 6322   2.513   0.796   2.568 -0.0803 -0.0948  0.3043
 1567SOL    MW4 6323   2.494   0.799   2.653 -0.5727 -0.3625  0.2053
 1568SOL     OW 6324   2.254   0.899   2.715 -0.0807 -0.1705  0.3242
 1568SOL    HW2 6325   2.270   0.881   2.808 -0.2861 -0.0424  0.3861
 1568SOL    HW3 6326   2.185   0.837   2.691  1.7377 -1.9684 -0.4059
 1568SOL    MW4 6327   2.247   0.888   2.724  0.1321 -0.3909  0.2360
 1569SOL     OW 6328   2.270   1.152   2.615 -0.3031  0.5165 -0.1440
 1569SOL    HW2 6329   2.258   1.063   2.646  2.6838  0.2481  0.4156
 1569SOL    HW3 6330   2.263   1.146   2.520 -0.1799 -0.2944 -0.1022
 1569SOL    MW4 6331   2.268   1.140   2.607  0.1073  0.3741 -0.0646
 1570SOL     OW 6332   2.498   1.268   2.718 -0.0437  0.8216 -0.1793
 1570SOL    HW2 6333   2.571   1.224   2.673  1.3577  0.9671  1.8959
 1570SOL    HW3 6334   2.420   1.222   2.687  1.1024 -0.7208 -0.8566
 1570SOL    MW4 6335   2.497   1.256   2.708  0.2923  0.6373  0.0055
 1571SOL     OW 6336   2.462   1.515   2.633  0.5448 -0.4464  0.0638
 1571SOL    HW2 6337   2.380   1.546   2.671  1.5078  1.1713  0.8935
 1571SOL    HW3 6338   2.470   1.424   2.661 -0.2747 -0.1828  1.1392
 1571SOL    MW4 6339   2.452   1.507   2.641  0.5634 -0.1981  0.3150
 1572SOL     OW 6340   2.253   1.658   2.761  0.3678  0.3625  0.1023
 1572SOL    HW2 6341   2.266   1.750   2.737 -0.0931  0.9302  1.9056
 1572SOL    HW3 6342   2.181   1.629   2.705  1.8995  0.4558 -1.9860
 1572SOL    MW4 6343   2.245   1.667   2.751  0.5093  0.4497  0.0646
 1573SOL     OW 6344   2.261   1.944   2.645 -0.2170  0.1175 -0.6266
 1573SOL    HW2 6345   2.175   1.950   2.687 -0.0519  2.6915 -0.5833
 1573SOL    HW3 6346   2.242   1.939   2.551 -0.4067  1.8050 -0.6909
 1573SOL    MW4 6347   2.247   1.944   2.638 -0.2201  0.6797 -0.6294
 1574SOL     OW 6348   2.476   2.048   2.777  0.2527  0.3546 -0.5057
 1574SOL    HW2 6349   2.489   2.133   2.734 -0.1790  1.3671  1.3225
 1574SOL    HW3 6350   2.398   2.012   2.735 -0.6934  1.7409  0.0259
 1574SOL    MW4 6351   2.468   2.054   2.766  0.0710  0.6711 -0.1943
 1575SOL     OW 6352   2.498   2.316   2.710  0.0541 -0.3392  0.0505
 1575SOL    HW2 6353   2.583   2.358   2.721  0.1045 -0.2605 -0.6459
 1575SOL    HW3 6354   2.482   2.318   2.616 -1.2603  0.7466  0.2762
 1575SOL    MW4 6355   2.507   2.322   2.699 -0.1130 -0.1855 -0.0117
 1576SOL     OW 6356   2.233   2.419   2.739  0.1541 -0.8269  0.4691
 1576SOL    HW2 6357   2.227   2.441   2.832  1.6527  0.9851  0.1469
 1576SOL    HW3 6358   2.316   2.374   2.730  0.4172 -0.2176 -0.1521
 1576SOL    MW4 6359   2.243   2.416   2.750  0.3867 -0.5076  0.3448
 1577SOL     OW 6360   2.215   2.688   2.629  0.2439  0.3131  0.1654
 1577SOL    HW2 6361   2.284   2.736   2.675 -0.6677 -0.4748  2.3835
 1577SOL    HW3 6362   2.218   2.600   2.665 -0.2025 -0.4633 -1.6307
 1577SOL    MW4 6363   2.224   2.683   2.640  0.0648  0.1066  0.2210
 1578SOL     OW 6364   2.435   2.831   2.761 -0.0342 -0.1717 -0.5288
 1578SOL    HW2 6365   2.524   2.798   2.752  0.2215  0.3719 -0.0132
 1578SOL    HW3 6366   2.440   2.922   2.734 -0.2501  0.1068  0.3377
 1578SOL    MW4 6367   2.447   2.838   2.756 -0.0293 -0.0632 -0.3467
 1579SOL     OW 6368   2.474   3.080   2.670 -0.5073  0.2485  0.1951
 1579SOL    HW2 6369   2.403   3.140   2.694 -1.2354 -0.6587  0.3534
 1579SOL    HW3 6370   2.473   3.079   2.574 -1.2475 -0.3971  0.2108
 1579SOL    MW4 6371   2.464   3.088   2.660 -0.7010  0.0436  0.2179
 1580SOL     OW 6372   2.245   3.246   2.755  0.7369  0.1466  0.0913
 1580SOL    HW2 6373   2.223   3.227   2.846 -1.7681 -0.1751 -0.5569
 1580SOL    HW3 6374   2.183   3.195   2.703  1.0865  1.5458 -1.7860
 1580SOL    MW4 6375   2.234   3.237   2.760  0.4523  0.2887 -0.2418
 1581SOL     OW 6376   2.247   3.496   2.638 -0.2546 -0.0798 -0.0193
 1581SOL    HW2 6377   2.330   3.523   2.677  0.1760  0.5014 -1.3132
 1581SOL    HW3 6378   2.228   3.411   2.678  0.9231 -0.1735  0.3446
 1581SOL    MW4 6379   2.255   3.488   2.648 -0.0424 -0.0155 -0.1419
 1582SOL     OW 6380   2.475   3.559   2.778  0.4465  0.1048  0.2210
 1582SOL    HW2 6381   2.460   3.574   2.871 -0.1788  0.0501  0.1290
 1582SOL    HW3 6382   2.483   3.646   2.740  1.7425  0.1121  0.4929
 1582SOL    MW4 6383   2.474   3.572   2.785  0.5350  0.0985  0.2446
 1583SOL     OW 6384   2.480   3.819   2.700  0.0597 -0.3977 -0.3710
 1583SOL    HW2 6385   2.551   3.880   2.722 -1.5314  1.1529  0.6063
 1583SOL    HW3 6386   2.401   3.863   2.731 -1.0962 -3.1446  0.6968
 1583SOL    MW4 6387   2.479   3.833   2.707 -0.3028 -0.5553 -0.1011
 1584SOL     OW 6388   2.245   3.993   2.761 -0.4237 -0.1865 -0.6920
 1584SOL    HW2 6389   2.237   3.988   2.857  0.0057  0.9307 -0.5859
 1584SOL    HW3 6390   2.167   3.948   2.729 -0.8721 -0.0706  0.1953
 1584SOL    MW4 6391   2.233   3.987   2.770 -0.4261 -0.0238 -0.5610
 1585SOL     OW 6392   2.242   4.280   2.670  0.0891  0.2542  0.4034
 1585SOL    HW2 6393   2.247   4.186   2.688  0.5591  0.0626 -0.6901
 1585SOL    HW3 6394   2.161   4.308   2.711 -0.7149 -0.8922 -0.3747
 1585SOL    MW4 6395   2.232   4.271   2.678  0.0451  0.0777  0.1564
 1586SOL     OW 6396   2.477   4.400   2.782  0.0518 -0.3763 -0.0204
 1586SOL    HW2 6397   2.394   4.365   2.749 -1.6692  2.1148  1.4339
 1586SOL    HW3 6398   2.494   4.476   2.727  0.1189  0.5016  1.2057
 1586SOL    MW4 6399   2.468   4.405   2.770 -0.1664  0.0682  0.3331
 1587SOL     OW 6400   2.920   4.664   2.654  0.1197 -0.1952 -0.3169
 1587SOL    HW2 6401   3.011   4.690   2.671 -0.3952  0.6107  1.3196
 1587SOL    HW3 6402   2.913   4.661   2.559  1.5382  0.9271 -0.4715
 1587SOL    MW4 6403   2.931   4.667   2.644  0.2389  0.0596 -0.1216
 1588SOL     OW 6404   2.691   0.116   2.769  0.0767 -0.0354  0.5427
 1588SOL    HW2 6405   2.682   0.110   2.864 -1.2996  0.8651  0.4928
 1588SOL    HW3 6406   2.774   0.073   2.749  1.0760  1.0301  2.2986
 1588SOL    MW4 6407   2.701   0.109   2.779  0.0267  0.2240  0.7677
 1589SOL     OW 6408   2.733   0.354   2.620  0.2083  0.2567 -0.0613
 1589SOL    HW2 6409   2.725   0.282   2.683  0.0442  1.6817  1.5958
 1589SOL    HW3 6410   2.665   0.416   2.647  0.3159  1.0020 -1.4958
 1589SOL    MW4 6411   2.723   0.353   2.632  0.2010  0.5430 -0.0319
 1590SOL     OW 6412   2.937   0.486   2.747  0.3777 -0.4204 -0.2923
 1590SOL    HW2 6413   2.947   0.576   2.715 -1.3970  0.2473  1.0064
 1590SOL    HW3 6414   2.867   0.449   2.693  1.1556 -1.0713 -0.8755
 1590SOL    MW4 6415   2.929   0.493   2.735  0.2463 -0.4182 -0.1984
 1591SOL     OW 6416   2.964   0.755   2.626  0.0808  0.0544  0.1641
 1591SOL    HW2 6417   3.028   0.792   2.687  0.8186 -2.9551  1.3070
 1591SOL    HW3 6418   2.879   0.780   2.662  0.5344 -0.6177  1.7265
 1591SOL    MW4 6419   2.962   0.763   2.638  0.2379 -0.4313  0.5212
 1592SOL     OW 6420   2.741   0.891   2.756 -0.3541 -0.0721 -0.3539
 1592SOL    HW2 6421   2.735   0.900   2.851 -0.3241  2.1118 -0.5159
 1592SOL    HW3 6422   2.656   0.857   2.729 -0.7141  0.2530  0.3626
 1592SOL    MW4 6423   2.729   0.888   2.765 -0.3972  0.2590 -0.2809
 1593SOL     OW 6424   2.751   1.145   2.630  0.2185 -0.0157  0.0057
 1593SOL    HW2 6425   2.799   1.193   2.698  1.0690  0.7751 -1.1369
 1593SOL    HW3 6426   2.731   1.060   2.671  1.1687  0.2537  1.0666
 1593SOL    MW4 6427   2.755   1.140   2.645  0.4563  0.1242 -0.0050
 1594SOL     OW 6428   2.930   1.287   2.792  0.1188  0.0834 -0.1845
 1594SOL    HW2 6429   2.916   1.264   2.884 -0.8419  0.5538 -0.2030
 1594SOL    HW3 6430   2.998   1.227   2.762  0.2129 -0.2819  0.7525
 1594SOL    MW4 6431   2.937   1.276   2.800  0.0045  0.0972 -0.0634
 1595SOL     OW 6432   2.897   1.567   2.704  0.0461  0.6645  0.5127
 1595SOL    HW2 6433   2.829   1.620   2.747 -1.3450 -0.8231  0.1996
 1595SOL    HW3 6434   2.878   1.477   2.731  1.8729  0.2031  0.3620
 1595SOL    MW4 6435   2.886   1.562   2.714  0.1032  0.4075  0.4513
 1596SOL     OW 6436   2.651   1.685   2.793  0.0463  0.0068 -0.1118
 1596SOL    HW2 6437   2.642   1.672   2.887  0.1865  0.1905 -0.0736
 1596SOL    HW3 6438   2.595   1.618   2.754  0.7994 -0.7273  0.0812
 1596SOL    MW4 6439   2.642   1.675   2.800  0.1643 -0.0659 -0.0811
 1597SOL     OW 6440   2.678   1.921   2.642 -0.1483 -0.2638 -0.6424
 1597SOL    HW2 6441   2.675   1.837   2.686 -0.6514 -0.4655 -1.0581
 1597SOL    HW3 6442   2.609   1.972   2.683 -0.5574 -0.4212 -1.1352
 1597SOL    MW4 6443   2.669   1.917   2.653 -0.2687 -0.3111 -0.7622
 1598SOL     OW 6444   2.919   2.018   2.759 -0.0456  0.1139 -0.1529
 1598SOL    HW2 6445   2.918   2.111   2.737 -1.1026  0.0614 -0.3890
 1598SOL    HW3 6446   2.842   1.982   2.714  1.0412 -1.1107 -1.0695
 1598SOL    MW4 6447   2.909   2.025   2.751 -0.0417 -0.0546 -0.3052
 1599SOL     OW 6448   2.940   2.289   2.706  0.3760  0.1172 -0.0985
 1599SOL    HW2 6449   3.016   2.342   2.728  0.3575 -0.1852  0.6879
 1599SOL    HW3 6450   2.866   2.337   2.743  0.4972 -1.1805  1.9073
 1599SOL    MW4 6451   2.940   2.302   2.714  0.3896 -0.0939  0.2699
 1600SOL     OW 6452   2.723   2.450   2.787 -0.0732  0.0413  0.5167
 1600SOL    HW2 6453   2.736   2.444   2.882 -3.9495  0.1704  1.1123
 1600SOL    HW3 6454   2.718   2.544   2.769  1.9893  0.0628 -0.0534
 1600SOL    MW4 6455   2.724   2.462   2.797 -0.3126  0.0610  0.5202
 1601SOL     OW 6456   2.691   2.716   2.715  0.0922 -0.0793 -0.0720
 1601SOL    HW2 6457   2.767   2.771   2.735 -0.6848  1.2490 -0.6617
 1601SOL    HW3 6458   2.691   2.709   2.620 -0.5570 -0.0009 -0.0843
 1601SOL    MW4 6459   2.701   2.723   2.705 -0.0958  0.1061 -0.1516
 1602SOL     OW 6460   2.892   2.867   2.778  0.1332  0.1832 -0.2477
 1602SOL    HW2 6461   2.895   2.872   2.873  2.3156 -1.8006 -0.1593
 1602SOL    HW3 6462   2.913   2.956   2.748  0.7714  0.4984  1.1222
 1602SOL    MW4 6463   2.895   2.880   2.786  0.5054 -0.0372 -0.0553
 1603SOL     OW 6464   2.942   3.107   2.642  0.1565  0.3365  0.1174
 1603SOL    HW2 6465   2.868   3.165   2.659 -1.0225 -1.3963  1.0382
 1603SOL    HW3 6466   2.934   3.085   2.549 -1.6547 -1.3646  0.6327
 1603SOL    MW4 6467   2.931   3.111   2.632 -0.2377 -0.1166  0.3066
 1604SOL     OW 6468   2.708   3.224   2.715  0.1296  0.2552 -0.4982
 1604SOL    HW2 6469   2.690   3.312   2.680 -0.6477  0.8071  1.2464
 1604SOL    HW3 6470   2.629   3.174   2.695  0.0185  0.3432 -0.2876
 1604SOL    MW4 6471   2.695   3.229   2.708  0.0126  0.3395 -0.2406
 1605SOL     OW 6472   2.709   3.491   2.642  0.5361  0.5615  0.1241
 1605SOL    HW2 6473   2.623   3.516   2.677  0.3899  0.5487 -0.2301
 1605SOL    HW3 6474   2.703   3.509   2.548  1.1412  1.1548  0.2007
 1605SOL    MW4 6475   2.697   3.496   2.634  0.5965  0.6380  0.0875
 1606SOL     OW 6476   2.951   3.562   2.743  0.3612 -0.0067  0.3618
 1606SOL    HW2 6477   2.945   3.554   2.838  1.3637 -3.0254  0.2208
 1606SOL    HW3 6478   2.864   3.535   2.712  0.1665  0.5781  0.3932
 1606SOL    MW4 6479   2.938   3.557   2.751  0.4680 -0.3278  0.3474
 1607SOL     OW 6480   2.920   3.822   2.657  0.3693 -0.1981 -0.1217
 1607SOL    HW2 6481   2.992   3.868   2.701  0.0159  0.0774  0.1725
 1607SOL    HW3 6482   2.928   3.731   2.686  0.4303 -0.1110  0.1353
 1607SOL    MW4 6483   2.930   3.816   2.667  0.3309 -0.1507 -0.0491
 1608SOL     OW 6484   2.699   3.992   2.748  0.0592  0.0958  0.1605
 1608SOL    HW2 6485   2.723   4.076   2.709  0.9848 -0.9179 -1.5093
 1608SOL    HW3 6486   2.770   3.932   2.724 -0.7874 -1.2772  0.9606
 1608SOL    MW4 6487   2.712   3.995   2.740  0.0696 -0.2189  0.0458
 1609SOL     OW 6488   2.711   4.277   2.682  0.5337 -0.0361  0.5944
 1609SOL    HW2 6489   2.781   4.336   2.707 -0.0686 -0.0746  2.4124
 1609SOL    HW3 6490   2.632   4.314   2.722 -0.2694 -0.7058 -0.3237
 1609SOL    MW4 6491   2.710   4.290   2.690  0.3481 -0.1297  0.7133
 1610SOL     OW 6492   2.943   4.419   2.764 -0.0988  0.1157 -0.2358
 1610SOL    HW2 6493   2.940   4.425   2.860  1.1930  0.1938 -0.1843
 1610SOL    HW3 6494   2.934   4.509   2.734  0.6812  0.2352 -0.1343
 1610SOL    MW4 6495   2.942   4.432   2.773  0.1745  0.1421 -0.2158
 1611SOL     OW 6496   3.401   4.623   2.606 -0.5426  0.7252 -0.0821
 1611SOL    HW2 6497   3.390   4.542   2.658 -0.5089  0.4512 -0.5014
 1611SOL    HW3 6498   3.329   4.679   2.635 -1.3962  0.0189 -0.7788
 1611SOL    MW4 6499   3.390   4.619   2.617 -0.6506  0.5960 -0.2294
 1612SOL     OW 6500   3.168   0.102   2.736  0.4017 -0.0893 -0.2067
 1612SOL    HW2 6501   3.160   0.115   2.830  1.1826  0.1682 -0.1681
 1612SOL    HW3 6502   3.159   0.190   2.699 -0.0372 -0.2077 -0.3838
 1612SOL    MW4 6503   3.166   0.115   2.744  0.4468 -0.0709 -0.2251
 1613SOL     OW 6504   3.144   0.353   2.632 -0.1647  0.1808  0.3264
 1613SOL    HW2 6505   3.072   0.407   2.664  1.0034  0.8255  1.8726
 1613SOL    HW3 6506   3.141   0.363   2.537 -2.4122 -0.1853  0.3183
 1613SOL    MW4 6507   3.134   0.361   2.624 -0.3073  0.2176  0.5291
 1614SOL     OW 6508   3.380   0.463   2.689  0.1210  0.1182  0.5136
 1614SOL    HW2 6509   3.371   0.558   2.683  0.0181  0.0104 -1.0508
 1614SOL    HW3 6510   3.292   0.429   2.673  0.4241 -0.2996 -0.2751
 1614SOL    MW4 6511   3.367   0.471   2.686  0.1476  0.0488  0.2034
 1615SOL     OW 6512   3.357   0.765   2.674  0.1241  0.4731  0.0412
 1615SOL    HW2 6513   3.443   0.806   2.688  1.1487 -1.5498 -0.1465
 1615SOL    HW3 6514   3.339   0.778   2.581  0.9609 -0.4629 -0.2562
 1615SOL    MW4 6515   3.366   0.772   2.663  0.3695  0.0827 -0.0229
 1616SOL     OW 6516   3.138   0.893   2.773 -0.1000 -0.3616  0.1373
 1616SOL    HW2 6517   3.131   0.887   2.868 -1.5373 -1.5060 -0.0192
 1616SOL    HW3 6518   3.217   0.844   2.751 -0.1476 -0.6964  0.6976
 1616SOL    MW4 6519   3.147   0.886   2.782 -0.2959 -0.5568  0.1907
 1617SOL     OW 6520   3.145   1.151   2.678  0.4134  0.0201  0.1273
 1617SOL    HW2 6521   3.134   1.063   2.713  0.1077  0.3389  0.8383
 1617SOL    HW3 6522   3.160   1.138   2.584  1.5985 -0.8475  0.4379
 1617SOL    MW4 6523   3.145   1.138   2.670  0.5295 -0.0523  0.2620
 1618SOL     OW 6524   3.388   1.275   2.741  0.3908  0.0440 -0.0769
 1618SOL    HW2 6525   3.370   1.293   2.833  0.4309 -1.5009  0.2415
 1618SOL    HW3 6526   3.306   1.239   2.707  1.0634 -1.5218 -0.0699
 1618SOL    MW4 6527   3.375   1.272   2.748  0.4847 -0.3664 -0.0336
 1619SOL     OW 6528   3.384   1.561   2.669 -0.2138  0.6571  0.2471
 1619SOL    HW2 6529   3.303   1.595   2.705 -0.7787  0.4103 -0.7752
 1619SOL    HW3 6530   3.392   1.473   2.704 -1.2336  0.0741 -0.9267
 1619SOL    MW4 6531   3.375   1.554   2.678 -0.4227  0.5475 -0.0424
 1620SOL     OW 6532   3.161   1.664   2.774 -0.0047 -0.5186  0.0493
 1620SOL    HW2 6533   3.162   1.750   2.733  0.2863 -0.1190  0.8855
 1620SOL    HW3 6534   3.074   1.628   2.752 -1.0853  0.9950  1.7476
 1620SOL    MW4 6535   3.149   1.670   2.766 -0.1090 -0.2662  0.3836
 1621SOL     OW 6536   3.169   1.921   2.666 -0.0954  0.1850 -0.0308
 1621SOL    HW2 6537   3.250   1.971   2.670 -0.2134  0.6211 -2.3700
 1621SOL    HW3 6538   3.109   1.969   2.724  0.7667  0.8820  0.3067
 1621SOL    MW4 6539   3.172   1.934   2.674  0.0029  0.3346 -0.2949
 1622SOL     OW 6540   3.380   2.070   2.743  0.4753 -0.0430 -0.0869
 1622SOL    HW2 6541   3.382   2.062   2.839 -0.6635 -0.2447 -0.0726
 1622SOL    HW3 6542   3.358   2.162   2.727  0.0303 -0.1532 -0.1373
 1622SOL    MW4 6543   3.377   2.081   2.754  0.2663 -0.0844 -0.0918
 1623SOL     OW 6544   3.350   2.333   2.684 -0.0365 -0.5758 -0.3081
 1623SOL    HW2 6545   3.443   2.353   2.695 -0.1361  0.2298 -0.8750
 1623SOL    HW3 6546   3.338   2.326   2.589 -0.7551  0.3315 -0.2892
 1623SOL    MW4 6547   3.360   2.334   2.673 -0.1445 -0.3498 -0.3803
 1624SOL     OW 6548   3.144   2.473   2.800 -0.2502  0.0386  0.2031
 1624SOL    HW2 6549   3.132   2.554   2.751  1.1053 -0.1595 -0.4675
 1624SOL    HW3 6550   3.212   2.425   2.752 -0.3843 -1.0830  1.1056
 1624SOL    MW4 6551   3.151   2.477   2.787 -0.0889 -0.1352  0.2339
 1625SOL     OW 6552   3.115   2.725   2.661  0.1545 -0.1383  0.3026
 1625SOL    HW2 6553   3.192   2.762   2.706 -0.1458 -0.1852  0.8548
 1625SOL    HW3 6554   3.040   2.761   2.708 -0.1525 -0.7271  0.2648
 1625SOL    MW4 6555   3.116   2.734   2.673  0.0746 -0.2220  0.3705
 1626SOL     OW 6556   3.350   2.820   2.765  0.4828 -0.2119 -0.0919
 1626SOL    HW2 6557   3.353   2.827   2.860  1.7671  1.9090 -0.2536
 1626SOL    HW3 6558   3.431   2.776   2.741 -1.0130 -3.1010 -0.0752
 1626SOL    MW4 6559   3.361   2.815   2.774  0.4549 -0.3135 -0.1113
 1627SOL     OW 6560   3.389   3.074   2.657 -0.1759 -0.2047  0.1300
 1627SOL    HW2 6561   3.386   2.982   2.682 -1.2255 -0.1750  0.1129
 1627SOL    HW3 6562   3.383   3.074   2.562  0.2125 -0.1344  0.1035
 1627SOL    MW4 6563   3.388   3.062   2.648 -0.2630 -0.1917  0.1240
 1628SOL     OW 6564   3.159   3.220   2.748  0.6277  0.1526 -0.4663
 1628SOL    HW2 6565   3.233   3.164   2.725 -0.1929 -0.7998 -0.8250
 1628SOL    HW3 6566   3.085   3.184   2.700 -0.1220  0.9643  0.0515
 1628SOL    MW4 6567   3.159   3.208   2.739  0.4203  0.1340 -0.4454
 1629SOL     OW 6568   3.187   3.475   2.639  0.5960  0.0102 -0.6196
 1629SOL    HW2 6569   3.196   3.384   2.667  1.1632  0.3711  0.4266
 1629SOL    HW3 6570   3.105   3.504   2.679  1.0739  0.3341  0.1348
 1629SOL    MW4 6571   3.177   3.467   2.648  0.7341  0.1004 -0.3822
 1630SOL     OW 6572   3.377   3.614   2.757 -0.0559 -0.3503 -0.3129
 1630SOL    HW2 6573   3.364   3.606   2.851  0.0079 -0.0661 -0.2773
 1630SOL    HW3 6574   3.303   3.568   2.718  0.0441 -0.6661 -0.1248
 1630SOL    MW4 6575   3.366   3.607   2.764 -0.0343 -0.3545 -0.2835
 1631SOL     OW 6576   3.384   3.860   2.666 -0.3044 -0.4756 -0.2536
 1631SOL    HW2 6577   3.387   3.773   2.705  1.0901 -0.1989  0.2988
 1631SOL    HW3 6578   3.385   3.844   2.572  1.0232 -1.0594 -0.1616
 1631SOL    MW4 6579   3.385   3.847   2.659  0.0548 -0.5162 -0.1683
 1632SOL     OW 6580   3.132   3.974   2.743  0.0676 -0.4752  0.7602
 1632SOL    HW2 6581   3.136   4.061   2.702  0.0971 -0.5947  0.5104
 1632SOL    HW3 6582   3.212   3.930   2.715 -0.3879 -0.9148  0.1348
 1632SOL    MW4 6583   3.143   3.980   2.734  0.0112 -0.5491  0.6444
 1633SOL     OW 6584   3.103   4.220   2.638 -0.1057  0.3512  0.2746
 1633SOL    HW2 6585   3.044   4.284   2.677 -0.0100  0.3768  0.3780
 1633SOL    HW3 6586   3.099   4.238   2.544 -1.8093 -0.9605  0.0832
 1633SOL    MW4 6587   3.095   4.231   2.631 -0.3178  0.1817  0.2632
 1634SOL     OW 6588   3.346   4.384   2.737  0.0936 -0.4535  0.0546
 1634SOL    HW2 6589   3.341   4.380   2.832 -0.6866  0.5917  0.0642
 1634SOL    HW3 6590   3.273   4.330   2.707  0.5209 -1.0254  0.0503
 1634SOL    MW4 6591   3.335   4.376   2.746  0.0467 -0.3910  0.0553
 1635SOL     OW 6592   3.861   0.007   2.647  0.3168 -0.2620 -0.6405
 1635SOL    HW2 6593   3.860  -0.085   2.674 -1.5870 -0.1571 -0.3495
 1635SOL    HW3 6594   3.793   0.049   2.699  0.6741  1.1824 -1.3054
 1635SOL    MW4 6595   3.852   0.001   2.657  0.1130 -0.0576 -0.6897
 1636SOL     OW 6596   3.592   0.110   2.703  0.3235 -0.3565 -0.7094
 1636SOL    HW2 6597   3.595   0.179   2.637 -1.1779  0.5145  0.1323
 1636SOL    HW3 6598   3.519   0.054   2.677 -0.7675  0.4290  0.6498
 1636SOL    MW4 6599   3.583   0.111   2.691 -0.0184 -0.1380 -0.4189
 1637SOL     OW 6600   3.608   0.364   2.578  0.0260  0.2809  0.5018
 1637SOL    HW2 6601   3.677   0.417   2.617 -0.1239 -0.9577  2.5094
 1637SOL    HW3 6602   3.527   0.401   2.614 -0.2687  0.6753 -0.5514
 1637SOL    MW4 6603   3.606   0.376   2.588 -0.0327  0.1695  0.6275
 1638SOL     OW 6604   3.821   0.523   2.691  0.1463  0.0231 -0.2196
 1638SOL    HW2 6605   3.812   0.550   2.782 -0.4040 -1.4287  0.1747
 1638SOL    HW3 6606   3.889   0.456   2.692  0.2935  0.1548 -0.9046
 1638SOL    MW4 6607   3.829   0.518   2.703  0.0930 -0.1511 -0.2580
 1639SOL     OW 6608   3.843   0.794   2.622  0.5144  0.0240  0.0868
 1639SOL    HW2 6609   3.764   0.832   2.660  0.4109 -1.2110  1.1450
 1639SOL    HW3 6610   3.841   0.702   2.650  1.5784 -0.3649 -1.0798
 1639SOL    MW4 6611   3.832   0.787   2.631  0.6411 -0.1903  0.0727
 1640SOL     OW 6612   3.616   0.881   2.746  0.2127 -0.1379 -0.0034
 1640SOL    HW2 6613   3.597   0.885   2.839 -0.6657  0.8652 -0.2067
 1640SOL    HW3 6614   3.616   0.973   2.717  0.4156 -0.4361 -0.9930
 1640SOL    MW4 6615   3.613   0.894   2.754  0.1235 -0.0449 -0.1607
 1641SOL     OW 6616   3.605   1.136   2.636  0.0524  0.2857  0.2043
 1641SOL    HW2 6617   3.679   1.183   2.674  0.2890  0.3967 -0.3918
 1641SOL    HW3 6618   3.527   1.181   2.671  0.2518 -0.6647  1.8806
 1641SOL    MW4 6619   3.604   1.148   2.645  0.1099  0.1749  0.3469
 1642SOL     OW 6620   3.844   1.272   2.739 -0.3300 -0.3248 -0.0248
 1642SOL    HW2 6621   3.924   1.245   2.695 -0.8612 -0.7712 -0.7385
 1642SOL    HW3 6622   3.829   1.362   2.710  0.1375 -0.0934  0.4446
 1642SOL    MW4 6623   3.852   1.280   2.729 -0.3386 -0.3532 -0.0570
 1643SOL     OW 6624   3.806   1.511   2.625  0.0286  0.0332 -0.4846
 1643SOL    HW2 6625   3.882   1.553   2.665  0.2611  0.2197 -1.1250
 1643SOL    HW3 6626   3.731   1.561   2.658  0.2905  0.8119 -1.0699
 1643SOL    MW4 6627   3.806   1.523   2.635  0.0937  0.1607 -0.6466
 1644SOL     OW 6628   3.622   1.668   2.762  0.8171 -0.1528  0.2094
 1644SOL    HW2 6629   3.627   1.749   2.712 -0.8099 -0.9238 -1.2807
 1644SOL    HW3 6630   3.534   1.634   2.743  1.4872 -2.2780  0.7768
 1644SOL    MW4 6631   3.611   1.674   2.753  0.6909 -0.5349  0.0877
 1645SOL     OW 6632   3.611   1.925   2.644  0.2795 -0.2866  0.3349
 1645SOL    HW2 6633   3.535   1.976   2.671  0.5973  0.1603  0.3877
 1645SOL    HW3 6634   3.612   1.932   2.548 -1.8773 -3.3292  0.0136
 1645SOL    MW4 6635   3.601   1.933   2.635  0.0370 -0.6291  0.2995
 1646SOL     OW 6636   3.823   2.090   2.738 -0.2033  0.1130  0.2320
 1646SOL    HW2 6637   3.905   2.046   2.714 -0.0077  0.1634  0.8010
 1646SOL    HW3 6638   3.755   2.028   2.714  0.1205 -0.9372  1.9783
 1646SOL    MW4 6639   3.825   2.076   2.732 -0.1345 -0.0188  0.5376
 1647SOL     OW 6640   3.865   2.343   2.667  0.5555 -0.3925 -0.0195
 1647SOL    HW2 6641   3.848   2.253   2.695  0.0592 -0.5264 -0.7434
 1647SOL    HW3 6642   3.840   2.345   2.574  1.9127  0.1218 -0.3882
 1647SOL    MW4 6643   3.859   2.331   2.658  0.6692 -0.3424 -0.1636
 1648SOL     OW 6644   3.614   2.434   2.742  0.0949  0.2708 -0.0707
 1648SOL    HW2 6645   3.621   2.458   2.835  0.8513  2.4947 -0.6782
 1648SOL    HW3 6646   3.701   2.402   2.719 -0.3730 -1.2778  0.2210
 1648SOL    MW4 6647   3.626   2.433   2.751  0.1330  0.3598 -0.1125
 1649SOL     OW 6648   3.586   2.707   2.660  0.2045  0.3614  0.2805
 1649SOL    HW2 6649   3.606   2.615   2.679  1.5658  0.4918 -0.4812
 1649SOL    HW3 6650   3.586   2.712   2.564 -0.8589  0.9487  0.3081
 1649SOL    MW4 6651   3.589   2.696   2.650  0.2437  0.4561  0.1838
 1650SOL     OW 6652   3.810   2.823   2.766  0.1801 -0.2035 -0.6630
 1650SOL    HW2 6653   3.884   2.770   2.735 -0.0400 -1.9921  1.7034
 1650SOL    HW3 6654   3.734   2.784   2.723  0.0609 -1.6064  0.7874
 1650SOL    MW4 6655   3.810   2.811   2.756  0.1352 -0.6247 -0.1593
 1651SOL     OW 6656   3.842   3.083   2.659  0.1976  0.0425  0.0535
 1651SOL    HW2 6657   3.773   3.133   2.705  0.0139  0.4327 -0.6373
 1651SOL    HW3 6658   3.844   2.999   2.704  0.9486  0.8879  1.6548
 1651SOL    MW4 6659   3.833   3.079   2.671  0.2723  0.2055  0.1736
 1652SOL     OW 6660   3.610   3.207   2.755 -0.2010  0.4131 -0.3546
 1652SOL    HW2 6661   3.612   3.295   2.717  2.9006 -0.0530 -1.3606
 1652SOL    HW3 6662   3.541   3.162   2.705 -2.4868  2.5107  0.8255
 1652SOL    MW4 6663   3.601   3.213   2.743 -0.0932  0.6282 -0.3319
 1653SOL     OW 6664   3.584   3.481   2.657 -0.2801  0.9088 -0.1174
 1653SOL    HW2 6665   3.667   3.517   2.688 -0.9025  1.1870  1.2489
 1653SOL    HW3 6666   3.517   3.529   2.707 -1.1981 -0.5456  0.0580
 1653SOL    MW4 6667   3.586   3.492   2.667 -0.4835  0.7536  0.0861
 1654SOL     OW 6668   3.807   3.619   2.757 -0.6170  0.0847 -0.1521
 1654SOL    HW2 6669   3.894   3.595   2.727  0.7836  1.5563  2.5703
 1654SOL    HW3 6670   3.796   3.709   2.727 -0.6743  0.3176  0.5477
 1654SOL    MW4 6671   3.817   3.628   2.749 -0.4396  0.3095  0.2995
 1655SOL     OW 6672   3.793   3.885   2.647 -0.2729  0.0268  0.3289
 1655SOL    HW2 6673   3.870   3.938   2.669  1.0218 -1.6343 -0.0933
 1655SOL    HW3 6674   3.719   3.934   2.682  0.9086  2.0561  0.0453
 1655SOL    MW4 6675   3.794   3.898   2.655  0.0539  0.0756  0.2356
 1656SOL     OW 6676   3.584   4.021   2.764  0.3902 -0.2483 -0.2191
 1656SOL    HW2 6677   3.559   4.111   2.741  1.1723 -0.1251 -0.6023
 1656SOL    HW3 6678   3.510   3.968   2.734 -0.3265  0.3155  0.5025
 1656SOL    MW4 6679   3.571   4.026   2.757  0.3989 -0.1574 -0.1745
 1657SOL     OW 6680   3.622   4.300   2.663  0.6718 -0.6183 -0.3382
 1657SOL    HW2 6681   3.546   4.339   2.706  1.0382 -0.0910 -0.1661
 1657SOL    HW3 6682   3.596   4.292   2.571  0.0746 -1.2805 -0.1195
 1657SOL    MW4 6683   3.608   4.304   2.657  0.6413 -0.6361 -0.2863
 1658SOL     OW 6684   3.863   4.412   2.746  0.0543 -0.4047  0.4894
 1658SOL    HW2 6685   3.947   4.375   2.716  0.5190 -0.1764  1.4852
 1658SOL    HW3 6686   3.798   4.374   2.687  0.9251 -0.1461 -0.6603
 1658SOL    MW4 6687   3.866   4.402   2.734  0.2306 -0.3409  0.4692
 1659SOL     OW 6688   4.331   4.623   2.642 -0.3725 -0.3276  0.1715
 1659SOL    HW2 6689   4.268   4.678   2.689 -0.4606 -0.9030  0.7392
 1659SOL    HW3 6690   4.414   4.640   2.686 -0.6244 -1.5806  1.1821
 1659SOL    MW4 6691   4.333   4.632   2.654 -0.4177 -0.5688  0.3796
 1660SOL     OW 6692   4.091   0.096   2.755  0.1944  0.0920 -0.1744
 1660SOL    HW2 6693   4.075   0.113   2.848 -1.0608  1.2587 -0.5964
 1660SOL    HW3 6694   4.010   0.057   2.723  0.7112 -0.5341 -0.7335
 1660SOL    MW4 6695   4.078   0.093   2.763  0.0968  0.1633 -0.3040
 1661SOL     OW 6696   4.024   0.344   2.639 -0.0636 -0.2806 -0.2578
 1661SOL    HW2 6697   4.048   0.258   2.673 -0.6552 -0.6327 -0.7095
 1661SOL    HW3 6698   4.022   0.332   2.544  1.1583  0.5776 -0.4088
 1661SOL    MW4 6699   4.027   0.331   2.631  0.0200 -0.2138 -0.3376
 1662SOL     OW 6700   4.259   0.489   2.748  0.4237 -0.4110  0.6223
 1662SOL    HW2 6701   4.181   0.443   2.717  0.1956 -1.5897  2.8188
 1662SOL    HW3 6702   4.332   0.435   2.718  0.3670  0.3262 -0.8491
 1662SOL    MW4 6703   4.259   0.476   2.740  0.3862 -0.4692  0.7181
 1663SOL     OW 6704   4.277   0.746   2.647 -0.2552 -0.0158 -0.6523
 1663SOL    HW2 6705   4.283   0.659   2.686 -2.4432 -0.6913 -1.7140
 1663SOL    HW3 6706   4.276   0.730   2.553 -2.0337  1.0261 -0.8472
 1663SOL    MW4 6707   4.278   0.733   2.640 -0.7782  0.0325 -0.8183
 1664SOL     OW 6708   4.070   0.895   2.746  0.5047 -0.2690  0.4162
 1664SOL    HW2 6709   4.143   0.851   2.702  0.5345 -0.1379  0.3328
 1664SOL    HW3 6710   3.991   0.857   2.706  0.5074 -1.1500  1.2282
 1664SOL    MW4 6711   4.069   0.884   2.734  0.5088 -0.3679  0.5124
 1665SOL     OW 6712   4.068   1.181   2.632  0.2379  0.4912  0.1058
 1665SOL    HW2 6713   4.143   1.230   2.665 -0.2631  0.9059  0.6277
 1665SOL    HW3 6714   4.082   1.092   2.664  0.8356  0.4227 -0.3380
 1665SOL    MW4 6715   4.079   1.176   2.641  0.2503  0.5369  0.1163
 1666SOL     OW 6716   4.293   1.309   2.745 -0.5573 -0.5005 -0.1513
 1666SOL    HW2 6717   4.286   1.392   2.697  0.4991 -0.8271 -0.8743
 1666SOL    HW3 6718   4.354   1.257   2.694 -1.4384 -1.8459  0.1504
 1666SOL    MW4 6719   4.300   1.313   2.732 -0.5341 -0.7211 -0.2069
 1667SOL     OW 6720   4.277   1.563   2.622 -0.3821 -0.1540  0.4053
 1667SOL    HW2 6721   4.353   1.617   2.644 -0.9382  1.4247 -1.4627
 1667SOL    HW3 6722   4.279   1.555   2.527 -2.2772 -0.5297  0.3682
 1667SOL    MW4 6723   4.287   1.569   2.612 -0.7057  0.0049  0.1540
 1668SOL     OW 6724   4.035   1.650   2.721  0.0487  0.1107  0.4520
 1668SOL    HW2 6725   4.047   1.661   2.815  1.1782  0.7313  0.2482
 1668SOL    HW3 6726   4.122   1.625   2.689 -0.4269 -0.5189 -0.3675
 1668SOL    MW4 6727   4.048   1.648   2.729  0.1349  0.1097  0.3169
 1669SOL     OW 6728   4.047   1.933   2.656  0.1999 -0.0357  0.1100
 1669SOL    HW2 6729   4.118   1.965   2.711  0.5148 -0.2093 -0.1938
 1669SOL    HW3 6730   4.042   1.839   2.677  0.7181 -0.2245 -0.5914
 1669SOL    MW4 6731   4.056   1.925   2.666  0.3099 -0.0836 -0.0226
 1670SOL     OW 6732   4.234   2.059   2.801  0.1894 -0.1147  0.2635
 1670SOL    HW2 6733   4.211   2.147   2.770 -0.4647 -0.5694 -0.5530
 1670SOL    HW3 6734   4.310   2.034   2.749 -0.0605 -0.3210 -0.0032
 1670SOL    MW4 6735   4.241   2.068   2.790  0.0706 -0.2022  0.1204
 1671SOL     OW 6736   4.270   2.300   2.657  0.0700 -0.0328 -0.2930
 1671SOL    HW2 6737   4.213   2.371   2.687  1.8959  0.6276  1.7014
 1671SOL    HW3 6738   4.270   2.308   2.562 -1.2613  1.4310 -0.1916
 1671SOL    MW4 6739   4.263   2.310   2.649  0.1349  0.2472 -0.0162
 1672SOL     OW 6740   4.074   2.479   2.757  0.1785 -0.3465 -0.4589
 1672SOL    HW2 6741   4.080   2.471   2.853  0.3438  0.5883 -0.3903
 1672SOL    HW3 6742   3.996   2.427   2.734  0.4379 -1.0045  0.1221
 1672SOL    MW4 6743   4.064   2.471   2.767  0.2341 -0.3097 -0.3731
 1673SOL     OW 6744   4.064   2.728   2.673  0.3401  0.3684  0.4272
 1673SOL    HW2 6745   4.145   2.762   2.712  1.8978 -1.3349 -1.2151
 1673SOL    HW3 6746   4.059   2.638   2.703 -0.4144  0.1660 -0.3073
 1673SOL    MW4 6747   4.074   2.721   2.682  0.4458  0.1168  0.1135
 1674SOL     OW 6748   4.294   2.829   2.783 -0.5031 -0.4163  0.0281
 1674SOL    HW2 6749   4.283   2.848   2.876  0.2681  0.0067  0.0347
 1674SOL    HW3 6750   4.270   2.910   2.738 -0.7525 -0.5791 -0.1310
 1674SOL    MW4 6751   4.289   2.842   2.789 -0.4344 -0.3822  0.0079
 1675SOL     OW 6752   4.256   3.063   2.645 -0.2408 -0.5994 -0.1875
 1675SOL    HW2 6753   4.186   3.111   2.689 -1.0648 -0.8249 -1.2186
 1675SOL    HW3 6754   4.236   3.071   2.552  1.8245  0.3915 -0.5650
 1675SOL    MW4 6755   4.244   3.070   2.639 -0.0768 -0.4985 -0.3731
 1676SOL     OW 6756   4.073   3.211   2.767  0.1953  0.4278  0.0467
 1676SOL    HW2 6757   4.065   3.304   2.748 -0.6214  0.5614  0.9904
 1676SOL    HW3 6758   4.002   3.170   2.717  0.1920  0.3800  0.0906
 1676SOL    MW4 6759   4.063   3.218   2.758  0.0873  0.4389  0.1769
 1677SOL     OW 6760   4.037   3.486   2.703  0.0011  0.3066  0.0876
 1677SOL    HW2 6761   4.115   3.540   2.717  0.6497 -0.1618 -1.5287
 1677SOL    HW3 6762   4.030   3.480   2.607 -0.8007 -1.3900  0.2481
 1677SOL    MW4 6763   4.046   3.492   2.692 -0.0191  0.0207 -0.1047
 1678SOL     OW 6764   4.275   3.616   2.738  0.1706  0.4931 -0.1109
 1678SOL    HW2 6765   4.284   3.597   2.832  0.8582  0.0093 -0.2727
 1678SOL    HW3 6766   4.341   3.561   2.696 -0.4714  0.3413 -0.9250
 1678SOL    MW4 6767   4.285   3.607   2.745  0.1764  0.4094 -0.2398
 1679SOL     OW 6768   4.272   3.877   2.641  0.3011  0.4667  0.1092
 1679SOL    HW2 6769   4.271   3.791   2.683 -0.6391  1.1091  1.4150
 1679SOL    HW3 6770   4.350   3.920   2.676  0.8702  0.0830 -0.6806
 1679SOL    MW4 6771   4.282   3.871   2.651  0.2527  0.5012  0.1774
 1680SOL     OW 6772   4.050   4.028   2.710 -0.4100 -0.0888  0.3285
 1680SOL    HW2 6773   4.060   4.019   2.805  0.8990  0.6320  0.2696
 1680SOL    HW3 6774   4.124   3.979   2.674  0.1695  1.2035 -0.2657
 1680SOL    MW4 6775   4.061   4.020   2.718 -0.1612  0.1769  0.2425
 1681SOL     OW 6776   4.088   4.288   2.631 -0.4784  0.4167 -0.0268
 1681SOL    HW2 6777   4.070   4.199   2.660  1.4235 -0.4154 -1.2957
 1681SOL    HW3 6778   4.090   4.283   2.535  1.7529  1.3566 -0.0731
 1681SOL    MW4 6779   4.086   4.276   2.622  0.0668  0.4311 -0.2003
 1682SOL     OW 6780   4.294   4.386   2.771 -0.1533 -0.3334  0.3583
 1682SOL    HW2 6781   4.224   4.354   2.714  1.0435 -1.7912 -0.3479
 1682SOL    HW3 6782   4.311   4.475   2.741  0.3625 -1.0326 -1.5044
 1682SOL    MW4 6783   4.287   4.393   2.759  0.0725 -0.6189  0.0196
 1683SOL     OW 6784   0.248   4.659   3.127  0.1649  0.1348  0.5361
 1683SOL    HW2 6785   0.236   4.679   3.220 -1.8956 -1.5433  0.6643
 1683SOL    HW3 6786   0.176   4.704   3.083  0.6449  0.2343 -0.1555
 1683SOL    MW4 6787   0.237   4.667   3.134 -0.0436 -0.0735  0.4616
 1684SOL     OW 6788   4.487   0.073   3.034  0.7133 -0.0561  0.3391
 1684SOL    HW2 6789   4.400   0.034   3.040  0.5219  0.2338 -0.4852
 1684SOL    HW3 6790   4.476   0.162   3.066  0.9290 -0.3412  1.2194
 1684SOL    MW4 6791   4.474   0.080   3.039  0.7162 -0.0554  0.3467
 1685SOL     OW 6792   0.007   0.341   3.138 -0.5103 -1.0043 -0.1597
 1685SOL    HW2 6793   0.014   0.363   3.231 -1.2767 -0.7056 -0.1734
 1685SOL    HW3 6794  -0.066   0.392   3.106 -0.1614 -0.9999 -0.9704
 1685SOL    MW4 6795  -0.001   0.350   3.146 -0.5651 -0.9643 -0.2682
 1686SOL     OW 6796   0.215   0.506   3.040 -0.1265 -0.3451 -0.1024
 1686SOL    HW2 6797   0.290   0.455   3.068 -0.0802  0.6409  1.5774
 1686SOL    HW3 6798   0.139   0.450   3.059  0.0269 -0.4097  0.3139
 1686SOL    MW4 6799   0.215   0.492   3.046 -0.1002 -0.2235  0.1743
 1687SOL     OW 6800   0.215   0.775   3.099  0.0344 -0.3258 -0.1567
 1687SOL    HW2 6801   0.227   0.779   3.194  0.0058 -0.7354 -0.1366
 1687SOL    HW3 6802   0.216   0.682   3.078 -0.8796 -0.2706 -0.4441
 1687SOL    MW4 6803   0.217   0.763   3.109 -0.0899 -0.3726 -0.1919
 1688SOL     OW 6804   4.466   0.900   3.041 -0.1395 -0.1957  0.1067
 1688SOL    HW2 6805   4.551   0.859   3.054  0.2863  0.4631 -0.5596
 1688SOL    HW3 6806   4.467   0.929   2.950 -1.1601 -0.3800  0.0292
 1688SOL    MW4 6807   4.477   0.898   3.031 -0.2179 -0.1331  0.0086
 1689SOL     OW 6808   0.030   1.168   3.117  0.0897 -0.3566 -0.6449
 1689SOL    HW2 6809  -0.039   1.226   3.085 -0.7390 -2.1774 -2.2321
 1689SOL    HW3 6810  -0.002   1.080   3.098  0.9737 -1.4115  2.4427
 1689SOL    MW4 6811   0.017   1.164   3.110  0.0968 -0.7360 -0.4470
 1690SOL     OW 6812   0.266   1.236   2.984  0.0566 -0.3886 -0.4406
 1690SOL    HW2 6813   0.181   1.209   3.019  0.0167 -0.2812 -0.4543
 1690SOL    HW3 6814   0.249   1.250   2.890 -0.2850  1.1604 -0.1665
 1690SOL    MW4 6815   0.253   1.234   2.976  0.0062 -0.1700 -0.4065
 1691SOL     OW 6816   0.181   1.494   3.081  0.3701 -0.2814  0.1485
 1691SOL    HW2 6817   0.100   1.530   3.047  1.4576  0.4964 -1.6615
 1691SOL    HW3 6818   0.193   1.412   3.034  0.6170 -0.4187  0.4445
 1691SOL    MW4 6819   0.172   1.488   3.070  0.5462 -0.1969 -0.0510
 1692SOL     OW 6820   4.453   1.671   2.972 -0.3201  0.1190 -0.1601
 1692SOL    HW2 6821   4.380   1.639   3.024  0.6021 -0.3314  0.8780
 1692SOL    HW3 6822   4.477   1.755   3.012  0.3173 -0.1755  0.0894
 1692SOL    MW4 6823   4.447   1.678   2.984 -0.1144  0.0207  0.0100
 1693SOL     OW 6824   0.020   1.904   3.109  0.1591 -0.4402 -0.0599
 1693SOL    HW2 6825  -0.042   1.974   3.090  0.6160 -0.1151 -0.3643
 1693SOL    HW3 6826   0.106   1.945   3.101  0.3895 -0.0524  3.5392
 1693SOL    MW4 6827   0.023   1.919   3.105  0.2499 -0.3462  0.3748
 1694SOL     OW 6828   0.219   2.082   2.960  0.2211  0.3138 -0.2051
 1694SOL    HW2 6829   0.220   2.172   2.993 -2.3335  0.8405 -1.4677
 1694SOL    HW3 6830   0.221   2.092   2.865  0.1077 -0.9927 -0.3456
 1694SOL    MW4 6831   0.220   2.095   2.952 -0.1309  0.2112 -0.3905
 1695SOL     OW 6832   0.199   2.329   3.082 -0.0202  0.5341  0.6299
 1695SOL    HW2 6833   0.204   2.309   3.175 -0.6481 -0.9426  0.3579
 1695SOL    HW3 6834   0.276   2.384   3.065  0.4224  0.3241  1.8870
 1695SOL    MW4 6835   0.210   2.334   3.092 -0.0447  0.3119  0.7598
 1696SOL     OW 6836   4.463   2.458   2.992  0.0666  0.5209 -0.1130
 1696SOL    HW2 6837   4.475   2.546   3.028  1.6546 -0.2645  1.3570
 1696SOL    HW3 6838   4.543   2.411   3.016 -0.7774 -1.3463 -0.8478
 1696SOL    MW4 6839   4.475   2.463   3.000  0.1650  0.1707 -0.0162
 1697SOL     OW 6840   4.490   2.716   3.155  0.5642 -0.0107  0.0197
 1697SOL    HW2 6841   4.478   2.738   3.247  2.4196  1.3521 -0.0221
 1697SOL    HW3 6842   4.570   2.762   3.130  0.5306 -1.0237 -2.0623
 1697SOL    MW4 6843   4.499   2.725   3.164  0.8049  0.0358 -0.2606
 1698SOL     OW 6844   0.217   2.831   3.043  0.2975  0.3460  0.0106
 1698SOL    HW2 6845   0.300   2.790   3.066  0.3985  0.0705 -0.8463
 1698SOL    HW3 6846   0.220   2.841   2.948 -0.9269 -0.2516 -0.0973
 1698SOL    MW4 6847   0.228   2.827   3.033  0.1493  0.2308 -0.1171
 1699SOL     OW 6848   0.248   3.101   3.155 -0.0892 -0.3755 -0.1120
 1699SOL    HW2 6849   0.169   3.133   3.112  0.3816  0.2972 -0.4953
 1699SOL    HW3 6850   0.262   3.014   3.119 -0.7087 -0.5395  0.0340
 1699SOL    MW4 6851   0.240   3.094   3.145 -0.1088 -0.3085 -0.1435
 1700SOL     OW 6852   0.012   3.245   3.039 -0.2585  0.0144  0.4325
 1700SOL    HW2 6853  -0.064   3.227   3.095 -0.1521  2.6588  1.4908
 1700SOL    HW3 6854  -0.014   3.215   2.952 -1.4340 -1.6824  1.3355
 1700SOL    MW4 6855  -0.001   3.239   3.035 -0.4001  0.1392  0.6914
 1701SOL     OW 6856   0.000   3.507   3.137 -0.7360 -0.2784  0.3208
 1701SOL    HW2 6857  -0.076   3.547   3.095  0.2389  0.7725 -0.4874
 1701SOL    HW3 6858   0.011   3.423   3.093 -0.8986 -0.0398 -0.1720
 1701SOL    MW4 6859  -0.009   3.501   3.126 -0.6289 -0.1085  0.1490
 1702SOL     OW 6860   0.236   3.610   3.009  0.1304  0.5465 -0.2796
 1702SOL    HW2 6861   0.234   3.702   3.035 -0.5626  0.8007 -1.2174
 1702SOL    HW3 6862   0.159   3.572   3.050  0.5279  0.3364  0.2753
 1702SOL    MW4 6863   0.226   3.617   3.018  0.0914  0.5524 -0.3302
 1703SOL     OW 6864   0.254   3.866   3.105  0.1383  0.1240  0.1017
 1703SOL    HW2 6865   0.261   3.864   3.201 -0.4512 -2.0539  0.1274
 1703SOL    HW3 6866   0.328   3.919   3.077  0.7854  0.1215  1.7257
 1703SOL    MW4 6867   0.264   3.872   3.114  0.1459 -0.1633  0.3195
 1704SOL     OW 6868   0.009   4.009   3.012 -0.0260 -0.2818 -0.4839
 1704SOL    HW2 6869   0.095   3.985   3.047  0.2098  0.2452 -0.6967
 1704SOL    HW3 6870   0.019   4.002   2.917 -0.0434  0.3624 -0.5331
 1704SOL    MW4 6871   0.022   4.005   3.004  0.0028 -0.1278 -0.5186
 1705SOL     OW 6872   0.004   4.262   3.135 -0.3184  0.0132 -0.0405
 1705SOL    HW2 6873   0.014   4.235   3.227  0.8989  0.1414 -0.1284
 1705SOL    HW3 6874  -0.007   4.179   3.088 -1.7130 -0.0174  0.2898
 1705SOL    MW4 6875   0.004   4.247   3.141 -0.3418  0.0262 -0.0086
 1706SOL     OW 6876   0.234   4.388   3.030 -0.0722 -0.5427  0.0715
 1706SOL    HW2 6877   0.155   4.344   3.061 -0.9030  0.7754 -0.1362
 1706SOL    HW3 6878   0.242   4.465   3.086  0.4502 -0.0850 -0.6205
 1706SOL    MW4 6879   0.224   4.393   3.041 -0.1129 -0.3085 -0.0472
 1707SOL     OW 6880   0.654   4.639   3.123 -0.0376 -0.0119  0.3727
 1707SOL    HW2 6881   0.656   4.551   3.084  0.3797  0.6602 -1.1690
 1707SOL    HW3 6882   0.580   4.682   3.080  0.5067  0.7927  0.2346
 1707SOL    MW4 6883   0.644   4.633   3.112  0.0893  0.1831  0.1512
 1708SOL     OW 6884   0.462   0.115   3.004  0.0090  0.0269 -0.0671
 1708SOL    HW2 6885   0.458   0.201   3.047  1.6094  0.0590  0.0409
 1708SOL    HW3 6886   0.387   0.067   3.039 -1.2807  1.5974 -0.6110
 1708SOL    MW4 6887   0.452   0.120   3.014  0.0499  0.2383 -0.1247
 1709SOL     OW 6888   0.439   0.358   3.134 -0.4535  0.1120 -0.7109
 1709SOL    HW2 6889   0.431   0.378   3.228  1.1671 -0.9063 -0.3362
 1709SOL    HW3 6890   0.519   0.403   3.107  0.4955 -1.7061 -1.0033
 1709SOL    MW4 6891   0.449   0.367   3.143 -0.1145 -0.2622 -0.7002
 1710SOL     OW 6892   0.661   0.463   3.009  0.0031  0.0449 -0.2040
 1710SOL    HW2 6893   0.739   0.416   3.038 -0.7001 -1.5580 -0.8812
 1710SOL    HW3 6894   0.678   0.554   3.034  2.7774 -0.0068 -1.7163
 1710SOL    MW4 6895   0.674   0.469   3.016  0.2764 -0.1734 -0.4928
 1711SOL     OW 6896   0.723   0.734   3.081 -0.1574  0.2342  0.0537
 1711SOL    HW2 6897   0.719   0.740   3.176 -1.8106  0.2575  0.0053
 1711SOL    HW3 6898   0.640   0.772   3.051 -0.1497 -0.7875 -1.3389
 1711SOL    MW4 6899   0.711   0.739   3.089 -0.3746  0.1025 -0.1364
 1712SOL     OW 6900   0.483   0.849   3.011 -0.0017  0.0146 -0.3276
 1712SOL    HW2 6901   0.401   0.834   3.059 -0.2355  0.7931 -0.4812
 1712SOL    HW3 6902   0.457   0.856   2.920  0.4668 -1.6178 -0.5966
 1712SOL    MW4 6903   0.469   0.848   3.005  0.0292 -0.0980 -0.3836
 1713SOL     OW 6904   0.467   1.116   3.114  0.0088 -0.2723  0.3248
 1713SOL    HW2 6905   0.471   1.032   3.069 -0.5190 -0.2798  0.2976
 1713SOL    HW3 6906   0.392   1.161   3.076  0.0158  0.0284  0.6647
 1713SOL    MW4 6907   0.458   1.111   3.103 -0.0599 -0.2337  0.3660
 1714SOL     OW 6908   0.664   1.285   2.976  0.2853 -0.3706 -0.1337
 1714SOL    HW2 6909   0.747   1.263   3.017  0.4012  0.4391  0.0898
 1714SOL    HW3 6910   0.601   1.222   3.012  0.8938 -1.2928 -0.6721
 1714SOL    MW4 6911   0.666   1.274   2.986  0.3809 -0.3855 -0.1750
 1715SOL     OW 6912   0.647   1.552   3.081 -0.1244  0.1537  0.0089
 1715SOL    HW2 6913   0.646   1.540   3.176  3.0362  0.4962  0.1320
 1715SOL    HW3 6914   0.640   1.463   3.046 -1.9935  0.0744  0.5149
 1715SOL    MW4 6915   0.646   1.539   3.089  0.0460  0.1885  0.0918
 1716SOL     OW 6916   0.398   1.666   2.995  0.4285  0.1395  0.0321
 1716SOL    HW2 6917   0.470   1.609   3.020 -0.1589  0.6669  3.1244
 1716SOL    HW3 6918   0.319   1.615   3.014 -0.0620  1.1490  0.7959
 1716SOL    MW4 6919   0.397   1.652   3.001  0.2863  0.3424  0.5407
 1717SOL     OW 6920   0.442   1.945   3.084  0.7121 -0.1419  0.6556
 1717SOL    HW2 6921   0.428   1.856   3.051 -0.4225 -0.5026  2.0873
 1717SOL    HW3 6922   0.380   1.999   3.035  0.5166 -0.3386  0.6873
 1717SOL    MW4 6923   0.432   1.941   3.073  0.5366 -0.2154  0.8488
 1718SOL     OW 6924   0.676   2.077   3.027 -0.0409  0.2367 -0.0248
 1718SOL    HW2 6925   0.735   2.023   3.080  0.7239  1.8480  0.7833
 1718SOL    HW3 6926   0.591   2.033   3.036  0.0793  0.4085  2.5193
 1718SOL    MW4 6927   0.672   2.064   3.035  0.0759  0.4718  0.4172
 1719SOL     OW 6928   0.612   2.326   3.095 -0.6424  0.0926  0.4897
 1719SOL    HW2 6929   0.636   2.344   3.186 -1.4128 -0.4890  0.8057
 1719SOL    HW3 6930   0.637   2.235   3.080 -2.9420 -0.6290  0.9233
 1719SOL    MW4 6931   0.619   2.317   3.105 -1.0475 -0.0792  0.5887
 1720SOL     OW 6932   0.412   2.493   3.012 -0.3280 -0.1386 -0.0238
 1720SOL    HW2 6933   0.484   2.435   3.038 -2.1620 -2.4884 -0.0236
 1720SOL    HW3 6934   0.425   2.506   2.918  1.0027  0.7927  0.2700
 1720SOL    MW4 6935   0.423   2.487   3.003 -0.3944 -0.3257  0.0150
 1721SOL     OW 6936   0.467   2.751   3.098 -0.1411  0.0200  0.0608
 1721SOL    HW2 6937   0.547   2.781   3.055  0.1154 -0.9079 -0.1216
 1721SOL    HW3 6938   0.455   2.661   3.066  0.4338 -0.9436  2.4457
 1721SOL    MW4 6939   0.476   2.743   3.088 -0.0314 -0.2298  0.3514
 1722SOL     OW 6940   0.708   2.838   3.016 -0.4219  0.3435 -0.0400
 1722SOL    HW2 6941   0.761   2.782   3.073  0.7086  0.5317 -0.8788
 1722SOL    HW3 6942   0.706   2.922   3.061 -0.9210  0.0384  0.5200
 1722SOL    MW4 6943   0.715   2.842   3.029 -0.3386  0.3281 -0.0768
 1723SOL     OW 6944   0.690   3.088   3.131  0.1733  0.0076 -0.4397
 1723SOL    HW2 6945   0.690   3.097   3.226 -0.0059 -1.5779 -0.2869
 1723SOL    HW3 6946   0.606   3.125   3.104  0.7003  1.4938 -0.0923
 1723SOL    MW4 6947   0.679   3.094   3.140  0.2192 -0.0052 -0.3738
 1724SOL     OW 6948   0.460   3.211   3.014  0.2931 -0.3313  0.0943
 1724SOL    HW2 6949   0.458   3.300   3.050 -1.2328  0.1171 -1.0309
 1724SOL    HW3 6950   0.387   3.167   3.058  0.3760 -0.7071 -0.1500
 1724SOL    MW4 6951   0.450   3.217   3.025  0.1027 -0.3216 -0.0863
 1725SOL     OW 6952   0.449   3.458   3.121 -0.0107 -0.5838  0.0436
 1725SOL    HW2 6953   0.433   3.458   3.215 -1.5591 -1.3843 -0.1943
 1725SOL    HW3 6954   0.388   3.524   3.087 -1.0669 -1.8679 -0.6184
 1725SOL    MW4 6955   0.439   3.467   3.129 -0.3543 -0.8590 -0.0751
 1726SOL     OW 6956   0.668   3.592   3.035 -0.0474 -0.1814 -0.8620
 1726SOL    HW2 6957   0.753   3.561   3.069  0.2229  1.0116 -0.4388
 1726SOL    HW3 6958   0.604   3.530   3.072  0.4237  0.0990  0.4555
 1726SOL    MW4 6959   0.671   3.580   3.045  0.0504  0.0129 -0.6320
 1727SOL     OW 6960   0.679   3.862   3.121  0.2439  0.1960 -0.1190
 1727SOL    HW2 6961   0.660   3.869   3.214 -2.5697  1.0454 -0.7069
 1727SOL    HW3 6962   0.672   3.768   3.102 -0.5352  0.1814  0.2462
 1727SOL    MW4 6963   0.676   3.850   3.130 -0.2301  0.3061 -0.1485
 1728SOL     OW 6964   0.477   4.009   2.997 -0.2878  0.0172 -0.2544
 1728SOL    HW2 6965   0.541   3.943   3.023 -0.0946  0.0430 -0.6728
 1728SOL    HW3 6966   0.467   3.998   2.903  0.9692  1.6376 -0.6121
 1728SOL    MW4 6967   0.484   3.999   2.988 -0.0965  0.2341 -0.3567
 1729SOL     OW 6968   0.465   4.265   3.108  0.4435 -0.1919 -0.3827
 1729SOL    HW2 6969   0.479   4.186   3.057  0.2702 -0.4973  0.0384
 1729SOL    HW3 6970   0.380   4.298   3.080  0.8564  0.2606 -1.1039
 1729SOL    MW4 6971   0.456   4.259   3.098  0.4751 -0.1726 -0.4222
 1730SOL     OW 6972   0.678   4.396   3.009 -0.4141 -0.4625  0.1116
 1730SOL    HW2 6973   0.600   4.360   3.050  0.9946 -2.3329  1.2076
 1730SOL    HW3 6974   0.662   4.386   2.915 -1.5200 -0.7572  0.3241
 1730SOL    MW4 6975   0.666   4.390   3.002 -0.3742 -0.7486  0.2844
 1731SOL     OW 6976   1.085   4.661   3.126  0.2087 -0.2271  0.6451
 1731SOL    HW2 6977   1.167   4.699   3.095 -0.8414  0.8977 -0.7667
 1731SOL    HW3 6978   1.016   4.713   3.085 -1.2442 -2.1173  0.5863
 1731SOL    MW4 6979   1.087   4.673   3.117 -0.1216 -0.3281  0.4511
 1732SOL     OW 6980   0.866   0.102   2.988  0.0883  0.1404  0.3611
 1732SOL    HW2 6981   0.871   0.187   3.032  1.5799 -0.1285  0.7203
 1732SOL    HW3 6982   0.797   0.055   3.036 -0.2590  0.8840  0.6027
 1732SOL    MW4 6983   0.857   0.107   3.000  0.2393  0.2030  0.4401
 1733SOL     OW 6984   0.883   0.348   3.124  0.2605  0.3375  0.3680
 1733SOL    HW2 6985   0.872   0.327   3.216 -1.9328  0.9962  0.2908
 1733SOL    HW3 6986   0.969   0.390   3.118  0.6659 -0.2584  2.0035
 1733SOL    MW4 6987   0.893   0.351   3.135  0.0246  0.3458  0.5736
 1734SOL     OW 6988   1.106   0.476   3.056 -0.3122 -0.0991  0.1823
 1734SOL    HW2 6989   1.188   0.441   3.090 -0.2636  0.8766  1.0531
 1734SOL    HW3 6990   1.114   0.467   2.961  0.6902 -0.2483  0.2796
 1734SOL    MW4 6991   1.118   0.470   3.048 -0.1736  0.0099  0.3099
 1735SOL     OW 6992   1.139   0.746   3.120 -0.4468 -0.3700 -0.2445
 1735SOL    HW2 6993   1.137   0.746   3.216  1.7922  0.5920 -0.1800
 1735SOL    HW3 6994   1.119   0.656   3.096 -3.2676 -0.1543  1.0516
 1735SOL    MW4 6995   1.136   0.734   3.130 -0.5236 -0.2146 -0.0651
 1736SOL     OW 6996   0.927   0.908   3.051 -0.1396  0.3396 -0.0512
 1736SOL    HW2 6997   0.999   0.850   3.077  0.5129  0.3772 -1.6983
 1736SOL    HW3 6998   0.849   0.852   3.053  0.2084 -0.1487  0.0710
 1736SOL    MW4 6999   0.927   0.893   3.055 -0.0076  0.2801 -0.2525
 1737SOL     OW 7000   0.901   1.190   3.085 -0.3377  0.4040 -0.4675
 1737SOL    HW2 7001   0.989   1.226   3.072 -0.0097  0.6892  2.1804
 1737SOL    HW3 7002   0.909   1.097   3.064  0.3906  0.5935 -1.0343
 1737SOL    MW4 7003   0.913   1.182   3.081 -0.1984  0.4665 -0.1931
 1738SOL     OW 7004   1.147   1.282   3.030 -0.0448 -0.1260  0.0326
 1738SOL    HW2 7005   1.216   1.225   3.064 -0.8696 -0.5983  0.9247
 1738SOL    HW3 7006   1.149   1.268   2.935  0.4109 -0.9010  0.1529
 1738SOL    MW4 7007   1.156   1.273   3.022 -0.0935 -0.2905  0.1662
 1739SOL     OW 7008   1.117   1.565   3.088  0.5201  0.0094  0.3439
 1739SOL    HW2 7009   1.198   1.614   3.074 -0.3611  0.7327 -2.5444
 1739SOL    HW3 7010   1.132   1.480   3.047 -0.8940  0.9224 -2.1915
 1739SOL    MW4 7011   1.129   1.560   3.081  0.2173  0.2253 -0.3717
 1740SOL     OW 7012   0.870   1.697   3.023 -0.0056  0.7832 -0.4084
 1740SOL    HW2 7013   0.942   1.651   3.066  0.2091  0.7568 -0.7920
 1740SOL    HW3 7014   0.792   1.647   3.047  0.0075  1.2391  0.6183
 1740SOL    MW4 7015   0.869   1.684   3.032  0.0244  0.8397 -0.3233
 1741SOL     OW 7016   0.880   1.942   3.152 -0.8429 -0.2966  0.1619
 1741SOL    HW2 7017   0.879   1.922   3.245 -0.3665 -1.6511 -0.1212
 1741SOL    HW3 7018   0.878   1.857   3.109 -1.2761  0.3235 -1.0712
 1741SOL    MW4 7019   0.880   1.928   3.159 -0.8372 -0.3935 -0.0381
 1742SOL     OW 7020   1.132   2.036   3.051 -0.0665 -0.5334 -0.4632
 1742SOL    HW2 7021   1.056   1.993   3.091 -0.6848 -0.9732 -2.1050
 1742SOL    HW3 7022   1.122   2.022   2.957  0.8697  1.3415 -0.8698
 1742SOL    MW4 7023   1.121   2.028   3.044 -0.0246 -0.3438 -0.7334
 1743SOL     OW 7024   1.137   2.298   3.108 -0.0634  0.2607 -0.4965
 1743SOL    HW2 7025   1.058   2.341   3.075  0.7330  0.9454 -1.5442
 1743SOL    HW3 7026   1.132   2.210   3.071 -0.4152  0.2521 -0.4368
 1743SOL    MW4 7027   1.126   2.292   3.098 -0.0046  0.3500 -0.6268
 1744SOL     OW 7028   0.882   2.428   3.017  0.0889 -0.2050 -0.3006
 1744SOL    HW2 7029   0.791   2.400   3.026  0.5779 -1.3860  1.0482
 1744SOL    HW3 7030   0.901   2.417   2.924 -0.4384 -2.1581 -0.1985
 1744SOL    MW4 7031   0.872   2.423   3.006  0.0838 -0.6185 -0.1094
 1745SOL     OW 7032   0.916   2.679   3.129  0.3051  0.5071  0.2782
 1745SOL    HW2 7033   0.895   2.666   3.221  1.8535  0.5739  0.6556
 1745SOL    HW3 7034   0.904   2.592   3.089 -0.7833  0.5765  0.4568
 1745SOL    MW4 7035   0.912   2.666   3.136  0.3658  0.5252  0.3517
 1746SOL     OW 7036   1.128   2.859   3.011 -0.3142 -0.5277 -0.2942
 1746SOL    HW2 7037   1.120   2.947   3.048  1.0798 -0.5210  0.0415
 1746SOL    HW3 7038   1.054   2.811   3.047 -0.7490  0.3471 -0.0061
 1746SOL    MW4 7039   1.117   2.864   3.021 -0.1876 -0.4113 -0.2120
 1747SOL     OW 7040   1.106   3.096   3.151 -0.2809 -0.1139 -0.3297
 1747SOL    HW2 7041   1.189   3.131   3.118 -0.5378  1.1009  0.2892
 1747SOL    HW3 7042   1.039   3.133   3.094 -0.6562  1.3565  1.0256
 1747SOL    MW4 7043   1.108   3.105   3.140 -0.3642  0.2403 -0.0691
 1748SOL     OW 7044   0.916   3.247   3.034 -0.3057 -0.4899 -0.0391
 1748SOL    HW2 7045   0.841   3.194   3.063 -1.5210  1.2618  0.1255
 1748SOL    HW3 7046   0.912   3.243   2.938 -0.4325 -0.6369 -0.0286
 1748SOL    MW4 7047   0.905   3.240   3.025 -0.4827 -0.2782 -0.0157
 1749SOL     OW 7048   0.930   3.520   3.119  0.3247  0.5635 -0.1782
 1749SOL    HW2 7049   1.004   3.562   3.076  0.8642  2.0174  2.1084
 1749SOL    HW3 7050   0.935   3.428   3.092  1.4295  1.1610 -2.0784
 1749SOL    MW4 7051   0.940   3.513   3.110  0.5416  0.8340 -0.1271
 1750SOL     OW 7052   1.157   3.625   2.997 -0.2375  0.0755  0.6608
 1750SOL    HW2 7053   1.216   3.579   3.058  1.0615  0.8105 -0.0136
 1750SOL    HW3 7054   1.158   3.716   3.027 -1.1869  0.0582  0.7526
 1750SOL    MW4 7055   1.165   3.631   3.009 -0.1913  0.1705  0.5841
 1751SOL     OW 7056   1.134   3.877   3.129  0.1831 -0.0824  0.3337
 1751SOL    HW2 7057   1.131   3.886   3.224 -0.7113  0.0435  0.3015
 1751SOL    HW3 7058   1.050   3.912   3.099 -0.0164 -1.1859 -0.4171
 1751SOL    MW4 7059   1.122   3.883   3.137  0.0387 -0.2115  0.2306
 1752SOL     OW 7060   0.904   3.996   3.030  0.9418 -0.4126  0.3905
 1752SOL    HW2 7061   0.823   3.950   3.053  0.7084 -0.0074  0.3752
 1752SOL    HW3 7062   0.899   4.007   2.935  0.7592  0.0954  0.4570
 1752SOL    MW4 7063   0.893   3.991   3.020  0.8869 -0.2918  0.3972
 1753SOL     OW 7064   0.908   4.248   3.134 -0.0730 -0.0844  0.0652
 1753SOL    HW2 7065   0.913   4.162   3.093  1.1821  0.4340 -0.9026
 1753SOL    HW3 7066   0.841   4.294   3.083 -0.4206 -0.3352  0.2946
 1753SOL    MW4 7067   0.900   4.243   3.122  0.0468 -0.0486 -0.0322
 1754SOL     OW 7068   1.133   4.383   3.032 -0.3728 -0.5219  0.9112
 1754SOL    HW2 7069   1.065   4.332   3.076 -0.5013 -0.0944  1.2111
 1754SOL    HW3 7070   1.110   4.474   3.050  0.8219 -0.3883  1.8487
 1754SOL    MW4 7071   1.121   4.388   3.041 -0.2321 -0.4482  1.0746
 1755SOL     OW 7072   1.573   4.636   3.094 -0.1426 -0.0877 -0.0695
 1755SOL    HW2 7073   1.582   4.618   3.187  1.0862 -0.6949 -0.2965
 1755SOL    HW3 7074   1.486   4.674   3.085 -0.0692  0.4420  1.3979
 1755SOL    MW4 7075   1.563   4.639   3.105  0.0292 -0.0987  0.0944
 1756SOL     OW 7076   1.325   0.093   3.024  0.8330 -0.0805  0.0803
 1756SOL    HW2 7077   1.326   0.185   3.050 -1.0173 -0.2439  0.7967
 1756SOL    HW3 7078   1.347   0.095   2.930  1.7509  1.0007  0.3120
 1756SOL    MW4 7079   1.328   0.105   3.015  0.7100  0.0406  0.2053
 1757SOL     OW 7080   1.358   0.357   3.109 -0.0851 -0.0638  0.3824
 1757SOL    HW2 7081   1.363   0.362   3.205  0.8014 -1.2697  0.4068
 1757SOL    HW3 7082   1.446   0.383   3.079 -0.5403  0.9099 -0.1364
 1757SOL    MW4 7083   1.371   0.361   3.118 -0.0281 -0.0944  0.3171
 1758SOL     OW 7084   1.609   0.453   3.039  0.9527 -0.0592  0.1205
 1758SOL    HW2 7085   1.599   0.540   3.078 -0.3769 -0.4095  0.5844
 1758SOL    HW3 7086   1.605   0.469   2.945 -0.6549  0.2567  0.2143
 1758SOL    MW4 7087   1.607   0.467   3.032  0.5652 -0.0637  0.1941
 1759SOL     OW 7088   1.588   0.725   3.101 -0.0702 -0.0805  0.7650
 1759SOL    HW2 7089   1.581   0.730   3.197  0.5896  1.9076  0.7353
 1759SOL    HW3 7090   1.511   0.771   3.069  0.5901  0.7448  0.3499
 1759SOL    MW4 7091   1.577   0.732   3.110  0.1041  0.2908  0.7064
 1760SOL     OW 7092   1.360   0.881   2.990  0.1533 -0.4770  0.2480
 1760SOL    HW2 7093   1.359   0.968   3.029 -0.3048 -0.7986  0.9759
 1760SOL    HW3 7094   1.291   0.833   3.036  0.5751 -1.3062  0.0395
 1760SOL    MW4 7095   1.351   0.886   3.001  0.1485 -0.6289  0.3164
 1761SOL     OW 7096   1.349   1.131   3.116  0.4320  0.1898  0.0672
 1761SOL    HW2 7097   1.363   1.135   3.210  0.4825  1.6814  0.0109
 1761SOL    HW3 7098   1.429   1.168   3.079  0.2717 -0.0744 -0.5510
 1761SOL    MW4 7099   1.362   1.137   3.123  0.4176  0.3518 -0.0219
 1762SOL     OW 7100   1.586   1.256   3.006 -0.2855  0.9481  0.1210
 1762SOL    HW2 7101   1.675   1.229   3.030 -0.0276 -0.5929 -2.3484
 1762SOL    HW3 7102   1.583   1.350   3.027  1.4696  0.7429  1.4506
 1762SOL    MW4 7103   1.597   1.265   3.012 -0.0199  0.7176 -0.0296
 1763SOL     OW 7104   1.590   1.521   3.112 -0.2820  0.2962 -0.0189
 1763SOL    HW2 7105   1.662   1.571   3.075 -0.5905  1.1375  0.5148
 1763SOL    HW3 7106   1.511   1.562   3.078 -0.5812  1.3258  1.8268
 1763SOL    MW4 7107   1.589   1.533   3.103 -0.3622  0.5430  0.2952
 1764SOL     OW 7108   1.385   1.675   3.000 -0.5099  0.0102 -0.2038
 1764SOL    HW2 7109   1.384   1.768   3.019  0.2745  0.2131 -1.1235
 1764SOL    HW3 7110   1.379   1.669   2.905 -1.9339 -0.9189 -0.0751
 1764SOL    MW4 7111   1.384   1.686   2.990 -0.5943 -0.0856 -0.3080
 1765SOL     OW 7112   1.372   1.929   3.109 -0.1565 -0.6916 -0.4369
 1765SOL    HW2 7113   1.388   1.927   3.203 -0.4044 -1.6093 -0.4061
 1765SOL    HW3 7114   1.291   1.980   3.100  0.4098  0.2464 -0.2390
 1765SOL    MW4 7115   1.363   1.936   3.120 -0.1144 -0.6889 -0.4070
 1766SOL     OW 7116   1.577   2.080   3.014 -0.4844 -0.1315 -0.0723
 1766SOL    HW2 7117   1.504   2.026   3.045 -1.2700  1.6183  1.2391
 1766SOL    HW3 7118   1.560   2.090   2.921 -0.7054 -1.5558 -0.2017
 1766SOL    MW4 7119   1.565   2.074   3.006 -0.6170 -0.0885  0.0837
 1767SOL     OW 7120   1.570   2.320   3.136 -0.4220 -0.1734 -0.1619
 1767SOL    HW2 7121   1.496   2.363   3.093 -0.9746  0.0792  1.0211
 1767SOL    HW3 7122   1.570   2.231   3.100 -0.5747  0.1696 -1.0330
 1767SOL    MW4 7123   1.560   2.314   3.125 -0.5151 -0.0949 -0.1209
 1768SOL     OW 7124   1.341   2.465   3.050 -0.1048 -0.1622 -0.2506
 1768SOL    HW2 7125   1.267   2.418   3.089 -1.0342  1.1772 -0.3503
 1768SOL    HW3 7126   1.330   2.455   2.956  0.4572 -0.8837 -0.2395
 1768SOL    MW4 7127   1.329   2.458   3.043 -0.1532 -0.0808 -0.2623
 1769SOL     OW 7128   1.376   2.741   3.075 -0.3546 -0.7352 -0.8243
 1769SOL    HW2 7129   1.359   2.647   3.071 -1.7667 -0.4964 -0.9196
 1769SOL    HW3 7130   1.293   2.781   3.048 -0.0002  0.5433 -0.0650
 1769SOL    MW4 7131   1.363   2.734   3.071 -0.4941 -0.5350 -0.7367
 1770SOL     OW 7132   1.630   2.845   3.028  0.0383  0.3848 -0.7820
 1770SOL    HW2 7133   1.689   2.792   3.080 -0.2467  0.8526  0.0306
 1770SOL    HW3 7134   1.542   2.814   3.051 -0.0670  0.2487 -1.3632
 1770SOL    MW4 7135   1.626   2.834   3.038 -0.0131  0.4287 -0.7515
 1771SOL     OW 7136   1.621   3.127   3.103 -0.0847  0.0005  0.1441
 1771SOL    HW2 7137   1.626   3.121   3.199  1.6212  0.2110  0.0935
 1771SOL    HW3 7138   1.634   3.037   3.073  4.0157  0.5256  0.0175
 1771SOL    MW4 7139   1.623   3.114   3.112  0.6814  0.0975  0.1206
 1772SOL     OW 7140   1.360   3.192   3.073  0.0583 -0.1242 -0.0718
 1772SOL    HW2 7141   1.447   3.158   3.096  0.0488 -0.1637 -0.0933
 1772SOL    HW3 7142   1.358   3.188   2.978  0.2036  0.3039 -0.0952
 1772SOL    MW4 7143   1.371   3.187   3.064  0.0763 -0.0727 -0.0777
 1773SOL     OW 7144   1.322   3.475   3.170  0.0784 -0.0579 -0.3272
 1773SOL    HW2 7145   1.326   3.467   3.265 -0.8671  1.3278 -0.1543
 1773SOL    HW3 7146   1.329   3.385   3.138  1.0760 -0.4662  1.0211
 1773SOL    MW4 7147   1.323   3.462   3.179  0.0852  0.0713 -0.1266
 1774SOL     OW 7148   1.576   3.555   3.039  0.3136 -0.8302  0.5602
 1774SOL    HW2 7149   1.499   3.514   3.078  0.4156 -1.7198 -0.1450
 1774SOL    HW3 7150   1.569   3.535   2.946  0.2832  0.9216  0.1689
 1774SOL    MW4 7151   1.565   3.547   3.032  0.3231 -0.7167  0.4153
 1775SOL     OW 7152   1.546   3.822   3.088 -0.1595  0.3351  0.0577
 1775SOL    HW2 7153   1.634   3.860   3.082  0.2224 -0.4609  0.5606
 1775SOL    HW3 7154   1.559   3.728   3.075 -0.6879 -0.0405  2.1254
 1775SOL    MW4 7155   1.559   3.814   3.086 -0.1788  0.1805  0.3972
 1776SOL     OW 7156   1.358   4.025   3.050  0.0567  0.4519 -0.4064
 1776SOL    HW2 7157   1.432   3.965   3.061  0.7229  1.0801 -1.3705
 1776SOL    HW3 7158   1.284   3.980   3.090  1.2911  0.4722  2.0120
 1776SOL    MW4 7159   1.358   4.011   3.057  0.3074  0.5379 -0.2148
 1777SOL     OW 7160   1.369   4.284   3.125 -0.4392 -0.3778  0.3155
 1777SOL    HW2 7161   1.364   4.192   3.101 -1.8473 -0.0928 -0.5404
 1777SOL    HW3 7162   1.284   4.321   3.100 -0.7868  0.6528  2.7749
 1777SOL    MW4 7163   1.357   4.277   3.119 -0.6710 -0.2041  0.5274
 1778SOL     OW 7164   1.578   4.381   2.976  0.2241  0.0140  0.0749
 1778SOL    HW2 7165   1.501   4.350   3.023 -0.4461 -1.4887 -1.9408
 1778SOL    HW3 7166   1.588   4.472   3.003 -1.7895 -0.0103  0.9625
 1778SOL    MW4 7167   1.569   4.389   2.985 -0.1299 -0.1869 -0.0739
 1779SOL     OW 7168   2.047   4.618   3.132  0.0986  0.2532 -0.1933
 1779SOL    HW2 7169   2.030   4.609   3.226 -1.0490 -0.6229 -0.4793
 1779SOL    HW3 7170   1.983   4.684   3.103 -0.5392 -0.5544 -0.6318
 1779SOL    MW4 7171   2.036   4.626   3.140 -0.1371  0.0315 -0.2890
 1780SOL     OW 7172   1.826   0.085   3.017 -0.3684  0.1559  0.1446
 1780SOL    HW2 7173   1.747   0.036   3.041  0.4061 -1.2558 -0.1429
 1780SOL    HW3 7174   1.823   0.090   2.921  0.5953 -1.1427  0.0279
 1780SOL    MW4 7175   1.815   0.079   3.007 -0.1390 -0.2017  0.0911
 1781SOL     OW 7176   1.845   0.336   3.131  0.6404  0.4032  0.2722
 1781SOL    HW2 7177   1.839   0.245   3.102  1.6055  1.0406 -2.0022
 1781SOL    HW3 7178   1.764   0.377   3.101  0.6590  0.5303  0.3935
 1781SOL    MW4 7179   1.833   0.329   3.123  0.7703  0.5041 -0.0117
 1782SOL     OW 7180   2.054   0.489   3.014  0.5953  0.3139  0.0228
 1782SOL    HW2 7181   1.986   0.437   3.057 -0.0546  1.2414  0.1105
 1782SOL    HW3 7182   2.032   0.487   2.921  1.7285 -1.2802 -0.2381
 1782SOL    MW4 7183   2.042   0.482   3.008  0.6590  0.2259  0.0000
 1783SOL     OW 7184   2.043   0.766   3.102  0.0076  0.0510  0.1039
 1783SOL    HW2 7185   1.956   0.804   3.088  0.0408 -0.1351 -0.6292
 1783SOL    HW3 7186   2.036   0.677   3.070  0.4683  0.0321  0.0485
 1783SOL    MW4 7187   2.031   0.760   3.096  0.0730  0.0239  0.0000
 1784SOL     OW 7188   1.799   0.884   3.033  0.3575  0.0991  0.0231
 1784SOL    HW2 7189   1.725   0.828   3.054 -0.1588  0.1396 -1.6283
 1784SOL    HW3 7190   1.811   0.873   2.938  1.9956  0.6494  0.1520
 1784SOL    MW4 7191   1.791   0.875   3.023  0.5054  0.1770 -0.1779
 1785SOL     OW 7192   1.819   1.150   3.083 -0.1840 -0.4564  0.5718
 1785SOL    HW2 7193   1.798   1.150   3.176 -2.9045 -0.7570 -0.0002
 1785SOL    HW3 7194   1.789   1.065   3.051 -2.6913  1.0233 -1.2333
 1785SOL    MW4 7195   1.812   1.139   3.091 -0.8737 -0.3009  0.2582
 1786SOL     OW 7196   2.061   1.290   2.995  0.3058  0.2968  0.1075
 1786SOL    HW2 7197   2.126   1.224   3.020  0.2496  0.5085  0.8519
 1786SOL    HW3 7198   1.977   1.253   3.021  0.2456  0.5331  0.2577
 1786SOL    MW4 7199   2.059   1.277   3.002  0.2904  0.3558  0.2255
 1787SOL     OW 7200   2.042   1.558   3.110  0.0067 -0.0912 -0.7786
 1787SOL    HW2 7201   2.020   1.566   3.203 -0.6248  1.0191 -1.0088
 1787SOL    HW3 7202   2.052   1.464   3.095  0.5160 -0.2504  0.5004
 1787SOL    MW4 7203   2.041   1.547   3.120 -0.0093  0.0342 -0.6402
 1788SOL     OW 7204   1.800   1.658   2.999 -0.2976 -0.1665 -0.3012
 1788SOL    HW2 7205   1.786   1.744   3.039 -0.2706  0.4088 -1.5335
 1788SOL    HW3 7206   1.887   1.631   3.031 -0.3483  0.2116  0.1638
 1788SOL    MW4 7207   1.810   1.666   3.009 -0.3008 -0.0408 -0.4025
 1789SOL     OW 7208   1.792   1.930   3.108 -0.1226  0.0668  0.3109
 1789SOL    HW2 7209   1.875   1.978   3.098  0.5559 -1.1637 -0.1638
 1789SOL    HW3 7210   1.727   1.985   3.066  0.8102  0.1418 -1.0600
 1789SOL    MW4 7211   1.795   1.944   3.101  0.0900 -0.0856  0.0675
 1790SOL     OW 7212   2.025   2.077   3.054 -0.2776 -0.6952  0.2453
 1790SOL    HW2 7213   2.099   2.033   3.096  0.1307 -0.2851 -0.0279
 1790SOL    HW3 7214   2.024   2.165   3.093 -0.3723 -0.5664 -0.0444
 1790SOL    MW4 7215   2.035   2.083   3.065 -0.2360 -0.6242  0.1712
 1791SOL     OW 7216   2.008   2.349   3.124  0.1649 -0.2677  0.3903
 1791SOL    HW2 7217   2.082   2.390   3.078  1.0706 -2.5744 -0.2794
 1791SOL    HW3 7218   1.931   2.393   3.090  1.1737  1.7687  0.6486
 1791SOL    MW4 7219   2.008   2.360   3.114  0.4172 -0.3033  0.3359
 1792SOL     OW 7220   1.767   2.454   2.993 -0.5086 -0.1246  0.2607
 1792SOL    HW2 7221   1.784   2.534   3.043  0.9647 -0.3169  0.0902
 1792SOL    HW3 7222   1.706   2.404   3.048  0.9174 -0.2420  1.7965
 1792SOL    MW4 7223   1.761   2.458   3.007 -0.1260 -0.1655  0.4406
 1793SOL     OW 7224   1.822   2.672   3.149 -0.2061  0.2238 -0.1695
 1793SOL    HW2 7225   1.837   2.683   3.243  0.3873 -0.9382 -0.1195
 1793SOL    HW3 7226   1.880   2.736   3.108  1.8499 -1.3770  0.1713
 1793SOL    MW4 7227   1.831   2.682   3.156  0.1433 -0.1409 -0.1178
 1794SOL     OW 7228   2.007   2.816   3.010 -0.7940 -0.0986 -0.0735
 1794SOL    HW2 7229   2.010   2.904   3.048  2.1264  0.1898 -0.8167
 1794SOL    HW3 7230   2.002   2.831   2.916 -1.1865 -0.7423 -0.1590
 1794SOL    MW4 7231   2.007   2.830   3.002 -0.4606 -0.1452 -0.1829
 1795SOL     OW 7232   2.007   3.064   3.107 -0.5723  0.1714  0.0180
 1795SOL    HW2 7233   2.011   3.094   3.197  1.0170 -0.8893  0.3212
 1795SOL    HW3 7234   1.940   3.119   3.066 -0.7729  1.1583  1.6361
 1795SOL    MW4 7235   1.999   3.075   3.113 -0.3891  0.1616  0.2716
 1796SOL     OW 7236   1.839   3.251   2.988  0.6400 -0.2714 -0.2902
 1796SOL    HW2 7237   1.754   3.216   3.015 -0.5543  1.6776 -1.4497
 1796SOL    HW3 7238   1.842   3.237   2.894  1.0759  0.7717 -0.4396
 1796SOL    MW4 7239   1.829   3.244   2.979  0.5399  0.1237 -0.4632
 1797SOL     OW 7240   1.824   3.466   3.170 -0.2337 -0.3936 -0.4698
 1797SOL    HW2 7241   1.837   3.381   3.128 -2.0007 -0.5071 -0.8459
 1797SOL    HW3 7242   1.744   3.500   3.130 -0.2682  0.8545  0.6327
 1797SOL    MW4 7243   1.815   3.459   3.160 -0.4714 -0.2439 -0.3741
 1798SOL     OW 7244   1.994   3.609   3.026  0.0241 -0.0847  0.2554
 1798SOL    HW2 7245   2.008   3.689   3.078 -0.4723  0.0178  0.2375
 1798SOL    HW3 7246   1.938   3.554   3.082 -0.4327 -0.0125 -0.1304
 1798SOL    MW4 7247   1.989   3.613   3.041 -0.1016 -0.0618  0.2019
 1799SOL     OW 7248   2.011   3.861   3.151  0.3110 -0.3076  0.3399
 1799SOL    HW2 7249   2.010   3.886   3.244  0.1850  0.9573 -0.0018
 1799SOL    HW3 7250   1.944   3.916   3.111  0.9469 -0.2548 -0.6587
 1799SOL    MW4 7251   2.002   3.871   3.158  0.3781 -0.1338  0.1631
 1800SOL     OW 7252   1.791   3.975   3.053  0.1779  0.1142 -0.3749
 1800SOL    HW2 7253   1.758   4.053   3.097 -2.2681 -0.4926 -1.0576
 1800SOL    HW3 7254   1.787   3.997   2.959  0.1222 -0.5784 -0.5369
 1800SOL    MW4 7255   1.786   3.988   3.046 -0.1522 -0.0570 -0.4864
 1801SOL     OW 7256   1.770   4.259   3.120 -0.0842 -0.1289  0.0987
 1801SOL    HW2 7257   1.848   4.304   3.088  0.2202  0.5806  1.7950
 1801SOL    HW3 7258   1.697   4.304   3.077  0.3762 -0.0858 -0.6458
 1801SOL    MW4 7259   1.771   4.271   3.110  0.0168 -0.0296  0.2241
 1802SOL     OW 7260   2.023   4.345   3.050  0.2806 -0.0081 -0.1980
 1802SOL    HW2 7261   2.037   4.435   3.080  0.3702  0.1932 -0.8506
 1802SOL    HW3 7262   2.009   4.353   2.956 -1.5394 -0.4846  0.0159
 1802SOL    MW4 7263   2.023   4.358   3.042  0.0525 -0.0453 -0.2558
 1803SOL     OW 7264   2.473   4.594   3.114 -0.4335 -0.1184 -0.6257
 1803SOL    HW2 7265   2.467   4.504   3.081 -0.5682 -0.1649 -0.4745
 1803SOL    HW3 7266   2.388   4.633   3.092 -0.5362 -0.1588 -0.3037
 1803SOL    MW4 7267   2.461   4.588   3.107 -0.4649 -0.1302 -0.5631
 1804SOL     OW 7268   2.265   0.076   3.038  0.3151  0.0309 -0.1039
 1804SOL    HW2 7269   2.264   0.165   3.073  0.2240 -0.6921  1.7696
 1804SOL    HW3 7270   2.186   0.035   3.072  0.7587 -1.0189 -0.3100
 1804SOL    MW4 7271   2.255   0.083   3.047  0.3614 -0.2030  0.1161
 1805SOL     OW 7272   2.276   0.360   3.093 -0.4583  0.0469 -0.1175
 1805SOL    HW2 7273   2.272   0.350   3.188 -0.2091 -1.5099 -0.2529
 1805SOL    HW3 7274   2.196   0.409   3.070 -0.5180  0.4247  0.8812
 1805SOL    MW4 7275   2.265   0.365   3.102 -0.4332 -0.1087 -0.0041
 1806SOL     OW 7276   2.518   0.520   3.009 -0.1337 -0.2543  0.0300
 1806SOL    HW2 7277   2.431   0.484   3.025 -0.1576 -0.9375 -1.5806
 1806SOL    HW3 7278   2.532   0.508   2.915  1.4922  0.3163  0.1914
 1806SOL    MW4 7279   2.508   0.514   2.999  0.0777 -0.2691 -0.1612
 1807SOL     OW 7280   2.491   0.785   3.113  0.0248 -0.4504  0.4190
 1807SOL    HW2 7281   2.568   0.836   3.090 -0.3045  0.3222  1.0312
 1807SOL    HW3 7282   2.507   0.699   3.073  0.5465  0.1359 -0.6730
 1807SOL    MW4 7283   2.503   0.780   3.104  0.0503 -0.2711  0.3555
 1808SOL     OW 7284   2.265   0.862   2.979  0.3773 -0.6448 -0.7549
 1808SOL    HW2 7285   2.341   0.825   3.025 -0.5225 -0.3947  0.9811
 1808SOL    HW3 7286   2.189   0.831   3.030 -0.7082 -0.9670 -2.5059
 1808SOL    MW4 7287   2.265   0.853   2.992  0.1154 -0.6543 -0.7567
 1809SOL     OW 7288   2.267   1.121   3.083  0.2393  0.0215  0.4020
 1809SOL    HW2 7289   2.285   1.118   3.177  1.0973  0.0507  0.2367
 1809SOL    HW3 7290   2.274   1.030   3.054  1.7475  0.2367  0.0375
 1809SOL    MW4 7291   2.270   1.108   3.091  0.5517  0.0540  0.3324
 1810SOL     OW 7292   2.493   1.261   3.002  0.1094 -0.4688  0.1602
 1810SOL    HW2 7293   2.415   1.208   3.018 -0.1849 -0.3996 -1.0176
 1810SOL    HW3 7294   2.499   1.267   2.907  1.1477  0.1317  0.2556
 1810SOL    MW4 7295   2.484   1.255   2.992  0.2077 -0.3805  0.0174
 1811SOL     OW 7296   2.491   1.503   3.145  0.0219  0.1653  0.1593
 1811SOL    HW2 7297   2.409   1.549   3.125  1.1238  1.6589 -1.0520
 1811SOL    HW3 7298   2.477   1.414   3.112 -0.5324  0.8616 -1.5694
 1811SOL    MW4 7299   2.478   1.497   3.138  0.0942  0.4542 -0.2286
 1812SOL     OW 7300   2.292   1.660   3.042  0.3409  0.1601 -0.5477
 1812SOL    HW2 7301   2.212   1.616   3.071  0.3180  0.4506 -0.1714
 1812SOL    HW3 7302   2.293   1.647   2.947 -0.8567  1.3322 -0.7293
 1812SOL    MW4 7303   2.282   1.652   3.033  0.1798  0.3532 -0.5221
 1813SOL     OW 7304   2.232   1.896   3.159  0.5322  0.1492  0.1287
 1813SOL    HW2 7305   2.309   1.949   3.138  0.5710  1.2609  2.8729
 1813SOL    HW3 7306   2.250   1.811   3.118  1.7881  1.3339 -1.8812
 1813SOL    MW4 7307   2.245   1.892   3.151  0.7029  0.4522  0.2255
 1814SOL     OW 7308   2.432   2.058   3.055 -0.1939  0.0933  0.5309
 1814SOL    HW2 7309   2.517   2.026   3.085 -0.9911 -2.3980  0.2847
 1814SOL    HW3 7310   2.438   2.058   2.960 -0.1630  0.8224  0.5309
 1814SOL    MW4 7311   2.444   2.053   3.047 -0.2952 -0.1395  0.4985
 1815SOL     OW 7312   2.432   2.332   3.113  0.0688  0.2607  0.2584
 1815SOL    HW2 7313   2.430   2.338   3.208 -0.2788  0.2284  0.2512
 1815SOL    HW3 7314   2.408   2.242   3.094  0.5046  0.1654  0.1563
 1815SOL    MW4 7315   2.429   2.321   3.123  0.0806  0.2437  0.2441
 1816SOL     OW 7316   2.217   2.481   3.000  0.2233 -0.4845  0.2451
 1816SOL    HW2 7317   2.227   2.565   3.044  0.5881 -0.0569 -0.6362
 1816SOL    HW3 7318   2.298   2.434   3.021  0.9537  0.2061 -0.9969
 1816SOL    MW4 7319   2.229   2.485   3.009  0.3676 -0.3369 -0.0350
 1817SOL     OW 7320   2.215   2.727   3.159 -0.1636  0.0395 -0.0683
 1817SOL    HW2 7321   2.295   2.773   3.134  0.0368 -0.0484  0.4116
 1817SOL    HW3 7322   2.146   2.770   3.108  0.2238 -0.0402 -0.6569
 1817SOL    MW4 7323   2.217   2.739   3.149 -0.0861  0.0174 -0.0825
 1818SOL     OW 7324   2.427   2.840   3.043 -0.7942  0.0556 -0.1218
 1818SOL    HW2 7325   2.444   2.934   3.048 -1.9493  0.2915 -0.4053
 1818SOL    HW3 7326   2.409   2.824   2.950  0.0309 -0.5622 -0.1802
 1818SOL    MW4 7327   2.427   2.850   3.031 -0.8378  0.0052 -0.1669
 1819SOL     OW 7328   2.461   3.095   3.158 -0.3447 -0.2820 -0.3332
 1819SOL    HW2 7329   2.537   3.141   3.123  0.2033 -1.2971 -0.4966
 1819SOL    HW3 7330   2.386   3.140   3.119  0.1146  1.4898  0.7806
 1819SOL    MW4 7331   2.461   3.107   3.148 -0.2117 -0.1819 -0.2077
 1820SOL     OW 7332   2.230   3.204   3.039  0.5115  0.3190  0.1431
 1820SOL    HW2 7333   2.221   3.294   3.070 -0.1109  0.8027 -1.4116
 1820SOL    HW3 7334   2.151   3.159   3.070  0.9436  0.2228  1.1408
 1820SOL    MW4 7335   2.219   3.210   3.047  0.4861  0.3700  0.0696
 1821SOL     OW 7336   2.199   3.466   3.114  0.5831 -0.6424 -0.3456
 1821SOL    HW2 7337   2.284   3.507   3.099  0.3928 -0.5779 -1.2761
 1821SOL    HW3 7338   2.136   3.524   3.072 -0.0581 -0.0630  1.3895
 1821SOL    MW4 7339   2.202   3.479   3.106  0.4735 -0.5572 -0.2394
 1822SOL     OW 7340   2.443   3.590   3.050  0.3396 -0.3085  0.0459
 1822SOL    HW2 7341   2.524   3.550   3.083  1.6798  1.4479 -1.0474
 1822SOL    HW3 7342   2.442   3.678   3.087 -1.2576 -0.4277  0.3140
 1822SOL    MW4 7343   2.454   3.596   3.059  0.3059 -0.0925 -0.0629
 1823SOL     OW 7344   2.461   3.856   3.156  0.2892 -0.1186 -0.3059
 1823SOL    HW2 7345   2.469   3.856   3.251 -0.9431  1.0394 -0.1891
 1823SOL    HW3 7346   2.542   3.898   3.125  1.1188 -1.3386  0.1646
 1823SOL    MW4 7347   2.473   3.862   3.164  0.2358 -0.1268 -0.2282
 1824SOL     OW 7348   2.236   3.971   3.038 -0.2225 -0.1516 -0.0062
 1824SOL    HW2 7349   2.317   3.934   3.074  0.0078 -0.2902 -0.6697
 1824SOL    HW3 7350   2.167   3.924   3.085  0.0606  1.5134  2.1649
 1824SOL    MW4 7351   2.238   3.960   3.049 -0.1545  0.0498  0.1926
 1825SOL     OW 7352   2.251   4.217   3.120 -0.2698 -0.5725 -0.2668
 1825SOL    HW2 7353   2.233   4.129   3.087 -0.5052 -0.1674 -1.2394
 1825SOL    HW3 7354   2.173   4.268   3.097  0.1039  0.0261 -0.2240
 1825SOL    MW4 7355   2.238   4.212   3.113 -0.2515 -0.4406 -0.3893
 1826SOL     OW 7356   2.501   4.318   3.055  0.1572  0.6640  0.0108
 1826SOL    HW2 7357   2.409   4.296   3.067  0.5809 -1.5344 -0.4750
 1826SOL    HW3 7358   2.509   4.339   2.962  0.1070  1.0432  0.0924
 1826SOL    MW4 7359   2.490   4.318   3.044  0.2065  0.4239 -0.0427
 1827SOL     OW 7360   2.903   0.004   3.124 -0.6876 -0.0951 -0.2166
 1827SOL    HW2 7361   2.984   0.040   3.088 -0.3848  0.7212  1.2316
 1827SOL    HW3 7362   2.902  -0.087   3.095  1.7298 -0.6536  1.2870
 1827SOL    MW4 7363   2.914  -0.003   3.116 -0.3290 -0.0610  0.1731
 1828SOL     OW 7364   2.662   0.104   3.047 -0.2699  0.5282 -0.3471
 1828SOL    HW2 7365   2.745   0.072   3.084  0.0137  0.1355 -1.3081
 1828SOL    HW3 7366   2.596   0.045   3.083  0.0363 -0.0230 -0.6895
 1828SOL    MW4 7367   2.665   0.092   3.057 -0.1919  0.4037 -0.5193
 1829SOL     OW 7368   2.700   0.356   3.166 -0.0037  0.2537  0.4429
 1829SOL    HW2 7369   2.694   0.270   3.126 -0.1179 -0.0869  1.1712
 1829SOL    HW3 7370   2.630   0.407   3.126  0.4730  0.1969 -0.4556
 1829SOL    MW4 7371   2.690   0.351   3.156  0.0439  0.2013  0.4203
 1830SOL     OW 7372   2.904   0.487   3.033  0.0201  0.3525  0.5838
 1830SOL    HW2 7373   2.840   0.431   3.076 -0.8045  1.3923  0.7464
 1830SOL    HW3 7374   2.897   0.466   2.940  1.8398 -1.9332  0.9261
 1830SOL    MW4 7375   2.895   0.477   3.027  0.1516  0.1881  0.6504
 1831SOL     OW 7376   2.954   0.747   3.101  0.3994 -0.5567  0.3507
 1831SOL    HW2 7377   2.964   0.735   3.195 -0.7811 -0.1700  0.5413
 1831SOL    HW3 7378   2.938   0.659   3.067  0.3867 -0.6405  0.5734
 1831SOL    MW4 7379   2.953   0.734   3.109  0.2420 -0.5167  0.4051
 1832SOL     OW 7380   2.718   0.904   3.039 -0.7676 -0.1211 -0.5897
 1832SOL    HW2 7381   2.697   0.976   3.099 -0.9186 -1.2590  0.7382
 1832SOL    HW3 7382   2.791   0.859   3.080 -0.3814 -0.4736 -1.6443
 1832SOL    MW4 7383   2.724   0.908   3.052 -0.7365 -0.3178 -0.5538
 1833SOL     OW 7384   2.687   1.141   3.194  0.1206  0.4447 -0.1179
 1833SOL    HW2 7385   2.765   1.170   3.148 -0.4367 -0.1993 -1.4969
 1833SOL    HW3 7386   2.614   1.176   3.143 -0.5164 -1.0786 -0.2710
 1833SOL    MW4 7387   2.688   1.149   3.181 -0.0365  0.1588 -0.3202
 1834SOL     OW 7388   2.910   1.236   3.053  0.1140  0.1970  0.0691
 1834SOL    HW2 7389   2.994   1.208   3.088 -0.4366 -0.6095  0.7840
 1834SOL    HW3 7390   2.905   1.329   3.071  0.4669  0.0679  0.8382
 1834SOL    MW4 7391   2.920   1.244   3.060  0.0877  0.0734  0.2651
 1835SOL     OW 7392   2.895   1.506   3.117  0.5070 -0.1258  0.1606
 1835SOL    HW2 7393   2.900   1.502   3.212  1.4613 -0.3633  0.1055
 1835SOL    HW3 7394   2.979   1.542   3.090  0.0760  0.3318 -0.5682
 1835SOL    MW4 7395   2.907   1.510   3.126  0.5758 -0.0968  0.0575
 1836SOL     OW 7396   2.680   1.698   3.083  0.1277 -0.1925  0.3521
 1836SOL    HW2 7397   2.766   1.658   3.092  0.3075  0.3029  0.9164
 1836SOL    HW3 7398   2.618   1.627   3.100  0.4127 -0.6736 -0.5981
 1836SOL    MW4 7399   2.683   1.684   3.087  0.1891 -0.1905  0.3011
 1837SOL     OW 7400   2.681   1.982   3.140 -0.4428  0.1797 -0.0832
 1837SOL    HW2 7401   2.761   2.011   3.097  0.6275 -0.9175  1.1279
 1837SOL    HW3 7402   2.685   1.886   3.135 -1.3553  0.1029  0.5618
 1837SOL    MW4 7403   2.692   1.973   3.134 -0.4220  0.0249  0.1614
 1838SOL     OW 7404   2.956   2.022   3.057 -0.1371 -0.2715  0.4872
 1838SOL    HW2 7405   2.979   2.112   3.081  0.5777 -0.5657  0.9168
 1838SOL    HW3 7406   2.953   2.023   2.962 -1.6125  0.5709  0.5299
 1838SOL    MW4 7407   2.959   2.034   3.048 -0.2372 -0.1993  0.5496
 1839SOL     OW 7408   2.972   2.291   3.128  0.0881  0.0524  0.7008
 1839SOL    HW2 7409   3.040   2.359   3.119 -0.0907  0.0286 -1.0131
 1839SOL    HW3 7410   2.891   2.336   3.107 -0.0549 -0.6417 -0.2687
 1839SOL    MW4 7411   2.971   2.306   3.124  0.0455 -0.0424  0.3467
 1840SOL     OW 7412   2.696   2.420   3.054 -0.1763 -0.0408 -0.0854
 1840SOL    HW2 7413   2.686   2.511   3.081  2.4399  0.4765 -0.7083
 1840SOL    HW3 7414   2.608   2.383   3.060 -0.9961  2.0875  1.7241
 1840SOL    MW4 7415   2.683   2.427   3.059  0.0608  0.3083  0.0710
 1841SOL     OW 7416   2.670   2.684   3.102 -0.2544 -0.3870  0.2961
 1841SOL    HW2 7417   2.683   2.684   3.197 -1.3830 -2.3674  0.4771
 1841SOL    HW3 7418   2.596   2.743   3.088 -1.7282 -2.0366  0.9270
 1841SOL    MW4 7419   2.662   2.692   3.113 -0.5977 -0.8659  0.4032
 1842SOL     OW 7420   2.890   2.851   3.064 -0.0679  0.3705 -0.3061
 1842SOL    HW2 7421   2.964   2.812   3.110  0.1096 -1.0156 -1.7151
 1842SOL    HW3 7422   2.815   2.797   3.088 -0.2290  0.4788 -0.5609
 1842SOL    MW4 7423   2.890   2.839   3.073 -0.0658  0.2019 -0.5257
 1843SOL     OW 7424   2.883   3.129   3.095 -0.1429  0.0523  0.1831
 1843SOL    HW2 7425   2.812   3.158   3.038  0.4006 -0.0643 -0.5592
 1843SOL    HW3 7426   2.883   3.034   3.087 -0.4523 -0.0080  0.8483
 1843SOL    MW4 7427   2.873   3.120   3.087 -0.1121  0.0291  0.1726
 1844SOL     OW 7428   2.650   3.216   2.987  0.5290  0.4311  0.0229
 1844SOL    HW2 7429   2.655   3.307   3.016 -1.7011  0.6564 -0.1935
 1844SOL    HW3 7430   2.671   3.219   2.893 -0.9288  0.9260 -0.2937
 1844SOL    MW4 7431   2.654   3.228   2.978  0.0427  0.5262 -0.0474
 1845SOL     OW 7432   2.668   3.468   3.113 -0.1348  0.1503  0.1641
 1845SOL    HW2 7433   2.668   3.477   3.209  1.0789 -1.3530  0.3236
 1845SOL    HW3 7434   2.750   3.508   3.085  1.0221 -2.2281  0.0645
 1845SOL    MW4 7435   2.679   3.475   3.122  0.1783 -0.3617  0.1721
 1846SOL     OW 7436   2.935   3.556   3.016  0.1801 -0.4468 -0.1801
 1846SOL    HW2 7437   3.009   3.532   3.072 -0.8318 -2.6779  0.2492
 1846SOL    HW3 7438   2.913   3.646   3.043  0.0037 -1.3043  2.6851
 1846SOL    MW4 7439   2.942   3.565   3.027  0.0234 -0.8543  0.2544
 1847SOL     OW 7440   2.904   3.846   3.090  0.2989  0.0975  0.0476
 1847SOL    HW2 7441   2.914   3.848   3.185 -0.6617  0.5261  0.1420
 1847SOL    HW3 7442   2.826   3.899   3.073  1.3158  1.2664 -1.0941
 1847SOL    MW4 7443   2.895   3.853   3.100  0.3066  0.3085 -0.0906
 1848SOL     OW 7444   2.687   3.982   3.028  0.1066  0.3970  0.0726
 1848SOL    HW2 7445   2.708   4.067   3.067  1.7760 -0.1257  0.3592
 1848SOL    HW3 7446   2.684   3.999   2.934  1.8328  0.5039  0.0250
 1848SOL    MW4 7447   2.689   3.996   3.020  0.5543  0.3421  0.1044
 1849SOL     OW 7448   2.732   4.224   3.148  0.4405  0.2387  0.5584
 1849SOL    HW2 7449   2.740   4.227   3.243  1.5100  0.5646  0.4677
 1849SOL    HW3 7450   2.646   4.262   3.129 -0.7922 -2.0051  1.5212
 1849SOL    MW4 7451   2.721   4.230   3.158  0.4191 -0.0143  0.6733
 1850SOL     OW 7452   2.930   4.390   3.043 -0.5630 -0.1710 -0.0408
 1850SOL    HW2 7453   3.008   4.349   3.080 -0.2615 -0.3668 -0.8924
 1850SOL    HW3 7454   2.857   4.333   3.071 -0.0906 -1.6204 -1.7126
 1850SOL    MW4 7455   2.930   4.377   3.052 -0.4611 -0.3877 -0.3736
 1851SOL     OW 7456   3.381   4.646   3.102 -0.2191  0.2531 -0.0176
 1851SOL    HW2 7457   3.456   4.690   3.062 -1.5505  1.9902 -0.7020
 1851SOL    HW3 7458   3.379   4.559   3.062  1.2679  0.2866 -0.1758
 1851SOL    MW4 7459   3.390   4.641   3.091 -0.1981  0.4869 -0.1287
 1852SOL     OW 7460   3.145   0.115   3.023  0.2370 -0.0694 -0.3552
 1852SOL    HW2 7461   3.147   0.196   3.074  1.1555 -0.7429  0.7151
 1852SOL    HW3 7462   3.223   0.067   3.052  0.4801 -0.7094 -2.0179
 1852SOL    MW4 7463   3.156   0.120   3.034  0.3903 -0.2427 -0.4334
 1853SOL     OW 7464   3.146   0.388   3.143  0.1722 -0.4038 -0.1759
 1853SOL    HW2 7465   3.214   0.409   3.078  0.5618  1.5172  0.8348
 1853SOL    HW3 7466   3.065   0.419   3.104  0.1360 -0.9880 -0.5692
 1853SOL    MW4 7467   3.145   0.395   3.129  0.2189 -0.2274 -0.0942
 1854SOL     OW 7468   3.344   0.478   2.982 -1.1432  0.4108 -0.2325
 1854SOL    HW2 7469   3.424   0.434   3.011  0.0330  1.9583 -0.9970
 1854SOL    HW3 7470   3.355   0.487   2.887 -1.5729  1.8807 -0.1664
 1854SOL    MW4 7471   3.356   0.474   2.973 -1.0448  0.8089 -0.3247
 1855SOL     OW 7472   3.365   0.732   3.068 -0.0997 -0.4735 -0.1225
 1855SOL    HW2 7473   3.349   0.736   3.162  0.8062 -2.5162  0.1389
 1855SOL    HW3 7474   3.349   0.641   3.044 -0.4715  0.0530 -1.9868
 1855SOL    MW4 7475   3.361   0.720   3.077 -0.0293 -0.6736 -0.3340
 1856SOL     OW 7476   3.154   0.913   3.039 -0.1052  0.1501 -0.0489
 1856SOL    HW2 7477   3.233   0.858   3.040 -0.2239 -0.0304 -0.5570
 1856SOL    HW3 7478   3.084   0.855   3.070 -0.0005  0.3684  0.5956
 1856SOL    MW4 7479   3.156   0.898   3.043 -0.1070  0.1552 -0.0308
 1857SOL     OW 7480   3.166   1.179   3.150 -0.0681 -0.5943 -0.2284
 1857SOL    HW2 7481   3.224   1.234   3.097  0.3020 -0.2183  0.5485
 1857SOL    HW3 7482   3.179   1.090   3.116  0.4978 -0.4202 -0.4696
 1857SOL    MW4 7483   3.176   1.174   3.138  0.0553 -0.5215 -0.1576
 1858SOL     OW 7484   3.344   1.315   3.011 -0.1849 -0.6270 -0.0473
 1858SOL    HW2 7485   3.411   1.259   3.052 -0.1890 -0.4488  0.2023
 1858SOL    HW3 7486   3.352   1.399   3.056  0.9184  0.0912 -1.5131
 1858SOL    MW4 7487   3.354   1.319   3.022 -0.0396 -0.5088 -0.2079
 1859SOL     OW 7488   3.381   1.540   3.160 -0.6422 -0.1274  0.1810
 1859SOL    HW2 7489   3.399   1.528   3.253 -1.3179  0.5091  0.3998
 1859SOL    HW3 7490   3.459   1.585   3.126 -0.9595  0.8328  0.7111
 1859SOL    MW4 7491   3.394   1.545   3.168 -0.7734  0.0833  0.2799
 1860SOL     OW 7492   3.150   1.630   3.058 -0.0118 -0.4037  0.6571
 1860SOL    HW2 7493   3.234   1.611   3.100 -0.0734 -0.7217  0.6369
 1860SOL    HW3 7494   3.173   1.652   2.967 -0.0389 -1.4470  0.3987
 1860SOL    MW4 7495   3.164   1.631   3.051 -0.0234 -0.5834  0.6201
 1861SOL     OW 7496   3.178   1.891   3.133 -0.4422 -0.5180 -0.3305
 1861SOL    HW2 7497   3.180   1.801   3.102 -0.4164 -0.5734 -0.1703
 1861SOL    HW3 7498   3.096   1.927   3.099  0.6622  0.1277 -2.4139
 1861SOL    MW4 7499   3.168   1.884   3.125 -0.2933 -0.4401 -0.5844
 1862SOL     OW 7500   3.405   2.045   3.012 -0.3539 -0.0816 -0.3987
 1862SOL    HW2 7501   3.478   2.004   3.059  0.3700  2.4875  0.8711
 1862SOL    HW3 7502   3.327   2.014   3.058  0.1660 -0.1161  0.4808
 1862SOL    MW4 7503   3.404   2.036   3.025 -0.1898  0.2530 -0.1156
 1863SOL     OW 7504   3.383   2.319   3.125  0.1807  0.1817 -0.2543
 1863SOL    HW2 7505   3.409   2.290   3.212 -0.9259  1.4975  0.5351
 1863SOL    HW3 7506   3.387   2.240   3.071  1.8474 -0.4459  0.7545
 1863SOL    MW4 7507   3.387   2.305   3.129  0.2544  0.2725 -0.0172
 1864SOL     OW 7508   3.175   2.485   3.070 -0.0315 -0.0484 -0.0388
 1864SOL    HW2 7509   3.242   2.420   3.093  0.3536  0.8832  1.5008
 1864SOL    HW3 7510   3.162   2.473   2.975  3.4611  0.8116 -0.6923
 1864SOL    MW4 7511   3.182   2.475   3.060  0.4802  0.1881  0.0780
 1865SOL     OW 7512   3.130   2.749   3.145  0.2866  0.2700 -0.0329
 1865SOL    HW2 7513   3.136   2.742   3.241  0.8001  1.0785 -0.0075
 1865SOL    HW3 7514   3.151   2.661   3.114  0.1365  0.0039  0.5904
 1865SOL    MW4 7515   3.133   2.737   3.154  0.3343  0.3417  0.0527
 1866SOL     OW 7516   3.373   2.823   3.035 -0.3559 -0.5650  0.0266
 1866SOL    HW2 7517   3.390   2.914   3.059  0.2608 -0.5233 -0.5549
 1866SOL    HW3 7518   3.290   2.802   3.077  0.3375 -0.2574  1.5686
 1866SOL    MW4 7519   3.365   2.832   3.044 -0.1831 -0.5190  0.1538
 1867SOL     OW 7520   3.400   3.091   3.114 -0.4078  0.0212  0.0630
 1867SOL    HW2 7521   3.383   3.106   3.207 -0.2854 -0.1488  0.1137
 1867SOL    HW3 7522   3.327   3.133   3.069 -0.0305  0.8178  0.2003
 1867SOL    MW4 7523   3.388   3.098   3.121 -0.3417  0.1040  0.0880
 1868SOL     OW 7524   3.160   3.197   3.015  0.4898 -0.0820  0.3487
 1868SOL    HW2 7525   3.072   3.173   3.044 -0.3121  1.4878 -0.7736
 1868SOL    HW3 7526   3.153   3.207   2.920  1.6050  1.2294  0.3954
 1868SOL    MW4 7527   3.148   3.195   3.006  0.5312  0.2980  0.2065
 1869SOL     OW 7528   3.148   3.434   3.147 -0.0429 -0.3084  0.0982
 1869SOL    HW2 7529   3.222   3.470   3.097 -0.9497  1.3077 -0.0971
 1869SOL    HW3 7530   3.138   3.345   3.113  0.4101  0.2098 -1.4634
 1869SOL    MW4 7531   3.157   3.427   3.136 -0.1028 -0.0267 -0.1335
 1870SOL     OW 7532   3.391   3.573   3.040  0.0708 -0.0412 -0.2804
 1870SOL    HW2 7533   3.462   3.536   3.092 -0.4030 -0.3651  0.1409
 1870SOL    HW3 7534   3.385   3.664   3.069  0.5485  0.0839 -0.5725
 1870SOL    MW4 7535   3.400   3.580   3.051  0.0710 -0.0675 -0.2635
 1871SOL     OW 7536   3.377   3.841   3.099  0.3809  0.1880  0.1677
 1871SOL    HW2 7537   3.392   3.859   3.192  0.3965 -0.6141  0.3244
 1871SOL    HW3 7538   3.296   3.887   3.079  0.5842  0.6991  0.4743
 1871SOL    MW4 7539   3.369   3.850   3.109  0.4098  0.1495  0.2289
 1872SOL     OW 7540   3.138   3.984   3.040 -0.3627  0.5323  0.5707
 1872SOL    HW2 7541   3.060   3.936   3.067  0.0356 -0.3875  0.1068
 1872SOL    HW3 7542   3.127   3.996   2.945  0.6524 -0.7134  0.2818
 1872SOL    MW4 7543   3.126   3.979   3.031 -0.1762  0.2465  0.4716
 1873SOL     OW 7544   3.159   4.246   3.154  0.0713 -0.2854  0.3125
 1873SOL    HW2 7545   3.159   4.245   3.249  0.4755 -0.7947  0.3046
 1873SOL    HW3 7546   3.146   4.155   3.128  0.2075 -0.1860 -0.1186
 1873SOL    MW4 7547   3.157   4.234   3.163  0.1423 -0.3395  0.2546
 1874SOL     OW 7548   3.366   4.385   3.010  0.1577  0.3146 -0.2169
 1874SOL    HW2 7549   3.442   4.349   3.056 -0.4390  0.9899  1.3476
 1874SOL    HW3 7550   3.292   4.334   3.045 -0.3264  0.9909 -0.2490
 1874SOL    MW4 7551   3.366   4.373   3.021  0.0153  0.4926 -0.0143
 1875SOL     OW 7552   3.807   4.634   3.060  0.2755  0.2032 -0.4711
 1875SOL    HW2 7553   3.795   4.540   3.053 -1.2895  0.1621  1.8854
 1875SOL    HW3 7554   3.734   4.672   3.010  0.4570  0.1427 -0.7786
 1875SOL    MW4 7555   3.795   4.627   3.053  0.0930  0.1893 -0.2010
 1876SOL     OW 7556   3.574   0.123   2.972 -0.0389  0.1391 -0.2520
 1876SOL    HW2 7557   3.569   0.210   3.011  1.7338 -0.0971  0.5531
 1876SOL    HW3 7558   3.580   0.139   2.878  0.0919  0.8873 -0.1217
 1876SOL    MW4 7559   3.574   0.137   2.965  0.2122  0.2066 -0.1290
 1877SOL     OW 7560   3.585   0.373   3.071  0.1334  0.5812 -0.3302
 1877SOL    HW2 7561   3.595   0.386   3.166  0.5693 -0.9025 -0.1661
 1877SOL    HW3 7562   3.662   0.415   3.033  0.1003  0.9323 -0.0239
 1877SOL    MW4 7563   3.596   0.381   3.079  0.1867  0.4317 -0.2685
 1878SOL     OW 7564   3.784   0.542   2.977 -0.4832 -0.1617  0.3175
 1878SOL    HW2 7565   3.873   0.513   2.996 -0.5055  0.1454  0.9043
 1878SOL    HW3 7566   3.775   0.625   3.024 -1.2847 -0.4892  0.7567
 1878SOL    MW4 7567   3.794   0.549   2.986 -0.5920 -0.1643  0.4530
 1879SOL     OW 7568   3.797   0.784   3.095 -0.0871  0.1813  0.3791
 1879SOL    HW2 7569   3.815   0.780   3.189  0.9101 -1.9400  0.1230
 1879SOL    HW3 7570   3.871   0.831   3.058 -0.6038  1.2420  0.6711
 1879SOL    MW4 7571   3.809   0.789   3.103 -0.0236  0.0413  0.3839
 1880SOL     OW 7572   3.560   0.912   3.027  0.0418 -0.2359 -0.1623
 1880SOL    HW2 7573   3.640   0.867   3.056  0.0646  0.4122  0.8092
 1880SOL    HW3 7574   3.490   0.851   3.048  0.1632 -0.2455  0.2209
 1880SOL    MW4 7575   3.561   0.898   3.034  0.0608 -0.1516  0.0162
 1881SOL     OW 7576   3.562   1.158   3.158 -0.2357  0.4727  0.1731
 1881SOL    HW2 7577   3.634   1.213   3.126  0.7496  0.5009  2.3554
 1881SOL    HW3 7578   3.575   1.074   3.114  1.0136  0.5591  0.3483
 1881SOL    MW4 7579   3.573   1.154   3.148  0.0591  0.4878  0.4842
 1882SOL     OW 7580   3.794   1.269   3.018  0.1321 -0.0064 -0.2636
 1882SOL    HW2 7581   3.813   1.357   3.051  0.3773 -0.4164  0.7048
 1882SOL    HW3 7582   3.802   1.277   2.922 -0.7430  1.2298 -0.2485
 1882SOL    MW4 7583   3.798   1.282   3.009  0.0489  0.1025 -0.1338
 1883SOL     OW 7584   3.843   1.531   3.119 -0.5506  0.0167  0.0330
 1883SOL    HW2 7585   3.843   1.535   3.215 -0.3758 -2.5713  0.1814
 1883SOL    HW3 7586   3.763   1.578   3.093 -0.3695  1.1104  1.4026
 1883SOL    MW4 7587   3.832   1.538   3.128 -0.5035 -0.1805  0.2334
 1884SOL     OW 7588   3.603   1.660   3.061  0.2990 -0.0748 -0.1431
 1884SOL    HW2 7589   3.594   1.748   3.097  0.1872  0.5307 -1.5937
 1884SOL    HW3 7590   3.600   1.673   2.966  0.7140 -1.5975 -0.3782
 1884SOL    MW4 7591   3.602   1.673   3.053  0.3390 -0.1957 -0.3653
 1885SOL     OW 7592   3.614   1.934   3.135  0.3930 -0.0612  0.1410
 1885SOL    HW2 7593   3.627   1.955   3.228 -0.3195 -0.4897  0.3508
 1885SOL    HW3 7594   3.681   1.984   3.089  0.1591  0.8865  0.8088
 1885SOL    MW4 7595   3.624   1.943   3.141  0.2682  0.0073  0.2570
 1886SOL     OW 7596   3.829   2.075   3.014  0.2126 -0.4554 -0.1064
 1886SOL    HW2 7597   3.835   2.168   3.036 -1.1096 -0.5850  0.8822
 1886SOL    HW3 7598   3.831   2.072   2.918  1.5051  0.4895 -0.1089
 1886SOL    MW4 7599   3.830   2.087   3.004  0.2086 -0.3481  0.0236
 1887SOL     OW 7600   3.837   2.324   3.119 -0.2259  0.4647 -0.2111
 1887SOL    HW2 7601   3.829   2.289   3.208 -3.1659 -0.4472 -0.7617
 1887SOL    HW3 7602   3.757   2.376   3.107  1.3352  2.6547 -1.4550
 1887SOL    MW4 7603   3.825   2.327   3.129 -0.4077  0.6332 -0.4480
 1888SOL     OW 7604   3.610   2.471   3.016  0.5191  0.0981  0.3035
 1888SOL    HW2 7605   3.600   2.561   3.049 -2.0710  0.1821 -0.6116
 1888SOL    HW3 7606   3.527   2.429   3.036  0.4957 -1.1415 -2.2246
 1888SOL    MW4 7607   3.598   2.478   3.023  0.1743 -0.0544 -0.1507
 1889SOL     OW 7608   3.589   2.707   3.159 -0.5182 -0.1461 -0.3068
 1889SOL    HW2 7609   3.669   2.748   3.126 -0.3960 -0.3935 -0.3123
 1889SOL    HW3 7610   3.519   2.765   3.128 -0.4299 -0.5283 -1.2416
 1889SOL    MW4 7611   3.590   2.720   3.150 -0.4904 -0.2289 -0.4308
 1890SOL     OW 7612   3.796   2.848   3.059 -0.5513 -0.1426 -0.8300
 1890SOL    HW2 7613   3.788   2.940   3.086 -0.0642  0.2467 -1.9416
 1890SOL    HW3 7614   3.816   2.853   2.965  2.4786 -1.3249 -0.2847
 1890SOL    MW4 7615   3.798   2.861   3.050 -0.0875 -0.2472 -0.9046
 1891SOL     OW 7616   3.807   3.111   3.133  0.0720 -0.3616 -0.0764
 1891SOL    HW2 7617   3.878   3.171   3.112  0.5452 -1.1114 -0.6361
 1891SOL    HW3 7618   3.729   3.151   3.094 -0.0869  1.1747  1.7453
 1891SOL    MW4 7619   3.806   3.124   3.125  0.1135 -0.2580  0.0899
 1892SOL     OW 7620   3.602   3.254   3.033  0.0900 -0.0331 -0.1671
 1892SOL    HW2 7621   3.539   3.193   3.070  1.0742 -0.8238  0.2175
 1892SOL    HW3 7622   3.604   3.233   2.940  0.1953 -0.3860 -0.0863
 1892SOL    MW4 7623   3.594   3.243   3.026  0.2339 -0.1841 -0.1056
 1893SOL     OW 7624   3.609   3.488   3.175  0.2483 -0.2895 -0.0682
 1893SOL    HW2 7625   3.676   3.540   3.130  1.1969 -1.2587  0.1857
 1893SOL    HW3 7626   3.603   3.407   3.123  0.4271 -0.8691  0.7998
 1893SOL    MW4 7627   3.617   3.484   3.162  0.3970 -0.4942  0.0801
 1894SOL     OW 7628   3.813   3.606   3.040  0.5595  0.1869 -0.0518
 1894SOL    HW2 7629   3.832   3.696   3.067 -0.6566  0.3498  0.2955
 1894SOL    HW3 7630   3.816   3.609   2.944 -0.5638  0.8594 -0.0775
 1894SOL    MW4 7631   3.815   3.618   3.031  0.2508  0.2973 -0.0095
 1895SOL     OW 7632   3.845   3.870   3.131 -0.0716 -0.4273 -0.4346
 1895SOL    HW2 7633   3.825   3.857   3.223  0.6360  2.0649  0.1037
 1895SOL    HW3 7634   3.771   3.918   3.096  0.5694  0.4131 -0.6666
 1895SOL    MW4 7635   3.833   3.875   3.138  0.1063  0.0124 -0.3941
 1896SOL     OW 7636   3.608   3.988   3.035 -0.2494 -0.1498 -0.1992
 1896SOL    HW2 7637   3.540   3.921   3.039  1.6429 -2.1592 -0.4510
 1896SOL    HW3 7638   3.611   4.013   2.942  0.8538 -1.7273 -0.6222
 1896SOL    MW4 7639   3.600   3.982   3.023  0.1457 -0.6232 -0.2885
 1897SOL     OW 7640   3.586   4.255   3.134  0.1252 -0.8227 -0.5985
 1897SOL    HW2 7641   3.663   4.287   3.088 -0.0013 -0.3734 -0.5001
 1897SOL    HW3 7642   3.570   4.168   3.097 -0.1640 -0.3383 -1.6136
 1897SOL    MW4 7643   3.594   4.248   3.123  0.0706 -0.6995 -0.7195
 1898SOL     OW 7644   3.801   4.365   3.028 -0.6881 -0.4418  0.1106
 1898SOL    HW2 7645   3.878   4.320   3.062  0.4108  1.8273  0.7539
 1898SOL    HW3 7646   3.812   4.364   2.933 -0.5751 -1.3163  0.1277
 1898SOL    MW4 7647   3.813   4.359   3.020 -0.5281 -0.2580  0.1976
 1899SOL     OW 7648   4.232   4.625   3.096  0.3850  0.6215 -0.3767
 1899SOL    HW2 7649   4.234   4.610   3.190  0.1688  0.2102 -0.4397
 1899SOL    HW3 7650   4.222   4.538   3.057  0.6810  0.7673 -0.7868
 1899SOL    MW4 7651   4.231   4.612   3.103  0.3958  0.5865 -0.4392
 1900SOL     OW 7652   4.030   0.128   3.030 -0.1810 -0.1798 -0.0257
 1900SOL    HW2 7653   4.100   0.077   3.072  0.6548  0.8351 -0.1883
 1900SOL    HW3 7654   3.954   0.070   3.035  0.7517 -1.4655 -0.2034
 1900SOL    MW4 7655   4.029   0.113   3.036  0.0525 -0.2155 -0.0706
 1901SOL     OW 7656   4.004   0.405   3.079  0.3033 -0.6118  0.1800
 1901SOL    HW2 7657   4.095   0.434   3.072  0.2511 -0.4879  0.0291
 1901SOL    HW3 7658   4.008   0.311   3.061  0.3180 -0.4926 -0.4382
 1901SOL    MW4 7659   4.017   0.396   3.076  0.2985 -0.5797  0.0787
 1902SOL     OW 7660   4.270   0.490   3.032 -0.0079 -0.1232 -0.3207
 1902SOL    HW2 7661   4.256   0.578   3.067 -0.4327 -0.0314 -0.7209
 1902SOL    HW3 7662   4.251   0.498   2.938  1.2924 -0.3284 -0.6117
 1902SOL    MW4 7663   4.266   0.503   3.024  0.1078 -0.1382 -0.4122
 1903SOL     OW 7664   4.249   0.757   3.128  0.6822 -0.5497 -0.3185
 1903SOL    HW2 7665   4.172   0.805   3.097  0.6406 -0.7019 -0.4489
 1903SOL    HW3 7666   4.323   0.805   3.093  0.6331 -0.7563 -0.7032
 1903SOL    MW4 7667   4.248   0.769   3.120  0.6704 -0.5970 -0.3862
 1904SOL     OW 7668   4.033   0.906   3.022 -0.2399 -0.3184 -0.1567
 1904SOL    HW2 7669   4.046   1.000   3.036 -1.2259 -0.0901 -0.7086
 1904SOL    HW3 7670   4.048   0.893   2.929  0.1182 -0.7480 -0.0379
 1904SOL    MW4 7671   4.036   0.917   3.012 -0.3223 -0.3450 -0.2139
 1905SOL     OW 7672   4.064   1.178   3.079 -0.2315 -0.4606  0.2031
 1905SOL    HW2 7673   4.068   1.173   3.175 -0.9031 -0.6928  0.2221
 1905SOL    HW3 7674   3.972   1.197   3.060  0.4405  2.5727 -0.2769
 1905SOL    MW4 7675   4.053   1.180   3.089 -0.2313 -0.0912  0.1423
 1906SOL     OW 7676   4.303   1.317   3.026 -0.0348 -0.4044  0.2656
 1906SOL    HW2 7677   4.228   1.259   3.035 -0.1826 -0.2747 -0.1035
 1906SOL    HW3 7678   4.315   1.326   2.932 -0.5745  0.8768  0.3033
 1906SOL    MW4 7679   4.295   1.311   3.015 -0.1254 -0.2183  0.2220
 1907SOL     OW 7680   4.258   1.574   3.148 -0.1492  0.3908  0.1197
 1907SOL    HW2 7681   4.178   1.602   3.103  0.0213 -0.6203 -0.8261
 1907SOL    HW3 7682   4.286   1.496   3.101  0.5653 -0.1370  1.4018
 1907SOL    MW4 7683   4.251   1.568   3.136 -0.0324  0.1876  0.1640
 1908SOL     OW 7684   4.050   1.665   2.996 -0.0732  0.1372 -0.3774
 1908SOL    HW2 7685   4.044   1.754   3.031  0.3870 -0.1341  0.4031
 1908SOL    HW3 7686   3.979   1.617   3.040 -0.5637  0.2159 -1.0864
 1908SOL    MW4 7687   4.040   1.671   3.007 -0.0777  0.1118 -0.3681
 1909SOL     OW 7688   4.027   1.916   3.120 -0.0410 -0.0281 -0.4546
 1909SOL    HW2 7689   4.109   1.965   3.110 -1.1505  1.3620 -2.9487
 1909SOL    HW3 7690   3.958   1.979   3.100 -1.7122 -1.3941  0.8726
 1909SOL    MW4 7691   4.029   1.931   3.116 -0.4082 -0.0249 -0.6082
 1910SOL     OW 7692   4.260   2.041   3.075 -0.3434  0.0268  0.0877
 1910SOL    HW2 7693   4.273   2.130   3.110  0.3997  0.0161 -0.1630
 1910SOL    HW3 7694   4.249   2.054   2.981  2.2395 -0.3566 -0.3109
 1910SOL    MW4 7695   4.260   2.055   3.067  0.0944 -0.0250  0.0017
 1911SOL     OW 7696   4.273   2.324   3.157 -0.2486  0.1263  0.0191
 1911SOL    HW2 7697   4.192   2.360   3.120 -0.0716  0.3154 -0.1891
 1911SOL    HW3 7698   4.343   2.362   3.103 -0.0834 -0.8442 -0.4623
 1911SOL    MW4 7699   4.272   2.334   3.145 -0.2031  0.0234 -0.0718
 1912SOL     OW 7700   4.062   2.456   3.040 -0.2623 -0.0933 -0.3405
 1912SOL    HW2 7701   4.071   2.537   3.090  0.6838 -0.4549  0.0881
 1912SOL    HW3 7702   3.979   2.418   3.068 -0.3031  0.3094  0.0751
 1912SOL    MW4 7703   4.052   2.462   3.050 -0.1431 -0.0877 -0.2291
 1913SOL     OW 7704   4.059   2.731   3.128 -0.3626  0.3301  0.4050
 1913SOL    HW2 7705   4.061   2.729   3.224 -0.5533  0.6283  0.4176
 1913SOL    HW3 7706   3.973   2.767   3.107 -0.1298  0.7358  0.1310
 1913SOL    MW4 7707   4.048   2.735   3.138 -0.3567  0.4230  0.3703
 1914SOL     OW 7708   4.280   2.866   3.050 -0.2232  0.2763  0.7797
 1914SOL    HW2 7709   4.204   2.810   3.069 -0.2965  0.1470  0.1157
 1914SOL    HW3 7710   4.354   2.819   3.088 -0.4015  0.1499  0.9747
 1914SOL    MW4 7711   4.280   2.852   3.058 -0.2561  0.2429  0.7179
 1915SOL     OW 7712   4.235   3.109   3.166  0.1496  0.2796  0.3439
 1915SOL    HW2 7713   4.156   3.154   3.134  0.1944  0.5014  0.5413
 1915SOL    HW3 7714   4.240   3.029   3.114  0.3493  0.7551 -0.3761
 1915SOL    MW4 7715   4.225   3.105   3.155  0.1817  0.3717  0.2749
 1916SOL     OW 7716   4.031   3.241   3.050  0.0768  0.1878  0.0847
 1916SOL    HW2 7717   4.038   3.333   3.075  0.3749 -0.0935  1.0555
 1916SOL    HW3 7718   4.041   3.241   2.955 -1.7919  1.3606 -0.1389
 1916SOL    MW4 7719   4.033   3.253   3.041 -0.1302  0.3057  0.1831
 1917SOL     OW 7720   4.037   3.499   3.133  0.2217 -0.1783 -0.0927
 1917SOL    HW2 7721   4.032   3.481   3.227 -0.1541 -1.6195 -0.3680
 1917SOL    HW3 7722   3.949   3.529   3.110  0.1866 -0.2543 -0.0585
 1917SOL    MW4 7723   4.025   3.501   3.142  0.1678 -0.3784 -0.1247
 1918SOL     OW 7724   4.260   3.611   3.018  0.0917 -0.1495 -0.2270
 1918SOL    HW2 7725   4.273   3.703   3.040 -0.9113  0.1315 -0.7662
 1918SOL    HW3 7726   4.177   3.588   3.060 -0.6204 -0.2736 -1.6925
 1918SOL    MW4 7727   4.251   3.620   3.026 -0.1349 -0.1290 -0.4916
 1919SOL     OW 7728   4.276   3.872   3.102  0.0056  0.3122  0.1145
 1919SOL    HW2 7729   4.197   3.910   3.065  0.2985  0.4736 -0.3399
 1919SOL    HW3 7730   4.348   3.916   3.057  0.3564  0.0830  0.4426
 1919SOL    MW4 7731   4.275   3.883   3.091  0.0906  0.3035  0.0982
 1920SOL     OW 7732   4.064   3.995   2.985 -0.0566 -0.2846 -0.2119
 1920SOL    HW2 7733   4.072   4.086   3.013  0.6832  0.1216 -1.7035
 1920SOL    HW3 7734   3.994   3.959   3.041 -0.6496  1.3031  0.0985
 1920SOL    MW4 7735   4.056   4.002   2.996 -0.0377 -0.0215 -0.3676
 1921SOL     OW 7736   4.025   4.231   3.144  0.3331  0.0506 -0.0557
 1921SOL    HW2 7737   4.028   4.239   3.240 -0.6592  2.0607 -0.1792
 1921SOL    HW3 7738   4.099   4.284   3.114  1.2555 -1.3864 -0.3894
 1921SOL    MW4 7739   4.035   4.239   3.153  0.3233  0.1268 -0.1161
 1922SOL     OW 7740   4.233   4.354   3.038 -0.0994  0.0118  0.0528
 1922SOL    HW2 7741   4.318   4.339   3.081 -1.1031 -1.1749  1.7075
 1922SOL    HW3 7742   4.250   4.336   2.945  1.1220 -1.7598  0.5794
 1922SOL    MW4 7743   4.246   4.349   3.031 -0.0706 -0.3781  0.3407
 1923SOL     OW 7744   0.233   0.011   3.398  0.0135  0.1269 -0.2228
 1923SOL    HW2 7745   0.312   0.032   3.448  0.3081  0.6551 -0.8979
 1923SOL    HW3 7746   0.212  -0.079   3.422  0.3367  0.2744  0.6033
 1923SOL    MW4 7747   0.241   0.002   3.407  0.0950  0.2160 -0.2024
 1924SOL     OW 7748   0.002   0.128   3.492 -0.2415  0.6241  0.3438
 1924SOL    HW2 7749   0.012   0.217   3.460 -1.1049  0.2605 -0.9681
 1924SOL    HW3 7750   0.070   0.078   3.446 -0.3510  0.4330  0.3870
 1924SOL    MW4 7751   0.012   0.133   3.482 -0.3698  0.5509  0.1764
 1925SOL     OW 7752   0.021   0.375   3.408  0.1043 -0.0390  0.2084
 1925SOL    HW2 7753  -0.060   0.410   3.443  0.0513  0.3729 -0.3169
 1925SOL    HW3 7754   0.089   0.434   3.441  0.0198  0.5397 -0.6346
 1925SOL    MW4 7755   0.019   0.388   3.417  0.0861  0.0917  0.0281
 1926SOL     OW 7756   0.209   0.565   3.525 -0.1661 -0.3412  0.1406
 1926SOL    HW2 7757   0.279   0.506   3.498  0.6022  0.6782 -0.1036
 1926SOL    HW3 7758   0.218   0.641   3.468 -1.0644  0.0794  0.5442
 1926SOL    MW4 7759   0.219   0.567   3.514 -0.1833 -0.1513  0.1619
 1927SOL     OW 7760   0.222   0.799   3.388 -0.0787  0.2030  0.0341
 1927SOL    HW2 7761   0.298   0.853   3.410  0.2932 -0.4580  0.3825
 1927SOL    HW3 7762   0.151   0.835   3.441  0.0981  0.5206  0.0601
 1927SOL    MW4 7763   0.223   0.811   3.398 -0.0063  0.1577  0.0837
 1928SOL     OW 7764   4.474   0.887   3.503 -0.7370 -0.1813 -0.1428
 1928SOL    HW2 7765   4.493   0.906   3.594 -3.3883  2.4392 -0.0747
 1928SOL    HW3 7766   4.500   0.965   3.455 -2.0970 -0.3594 -1.2332
 1928SOL    MW4 7767   4.480   0.900   3.508 -1.2663  0.1409 -0.2773
 1929SOL     OW 7768   0.015   1.163   3.396 -0.1739  0.3703 -0.6935
 1929SOL    HW2 7769   0.083   1.219   3.434 -0.8588  0.8794 -0.2169
 1929SOL    HW3 7770   0.023   1.177   3.301  2.1348 -1.5814 -0.8408
 1929SOL    MW4 7771   0.025   1.172   3.388  0.0410  0.1799 -0.6499
 1930SOL     OW 7772   0.239   1.314   3.482  0.2748 -0.3634 -0.1829
 1930SOL    HW2 7773   0.306   1.254   3.449  0.2048  0.6705 -2.2783
 1930SOL    HW3 7774   0.254   1.396   3.434 -0.5865  0.8348  1.5259
 1930SOL    MW4 7775   0.250   1.317   3.471  0.1520 -0.0689 -0.2339
 1931SOL     OW 7776   0.222   1.573   3.357 -0.0358  0.3007 -0.6870
 1931SOL    HW2 7777   0.294   1.635   3.374 -0.4093  0.5688 -0.0712
 1931SOL    HW3 7778   0.225   1.559   3.262  1.0394  0.0504 -0.6242
 1931SOL    MW4 7779   0.232   1.580   3.347  0.0568  0.3030 -0.5977
 1932SOL     OW 7780   4.482   1.667   3.469 -0.3463  0.1082  0.4872
 1932SOL    HW2 7781   4.401   1.622   3.446 -0.2135  0.3846 -0.5612
 1932SOL    HW3 7782   4.549   1.622   3.417 -0.0040  0.6172  0.4889
 1932SOL    MW4 7783   4.480   1.655   3.459 -0.2837  0.2117  0.3490
 1933SOL     OW 7784   4.487   1.928   3.406  0.3108 -0.1088 -0.2953
 1933SOL    HW2 7785   4.482   1.836   3.431  1.4509 -0.0057  0.3349
 1933SOL    HW3 7786   4.501   1.927   3.311 -1.1095 -0.5487 -0.5124
 1933SOL    MW4 7787   4.488   1.916   3.396  0.2738 -0.1532 -0.2408
 1934SOL     OW 7788   0.232   2.045   3.477  0.1524 -0.3508 -0.2724
 1934SOL    HW2 7789   0.233   2.050   3.573  0.4138 -0.5291 -0.2644
 1934SOL    HW3 7790   0.153   1.994   3.457  0.4023 -0.7992 -0.1248
 1934SOL    MW4 7791   0.222   2.039   3.487  0.2198 -0.4334 -0.2518
 1935SOL     OW 7792   0.210   2.306   3.371 -0.0194  0.3586  0.5420
 1935SOL    HW2 7793   0.135   2.352   3.408 -1.5767 -0.6927 -1.2312
 1935SOL    HW3 7794   0.204   2.218   3.408 -1.0494 -0.4213 -1.3852
 1935SOL    MW4 7795   0.199   2.300   3.381 -0.3608  0.1171  0.0534
 1936SOL     OW 7796   0.009   2.456   3.484 -0.4519  0.4885  0.1196
 1936SOL    HW2 7797   0.021   2.452   3.579 -1.1754  0.1010  0.2052
 1936SOL    HW3 7798  -0.083   2.431   3.471  0.5625 -2.9855 -0.9485
 1936SOL    MW4 7799  -0.002   2.452   3.495 -0.4135 -0.0212 -0.0100
 1937SOL     OW 7800   4.466   2.735   3.422 -0.4090  0.5156  0.0353
 1937SOL    HW2 7801   4.559   2.740   3.445 -0.6771  0.7156  1.1184
 1937SOL    HW3 7802   4.444   2.642   3.429 -0.2189  0.4276 -0.5209
 1937SOL    MW4 7803   4.476   2.723   3.426 -0.4191  0.5302  0.1047
 1938SOL     OW 7804   0.219   2.810   3.529  0.0960 -0.4011 -0.1751
 1938SOL    HW2 7805   0.299   2.774   3.491 -0.2017  0.2136 -1.4142
 1938SOL    HW3 7806   0.209   2.896   3.489 -1.5089 -0.7117 -0.5147
 1938SOL    MW4 7807   0.228   2.816   3.519 -0.1550 -0.3610 -0.3834
 1939SOL     OW 7808   0.225   3.071   3.431  0.2504 -0.0928  0.1967
 1939SOL    HW2 7809   0.149   3.120   3.461  1.2619  1.3130  0.4803
 1939SOL    HW3 7810   0.230   3.090   3.337 -0.4722 -1.1909 -0.0773
 1939SOL    MW4 7811   0.215   3.080   3.423  0.2885 -0.0520  0.1976
 1940SOL     OW 7812   0.005   3.211   3.492  0.6057  0.2092 -0.0534
 1940SOL    HW2 7813  -0.082   3.173   3.477  1.0315 -1.2225  0.9864
 1940SOL    HW3 7814  -0.005   3.303   3.468 -0.7245 -0.3260 -1.6555
 1940SOL    MW4 7815  -0.008   3.218   3.487  0.4864 -0.0503 -0.1276
 1941SOL     OW 7816   4.477   3.471   3.408  0.5406  0.0531 -0.1230
 1941SOL    HW2 7817   4.391   3.511   3.419  1.5657  2.4943 -0.7167
 1941SOL    HW3 7818   4.501   3.489   3.317  0.8997 -2.2354 -0.5264
 1941SOL    MW4 7819   4.469   3.478   3.398  0.7234  0.0732 -0.2546
 1942SOL     OW 7820   0.214   3.589   3.519 -0.0180  0.0875 -0.1329
 1942SOL    HW2 7821   0.200   3.599   3.613  0.4107  0.8393 -0.1424
 1942SOL    HW3 7822   0.142   3.534   3.489 -0.0684 -0.2784  0.6608
 1942SOL    MW4 7823   0.203   3.583   3.527  0.0319  0.1385 -0.0293
 1943SOL     OW 7824   0.236   3.854   3.384  0.2213  0.1274  0.1090
 1943SOL    HW2 7825   0.150   3.884   3.413  0.1178  0.1900 -0.2660
 1943SOL    HW3 7826   0.238   3.761   3.407  0.1171  0.1627  0.2618
 1943SOL    MW4 7827   0.225   3.845   3.391  0.1939  0.1404  0.0796
 1944SOL     OW 7828   4.475   3.972   3.472  0.2445 -0.1701 -0.3122
 1944SOL    HW2 7829   4.488   3.977   3.567 -0.0199 -1.3903 -0.2034
 1944SOL    HW3 7830   4.480   4.063   3.443  0.5258  0.2002  0.8451
 1944SOL    MW4 7831   4.477   3.985   3.481  0.2465 -0.2823 -0.1452
 1945SOL     OW 7832   0.036   4.239   3.408  0.0699 -0.5149 -0.0987
 1945SOL    HW2 7833  -0.026   4.301   3.444 -0.0921 -1.3196  1.0112
 1945SOL    HW3 7834   0.122   4.278   3.425 -0.0533 -0.3004  0.0304
 1945SOL    MW4 7835   0.040   4.252   3.415  0.0323 -0.5922  0.0651
 1946SOL     OW 7836   0.254   4.420   3.496  0.6206  0.2638 -0.1955
 1946SOL    HW2 7837   0.242   4.393   3.587  1.8659  0.7695  0.1189
 1946SOL    HW3 7838   0.315   4.356   3.460  1.2093  0.8757 -0.2902
 1946SOL    MW4 7839   0.260   4.408   3.503  0.8626  0.4110 -0.1667
 1947SOL     OW 7840   0.648   4.643   3.403  0.1965  0.3885  0.2089
 1947SOL    HW2 7841   0.734   4.672   3.436 -0.5856  1.7944  1.0793
 1947SOL    HW3 7842   0.656   4.648   3.308  0.7403  1.5684  0.3064
 1947SOL    MW4 7843   0.661   4.648   3.395  0.1649  0.7291  0.3364
 1948SOL     OW 7844   0.446   0.142   3.510  0.3061  0.0507 -0.2196
 1948SOL    HW2 7845   0.454   0.131   3.605 -1.1170 -0.2395 -0.1260
 1948SOL    HW3 7846   0.506   0.076   3.474  0.2688 -0.3712  0.4703
 1948SOL    MW4 7847   0.455   0.132   3.518  0.1134 -0.0432 -0.1161
 1949SOL     OW 7848   0.418   0.411   3.405  0.2995  0.1413 -0.1310
 1949SOL    HW2 7849   0.491   0.466   3.434 -0.1060  0.3138  0.5919
 1949SOL    HW3 7850   0.437   0.324   3.440 -0.2530  0.3781  0.7806
 1949SOL    MW4 7851   0.430   0.407   3.413  0.1731  0.1953  0.0846
 1950SOL     OW 7852   0.655   0.526   3.493 -0.0305  0.6848 -0.0112
 1950SOL    HW2 7853   0.658   0.519   3.588  0.4390  1.3841  0.0270
 1950SOL    HW3 7854   0.724   0.467   3.462 -0.5568  0.0296  0.0598
 1950SOL    MW4 7855   0.664   0.517   3.502 -0.0380  0.6906  0.0031
 1951SOL     OW 7856   0.725   0.755   3.364 -0.1990  0.0042  0.4500
 1951SOL    HW2 7857   0.638   0.793   3.380 -0.2659  0.1365 -0.1985
 1951SOL    HW3 7858   0.718   0.665   3.397 -0.8300 -0.2276 -0.2782
 1951SOL    MW4 7859   0.712   0.748   3.370 -0.2911 -0.0089  0.2682
 1952SOL     OW 7860   0.477   0.869   3.468  0.4726 -0.2797 -0.0525
 1952SOL    HW2 7861   0.473   0.870   3.564 -0.9002 -0.3430 -0.0955
 1952SOL    HW3 7862   0.462   0.960   3.443  0.5041 -0.3182 -0.2113
 1952SOL    MW4 7863   0.474   0.881   3.477  0.2956 -0.2931 -0.0792
 1953SOL     OW 7864   0.433   1.128   3.395  0.6661  0.1908 -0.2426
 1953SOL    HW2 7865   0.512   1.162   3.436  0.8022  0.0300 -0.3708
 1953SOL    HW3 7866   0.452   1.129   3.301  0.1130  1.1785 -0.3535
 1953SOL    MW4 7867   0.446   1.132   3.388  0.6111  0.2998 -0.2739
 1954SOL     OW 7868   0.653   1.253   3.493  0.0953  0.8762 -0.1379
 1954SOL    HW2 7869   0.737   1.216   3.464 -0.2122 -0.0501  0.1397
 1954SOL    HW3 7870   0.648   1.337   3.448  0.6443  0.4388 -1.0526
 1954SOL    MW4 7871   0.664   1.259   3.483  0.1272  0.6963 -0.2215
 1955SOL     OW 7872   0.636   1.503   3.361 -0.0279  0.4295  0.3030
 1955SOL    HW2 7873   0.704   1.552   3.406 -1.1259  2.3756 -0.0875
 1955SOL    HW3 7874   0.557   1.555   3.373 -1.1911 -1.1420 -0.3255
 1955SOL    MW4 7875   0.634   1.516   3.368 -0.3263  0.4790  0.1686
 1956SOL     OW 7876   0.452   1.720   3.410  0.1192  0.3913 -0.1618
 1956SOL    HW2 7877   0.451   1.710   3.505  1.2448 -0.6963 -0.2464
 1956SOL    HW3 7878   0.455   1.815   3.396 -1.9813  0.6306  0.8320
 1956SOL    MW4 7879   0.452   1.731   3.421 -0.0094  0.2793 -0.0420
 1957SOL     OW 7880   0.476   1.985   3.366 -0.1224  0.0063  0.1062
 1957SOL    HW2 7881   0.393   2.017   3.402 -0.9482 -1.5161 -0.3836
 1957SOL    HW3 7882   0.458   1.973   3.272  0.5140 -0.7216  0.0697
 1957SOL    MW4 7883   0.462   1.987   3.358 -0.1474 -0.2906  0.0370
 1958SOL     OW 7884   0.717   2.094   3.487 -0.4020  0.7277 -0.1277
 1958SOL    HW2 7885   0.699   2.075   3.579 -1.5758  1.3957 -0.2087
 1958SOL    HW3 7886   0.642   2.059   3.440  0.8635 -0.8848 -0.9852
 1958SOL    MW4 7887   0.705   2.087   3.493 -0.3899  0.6030 -0.2513
 1959SOL     OW 7888   0.677   2.337   3.368  0.1640 -0.1371 -0.0069
 1959SOL    HW2 7889   0.745   2.383   3.417 -1.3468  0.1393  1.8792
 1959SOL    HW3 7890   0.690   2.244   3.390 -1.3818  0.1148  2.0749
 1959SOL    MW4 7891   0.688   2.331   3.377 -0.2393 -0.0672  0.5169
 1960SOL     OW 7892   0.435   2.442   3.489  0.0424  0.2128 -0.1113
 1960SOL    HW2 7893   0.516   2.414   3.445 -0.0692 -0.4474  0.1066
 1960SOL    HW3 7894   0.365   2.397   3.443 -0.1756  0.4605 -0.0282
 1960SOL    MW4 7895   0.437   2.433   3.477 -0.0010  0.1585 -0.0715
 1961SOL     OW 7896   0.459   2.710   3.377  0.1247 -0.2273  0.1312
 1961SOL    HW2 7897   0.456   2.616   3.396  2.0082 -0.3517 -0.1003
 1961SOL    HW3 7898   0.463   2.715   3.281  1.0592  0.0437  0.1775
 1961SOL    MW4 7899   0.459   2.698   3.367  0.4965 -0.2081  0.1070
 1962SOL     OW 7900   0.677   2.843   3.463  0.1724 -0.4584 -0.1004
 1962SOL    HW2 7901   0.753   2.794   3.431  0.3550 -1.0378  1.2003
 1962SOL    HW3 7902   0.601   2.793   3.433  0.3457 -1.1409  0.5902
 1962SOL    MW4 7903   0.677   2.830   3.455  0.2193 -0.6249  0.1624
 1963SOL     OW 7904   0.678   3.110   3.402 -0.1754 -0.3226 -0.1953
 1963SOL    HW2 7905   0.603   3.153   3.441  0.3734  0.3482  0.1259
 1963SOL    HW3 7906   0.677   3.022   3.439 -0.8665 -0.3556 -0.2812
 1963SOL    MW4 7907   0.668   3.104   3.412 -0.1942 -0.2387 -0.1640
 1964SOL     OW 7908   0.459   3.207   3.517  0.4231 -0.1298  0.2308
 1964SOL    HW2 7909   0.452   3.222   3.612  0.2400  0.6123  0.1061
 1964SOL    HW3 7910   0.381   3.158   3.494  0.4440 -0.2707  0.4563
 1964SOL    MW4 7911   0.448   3.203   3.527  0.4017 -0.0503  0.2441
 1965SOL     OW 7912   0.436   3.470   3.403  0.2208 -0.6121 -0.5715
 1965SOL    HW2 7913   0.439   3.386   3.448  0.4884 -0.0262  0.5269
 1965SOL    HW3 7914   0.352   3.508   3.430  0.4516 -0.1938 -0.4458
 1965SOL    MW4 7915   0.425   3.464   3.412  0.2866 -0.4795 -0.4098
 1966SOL     OW 7916   0.652   3.571   3.540 -0.0339  0.4299  0.4259
 1966SOL    HW2 7917   0.728   3.533   3.495  0.5295  1.4496  0.5103
 1966SOL    HW3 7918   0.577   3.539   3.490  0.5542  0.9987 -0.8573
 1966SOL    MW4 7919   0.653   3.562   3.527  0.1180  0.6394  0.2677
 1967SOL     OW 7920   0.668   3.829   3.431 -0.4120  0.0902 -0.4051
 1967SOL    HW2 7921   0.590   3.877   3.461  0.2809  0.0390  1.5241
 1967SOL    HW3 7922   0.669   3.749   3.483 -0.1210 -0.8460 -1.8000
 1967SOL    MW4 7923   0.658   3.825   3.442 -0.2822 -0.0403 -0.3347
 1968SOL     OW 7924   0.447   3.983   3.491  0.6885  0.0489  0.2582
 1968SOL    HW2 7925   0.448   4.068   3.447  0.0502 -0.5570 -0.9594
 1968SOL    HW3 7926   0.362   3.945   3.467  1.6060 -1.5729 -0.4614
 1968SOL    MW4 7927   0.436   3.990   3.482  0.7254 -0.2449  0.0026
 1969SOL     OW 7928   0.437   4.246   3.384  0.1541  0.5382  0.6709
 1969SOL    HW2 7929   0.516   4.287   3.417  2.4071 -0.2705 -3.3005
 1969SOL    HW3 7930   0.438   4.265   3.290 -2.0413 -3.2044 -0.2062
 1969SOL    MW4 7931   0.447   4.254   3.376  0.1617 -0.0620  0.0310
 1970SOL     OW 7932   0.643   4.394   3.528  0.1015 -0.5040  0.5390
 1970SOL    HW2 7933   0.718   4.342   3.501 -0.3713 -1.2042  0.5492
 1970SOL    HW3 7934   0.654   4.478   3.484  1.3031 -0.3187  1.1657
 1970SOL    MW4 7935   0.654   4.398   3.519  0.1976 -0.5717  0.6230
 1971SOL     OW 7936   1.131   4.626   3.404 -0.1781  0.1718 -0.1855
 1971SOL    HW2 7937   1.214   4.657   3.439 -0.5809  1.8502 -0.6559
 1971SOL    HW3 7938   1.132   4.654   3.312 -0.6192 -1.1197 -0.5869
 1971SOL    MW4 7939   1.142   4.634   3.396 -0.2894  0.2227 -0.3004
 1972SOL     OW 7940   0.900   0.103   3.492  0.4052 -0.2257 -0.4099
 1972SOL    HW2 7941   0.897   0.094   3.588  2.8193  2.4118 -0.0542
 1972SOL    HW3 7942   0.982   0.062   3.467  0.6622  0.7574 -1.1689
 1972SOL    MW4 7943   0.910   0.096   3.502  0.7576  0.2520 -0.4632
 1973SOL     OW 7944   0.881   0.376   3.403  0.1515  0.1540  0.0708
 1973SOL    HW2 7945   0.962   0.416   3.432 -0.7500  0.7894  1.8116
 1973SOL    HW3 7946   0.884   0.287   3.438 -0.3926  0.5383  1.1269
 1973SOL    MW4 7947   0.892   0.369   3.411 -0.0392  0.2885  0.4399
 1974SOL     OW 7948   1.122   0.498   3.493 -0.3892  0.2200  0.4396
 1974SOL    HW2 7949   1.108   0.504   3.587 -0.1883 -1.1700  0.5732
 1974SOL    HW3 7950   1.135   0.589   3.464 -0.5727  0.6601  1.7214
 1974SOL    MW4 7951   1.122   0.511   3.501 -0.3868  0.0948  0.6263
 1975SOL     OW 7952   1.164   0.761   3.395  0.1330  0.0249 -0.8012
 1975SOL    HW2 7953   1.243   0.808   3.421  0.0443 -0.3832  0.2348
 1975SOL    HW3 7954   1.092   0.819   3.422  0.0557 -0.0890 -0.7624
 1975SOL    MW4 7955   1.165   0.775   3.402  0.1111 -0.0440 -0.6592
 1976SOL     OW 7956   0.931   0.908   3.470  0.3770 -0.1789  0.4440
 1976SOL    HW2 7957   0.919   0.991   3.425  1.1275 -0.7088 -0.7589
 1976SOL    HW3 7958   0.876   0.846   3.421 -1.4947 -0.0660  2.3362
 1976SOL    MW4 7959   0.922   0.911   3.458  0.2291 -0.2339  0.5348
 1977SOL     OW 7960   0.889   1.166   3.377  0.0908 -0.3137  0.0322
 1977SOL    HW2 7961   0.964   1.217   3.409 -0.1952  0.4697 -0.5349
 1977SOL    HW3 7962   0.891   1.178   3.282  0.2217 -1.6419 -0.1325
 1977SOL    MW4 7963   0.899   1.175   3.369  0.0703 -0.3856 -0.0646
 1978SOL     OW 7964   1.119   1.292   3.465 -0.0428 -0.5203  0.4700
 1978SOL    HW2 7965   1.125   1.297   3.561 -2.2668  0.0598  0.5942
 1978SOL    HW3 7966   1.115   1.383   3.437 -0.3687 -0.7162 -0.1157
 1978SOL    MW4 7967   1.119   1.305   3.474 -0.3794 -0.4697  0.4091
 1979SOL     OW 7968   1.131   1.547   3.388 -0.2598 -0.1187 -0.0189
 1979SOL    HW2 7969   1.217   1.585   3.404 -1.2560  1.9842  0.5156
 1979SOL    HW3 7970   1.131   1.525   3.295  0.2381  1.5307 -0.4324
 1979SOL    MW4 7971   1.142   1.549   3.378 -0.3256  0.3765 -0.0029
 1980SOL     OW 7972   0.869   1.651   3.466 -0.2021 -0.2464 -0.1523
 1980SOL    HW2 7973   0.880   1.743   3.441  0.2276 -0.2174  0.1467
 1980SOL    HW3 7974   0.955   1.612   3.453 -0.3624 -0.5888 -0.1932
 1980SOL    MW4 7975   0.882   1.658   3.461 -0.1665 -0.2878 -0.1183
 1981SOL     OW 7976   0.912   1.910   3.428  0.1456  0.1363  0.6153
 1981SOL    HW2 7977   0.995   1.951   3.448  0.1588  0.1329  0.5692
 1981SOL    HW3 7978   0.846   1.973   3.457  0.1417 -0.5649  2.1413
 1981SOL    MW4 7979   0.914   1.924   3.434  0.1468  0.0434  0.8104
 1982SOL     OW 7980   1.142   2.057   3.497  0.0615 -0.2471 -0.0184
 1982SOL    HW2 7981   1.228   2.019   3.481  0.1399 -0.1436  0.1549
 1982SOL    HW3 7982   1.142   2.138   3.445  0.6297  0.5170  1.1600
 1982SOL    MW4 7983   1.153   2.063   3.488  0.1470 -0.1328  0.1600
 1983SOL     OW 7984   1.110   2.310   3.365  0.1852 -0.0909 -0.4471
 1983SOL    HW2 7985   1.185   2.359   3.398  1.6675 -2.5005 -0.0553
 1983SOL    HW3 7986   1.116   2.318   3.269  0.3351  0.5989 -0.3783
 1983SOL    MW4 7987   1.120   2.317   3.356  0.4005 -0.3183 -0.3862
 1984SOL     OW 7988   0.912   2.423   3.520  0.0088  0.0869  0.1282
 1984SOL    HW2 7989   0.925   2.404   3.613  0.9470 -0.4900 -0.1119
 1984SOL    HW3 7990   0.983   2.376   3.476 -0.1077  0.7991 -0.8343
 1984SOL    MW4 7991   0.923   2.415   3.527  0.1172  0.1049 -0.0308
 1985SOL     OW 7992   0.907   2.686   3.400 -0.3866  0.2009  0.4908
 1985SOL    HW2 7993   0.978   2.740   3.436  0.8743 -0.9541 -0.2099
 1985SOL    HW3 7994   0.926   2.598   3.433 -0.6277 -0.4038 -0.9599
 1985SOL    MW4 7995   0.919   2.681   3.409 -0.2521 -0.0310  0.2069
 1986SOL     OW 7996   1.119   2.837   3.490  0.1493  0.4442  0.1635
 1986SOL    HW2 7997   1.122   2.853   3.585  0.1495  0.9232  0.0850
 1986SOL    HW3 7998   1.204   2.797   3.470  0.0152  0.0293  0.4225
 1986SOL    MW4 7999   1.131   2.834   3.500  0.1316  0.4525  0.1872
 1987SOL     OW 8000   1.102   3.117   3.426 -0.4992 -0.2355  0.2685
 1987SOL    HW2 8001   1.100   3.023   3.446 -3.0977 -0.3489 -0.3245
 1987SOL    HW3 8002   1.100   3.120   3.330  0.3603  0.4120  0.2742
 1987SOL    MW4 8003   1.101   3.105   3.416 -0.7286 -0.1650  0.1912
 1988SOL     OW 8004   0.878   3.245   3.536 -0.0057  0.0328 -0.0656
 1988SOL    HW2 8005   0.962   3.203   3.515  0.1869  0.4979 -0.2237
 1988SOL    HW3 8006   0.813   3.192   3.491  0.3782  0.8913 -1.6385
 1988SOL    MW4 8007   0.881   3.232   3.527  0.0703  0.2074 -0.2940
 1989SOL     OW 8008   0.882   3.487   3.423 -0.0257 -0.4838  0.3261
 1989SOL    HW2 8009   0.868   3.399   3.459  0.2177 -0.9275 -0.6615
 1989SOL    HW3 8010   0.889   3.474   3.329  1.1041  0.4700  0.2656
 1989SOL    MW4 8011   0.881   3.473   3.416  0.1556 -0.4165  0.1876
 1990SOL     OW 8012   1.108   3.624   3.516 -0.1826  0.2604 -0.0473
 1990SOL    HW2 8013   1.115   3.609   3.610  1.5762 -1.7558 -0.4589
 1990SOL    HW3 8014   1.028   3.578   3.490  0.4535 -0.9802  0.1503
 1990SOL    MW4 8015   1.098   3.616   3.525  0.1333 -0.1698 -0.0756
 1991SOL     OW 8016   1.128   3.883   3.405  0.0999 -0.0645  0.0547
 1991SOL    HW2 8017   1.203   3.928   3.444 -0.2808  0.0572  0.6405
 1991SOL    HW3 8018   1.127   3.797   3.447  0.4480 -0.4028 -0.6064
 1991SOL    MW4 8019   1.138   3.877   3.415  0.0956 -0.0932  0.0448
 1992SOL     OW 8020   0.878   4.009   3.503 -0.0816  0.1224  0.0301
 1992SOL    HW2 8021   0.951   3.962   3.464  0.3074  0.1075  0.7553
 1992SOL    HW3 8022   0.802   3.956   3.484  0.3090 -0.6398  0.5622
 1992SOL    MW4 8023   0.878   3.996   3.496  0.0213  0.0203  0.1960
 1993SOL     OW 8024   0.854   4.270   3.421 -0.2035 -0.4593 -0.2943
 1993SOL    HW2 8025   0.857   4.176   3.442 -0.8854 -0.8285 -1.7420
 1993SOL    HW3 8026   0.861   4.273   3.325 -0.7095  0.9430 -0.2947
 1993SOL    MW4 8027   0.855   4.258   3.411 -0.3603 -0.3233 -0.4854
 1994SOL     OW 8028   1.112   4.363   3.460  0.0268 -0.0894 -0.4015
 1994SOL    HW2 8029   1.024   4.331   3.441  0.6820 -0.8866 -2.1942
 1994SOL    HW3 8030   1.108   4.457   3.443 -0.4615 -0.1343 -0.5355
 1994SOL    MW4 8031   1.100   4.371   3.455  0.0489 -0.2007 -0.6557
 1995SOL     OW 8032   1.588   4.637   3.375 -0.0308  0.0350  0.3873
 1995SOL    HW2 8033   1.594   4.554   3.422  1.5896 -0.0466  0.0837
 1995SOL    HW3 8034   1.505   4.675   3.404 -1.4690 -2.3157 -0.5394
 1995SOL    MW4 8035   1.578   4.631   3.385 -0.0067 -0.2861  0.2251
 1996SOL     OW 8036   1.362   0.096   3.484  0.1835  0.3511 -0.3791
 1996SOL    HW2 8037   1.370   0.111   3.578  2.0265 -0.5751 -0.3550
 1996SOL    HW3 8038   1.352   0.183   3.446 -0.9510  0.7051  0.6828
 1996SOL    MW4 8039   1.362   0.109   3.492  0.2770  0.2756 -0.2358
 1997SOL     OW 8040   1.323   0.356   3.385  0.1392  0.3162 -0.2549
 1997SOL    HW2 8041   1.401   0.403   3.413 -0.1272  0.9907 -0.6343
 1997SOL    HW3 8042   1.250   0.401   3.427 -0.0132 -0.6827  0.5823
 1997SOL    MW4 8043   1.324   0.368   3.394  0.0839  0.2734 -0.1945
 1998SOL     OW 8044   1.543   0.487   3.480  0.1427  0.0203 -0.0420
 1998SOL    HW2 8045   1.544   0.491   3.576  2.8616  0.1271 -0.0418
 1998SOL    HW3 8046   1.628   0.451   3.457 -0.7053 -0.5185 -2.4162
 1998SOL    MW4 8047   1.554   0.483   3.490  0.3896 -0.0367 -0.3552
 1999SOL     OW 8048   1.600   0.748   3.372 -0.9745 -0.1329  0.0914
 1999SOL    HW2 8049   1.528   0.804   3.402  1.3407  1.5590  2.6780
 1999SOL    HW3 8050   1.587   0.665   3.418 -0.8540  0.4335  1.1621
 1999SOL    MW4 8051   1.588   0.744   3.382 -0.6531  0.1650  0.5736
 2000SOL     OW 8052   1.393   0.889   3.475 -0.0280 -0.2593  0.3879
 2000SOL    HW2 8053   1.397   0.894   3.570  0.7479 -1.2111  0.4113
 2000SOL    HW3 8054   1.389   0.980   3.446 -0.7232  0.0142  1.3439
 2000SOL    MW4 8055   1.393   0.902   3.484 -0.0174 -0.3488  0.5169
 2001SOL     OW 8056   1.360   1.153   3.400  0.3873 -0.0381  0.1052
 2001SOL    HW2 8057   1.435   1.207   3.427  0.8867 -0.8766  0.4254
 2001SOL    HW3 8058   1.284   1.208   3.417  0.8786  0.5302  0.5285
 2001SOL    MW4 8059   1.360   1.167   3.406  0.5182 -0.0738  0.2034
 2002SOL     OW 8060   1.585   1.282   3.468  0.2273 -0.4126 -0.3929
 2002SOL    HW2 8061   1.602   1.290   3.562 -0.2888 -0.7874 -0.2641
 2002SOL    HW3 8062   1.657   1.230   3.434  0.1298 -0.7310 -0.1113
 2002SOL    MW4 8063   1.597   1.277   3.476  0.1464 -0.5040 -0.3388
 2003SOL     OW 8064   1.645   1.546   3.381 -0.2235 -0.4562  0.1027
 2003SOL    HW2 8065   1.636   1.456   3.412 -0.8379 -0.4970 -0.1695
 2003SOL    HW3 8066   1.623   1.541   3.288  0.1157 -0.0868  0.0010
 2003SOL    MW4 8067   1.641   1.533   3.373 -0.2598 -0.4128  0.0534
 2004SOL     OW 8068   1.405   1.665   3.461  0.2989  0.2067 -0.0439
 2004SOL    HW2 8069   1.405   1.657   3.557 -0.0355 -1.2730 -0.1601
 2004SOL    HW3 8070   1.482   1.617   3.433 -0.2880 -0.4306 -0.5928
 2004SOL    MW4 8071   1.415   1.657   3.470  0.1774 -0.0726 -0.1316
 2005SOL     OW 8072   1.377   1.940   3.404 -0.2771 -0.2581  0.3200
 2005SOL    HW2 8073   1.454   1.970   3.453  0.3937 -0.7509 -0.4164
 2005SOL    HW3 8074   1.378   1.845   3.415  0.5976 -0.5128 -1.6555
 2005SOL    MW4 8075   1.388   1.931   3.412 -0.0732 -0.3567 -0.0381
 2006SOL     OW 8076   1.579   2.065   3.528  0.4388 -0.0750 -0.0167
 2006SOL    HW2 8077   1.634   2.021   3.463 -0.1000 -0.1709 -0.4100
 2006SOL    HW3 8078   1.557   2.149   3.487 -0.4177 -0.4002 -0.2130
 2006SOL    MW4 8079   1.584   2.071   3.514  0.2548 -0.1307 -0.0947
 2007SOL     OW 8080   1.551   2.309   3.412 -0.0065 -0.0895  0.1150
 2007SOL    HW2 8081   1.482   2.373   3.430  1.1551  1.4088 -0.6338
 2007SOL    HW3 8082   1.561   2.311   3.316 -0.4715 -1.9636  0.0049
 2007SOL    MW4 8083   1.543   2.317   3.401  0.0854 -0.1390  0.0017
 2008SOL     OW 8084   1.331   2.464   3.450 -0.5420  0.1683 -0.0463
 2008SOL    HW2 8085   1.328   2.472   3.545 -0.8353 -0.6651  0.0205
 2008SOL    HW3 8086   1.324   2.554   3.418  1.2893  0.6207  0.7444
 2008SOL    MW4 8087   1.330   2.477   3.458 -0.3390  0.1183  0.0668
 2009SOL     OW 8088   1.346   2.728   3.367 -0.0840 -0.2508  0.3993
 2009SOL    HW2 8089   1.426   2.759   3.409 -0.0839 -0.3699  0.4865
 2009SOL    HW3 8090   1.359   2.745   3.274 -0.0607 -0.0375  0.4406
 2009SOL    MW4 8091   1.358   2.734   3.360 -0.0809 -0.2382  0.4163
 2010SOL     OW 8092   1.567   2.839   3.503  0.0910  0.4176  0.0158
 2010SOL    HW2 8093   1.644   2.791   3.472  0.3025  1.2571 -0.7804
 2010SOL    HW3 8094   1.582   2.929   3.474  0.0821  1.1411  2.1566
 2010SOL    MW4 8095   1.579   2.845   3.495  0.1177  0.6237  0.1929
 2011SOL     OW 8096   1.614   3.102   3.394 -0.2284  0.1972  0.4243
 2011SOL    HW2 8097   1.685   3.142   3.445 -1.0789  0.4167  1.4547
 2011SOL    HW3 8098   1.534   3.129   3.440 -1.0170  0.5136 -1.1123
 2011SOL    MW4 8099   1.613   3.111   3.407 -0.4445  0.2677  0.3576
 2012SOL     OW 8100   1.352   3.193   3.530 -0.1785 -0.2051 -0.4180
 2012SOL    HW2 8101   1.334   3.187   3.623 -0.3372  1.1525 -0.3532
 2012SOL    HW3 8102   1.272   3.164   3.487  0.0394 -1.2279 -0.1372
 2012SOL    MW4 8103   1.339   3.188   3.536 -0.1707 -0.1609 -0.3724
 2013SOL     OW 8104   1.346   3.475   3.453 -0.0373  0.1506  0.1191
 2013SOL    HW2 8105   1.336   3.388   3.492 -1.6852 -0.4423 -1.5570
 2013SOL    HW3 8106   1.264   3.520   3.473 -0.7408 -0.0193 -2.2197
 2013SOL    MW4 8107   1.334   3.470   3.461 -0.3475  0.0501 -0.4106
 2014SOL     OW 8108   1.571   3.620   3.526 -0.1379  0.4375  0.0022
 2014SOL    HW2 8109   1.569   3.630   3.621  0.8019 -0.3742  0.1033
 2014SOL    HW3 8110   1.499   3.560   3.506  0.3330 -0.2188  0.2941
 2014SOL    MW4 8111   1.561   3.614   3.536  0.0483  0.2439  0.0539
 2015SOL     OW 8112   1.537   3.857   3.383 -0.0154 -0.0543 -0.0879
 2015SOL    HW2 8113   1.527   3.773   3.429 -0.9276  0.4484  0.6574
 2015SOL    HW3 8114   1.534   3.834   3.290  0.7105 -0.9594  0.1069
 2015SOL    MW4 8115   1.535   3.843   3.377 -0.0401 -0.1073  0.0362
 2016SOL     OW 8116   1.351   4.017   3.504 -0.5181 -0.7835  0.6029
 2016SOL    HW2 8117   1.368   4.102   3.462 -0.3678 -1.5308 -0.8707
 2016SOL    HW3 8118   1.413   3.957   3.463 -1.1674 -1.7809  1.0637
 2016SOL    MW4 8119   1.361   4.021   3.493 -0.5841 -1.0138  0.4692
 2017SOL     OW 8120   1.387   4.272   3.405  0.1062 -0.0625 -0.4288
 2017SOL    HW2 8121   1.301   4.298   3.438  0.1541  0.0149 -0.3635
 2017SOL    HW3 8122   1.377   4.270   3.310 -0.0502 -0.3475 -0.4082
 2017SOL    MW4 8123   1.374   4.275   3.397  0.0919 -0.0892 -0.4177
 2018SOL     OW 8124   1.601   4.406   3.517  0.0117  0.3773 -0.1144
 2018SOL    HW2 8125   1.681   4.376   3.474  0.1785 -1.4923  1.4842
 2018SOL    HW3 8126   1.531   4.359   3.472  0.0879 -0.5898  0.7612
 2018SOL    MW4 8127   1.602   4.396   3.505  0.0437  0.0033  0.2120
 2019SOL     OW 8128   2.031   4.614   3.407  0.4672  0.0210  0.1386
 2019SOL    HW2 8129   2.107   4.670   3.426 -0.9202  2.2142 -0.6428
 2019SOL    HW3 8130   1.956   4.666   3.435 -0.9210 -1.0193 -1.5787
 2019SOL    MW4 8131   2.031   4.628   3.413  0.1011  0.1731 -0.1910
 2020SOL     OW 8132   1.827   0.104   3.501 -0.0393  0.4962 -0.0495
 2020SOL    HW2 8133   1.820   0.113   3.596  0.4855  0.1232  0.0250
 2020SOL    HW3 8134   1.741   0.072   3.474  0.1672 -0.4926  0.4351
 2020SOL    MW4 8135   1.814   0.101   3.510  0.0573  0.3166  0.0243
 2021SOL     OW 8136   1.781   0.360   3.402  0.5272  0.3531  0.3010
 2021SOL    HW2 8137   1.788   0.274   3.443 -2.3897  0.2734  0.7336
 2021SOL    HW3 8138   1.798   0.345   3.309  1.3161 -0.4537  0.5750
 2021SOL    MW4 8139   1.784   0.347   3.395  0.2465  0.2361  0.3939
 2022SOL     OW 8140   2.016   0.467   3.492  0.0212 -0.1530 -0.0229
 2022SOL    HW2 8141   2.025   0.552   3.449  0.1162 -0.2090 -0.1117
 2022SOL    HW3 8142   1.935   0.430   3.456  0.5018 -0.5324 -0.7144
 2022SOL    MW4 8143   2.006   0.474   3.482  0.0973 -0.2104 -0.1259
 2023SOL     OW 8144   2.054   0.723   3.377  0.2077  0.0830 -0.0678
 2023SOL    HW2 8145   2.128   0.764   3.422 -0.4858 -0.6062  1.7409
 2023SOL    HW3 8146   2.062   0.753   3.286  4.1375 -1.9348 -0.4920
 2023SOL    MW4 8147   2.065   0.732   3.371  0.6344 -0.2742  0.1147
 2024SOL     OW 8148   1.846   0.874   3.502  0.0842  0.1063  0.0027
 2024SOL    HW2 8149   1.918   0.822   3.466 -0.2905  0.5330 -1.4071
 2024SOL    HW3 8150   1.767   0.832   3.469 -0.2563  0.8005 -0.0812
 2024SOL    MW4 8151   1.845   0.862   3.493 -0.0100  0.2542 -0.1945
 2025SOL     OW 8152   1.819   1.156   3.406 -0.1282  0.2035  0.4850
 2025SOL    HW2 8153   1.901   1.198   3.433 -0.1154 -0.7337  1.9775
 2025SOL    HW3 8154   1.829   1.065   3.433 -1.4434 -0.0387  0.1844
 2025SOL    MW4 8155   1.831   1.150   3.413 -0.3002  0.0478  0.6423
 2026SOL     OW 8156   2.063   1.282   3.481  0.0232  0.1032 -0.0550
 2026SOL    HW2 8157   2.091   1.279   3.573  0.0495  0.1431 -0.0614
 2026SOL    HW3 8158   2.052   1.375   3.463  2.3242  0.2793 -0.7734
 2026SOL    MW4 8159   2.065   1.294   3.491  0.3304  0.1317 -0.1507
 2027SOL     OW 8160   2.029   1.565   3.392  0.5256  0.0715  0.5380
 2027SOL    HW2 8161   2.115   1.597   3.418  0.7166  1.1378 -1.2786
 2027SOL    HW3 8162   1.968   1.609   3.451  1.2447 -1.0800  2.1640
 2027SOL    MW4 8163   2.032   1.575   3.403  0.6454  0.0602  0.5131
 2028SOL     OW 8164   1.825   1.681   3.524  1.0244 -0.2891  0.2357
 2028SOL    HW2 8165   1.807   1.770   3.495  1.0049 -0.3359  0.1002
 2028SOL    HW3 8166   1.752   1.630   3.488  1.1242 -0.3864  0.1704
 2028SOL    MW4 8167   1.813   1.686   3.515  1.0351 -0.3082  0.2091
 2029SOL     OW 8168   1.767   1.927   3.379 -0.0101  0.0388 -0.2612
 2029SOL    HW2 8169   1.840   1.978   3.415 -0.3932 -0.5448  1.3820
 2029SOL    HW3 8170   1.777   1.934   3.284  1.0966  1.5192 -0.0499
 2029SOL    MW4 8171   1.778   1.935   3.371  0.0854  0.1571 -0.0162
 2030SOL     OW 8172   1.980   2.038   3.505 -0.4317 -0.3720  0.3358
 2030SOL    HW2 8173   2.062   2.001   3.473 -0.1604 -0.2591  0.8873
 2030SOL    HW3 8174   1.982   2.129   3.474 -0.0495 -0.1889  0.8674
 2030SOL    MW4 8175   1.991   2.045   3.497 -0.3455 -0.3328  0.4787
 2031SOL     OW 8176   2.015   2.282   3.412 -0.6944 -0.2087 -0.2646
 2031SOL    HW2 8177   2.098   2.312   3.449 -1.0868  0.6606 -0.0894
 2031SOL    HW3 8178   2.018   2.311   3.320 -1.3082  0.8607  0.0452
 2031SOL    MW4 8179   2.027   2.290   3.404 -0.8268  0.0472 -0.2005
 2032SOL     OW 8180   1.803   2.435   3.528  0.3402 -0.0246 -0.3192
 2032SOL    HW2 8181   1.864   2.387   3.472 -0.3223 -1.1776 -0.0581
 2032SOL    HW3 8182   1.718   2.395   3.510 -0.3118  1.4214 -0.5168
 2032SOL    MW4 8183   1.800   2.424   3.518  0.1667  0.0141 -0.3107
 2033SOL     OW 8184   1.781   2.686   3.437 -0.0399 -0.4458  0.1860
 2033SOL    HW2 8185   1.842   2.746   3.478  0.4429 -1.9340  1.7133
 2033SOL    HW3 8186   1.802   2.600   3.475 -2.1557 -1.2191 -0.2959
 2033SOL    MW4 8187   1.792   2.682   3.447 -0.2555 -0.7441  0.3240
 2034SOL     OW 8188   2.005   2.867   3.495 -0.5112 -0.4286  0.4166
 2034SOL    HW2 8189   2.006   2.885   3.589 -1.4123 -0.2398  0.4003
 2034SOL    HW3 8190   2.029   2.950   3.454  0.7593 -0.7428  0.4946
 2034SOL    MW4 8191   2.008   2.880   3.502 -0.4625 -0.4454  0.4249
 2035SOL     OW 8192   2.053   3.130   3.381 -0.5168  0.4619 -0.1560
 2035SOL    HW2 8193   2.125   3.175   3.425 -0.2790 -0.3428  0.2770
 2035SOL    HW3 8194   1.975   3.157   3.430 -0.6061  1.9208 -1.0819
 2035SOL    MW4 8195   2.052   3.140   3.393 -0.4971  0.5481 -0.2215
 2036SOL     OW 8196   1.841   3.210   3.530 -0.3717 -0.4048  0.1241
 2036SOL    HW2 8197   1.815   3.213   3.623  0.2222  0.3401  0.2730
 2036SOL    HW3 8198   1.840   3.302   3.503 -0.2785 -0.6018 -0.5366
 2036SOL    MW4 8199   1.837   3.223   3.539 -0.2810 -0.3326  0.0565
 2037SOL     OW 8200   1.816   3.474   3.466  0.2114  0.7393 -0.0974
 2037SOL    HW2 8201   1.742   3.529   3.492 -1.0486 -0.1547 -1.7215
 2037SOL    HW3 8202   1.805   3.461   3.372  2.1634  0.1678 -0.2718
 2037SOL    MW4 8203   1.805   3.480   3.457  0.3027  0.5462 -0.3345
 2038SOL     OW 8204   2.041   3.628   3.530  0.0340 -0.6890  0.6131
 2038SOL    HW2 8205   2.114   3.580   3.492 -0.3502 -1.2231  0.5501
 2038SOL    HW3 8206   1.964   3.576   3.508 -0.3459 -0.2296  0.8500
 2038SOL    MW4 8207   2.040   3.615   3.522 -0.0668 -0.6988  0.6359
 2039SOL     OW 8208   2.022   3.889   3.429 -0.0138  0.2765 -0.0909
 2039SOL    HW2 8209   1.941   3.928   3.463  0.8978  1.3312  0.9162
 2039SOL    HW3 8210   2.021   3.799   3.461  0.0983  0.8226  1.4516
 2039SOL    MW4 8211   2.011   3.883   3.437  0.1211  0.4878  0.2458
 2040SOL     OW 8212   1.769   3.986   3.492 -0.3061 -0.6812 -0.5092
 2040SOL    HW2 8213   1.770   3.983   3.588  1.1282  0.7884 -0.4560
 2040SOL    HW3 8214   1.699   3.926   3.467 -0.8204 -0.9414  1.4652
 2040SOL    MW4 8215   1.760   3.978   3.502 -0.1847 -0.5217 -0.2415
 2041SOL     OW 8216   1.816   4.268   3.402 -0.4623  0.3347  0.0107
 2041SOL    HW2 8217   1.789   4.179   3.427 -0.0945  0.2661  0.1572
 2041SOL    HW3 8218   1.795   4.274   3.309 -0.0181 -0.0780 -0.1159
 2041SOL    MW4 8219   1.809   4.257   3.393 -0.3551  0.2713  0.0131
 2042SOL     OW 8220   2.045   4.374   3.515 -0.1489  0.2199 -0.1396
 2042SOL    HW2 8221   1.972   4.326   3.475  0.3824 -0.0573 -0.7967
 2042SOL    HW3 8222   2.041   4.461   3.476 -0.5297  0.4059  0.3220
 2042SOL    MW4 8223   2.035   4.379   3.504 -0.1290  0.2079 -0.1652
 2043SOL     OW 8224   2.503   4.628   3.426  0.0320 -0.2203 -0.0604
 2043SOL    HW2 8225   2.510   4.544   3.471 -1.3913  0.3145  1.2143
 2043SOL    HW3 8226   2.514   4.608   3.333 -0.5060 -1.8424  0.2186
 2043SOL    MW4 8227   2.505   4.614   3.420 -0.2270 -0.3638  0.1447
 2044SOL     OW 8228   2.258   0.091   3.494  0.0868 -0.2033  0.3240
 2044SOL    HW2 8229   2.269   0.165   3.435 -1.8145  0.5055  0.8258
 2044SOL    HW3 8230   2.338   0.038   3.482  0.6310  0.9702 -1.3583
 2044SOL    MW4 8231   2.270   0.094   3.485 -0.0923  0.0451  0.1681
 2045SOL     OW 8232   2.269   0.379   3.387 -0.6357  0.6479  0.2066
 2045SOL    HW2 8233   2.330   0.427   3.443 -0.1728  0.7888 -0.4223
 2045SOL    HW3 8234   2.182   0.409   3.415 -0.3785  1.2205  0.3908
 2045SOL    MW4 8235   2.265   0.390   3.398 -0.5410  0.7420  0.1481
 2046SOL     OW 8236   2.472   0.500   3.541 -0.0525 -0.0334 -0.2571
 2046SOL    HW2 8237   2.549   0.460   3.500  0.5795 -1.1675  1.9580
 2046SOL    HW3 8238   2.468   0.588   3.503  2.4621  0.1170 -0.2782
 2046SOL    MW4 8239   2.482   0.506   3.531  0.3629 -0.1631  0.0327
 2047SOL     OW 8240   2.489   0.738   3.399  0.0372  0.3481  0.0541
 2047SOL    HW2 8241   2.572   0.765   3.438 -0.8262  2.3095  0.6199
 2047SOL    HW3 8242   2.505   0.739   3.304  1.0700 -0.7668  0.2038
 2047SOL    MW4 8243   2.502   0.742   3.391  0.0594  0.4598  0.1485
 2048SOL     OW 8244   2.247   0.878   3.476  0.4041  0.2672  0.2507
 2048SOL    HW2 8245   2.251   0.969   3.447  1.0441  0.1596 -0.0356
 2048SOL    HW3 8246   2.333   0.842   3.451 -0.1793 -0.6532 -0.4683
 2048SOL    MW4 8247   2.259   0.885   3.469  0.4115  0.1315  0.1183
 2049SOL     OW 8248   2.291   1.148   3.370  0.1522  0.1501  0.2033
 2049SOL    HW2 8249   2.360   1.190   3.422  0.4851  0.3213 -0.3747
 2049SOL    HW3 8250   2.210   1.186   3.403  0.1828 -1.3891  2.1488
 2049SOL    MW4 8251   2.289   1.158   3.381  0.2003 -0.0304  0.3836
 2050SOL     OW 8252   2.500   1.283   3.515  0.2259 -0.1759  0.3100
 2050SOL    HW2 8253   2.490   1.277   3.610  1.0514  0.5640  0.4557
 2050SOL    HW3 8254   2.584   1.240   3.497  0.2958  0.0971 -0.0257
 2050SOL    MW4 8255   2.510   1.277   3.525  0.3438 -0.0422  0.2851
 2051SOL     OW 8256   2.530   1.544   3.427 -0.1106  0.1423  0.0540
 2051SOL    HW2 8257   2.518   1.454   3.459 -0.7468  0.0338 -0.4739
 2051SOL    HW3 8258   2.523   1.536   3.332  1.1749  0.5547 -0.0801
 2051SOL    MW4 8259   2.527   1.531   3.419 -0.0250  0.1825 -0.0334
 2052SOL     OW 8260   2.281   1.640   3.507 -0.3533 -0.3977  0.1360
 2052SOL    HW2 8261   2.284   1.631   3.602  1.4316  1.3430  0.2942
 2052SOL    HW3 8262   2.361   1.597   3.476  0.0340  0.6512 -0.3792
 2052SOL    MW4 8263   2.292   1.633   3.516 -0.0668 -0.0296  0.0892
 2053SOL     OW 8264   2.224   1.911   3.441 -0.3204 -0.0429  0.0715
 2053SOL    HW2 8265   2.246   1.829   3.486  0.7180  0.6337  0.7904
 2053SOL    HW3 8266   2.233   1.890   3.348 -0.2566 -0.8017  0.2464
 2053SOL    MW4 8267   2.228   1.897   3.434 -0.1748 -0.0538  0.1891
 2054SOL     OW 8268   2.442   2.063   3.497 -0.1525 -0.1144 -0.3051
 2054SOL    HW2 8269   2.462   2.061   3.591  0.3250 -0.9864 -0.4250
 2054SOL    HW3 8270   2.357   2.020   3.490 -0.9489  1.3902 -0.0889
 2054SOL    MW4 8271   2.433   2.057   3.509 -0.1948 -0.0310 -0.2923
 2055SOL     OW 8272   2.447   2.333   3.404 -0.1498 -0.0480  0.1413
 2055SOL    HW2 8273   2.535   2.362   3.429  0.4790 -0.7900 -1.1582
 2055SOL    HW3 8274   2.445   2.240   3.427 -0.7962  0.0876  0.6697
 2055SOL    MW4 8275   2.458   2.324   3.410 -0.1519 -0.1280  0.0393
 2056SOL     OW 8276   2.214   2.422   3.544  0.0140 -0.8845  0.1549
 2056SOL    HW2 8277   2.195   2.514   3.528  0.2025 -0.4303  2.3217
 2056SOL    HW3 8278   2.294   2.405   3.496 -0.7069 -0.2690 -1.2958
 2056SOL    MW4 8279   2.222   2.432   3.536 -0.0563 -0.7432  0.2491
 2057SOL     OW 8280   2.223   2.687   3.444 -0.2971 -0.1360 -0.0288
 2057SOL    HW2 8281   2.154   2.751   3.458 -0.8441 -0.7221  0.0065
 2057SOL    HW3 8282   2.240   2.689   3.350 -2.1353 -1.7597 -0.4482
 2057SOL    MW4 8283   2.216   2.696   3.434 -0.6115 -0.4275 -0.0794
 2058SOL     OW 8284   2.468   2.775   3.537  0.0176  0.0824  0.4722
 2058SOL    HW2 8285   2.470   2.862   3.496  0.3915  0.0819  0.4841
 2058SOL    HW3 8286   2.380   2.742   3.519 -0.0338  0.3498  0.2250
 2058SOL    MW4 8287   2.457   2.782   3.529  0.0601  0.1178  0.4411
 2059SOL     OW 8288   2.456   3.042   3.429  0.3194  0.0506  0.1135
 2059SOL    HW2 8289   2.529   3.093   3.463  0.0905  0.4679 -0.0159
 2059SOL    HW3 8290   2.461   3.053   3.334 -1.2248  1.9271  0.2074
 2059SOL    MW4 8291   2.466   3.051   3.421  0.0856  0.3531  0.1087
 2060SOL     OW 8292   2.267   3.223   3.498 -0.5538 -0.0184 -0.1746
 2060SOL    HW2 8293   2.262   3.222   3.594 -0.8349 -0.3365 -0.1915
 2060SOL    HW3 8294   2.337   3.162   3.477 -0.0506  0.5501 -0.1451
 2060SOL    MW4 8295   2.275   3.214   3.508 -0.5240  0.0148 -0.1729
 2061SOL     OW 8296   2.265   3.493   3.385 -0.3522 -0.5338 -0.0690
 2061SOL    HW2 8297   2.289   3.406   3.416 -1.1311 -0.7305 -0.0067
 2061SOL    HW3 8298   2.238   3.479   3.294  1.3032 -0.0652 -0.6467
 2061SOL    MW4 8299   2.264   3.480   3.377 -0.2367 -0.4978 -0.1366
 2062SOL     OW 8300   2.475   3.609   3.525  0.1802  0.1094 -0.0686
 2062SOL    HW2 8301   2.484   3.696   3.488 -0.2834  0.5186  0.7704
 2062SOL    HW3 8302   2.388   3.579   3.497  0.0162  0.2381  0.2899
 2062SOL    MW4 8303   2.465   3.616   3.517  0.0970  0.1805  0.0894
 2063SOL     OW 8304   2.510   3.861   3.436 -0.4297  0.0199 -0.3003
 2063SOL    HW2 8305   2.590   3.894   3.476 -0.6880 -1.1184  1.1981
 2063SOL    HW3 8306   2.441   3.919   3.469 -0.3305  0.5927 -1.0708
 2063SOL    MW4 8307   2.511   3.873   3.446 -0.4508 -0.0548 -0.2043
 2064SOL     OW 8308   2.277   4.012   3.482 -0.5839  0.2940 -0.0937
 2064SOL    HW2 8309   2.277   4.098   3.439  0.6568  1.0968  1.4477
 2064SOL    HW3 8310   2.193   3.973   3.457 -0.8987  1.6872 -1.3285
 2064SOL    MW4 8311   2.266   4.019   3.473 -0.4618  0.5836 -0.0532
 2065SOL     OW 8312   2.267   4.260   3.397  0.1561  0.5385 -0.2151
 2065SOL    HW2 8313   2.183   4.299   3.422  0.0268  0.9865 -1.3483
 2065SOL    HW3 8314   2.264   4.253   3.302  1.6664  1.1618 -0.3245
 2065SOL    MW4 8315   2.256   4.264   3.388  0.3378  0.6800 -0.3793
 2066SOL     OW 8316   2.512   4.363   3.520  0.0253  0.2474 -0.3873
 2066SOL    HW2 8317   2.492   4.368   3.614  1.3613  1.2883 -0.1444
 2066SOL    HW3 8318   2.435   4.320   3.482 -0.0901 -1.1524  1.3250
 2066SOL    MW4 8319   2.499   4.358   3.528  0.1864  0.2003 -0.1295
 2067SOL     OW 8320   2.952   4.637   3.407  0.3561  0.5624  0.0207
 2067SOL    HW2 8321   2.872   4.666   3.450  0.9742  0.7111  1.1155
 2067SOL    HW3 8322   2.932   4.637   3.314 -0.3741  2.2872  0.1571
 2067SOL    MW4 8323   2.939   4.641   3.401  0.3414  0.8092  0.1833
 2068SOL     OW 8324   2.718   0.091   3.529  0.0806  0.8712  0.0341
 2068SOL    HW2 8325   2.717   0.177   3.486 -0.4044  0.4574 -0.7843
 2068SOL    HW3 8326   2.634   0.052   3.508 -0.0590  0.5472  1.1551
 2068SOL    MW4 8327   2.707   0.097   3.521 -0.0017  0.7738  0.0741
 2069SOL     OW 8328   2.697   0.362   3.440  0.6731 -0.0550 -0.7021
 2069SOL    HW2 8329   2.782   0.398   3.465  0.7253 -0.8481  0.2971
 2069SOL    HW3 8330   2.696   0.368   3.344  2.1481 -0.7026 -0.7788
 2069SOL    MW4 8331   2.708   0.368   3.430  0.8745 -0.2450 -0.5805
 2070SOL     OW 8332   2.931   0.478   3.531  0.3977  0.2332  0.0534
 2070SOL    HW2 8333   2.920   0.494   3.625  1.7862  0.2584  0.2202
 2070SOL    HW3 8334   2.953   0.564   3.495 -0.1305  0.2216 -0.3046
 2070SOL    MW4 8335   2.932   0.491   3.539  0.5112  0.2350  0.0284
 2071SOL     OW 8336   2.969   0.721   3.381 -0.0566 -0.1224 -0.4660
 2071SOL    HW2 8337   3.039   0.776   3.415  0.5617 -1.9694  1.3365
 2071SOL    HW3 8338   2.889   0.759   3.418  0.2184  0.4629 -0.4681
 2071SOL    MW4 8339   2.967   0.733   3.390  0.0613 -0.2889 -0.2282
 2072SOL     OW 8340   2.735   0.844   3.484 -0.4356  0.3569  0.3175
 2072SOL    HW2 8341   2.749   0.821   3.576  0.3565  0.4575  0.2234
 2072SOL    HW3 8342   2.733   0.940   3.483  0.3976  0.3741  0.1093
 2072SOL    MW4 8343   2.737   0.854   3.496 -0.2210  0.3724  0.2778
 2073SOL     OW 8344   2.728   1.110   3.472  0.2283 -0.3831 -0.7211
 2073SOL    HW2 8345   2.789   1.180   3.494  1.3485 -0.9635 -1.9369
 2073SOL    HW3 8346   2.708   1.123   3.380  0.1464 -1.4230 -0.8594
 2073SOL    MW4 8347   2.734   1.121   3.463  0.3655 -0.5969 -0.8998
 2074SOL     OW 8348   2.923   1.280   3.511  0.2284 -0.5520 -0.0780
 2074SOL    HW2 8349   2.946   1.274   3.604  0.8810 -2.5692 -0.3407
 2074SOL    HW3 8350   2.990   1.228   3.467 -0.1910  0.2399 -1.6690
 2074SOL    MW4 8351   2.935   1.272   3.518  0.2592 -0.7136 -0.3223
 2075SOL     OW 8352   2.947   1.532   3.382  0.3959  0.1923 -0.2315
 2075SOL    HW2 8353   2.878   1.581   3.426 -0.0617  0.0576 -0.8008
 2075SOL    HW3 8354   2.953   1.450   3.430  0.1256  0.1785 -0.2219
 2075SOL    MW4 8355   2.939   1.528   3.394  0.2997  0.1727 -0.3054
 2076SOL     OW 8356   2.752   1.688   3.521 -0.0584 -0.0234  0.3747
 2076SOL    HW2 8357   2.739   1.778   3.491 -0.1878  0.4719  1.8870
 2076SOL    HW3 8358   2.677   1.640   3.487 -0.4599  0.6336  0.3256
 2076SOL    MW4 8359   2.741   1.693   3.513 -0.1285  0.1285  0.5677
 2077SOL     OW 8360   2.685   1.935   3.423  0.0202 -0.2304 -0.2178
 2077SOL    HW2 8361   2.598   1.965   3.449  0.6525  0.6457  0.9478
 2077SOL    HW3 8362   2.689   1.951   3.329 -0.9018  0.1525 -0.1983
 2077SOL    MW4 8363   2.674   1.941   3.414 -0.0179 -0.0643 -0.0613
 2078SOL     OW 8364   2.926   2.043   3.506 -0.1285  0.0650  0.0200
 2078SOL    HW2 8365   2.924   2.073   3.597  1.3399  0.5037 -0.0721
 2078SOL    HW3 8366   2.840   2.004   3.491 -0.3878  0.0119  1.5925
 2078SOL    MW4 8367   2.915   2.042   3.516  0.0310  0.1161  0.2153
 2079SOL     OW 8368   2.944   2.301   3.406  0.0565  0.3009  0.5789
 2079SOL    HW2 8369   2.922   2.214   3.440  1.3262 -0.1814  0.1757
 2079SOL    HW3 8370   2.960   2.287   3.313 -0.1596  1.0520  0.4215
 2079SOL    MW4 8371   2.943   2.288   3.398  0.1953  0.3362  0.5047
 2080SOL     OW 8372   2.706   2.411   3.471 -0.2216 -0.1468  0.4329
 2080SOL    HW2 8373   2.730   2.421   3.563  0.4815  0.2363  0.2104
 2080SOL    HW3 8374   2.787   2.384   3.427 -0.3606  0.4607 -0.2059
 2080SOL    MW4 8375   2.720   2.409   3.477 -0.1473 -0.0162  0.3192
 2081SOL     OW 8376   2.692   2.689   3.371  0.0986 -0.4513  0.4246
 2081SOL    HW2 8377   2.711   2.604   3.411  0.7895 -0.4371  0.1243
 2081SOL    HW3 8378   2.614   2.720   3.417  0.6132 -0.6487  1.4316
 2081SOL    MW4 8379   2.684   2.682   3.382  0.2575 -0.4754  0.5176
 2082SOL     OW 8380   2.923   2.855   3.465 -0.1616  0.2308  0.1714
 2082SOL    HW2 8381   2.931   2.860   3.560  0.3649 -0.1660  0.1516
 2082SOL    HW3 8382   2.855   2.789   3.451  1.1804 -1.1776  0.2447
 2082SOL    MW4 8383   2.915   2.847   3.476  0.0851 -0.0074  0.1783
 2083SOL     OW 8384   2.902   3.107   3.385  0.5839  0.3634  0.0789
 2083SOL    HW2 8385   2.916   3.013   3.399  1.5534  0.2959 -1.3493
 2083SOL    HW3 8386   2.883   3.115   3.292  1.8364  1.7451 -0.0688
 2083SOL    MW4 8387   2.901   3.096   3.375  0.8771  0.5367 -0.1290
 2084SOL     OW 8388   2.665   3.203   3.513  0.1909 -0.3956 -0.3818
 2084SOL    HW2 8389   2.663   3.191   3.608 -1.0572 -0.3714 -0.3946
 2084SOL    HW3 8390   2.755   3.181   3.488  0.6201 -0.0777  0.8405
 2084SOL    MW4 8391   2.677   3.199   3.522  0.0827 -0.3505 -0.2222
 2085SOL     OW 8392   2.676   3.482   3.393  0.5478  0.3602  0.3229
 2085SOL    HW2 8393   2.671   3.395   3.432  1.9493  0.6750  1.2358
 2085SOL    HW3 8394   2.612   3.533   3.443  0.6430  0.1761  0.6333
 2085SOL    MW4 8395   2.667   3.477   3.405  0.7453  0.3772  0.4842
 2086SOL     OW 8396   2.927   3.602   3.450  0.5888  0.4270 -0.1738
 2086SOL    HW2 8397   2.905   3.695   3.439  0.6265  0.8624  2.9974
 2086SOL    HW3 8398   2.845   3.556   3.430  0.2451  1.2133 -0.6291
 2086SOL    MW4 8399   2.913   3.608   3.446  0.5486  0.5879  0.1845
 2087SOL     OW 8400   2.917   3.875   3.363  0.3366 -0.2843  0.1199
 2087SOL    HW2 8401   3.005   3.904   3.386  1.0120 -0.4121 -2.1195
 2087SOL    HW3 8402   2.859   3.934   3.410  1.6145  0.0377  1.3331
 2087SOL    MW4 8403   2.921   3.887   3.372  0.5944 -0.2587 -0.0153
 2088SOL     OW 8404   2.756   4.007   3.551  0.1434 -0.5613  0.1740
 2088SOL    HW2 8405   2.719   4.025   3.638 -0.6722 -0.2446 -0.2321
 2088SOL    HW3 8406   2.751   4.091   3.506 -1.3903 -1.2147 -0.8980
 2088SOL    MW4 8407   2.751   4.020   3.557 -0.1667 -0.6051 -0.0210
 2089SOL     OW 8408   2.737   4.243   3.426 -0.3164 -0.0112  0.0453
 2089SOL    HW2 8409   2.808   4.291   3.467 -0.8097  0.3445  0.4809
 2089SOL    HW3 8410   2.657   4.287   3.455 -0.7949 -1.2865  0.7341
 2089SOL    MW4 8411   2.736   4.255   3.435 -0.4447 -0.1316  0.1936
 2090SOL     OW 8412   2.977   4.391   3.517 -0.6523  0.0842 -0.1472
 2090SOL    HW2 8413   2.950   4.406   3.608 -2.1244  0.0289 -0.5734
 2090SOL    HW3 8414   2.977   4.478   3.478  0.5711  0.1897  0.0427
 2090SOL    MW4 8415   2.974   4.405   3.524 -0.6850  0.0911 -0.1783
 2091SOL     OW 8416   3.396   4.624   3.380  0.5030 -0.0496 -0.2596
 2091SOL    HW2 8417   3.323   4.659   3.430  1.1614 -0.4210  0.9674
 2091SOL    HW3 8418   3.370   4.636   3.288 -0.9765  0.0415  0.1659
 2091SOL    MW4 8419   3.383   4.630   3.374  0.3943 -0.0868 -0.0420
 2092SOL     OW 8420   3.188   0.073   3.496  0.0874  0.3984 -0.3414
 2092SOL    HW2 8421   3.197   0.163   3.465  0.2194  0.3586 -0.4222
 2092SOL    HW3 8422   3.106   0.043   3.458  0.1869  0.3907 -0.5557
 2092SOL    MW4 8423   3.179   0.081   3.487  0.1180  0.3922 -0.3800
 2093SOL     OW 8424   3.146   0.333   3.413 -0.3181 -0.1171  0.1285
 2093SOL    HW2 8425   3.075   0.382   3.454 -1.2290 -0.0411 -1.4767
 2093SOL    HW3 8426   3.135   0.350   3.319  1.6750 -0.3109 -0.1562
 2093SOL    MW4 8427   3.135   0.341   3.406 -0.1752 -0.1327 -0.1209
 2094SOL     OW 8428   3.363   0.499   3.461  0.1312 -0.0089  0.0692
 2094SOL    HW2 8429   3.362   0.506   3.556 -1.3572  1.7601 -0.0341
 2094SOL    HW3 8430   3.285   0.447   3.440 -0.0617  0.4053 -0.2366
 2094SOL    MW4 8431   3.352   0.493   3.471 -0.0906  0.2791  0.0155
 2095SOL     OW 8432   3.350   0.762   3.365 -0.1460  0.2179  0.0767
 2095SOL    HW2 8433   3.431   0.800   3.397 -0.3753 -0.1346  1.0906
 2095SOL    HW3 8434   3.349   0.673   3.402 -1.0841  0.2904  0.2355
 2095SOL    MW4 8435   3.360   0.755   3.374 -0.3002  0.1810  0.2315
 2096SOL     OW 8436   3.170   0.886   3.525  0.2923  0.2633 -0.5501
 2096SOL    HW2 8437   3.149   0.971   3.484 -2.2173 -1.1812 -2.4215
 2096SOL    HW3 8438   3.237   0.849   3.468  1.9194  1.2760  0.6787
 2096SOL    MW4 8439   3.176   0.892   3.512  0.1762  0.2064 -0.6349
 2097SOL     OW 8440   3.145   1.146   3.436  0.6496 -0.3413  0.2728
 2097SOL    HW2 8441   3.218   1.192   3.478 -0.0179 -0.3499  1.4488
 2097SOL    HW3 8442   3.160   1.159   3.342  1.1781  1.2020  0.5560
 2097SOL    MW4 8443   3.157   1.154   3.429  0.6313 -0.1389  0.4652
 2098SOL     OW 8444   3.363   1.283   3.542 -0.2900  0.4926  0.4488
 2098SOL    HW2 8445   3.435   1.227   3.513 -1.3638 -0.4121 -0.5213
 2098SOL    HW3 8446   3.378   1.366   3.496 -0.6412 -0.1542 -0.8596
 2098SOL    MW4 8447   3.375   1.287   3.532 -0.4778  0.2878  0.1483
 2099SOL     OW 8448   3.417   1.529   3.428  0.3690  0.2408 -0.1890
 2099SOL    HW2 8449   3.494   1.586   3.428  0.5021  0.0663 -1.3938
 2099SOL    HW3 8450   3.344   1.587   3.449  0.8317  0.3977  1.0261
 2099SOL    MW4 8451   3.418   1.544   3.431  0.4478  0.2384 -0.1879
 2100SOL     OW 8452   3.182   1.644   3.494  0.2242  0.2494  0.1731
 2100SOL    HW2 8453   3.181   1.735   3.464 -2.4929  0.2835  0.2556
 2100SOL    HW3 8454   3.108   1.603   3.449  1.2007 -1.8423  0.4190
 2100SOL    MW4 8455   3.172   1.651   3.484 -0.0057 -0.0221  0.2165
 2101SOL     OW 8456   3.167   1.916   3.427 -0.3363  0.0030  0.0502
 2101SOL    HW2 8457   3.086   1.960   3.455 -0.9515 -0.6877 -0.5964
 2101SOL    HW3 8458   3.155   1.903   3.333  0.8722  0.5801 -0.1835
 2101SOL    MW4 8459   3.155   1.920   3.418 -0.2580 -0.0119 -0.0658
 2102SOL     OW 8460   3.420   2.037   3.501 -0.0097  0.3288  0.3521
 2102SOL    HW2 8461   3.419   2.129   3.476  1.2562  0.1978 -0.2326
 2102SOL    HW3 8462   3.330   2.006   3.486 -0.4196  1.4448  0.4986
 2102SOL    MW4 8463   3.408   2.045   3.496  0.1030  0.4587  0.2944
 2103SOL     OW 8464   3.416   2.296   3.406  0.2619 -0.1568  0.0395
 2103SOL    HW2 8465   3.482   2.351   3.449 -0.1523 -1.1447  1.9668
 2103SOL    HW3 8466   3.333   2.324   3.445 -0.2801 -0.1359 -1.1104
 2103SOL    MW4 8467   3.414   2.307   3.417  0.1357 -0.2844  0.1419
 2104SOL     OW 8468   3.177   2.426   3.512  0.0910  0.1855  0.1414
 2104SOL    HW2 8469   3.165   2.517   3.484 -2.2399  0.2508  1.1894
 2104SOL    HW3 8470   3.100   2.381   3.479  0.9229 -1.2827  0.1870
 2104SOL    MW4 8471   3.165   2.432   3.504 -0.1068  0.0005  0.2854
 2105SOL     OW 8472   3.143   2.698   3.426 -0.2081  0.4252 -0.3394
 2105SOL    HW2 8473   3.216   2.745   3.467  0.8282 -0.6699 -0.8772
 2105SOL    HW3 8474   3.067   2.753   3.441  0.5839  1.1867  0.9884
 2105SOL    MW4 8475   3.143   2.711   3.434  0.0331  0.3812 -0.2351
 2106SOL     OW 8476   3.380   2.839   3.500 -0.2647 -0.1681  0.0227
 2106SOL    HW2 8477   3.457   2.794   3.465  0.0197  0.1188  0.2729
 2106SOL    HW3 8478   3.384   2.926   3.462 -1.4574 -0.7158 -1.3824
 2106SOL    MW4 8479   3.391   2.844   3.491 -0.3846 -0.2024 -0.1297
 2107SOL     OW 8480   3.369   3.092   3.389 -1.1493  0.0403  0.1687
 2107SOL    HW2 8481   3.440   3.144   3.424 -0.9171 -1.2047  1.6131
 2107SOL    HW3 8482   3.289   3.133   3.423 -0.9326 -1.0653  2.1099
 2107SOL    MW4 8483   3.368   3.104   3.398 -1.0903 -0.2701  0.6154
 2108SOL     OW 8484   3.116   3.212   3.518 -0.2497  0.3571  0.6119
 2108SOL    HW2 8485   3.131   3.297   3.478  0.6057 -1.0776 -2.2846
 2108SOL    HW3 8486   3.043   3.175   3.468 -0.3114 -0.7894  1.5274
 2108SOL    MW4 8487   3.108   3.218   3.506 -0.1452  0.0165  0.3502
 2109SOL     OW 8488   3.191   3.469   3.433  0.1272 -0.2406 -0.7663
 2109SOL    HW2 8489   3.105   3.511   3.426  0.4796  0.2357 -2.6479
 2109SOL    HW3 8490   3.218   3.456   3.342  1.7145 -1.0682 -0.1865
 2109SOL    MW4 8491   3.183   3.473   3.420  0.3829 -0.2871 -0.9382
 2110SOL     OW 8492   3.394   3.647   3.514 -0.3359  0.6298  0.7314
 2110SOL    HW2 8493   3.391   3.728   3.462  0.8127 -0.0853 -0.4841
 2110SOL    HW3 8494   3.319   3.596   3.484  0.3413  0.2065 -0.2748
 2110SOL    MW4 8495   3.384   3.651   3.503 -0.0951  0.4797  0.4382
 2111SOL     OW 8496   3.414   3.871   3.376  0.2158 -0.4948  0.2751
 2111SOL    HW2 8497   3.490   3.907   3.421 -0.1262  1.0575 -0.3724
 2111SOL    HW3 8498   3.341   3.926   3.404 -0.4570 -1.1861 -0.1061
 2111SOL    MW4 8499   3.414   3.883   3.386  0.0818 -0.3812  0.1392
 2112SOL     OW 8500   3.182   3.968   3.487 -0.0009  0.2801 -0.1780
 2112SOL    HW2 8501   3.162   3.950   3.578  1.0600 -0.7479 -0.1357
 2112SOL    HW3 8502   3.180   4.064   3.480 -0.6717  0.3356  0.7750
 2112SOL    MW4 8503   3.179   3.979   3.498  0.0505  0.1519 -0.0465
 2113SOL     OW 8504   3.190   4.234   3.424 -0.1799  1.1185 -0.2870
 2113SOL    HW2 8505   3.272   4.274   3.453 -0.6739  0.3350  2.3471
 2113SOL    HW3 8506   3.122   4.293   3.457 -0.7607  0.3785 -0.1644
 2113SOL    MW4 8507   3.192   4.247   3.432 -0.3219  0.9179  0.0768
 2114SOL     OW 8508   3.419   4.379   3.490 -0.1380  0.2674  0.2656
 2114SOL    HW2 8509   3.407   4.387   3.585  2.5739  1.7875  0.5141
 2114SOL    HW3 8510   3.409   4.468   3.457  0.7283  0.0225 -0.6599
 2114SOL    MW4 8511   3.416   4.392   3.498  0.3340  0.4358  0.1764
 2115SOL     OW 8512   3.838   0.032   3.347  0.1211  0.1460 -0.7123
 2115SOL    HW2 8513   3.757   0.067   3.383 -0.2393  0.2641 -1.6162
 2115SOL    HW3 8514   3.820   0.023   3.253  1.0631 -0.0754 -0.8730
 2115SOL    MW4 8515   3.825   0.035   3.339  0.1979  0.1321 -0.8526
 2116SOL     OW 8516   3.630   0.153   3.474  0.1844  0.1238  0.3401
 2116SOL    HW2 8517   3.611   0.241   3.440 -0.2481 -0.2999 -0.5171
 2116SOL    HW3 8518   3.552   0.102   3.453  0.5739 -0.5508  0.5426
 2116SOL    MW4 8519   3.617   0.158   3.466  0.1786 -0.0211  0.2537
 2117SOL     OW 8520   3.600   0.406   3.344 -0.4247 -0.2534  0.3390
 2117SOL    HW2 8521   3.667   0.470   3.368 -0.8080  0.0407  0.6168
 2117SOL    HW3 8522   3.517   0.446   3.369 -0.7000 -0.6746  0.1165
 2117SOL    MW4 8523   3.598   0.420   3.350 -0.5114 -0.2702  0.3464
 2118SOL     OW 8524   3.833   0.513   3.450 -0.4811 -0.3366  0.0016
 2118SOL    HW2 8525   3.830   0.510   3.545  0.0879 -1.8421 -0.0145
 2118SOL    HW3 8526   3.915   0.470   3.427  0.0178  1.1784 -1.1265
 2118SOL    MW4 8527   3.843   0.506   3.459 -0.3400 -0.3353 -0.1493
 2119SOL     OW 8528   3.811   0.774   3.386 -0.0480 -0.0819  0.3689
 2119SOL    HW2 8529   3.881   0.813   3.438  0.7704  0.6772 -1.2817
 2119SOL    HW3 8530   3.822   0.680   3.398  2.0259 -0.0170 -0.8338
 2119SOL    MW4 8531   3.822   0.767   3.394  0.3333  0.0269 -0.0076
 2120SOL     OW 8532   3.582   0.864   3.490 -0.3637 -0.1691 -0.1583
 2120SOL    HW2 8533   3.573   0.844   3.584  1.0456 -0.4930 -0.0787
 2120SOL    HW3 8534   3.659   0.815   3.463 -0.4142  0.4081 -1.3590
 2120SOL    MW4 8535   3.591   0.855   3.499 -0.1845 -0.1358 -0.3064
 2121SOL     OW 8536   3.575   1.133   3.427  0.5576  0.4831  0.2281
 2121SOL    HW2 8537   3.587   1.041   3.452  0.7496  0.5638  0.4356
 2121SOL    HW3 8538   3.571   1.131   3.332  1.2332  0.3357  0.1983
 2121SOL    MW4 8539   3.576   1.121   3.418  0.6723  0.4742  0.2518
 2122SOL     OW 8540   3.819   1.240   3.489 -0.3384  0.2148  0.3963
 2122SOL    HW2 8541   3.823   1.237   3.584 -2.0757  0.2873  0.4912
 2122SOL    HW3 8542   3.730   1.210   3.468 -0.2345  0.9620 -1.1608
 2122SOL    MW4 8543   3.808   1.235   3.499 -0.5538  0.3231  0.2031
 2123SOL     OW 8544   3.802   1.509   3.390  0.0922  0.5508  0.6005
 2123SOL    HW2 8545   3.872   1.529   3.453 -0.5264  0.5459  1.3051
 2123SOL    HW3 8546   3.777   1.419   3.411 -0.3521  0.6674  0.5794
 2123SOL    MW4 8547   3.808   1.500   3.401 -0.0477  0.5655  0.6907
 2124SOL     OW 8548   3.618   1.718   3.448  0.5087 -0.0770  0.3677
 2124SOL    HW2 8549   3.655   1.804   3.429  0.2773 -0.0093  0.2125
 2124SOL    HW3 8550   3.685   1.656   3.420 -0.2862 -0.0212 -1.8417
 2124SOL    MW4 8551   3.631   1.721   3.441  0.3731 -0.0607  0.0556
 2125SOL     OW 8552   3.675   1.990   3.410 -0.1779  0.2132  0.4134
 2125SOL    HW2 8553   3.737   2.013   3.480 -0.7480 -0.6163  1.2067
 2125SOL    HW3 8554   3.589   2.007   3.448 -0.5346 -1.3943  0.3460
 2125SOL    MW4 8555   3.672   1.995   3.425 -0.3002 -0.1084  0.5090
 2126SOL     OW 8556   3.882   2.079   3.559 -0.6513 -0.0004  0.7654
 2126SOL    HW2 8557   3.874   2.055   3.652 -3.3671  0.0117  0.5915
 2126SOL    HW3 8558   3.952   2.023   3.526  0.2336 -0.1369  2.7826
 2126SOL    MW4 8559   3.890   2.068   3.567 -0.8926 -0.0167  1.0087
 2127SOL     OW 8560   3.821   2.299   3.410  0.4422  0.0493  0.0688
 2127SOL    HW2 8561   3.892   2.352   3.445 -0.8048  0.7032  1.6917
 2127SOL    HW3 8562   3.836   2.211   3.445  0.6652  0.0939  0.0865
 2127SOL    MW4 8563   3.832   2.294   3.419  0.3071  0.1411  0.2854
 2128SOL     OW 8564   3.618   2.419   3.538 -0.4706  0.1608 -0.4554
 2128SOL    HW2 8565   3.587   2.499   3.496 -0.5141  0.4125  0.0497
 2128SOL    HW3 8566   3.701   2.398   3.494 -0.2013  0.7666 -0.2340
 2128SOL    MW4 8567   3.625   2.427   3.527 -0.4406  0.2739 -0.3598
 2129SOL     OW 8568   3.567   2.660   3.425  0.0299 -0.5294 -0.0880
 2129SOL    HW2 8569   3.647   2.707   3.451 -1.1725  1.1748  0.6311
 2129SOL    HW3 8570   3.561   2.674   3.331  0.3102 -0.2171 -0.0615
 2129SOL    MW4 8571   3.577   2.668   3.416 -0.0920 -0.2632  0.0105
 2130SOL     OW 8572   3.781   2.819   3.494  0.1056  0.3994 -0.3413
 2130SOL    HW2 8573   3.775   2.819   3.590 -0.3839  0.5743 -0.3742
 2130SOL    HW3 8574   3.793   2.911   3.471  0.6279  0.3165 -0.4270
 2130SOL    MW4 8575   3.782   2.831   3.504  0.1099  0.4117 -0.3572
 2131SOL     OW 8576   3.775   3.077   3.424 -0.0123 -0.8672 -0.0709
 2131SOL    HW2 8577   3.857   3.118   3.450 -0.8928  0.4864  0.6285
 2131SOL    HW3 8578   3.775   3.082   3.328  0.5266 -0.4907 -0.0534
 2131SOL    MW4 8579   3.786   3.083   3.415 -0.0575 -0.6390  0.0234
 2132SOL     OW 8580   3.567   3.238   3.498 -0.2307 -0.1889  0.6228
 2132SOL    HW2 8581   3.580   3.332   3.483 -0.0381 -0.3987 -0.5374
 2132SOL    HW3 8582   3.652   3.198   3.478 -0.2577 -0.5895  1.2987
 2132SOL    MW4 8583   3.580   3.245   3.493 -0.2089 -0.2694  0.5589
 2133SOL     OW 8584   3.610   3.495   3.463  0.3679  0.4888 -0.2681
 2133SOL    HW2 8585   3.539   3.550   3.498 -0.5310 -0.3734 -0.7216
 2133SOL    HW3 8586   3.607   3.509   3.368  1.4504  1.2062 -0.2093
 2133SOL    MW4 8587   3.600   3.504   3.455  0.3922  0.4697 -0.3202
 2134SOL     OW 8588   3.845   3.626   3.530 -0.3658  0.6949  0.0351
 2134SOL    HW2 8589   3.859   3.615   3.624 -0.8998  1.2478  0.1843
 2134SOL    HW3 8590   3.761   3.583   3.513 -0.2421  0.5460 -0.2000
 2134SOL    MW4 8591   3.836   3.619   3.540 -0.4199  0.7484  0.0236
 2135SOL     OW 8592   3.795   3.874   3.400 -0.3616  0.3276  0.0439
 2135SOL    HW2 8593   3.723   3.917   3.445 -0.7593 -0.3468  0.0491
 2135SOL    HW3 8594   3.811   3.794   3.449 -1.0309 -0.5872 -1.2054
 2135SOL    MW4 8595   3.788   3.869   3.412 -0.5023  0.1180 -0.1204
 2136SOL     OW 8596   3.585   4.018   3.534  0.2234  0.4955 -0.1972
 2136SOL    HW2 8597   3.581   4.027   3.630  0.5491 -0.5679 -0.0840
 2136SOL    HW3 8598   3.619   4.103   3.504  0.4302  0.7194  0.6509
 2136SOL    MW4 8599   3.589   4.031   3.543  0.2937  0.3848 -0.0701
 2137SOL     OW 8600   3.656   4.262   3.423  0.0971 -0.0510  0.5053
 2137SOL    HW2 8601   3.588   4.320   3.456  1.1775  1.4535  0.1196
 2137SOL    HW3 8602   3.632   4.246   3.332 -0.6321 -0.8607  0.8351
 2137SOL    MW4 8603   3.644   4.267   3.415  0.1435  0.0410  0.4978
 2138SOL     OW 8604   3.829   4.450   3.503 -0.6066  0.3442 -0.5915
 2138SOL    HW2 8605   3.769   4.388   3.461  0.1433 -0.2340 -0.8089
 2138SOL    HW3 8606   3.835   4.523   3.441  0.4185 -0.4611 -1.4515
 2138SOL    MW4 8607   3.822   4.451   3.489 -0.3724  0.1612 -0.7336
 2139SOL     OW 8608   4.274   4.644   3.377 -0.2094  0.1861  0.1445
 2139SOL    HW2 8609   4.288   4.569   3.435 -2.6799 -1.1778 -0.9393
 2139SOL    HW3 8610   4.351   4.699   3.389  1.0456 -1.9043  1.9251
 2139SOL    MW4 8611   4.286   4.642   3.386 -0.3695 -0.2699  0.2365
 2140SOL     OW 8612   4.070   0.144   3.478  0.0384 -0.0341  0.0248
 2140SOL    HW2 8613   4.145   0.094   3.445  0.2267  1.1095 -1.3215
 2140SOL    HW3 8614   3.994   0.102   3.436 -0.0327 -0.7788  0.8797
 2140SOL    MW4 8615   4.070   0.132   3.468  0.0539  0.0186 -0.0401
 2141SOL     OW 8616   4.055   0.380   3.359 -0.1427  0.3611 -0.5878
 2141SOL    HW2 8617   4.054   0.293   3.399  0.5599  0.4111 -0.4572
 2141SOL    HW3 8618   4.028   0.366   3.269 -0.4343  0.0647 -0.4557
 2141SOL    MW4 8619   4.051   0.367   3.353 -0.0887  0.3286 -0.5531
 2142SOL     OW 8620   4.270   0.476   3.502 -0.0975 -0.4307  0.1198
 2142SOL    HW2 8621   4.275   0.563   3.463  2.1893 -1.4037 -1.8788
 2142SOL    HW3 8622   4.200   0.432   3.454  0.3839 -0.4760 -0.5536
 2142SOL    MW4 8623   4.261   0.481   3.491  0.2675 -0.5650 -0.2325
 2143SOL     OW 8624   4.268   0.737   3.393 -0.3858  0.2692 -0.4533
 2143SOL    HW2 8625   4.342   0.785   3.429  1.1601 -1.5776 -1.0779
 2143SOL    HW3 8626   4.272   0.754   3.299  0.4986 -1.4503 -0.7541
 2143SOL    MW4 8627   4.279   0.745   3.385 -0.0653 -0.2013 -0.5753
 2144SOL     OW 8628   4.048   0.881   3.503  0.1143 -0.2723 -0.0231
 2144SOL    HW2 8629   4.056   0.967   3.463 -1.1587  0.1133  0.4996
 2144SOL    HW3 8630   4.110   0.826   3.456  1.1064  0.9864 -0.2007
 2144SOL    MW4 8631   4.057   0.885   3.492  0.0768 -0.0554  0.0219
 2145SOL     OW 8632   4.042   1.137   3.361 -0.3597  0.4675 -0.0438
 2145SOL    HW2 8633   4.112   1.171   3.417 -0.4524  2.8978 -1.3269
 2145SOL    HW3 8634   3.964   1.186   3.389 -1.0571 -0.5657 -0.1806
 2145SOL    MW4 8635   4.041   1.148   3.372 -0.4640  0.6520 -0.2310
 2146SOL     OW 8636   4.262   1.256   3.493  0.0672  0.3789 -0.3022
 2146SOL    HW2 8637   4.264   1.349   3.471 -0.7927  0.2821 -0.8025
 2146SOL    HW3 8638   4.350   1.224   3.470 -0.0391  0.7998 -1.3122
 2146SOL    MW4 8639   4.274   1.264   3.487 -0.0606  0.4218 -0.5016
 2147SOL     OW 8640   4.227   1.538   3.418 -0.2462 -0.2169 -0.1053
 2147SOL    HW2 8641   4.146   1.583   3.444 -2.4826 -3.7497 -0.5396
 2147SOL    HW3 8642   4.228   1.544   3.322 -0.8235 -1.4489 -0.2008
 2147SOL    MW4 8643   4.216   1.545   3.409 -0.6175 -0.8456 -0.1752
 2148SOL     OW 8644   4.002   1.641   3.535  0.5951 -0.3738  0.4908
 2148SOL    HW2 8645   4.014   1.639   3.630 -0.0638  0.7965  0.5993
 2148SOL    HW3 8646   4.014   1.733   3.511  0.9595 -0.6990 -0.5885
 2148SOL    MW4 8647   4.005   1.653   3.544  0.5569 -0.2623  0.3626
 2149SOL     OW 8648   4.042   1.893   3.425 -0.0124 -0.4815 -0.6260
 2149SOL    HW2 8649   4.109   1.952   3.459  0.5301 -1.7576  0.5682
 2149SOL    HW3 8650   4.054   1.895   3.330  0.2874  0.9705 -0.5699
 2149SOL    MW4 8651   4.052   1.901   3.417  0.0987 -0.4582 -0.4609
 2150SOL     OW 8652   4.253   2.049   3.504 -0.0328 -0.3712  0.4718
 2150SOL    HW2 8653   4.267   2.143   3.491  0.9427 -0.2276  2.3691
 2150SOL    HW3 8654   4.336   2.009   3.477  0.6199 -0.3973  2.4016
 2150SOL    MW4 8655   4.266   2.056   3.499  0.1822 -0.3560  0.9766
 2151SOL     OW 8656   4.255   2.323   3.438 -0.0185  0.9912 -0.2127
 2151SOL    HW2 8657   4.179   2.373   3.468 -0.0090  0.9918 -0.1903
 2151SOL    HW3 8658   4.251   2.328   3.343  0.5363  1.8635 -0.1931
 2151SOL    MW4 8659   4.244   2.330   3.429  0.0558  1.1063 -0.2072
 2152SOL     OW 8660   4.019   2.446   3.503  0.0881  0.0422 -0.0429
 2152SOL    HW2 8661   4.020   2.443   3.599  1.4211 -1.7470 -0.0959
 2152SOL    HW3 8662   4.023   2.540   3.482 -1.7261  0.5197  1.6429
 2152SOL    MW4 8663   4.020   2.458   3.513  0.0253 -0.1309  0.1724
 2153SOL     OW 8664   4.030   2.740   3.407  0.3613  0.1078 -0.1793
 2153SOL    HW2 8665   4.107   2.776   3.450  0.9624 -1.6561  0.2874
 2153SOL    HW3 8666   3.956   2.787   3.444  1.1101  0.8242  0.4140
 2153SOL    MW4 8667   4.030   2.751   3.417  0.5398 -0.0303 -0.0393
 2154SOL     OW 8668   4.238   2.841   3.552  0.1434 -0.0703 -0.0420
 2154SOL    HW2 8669   4.241   2.828   3.647  0.5319  1.5432  0.1924
 2154SOL    HW3 8670   4.325   2.817   3.521 -0.7550 -3.1084 -0.3771
 2154SOL    MW4 8671   4.250   2.836   3.561  0.0768 -0.2584 -0.0551
 2155SOL     OW 8672   4.252   3.098   3.458  0.4645 -0.4369 -0.0706
 2155SOL    HW2 8673   4.232   3.013   3.496 -0.0581 -0.2514  0.0837
 2155SOL    HW3 8674   4.244   3.085   3.363  0.7404 -0.6484 -0.0622
 2155SOL    MW4 8675   4.248   3.085   3.451  0.4320 -0.4404 -0.0494
 2156SOL     OW 8676   3.999   3.219   3.509  0.5744  0.1540  0.1653
 2156SOL    HW2 8677   4.001   3.295   3.451 -0.5834 -1.8148 -2.5731
 2156SOL    HW3 8678   4.085   3.179   3.500  0.6961  0.3385  0.4998
 2156SOL    MW4 8679   4.011   3.223   3.500  0.4373 -0.0813 -0.1516
 2157SOL     OW 8680   4.025   3.472   3.404 -0.3425  0.0731  0.2588
 2157SOL    HW2 8681   4.104   3.511   3.441 -1.3148  0.6568  1.7948
 2157SOL    HW3 8682   3.954   3.525   3.440 -1.4003  0.0109 -1.6671
 2157SOL    MW4 8683   4.026   3.484   3.414 -0.6099  0.1419  0.2074
 2158SOL     OW 8684   4.255   3.607   3.496  0.2388  0.6165  0.0138
 2158SOL    HW2 8685   4.267   3.617   3.590 -0.5697  1.2357  0.0547
 2158SOL    HW3 8686   4.249   3.696   3.462  1.3720  0.4162 -0.7420
 2158SOL    MW4 8687   4.255   3.620   3.504  0.2823  0.6716 -0.0803
 2159SOL     OW 8688   4.237   3.865   3.397 -0.0844  0.0815  0.6867
 2159SOL    HW2 8689   4.313   3.906   3.437 -0.1291 -0.0032  0.8607
 2159SOL    HW3 8690   4.256   3.863   3.304 -0.4849  1.3530  0.5611
 2159SOL    MW4 8691   4.249   3.870   3.390 -0.1435  0.2382  0.6933
 2160SOL     OW 8692   4.018   3.993   3.519  0.0355  0.1242 -0.0799
 2160SOL    HW2 8693   4.094   3.954   3.476  0.2374  1.6815 -1.1667
 2160SOL    HW3 8694   3.943   3.955   3.474  0.2296  1.0508 -1.1923
 2160SOL    MW4 8695   4.018   3.983   3.508  0.0873  0.4520 -0.3700
 2161SOL     OW 8696   4.044   4.272   3.421  0.2360  0.0347  0.1385
 2161SOL    HW2 8697   4.015   4.191   3.464  1.5118 -0.6171 -0.2134
 2161SOL    HW3 8698   3.991   4.341   3.461 -1.1722 -1.0181  0.1431
 2161SOL    MW4 8699   4.033   4.270   3.432  0.2193 -0.1907  0.0925
 2162SOL     OW 8700   4.305   4.393   3.488 -0.7004 -0.0213  0.1809
 2162SOL    HW2 8701   4.288   4.387   3.582 -1.3698  0.9548  0.1271
 2162SOL    HW3 8702   4.236   4.340   3.448 -1.3584  0.8390  0.1634
 2162SOL    MW4 8703   4.294   4.385   3.495 -0.8755  0.2213  0.1714
 2163SOL     OW 8704   0.209   4.653   3.848 -0.3072  0.1389 -0.7947
 2163SOL    HW2 8705   0.191   4.648   3.942 -1.5418  1.1025 -0.9666
 2163SOL    HW3 8706   0.136   4.705   3.813  1.4604  1.9199 -1.9145
 2163SOL    MW4 8707   0.197   4.659   3.856 -0.2369  0.5012 -0.9649
 2164SOL     OW 8708   4.479   0.108   3.767 -0.0482 -0.1891  0.1012
 2164SOL    HW2 8709   4.501   0.193   3.807  2.0046 -0.9201  0.5981
 2164SOL    HW3 8710   4.465   0.128   3.675 -2.0156  1.0633  0.6249
 2164SOL    MW4 8711   4.480   0.122   3.760 -0.0369 -0.1203  0.2360
 2165SOL     OW 8712   0.015   0.360   3.874  0.1709 -0.3262 -0.2566
 2165SOL    HW2 8713  -0.064   0.414   3.865  0.0235 -0.3185  0.9592
 2165SOL    HW3 8714   0.084   0.411   3.833 -0.3711 -0.1239 -0.9189
 2165SOL    MW4 8715   0.014   0.374   3.868  0.0801 -0.2985 -0.1838
 2166SOL     OW 8716   0.215   0.531   3.788 -0.0209  0.1060 -0.2154
 2166SOL    HW2 8717   0.246   0.610   3.832 -0.4537  0.3172 -0.2899
 2166SOL    HW3 8718   0.209   0.555   3.696  2.4411 -0.8137 -0.6399
 2166SOL    MW4 8719   0.218   0.545   3.782  0.2468  0.0125 -0.2813
 2167SOL     OW 8720   0.243   0.786   3.906 -0.3339  0.2946 -0.0205
 2167SOL    HW2 8721   0.223   0.811   3.996 -0.6263  0.6484 -0.1840
 2167SOL    HW3 8722   0.173   0.825   3.853 -0.7007 -0.7343 -0.2997
 2167SOL    MW4 8723   0.231   0.794   3.911 -0.4209  0.2056 -0.0784
 2168SOL     OW 8724   0.025   0.895   3.778  0.4343 -0.7016 -0.1328
 2168SOL    HW2 8725  -0.054   0.846   3.801  0.8294 -0.5906  1.5185
 2168SOL    HW3 8726   0.016   0.979   3.824  0.9412 -0.1957 -0.9343
 2168SOL    MW4 8727   0.013   0.900   3.787  0.5533 -0.6202 -0.0205
 2169SOL     OW 8728   0.013   1.155   3.880 -0.1733  0.4735 -0.2648
 2169SOL    HW2 8729  -0.056   1.188   3.823  0.1132  1.0220 -0.3052
 2169SOL    HW3 8730   0.094   1.187   3.841  0.0871  0.0495 -0.0771
 2169SOL    MW4 8731   0.015   1.164   3.868 -0.1011  0.4900 -0.2453
 2170SOL     OW 8732   0.227   1.270   3.755  0.1810  0.3165 -0.4893
 2170SOL    HW2 8733   0.244   1.353   3.800  0.6358  0.5099 -1.0171
 2170SOL    HW3 8734   0.232   1.291   3.662  0.5007 -0.3408 -0.6243
 2170SOL    MW4 8735   0.230   1.284   3.749  0.2831  0.2552 -0.5767
 2171SOL     OW 8736   0.260   1.578   4.163 -0.2409 -0.0047  0.1797
 2171SOL    HW2 8737   0.244   1.489   4.194  3.0158 -0.6681  0.1005
 2171SOL    HW3 8738   0.321   1.616   4.226  2.5183  0.3221 -2.5380
 2171SOL    MW4 8739   0.266   1.571   4.175  0.5528 -0.0491 -0.1893
 2172SOL     OW 8740   0.021   1.676   3.752  0.2852  0.1976 -0.0921
 2172SOL    HW2 8741   0.031   1.766   3.783 -0.7434  0.5722 -0.8092
 2172SOL    HW3 8742   0.016   1.684   3.657  0.2057 -0.6211 -0.1619
 2172SOL    MW4 8743   0.022   1.689   3.744  0.1388  0.1390 -0.1960
 2173SOL     OW 8744   4.485   1.930   3.875  0.5168  0.0752  0.5349
 2173SOL    HW2 8745   4.495   1.932   3.970 -0.7899 -1.6598  0.7369
 2173SOL    HW3 8746   4.406   1.981   3.858 -0.6563 -1.6455  0.6372
 2173SOL    MW4 8747   4.476   1.937   3.886  0.1898 -0.3808  0.5748
 2174SOL     OW 8748   0.231   2.047   3.772  0.0983 -0.1767  0.0868
 2174SOL    HW2 8749   0.244   2.138   3.797  0.5254  0.4883 -2.4060
 2174SOL    HW3 8750   0.144   2.025   3.806 -0.1823  1.2797  0.3484
 2174SOL    MW4 8751   0.221   2.056   3.780  0.1176  0.1032 -0.2077
 2175SOL     OW 8752   0.216   2.305   3.852 -0.3590  0.2271  0.2822
 2175SOL    HW2 8753   0.212   2.307   3.948  2.0238  0.6045  0.3862
 2175SOL    HW3 8754   0.140   2.357   3.825 -0.0404  1.6728  1.9945
 2175SOL    MW4 8755   0.205   2.312   3.861 -0.0026  0.4678  0.5219
 2176SOL     OW 8756   4.475   2.436   3.772  0.5456 -0.1538  0.0268
 2176SOL    HW2 8757   4.398   2.388   3.805 -0.1897 -0.2191 -1.7650
 2176SOL    HW3 8758   4.468   2.522   3.812  0.5109 -0.7246  1.2844
 2176SOL    MW4 8759   4.464   2.441   3.782  0.4439 -0.2375 -0.0436
 2177SOL     OW 8760   4.467   2.711   3.886  0.2623  0.1140  0.1171
 2177SOL    HW2 8761   4.546   2.751   3.849  0.6313 -0.1048  0.6768
 2177SOL    HW3 8762   4.477   2.721   3.981 -0.8839  1.0551  0.1459
 2177SOL    MW4 8763   4.479   2.718   3.894  0.1602  0.2093  0.1948
 2178SOL     OW 8764   0.221   2.843   3.807  0.1063 -0.5341  0.1467
 2178SOL    HW2 8765   0.304   2.804   3.835  0.9513  0.1190 -1.3695
 2178SOL    HW3 8766   0.220   2.830   3.712 -0.6884  1.0591 -0.0690
 2178SOL    MW4 8767   0.232   2.836   3.798  0.1129 -0.2379 -0.0818
 2179SOL     OW 8768   0.212   3.092   3.909  0.2107 -0.1143 -0.0417
 2179SOL    HW2 8769   0.197   3.083   4.003 -1.7143  0.9327 -0.2130
 2179SOL    HW3 8770   0.225   3.002   3.878  0.8456 -0.4650  1.2191
 2179SOL    MW4 8771   0.212   3.079   3.917  0.0405 -0.0226  0.1020
 2180SOL     OW 8772   4.479   3.200   3.779 -0.2378  0.2621 -0.1815
 2180SOL    HW2 8773   4.552   3.167   3.832 -0.0503 -1.0666 -1.2470
 2180SOL    HW3 8774   4.509   3.190   3.689 -2.4293 -1.9651 -0.6931
 2180SOL    MW4 8775   4.493   3.194   3.774 -0.5026 -0.2069 -0.3898
 2181SOL     OW 8776   4.479   3.459   3.871  0.3667  0.1487  0.0777
 2181SOL    HW2 8777   4.562   3.503   3.853  0.2410  0.4571  0.2530
 2181SOL    HW3 8778   4.489   3.373   3.830  0.4068  0.5295 -0.7348
 2181SOL    MW4 8779   4.491   3.454   3.863  0.3552  0.2394 -0.0064
 2182SOL     OW 8780   0.225   3.612   3.806  0.0140 -0.3331  0.3500
 2182SOL    HW2 8781   0.311   3.584   3.840 -0.7136 -0.2187  2.3552
 2182SOL    HW3 8782   0.219   3.704   3.830 -0.2447 -0.0706 -0.7079
 2182SOL    MW4 8783   0.236   3.620   3.814 -0.1161 -0.2835  0.4749
 2183SOL     OW 8784   0.222   3.882   3.890 -0.3622 -0.0708  0.1429
 2183SOL    HW2 8785   0.242   3.890   3.983  1.0835  2.2975 -0.3303
 2183SOL    HW3 8786   0.292   3.930   3.846 -1.7571 -0.0149 -2.1007
 2183SOL    MW4 8787   0.234   3.889   3.896 -0.3555  0.2491 -0.2153
 2184SOL     OW 8788   0.023   4.029   3.748  0.0886 -0.1041  0.2080
 2184SOL    HW2 8789  -0.058   3.985   3.774  0.5850 -1.2446 -0.1392
 2184SOL    HW3 8790   0.093   3.980   3.793  0.6247  0.4684  0.0042
 2184SOL    MW4 8791   0.022   4.016   3.758  0.2248 -0.1793  0.1352
 2185SOL     OW 8792   4.469   4.266   3.882 -0.2502  0.8040 -0.0140
 2185SOL    HW2 8793   4.552   4.314   3.893 -0.1672  0.1371  2.3902
 2185SOL    HW3 8794   4.495   4.182   3.844  0.1536  0.6216  0.6761
 2185SOL    MW4 8795   4.484   4.261   3.878 -0.1864  0.6924  0.3943
 2186SOL     OW 8796   0.224   4.379   3.762  0.7395  0.0239 -0.0723
 2186SOL    HW2 8797   0.281   4.335   3.826  0.8381  0.1764 -0.0536
 2186SOL    HW3 8798   0.232   4.472   3.784  0.9463  0.0970 -0.4441
 2186SOL    MW4 8799   0.233   4.386   3.774  0.7798  0.0539 -0.1192
 2187SOL     OW 8800   0.659   0.001   3.924 -0.2659 -0.2355 -0.5713
 2187SOL    HW2 8801   0.649  -0.091   3.901 -0.0831 -0.2498 -0.5913
 2187SOL    HW3 8802   0.584   0.044   3.881 -0.4857 -0.4081 -0.3606
 2187SOL    MW4 8803   0.648  -0.005   3.915 -0.2708 -0.2604 -0.5460
 2188SOL     OW 8804   0.464   0.117   3.778 -0.3123  0.0519 -0.0093
 2188SOL    HW2 8805   0.444   0.201   3.819 -1.0771  0.4402 -1.1468
 2188SOL    HW3 8806   0.383   0.066   3.787  0.4894 -0.9799  1.6410
 2188SOL    MW4 8807   0.450   0.121   3.785 -0.3074 -0.0330  0.0587
 2189SOL     OW 8808   0.397   0.367   3.911 -0.0828 -0.2790  0.1492
 2189SOL    HW2 8809   0.474   0.405   3.869  0.2983 -0.9063  0.2733
 2189SOL    HW3 8810   0.323   0.407   3.866  0.2866  1.8381  1.3568
 2189SOL    MW4 8811   0.397   0.378   3.900  0.0162 -0.0825  0.3247
 2190SOL     OW 8812   0.628   0.494   3.765  0.2115 -0.8783  0.0367
 2190SOL    HW2 8813   0.713   0.456   3.788  0.3161 -1.1310 -0.7560
 2190SOL    HW3 8814   0.633   0.584   3.797  1.2222 -0.5379 -1.0277
 2190SOL    MW4 8815   0.640   0.501   3.772  0.3587 -0.8667 -0.2084
 2191SOL     OW 8816   0.676   0.749   3.860  0.0461  0.0020 -0.2200
 2191SOL    HW2 8817   0.766   0.763   3.829  0.0654 -0.2717 -0.2898
 2191SOL    HW3 8818   0.625   0.817   3.817  0.3317  0.5641  0.3312
 2191SOL    MW4 8819   0.681   0.760   3.850  0.0862  0.0401 -0.1564
 2192SOL     OW 8820   0.465   0.899   3.749 -0.2588 -0.1273 -0.4616
 2192SOL    HW2 8821   0.475   0.975   3.806 -0.3420  0.3768 -1.1160
 2192SOL    HW3 8822   0.399   0.845   3.793  0.0973 -0.0252  0.2123
 2192SOL    MW4 8823   0.457   0.902   3.763 -0.2228 -0.0474 -0.4590
 2193SOL     OW 8824   0.464   1.151   3.882  0.1242  0.1299  0.4794
 2193SOL    HW2 8825   0.527   1.213   3.845  0.5162  0.6053  1.8823
 2193SOL    HW3 8826   0.380   1.177   3.846  0.5937  0.1011 -0.6558
 2193SOL    MW4 8827   0.461   1.162   3.872  0.2379  0.1887  0.5147
 2194SOL     OW 8828   0.663   1.303   3.759 -0.2999 -0.2506 -0.0941
 2194SOL    HW2 8829   0.744   1.261   3.788  0.6306  1.9803  0.6710
 2194SOL    HW3 8830   0.656   1.280   3.667  2.6433  1.6770 -0.8790
 2194SOL    MW4 8831   0.673   1.294   3.751  0.2112  0.2981 -0.0970
 2195SOL     OW 8832   0.632   1.553   3.847 -0.3054  0.3110 -0.1803
 2195SOL    HW2 8833   0.722   1.586   3.842  0.0699 -0.6871 -0.0506
 2195SOL    HW3 8834   0.638   1.463   3.817 -1.0186 -0.2197  1.2226
 2195SOL    MW4 8835   0.645   1.545   3.843 -0.3499  0.1093  0.0219
 2196SOL     OW 8836   0.238   1.535   3.875  0.5332 -0.1024  0.1193
 2196SOL    HW2 8837   0.245   1.561   3.966 -0.3795 -2.1352  0.7874
 2196SOL    HW3 8838   0.155   1.571   3.846  0.1001 -0.7613  0.5360
 2196SOL    MW4 8839   0.228   1.543   3.883  0.3556 -0.4576  0.2627
 2197SOL     OW 8840   0.425   1.660   3.698 -0.4703  0.0065  0.3870
 2197SOL    HW2 8841   0.502   1.626   3.744 -0.6595  1.3762  1.7686
 2197SOL    HW3 8842   0.350   1.621   3.744 -0.6552  1.1103  1.0271
 2197SOL    MW4 8843   0.425   1.650   3.710 -0.5197  0.3328  0.6537
 2198SOL     OW 8844   0.659   2.047   3.750 -0.2307 -0.2463 -0.0852
 2198SOL    HW2 8845   0.650   2.129   3.798  0.7646 -0.3233  0.2399
 2198SOL    HW3 8846   0.578   1.999   3.768 -0.9000  0.7342 -0.4232
 2198SOL    MW4 8847   0.647   2.052   3.758 -0.1876 -0.1273 -0.0870
 2199SOL     OW 8848   0.655   2.298   3.854 -1.0244 -0.5109  0.0873
 2199SOL    HW2 8849   0.738   2.344   3.843 -0.6203 -1.4316 -0.7340
 2199SOL    HW3 8850   0.592   2.352   3.805 -0.9435  0.2369  0.7884
 2199SOL    MW4 8851   0.658   2.312   3.846 -0.9605 -0.5336  0.0713
 2200SOL     OW 8852   0.448   2.457   3.759  0.3151  0.3216 -0.2487
 2200SOL    HW2 8853   0.364   2.429   3.797  0.3807  0.5012  0.0279
 2200SOL    HW3 8854   0.434   2.452   3.664  0.3465 -0.7159 -0.2054
 2200SOL    MW4 8855   0.435   2.453   3.751  0.3279  0.2081 -0.2065
 2201SOL     OW 8856   0.461   2.711   3.869  0.1170 -0.1980 -0.3127
 2201SOL    HW2 8857   0.544   2.741   3.831  1.0726 -1.8887  0.3387
 2201SOL    HW3 8858   0.456   2.619   3.843 -2.2874  0.2566 -1.5380
 2201SOL    MW4 8859   0.472   2.703   3.861 -0.0741 -0.3610 -0.3884
 2202SOL     OW 8860   0.673   2.829   3.746 -0.2763  0.0731  0.2971
 2202SOL    HW2 8861   0.764   2.805   3.763 -0.5595 -1.4040 -0.1824
 2202SOL    HW3 8862   0.670   2.849   3.652 -0.7981 -1.5532 -0.0380
 2202SOL    MW4 8863   0.685   2.829   3.736 -0.3825 -0.3362  0.1895
 2203SOL     OW 8864   0.668   3.087   3.873 -0.1429 -0.3010  0.0601
 2203SOL    HW2 8865   0.663   3.095   3.969 -1.9889  0.0107 -0.0359
 2203SOL    HW3 8866   0.692   2.996   3.858  2.5147  0.2218  0.8437
 2203SOL    MW4 8867   0.671   3.076   3.884 -0.0358 -0.1910  0.1509
 2204SOL     OW 8868   0.435   3.239   3.784 -0.2338  0.2074 -0.4025
 2204SOL    HW2 8869   0.503   3.176   3.807  0.7104  1.4191  0.2029
 2204SOL    HW3 8870   0.356   3.205   3.826  0.6536  0.3568  1.4254
 2204SOL    MW4 8871   0.434   3.226   3.793  0.0078  0.3872 -0.0818
 2205SOL     OW 8872   0.439   3.483   3.914 -0.1005  0.0809  0.2867
 2205SOL    HW2 8873   0.523   3.521   3.887 -0.1496  2.0500  2.7202
 2205SOL    HW3 8874   0.440   3.394   3.877  2.4931  0.5009 -0.7827
 2205SOL    MW4 8875   0.450   3.476   3.905  0.2352  0.3960  0.4666
 2206SOL     OW 8876   0.663   3.617   3.826 -0.8605 -0.1348 -0.5582
 2206SOL    HW2 8877   0.670   3.712   3.831 -0.4791 -0.1699 -0.4207
 2206SOL    HW3 8878   0.684   3.597   3.734 -0.9639 -0.0823 -0.5930
 2206SOL    MW4 8879   0.667   3.627   3.814 -0.8237 -0.1326 -0.5448
 2207SOL     OW 8880   0.689   3.891   3.859 -0.0779 -0.3659  0.0137
 2207SOL    HW2 8881   0.663   3.902   3.951 -0.5145  0.7672 -0.2455
 2207SOL    HW3 8882   0.765   3.947   3.849 -0.5499  0.1718 -0.5460
 2207SOL    MW4 8883   0.696   3.900   3.870 -0.1977 -0.1457 -0.0942
 2208SOL     OW 8884   0.447   4.011   3.778 -0.3198 -0.0627  0.0228
 2208SOL    HW2 8885   0.537   3.982   3.792 -0.3932  0.5213  1.9441
 2208SOL    HW3 8886   0.441   4.028   3.684  1.5538 -0.1492 -0.1334
 2208SOL    MW4 8887   0.458   4.009   3.768 -0.0823  0.0024  0.2558
 2209SOL     OW 8888   0.421   4.258   3.938  0.0708  0.4613 -0.0354
 2209SOL    HW2 8889   0.495   4.307   3.903  1.2512 -0.1592  1.5239
 2209SOL    HW3 8890   0.421   4.175   3.890  1.5355 -0.2894  1.2278
 2209SOL    MW4 8891   0.431   4.253   3.927  0.4198  0.2804  0.3369
 2210SOL     OW 8892   0.631   4.392   3.818  0.3409  0.1561  0.2407
 2210SOL    HW2 8893   0.716   4.348   3.830  0.6014  1.0560  1.7566
 2210SOL    HW3 8894   0.621   4.398   3.723  1.1841 -1.4666  0.0233
 2210SOL    MW4 8895   0.641   4.387   3.807  0.4866  0.0610  0.4120
 2211SOL     OW 8896   1.130   4.654   3.845  0.1617 -0.1555 -0.0508
 2211SOL    HW2 8897   1.208   4.695   3.807  0.6772 -1.6557 -0.6187
 2211SOL    HW3 8898   1.118   4.574   3.795 -1.3693 -0.2643  0.4762
 2211SOL    MW4 8899   1.139   4.649   3.833  0.0278 -0.3678 -0.0565
 2212SOL     OW 8900   0.875   0.122   3.790 -0.4646 -0.2076  0.1796
 2212SOL    HW2 8901   0.954   0.089   3.832 -0.1549  0.3897  0.0742
 2212SOL    HW3 8902   0.803   0.088   3.843 -0.1527 -1.0554  0.0587
 2212SOL    MW4 8903   0.876   0.113   3.802 -0.3827 -0.2406  0.1497
 2213SOL     OW 8904   0.879   0.387   3.848  0.0006  0.0215 -0.3601
 2213SOL    HW2 8905   0.872   0.377   3.942  0.8221  1.4978 -0.1268
 2213SOL    HW3 8906   0.889   0.298   3.815 -1.7096 -0.6248  0.8066
 2213SOL    MW4 8907   0.879   0.374   3.856 -0.1168  0.1310 -0.1755
 2214SOL     OW 8908   1.111   0.509   3.760  0.5011 -0.0093 -0.1858
 2214SOL    HW2 8909   1.184   0.455   3.789 -0.6221 -1.4160  0.1260
 2214SOL    HW3 8910   1.033   0.460   3.788 -0.5661  0.5978 -2.0140
 2214SOL    MW4 8911   1.110   0.495   3.768  0.2121 -0.1148 -0.3860
 2215SOL     OW 8912   1.170   0.770   4.110 -0.3526  0.2372  0.0794
 2215SOL    HW2 8913   1.161   0.682   4.147 -1.3022 -0.7299 -2.3526
 2215SOL    HW3 8914   1.245   0.808   4.155  0.5103 -2.1082  0.6503
 2215SOL    MW4 8915   1.179   0.764   4.121 -0.3639 -0.1999 -0.1659
 2216SOL     OW 8916   0.903   0.896   3.752 -0.0930 -0.4716  0.1501
 2216SOL    HW2 8917   0.997   0.884   3.765  0.1688  1.0960 -0.1585
 2216SOL    HW3 8918   0.894   0.911   3.658 -0.5699  0.0802  0.2834
 2216SOL    MW4 8919   0.914   0.896   3.741 -0.1214 -0.1920  0.1271
 2217SOL     OW 8920   0.896   1.155   3.857  0.0861  0.0727 -0.3233
 2217SOL    HW2 8921   0.901   1.152   3.953 -0.8594  0.7080 -0.2445
 2217SOL    HW3 8922   0.889   1.064   3.830 -0.0864 -0.0831  0.2438
 2217SOL    MW4 8923   0.896   1.143   3.866 -0.0613  0.1360 -0.2382
 2218SOL     OW 8924   1.130   1.289   3.762 -0.3072  0.4115 -0.3279
 2218SOL    HW2 8925   1.123   1.376   3.801 -0.3753  0.1046  0.3673
 2218SOL    HW3 8926   1.057   1.240   3.800  0.5836 -0.3672  0.4279
 2218SOL    MW4 8927   1.120   1.294   3.772 -0.1986  0.2683 -0.1364
 2219SOL     OW 8928   1.134   1.548   3.878  0.1232  0.5906  0.2980
 2219SOL    HW2 8929   1.158   1.551   3.971  0.1339  0.4116  0.3013
 2219SOL    HW3 8930   1.213   1.577   3.832  0.0526  0.8804  0.3534
 2219SOL    MW4 8931   1.147   1.553   3.884  0.1153  0.6052  0.3057
 2220SOL     OW 8932   0.904   1.682   3.788 -0.2944 -0.4464  0.2184
 2220SOL    HW2 8933   0.982   1.637   3.821  0.3356 -0.7562 -1.6555
 2220SOL    HW3 8934   0.905   1.666   3.694 -1.5267  1.2651 -0.1028
 2220SOL    MW4 8935   0.914   1.674   3.780 -0.3738 -0.2614 -0.0713
 2221SOL     OW 8936   0.892   1.968   3.870  0.3522  0.2743  0.3865
 2221SOL    HW2 8937   0.903   1.883   3.828 -0.8062 -0.0380  0.7071
 2221SOL    HW3 8938   0.806   1.999   3.841  0.9903  1.5704 -0.1430
 2221SOL    MW4 8939   0.882   1.961   3.861  0.2835  0.4041  0.3591
 2222SOL     OW 8940   1.120   2.102   3.763  0.3230  0.3292 -0.1469
 2222SOL    HW2 8941   1.039   2.063   3.796  0.7967 -0.9015 -0.4092
 2222SOL    HW3 8942   1.118   2.086   3.669  0.6498  0.6906 -0.2163
 2222SOL    MW4 8943   1.109   2.094   3.755  0.4284  0.2146 -0.1907
 2223SOL     OW 8944   1.180   2.341   3.875  0.0778 -0.1485 -0.2021
 2223SOL    HW2 8945   1.199   2.328   3.968 -0.9046 -0.4353 -0.0362
 2223SOL    HW3 8946   1.166   2.253   3.840  0.0567 -0.0150 -0.5370
 2223SOL    MW4 8947   1.180   2.328   3.883 -0.0545 -0.1688 -0.2244
 2224SOL     OW 8948   0.895   2.438   3.830 -0.3509 -0.1955 -0.5368
 2224SOL    HW2 8949   0.893   2.534   3.834 -1.8823 -0.2383 -0.0073
 2224SOL    HW3 8950   0.986   2.415   3.846 -0.0870  1.1572 -0.0396
 2224SOL    MW4 8951   0.906   2.448   3.833 -0.5181 -0.0224 -0.4013
 2225SOL     OW 8952   0.929   2.717   3.814  0.0930 -0.4268  0.0057
 2225SOL    HW2 8953   0.929   2.716   3.910  0.6199  0.4359  0.0150
 2225SOL    HW3 8954   1.011   2.762   3.791 -0.2180 -0.3024 -0.8445
 2225SOL    MW4 8955   0.940   2.723   3.824  0.1215 -0.2966 -0.1054
 2226SOL     OW 8956   1.161   2.858   3.771 -0.6874 -0.2431  0.2100
 2226SOL    HW2 8957   1.234   2.814   3.815  0.3034  0.7844 -0.3856
 2226SOL    HW3 8958   1.158   2.945   3.812 -1.2062 -0.0803 -0.1694
 2226SOL    MW4 8959   1.171   2.864   3.783 -0.6250 -0.0861  0.0811
 2227SOL     OW 8960   1.109   3.086   3.903 -0.4293 -0.1024  0.1577
 2227SOL    HW2 8961   1.188   3.139   3.892 -0.3371 -0.0368  1.0879
 2227SOL    HW3 8962   1.038   3.141   3.869 -0.1586  0.0764 -0.1256
 2227SOL    MW4 8963   1.110   3.100   3.897 -0.3814 -0.0703  0.2432
 2228SOL     OW 8964   0.879   3.252   3.823 -0.2770 -0.4023 -0.5173
 2228SOL    HW2 8965   0.800   3.207   3.853 -1.3039  0.9337 -1.1664
 2228SOL    HW3 8966   0.871   3.254   3.728  0.8425 -0.7893 -0.6230
 2228SOL    MW4 8967   0.868   3.246   3.815 -0.2648 -0.2768 -0.6168
 2229SOL     OW 8968   0.896   3.513   3.920  0.1064 -0.5270 -0.2954
 2229SOL    HW2 8969   0.888   3.424   3.886  0.1562 -0.0328 -1.6646
 2229SOL    HW3 8970   0.814   3.556   3.895 -0.1703 -0.3524  0.8835
 2229SOL    MW4 8971   0.884   3.507   3.912  0.0765 -0.4389 -0.3204
 2230SOL     OW 8972   1.139   3.623   3.807  0.2506  0.1347  0.4248
 2230SOL    HW2 8973   1.154   3.717   3.814 -0.3488  0.3083 -0.5382
 2230SOL    HW3 8974   1.057   3.608   3.854 -0.4822  0.3326 -0.8026
 2230SOL    MW4 8975   1.130   3.633   3.814  0.0747  0.1838  0.1357
 2231SOL     OW 8976   1.147   3.903   3.848  0.5411 -0.1847 -0.2555
 2231SOL    HW2 8977   1.135   3.899   3.943  0.2811 -1.6733 -0.3329
 2231SOL    HW3 8978   1.231   3.948   3.837 -0.0376  1.1448  0.6276
 2231SOL    MW4 8979   1.157   3.908   3.859  0.4305 -0.2058 -0.1493
 2232SOL     OW 8980   0.926   4.039   3.780 -0.0225 -0.0537  0.2123
 2232SOL    HW2 8981   1.004   3.985   3.795 -0.1972 -0.3295  0.1284
 2232SOL    HW3 8982   0.916   4.041   3.685  0.0934  0.2831  0.2067
 2232SOL    MW4 8983   0.935   4.032   3.769 -0.0303 -0.0463  0.2005
 2233SOL     OW 8984   0.892   4.310   3.872  0.0593 -0.1833  0.6085
 2233SOL    HW2 8985   0.905   4.307   3.966 -0.9787  0.0031  0.7571
 2233SOL    HW3 8986   0.911   4.221   3.843 -0.0234 -0.3448  1.0455
 2233SOL    MW4 8987   0.897   4.298   3.880 -0.0885 -0.1807  0.6859
 2234SOL     OW 8988   1.096   4.409   3.729  0.1065  0.1959 -0.0049
 2234SOL    HW2 8989   1.018   4.372   3.770 -0.3200  1.2433  0.1309
 2234SOL    HW3 8990   1.089   4.384   3.637  0.7017 -1.5413  0.3836
 2234SOL    MW4 8991   1.085   4.401   3.722  0.1287  0.1049  0.0646
 2235SOL     OW 8992   1.558   0.010   3.895 -0.8798 -0.1192  0.2583
 2235SOL    HW2 8993   1.555   0.008   3.990  0.6973 -0.4128  0.3143
 2235SOL    HW3 8994   1.548  -0.081   3.868 -0.3800 -0.1591  0.1912
 2235SOL    MW4 8995   1.557  -0.002   3.904 -0.6058 -0.1636  0.2570
 2236SOL     OW 8996   1.365   0.136   3.745 -0.5236 -0.3118  0.0950
 2236SOL    HW2 8997   1.344   0.223   3.779 -0.0214  0.0882 -0.6120
 2236SOL    HW3 8998   1.428   0.101   3.808 -0.3906  0.0143  0.1467
 2236SOL    MW4 8999   1.371   0.143   3.758 -0.4399 -0.2160  0.0083
 2237SOL     OW 9000   1.335   0.386   3.838  0.3667  0.3934  0.1940
 2237SOL    HW2 9001   1.346   0.378   3.933 -0.1371 -0.6187  0.1700
 2237SOL    HW3 9002   1.409   0.441   3.810  0.8814  0.1570  1.0814
 2237SOL    MW4 9003   1.346   0.392   3.847  0.3680  0.2287  0.3080
 2238SOL     OW 9004   1.566   0.529   3.758  0.0256  0.5602 -0.0184
 2238SOL    HW2 9005   1.633   0.468   3.790  0.5445  0.8668 -0.5204
 2238SOL    HW3 9006   1.591   0.614   3.794 -0.1508  0.6577 -0.1260
 2238SOL    MW4 9007   1.578   0.532   3.767  0.0709  0.6135 -0.0985
 2239SOL     OW 9008   1.397   0.910   3.756  0.4158  0.2090 -0.2085
 2239SOL    HW2 9009   1.391   1.004   3.767  0.4292  0.2741 -0.7176
 2239SOL    HW3 9010   1.307   0.878   3.766  0.3688  0.3092 -0.3116
 2239SOL    MW4 9011   1.384   0.918   3.758  0.4114  0.2308 -0.2890
 2240SOL     OW 9012   1.163   0.783   3.804  0.3642 -0.4099  0.0949
 2240SOL    HW2 9013   1.176   0.781   3.899  0.7485  0.0544  0.0539
 2240SOL    HW3 9014   1.157   0.691   3.778  0.5357 -0.5413  0.5313
 2240SOL    MW4 9015   1.164   0.770   3.813  0.4376 -0.3660  0.1469
 2241SOL     OW 9016   1.367   1.157   3.836 -0.0734  0.0058 -0.1692
 2241SOL    HW2 9017   1.441   1.217   3.830 -0.2117  0.0631 -1.3128
 2241SOL    HW3 9018   1.293   1.206   3.801 -0.3093 -0.6209 -0.5647
 2241SOL    MW4 9019   1.367   1.171   3.831 -0.1228 -0.0695 -0.3724
 2242SOL     OW 9020   1.615   1.295   3.752  0.3272  0.2424 -0.0602
 2242SOL    HW2 9021   1.698   1.255   3.777  1.6118  2.5049 -0.5174
 2242SOL    HW3 9022   1.626   1.387   3.775 -1.2418  0.9748 -2.1205
 2242SOL    MW4 9023   1.627   1.302   3.759  0.2897  0.6374 -0.3924
 2243SOL     OW 9024   1.626   1.565   3.830 -0.1211  0.3565 -0.1568
 2243SOL    HW2 9025   1.634   1.560   3.925  1.7902  0.7638 -0.2786
 2243SOL    HW3 9026   1.711   1.598   3.800 -0.8609  0.6961 -1.9670
 2243SOL    MW4 9027   1.638   1.569   3.838  0.0334  0.4550 -0.4117
 2244SOL     OW 9028   1.371   1.670   3.750 -0.2827  0.2045 -0.1293
 2244SOL    HW2 9029   1.354   1.755   3.791  0.9518  0.2654  0.2704
 2244SOL    HW3 9030   1.458   1.646   3.780 -1.1868 -1.8752  0.8903
 2244SOL    MW4 9031   1.380   1.678   3.759 -0.2390 -0.0618  0.0579
 2245SOL     OW 9032   1.309   1.929   3.858 -0.2014 -0.1935  0.3135
 2245SOL    HW2 9033   1.306   1.923   3.953 -2.0103 -0.6879  0.2398
 2245SOL    HW3 9034   1.238   1.989   3.835 -0.3772 -0.8057 -0.7826
 2245SOL    MW4 9035   1.299   1.936   3.867 -0.4631 -0.3395  0.1590
 2246SOL     OW 9036   1.581   2.043   3.797  0.3827  0.2760  0.3740
 2246SOL    HW2 9037   1.488   2.037   3.819  0.4768 -1.4463  0.3469
 2246SOL    HW3 9038   1.582   2.058   3.702  0.1504 -1.0780  0.1487
 2246SOL    MW4 9039   1.569   2.044   3.787  0.3645 -0.1299  0.3407
 2247SOL     OW 9040   1.575   2.342   3.848 -0.3001  0.5699  0.0645
 2247SOL    HW2 9041   1.665   2.373   3.834 -0.2605  0.0428 -0.8586
 2247SOL    HW3 9042   1.578   2.249   3.828 -0.6906  0.1938  1.6544
 2247SOL    MW4 9043   1.587   2.334   3.843 -0.3463  0.4508  0.1526
 2248SOL     OW 9044   1.358   2.463   3.721  0.4615 -0.2614 -0.0872
 2248SOL    HW2 9045   1.437   2.414   3.746  0.0295 -0.6414  0.5470
 2248SOL    HW3 9046   1.288   2.423   3.772  0.2293  1.5795  1.0849
 2248SOL    MW4 9047   1.360   2.451   3.731  0.3740 -0.0687  0.1512
 2249SOL     OW 9048   1.367   2.692   3.872 -0.8362 -0.4260  0.1399
 2249SOL    HW2 9049   1.353   2.653   3.958 -2.2422  0.2312  0.2152
 2249SOL    HW3 9050   1.358   2.619   3.810 -2.1351 -0.4706  0.3776
 2249SOL    MW4 9051   1.364   2.677   3.875 -1.1932 -0.3455  0.1812
 2250SOL     OW 9052   1.594   2.842   3.779 -0.1059  0.2455 -0.3429
 2250SOL    HW2 9053   1.521   2.793   3.815 -0.2061  1.1175  0.6744
 2250SOL    HW3 9054   1.579   2.844   3.685 -0.6887 -0.7020 -0.2658
 2250SOL    MW4 9055   1.583   2.836   3.771 -0.1960  0.2356 -0.1986
 2251SOL     OW 9056   1.566   3.075   3.907 -0.0809  0.2499 -0.2703
 2251SOL    HW2 9057   1.553   3.060   4.001  0.5825  1.2911 -0.0008
 2251SOL    HW3 9058   1.581   2.988   3.870 -0.7737 -0.2105  0.5238
 2251SOL    MW4 9059   1.566   3.062   3.915 -0.0848  0.3264 -0.1299
 2252SOL     OW 9060   1.337   3.211   3.808  0.2824 -0.0385 -0.0127
 2252SOL    HW2 9061   1.342   3.305   3.828  0.8415 -0.0163 -0.2385
 2252SOL    HW3 9062   1.408   3.173   3.859  1.8337  0.0382 -2.0692
 2252SOL    MW4 9063   1.347   3.218   3.818  0.5608 -0.0255 -0.3140
 2253SOL     OW 9064   1.349   3.478   3.893 -0.5697 -0.0918 -0.4616
 2253SOL    HW2 9065   1.419   3.539   3.873 -0.6362  0.1152 -0.0581
 2253SOL    HW3 9066   1.269   3.523   3.865 -0.5855 -0.1412 -0.4970
 2253SOL    MW4 9067   1.347   3.492   3.887 -0.5807 -0.0708 -0.4127
 2254SOL     OW 9068   1.558   3.638   3.789 -0.5602  0.0547 -0.1290
 2254SOL    HW2 9069   1.639   3.594   3.815 -0.4944  0.7226  0.7775
 2254SOL    HW3 9070   1.559   3.721   3.836 -1.5136  0.2992 -0.5328
 2254SOL    MW4 9071   1.569   3.643   3.798 -0.6772  0.1752 -0.0627
 2255SOL     OW 9072   1.578   3.876   3.910  0.4613  0.0782 -0.3552
 2255SOL    HW2 9073   1.546   3.855   3.998  0.8052 -0.4845 -0.3603
 2255SOL    HW3 9074   1.512   3.935   3.874 -0.1434 -0.4000 -0.0488
 2255SOL    MW4 9075   1.565   3.881   3.917  0.4269 -0.0591 -0.3154
 2256SOL     OW 9076   1.381   4.045   3.795  0.1350 -0.1752 -0.1016
 2256SOL    HW2 9077   1.345   4.131   3.816 -0.0398 -0.5957  1.3427
 2256SOL    HW3 9078   1.369   4.037   3.700 -2.0821  0.3674  0.1095
 2256SOL    MW4 9079   1.374   4.056   3.785 -0.1806 -0.1588  0.1166
 2257SOL     OW 9080   1.310   4.299   3.876 -0.3425  0.3793 -0.3952
 2257SOL    HW2 9081   1.386   4.353   3.856 -0.1721  0.4966  0.5422
 2257SOL    HW3 9082   1.240   4.334   3.821 -0.3829  1.9124  0.5909
 2257SOL    MW4 9083   1.311   4.310   3.867 -0.3253  0.5970 -0.1414
 2258SOL     OW 9084   1.552   4.410   3.808 -0.4499  0.1740 -0.2311
 2258SOL    HW2 9085   1.614   4.344   3.837 -0.6255  0.1656  0.1415
 2258SOL    HW3 9086   1.561   4.413   3.713 -0.0860 -0.0286 -0.2014
 2258SOL    MW4 9087   1.561   4.402   3.800 -0.4249  0.1454 -0.1783
 2259SOL     OW 9088   2.030   4.656   3.910  0.9253  0.3192  0.2386
 2259SOL    HW2 9089   2.104   4.703   3.871  0.1493 -0.0896 -1.7540
 2259SOL    HW3 9090   2.018   4.580   3.854 -2.0586  1.2314 -0.4478
 2259SOL    MW4 9091   2.039   4.653   3.898  0.4294  0.3853 -0.1149
 2260SOL     OW 9092   1.791   0.117   3.786 -0.6336  0.2652 -0.2064
 2260SOL    HW2 9093   1.855   0.068   3.837  0.0397  1.3179 -0.0298
 2260SOL    HW3 9094   1.706   0.080   3.811 -0.2034 -0.1624  0.6296
 2260SOL    MW4 9095   1.788   0.106   3.796 -0.4880  0.3476 -0.0732
 2261SOL     OW 9096   1.786   0.374   3.860  0.7782 -0.4233 -0.1398
 2261SOL    HW2 9097   1.801   0.365   3.954 -0.9334 -0.1001  0.1825
 2261SOL    HW3 9098   1.773   0.284   3.829 -2.8587 -0.2540  0.7024
 2261SOL    MW4 9099   1.786   0.361   3.868  0.0725 -0.3583  0.0136
 2262SOL     OW 9100   2.022   0.488   3.769  0.1091  0.0730  0.2319
 2262SOL    HW2 9101   1.946   0.442   3.803  0.3333  0.4086  1.2226
 2262SOL    HW3 9102   2.011   0.487   3.674 -0.9460 -0.1824  0.3522
 2262SOL    MW4 9103   2.011   0.482   3.761 -0.0005  0.0835  0.3786
 2263SOL     OW 9104   2.074   0.751   3.876 -0.6561 -0.6295 -0.4113
 2263SOL    HW2 9105   2.100   0.737   3.967 -0.7723  0.0390 -0.2730
 2263SOL    HW3 9106   2.069   0.663   3.839  1.4436 -0.8131 -0.3390
 2263SOL    MW4 9107   2.077   0.738   3.883 -0.3943 -0.5655 -0.3834
 2264SOL     OW 9108   1.857   0.918   3.780  0.0046 -0.0385  0.2741
 2264SOL    HW2 9109   1.924   0.857   3.809 -1.0529 -1.5295 -0.3911
 2264SOL    HW3 9110   1.857   0.911   3.685 -1.8367 -0.8716  0.3157
 2264SOL    MW4 9111   1.866   0.909   3.771 -0.3780 -0.3451  0.1919
 2265SOL     OW 9112   1.882   1.183   3.825  0.1720  0.1949 -0.2288
 2265SOL    HW2 9113   1.875   1.190   3.920 -1.7188  0.0092 -0.3406
 2265SOL    HW3 9114   1.866   1.090   3.806  2.3978 -0.1408 -0.5930
 2265SOL    MW4 9115   1.879   1.172   3.835  0.2162  0.1260 -0.2916
 2266SOL     OW 9116   2.132   1.297   3.751 -0.0503  0.2552  0.2098
 2266SOL    HW2 9117   2.198   1.239   3.791 -0.7971 -1.2311 -0.6480
 2266SOL    HW3 9118   2.048   1.256   3.773 -0.7286  2.2811  1.5045
 2266SOL    MW4 9119   2.130   1.284   3.759 -0.2384  0.3264  0.2677
 2267SOL     OW 9120   2.077   1.526   3.911  0.0470 -0.1673  0.2738
 2267SOL    HW2 9121   2.003   1.574   3.874  0.6280  0.2537 -0.3454
 2267SOL    HW3 9122   2.080   1.444   3.861 -0.6640 -0.6746  1.0297
 2267SOL    MW4 9123   2.068   1.521   3.900  0.0300 -0.1786  0.2918
 2268SOL     OW 9124   1.878   1.685   3.797  0.6838  0.2532 -0.1679
 2268SOL    HW2 9125   1.853   1.765   3.843 -1.2372  0.6893 -1.9109
 2268SOL    HW3 9126   1.880   1.709   3.704  0.4314 -1.6275 -0.6960
 2268SOL    MW4 9127   1.875   1.699   3.791  0.3970  0.0626 -0.4673
 2269SOL     OW 9128   1.832   1.946   3.894 -0.3200 -0.3742 -0.1370
 2269SOL    HW2 9129   1.809   1.948   3.987 -0.4674 -0.2168 -0.1769
 2269SOL    HW3 9130   1.749   1.960   3.848 -0.1935 -0.1051 -0.2872
 2269SOL    MW4 9131   1.818   1.948   3.900 -0.3228 -0.3179 -0.1619
 2270SOL     OW 9132   2.054   2.056   3.776 -0.2145  0.2426  0.4821
 2270SOL    HW2 9133   1.971   2.029   3.815  0.7078  0.4295  2.5919
 2270SOL    HW3 9134   2.037   2.054   3.681 -2.1578 -1.1667  0.8353
 2270SOL    MW4 9135   2.041   2.052   3.768 -0.3495  0.0813  0.8073
 2271SOL     OW 9136   2.041   2.296   3.943 -0.1504  0.0216  0.3708
 2271SOL    HW2 9137   2.057   2.212   3.898  1.9492  0.7778 -0.3431
 2271SOL    HW3 9138   1.962   2.330   3.901 -0.7526 -1.3710  0.3351
 2271SOL    MW4 9139   2.033   2.289   3.931  0.0474 -0.0622  0.2720
 2272SOL     OW 9140   1.836   2.413   3.795 -0.0623 -0.0467 -0.3238
 2272SOL    HW2 9141   1.851   2.500   3.832 -2.6843  0.5963 -0.6807
 2272SOL    HW3 9142   1.825   2.428   3.701  0.4560 -0.9107 -0.5291
 2272SOL    MW4 9143   1.837   2.426   3.788 -0.3400 -0.0758 -0.3979
 2273SOL     OW 9144   1.824   2.687   3.873  0.3531 -0.2785  0.4204
 2273SOL    HW2 9145   1.822   2.701   3.968  0.3679 -0.0115  0.3807
 2273SOL    HW3 9146   1.744   2.728   3.841  0.3321 -0.3972  0.3205
 2273SOL    MW4 9147   1.813   2.694   3.881  0.3523 -0.2589  0.4017
 2274SOL     OW 9148   2.008   2.887   3.770  0.2814 -0.1908  0.2914
 2274SOL    HW2 9149   2.088   2.854   3.810  0.0002  0.1772  1.1682
 2274SOL    HW3 9150   1.942   2.821   3.788  0.3204 -0.3683 -0.2017
 2274SOL    MW4 9151   2.010   2.874   3.777  0.2491 -0.1657  0.3421
 2275SOL     OW 9152   1.980   3.133   3.896 -0.1418  0.2984  0.1636
 2275SOL    HW2 9153   2.063   3.169   3.863 -0.7096  1.0077 -0.4971
 2275SOL    HW3 9154   1.971   3.049   3.851 -1.0863  1.4194 -1.7685
 2275SOL    MW4 9155   1.990   3.127   3.886 -0.3414  0.5398 -0.1783
 2276SOL     OW 9156   1.756   3.260   3.787 -0.4590 -0.2766 -0.1139
 2276SOL    HW2 9157   1.828   3.228   3.842 -0.1230 -0.0411 -0.4140
 2276SOL    HW3 9158   1.680   3.210   3.817 -0.2895 -0.1230  0.5932
 2276SOL    MW4 9159   1.756   3.249   3.798 -0.3922 -0.2253 -0.0603
 2277SOL     OW 9160   1.790   3.518   3.891  0.5926  0.4055 -0.0092
 2277SOL    HW2 9161   1.868   3.566   3.862  1.3583 -0.2891  0.8488
 2277SOL    HW3 9162   1.792   3.437   3.841  0.6215  0.2272  0.2824
 2277SOL    MW4 9163   1.801   3.514   3.881  0.6975  0.2904  0.1426
 2278SOL     OW 9164   2.037   3.637   3.824 -0.2643 -0.3743 -0.1693
 2278SOL    HW2 9165   2.111   3.586   3.856  0.4722  0.1325 -1.0436
 2278SOL    HW3 9166   2.054   3.647   3.730 -1.1161  0.2840 -0.2536
 2278SOL    MW4 9167   2.049   3.632   3.816 -0.2799 -0.2203 -0.2959
 2279SOL     OW 9168   2.018   3.891   3.914  0.2167 -0.0716 -0.2010
 2279SOL    HW2 9169   2.063   3.956   3.860 -0.3454  0.1358 -0.4254
 2279SOL    HW3 9170   2.048   3.806   3.880  2.7318  0.0319  1.5688
 2279SOL    MW4 9171   2.028   3.888   3.902  0.4745 -0.0308  0.0029
 2280SOL     OW 9172   1.788   3.983   3.774  0.4453 -0.2283  0.0420
 2280SOL    HW2 9173   1.870   3.951   3.811  0.4147  0.4382  0.7055
 2280SOL    HW3 9174   1.720   3.946   3.831  0.1734 -1.9457 -1.3302
 2280SOL    MW4 9175   1.790   3.974   3.786  0.4053 -0.3674 -0.0515
 2281SOL     OW 9176   1.766   4.250   3.886  0.4940 -0.7519  0.3119
 2281SOL    HW2 9177   1.826   4.303   3.834  1.2965 -0.1746  1.8096
 2281SOL    HW3 9178   1.776   4.162   3.850  0.3411 -0.2009 -1.1259
 2281SOL    MW4 9179   1.776   4.245   3.874  0.5796 -0.6027  0.3197
 2282SOL     OW 9180   1.973   4.431   3.778  0.1652 -0.1696  0.1244
 2282SOL    HW2 9181   2.043   4.376   3.812  0.7683 -0.0110 -0.8473
 2282SOL    HW3 9182   1.982   4.426   3.683 -1.1154 -0.1179 -0.0142
 2282SOL    MW4 9183   1.983   4.423   3.770  0.0758 -0.1416 -0.0219
 2283SOL     OW 9184   2.465   0.016   3.914 -0.2977  0.5328 -0.2281
 2283SOL    HW2 9185   2.468   0.027   4.009  0.0559 -0.7402 -0.0762
 2283SOL    HW3 9186   2.549   0.051   3.883  0.3075 -0.5490  0.1202
 2283SOL    MW4 9187   2.477   0.022   3.922 -0.1712  0.2221 -0.1624
 2284SOL     OW 9188   2.240   0.125   3.788  0.2508  0.0992 -0.3075
 2284SOL    HW2 9189   2.325   0.106   3.828  0.3200 -0.6576 -0.8013
 2284SOL    HW3 9190   2.260   0.137   3.695 -0.1734 -0.0139 -0.4129
 2284SOL    MW4 9191   2.254   0.124   3.781  0.2038 -0.0155 -0.3867
 2285SOL     OW 9192   2.233   0.377   3.914 -0.0857  0.2480 -0.0358
 2285SOL    HW2 9193   2.245   0.283   3.899  0.7211  0.2056  0.8123
 2285SOL    HW3 9194   2.177   0.406   3.842 -0.4167 -0.9007 -0.2507
 2285SOL    MW4 9195   2.227   0.368   3.903 -0.0229  0.0909  0.0474
 2286SOL     OW 9196   2.503   0.483   3.833  0.8195 -0.1187  0.2922
 2286SOL    HW2 9197   2.419   0.448   3.865  2.1189 -1.1092  2.7133
 2286SOL    HW3 9198   2.490   0.492   3.739 -2.4996  1.0882  0.7711
 2286SOL    MW4 9199   2.490   0.480   3.825  0.5529 -0.0902  0.6750
 2287SOL     OW 9200   2.531   0.747   3.923 -0.1189 -0.1807 -0.3708
 2287SOL    HW2 9201   2.467   0.801   3.876  0.1875  0.0527 -0.5146
 2287SOL    HW3 9202   2.523   0.660   3.883 -1.6080 -0.6103  0.7929
 2287SOL    MW4 9203   2.521   0.742   3.912 -0.2751 -0.2066 -0.2363
 2288SOL     OW 9204   2.320   0.860   3.785 -0.0938 -0.0959 -0.2689
 2288SOL    HW2 9205   2.240   0.817   3.813 -0.2483 -0.1881 -0.8717
 2288SOL    HW3 9206   2.321   0.853   3.690  0.8698 -0.5231 -0.2366
 2288SOL    MW4 9207   2.310   0.854   3.776  0.0131 -0.1644 -0.3440
 2289SOL     OW 9208   2.309   1.133   3.901  0.0996 -0.1402  0.2852
 2289SOL    HW2 9209   2.275   1.137   3.990 -0.3087  1.0680  0.0842
 2289SOL    HW3 9210   2.302   1.040   3.877 -0.1579 -0.4043  1.3571
 2289SOL    MW4 9211   2.303   1.121   3.909  0.0117 -0.0156  0.4003
 2290SOL     OW 9212   2.531   1.263   3.784  0.2068  0.3110 -0.4502
 2290SOL    HW2 9213   2.536   1.352   3.819 -0.2694  0.2134 -0.1385
 2290SOL    HW3 9214   2.461   1.220   3.834 -0.4187  0.1445 -1.4467
 2290SOL    MW4 9215   2.522   1.269   3.795  0.0615  0.2761 -0.5405
 2291SOL     OW 9216   2.553   1.554   3.881  0.0971 -0.7577  0.1495
 2291SOL    HW2 9217   2.625   1.609   3.849  1.0443 -1.8892  0.2781
 2291SOL    HW3 9218   2.474   1.596   3.848  0.6923  1.5367  1.5059
 2291SOL    MW4 9219   2.552   1.567   3.873  0.3006 -0.6042  0.3455
 2292SOL     OW 9220   2.296   1.645   3.775 -0.0962  0.1301  0.0499
 2292SOL    HW2 9221   2.292   1.735   3.807 -0.3578  0.5814 -1.2144
 2292SOL    HW3 9222   2.217   1.603   3.808 -0.4798  0.6530 -0.2066
 2292SOL    MW4 9223   2.285   1.651   3.783 -0.1812  0.2588 -0.1507
 2293SOL     OW 9224   2.273   1.907   3.884 -0.2274 -0.2516  0.0392
 2293SOL    HW2 9225   2.272   1.922   3.979 -0.0301  1.5564 -0.2254
 2293SOL    HW3 9226   2.198   1.955   3.851 -0.6992 -1.4352 -0.6673
 2293SOL    MW4 9227   2.263   1.915   3.892 -0.2635 -0.1692 -0.0892
 2294SOL     OW 9228   2.467   2.049   3.764 -0.3171 -0.3543  0.2513
 2294SOL    HW2 9229   2.455   2.136   3.801 -0.2223 -0.2690  0.0817
 2294SOL    HW3 9230   2.400   1.995   3.806 -2.6608  0.5484 -2.2090
 2294SOL    MW4 9231   2.457   2.053   3.774 -0.6137 -0.2241 -0.0958
 2295SOL     OW 9232   2.483   2.304   3.869  0.3223  0.0592  0.3113
 2295SOL    HW2 9233   2.544   2.342   3.806 -0.2557 -0.0665 -0.3336
 2295SOL    HW3 9234   2.402   2.354   3.857  0.1871 -0.0102  0.9122
 2295SOL    MW4 9235   2.481   2.316   3.859  0.2284  0.0334  0.3057
 2296SOL     OW 9236   2.241   2.455   3.822  0.0440 -0.2907  0.1482
 2296SOL    HW2 9237   2.177   2.414   3.879 -0.3061 -0.3587 -0.2900
 2296SOL    HW3 9238   2.218   2.424   3.734  0.2623  0.2221 -0.0899
 2296SOL    MW4 9239   2.230   2.445   3.818  0.0267 -0.2320  0.0591
 2297SOL     OW 9240   2.209   2.730   3.879  0.0158  0.3500 -0.5864
 2297SOL    HW2 9241   2.219   2.736   3.974 -0.9162  1.5205 -0.5480
 2297SOL    HW3 9242   2.220   2.637   3.859  0.6785  0.1632  0.6118
 2297SOL    MW4 9243   2.212   2.719   3.889 -0.0196  0.4795 -0.4232
 2298SOL     OW 9244   2.487   2.802   3.811  0.0873 -0.1460  0.1625
 2298SOL    HW2 9245   2.401   2.769   3.835 -0.1906 -0.3874 -1.1064
 2298SOL    HW3 9246   2.489   2.796   3.715  1.3699  0.2024  0.1548
 2298SOL    MW4 9247   2.476   2.797   3.801  0.2196 -0.1316 -0.0060
 2299SOL     OW 9248   2.474   3.083   3.872  0.6225 -0.1775 -0.0393
 2299SOL    HW2 9249   2.458   3.101   3.965 -1.7242  0.8714 -0.6235
 2299SOL    HW3 9250   2.498   2.990   3.869  1.2188 -0.0982  1.6556
 2299SOL    MW4 9251   2.475   3.073   3.884  0.3915 -0.0288  0.1073
 2300SOL     OW 9252   2.234   3.214   3.785 -0.0053 -0.1753  0.2903
 2300SOL    HW2 9253   2.243   3.299   3.829 -2.0175  0.3967 -0.3557
 2300SOL    HW3 9254   2.321   3.174   3.793  0.7836  1.6406  1.2098
 2300SOL    MW4 9255   2.247   3.220   3.792 -0.1669  0.1400  0.3264
 2301SOL     OW 9256   2.259   3.472   3.882  0.2221  0.2587  0.0407
 2301SOL    HW2 9257   2.253   3.484   3.977 -0.5373 -0.8319  0.1379
 2301SOL    HW3 9258   2.338   3.521   3.857  0.4280  0.5592  1.2296
 2301SOL    MW4 9259   2.269   3.480   3.891  0.1490  0.1543  0.2105
 2302SOL     OW 9260   2.445   3.647   3.786  0.1857  0.3796  0.0111
 2302SOL    HW2 9261   2.519   3.604   3.829 -1.5046 -0.2676  2.3402
 2302SOL    HW3 9262   2.453   3.620   3.694  1.1903 -2.0471  0.7644
 2302SOL    MW4 9263   2.456   3.638   3.779  0.0951 -0.0260  0.4179
 2303SOL     OW 9264   2.420   3.909   3.856 -0.1403  0.3624 -0.1572
 2303SOL    HW2 9265   2.501   3.950   3.826 -0.3725  0.9694  0.0408
 2303SOL    HW3 9266   2.422   3.822   3.817  1.7668 -0.4942  1.7608
 2303SOL    MW4 9267   2.431   3.903   3.847  0.0808  0.3295  0.1218
 2304SOL     OW 9268   2.195   4.035   3.759 -0.5267  0.5137  0.0149
 2304SOL    HW2 9269   2.274   4.007   3.805 -1.3108 -1.1647  0.3732
 2304SOL    HW3 9270   2.221   4.039   3.667  0.0418  0.1821  0.1578
 2304SOL    MW4 9271   2.209   4.032   3.753 -0.5553  0.2484  0.0808
 2305SOL     OW 9272   2.190   4.283   3.871 -0.0064  0.0318  0.4597
 2305SOL    HW2 9273   2.205   4.263   3.964  0.0788 -1.8072  0.0671
 2305SOL    HW3 9274   2.198   4.199   3.827  0.2616  0.9471 -1.2722
 2305SOL    MW4 9275   2.193   4.270   3.878  0.0403 -0.0906  0.1793
 2306SOL     OW 9276   2.442   4.403   3.799  0.5113 -0.6727 -0.0828
 2306SOL    HW2 9277   2.353   4.381   3.828 -0.7708 -1.2642 -4.1344
 2306SOL    HW3 9278   2.458   4.489   3.836 -1.6535 -0.6552  0.9366
 2306SOL    MW4 9279   2.432   4.411   3.807  0.0565 -0.7486 -0.4826
 2307SOL     OW 9280   2.941   4.623   3.919 -0.5357 -0.2220  0.0559
 2307SOL    HW2 9281   2.955   4.631   4.013 -1.7840  1.9196  0.0999
 2307SOL    HW3 9282   3.009   4.679   3.880 -0.7293 -0.2169 -0.2741
 2307SOL    MW4 9283   2.952   4.632   3.926 -0.7260  0.0610  0.0181
 2308SOL     OW 9284   2.707   0.106   3.802  0.2760  0.0170 -0.0689
 2308SOL    HW2 9285   2.781   0.056   3.835 -0.5230 -1.7603 -0.9051
 2308SOL    HW3 9286   2.715   0.100   3.706  0.5392  2.0733 -0.2086
 2308SOL    MW4 9287   2.718   0.099   3.793  0.2053  0.0538 -0.1974
 2309SOL     OW 9288   2.712   0.350   3.927 -0.0845 -0.3708  0.0375
 2309SOL    HW2 9289   2.715   0.263   3.886 -2.4654 -0.3732 -0.2018
 2309SOL    HW3 9290   2.628   0.386   3.901 -0.2216  0.9849  2.2332
 2309SOL    MW4 9291   2.701   0.343   3.918 -0.4168 -0.1923  0.2956
 2310SOL     OW 9292   2.904   0.512   3.806 -0.9446 -0.1860  0.2637
 2310SOL    HW2 9293   2.987   0.474   3.836 -0.1466  1.5146  0.2837
 2310SOL    HW3 9294   2.836   0.459   3.848  0.1378  0.0529  2.3749
 2310SOL    MW4 9295   2.906   0.500   3.815 -0.6967  0.0699  0.5448
 2311SOL     OW 9296   2.941   0.777   3.928  0.0750 -0.0818  0.1605
 2311SOL    HW2 9297   3.022   0.811   3.891 -0.0359 -0.5550 -0.5285
 2311SOL    HW3 9298   2.942   0.684   3.905 -1.9110  0.4096 -2.1450
 2311SOL    MW4 9299   2.952   0.769   3.920 -0.2017 -0.0794 -0.2346
 2312SOL     OW 9300   2.742   0.829   3.750 -0.4223 -0.9575 -0.2701
 2312SOL    HW2 9301   2.818   0.805   3.803 -0.4324  1.9331  1.1068
 2312SOL    HW3 9302   2.666   0.805   3.804 -0.4624 -0.6211 -0.1785
 2312SOL    MW4 9303   2.742   0.823   3.764 -0.4289 -0.5317 -0.0761
 2313SOL     OW 9304   2.748   1.099   3.820 -0.2184 -0.7612  0.1136
 2313SOL    HW2 9305   2.734   1.011   3.783  0.2316 -0.0151 -1.8748
 2313SOL    HW3 9306   2.669   1.148   3.795  0.3643 -0.0747 -0.3920
 2313SOL    MW4 9307   2.736   1.094   3.812 -0.0823 -0.5722 -0.2155
 2314SOL     OW 9308   2.994   1.253   3.773  0.3247  0.3169 -0.3886
 2314SOL    HW2 9309   2.992   1.337   3.819 -0.2509  1.1368 -1.8503
 2314SOL    HW3 9310   2.924   1.201   3.812  1.4614  0.0706  1.3374
 2314SOL    MW4 9311   2.985   1.257   3.784  0.3989  0.3926 -0.3536
 2315SOL     OW 9312   2.972   1.516   3.872  0.0610  0.0262 -0.6221
 2315SOL    HW2 9313   2.974   1.510   3.968  0.7245 -0.7482 -0.6849
 2315SOL    HW3 9314   3.042   1.578   3.850  0.4689 -0.4481 -0.6592
 2315SOL    MW4 9315   2.981   1.523   3.882  0.2027 -0.1385 -0.6354
 2316SOL     OW 9316   2.777   1.701   3.810 -0.4513  0.0023  0.1870
 2316SOL    HW2 9317   2.847   1.644   3.843 -0.8124 -0.5237  0.0576
 2316SOL    HW3 9318   2.787   1.698   3.715 -0.9751 -0.5076  0.1404
 2316SOL    MW4 9319   2.788   1.693   3.802 -0.5682 -0.1345  0.1638
 2317SOL     OW 9320   2.719   1.962   3.868 -0.0821 -0.0917  0.4145
 2317SOL    HW2 9321   2.723   1.869   3.844 -2.1384  0.0761 -0.6235
 2317SOL    HW3 9322   2.633   1.991   3.838  1.1359  2.5403 -0.6560
 2317SOL    MW4 9323   2.708   1.954   3.861 -0.1926  0.2776  0.1366
 2318SOL     OW 9324   2.950   2.084   3.779 -0.4783 -0.3325 -0.2926
 2318SOL    HW2 9325   2.953   2.159   3.839 -1.2500 -0.3903 -0.1731
 2318SOL    HW3 9326   2.870   2.038   3.803  0.1149 -1.3263 -0.2157
 2318SOL    MW4 9327   2.940   2.088   3.790 -0.5021 -0.4711 -0.2666
 2319SOL     OW 9328   2.954   2.319   3.919  0.0458  0.0679 -0.0703
 2319SOL    HW2 9329   2.961   2.347   4.011  1.2040 -1.6486  0.3989
 2319SOL    HW3 9330   3.034   2.352   3.879  0.2482 -0.4718 -0.1060
 2319SOL    MW4 9331   2.966   2.327   3.926  0.2251 -0.2296 -0.0134
 2320SOL     OW 9332   2.760   2.456   3.738 -0.0035 -0.1502  0.2400
 2320SOL    HW2 9333   2.773   2.546   3.767  0.6674  0.1171 -0.8411
 2320SOL    HW3 9334   2.815   2.404   3.796  1.1198  0.3495 -0.3380
 2320SOL    MW4 9335   2.769   2.461   3.749  0.2329 -0.0489  0.0207
 2321SOL     OW 9336   2.725   2.707   3.878 -0.0085  0.0475 -0.0609
 2321SOL    HW2 9337   2.720   2.662   3.962  1.4221 -0.2998 -0.1453
 2321SOL    HW3 9338   2.634   2.717   3.851 -0.4693 -0.0389  1.4127
 2321SOL    MW4 9339   2.712   2.702   3.885  0.1194 -0.0095  0.1223
 2322SOL     OW 9340   2.948   2.839   3.775  0.3719 -0.0078  0.2948
 2322SOL    HW2 9341   2.954   2.927   3.813 -0.8078  0.9058 -1.5338
 2322SOL    HW3 9342   2.871   2.800   3.815  0.2281  0.2427  0.2645
 2322SOL    MW4 9343   2.939   2.846   3.785  0.1972  0.1459  0.0496
 2323SOL     OW 9344   2.942   3.099   3.899  0.3961 -0.0255 -0.1493
 2323SOL    HW2 9345   3.017   3.145   3.863  0.2870 -0.4663 -0.9671
 2323SOL    HW3 9346   2.866   3.139   3.855  0.1617  0.3356  0.5785
 2323SOL    MW4 9347   2.942   3.110   3.888  0.3505 -0.0362 -0.1612
 2324SOL     OW 9348   2.704   3.227   3.788 -0.3394 -0.3555 -0.0481
 2324SOL    HW2 9349   2.694   3.312   3.831  0.3508 -0.1174 -0.3459
 2324SOL    HW3 9350   2.630   3.174   3.820 -0.4755  0.1880  0.5333
 2324SOL    MW4 9351   2.693   3.231   3.798 -0.2666 -0.2520 -0.0107
 2325SOL     OW 9352   2.664   3.489   3.874 -0.4016  0.2004  0.2969
 2325SOL    HW2 9353   2.692   3.507   3.963  1.4115 -1.7522  0.1692
 2325SOL    HW3 9354   2.729   3.532   3.818  0.0376 -0.8901 -0.0438
 2325SOL    MW4 9355   2.676   3.497   3.878 -0.1047 -0.2010  0.2353
 2326SOL     OW 9356   2.880   3.641   3.728  0.0198 -0.2524  0.1059
 2326SOL    HW2 9357   2.964   3.601   3.750  0.4784  1.2487  1.1072
 2326SOL    HW3 9358   2.879   3.643   3.632  0.5559 -1.4366  0.0628
 2326SOL    MW4 9359   2.891   3.636   3.718  0.1509 -0.2103  0.2322
 2327SOL     OW 9360   2.894   3.866   3.873  0.3539  0.2158 -0.1058
 2327SOL    HW2 9361   2.918   3.847   3.964  1.0848 -0.7041 -0.4742
 2327SOL    HW3 9362   2.879   3.780   3.834 -1.7715  0.7028 -0.3858
 2327SOL    MW4 9363   2.895   3.852   3.880  0.1698  0.1588 -0.1915
 2328SOL     OW 9364   2.675   4.025   3.809  0.0459 -0.4033  0.0983
 2328SOL    HW2 9365   2.695   4.111   3.846 -0.0893 -0.1771 -0.3433
 2328SOL    HW3 9366   2.746   3.968   3.839 -0.0067 -0.2008  0.6130
 2328SOL    MW4 9367   2.687   4.029   3.817  0.0212 -0.3467  0.1080
 2329SOL     OW 9368   2.684   4.275   3.898  0.1968 -0.2587 -0.3203
 2329SOL    HW2 9369   2.769   4.312   3.872  0.1313 -0.5949 -1.0254
 2329SOL    HW3 9370   2.621   4.320   3.842 -0.0685 -0.1770  0.0437
 2329SOL    MW4 9371   2.687   4.286   3.887  0.1531 -0.2923 -0.3655
 2330SOL     OW 9372   2.917   4.399   3.792  0.2243 -0.2656 -0.1793
 2330SOL    HW2 9373   2.996   4.351   3.816  0.8971  0.9876  0.1296
 2330SOL    HW3 9374   2.931   4.487   3.827 -1.0947  0.0984 -0.5511
 2330SOL    MW4 9375   2.929   4.404   3.800  0.1390 -0.0520 -0.1876
 2331SOL     OW 9376   3.364   4.647   3.850 -0.5591  0.2112 -0.3672
 2331SOL    HW2 9377   3.360   4.644   3.946 -0.2084 -0.0592 -0.3601
 2331SOL    HW3 9378   3.432   4.712   3.831 -0.3428 -0.0366 -0.4312
 2331SOL    MW4 9379   3.373   4.656   3.861 -0.4842  0.1429 -0.3748
 2332SOL     OW 9380   3.124   0.108   3.768  0.7507  0.2470 -0.2395
 2332SOL    HW2 9381   3.205   0.070   3.801  2.3235  1.4622 -2.5516
 2332SOL    HW3 9382   3.134   0.107   3.673 -0.0772  4.3541 -0.4650
 2332SOL    MW4 9383   3.136   0.103   3.760  0.8490  0.9492 -0.5739
 2333SOL     OW 9384   3.157   0.381   3.872 -0.1377 -0.0909 -0.2563
 2333SOL    HW2 9385   3.146   0.384   3.967  1.5346  0.0504 -0.0612
 2333SOL    HW3 9386   3.145   0.288   3.850  1.8878 -0.5437  0.4136
 2333SOL    MW4 9387   3.154   0.369   3.882  0.3502 -0.1320 -0.1421
 2334SOL     OW 9388   3.372   0.475   3.727 -0.2431 -0.7569 -0.1681
 2334SOL    HW2 9389   3.445   0.450   3.784  0.9374  1.0317 -0.8453
 2334SOL    HW3 9390   3.297   0.427   3.761  1.2564 -2.6316  0.5471
 2334SOL    MW4 9391   3.372   0.466   3.739  0.1106 -0.7683 -0.1628
 2335SOL     OW 9392   3.354   0.711   3.896 -0.1734  0.1086  0.1275
 2335SOL    HW2 9393   3.318   0.682   3.980 -0.7873 -0.5115 -0.3491
 2335SOL    HW3 9394   3.348   0.634   3.839  0.9962  0.2872 -0.2496
 2335SOL    MW4 9395   3.349   0.697   3.900 -0.1004  0.0504  0.0148
 2336SOL     OW 9396   3.175   0.893   3.810 -0.1450 -0.8809 -0.4052
 2336SOL    HW2 9397   3.255   0.851   3.843 -0.1534 -1.4879 -1.1391
 2336SOL    HW3 9398   3.187   0.894   3.715 -0.3843  0.3095 -0.4222
 2336SOL    MW4 9399   3.187   0.888   3.802 -0.1779 -0.8039 -0.5045
 2337SOL     OW 9400   3.178   1.134   3.951 -0.2306 -0.2603 -0.1381
 2337SOL    HW2 9401   3.195   1.056   3.899  0.2733  0.2448 -0.7465
 2337SOL    HW3 9402   3.102   1.175   3.909 -0.6007 -0.5012  0.2812
 2337SOL    MW4 9403   3.170   1.129   3.939 -0.2131 -0.2253 -0.1631
 2338SOL     OW 9404   3.375   1.290   3.814 -0.1018  0.0841 -0.0618
 2338SOL    HW2 9405   3.293   1.255   3.849  0.1506  0.8039  1.2428
 2338SOL    HW3 9406   3.359   1.296   3.720 -1.6359  0.4528  0.2053
 2338SOL    MW4 9407   3.362   1.286   3.806 -0.2708  0.2277  0.1457
 2339SOL     OW 9408   3.415   1.557   3.844 -0.4184  0.5380  0.4564
 2339SOL    HW2 9409   3.332   1.591   3.812 -0.8122 -0.9341 -0.1120
 2339SOL    HW3 9410   3.412   1.463   3.826  1.6485  0.5593 -0.1804
 2339SOL    MW4 9411   3.404   1.549   3.838 -0.1976  0.3468  0.2975
 2340SOL     OW 9412   3.171   1.653   3.763  0.2680 -0.0545  0.1642
 2340SOL    HW2 9413   3.181   1.743   3.792 -0.9669 -0.2884  1.3836
 2340SOL    HW3 9414   3.170   1.658   3.667  0.3446  1.1972  0.2254
 2340SOL    MW4 9415   3.172   1.665   3.754  0.1152  0.0796  0.3331
 2341SOL     OW 9416   3.173   1.930   3.835  0.3389 -0.2690 -0.0459
 2341SOL    HW2 9417   3.161   1.925   3.930  1.5211  0.2705  0.1378
 2341SOL    HW3 9418   3.096   1.978   3.805  1.4617  2.3156  1.0150
 2341SOL    MW4 9419   3.161   1.936   3.844  0.6430  0.1433  0.1185
 2342SOL     OW 9420   3.423   2.062   3.774 -0.5370  0.1639  0.1225
 2342SOL    HW2 9421   3.335   2.028   3.789  0.1010 -1.0327  1.3336
 2342SOL    HW3 9422   3.433   2.063   3.679 -1.5510 -0.4823  0.0019
 2342SOL    MW4 9423   3.413   2.058   3.764 -0.5865 -0.0794  0.2663
 2343SOL     OW 9424   3.410   2.290   3.908  0.2923  0.6122  0.1379
 2343SOL    HW2 9425   3.328   2.319   3.867  0.3554 -0.3500 -0.6885
 2343SOL    HW3 9426   3.427   2.204   3.869  1.6557  0.7714  0.3724
 2343SOL    MW4 9427   3.402   2.283   3.897  0.4804  0.5059  0.0598
 2344SOL     OW 9428   3.182   2.399   3.790 -0.1476 -0.1836 -0.3910
 2344SOL    HW2 9429   3.163   2.490   3.813 -1.0097 -0.4456 -0.0772
 2344SOL    HW3 9430   3.195   2.400   3.695 -1.4562  0.0418 -0.5723
 2344SOL    MW4 9431   3.181   2.411   3.781 -0.4339 -0.1884 -0.3736
 2345SOL     OW 9432   3.193   2.691   3.864  0.3272 -0.5466  0.0089
 2345SOL    HW2 9433   3.188   2.698   3.960  1.1185 -0.3172  0.0390
 2345SOL    HW3 9434   3.125   2.751   3.832 -0.2515 -0.9725  0.4325
 2345SOL    MW4 9435   3.183   2.700   3.873  0.3552 -0.5724  0.0687
 2346SOL     OW 9436   3.420   2.828   3.768 -0.7251 -0.6447 -0.3350
 2346SOL    HW2 9437   3.344   2.784   3.806 -1.0919 -1.6950 -2.2091
 2346SOL    HW3 9438   3.401   2.832   3.674  0.6716  0.8225 -0.5797
 2346SOL    MW4 9439   3.408   2.822   3.761 -0.5891 -0.5898 -0.6144
 2347SOL     OW 9440   3.391   3.081   3.869  0.1719  0.1081 -0.7399
 2347SOL    HW2 9441   3.463   3.130   3.829  1.5376 -0.4381  0.9542
 2347SOL    HW3 9442   3.404   2.991   3.839  0.7028 -0.1434  0.2138
 2347SOL    MW4 9443   3.402   3.075   3.860  0.4220  0.0029 -0.3908
 2348SOL     OW 9444   3.160   3.214   3.789 -0.2288 -0.1190  0.2558
 2348SOL    HW2 9445   3.245   3.172   3.798 -0.4704 -0.4528  0.9751
 2348SOL    HW3 9446   3.138   3.203   3.696  0.1804 -0.6708  0.2216
 2348SOL    MW4 9447   3.168   3.207   3.778 -0.2067 -0.2356  0.3462
 2349SOL     OW 9448   3.113   3.501   3.824  0.2898  0.1499  0.0864
 2349SOL    HW2 9449   3.195   3.548   3.807  1.1151 -0.9762  0.9310
 2349SOL    HW3 9450   3.132   3.410   3.800 -0.4197 -0.2937  1.1664
 2349SOL    MW4 9451   3.127   3.495   3.818  0.3052 -0.0572  0.3402
 2350SOL     OW 9452   3.362   3.640   3.794 -0.0375  0.1466  0.2460
 2350SOL    HW2 9453   3.372   3.715   3.853 -0.6409 -0.2386  0.8513
 2350SOL    HW3 9454   3.365   3.677   3.706  0.0657  0.8329  0.5374
 2350SOL    MW4 9455   3.364   3.654   3.790 -0.1035  0.1864  0.3643
 2351SOL     OW 9456   3.359   3.884   3.944 -0.2572 -0.0646  0.0821
 2351SOL    HW2 9457   3.434   3.902   3.888 -0.1987 -0.2018  0.1152
 2351SOL    HW3 9458   3.283   3.914   3.894 -0.2103 -0.2382 -0.0931
 2351SOL    MW4 9459   3.359   3.890   3.930 -0.2432 -0.1056  0.0632
 2352SOL     OW 9460   3.137   3.970   3.772 -0.5320  0.0276  0.3770
 2352SOL    HW2 9461   3.114   4.062   3.788 -0.1617 -0.2712  2.7739
 2352SOL    HW3 9462   3.059   3.921   3.798 -1.7505 -0.2400 -3.4228
 2352SOL    MW4 9463   3.124   3.976   3.777 -0.6437 -0.0472  0.1922
 2353SOL     OW 9464   3.150   4.243   3.852  0.0164  0.1831 -0.3424
 2353SOL    HW2 9465   3.169   4.236   3.945  0.7565  0.7093 -0.4414
 2353SOL    HW3 9466   3.228   4.285   3.815 -0.7227  0.9850 -1.0270
 2353SOL    MW4 9467   3.163   4.248   3.859  0.0167  0.3581 -0.4458
 2354SOL     OW 9468   3.380   4.389   3.758  0.4637 -0.9741 -0.9224
 2354SOL    HW2 9469   3.458   4.347   3.794  1.2377  0.0981 -1.3309
 2354SOL    HW3 9470   3.380   4.478   3.794 -0.3490 -0.8325 -1.2420
 2354SOL    MW4 9471   3.390   4.395   3.767  0.4585 -0.8144 -1.0185
 2355SOL     OW 9472   3.777   0.014   3.847  0.0313  0.3566 -0.1836
 2355SOL    HW2 9473   3.862   0.048   3.820  0.3069  0.6965  1.0497
 2355SOL    HW3 9474   3.781  -0.080   3.829  0.0305  0.6524 -1.7151
 2355SOL    MW4 9475   3.788   0.006   3.841  0.0672  0.4401 -0.2229
 2356SOL     OW 9476   3.574   0.152   3.759 -0.7207  0.0952  0.4217
 2356SOL    HW2 9477   3.648   0.108   3.800 -0.3824  0.5797  0.3461
 2356SOL    HW3 9478   3.596   0.153   3.665 -1.2499 -0.5635  0.2905
 2356SOL    MW4 9479   3.586   0.146   3.752 -0.7458  0.0722  0.3943
 2357SOL     OW 9480   3.617   0.400   3.880 -0.1101  0.1895  0.1034
 2357SOL    HW2 9481   3.689   0.443   3.833  0.4708  0.3361  1.0936
 2357SOL    HW3 9482   3.617   0.310   3.847 -1.0020  0.7967 -1.6135
 2357SOL    MW4 9483   3.627   0.394   3.870 -0.1509  0.2889  0.0074
 2358SOL     OW 9484   3.829   0.518   3.741 -1.0737 -0.3338 -0.0507
 2358SOL    HW2 9485   3.891   0.465   3.792 -1.5280  0.2633  1.1463
 2358SOL    HW3 9486   3.819   0.598   3.792 -0.3726  0.9169 -1.8672
 2358SOL    MW4 9487   3.836   0.521   3.754 -1.0414 -0.0899 -0.1323
 2359SOL     OW 9488   3.821   0.768   3.880  0.1256  0.2124  0.1501
 2359SOL    HW2 9489   3.900   0.814   3.852  0.3741 -0.9936 -1.2155
 2359SOL    HW3 9490   3.749   0.815   3.838  0.4705 -1.3672 -2.2958
 2359SOL    MW4 9491   3.822   0.780   3.870  0.2038 -0.1551 -0.3524
 2360SOL     OW 9492   3.588   0.852   3.763 -0.0902  0.0446  1.0936
 2360SOL    HW2 9493   3.582   0.940   3.799 -0.9925  0.1130  0.7970
 2360SOL    HW3 9494   3.526   0.801   3.816 -0.1702 -0.2305  0.7324
 2360SOL    MW4 9495   3.579   0.857   3.775 -0.2196  0.0174  1.0071
 2361SOL     OW 9496   3.568   1.105   3.876  0.2771  0.3638  0.4263
 2361SOL    HW2 9497   3.645   1.138   3.830  0.8787 -0.4151  0.8468
 2361SOL    HW3 9498   3.503   1.175   3.868  0.5168  0.4173 -1.2075
 2361SOL    MW4 9499   3.570   1.119   3.869  0.3881  0.2681  0.2661
 2362SOL     OW 9500   3.787   1.234   3.763 -0.3391  0.0968  0.0834
 2362SOL    HW2 9501   3.865   1.197   3.803 -2.0801 -1.9580  1.7260
 2362SOL    HW3 9502   3.784   1.324   3.796  1.1042  0.0801  0.3003
 2362SOL    MW4 9503   3.797   1.241   3.773 -0.3784 -0.1765  0.3288
 2363SOL     OW 9504   3.800   1.498   3.899  0.3688  0.2872 -0.3764
 2363SOL    HW2 9505   3.794   1.517   3.992 -0.5480 -0.9639 -0.1602
 2363SOL    HW3 9506   3.743   1.563   3.857  1.6367  1.5437 -0.1798
 2363SOL    MW4 9507   3.792   1.509   3.906  0.4151  0.2879 -0.3219
 2364SOL     OW 9508   3.639   1.650   3.728  0.3481  0.1171 -0.0513
 2364SOL    HW2 9509   3.551   1.618   3.748  0.7722 -2.2455 -1.8197
 2364SOL    HW3 9510   3.636   1.670   3.634  1.5497  0.5030 -0.0123
 2364SOL    MW4 9511   3.627   1.649   3.718  0.5627 -0.1436 -0.2797
 2365SOL     OW 9512   3.588   1.877   3.883 -0.0037 -0.2452  0.0703
 2365SOL    HW2 9513   3.583   1.805   3.820 -1.8509 -0.3412  0.3213
 2365SOL    HW3 9514   3.527   1.943   3.849  0.1501  0.3454  0.9437
 2365SOL    MW4 9515   3.580   1.876   3.870 -0.2272 -0.1799  0.2184
 2366SOL     OW 9516   3.820   2.014   3.822  0.2107 -0.4083 -0.2515
 2366SOL    HW2 9517   3.890   1.959   3.857  0.2088 -0.9370 -1.0511
 2366SOL    HW3 9518   3.739   1.968   3.845  0.1855 -0.4295 -0.3776
 2366SOL    MW4 9519   3.819   2.001   3.829  0.2072 -0.4807 -0.3734
 2367SOL     OW 9520   3.857   2.264   3.922 -0.4305  0.1188 -0.2598
 2367SOL    HW2 9521   3.784   2.304   3.875  0.2396  0.9229 -0.6296
 2367SOL    HW3 9522   3.850   2.171   3.902 -0.2374  0.4361 -1.8666
 2367SOL    MW4 9523   3.846   2.257   3.913 -0.3169  0.2668 -0.5205
 2368SOL     OW 9524   3.652   2.404   3.811 -0.2008  0.2484 -0.6510
 2368SOL    HW2 9525   3.565   2.379   3.841 -0.1752 -0.2502 -0.9889
 2368SOL    HW3 9526   3.645   2.402   3.715  0.2970 -0.1934 -0.6772
 2368SOL    MW4 9527   3.640   2.401   3.802 -0.1318  0.1245 -0.6990
 2369SOL     OW 9528   3.614   2.663   3.891 -0.6698  0.2776 -0.1745
 2369SOL    HW2 9529   3.615   2.576   3.851 -0.2617 -0.1412  0.7383
 2369SOL    HW3 9530   3.546   2.711   3.843 -0.3667 -0.3008 -1.1876
 2369SOL    MW4 9531   3.605   2.658   3.880 -0.5760  0.1459 -0.1876
 2370SOL     OW 9532   3.803   2.835   3.790 -0.1273  0.1315 -0.0401
 2370SOL    HW2 9533   3.886   2.812   3.833 -0.8093  0.5093  1.5153
 2370SOL    HW3 9534   3.738   2.778   3.832 -0.7450  0.1937 -0.9009
 2370SOL    MW4 9535   3.806   2.824   3.801 -0.2985  0.1898  0.0515
 2371SOL     OW 9536   3.789   3.078   3.905  0.3224 -0.3077 -0.1222
 2371SOL    HW2 9537   3.738   3.145   3.859 -1.4307 -0.2704  1.7818
 2371SOL    HW3 9538   3.776   2.998   3.854  0.5195  0.2827 -1.1057
 2371SOL    MW4 9539   3.781   3.076   3.892  0.1171 -0.2246 -0.0005
 2372SOL     OW 9540   3.617   3.238   3.768 -0.1306 -0.1023 -0.4599
 2372SOL    HW2 9541   3.608   3.328   3.798 -2.0212 -0.7591  1.0596
 2372SOL    HW3 9542   3.591   3.241   3.676  0.3502  0.9884 -0.5704
 2372SOL    MW4 9543   3.613   3.250   3.760 -0.3166 -0.0451 -0.2739
 2373SOL     OW 9544   3.605   3.509   3.871 -0.3252 -0.3055  0.0120
 2373SOL    HW2 9545   3.594   3.516   3.966  0.5160 -0.3801  0.1163
 2373SOL    HW3 9546   3.529   3.555   3.835  0.5831  1.7906  0.7200
 2373SOL    MW4 9547   3.593   3.516   3.879 -0.0944 -0.0389  0.1192
 2374SOL     OW 9548   3.873   3.614   3.804  0.3262 -0.3289  0.4659
 2374SOL    HW2 9549   3.858   3.701   3.841 -0.4876 -0.9393  1.6106
 2374SOL    HW3 9550   3.794   3.565   3.826  0.5000 -1.1677 -0.7488
 2374SOL    MW4 9551   3.860   3.619   3.812  0.2420 -0.5202  0.4570
 2375SOL     OW 9552   3.822   3.880   3.915  0.9015  0.4753 -0.7814
 2375SOL    HW2 9553   3.830   3.889   4.010  0.1799  1.0550 -0.7736
 2375SOL    HW3 9554   3.904   3.916   3.881  1.2368  0.1075 -0.3736
 2375SOL    MW4 9555   3.834   3.886   3.923  0.8507  0.5035 -0.7265
 2376SOL     OW 9556   3.579   3.972   3.815 -0.0460 -0.0398  0.1369
 2376SOL    HW2 9557   3.564   4.065   3.833 -1.0217 -0.1619 -0.0335
 2376SOL    HW3 9558   3.667   3.955   3.850  0.4760  1.1400 -0.5672
 2376SOL    MW4 9559   3.589   3.982   3.822 -0.1059  0.0999  0.0215
 2377SOL     OW 9560   3.566   4.235   3.879 -0.2385 -0.2683  0.1138
 2377SOL    HW2 9561   3.577   4.247   3.973  1.9586 -0.4195 -0.1158
 2377SOL    HW3 9562   3.637   4.285   3.839 -1.7595  0.6741 -1.5388
 2377SOL    MW4 9563   3.577   4.243   3.886 -0.1490 -0.1640 -0.1349
 2378SOL     OW 9564   3.769   4.406   3.763  0.4457  0.2890 -0.2235
 2378SOL    HW2 9565   3.835   4.346   3.797 -0.0885 -0.9640 -1.3669
 2378SOL    HW3 9566   3.798   4.426   3.674  0.8672  2.0991  0.3044
 2378SOL    MW4 9567   3.781   4.401   3.755  0.4311  0.3624 -0.3049
 2379SOL     OW 9568   4.244   4.647   3.849 -0.3668  0.5261  0.3578
 2379SOL    HW2 9569   4.249   4.627   3.942  1.9754  1.1846  0.4165
 2379SOL    HW3 9570   4.330   4.684   3.828 -0.7367  0.0751 -2.1326
 2379SOL    MW4 9571   4.256   4.649   3.858 -0.1068  0.5531  0.0367
 2380SOL     OW 9572   4.029   0.125   3.773  0.3542 -0.0005  0.3391
 2380SOL    HW2 9573   4.106   0.081   3.809  1.6739  0.3649 -1.9251
 2380SOL    HW3 9574   4.043   0.124   3.678 -1.2966  2.1379  0.0227
 2380SOL    MW4 9575   4.041   0.119   3.765  0.3109  0.3298 -0.0014
 2381SOL     OW 9576   4.027   0.377   3.864  0.3962 -0.6944  0.3109
 2381SOL    HW2 9577   4.055   0.375   3.955  0.8746 -0.6644  0.1649
 2381SOL    HW3 9578   4.022   0.285   3.838  0.8183 -0.6860  0.1977
 2381SOL    MW4 9579   4.030   0.365   3.872  0.5150 -0.6894  0.2770
 2382SOL     OW 9580   4.282   0.503   3.792 -0.4786 -0.1169 -0.4484
 2382SOL    HW2 9581   4.204   0.452   3.815  0.4219 -1.3838 -0.1415
 2382SOL    HW3 9582   4.291   0.493   3.698  0.6521 -1.9198 -0.1552
 2382SOL    MW4 9583   4.273   0.495   3.783 -0.2103 -0.5219 -0.3693
 2383SOL     OW 9584   4.268   0.776   3.869  0.3056 -0.5478 -0.4693
 2383SOL    HW2 9585   4.187   0.820   3.843  1.5167  1.8828 -0.2707
 2383SOL    HW3 9586   4.257   0.686   3.838 -2.6253 -0.3838 -0.0649
 2383SOL    MW4 9587   4.256   0.770   3.861  0.0787 -0.2055 -0.3898
 2384SOL     OW 9588   4.040   0.905   3.797  0.4080 -0.0927  0.4170
 2384SOL    HW2 9589   4.045   0.995   3.830 -0.5952 -0.2038  0.8923
 2384SOL    HW3 9590   4.044   0.913   3.702 -1.5387  0.5924  0.3866
 2384SOL    MW4 9591   4.041   0.918   3.789  0.0191 -0.0169  0.4759
 2385SOL     OW 9592   4.018   1.158   3.900  0.0903  0.5032  0.0257
 2385SOL    HW2 9593   4.022   1.162   3.996  0.5411 -0.0567  0.0268
 2385SOL    HW3 9594   4.103   1.189   3.871 -0.2071  1.1120 -0.2088
 2385SOL    MW4 9595   4.030   1.163   3.909  0.1106  0.5097 -0.0052
 2386SOL     OW 9596   4.265   1.252   3.780  0.1282 -0.2172 -0.2952
 2386SOL    HW2 9597   4.264   1.341   3.813 -1.0297 -0.5591  0.5880
 2386SOL    HW3 9598   4.254   1.262   3.685  1.3670  0.6377 -0.3647
 2386SOL    MW4 9599   4.264   1.265   3.772  0.1392 -0.1495 -0.1876
 2387SOL     OW 9600   4.279   1.516   3.879  0.1285 -0.0676  0.4088
 2387SOL    HW2 9601   4.198   1.566   3.868  0.2314 -0.0535 -0.3327
 2387SOL    HW3 9602   4.347   1.574   3.844  0.0438 -1.3932 -2.0349
 2387SOL    MW4 9603   4.277   1.531   3.873  0.1307 -0.2407 -0.0112
 2388SOL     OW 9604   4.027   1.640   3.813 -0.5386  0.4114 -0.0442
 2388SOL    HW2 9605   4.010   1.724   3.855 -0.8719 -0.2951  1.2595
 2388SOL    HW3 9606   3.955   1.584   3.842  0.2239 -0.6071 -0.0918
 2388SOL    MW4 9607   4.016   1.644   3.823 -0.4821  0.1838  0.1216
 2389SOL     OW 9608   4.043   1.892   3.940 -0.1216  0.1368  0.3688
 2389SOL    HW2 9609   4.048   1.918   4.032  0.7059  0.3676  0.2661
 2389SOL    HW3 9610   4.106   1.949   3.896 -0.5435  0.0570 -0.3517
 2389SOL    MW4 9611   4.052   1.903   3.946 -0.0682  0.1566  0.2599
 2390SOL     OW 9612   4.232   2.030   3.792  0.2479 -0.3101 -0.4769
 2390SOL    HW2 9613   4.253   2.123   3.800  1.8318 -0.6676 -0.1316
 2390SOL    HW3 9614   4.248   2.010   3.700  0.3659 -0.3351 -0.4519
 2390SOL    MW4 9615   4.237   2.040   3.781  0.4730 -0.3605 -0.4282
 2391SOL     OW 9616   4.258   2.297   3.874  0.5987 -0.1717  0.3437
 2391SOL    HW2 9617   4.247   2.314   3.967  0.8588  1.5750  0.0849
 2391SOL    HW3 9618   4.187   2.347   3.832  1.7119  0.7369 -0.5052
 2391SOL    MW4 9619   4.247   2.306   3.881  0.7801  0.1786  0.1976
 2392SOL     OW 9620   4.040   2.435   3.771  0.6627 -0.3032  1.0614
 2392SOL    HW2 9621   4.036   2.525   3.805  0.3630 -0.0970  0.5019
 2392SOL    HW3 9622   3.973   2.388   3.820 -0.4831  0.2400  0.0796
 2392SOL    MW4 9623   4.031   2.441   3.782  0.4721 -0.2043  0.8578
 2393SOL     OW 9624   4.012   2.690   3.915 -0.0738 -0.4783  0.0690
 2393SOL    HW2 9625   4.013   2.695   4.010 -2.0728 -0.7767  0.1110
 2393SOL    HW3 9626   4.092   2.736   3.888 -0.4926  1.3383  1.7999
 2393SOL    MW4 9627   4.023   2.697   3.924 -0.3934 -0.2778  0.3030
 2394SOL     OW 9628   4.229   2.846   3.832  0.4893 -0.1837 -0.0193
 2394SOL    HW2 9629   4.242   2.929   3.878 -1.4895  0.0520  0.1422
 2394SOL    HW3 9630   4.307   2.794   3.855  0.1005  0.3395  2.6957
 2394SOL    MW4 9631   4.241   2.850   3.841  0.1769 -0.0834  0.3603
 2395SOL     OW 9632   4.238   3.085   3.971 -0.1915 -0.1068 -0.1735
 2395SOL    HW2 9633   4.168   3.132   3.927  0.5462  0.2697 -0.9469
 2395SOL    HW3 9634   4.319   3.115   3.929  0.5454  0.3683  1.5122
 2395SOL    MW4 9635   4.240   3.095   3.960  0.0029  0.0057 -0.0532
 2396SOL     OW 9636   4.019   3.244   3.857  0.0625  0.3075  0.3885
 2396SOL    HW2 9637   3.941   3.192   3.873  0.1526 -0.4170 -1.4262
 2396SOL    HW3 9638   4.042   3.226   3.766  1.4489  1.7094  0.4360
 2396SOL    MW4 9639   4.012   3.235   3.847  0.2575  0.3970  0.1554
 2397SOL     OW 9640   4.072   3.505   3.948  0.2083  0.2680  0.1376
 2397SOL    HW2 9641   4.058   3.414   3.921 -0.8955  0.3417  0.4634
 2397SOL    HW3 9642   4.005   3.555   3.902  0.1412  0.7763  0.7852
 2397SOL    MW4 9643   4.062   3.499   3.938  0.0539  0.3445  0.2658
 2398SOL     OW 9644   4.261   3.631   3.788  0.1759  0.3694 -0.4746
 2398SOL    HW2 9645   4.190   3.587   3.836  0.8014 -0.0934  0.0264
 2398SOL    HW3 9646   4.340   3.584   3.813  0.6279  0.6880 -1.2796
 2398SOL    MW4 9647   4.262   3.619   3.798  0.3176  0.3502 -0.5145
 2399SOL     OW 9648   4.310   3.893   3.869  0.2654  0.4432  0.1526
 2399SOL    HW2 9649   4.228   3.925   3.831  0.4596  1.2540  0.4123
 2399SOL    HW3 9650   4.301   3.798   3.868 -0.1214  0.4804 -1.0589
 2399SOL    MW4 9651   4.298   3.885   3.864  0.2398  0.5550  0.0269
 2400SOL     OW 9652   4.047   3.989   3.808 -0.2882  0.2833  0.0496
 2400SOL    HW2 9653   4.022   4.081   3.815 -1.1353 -0.0283  1.2534
 2400SOL    HW3 9654   4.014   3.961   3.723 -0.4920  0.9410 -0.0896
 2400SOL    MW4 9655   4.040   3.998   3.797 -0.4268  0.3290  0.1900
 2401SOL     OW 9656   3.990   4.267   3.829 -0.1099 -0.2796 -0.2967
 2401SOL    HW2 9657   3.985   4.261   3.925 -2.0611  0.4042 -0.3405
 2401SOL    HW3 9658   4.072   4.314   3.813  0.8712 -1.4747  0.9724
 2401SOL    MW4 9659   4.000   4.272   3.840 -0.2379 -0.3471 -0.1349
 2402SOL     OW 9660   4.243   4.386   3.766  1.1604  0.8612  0.0525
 2402SOL    HW2 9661   4.244   4.477   3.795 -0.7170  1.4204 -1.4765
 2402SOL    HW3 9662   4.322   4.348   3.803  0.6596  2.4321  2.8886
 2402SOL    MW4 9663   4.253   4.393   3.774  0.8464  1.1425  0.2248
 2403SOL     OW 9664   0.193   4.641   4.125  0.3659  0.2190 -0.2733
 2403SOL    HW2 9665   0.173   4.568   4.184  0.7946 -0.3467 -0.8145
 2403SOL    HW3 9666   0.253   4.696   4.175 -1.0703  0.9679  0.6777
 2403SOL    MW4 9667   0.198   4.638   4.140  0.2330  0.2432 -0.2193
 2404SOL     OW 9668   0.035   0.388   4.152 -0.3559 -0.1018 -0.0120
 2404SOL    HW2 9669   0.022   0.379   4.058  2.7025 -0.2776 -0.4731
 2404SOL    HW3 9670   0.024   0.300   4.187  0.0154 -0.3132 -0.4267
 2404SOL    MW4 9671   0.032   0.375   4.144  0.0968 -0.1529 -0.1273
 2405SOL     OW 9672   1.524   1.902   4.799 -0.3308 -0.5830  0.1873
 2405SOL    HW2 9673   1.518   1.811   4.770 -0.7721 -0.2590 -0.7476
 2405SOL    HW3 9674   1.442   1.941   4.771 -0.3988 -0.0375  1.1164
 2405SOL    MW4 9675   1.512   1.895   4.792 -0.3978 -0.4683  0.1860
 2406SOL     OW 9676   0.205   0.565   4.290  0.2947  0.5062  0.9022
 2406SOL    HW2 9677   0.203   0.549   4.384 -0.1324  1.2709  1.0279
 2406SOL    HW3 9678   0.138   0.506   4.255 -1.3068  2.0033  1.3701
 2406SOL    MW4 9679   0.196   0.555   4.298  0.0271  0.8047  0.9804
 2407SOL     OW 9680   0.223   0.830   4.204  0.1727 -0.3543  0.5567
 2407SOL    HW2 9681   0.223   0.736   4.221  1.9548 -0.5844 -0.5619
 2407SOL    HW3 9682   0.305   0.862   4.241 -0.6339  0.8605  1.3525
 2407SOL    MW4 9683   0.233   0.822   4.211  0.3014 -0.2244  0.5150
 2408SOL     OW 9684   1.695   2.059   4.631  0.2668  0.4337  0.2775
 2408SOL    HW2 9685   1.656   2.005   4.700 -0.9660  0.1055 -0.6559
 2408SOL    HW3 9686   1.779   2.018   4.613 -0.0584 -0.3679  0.5449
 2408SOL    MW4 9687   1.701   2.047   4.638  0.0612  0.2844  0.1893
 2409SOL     OW 9688   4.467   1.192   4.167 -0.4992 -0.6726 -0.5668
 2409SOL    HW2 9689   4.466   1.185   4.072 -1.5997 -0.0362 -0.6120
 2409SOL    HW3 9690   4.470   1.102   4.198  2.2952 -0.8385 -1.2019
 2409SOL    MW4 9691   4.467   1.180   4.159 -0.2761 -0.6106 -0.6566
 2410SOL     OW 9692   0.768   4.066   4.460  0.4246 -0.1046  0.3449
 2410SOL    HW2 9693   0.830   4.048   4.390  0.1964 -0.0021  0.1146
 2410SOL    HW3 9694   0.798   4.148   4.499  0.1326  0.2126 -0.1030
 2410SOL    MW4 9695   0.780   4.074   4.456  0.3560 -0.0486  0.2556
 2411SOL     OW 9696   3.729   2.962   4.585 -0.6124 -0.2612 -0.2216
 2411SOL    HW2 9697   3.653   3.009   4.621 -0.8181 -0.8399  0.1052
 2411SOL    HW3 9698   3.753   3.011   4.507  1.0376  2.2153  1.7238
 2411SOL    MW4 9699   3.722   2.975   4.580 -0.4218 -0.0107  0.0777
 2412SOL     OW 9700   0.916   1.420   4.519  0.4392  0.5892  0.3241
 2412SOL    HW2 9701   0.998   1.379   4.547 -0.7374 -1.2372  1.1756
 2412SOL    HW3 9702   0.848   1.358   4.546 -1.2041  1.9588 -0.6115
 2412SOL    MW4 9703   0.918   1.406   4.526  0.0672  0.5288  0.3123
 2413SOL     OW 9704   1.971   3.168   4.852  0.3096  0.3290  0.2938
 2413SOL    HW2 9705   1.902   3.114   4.815  1.5050  0.3907 -2.1539
 2413SOL    HW3 9706   2.038   3.105   4.881  0.1330  0.3506  0.7488
 2413SOL    MW4 9707   1.971   3.152   4.851  0.4442  0.3397  0.0310
 2414SOL     OW 9708   1.294   0.117   4.240 -0.3735  0.7111 -0.2391
 2414SOL    HW2 9709   1.321   0.205   4.214  0.9427  0.4267  0.1745
 2414SOL    HW3 9710   1.239   0.130   4.317 -0.7974  1.2219 -0.6237
 2414SOL    MW4 9711   1.290   0.130   4.246 -0.2558  0.7410 -0.2351
 2415SOL     OW 9712   0.527   3.419   4.574 -0.1959 -0.2410 -0.2467
 2415SOL    HW2 9713   0.615   3.387   4.594 -0.9229 -1.3875  1.2362
 2415SOL    HW3 9714   0.474   3.340   4.568 -1.0534  0.4159 -1.5518
 2415SOL    MW4 9715   0.532   3.404   4.576 -0.4049 -0.3057 -0.2227
 2416SOL     OW 9716   1.794   3.008   4.696 -0.1174 -0.4249  0.0267
 2416SOL    HW2 9717   1.759   3.086   4.653  2.0620 -0.1688 -1.3558
 2416SOL    HW3 9718   1.716   2.958   4.722 -1.5559  2.1504  0.8853
 2416SOL    MW4 9719   1.779   3.012   4.694 -0.0197 -0.0515 -0.0424
 2417SOL     OW 9720   0.411   3.671   4.585 -0.4766  0.2045 -0.4916
 2417SOL    HW2 9721   0.484   3.732   4.576 -0.4254  0.3306  0.6896
 2417SOL    HW3 9722   0.453   3.585   4.593 -0.3576  0.4217  1.6543
 2417SOL    MW4 9723   0.426   3.668   4.585 -0.4541  0.2501 -0.0525
 2418SOL     OW 9724   0.297   0.181   4.524  0.0430  0.2957 -0.4415
 2418SOL    HW2 9725   0.334   0.144   4.444  0.1622 -1.4887  0.4218
 2418SOL    HW3 9726   0.212   0.138   4.533 -0.5650  1.5031 -0.3396
 2418SOL    MW4 9727   0.291   0.171   4.515 -0.0215  0.2196 -0.3142
 2419SOL     OW 9728   0.209   3.085   4.196 -0.1953 -0.1967  0.1473
 2419SOL    HW2 9729   0.136   3.110   4.253  0.2386  0.7858  0.2822
 2419SOL    HW3 9730   0.285   3.132   4.232  0.1140  0.3324 -1.1453
 2419SOL    MW4 9731   0.209   3.095   4.208 -0.0972  0.0026 -0.0057
 2420SOL     OW 9732   4.482   3.186   4.340  0.1010 -0.0475 -0.3651
 2420SOL    HW2 9733   4.483   3.273   4.301 -2.3975 -0.1126 -0.6564
 2420SOL    HW3 9734   4.404   3.144   4.304  0.7526 -2.0846  0.4940
 2420SOL    MW4 9735   4.472   3.192   4.330 -0.1421 -0.3247 -0.2899
 2421SOL     OW 9736   4.456   3.429   4.166 -0.0314 -0.0593  0.1743
 2421SOL    HW2 9737   4.394   3.498   4.190 -0.5357 -0.8763  1.2662
 2421SOL    HW3 9738   4.461   3.433   4.070 -0.2537  1.3158  0.2140
 2421SOL    MW4 9739   4.448   3.439   4.156 -0.1268  0.0143  0.3238
 2422SOL     OW 9740   0.008   3.967   4.253 -0.1743  0.0897  0.1234
 2422SOL    HW2 9741   0.095   3.928   4.240 -0.4509 -0.3719 -0.3826
 2422SOL    HW3 9742  -0.006   3.964   4.348  0.0031 -0.6228  0.1277
 2422SOL    MW4 9743   0.017   3.961   4.264 -0.1874 -0.0651  0.0572
 2423SOL     OW 9744   4.263   1.308   4.289  0.0434 -0.0907 -0.0413
 2423SOL    HW2 9745   4.268   1.392   4.243 -0.5052 -0.5846 -1.0142
 2423SOL    HW3 9746   4.346   1.265   4.269  0.5801  0.4715  0.9573
 2423SOL    MW4 9747   4.274   1.314   4.280  0.0420 -0.0818 -0.0377
 2424SOL     OW 9748   3.433   1.115   4.590  0.1173  0.3021  0.2978
 2424SOL    HW2 9749   3.428   1.068   4.506 -0.6889 -0.3812  0.7180
 2424SOL    HW3 9750   3.399   1.202   4.571 -1.7625 -0.4107  0.2976
 2424SOL    MW4 9751   3.428   1.120   4.576 -0.2372  0.1179  0.3533
 2425SOL     OW 9752   3.969   0.611   4.677  0.6045 -0.1203 -0.1959
 2425SOL    HW2 9753   4.057   0.649   4.677  0.3619  0.4573 -0.7106
 2425SOL    HW3 9754   3.913   0.680   4.641  0.4218 -1.5632 -2.8561
 2425SOL    MW4 9755   3.973   0.625   4.672  0.5484 -0.2344 -0.6146
 2426SOL     OW 9756   0.268   3.856   4.185 -0.0258  0.4489  0.0547
 2426SOL    HW2 9757   0.234   3.766   4.188 -1.2182  0.9135  0.4849
 2426SOL    HW3 9758   0.284   3.879   4.276 -1.9647  1.5193  0.1394
 2426SOL    MW4 9759   0.265   3.847   4.197 -0.4390  0.6516  0.1225
 2427SOL     OW 9760   2.985   3.403   4.649 -0.1694  0.1280  0.5748
 2427SOL    HW2 9761   3.053   3.361   4.595  0.3519  0.5742  0.8767
 2427SOL    HW3 9762   2.904   3.389   4.600  0.1540 -0.3089  0.1468
 2427SOL    MW4 9763   2.984   3.395   4.635 -0.0579  0.1292  0.5574
 2428SOL     OW 9764   0.597   4.665   4.189 -0.3303  0.0749  0.6477
 2428SOL    HW2 9765   0.635   4.584   4.224 -1.1860 -0.7100 -0.1974
 2428SOL    HW3 9766   0.621   4.663   4.096 -1.6683  0.0190  0.3005
 2428SOL    MW4 9767   0.605   4.654   4.181 -0.6197 -0.0360  0.4907
 2429SOL     OW 9768   0.471   1.710   4.277 -0.2202 -0.0617 -0.2657
 2429SOL    HW2 9769   0.514   1.747   4.354  0.4491  0.4546 -0.8835
 2429SOL    HW3 9770   0.464   1.783   4.216 -1.6464 -0.2215 -0.3231
 2429SOL    MW4 9771   0.476   1.724   4.279 -0.3200 -0.0148 -0.3548
 2430SOL     OW 9772   1.404   1.648   4.223 -0.3823 -0.7021 -0.4240
 2430SOL    HW2 9773   1.318   1.614   4.196 -1.7283  2.1855  0.0654
 2430SOL    HW3 9774   1.390   1.681   4.311  0.5207  2.1865 -1.3005
 2430SOL    MW4 9775   1.391   1.648   4.231 -0.4408  0.0600 -0.4754
 2431SOL     OW 9776   0.490   0.906   4.283  0.2806  0.4928 -0.1444
 2431SOL    HW2 9777   0.552   0.854   4.231 -1.1650 -0.1789 -1.2480
 2431SOL    HW3 9778   0.495   0.993   4.244  0.1562  0.3137 -0.5669
 2431SOL    MW4 9779   0.499   0.911   4.271  0.0734  0.3806 -0.3457
 2432SOL     OW 9780   2.017   2.896   4.572 -0.3844 -0.0929 -0.0735
 2432SOL    HW2 9781   1.940   2.943   4.604  0.2836  0.1611  1.1819
 2432SOL    HW3 9782   2.091   2.952   4.597  0.3580 -1.3749  0.6487
 2432SOL    MW4 9783   2.017   2.910   4.580 -0.1984 -0.2286  0.1874
 2433SOL     OW 9784   2.448   3.366   4.672  0.0645  0.0917  0.0902
 2433SOL    HW2 9785   2.406   3.315   4.603  0.5505 -0.2530  0.0379
 2433SOL    HW3 9786   2.502   3.302   4.719  0.2038  0.4414  0.4138
 2433SOL    MW4 9787   2.450   3.351   4.669  0.1469  0.0927  0.1264
 2434SOL     OW 9788   0.210   1.322   4.252 -0.2218  0.8588  0.1184
 2434SOL    HW2 9789   0.266   1.257   4.210  0.9780 -0.3455  3.3933
 2434SOL    HW3 9790   0.121   1.295   4.231  0.3148 -0.3938 -0.6090
 2434SOL    MW4 9791   0.206   1.310   4.244  0.0073  0.5347  0.4539
 2435SOL     OW 9792   0.632   1.543   4.128  0.2746  0.4244 -0.4491
 2435SOL    HW2 9793   0.572   1.605   4.171  0.0252  0.4538 -0.8321
 2435SOL    HW3 9794   0.620   1.560   4.035 -0.5603 -0.9252 -0.5895
 2435SOL    MW4 9795   0.622   1.554   4.121  0.1316  0.2501 -0.5183
 2436SOL     OW 9796   3.165   1.015   4.566  0.1097 -0.1933  0.0163
 2436SOL    HW2 9797   3.255   1.026   4.597  0.0142 -0.1627  0.2903
 2436SOL    HW3 9798   3.171   0.950   4.496  0.1608 -1.2212  0.9653
 2436SOL    MW4 9799   3.177   1.008   4.561  0.1037 -0.3248  0.1779
 2437SOL     OW 9800   4.047   0.932   4.509  0.0642 -0.0552 -0.0858
 2437SOL    HW2 9801   3.959   0.897   4.525 -0.5039  1.4269  0.1939
 2437SOL    HW3 9802   4.107   0.865   4.541 -0.9909 -0.5256  0.9327
 2437SOL    MW4 9803   4.043   0.919   4.515 -0.1497  0.0783  0.0849
 2438SOL     OW 9804   0.894   1.663   4.174 -0.1936  0.1846  0.2103
 2438SOL    HW2 9805   0.810   1.623   4.151  0.2139 -0.0555 -0.8851
 2438SOL    HW3 9806   0.889   1.675   4.269 -1.1031 -0.6600  0.2859
 2438SOL    MW4 9807   0.882   1.659   4.183 -0.2599  0.0415  0.0758
 2439SOL     OW 9808   0.680   2.349   4.163  0.0841  0.0590  0.2855
 2439SOL    HW2 9809   0.683   2.256   4.186 -0.8393 -0.0544 -0.0265
 2439SOL    HW3 9810   0.674   2.350   4.068 -0.0210  0.4363  0.2962
 2439SOL    MW4 9811   0.679   2.337   4.154 -0.0516  0.0939  0.2460
 2440SOL     OW 9812   0.201   2.312   4.125 -0.0059 -0.3164  0.4606
 2440SOL    HW2 9813   0.211   2.221   4.153  1.7052 -0.3504 -0.2230
 2440SOL    HW3 9814   0.271   2.359   4.172 -0.7234  0.6047  0.6141
 2440SOL    MW4 9815   0.212   2.306   4.135  0.1252 -0.1993  0.3910
 2441SOL     OW 9816   0.469   2.686   4.147 -0.6680 -0.0318 -0.1039
 2441SOL    HW2 9817   0.465   2.706   4.054  0.9797  1.0738  0.0456
 2441SOL    HW3 9818   0.403   2.743   4.187 -1.9167 -1.0571 -0.6588
 2441SOL    MW4 9819   0.460   2.696   4.140 -0.6154 -0.0210 -0.1578
 2442SOL     OW 9820   0.687   2.845   4.190 -0.3801  0.2813  0.1815
 2442SOL    HW2 9821   0.761   2.797   4.154 -0.7520 -0.2108  0.0585
 2442SOL    HW3 9822   0.610   2.798   4.157 -0.7375  0.4149  0.8052
 2442SOL    MW4 9823   0.687   2.832   4.181 -0.4763  0.2339  0.2470
 2443SOL     OW 9824   1.762   2.506   4.891 -0.4423  0.4178 -0.2508
 2443SOL    HW2 9825   1.688   2.567   4.889  0.7233  1.8556 -0.6526
 2443SOL    HW3 9826   1.724   2.421   4.869 -2.1361  0.9542  0.5128
 2443SOL    MW4 9827   1.748   2.503   4.888 -0.5120  0.6783 -0.2022
 2444SOL     OW 9828   1.562   2.772   4.183  0.0723  0.3026  0.1644
 2444SOL    HW2 9829   1.653   2.754   4.158  0.3774  2.2886 -0.2702
 2444SOL    HW3 9830   1.555   2.868   4.180 -1.7513  0.2273  1.2075
 2444SOL    MW4 9831   1.573   2.782   4.179 -0.1280  0.5550  0.2451
 2445SOL     OW 9832   0.408   3.476   4.183  0.5285 -0.7701  0.0378
 2445SOL    HW2 9833   0.324   3.519   4.198 -0.1809 -1.7593 -1.0531
 2445SOL    HW3 9834   0.421   3.483   4.088  2.2955  0.5056  0.3304
 2445SOL    MW4 9835   0.399   3.483   4.172  0.6680 -0.7322 -0.0672
 2446SOL     OW 9836   0.525   4.066   4.331 -0.0101 -0.0264 -0.4163
 2446SOL    HW2 9837   0.458   4.034   4.391 -0.6681 -0.8426 -1.5606
 2446SOL    HW3 9838   0.604   4.073   4.384 -0.7382 -0.0795  0.6977
 2446SOL    MW4 9839   0.526   4.063   4.346 -0.1930 -0.1411 -0.4206
 2447SOL     OW 9840   0.860   3.256   4.293  0.1978 -0.0800 -0.4531
 2447SOL    HW2 9841   0.782   3.214   4.258 -0.8276  0.3490  1.2282
 2447SOL    HW3 9842   0.933   3.205   4.258 -0.9641 -2.6425  0.7061
 2447SOL    MW4 9843   0.860   3.244   4.284 -0.0908 -0.3617 -0.0782
 2448SOL     OW 9844   2.484   2.029   4.519  0.5593  0.2500  0.5058
 2448SOL    HW2 9845   2.533   1.946   4.518  0.6957  0.3321  0.3681
 2448SOL    HW3 9846   2.419   2.017   4.589 -0.3671 -0.5286 -0.4699
 2448SOL    MW4 9847   2.482   2.016   4.528  0.4554  0.1578  0.3586
 2449SOL     OW 9848   1.764   4.146   4.665  0.3038 -0.1000 -0.0632
 2449SOL    HW2 9849   1.789   4.173   4.753  0.4797  1.0108 -0.4458
 2449SOL    HW3 9850   1.837   4.174   4.610 -1.2207  2.1394 -1.0277
 2449SOL    MW4 9851   1.777   4.154   4.669  0.1259  0.3428 -0.2413
 2450SOL     OW 9852   0.697   4.409   4.266 -0.1162 -0.3755 -0.1278
 2450SOL    HW2 9853   0.605   4.382   4.273  0.5634 -2.5042  0.7715
 2450SOL    HW3 9854   0.734   4.391   4.352  1.1876  0.4215 -0.5040
 2450SOL    MW4 9855   0.689   4.403   4.278  0.1455 -0.5512 -0.0587
 2451SOL     OW 9856   0.881   0.128   4.258 -0.0139  0.3365  0.1711
 2451SOL    HW2 9857   0.799   0.078   4.252  0.1154  0.2820 -1.2824
 2451SOL    HW3 9858   0.941   0.084   4.198  0.2872  1.8673 -0.6938
 2451SOL    MW4 9859   0.878   0.116   4.249  0.0429  0.5313 -0.1349
 2452SOL     OW 9860   0.879   0.384   4.125  0.1655 -0.2582 -0.3461
 2452SOL    HW2 9861   0.805   0.435   4.159  0.6382 -0.3528  0.8367
 2452SOL    HW3 9862   0.867   0.297   4.163 -0.3388 -0.9105 -1.9269
 2452SOL    MW4 9863   0.868   0.379   4.134  0.1613 -0.3568 -0.3982
 2453SOL     OW 9864   0.657   0.518   4.250 -0.1713  0.1676  0.5073
 2453SOL    HW2 9865   0.639   0.542   4.341 -0.0810 -1.6752  1.0298
 2453SOL    HW3 9866   0.578   0.472   4.221 -0.4440  1.2827 -0.5513
 2453SOL    MW4 9867   0.645   0.515   4.258 -0.1954  0.0716  0.4363
 2454SOL     OW 9868   3.358   3.591   4.525  0.0284 -0.0489 -0.1928
 2454SOL    HW2 9869   3.430   3.639   4.567 -0.1999 -0.2809  0.4737
 2454SOL    HW3 9870   3.376   3.499   4.544  1.0353 -0.3344 -2.3680
 2454SOL    MW4 9871   3.370   3.586   4.533  0.1309 -0.1171 -0.3915
 2455SOL     OW 9872   2.270   2.030   4.703  0.5617  0.4617 -0.2601
 2455SOL    HW2 9873   2.287   2.052   4.795  0.1837 -0.2326 -0.0218
 2455SOL    HW3 9874   2.246   1.938   4.704  0.9754  0.3348 -1.1137
 2455SOL    MW4 9875   2.269   2.021   4.715  0.5665  0.3533 -0.3409
 2456SOL     OW 9876   4.059   0.913   4.225 -0.4201  0.1031 -0.3318
 2456SOL    HW2 9877   4.067   0.926   4.319  0.3237  1.2951 -0.5549
 2456SOL    HW3 9878   4.141   0.871   4.199 -0.9576 -0.9705 -0.3325
 2456SOL    MW4 9879   4.071   0.909   4.234 -0.3929  0.1187 -0.3610
 2457SOL     OW 9880   0.925   1.154   4.143  0.0965 -0.4633  0.4679
 2457SOL    HW2 9881   0.928   1.070   4.190 -2.2469 -0.3870  0.8578
 2457SOL    HW3 9882   0.840   1.191   4.168  1.3493  2.3016  0.7324
 2457SOL    MW4 9883   0.914   1.148   4.152 -0.0474 -0.0885  0.5541
 2458SOL     OW 9884   1.156   1.294   4.198  0.0591 -0.1206  0.1602
 2458SOL    HW2 9885   1.077   1.241   4.181  0.2815 -0.7339  0.9644
 2458SOL    HW3 9886   1.155   1.306   4.293  1.4948 -1.0188  0.2955
 2458SOL    MW4 9887   1.145   1.288   4.209  0.2778 -0.3200  0.2847
 2459SOL     OW 9888   1.158   1.565   4.155  0.2846  0.4548 -0.2412
 2459SOL    HW2 9889   1.068   1.595   4.147 -0.0044 -0.2246  0.3385
 2459SOL    HW3 9890   1.150   1.471   4.174  1.1248  0.2785 -0.7253
 2459SOL    MW4 9891   1.145   1.556   4.156  0.3574  0.3419 -0.2289
 2460SOL     OW 9892   0.913   1.935   4.134  0.3261  0.7041 -0.7443
 2460SOL    HW2 9893   0.904   1.964   4.043 -0.1631 -0.3464 -1.0444
 2460SOL    HW3 9894   0.913   1.840   4.129  0.3709  0.6370  0.3565
 2460SOL    MW4 9895   0.912   1.926   4.121  0.2675  0.5566 -0.6390
 2461SOL     OW 9896   0.676   2.083   4.226  0.3645  0.2950  0.2564
 2461SOL    HW2 9897   0.757   2.037   4.206  0.6783  0.8787  0.1752
 2461SOL    HW3 9898   0.657   2.060   4.317  0.1685 -0.5129  0.0141
 2461SOL    MW4 9899   0.684   2.074   4.236  0.3800  0.2654  0.2131
 2462SOL     OW 9900   1.115   2.276   4.330 -0.0836 -0.9315 -0.3153
 2462SOL    HW2 9901   1.181   2.312   4.270 -0.7660 -0.3665 -0.7252
 2462SOL    HW3 9902   1.118   2.335   4.406  1.2801 -2.0474  0.5425
 2462SOL    MW4 9903   1.124   2.289   4.332  0.0063 -1.0040 -0.2570
 2463SOL     OW 9904   1.290   2.364   4.129 -0.4607  0.0627  0.2415
 2463SOL    HW2 9905   1.383   2.338   4.126 -0.5201 -0.0810 -2.6805
 2463SOL    HW3 9906   1.291   2.459   4.123 -0.4711  0.1362  1.4234
 2463SOL    MW4 9907   1.303   2.373   4.128 -0.4699  0.0536  0.0124
 2464SOL     OW 9908   3.181   0.850   4.333 -0.3825 -0.2219 -0.1923
 2464SOL    HW2 9909   3.274   0.873   4.337 -0.8696  1.7441  0.5045
 2464SOL    HW3 9910   3.140   0.926   4.290 -1.5393 -1.4826 -1.3650
 2464SOL    MW4 9911   3.188   0.863   4.328 -0.5991 -0.1289 -0.2551
 2465SOL     OW 9912   0.906   2.710   4.097 -0.1871  0.7470 -0.1996
 2465SOL    HW2 9913   0.917   2.627   4.143  0.7432 -0.7647 -3.0173
 2465SOL    HW3 9914   0.966   2.770   4.142  0.8724 -0.7282  0.4090
 2465SOL    MW4 9915   0.916   2.707   4.109  0.0755  0.3531 -0.4907
 2466SOL     OW 9916   1.133   4.417   4.279  0.4149  0.9033 -0.3865
 2466SOL    HW2 9917   1.210   4.380   4.235 -0.3737  0.1764 -1.1756
 2466SOL    HW3 9918   1.110   4.493   4.225  1.2140  1.7810  0.4666
 2466SOL    MW4 9919   1.140   4.422   4.266  0.4163  0.9227 -0.3781
 2467SOL     OW 9920   1.081   3.117   4.174  0.4845 -0.1163 -0.4511
 2467SOL    HW2 9921   1.168   3.144   4.203  0.3745  0.6523 -0.8143
 2467SOL    HW3 9922   1.090   3.099   4.081 -0.2688  2.3871 -1.0499
 2467SOL    MW4 9923   1.093   3.118   4.166  0.3706  0.3154 -0.5779
 2468SOL     OW 9924   0.669   3.132   4.146  0.0367  0.2539  0.2751
 2468SOL    HW2 9925   0.593   3.169   4.192  0.6754  1.8000  0.1129
 2468SOL    HW3 9926   0.681   3.046   4.186 -1.6093  0.1176  0.5141
 2468SOL    MW4 9927   0.660   3.126   4.158 -0.0963  0.4401  0.2851
 2469SOL     OW 9928   0.837   3.518   4.205  0.0819 -0.1406  0.2718
 2469SOL    HW2 9929   0.852   3.426   4.228 -1.3057 -0.4202  0.0946
 2469SOL    HW3 9930   0.842   3.520   4.110 -2.9851 -0.6342  0.0555
 2469SOL    MW4 9931   0.840   3.506   4.196 -0.5059 -0.2427  0.2203
 2470SOL     OW 9932   1.122   3.601   4.256 -0.1871 -0.0448 -0.2743
 2470SOL    HW2 9933   1.184   3.533   4.231  0.7692  1.2003 -1.4093
 2470SOL    HW3 9934   1.037   3.558   4.255  0.6132 -1.6941  0.9535
 2470SOL    MW4 9935   1.119   3.587   4.253  0.0446 -0.0980 -0.2618
 2471SOL     OW 9936   0.839   4.351   4.494  0.1368 -0.1611 -0.3422
 2471SOL    HW2 9937   0.933   4.364   4.506  0.1431  0.3386 -0.8962
 2471SOL    HW3 9938   0.800   4.388   4.574  0.3097  1.1817 -0.8616
 2471SOL    MW4 9939   0.846   4.358   4.506  0.1604  0.0825 -0.4840
 2472SOL     OW 9940   1.710   3.624   4.565 -0.0496  0.0360 -0.7759
 2472SOL    HW2 9941   1.695   3.718   4.555  0.9812  0.4305  1.1208
 2472SOL    HW3 9942   1.799   3.618   4.601 -0.6871 -1.5668  0.5863
 2472SOL    MW4 9943   1.720   3.636   4.568  0.0021 -0.1235 -0.3452
 2473SOL     OW 9944   1.094   4.654   4.121 -0.2326 -0.0870  0.3978
 2473SOL    HW2 9945   1.163   4.707   4.162 -1.1599  1.0629  0.5257
 2473SOL    HW3 9946   1.120   4.648   4.029  0.9878 -1.2462  0.8000
 2473SOL    MW4 9947   1.106   4.660   4.115 -0.1938 -0.0887  0.4673
 2474SOL     OW 9948   0.922   4.273   4.156  0.0723  0.1666 -0.2980
 2474SOL    HW2 9949   0.994   4.300   4.213  1.4171  1.6381 -2.6335
 2474SOL    HW3 9950   0.843   4.310   4.197  0.7684 -0.3766  1.5764
 2474SOL    MW4 9951   0.921   4.281   4.169  0.3415  0.2894 -0.3591
 2475SOL     OW 9952   3.311   3.012   4.883 -0.3541  0.6183 -0.0685
 2475SOL    HW2 9953   3.314   2.916   4.881  0.5884  0.6345  0.3623
 2475SOL    HW3 9954   3.232   3.035   4.833 -0.8136 -0.3931  0.1844
 2475SOL    MW4 9955   3.301   3.002   4.876 -0.2906  0.4869  0.0215
 2476SOL     OW 9956   1.102   1.988   4.310 -0.0582 -0.0078 -0.2653
 2476SOL    HW2 9957   1.093   2.083   4.322 -2.1108 -0.3121  0.6832
 2476SOL    HW3 9958   1.033   1.965   4.247 -1.2590 -1.2602  1.4712
 2476SOL    MW4 9959   1.092   1.998   4.303 -0.4874 -0.2133  0.0887
 2477SOL     OW 9960   3.101   3.076   4.725 -0.0256  0.4368  0.3440
 2477SOL    HW2 9961   3.016   3.111   4.751  0.2105  0.5910  0.9026
 2477SOL    HW3 9962   3.124   3.126   4.646 -1.2256 -0.7607 -0.8089
 2477SOL    MW4 9963   3.093   3.087   4.718 -0.1526  0.2990  0.2656
 2478SOL     OW 9964   1.094   3.842   4.121  0.1770 -0.2023  0.3531
 2478SOL    HW2 9965   1.020   3.894   4.153  0.4388  0.0745  0.5147
 2478SOL    HW3 9966   1.088   3.759   4.169  1.3647  0.7241  2.1710
 2478SOL    MW4 9967   1.083   3.838   4.131  0.3684 -0.0436  0.6146
 2479SOL     OW 9968   1.627   0.781   3.862 -0.4329  0.2862 -0.0961
 2479SOL    HW2 9969   1.703   0.826   3.825  0.6994 -0.7820  0.8757
 2479SOL    HW3 9970   1.553   0.838   3.842  0.8347  2.1210  0.3107
 2479SOL    MW4 9971   1.627   0.794   3.854 -0.1162  0.3874  0.0856
 2480SOL     OW 9972   0.647   3.799   4.523  0.7719 -0.0674  0.3145
 2480SOL    HW2 9973   0.692   3.880   4.496 -1.9003  1.6012  0.6642
 2480SOL    HW3 9974   0.628   3.755   4.440  1.8089 -0.1118  0.0885
 2480SOL    MW4 9975   0.651   3.804   4.508  0.5561  0.1469  0.3314
 2481SOL     OW 9976   1.400   0.865   4.224  0.4523 -0.2330  0.0417
 2481SOL    HW2 9977   1.399   0.957   4.196 -2.3082 -0.1693  0.1298
 2481SOL    HW3 9978   1.481   0.829   4.187  0.7092  1.8053 -1.4793
 2481SOL    MW4 9979   1.410   0.872   4.215  0.1221  0.0443 -0.1478
 2482SOL     OW 9980   1.212   1.039   4.584 -0.4955  0.1106 -0.2574
 2482SOL    HW2 9981   1.263   0.971   4.540  0.8943 -0.6117  2.3687
 2482SOL    HW3 9982   1.122   1.007   4.581 -0.0632 -1.1255 -0.3761
 2482SOL    MW4 9983   1.207   1.026   4.578 -0.2551 -0.1478  0.0734
 2483SOL     OW 9984   1.637   1.277   4.445  0.2387 -0.0232  0.3138
 2483SOL    HW2 9985   1.682   1.192   4.446 -0.9604 -0.6702  2.0210
 2483SOL    HW3 9986   1.560   1.264   4.499  1.0238  2.6784  2.2164
 2483SOL    MW4 9987   1.633   1.264   4.452  0.1841  0.2480  0.7901
 2484SOL     OW 9988   1.829   1.698   4.253  0.1301  0.5921 -0.0090
 2484SOL    HW2 9989   1.850   1.688   4.346  1.5036  1.8397 -0.1776
 2484SOL    HW3 9990   1.756   1.637   4.239 -0.4082  0.7320  1.9801
 2484SOL    MW4 9991   1.822   1.688   4.264  0.2403  0.7751  0.2317
 2485SOL     OW 9992   1.324   1.935   4.138 -0.2573 -0.2853 -0.0250
 2485SOL    HW2 9993   1.263   1.959   4.208  1.2251 -0.7329  1.4487
 2485SOL    HW3 9994   1.349   1.845   4.158  3.9401  1.1281  1.7448
 2485SOL    MW4 9995   1.319   1.926   4.150  0.4921 -0.1578  0.4029
 2486SOL     OW 9996   1.999   3.883   4.184 -0.0189  0.2984 -0.6523
 2486SOL    HW2 9997   1.987   3.884   4.089 -1.1650 -0.7210 -0.5213
 2486SOL    HW3 9998   1.923   3.930   4.219  1.0509  1.8025 -0.2898
 2486SOL    MW4 9999   1.987   3.890   4.176 -0.0291  0.3622 -0.5875
 2487SOL     OW10000   1.788   2.458   4.251  0.1059 -0.3346 -0.2239
 2487SOL    HW210001   1.704   2.427   4.217 -1.1082 -0.1006  2.4002
 2487SOL    HW310002   1.775   2.460   4.346  1.9772  2.9700  0.0086
 2487SOL    MW410003   1.775   2.454   4.259  0.1925  0.1323  0.1526
 2488SOL     OW10004   1.572   2.354   4.112  0.0538 -0.1852  0.3753
 2488SOL    HW210005   1.578   2.348   4.016  0.5151  0.2847  0.3708
 2488SOL    HW310006   1.569   2.264   4.142 -0.6216 -0.3319 -0.1171
 2488SOL    MW410007   1.572   2.342   4.103  0.0256 -0.1426  0.3099
 2489SOL     OW10008   1.123   2.851   4.206 -0.2346  0.0531  0.4368
 2489SOL    HW210009   1.091   2.939   4.187  0.3499  0.2281  0.2593
 2489SOL    HW310010   1.138   2.851   4.301  0.1906  0.2929  0.3737
 2489SOL    MW410011   1.121   2.863   4.216 -0.1014  0.1078  0.4053
 2490SOL     OW10012   1.827   2.716   4.155  0.5118 -0.4667  0.5013
 2490SOL    HW210013   1.888   2.752   4.219 -1.2202  0.2057  1.8080
 2490SOL    HW310014   1.818   2.624   4.180  2.6401 -1.1370 -1.0349
 2490SOL    MW410015   1.834   2.708   4.167  0.5640 -0.4666  0.4706
 2491SOL     OW10016   1.549   3.052   4.185 -0.4586 -0.2173 -0.2024
 2491SOL    HW210017   1.624   3.092   4.229 -1.1734  1.4271 -0.4415
 2491SOL    HW310018   1.473   3.097   4.221 -1.3597 -1.9492  0.1214
 2491SOL    MW410019   1.549   3.063   4.196 -0.6719 -0.2286 -0.1917
 2492SOL     OW10020   1.336   3.213   4.280  0.2030 -0.3481 -0.3552
 2492SOL    HW210021   1.348   3.299   4.240 -1.1752  0.1192  0.2073
 2492SOL    HW310022   1.325   3.231   4.373  2.5698 -1.3674  0.1553
 2492SOL    MW410023   1.336   3.227   4.287  0.3334 -0.4210 -0.2136
 2493SOL     OW10024   1.513   3.838   4.178 -0.0901 -0.3645  0.5374
 2493SOL    HW210025   1.526   3.760   4.232 -0.2468 -0.9133 -0.2115
 2493SOL    HW310026   1.431   3.876   4.209  0.0010 -0.4855  0.9237
 2493SOL    MW410027   1.504   3.833   4.189 -0.0989 -0.4530  0.4892
 2494SOL     OW10028   4.303   0.223   4.612 -0.3014 -0.3855 -0.1332
 2494SOL    HW210029   4.224   0.197   4.565 -0.3312 -1.0850  0.2978
 2494SOL    HW310030   4.280   0.218   4.704 -0.0217  0.2802 -0.0251
 2494SOL    MW410031   4.290   0.219   4.618 -0.2685 -0.3899 -0.0620
 2495SOL     OW10032   1.302   3.987   4.262  0.2693  0.1083  0.2747
 2495SOL    HW210033   1.304   4.075   4.223 -0.1128  0.1111  0.2517
 2495SOL    HW310034   1.232   3.942   4.214 -0.3785  0.1940  1.1218
 2495SOL    MW410035   1.293   3.993   4.250  0.1335  0.1194  0.3829
 2496SOL     OW10036   1.547   4.304   4.532 -0.4708  0.0645 -0.0768
 2496SOL    HW210037   1.535   4.384   4.583 -0.4276 -0.7913  1.2976
 2496SOL    HW310038   1.628   4.266   4.566 -0.2612 -0.3585 -1.0176
 2496SOL    MW410039   1.556   4.310   4.543 -0.4375 -0.1040 -0.0196
 2497SOL     OW10040   1.348   4.239   4.160 -0.0031 -0.8009  0.3834
 2497SOL    HW210041   1.332   4.269   4.071 -2.4949  0.8593  1.3457
 2497SOL    HW310042   1.413   4.299   4.195 -0.4204 -0.2999  0.2975
 2497SOL    MW410043   1.355   4.251   4.153 -0.3870 -0.5150  0.4988
 2498SOL     OW10044   1.816   0.994   4.812 -0.2319  0.3557 -0.0824
 2498SOL    HW210045   1.825   0.900   4.830 -0.4299  0.1732 -0.9084
 2498SOL    HW310046   1.888   1.014   4.753 -0.6672  0.5484 -0.5494
 2498SOL    MW410047   1.826   0.984   4.807 -0.3154  0.3571 -0.2527
 2499SOL     OW10048   2.021   4.648   4.176 -0.1113  0.0086  0.2873
 2499SOL    HW210049   2.018   4.655   4.080  0.3099 -0.3277  0.2488
 2499SOL    HW310050   1.940   4.691   4.205 -0.1145  0.3420 -0.2034
 2499SOL    MW410051   2.010   4.655   4.167 -0.0560  0.0081  0.2170
 2500SOL     OW10052   3.030   3.095   5.066  0.0497 -0.2609 -0.1389
 2500SOL    HW210053   3.123   3.083   5.049 -0.0735  0.7175 -1.5303
 2500SOL    HW310054   3.012   3.038   5.141  0.9912 -3.2075 -2.0925
 2500SOL    MW410055   3.040   3.086   5.074  0.1574 -0.5205 -0.5808
 2501SOL     OW10056   1.548   4.659   4.163  0.3193  0.0329  0.0001
 2501SOL    HW210057   1.547   4.571   4.201 -0.3902 -0.0676 -0.2519
 2501SOL    HW310058   1.467   4.699   4.194  0.1063  0.2183 -0.7987
 2501SOL    MW410059   1.538   4.653   4.172  0.1974  0.0443 -0.1388
 2502SOL     OW10060   1.825   0.325   4.120  0.0084 -0.2460  0.2419
 2502SOL    HW210061   1.822   0.252   4.182  0.4575  0.2919  0.9113
 2502SOL    HW310062   1.913   0.362   4.130 -0.7561  1.3917  1.1094
 2502SOL    MW410063   1.836   0.320   4.130 -0.0333  0.0410  0.4449
 2503SOL     OW10064   2.126   0.937   4.269  0.0279 -0.2717  0.2121
 2503SOL    HW210065   2.159   1.018   4.231  2.2283  0.0267  2.6756
 2503SOL    HW310066   2.174   0.927   4.351 -1.6179 -3.0586  0.8985
 2503SOL    MW410067   2.137   0.946   4.275  0.1013 -0.6000  0.6275
 2504SOL     OW10068   1.842   0.942   4.229  0.6625 -0.5110 -0.3050
 2504SOL    HW210069   1.932   0.915   4.244  0.2989 -1.2418  0.6405
 2504SOL    HW310070   1.794   0.859   4.221  0.0045 -0.1263 -0.3508
 2504SOL    MW410071   1.847   0.927   4.230  0.5277 -0.5566 -0.1864
 2505SOL     OW10072   1.834   1.201   4.102  0.0765 -0.1135 -0.1548
 2505SOL    HW210073   1.746   1.232   4.126  0.0229  0.8227 -1.5092
 2505SOL    HW310074   1.848   1.124   4.157 -0.9745  0.6247  1.1748
 2505SOL    MW410075   1.824   1.195   4.112 -0.0694  0.1074 -0.1578
 2506SOL     OW10076   4.153   4.054   4.540 -0.4130 -0.2442  0.0501
 2506SOL    HW210077   4.122   4.045   4.451  0.8185 -1.6056 -0.2571
 2506SOL    HW310078   4.169   4.148   4.550  0.9106 -0.2648 -1.6799
 2506SOL    MW410079   4.151   4.066   4.530 -0.0758 -0.4268 -0.2184
 2507SOL     OW10080   2.064   1.578   4.184  0.3115  0.0001 -0.0175
 2507SOL    HW210081   1.981   1.624   4.199  0.1088  0.0942 -1.3700
 2507SOL    HW310082   2.063   1.555   4.091  1.8945  0.1695 -0.0967
 2507SOL    MW410083   2.053   1.581   4.174  0.4935  0.0347 -0.2065
 2508SOL     OW10084   4.050   0.163   4.496 -0.1276 -0.5431  0.0279
 2508SOL    HW210085   3.999   0.238   4.527 -0.3712  0.1391 -1.9238
 2508SOL    HW310086   4.034   0.162   4.401  0.8466 -2.3343 -0.1211
 2508SOL    MW410087   4.041   0.173   4.488 -0.0315 -0.6894 -0.2499
 2509SOL     OW10088   0.009   2.362   4.520  0.1605 -0.0984 -0.0337
 2509SOL    HW210089  -0.057   2.415   4.566  1.1222  0.6862  0.4537
 2509SOL    HW310090   0.004   2.392   4.429 -0.6716 -0.5729 -0.1560
 2509SOL    MW410091  -0.001   2.373   4.514  0.1774 -0.0575  0.0148
 2510SOL     OW10092   1.572   2.328   4.710 -0.2064  0.5543 -0.2004
 2510SOL    HW210093   1.480   2.304   4.720 -0.4013  0.6981 -1.4640
 2510SOL    HW310094   1.618   2.245   4.695 -0.2093  0.5340 -0.0953
 2510SOL    MW410095   1.566   2.314   4.709 -0.2327  0.5703 -0.3529
 2511SOL     OW10096   2.992   0.639   4.454  0.6021 -0.0403 -0.8830
 2511SOL    HW210097   3.059   0.694   4.413  0.5889  0.7630  0.1619
 2511SOL    HW310098   2.948   0.697   4.516 -0.0763 -0.9728 -0.4790
 2511SOL    MW410099   2.995   0.654   4.457  0.5109 -0.0573 -0.6919
 2512SOL     OW10100   2.812   0.259   4.429 -0.2630  0.0577 -0.3222
 2512SOL    HW210101   2.725   0.275   4.465 -0.8135  0.1007 -1.6398
 2512SOL    HW310102   2.820   0.320   4.356  0.9933  0.2583 -0.0310
 2512SOL    MW410103   2.801   0.269   4.424 -0.1700  0.0899 -0.4578
 2513SOL     OW10104   1.303   2.642   4.152  0.3837  0.2249 -0.4214
 2513SOL    HW210105   1.242   2.715   4.165  0.5367  0.2914 -0.0603
 2513SOL    HW310106   1.390   2.683   4.159  0.4748  0.2954 -1.8466
 2513SOL    MW410107   1.306   2.657   4.155  0.4159  0.2429 -0.5617
 2514SOL     OW10108   1.999   1.992   4.577  0.0199 -0.3277 -0.4610
 2514SOL    HW210109   2.014   2.034   4.492 -0.0227 -0.8099 -0.7114
 2514SOL    HW310110   2.080   2.007   4.626 -0.5328  1.2954 -0.0117
 2514SOL    MW410111   2.012   2.000   4.572 -0.0587 -0.1774 -0.4349
 2515SOL     OW10112   1.978   3.095   4.179  0.6705 -0.5993 -0.3793
 2515SOL    HW210113   2.052   3.148   4.208 -1.0951  2.0748 -0.6505
 2515SOL    HW310114   1.979   3.102   4.084 -0.0557 -0.4079 -0.3730
 2515SOL    MW410115   1.988   3.103   4.170  0.3417 -0.2210 -0.4148
 2516SOL     OW10116   1.755   3.218   4.288 -0.2033  0.1904  0.4764
 2516SOL    HW210117   1.755   3.309   4.257 -0.2855 -0.2594 -0.8590
 2516SOL    HW310118   1.833   3.180   4.248 -1.0503 -0.7730 -0.2770
 2516SOL    MW410119   1.766   3.225   4.279 -0.3260  0.0038  0.2003
 2517SOL     OW10120   1.784   3.507   4.194 -0.1284 -0.6026  0.1965
 2517SOL    HW210121   1.867   3.549   4.212 -0.6838  0.0774  1.2223
 2517SOL    HW310122   1.768   3.524   4.101 -0.0259  0.9115  0.4367
 2517SOL    MW410123   1.793   3.515   4.184 -0.1882 -0.3130  0.3638
 2518SOL     OW10124   1.372   1.120   4.115 -0.4859 -0.1608 -0.2249
 2518SOL    HW210125   1.298   1.171   4.147 -0.0584  0.8445 -0.8074
 2518SOL    HW310126   1.357   1.112   4.021 -0.9477 -1.7777 -0.0253
 2518SOL    MW410127   1.361   1.125   4.107 -0.4905 -0.2414 -0.2751
 2519SOL     OW10128   2.018   3.627   4.290 -0.5883 -0.0883  0.1672
 2519SOL    HW210129   2.027   3.719   4.263  3.4945 -0.7527 -1.0925
 2519SOL    HW310130   2.020   3.630   4.386 -1.7807  1.1985  0.1786
 2519SOL    MW410131   2.020   3.640   4.299 -0.2069 -0.0060  0.0029
 2520SOL     OW10132   2.389   4.354   4.534 -0.3956 -0.0310 -0.3261
 2520SOL    HW210133   2.341   4.271   4.528 -1.2875  0.5961 -2.0485
 2520SOL    HW310134   2.329   4.414   4.578 -0.0126 -0.0848  0.2823
 2520SOL    MW410135   2.375   4.351   4.539 -0.4628  0.0448 -0.4735
 2521SOL     OW10136   2.168   0.571   4.541 -0.6434 -0.6916  0.1091
 2521SOL    HW210137   2.135   0.512   4.473 -0.8672 -2.7476  1.9412
 2521SOL    HW310138   2.112   0.554   4.617  2.0041 -1.3234  2.0318
 2521SOL    MW410139   2.156   0.561   4.542 -0.3238 -1.0462  0.6042
 2522SOL     OW10140   2.609   3.160   4.768  0.0855 -0.4059 -0.1136
 2522SOL    HW210141   2.622   3.095   4.698  1.8069 -0.6315  0.3848
 2522SOL    HW310142   2.694   3.166   4.811 -1.4564 -1.8345  3.3360
 2522SOL    MW410143   2.622   3.152   4.764  0.1092 -0.6242  0.4072
 2523SOL     OW10144   3.733   2.184   4.529 -0.4443  0.0699 -0.0741
 2523SOL    HW210145   3.755   2.160   4.439  0.9261  0.8517  0.0181
 2523SOL    HW310146   3.770   2.114   4.582 -0.5377  0.0196 -0.0760
 2523SOL    MW410147   3.741   2.172   4.524 -0.2759  0.1662 -0.0625
 2524SOL     OW10148   2.399   0.496   4.671 -0.1947  0.3139 -0.0773
 2524SOL    HW210149   2.470   0.551   4.636 -0.4775  0.1698 -0.8880
 2524SOL    HW310150   2.321   0.524   4.623 -0.7630  0.7125  1.0581
 2524SOL    MW410151   2.398   0.507   4.660 -0.3068  0.3474 -0.0343
 2525SOL     OW10152   2.400   0.414   4.264 -0.0252 -0.3156  0.1519
 2525SOL    HW210153   2.341   0.381   4.197 -0.0323 -0.3902  0.1940
 2525SOL    HW310154   2.403   0.509   4.249  0.3754 -0.3954 -0.2729
 2525SOL    MW410155   2.392   0.422   4.253  0.0265 -0.3360  0.1016
 2526SOL     OW10156   2.453   0.690   4.194  0.2824 -0.0143 -0.1081
 2526SOL    HW210157   2.480   0.741   4.118  0.3763 -1.2498 -0.9148
 2526SOL    HW310158   2.458   0.752   4.267  0.3991  1.1236 -1.0624
 2526SOL    MW410159   2.457   0.705   4.194  0.3102 -0.0272 -0.3405
 2527SOL     OW10160   2.194   0.707   4.131 -0.1037 -0.0438  0.0137
 2527SOL    HW210161   2.286   0.686   4.148  0.0602  0.2481 -0.5190
 2527SOL    HW310162   2.174   0.780   4.190 -0.0574 -0.2497  0.2858
 2527SOL    MW410163   2.203   0.714   4.141 -0.0758 -0.0324 -0.0210
 2528SOL     OW10164   2.806   0.398   4.182 -0.2544  0.0969  0.0219
 2528SOL    HW210165   2.759   0.372   4.103 -0.5399  0.8784 -0.0692
 2528SOL    HW310166   2.774   0.486   4.202  0.2860  0.1612  0.6443
 2528SOL    MW410167   2.796   0.406   4.175 -0.2210  0.2086  0.0911
 2529SOL     OW10168   1.492   3.448   4.587  0.0054  0.3324 -0.3597
 2529SOL    HW210169   1.569   3.502   4.603 -0.5168  0.8401  0.4875
 2529SOL    HW310170   1.422   3.511   4.568 -0.6124 -0.0362  0.6751
 2529SOL    MW410171   1.493   3.463   4.587 -0.1450  0.3507 -0.1121
 2530SOL     OW10172   2.267   1.148   4.177  0.2611 -0.3827 -0.5722
 2530SOL    HW210173   2.215   1.224   4.204 -0.2246 -0.2798 -1.7712
 2530SOL    HW310174   2.355   1.167   4.209 -0.1055  0.1600  0.1290
 2530SOL    MW410175   2.271   1.161   4.185  0.1488 -0.2974 -0.6375
 2531SOL     OW10176   2.239   1.933   4.151  0.5942 -0.2847  0.2685
 2531SOL    HW210177   2.267   1.854   4.196  1.2341  0.4849  1.2558
 2531SOL    HW310178   2.297   2.002   4.184  0.0445  0.5988 -0.5560
 2531SOL    MW410179   2.250   1.932   4.161  0.6061 -0.0665  0.2899
 2532SOL     OW10180   2.532   1.520   4.156  0.5261 -0.3873 -0.0016
 2532SOL    HW210181   2.551   1.540   4.065  1.0739 -0.4448  0.0994
 2532SOL    HW310182   2.590   1.577   4.206 -0.8102  0.7198  0.3306
 2532SOL    MW410183   2.542   1.530   4.151  0.4220 -0.2488  0.0558
 2533SOL     OW10184   3.057   2.437   5.256 -0.0425  0.2622  0.1160
 2533SOL    HW210185   3.050   2.364   5.318 -0.6237  0.2595  0.0517
 2533SOL    HW310186   2.981   2.426   5.198 -1.1720  1.9471  1.2199
 2533SOL    MW410187   3.046   2.426   5.257 -0.2682  0.4840  0.2532
 2534SOL     OW10188   0.832   3.620   4.608 -0.0528  0.1003 -0.1988
 2534SOL    HW210189   0.765   3.685   4.587 -0.0582  1.0383  2.5182
 2534SOL    HW310190   0.783   3.541   4.630 -0.2234  0.5348  0.9653
 2534SOL    MW410191   0.817   3.618   4.608 -0.0761  0.2816  0.3133
 2535SOL     OW10192   2.304   2.449   4.239  0.2765  0.0541  0.3818
 2535SOL    HW210193   2.276   2.539   4.224 -0.2019 -0.2492 -0.5882
 2535SOL    HW310194   2.223   2.401   4.257  0.2016 -0.7024 -1.8013
 2535SOL    MW410195   2.290   2.454   4.239  0.2034 -0.0858 -0.0343
 2536SOL     OW10196   2.215   4.123   4.515  0.2190 -0.3877 -0.2351
 2536SOL    HW210197   2.254   4.057   4.573 -0.2930 -0.8922 -0.4652
 2536SOL    HW310198   2.208   4.080   4.430 -0.8287 -0.3009 -0.1999
 2536SOL    MW410199   2.219   4.108   4.512  0.0134 -0.4435 -0.2613
 2537SOL     OW10200   1.058   3.055   4.768 -0.1065  0.2396 -0.1479
 2537SOL    HW210201   1.058   3.142   4.729  0.0736  0.7927  1.0839
 2537SOL    HW310202   0.966   3.036   4.787 -0.0636  0.4723  0.2847
 2537SOL    MW410203   1.046   3.064   4.765 -0.0770  0.3433  0.0715
 2538SOL     OW10204   4.401   2.883   4.692 -0.3716  0.2852  0.5555
 2538SOL    HW210205   4.336   2.819   4.663  1.9759 -1.6206 -0.6680
 2538SOL    HW310206   4.441   2.843   4.769  1.7781 -0.2116 -0.7863
 2538SOL    MW410207   4.397   2.869   4.698  0.2217 -0.0315  0.2174
 2539SOL     OW10208   2.216   3.233   4.221 -0.0214  0.2232 -0.2911
 2539SOL    HW210209   2.216   3.322   4.186  2.0844  0.6183  0.6427
 2539SOL    HW310210   2.234   3.244   4.315 -0.1176 -1.1564 -0.1045
 2539SOL    MW410211   2.218   3.246   4.229  0.2437  0.0932 -0.1431
 2540SOL     OW10212   1.554   2.862   4.727  0.2993  0.1152  0.0048
 2540SOL    HW210213   1.554   2.809   4.647  1.3326 -0.9123  0.6808
 2540SOL    HW310214   1.473   2.913   4.721 -0.3806 -1.0477 -0.9778
 2540SOL    MW410215   1.543   2.862   4.715  0.3458 -0.1738 -0.0358
 2541SOL     OW10216   2.235   3.490   4.153 -0.0673 -0.7443  0.2275
 2541SOL    HW210217   2.307   3.525   4.205  1.0168 -0.0206 -1.6871
 2541SOL    HW310218   2.156   3.528   4.192  0.7242 -0.1950  1.3134
 2541SOL    MW410219   2.234   3.500   4.165  0.1802 -0.5765  0.1183
 2542SOL     OW10220   1.281   2.267   4.754  0.1693  0.2153 -0.2449
 2542SOL    HW210221   1.242   2.281   4.840 -1.4519  0.3466 -0.9874
 2542SOL    HW310222   1.270   2.174   4.737 -2.1785  0.6695 -1.5330
 2542SOL    MW410223   1.274   2.257   4.763 -0.3545  0.2925 -0.5126
 2543SOL     OW10224   2.434   3.864   4.141  0.1422  0.4614  0.9638
 2543SOL    HW210225   2.362   3.913   4.182 -1.0778 -0.1362 -0.3973
 2543SOL    HW310226   2.435   3.894   4.050 -0.1692 -1.4611  0.2843
 2543SOL    MW410227   2.424   3.874   4.134 -0.0596  0.1287  0.6948
 2544SOL     OW10228   0.142   3.582   4.551  0.6849 -0.0789 -0.2398
 2544SOL    HW210229   0.145   3.493   4.586 -0.0812  0.2084  0.5832
 2544SOL    HW310230   0.232   3.613   4.555  0.8562 -0.6129  0.0208
 2544SOL    MW410231   0.154   3.574   4.556  0.6064 -0.1111 -0.0968
 2545SOL     OW10232   2.237   4.006   4.264  0.2776  0.4220  0.0094
 2545SOL    HW210233   2.152   3.971   4.237  0.9889 -0.8586 -0.6379
 2545SOL    HW310234   2.240   4.093   4.225 -1.2564  0.9665  1.0819
 2545SOL    MW410235   2.226   4.013   4.255  0.1690  0.3247  0.0653
 2546SOL     OW10236   2.219   4.245   4.146 -0.1793 -0.2541 -0.1548
 2546SOL    HW210237   2.286   4.302   4.184  0.7313 -0.6330 -1.1879
 2546SOL    HW310238   2.136   4.287   4.170  0.4633  1.0758 -0.2250
 2546SOL    MW410239   2.217   4.258   4.154  0.0255 -0.1283 -0.3009
 2547SOL     OW10240   1.542   2.105   4.163 -0.0050  0.2670 -0.6102
 2547SOL    HW210241   1.468   2.046   4.148  0.0034 -0.0891  0.7328
 2547SOL    HW310242   1.619   2.052   4.141 -0.0915  0.3817 -1.2141
 2547SOL    MW410243   1.542   2.090   4.158 -0.0153  0.2348 -0.5131
 2548SOL     OW10244   3.019   3.920   4.516 -0.0131 -0.2059  0.6613
 2548SOL    HW210245   3.062   3.930   4.432  0.7685  0.4794  1.1385
 2548SOL    HW310246   3.046   3.833   4.547  0.6984  0.0503  0.7675
 2548SOL    MW410247   3.028   3.910   4.509  0.1841 -0.0815  0.7377
 2549SOL     OW10248   2.073   0.447   4.136 -0.2102  0.0163  0.1500
 2549SOL    HW210249   2.111   0.411   4.056 -0.4067  2.0839 -0.9068
 2549SOL    HW310250   2.104   0.537   4.139 -1.5786  0.4635  1.5079
 2549SOL    MW410251   2.082   0.454   4.126 -0.4165  0.3481  0.1893
 2550SOL     OW10252   1.555   2.740   4.471 -0.1931 -0.2851  0.0775
 2550SOL    HW210253   1.608   2.662   4.490 -1.3597 -1.3360 -0.8928
 2550SOL    HW310254   1.569   2.756   4.378 -0.1569  0.5338  0.2206
 2550SOL    MW410255   1.564   2.732   4.461 -0.3422 -0.3157 -0.0319
 2551SOL     OW10256   2.858   0.842   4.187  0.0620  0.4236 -0.0646
 2551SOL    HW210257   2.882   0.821   4.096  1.6831 -2.1910  0.9218
 2551SOL    HW310258   2.928   0.899   4.217  0.2973  0.0993  0.0028
 2551SOL    MW410259   2.871   0.847   4.179  0.3071  0.0358  0.0749
 2552SOL     OW10260   2.702   0.637   4.282  0.3444  0.4826  0.3279
 2552SOL    HW210261   2.765   0.709   4.274  1.4965 -0.6559 -1.1832
 2552SOL    HW310262   2.628   0.664   4.229  0.0800  1.2669  1.0818
 2552SOL    MW410263   2.701   0.650   4.274  0.4616  0.4358  0.2275
 2553SOL     OW10264   2.718   1.079   4.095  0.6105  0.1355  0.3199
 2553SOL    HW210265   2.734   1.084   4.001  0.1948  1.6690  0.3082
 2553SOL    HW310266   2.768   1.003   4.125  1.6848  0.3363 -0.9396
 2553SOL    MW410267   2.726   1.070   4.087  0.6971  0.3642  0.1521
 2554SOL     OW10268   2.765   2.178   4.809 -0.5311  0.4942 -0.2009
 2554SOL    HW210269   2.829   2.249   4.813  0.2711 -0.2351 -0.1722
 2554SOL    HW310270   2.747   2.167   4.716 -1.3947  1.3943 -0.1477
 2554SOL    MW410271   2.771   2.186   4.797 -0.5393  0.5171 -0.1898
 2555SOL     OW10272   2.964   1.537   4.160  0.1935  0.6627  0.7976
 2555SOL    HW210273   2.880   1.567   4.196 -0.6219 -0.2478 -0.3130
 2555SOL    HW310274   2.985   1.459   4.210 -1.6204 -1.3915 -1.5293
 2555SOL    MW410275   2.956   1.531   4.171 -0.1535  0.2716  0.3438
 2556SOL     OW10276   3.066   2.755   5.145 -0.4486  0.0120 -0.2230
 2556SOL    HW210277   3.063   2.678   5.203  1.9256 -1.3048 -1.7354
 2556SOL    HW310278   3.112   2.724   5.067  0.6636  2.9897 -0.8309
 2556SOL    MW410279   3.072   2.741   5.143  0.0114  0.2310 -0.5031
 2557SOL     OW10280   3.194   1.701   4.239 -0.9185  0.1852 -0.4445
 2557SOL    HW210281   3.194   1.787   4.196 -0.8124 -0.0906 -0.9951
 2557SOL    HW310282   3.116   1.658   4.205 -1.3230  0.3077  0.3234
 2557SOL    MW410283   3.184   1.707   4.229 -0.9575  0.1650 -0.4153
 2558SOL     OW10284   0.894   4.002   4.216  0.0961  0.2248 -0.6880
 2558SOL    HW210285   0.881   4.090   4.179  0.0040  1.0139  1.1619
 2558SOL    HW310286   0.808   3.961   4.212  0.2210  0.0399 -1.9273
 2558SOL    MW410287   0.881   4.008   4.210  0.1004  0.3037 -0.6080
 2559SOL     OW10288   1.977   0.490   4.730 -0.0900  0.0780  0.6173
 2559SOL    HW210289   2.042   0.425   4.759  0.2033  0.0478 -0.0874
 2559SOL    HW310290   1.920   0.441   4.670  0.4389  0.5953 -0.3104
 2559SOL    MW410291   1.978   0.475   4.726  0.0187  0.1422  0.4020
 2560SOL     OW10292   3.615   1.937   4.147 -0.2178  0.1420 -0.0615
 2560SOL    HW210293   3.610   1.857   4.200 -0.9205 -0.0635 -0.4169
 2560SOL    HW310294   3.607   1.905   4.057 -1.7619  0.7079 -0.1468
 2560SOL    MW410295   3.613   1.922   4.142 -0.5140  0.1895 -0.1197
 2561SOL     OW10296   2.706   2.521   4.123 -0.2857 -0.1780  0.1460
 2561SOL    HW210297   2.631   2.465   4.143  0.1431 -0.1686  1.9181
 2561SOL    HW310298   2.781   2.462   4.130 -0.1447 -0.3023 -2.1015
 2561SOL    MW410299   2.706   2.506   4.127 -0.2105 -0.1934  0.0834
 2562SOL     OW10300   2.485   2.892   4.305 -0.1811  0.2609  0.0561
 2562SOL    HW210301   2.473   2.968   4.249  0.3130  1.0556  1.0315
 2562SOL    HW310302   2.528   2.925   4.383 -2.1090 -0.5833  1.5291
 2562SOL    MW410303   2.489   2.906   4.308 -0.3703  0.2544  0.3791
 2563SOL     OW10304   2.969   2.873   4.285 -0.1373 -0.3092  0.0572
 2563SOL    HW210305   2.895   2.812   4.279 -0.0285 -0.5842  1.4540
 2563SOL    HW310306   2.995   2.871   4.377  0.1571  1.5184  0.0345
 2563SOL    MW410307   2.962   2.865   4.296 -0.0839 -0.1042  0.2384
 2564SOL     OW10308   2.906   3.118   4.168 -0.1862 -0.0500 -0.4141
 2564SOL    HW210309   2.937   3.037   4.208 -0.7495 -0.4646 -0.8131
 2564SOL    HW310310   2.916   3.104   4.074 -2.6458 -0.6385 -0.6092
 2564SOL    MW410311   2.911   3.105   4.161 -0.5851 -0.1824 -0.4926
 2565SOL     OW10312   3.315   0.282   4.705  0.0563 -0.4623 -0.1827
 2565SOL    HW210313   3.294   0.287   4.798 -1.4076 -0.4918 -0.5068
 2565SOL    HW310314   3.237   0.316   4.660  1.6847  1.9640 -1.3192
 2565SOL    MW410315   3.302   0.287   4.711  0.0780 -0.1461 -0.3757
 2566SOL     OW10316   2.268   3.246   4.490  0.5086 -0.5268  0.5755
 2566SOL    HW210317   2.191   3.283   4.534  0.0193 -0.3120 -0.4398
 2566SOL    HW310318   2.274   3.156   4.524  0.2333 -0.3142  1.1928
 2566SOL    MW410319   2.258   3.239   4.500  0.4077 -0.4704  0.5231
 2567SOL     OW10320   2.956   3.625   4.302 -0.4307  0.1016 -0.1270
 2567SOL    HW210321   2.995   3.624   4.389  0.3315  2.3511 -0.4057
 2567SOL    HW310322   3.016   3.574   4.248  0.8386  1.4392 -0.0145
 2567SOL    MW410323   2.969   3.618   4.306 -0.1626  0.5748 -0.1488
 2568SOL     OW10324   3.630   0.091   4.472 -0.0241  0.0072  0.0667
 2568SOL    HW210325   3.637   0.180   4.506 -0.1937  0.2277 -0.4694
 2568SOL    HW310326   3.545   0.060   4.503 -0.2938  0.3020 -0.3722
 2568SOL    MW410327   3.619   0.099   4.481 -0.0823  0.0752 -0.0620
 2569SOL     OW10328   1.657   3.925   4.498  0.1752  0.0288 -0.3234
 2569SOL    HW210329   1.685   3.983   4.569  0.2381 -0.3517 -0.0328
 2569SOL    HW310330   1.562   3.926   4.503  0.1743  0.1479 -0.3526
 2569SOL    MW410331   1.648   3.933   4.508  0.1835 -0.0060 -0.2885
 2570SOL     OW10332   0.207   0.820   4.661  0.5315 -0.6084  0.4459
 2570SOL    HW210333   0.230   0.900   4.708 -0.5989  0.2390 -0.4206
 2570SOL    HW310334   0.115   0.831   4.638  0.5135 -1.9107 -0.1890
 2570SOL    MW410335   0.198   0.832   4.665  0.3799 -0.6685  0.2475
 2571SOL     OW10336   2.672   3.253   4.257  0.3381  0.3067  0.1348
 2571SOL    HW210337   2.671   3.281   4.348 -0.5167  2.3211 -0.4607
 2571SOL    HW310338   2.756   3.209   4.246 -0.4350 -1.8153  2.4155
 2571SOL    MW410339   2.683   3.251   4.267  0.1233  0.2928  0.3572
 2572SOL     OW10340   1.310   4.164   4.594 -0.2124 -0.3166 -0.5849
 2572SOL    HW210341   1.397   4.193   4.567 -0.5260 -0.4091 -1.7230
 2572SOL    HW310342   1.310   4.070   4.576 -1.0759 -0.0490 -2.0542
 2572SOL    MW410343   1.322   4.155   4.588 -0.3676 -0.2937 -0.9289
 2573SOL     OW10344   2.015   3.584   4.577  0.6534 -0.2525  0.0059
 2573SOL    HW210345   2.002   3.490   4.591  0.5582 -0.1800  0.4119
 2573SOL    HW310346   2.111   3.595   4.575  0.6803 -0.2319  0.8749
 2573SOL    MW410347   2.026   3.573   4.579  0.6444 -0.2403  0.1740
 2574SOL     OW10348   3.796   3.636   4.326 -0.1596  0.1159  0.0086
 2574SOL    HW210349   3.878   3.600   4.294  0.9834  3.4236 -1.0136
 2574SOL    HW310350   3.806   3.639   4.421  1.1687  0.9944 -0.1399
 2574SOL    MW410351   3.808   3.632   4.334  0.1664  0.6683 -0.1464
 2575SOL     OW10352   0.516   1.136   4.859  0.1587  0.1164  0.3507
 2575SOL    HW210353   0.506   1.221   4.815 -0.0032  0.7762  1.6527
 2575SOL    HW310354   0.543   1.158   4.948 -0.0751 -1.1921  0.7501
 2575SOL    MW410355   0.518   1.150   4.865  0.1065  0.0309  0.5751
 2576SOL     OW10356   2.506   2.054   4.227  0.2065 -0.1595  0.0260
 2576SOL    HW210357   2.484   2.059   4.320 -1.4017  0.1150 -0.3641
 2576SOL    HW310358   2.509   2.145   4.198 -0.5306 -0.2924 -0.4752
 2576SOL    MW410359   2.504   2.067   4.235 -0.1030 -0.1407 -0.0916
 2577SOL     OW10360   3.050   1.055   4.196  0.6075 -0.4776 -0.1307
 2577SOL    HW210361   3.048   1.136   4.247 -1.3363 -0.5314 -0.0680
 2577SOL    HW310362   3.093   1.080   4.114  0.0754  0.6221 -0.0908
 2577SOL    MW410363   3.055   1.069   4.192  0.2809 -0.3396 -0.1168
 2578SOL     OW10364   3.387   1.344   4.261 -0.4326 -0.2105  0.3080
 2578SOL    HW210365   3.392   1.365   4.354  0.7944 -0.2658  0.2696
 2578SOL    HW310366   3.412   1.425   4.216  0.8943 -0.7326  0.0819
 2578SOL    MW410367   3.391   1.357   4.267 -0.0954 -0.2867  0.2732
 2579SOL     OW10368   3.434   1.579   4.123  0.1168  0.3542  0.2472
 2579SOL    HW210369   3.431   1.555   4.030 -0.8929 -2.9019  1.0332
 2579SOL    HW310370   3.344   1.608   4.142 -0.3055 -1.2231  0.7188
 2579SOL    MW410371   3.422   1.579   4.113 -0.0720 -0.2835  0.4129
 2580SOL     OW10372   3.154   2.249   4.859  0.2217 -0.0165  0.4396
 2580SOL    HW210373   3.189   2.250   4.770  0.8685  0.4365  0.6938
 2580SOL    HW310374   3.079   2.309   4.856  1.0298  1.0063  0.5130
 2580SOL    MW410375   3.149   2.257   4.847  0.4139  0.1781  0.4821
 2581SOL     OW10376   1.367   3.893   4.494 -0.4684  0.5100 -0.0856
 2581SOL    HW210377   1.325   3.933   4.418  0.0527  0.7010 -0.2808
 2581SOL    HW310378   1.335   3.803   4.495  0.3766  0.1849 -1.1818
 2581SOL    MW410379   1.357   3.887   4.484 -0.2881  0.4923 -0.2561
 2582SOL     OW10380   3.664   2.597   4.542  0.1113  0.4709  0.1228
 2582SOL    HW210381   3.680   2.690   4.528 -1.2654  0.7439  0.3145
 2582SOL    HW310382   3.587   2.594   4.599 -0.0660 -0.7896 -0.1659
 2582SOL    MW410383   3.656   2.609   4.547 -0.0937  0.3407  0.1101
 2583SOL     OW10384   2.922   2.381   4.176  0.1422 -0.1507  0.1056
 2583SOL    HW210385   2.924   2.287   4.194 -0.7561  0.1068  1.6562
 2583SOL    HW310386   3.002   2.415   4.217  1.4943 -0.5028 -2.1716
 2583SOL    MW410387   2.933   2.373   4.184  0.2022 -0.1631  0.0100
 2584SOL     OW10388   3.164   2.747   4.137 -0.2189  0.4737  0.0426
 2584SOL    HW210389   3.168   2.662   4.181 -0.0617  0.5130  0.1066
 2584SOL    HW310390   3.095   2.795   4.183 -0.9243  0.0542 -0.5837
 2584SOL    MW410391   3.155   2.742   4.149 -0.2911  0.4237 -0.0319
 2585SOL     OW10392   2.586   2.985   4.551  0.2313  0.0473  0.3443
 2585SOL    HW210393   2.495   3.008   4.569  0.5092  0.9194  0.6713
 2585SOL    HW310394   2.596   2.897   4.588 -0.7393 -0.4579 -0.5604
 2585SOL    MW410395   2.575   2.976   4.558  0.1400  0.0958  0.2675
 2586SOL     OW10396   1.187   1.301   4.475 -0.1584 -0.3617  0.3242
 2586SOL    HW210397   1.262   1.343   4.515 -0.2120 -0.2568  0.3154
 2586SOL    HW310398   1.192   1.210   4.503 -0.3423 -0.2341  0.7850
 2586SOL    MW410399   1.197   1.295   4.484 -0.1897 -0.3310  0.3839
 2587SOL     OW10400   3.394   3.112   4.126 -0.1443  0.0418  0.1622
 2587SOL    HW210401   3.402   3.095   4.032  0.4232  0.6628  0.0992
 2587SOL    HW310402   3.389   3.024   4.165  0.5933 -0.2398 -0.3621
 2587SOL    MW410403   3.394   3.098   4.119  0.0281  0.0865  0.0844
 2588SOL     OW10404   3.147   3.236   4.193 -0.3533  0.5308 -0.4304
 2588SOL    HW210405   3.223   3.181   4.173 -0.6182 -0.2843  0.7443
 2588SOL    HW310406   3.072   3.179   4.181 -0.7427  1.0957 -0.7417
 2588SOL    MW410407   3.147   3.221   4.189 -0.4396  0.4976 -0.3166
 2589SOL     OW10408   1.981   3.310   4.602  0.2289 -0.0221  0.3046
 2589SOL    HW210409   1.984   3.276   4.692 -1.3768  2.0188  1.1542
 2589SOL    HW310410   1.900   3.275   4.566 -0.2585  0.9790  0.4136
 2589SOL    MW410411   1.971   3.301   4.609 -0.0472  0.3791  0.4306
 2590SOL     OW10412   2.741   3.516   4.149 -0.0783 -0.3050 -0.2183
 2590SOL    HW210413   2.706   3.438   4.191 -1.4565  1.3260  1.7758
 2590SOL    HW310414   2.814   3.542   4.205  1.4751 -1.1118 -1.8304
 2590SOL    MW410415   2.746   3.509   4.162 -0.0551 -0.1962 -0.1678
 2591SOL     OW10416   3.383   3.889   4.215  0.2029  0.0892  0.4729
 2591SOL    HW210417   3.389   3.794   4.229  0.5759 -0.0063 -0.2798
 2591SOL    HW310418   3.386   3.899   4.120 -1.0718  0.7773  0.4974
 2591SOL    MW410419   3.384   3.878   4.204  0.0839  0.1674  0.3762
 2592SOL     OW10420   0.172   4.387   4.263 -0.2643  0.4132 -0.5066
 2592SOL    HW210421   0.264   4.362   4.252  0.1671  2.3141 -1.5190
 2592SOL    HW310422   0.123   4.326   4.209  0.6091  0.7247 -1.6612
 2592SOL    MW410423   0.178   4.376   4.255 -0.0922  0.7052 -0.7925
 2593SOL     OW10424   2.406   4.407   4.257  0.3306  0.1657 -0.1982
 2593SOL    HW210425   2.393   4.407   4.352  0.7916 -1.6583 -0.1007
 2593SOL    HW310426   2.480   4.347   4.244 -1.1765 -1.4000 -1.8648
 2593SOL    MW410427   2.414   4.399   4.268  0.1926 -0.2818 -0.4048
 2594SOL     OW10428   3.124   3.980   4.275  0.2186 -0.5436 -0.0838
 2594SOL    HW210429   3.214   3.951   4.259  0.6007  0.9607 -0.8445
 2594SOL    HW310430   3.070   3.926   4.217  1.1654  1.8641 -3.3624
 2594SOL    MW410431   3.129   3.969   4.265  0.3939 -0.0277 -0.6170
 2595SOL     OW10432   3.826   0.024   4.129 -0.1758 -0.0658  0.1249
 2595SOL    HW210433   3.747   0.068   4.162 -0.2837 -0.2965  0.1798
 2595SOL    HW310434   3.815   0.024   4.034  0.7707  1.7824  0.0036
 2595SOL    MW410435   3.814   0.030   4.121 -0.0653  0.1476  0.1168
 2596SOL     OW10436   3.360   4.617   4.123 -0.0918  0.0685  0.0885
 2596SOL    HW210437   3.435   4.663   4.161 -0.2922 -1.1399  2.0500
 2596SOL    HW310438   3.363   4.530   4.163 -1.5990 -0.5230 -1.0493
 2596SOL    MW410439   3.370   4.612   4.133 -0.3171 -0.1688  0.1974
 2597SOL     OW10440   3.617   0.397   4.152  0.4475  0.0688  0.0268
 2597SOL    HW210441   3.612   0.399   4.057  0.1477  0.2685  0.0457
 2597SOL    HW310442   3.709   0.410   4.172  0.4001  0.8232 -0.2165
 2597SOL    MW410443   3.628   0.399   4.142  0.4015  0.1947 -0.0029
 2598SOL     OW10444   0.231   1.276   4.562  0.0390  0.1446 -0.2465
 2598SOL    HW210445   0.255   1.273   4.469  0.5977 -0.3138 -0.0937
 2598SOL    HW310446   0.144   1.316   4.563 -0.6593 -1.3067 -1.0936
 2598SOL    MW410447   0.223   1.281   4.549  0.0206 -0.1074 -0.3376
 2599SOL     OW10448   3.459   0.547   4.317 -0.0473 -0.2637 -0.0476
 2599SOL    HW210449   3.375   0.556   4.271  1.1211  2.9683 -1.7264
 2599SOL    HW310450   3.517   0.506   4.253  0.3758  0.0333  0.1441
 2599SOL    MW410451   3.456   0.543   4.302  0.1626  0.2019 -0.2437
 2600SOL     OW10452   3.513   1.665   4.563 -0.0945  0.3798  0.2036
 2600SOL    HW210453   3.473   1.738   4.610 -1.9394 -0.2384 -0.3645
 2600SOL    HW310454   3.542   1.703   4.480 -0.0163  0.7080  0.3824
 2600SOL    MW410455   3.512   1.680   4.558 -0.3273  0.3414  0.1526
 2601SOL     OW10456   3.581   1.163   4.179  0.1477 -0.0318  0.0245
 2601SOL    HW210457   3.518   1.234   4.196 -0.5458 -0.7467  0.5144
 2601SOL    HW310458   3.576   1.148   4.085  0.6540  0.8981 -0.1530
 2601SOL    MW410459   3.572   1.170   4.169  0.1230 -0.0036  0.0663
 2602SOL     OW10460   2.690   1.816   4.531 -0.3712  0.6337  0.0248
 2602SOL    HW210461   2.671   1.727   4.559  1.6799  0.1823  0.0537
 2602SOL    HW310462   2.743   1.853   4.601 -1.4135  1.9867  0.1373
 2602SOL    MW410463   2.694   1.809   4.544 -0.2382  0.7526  0.0434
 2603SOL     OW10464   0.892   2.529   4.548 -0.1215 -0.3035 -0.3572
 2603SOL    HW210465   0.881   2.518   4.453 -0.2773 -0.3961 -0.3289
 2603SOL    HW310466   0.978   2.490   4.567  0.1201  0.1390 -0.5341
 2603SOL    MW410467   0.902   2.522   4.538 -0.1101 -0.2570 -0.3767
 2604SOL     OW10468   0.925   0.894   4.218  0.0774  0.2407  0.3029
 2604SOL    HW210469   0.842   0.861   4.182 -0.6600  1.4470  0.8901
 2604SOL    HW310470   0.990   0.828   4.193 -1.1909 -1.0913  0.4843
 2604SOL    MW410471   0.923   0.881   4.210 -0.1872  0.2242  0.4048
 2605SOL     OW10472   3.815   1.906   4.707  0.2405  0.1281 -0.0216
 2605SOL    HW210473   3.801   1.922   4.801  1.8415 -0.5101  0.3359
 2605SOL    HW310474   3.836   1.812   4.702  1.0497  0.3538 -0.9031
 2605SOL    MW410475   3.816   1.895   4.719  0.5584  0.0737 -0.0906
 2606SOL     OW10476   1.756   1.424   4.662 -0.1209  0.7097 -0.2290
 2606SOL    HW210477   1.738   1.378   4.579  1.0950  0.5996 -0.4386
 2606SOL    HW310478   1.738   1.359   4.730  0.9530  0.1190 -0.4983
 2606SOL    MW410479   1.751   1.410   4.660  0.1812  0.6171 -0.2923
 2607SOL     OW10480   3.821   2.365   4.181 -0.0516  0.7594 -0.4113
 2607SOL    HW210481   3.844   2.326   4.097 -0.7838  0.8389 -0.6529
 2607SOL    HW310482   3.905   2.383   4.222  0.3185  1.2059 -1.3493
 2607SOL    MW410483   3.835   2.362   4.175 -0.0992  0.8287 -0.5670
 2608SOL     OW10484   4.286   3.603   4.279  0.6915 -0.1270  0.0922
 2608SOL    HW210485   4.291   3.682   4.226  1.3914 -0.7627 -0.8033
 2608SOL    HW310486   4.195   3.575   4.273  0.4147  0.6590  0.4999
 2608SOL    MW410487   4.275   3.609   4.271  0.7472 -0.1070  0.0281
 2609SOL     OW10488   3.610   2.750   4.175 -0.2390 -0.0635 -0.3190
 2609SOL    HW210489   3.596   2.664   4.214 -1.3942  0.1965 -0.1566
 2609SOL    HW310490   3.615   2.732   4.081 -0.8687 -0.2574 -0.3160
 2609SOL    MW410491   3.609   2.736   4.167 -0.4745 -0.0551 -0.2971
 2610SOL     OW10492   2.535   0.320   4.503 -0.5951 -0.1756 -0.4734
 2610SOL    HW210493   2.484   0.367   4.569 -0.5029  1.2399 -1.3884
 2610SOL    HW310494   2.491   0.340   4.420 -0.5190 -1.6723 -0.9037
 2610SOL    MW410495   2.522   0.329   4.501 -0.5729 -0.1863 -0.6509
 2611SOL     OW10496   3.835   2.918   4.133  0.4568  0.8610 -0.0657
 2611SOL    HW210497   3.761   2.857   4.128  1.2107 -0.0202 -0.6235
 2611SOL    HW310498   3.825   2.975   4.058  0.4972  0.5544 -0.3061
 2611SOL    MW410499   3.824   2.917   4.123  0.5615  0.7043 -0.1712
 2612SOL     OW10500   3.565   3.275   4.266  0.1306 -0.4250 -0.6841
 2612SOL    HW210501   3.567   3.364   4.231 -0.6547 -0.0676  0.1371
 2612SOL    HW310502   3.527   3.222   4.196  0.1138 -0.0224 -0.9835
 2612SOL    MW410503   3.560   3.280   4.252  0.0248 -0.3247 -0.6156
 2613SOL     OW10504   2.903   3.844   4.151 -0.1369  0.0812 -0.0285
 2613SOL    HW210505   2.920   3.777   4.218  0.0679 -0.4995 -0.6573
 2613SOL    HW310506   2.822   3.885   4.180  0.2836  0.2672  0.9208
 2613SOL    MW410507   2.895   3.840   4.164 -0.0544  0.0293  0.0134
 2614SOL     OW10508   3.471   3.081   4.667 -0.4148  0.0216 -0.3377
 2614SOL    HW210509   3.433   3.064   4.753 -0.6984  0.8997 -0.2846
 2614SOL    HW310510   3.430   3.017   4.609  1.1316 -1.7760  0.5256
 2614SOL    MW410511   3.460   3.071   4.671 -0.2484 -0.0997 -0.2165
 2615SOL     OW10512   3.079   3.635   4.551 -0.3218 -0.0070 -0.0555
 2615SOL    HW210513   3.172   3.627   4.572 -0.2433 -0.3330 -0.5194
 2615SOL    HW310514   3.039   3.558   4.592 -0.6647  1.0470  1.6589
 2615SOL    MW410515   3.086   3.624   4.559 -0.3569  0.0889  0.1092
 2616SOL     OW10516   4.065   4.002   4.276  0.3939  0.0308 -0.1519
 2616SOL    HW210517   4.132   3.946   4.236 -0.6133 -0.2969 -1.3902
 2616SOL    HW310518   3.983   3.956   4.260 -0.2513  0.9753  0.4092
 2616SOL    MW410519   4.063   3.988   4.269  0.1760  0.1118 -0.2413
 2617SOL     OW10520   3.362   0.027   4.562  0.0581  0.8214 -0.2556
 2617SOL    HW210521   3.358   0.105   4.618  0.9452 -0.1033  1.1255
 2617SOL    HW310522   3.306   0.048   4.488 -1.6167  1.8654  1.2611
 2617SOL    MW410523   3.354   0.040   4.560 -0.0458  0.8371  0.1264
 2618SOL     OW10524   3.784   4.447   4.264  0.0826  0.2028 -0.1326
 2618SOL    HW210525   3.796   4.535   4.227  2.3123  0.1113  0.2943
 2618SOL    HW310526   3.848   4.393   4.218 -0.4951 -0.9537  0.4112
 2618SOL    MW410527   3.794   4.451   4.253  0.3004  0.0386 -0.0048
 2619SOL     OW10528   1.143   2.415   4.570 -0.2636 -0.4355  0.0348
 2619SOL    HW210529   1.184   2.347   4.623 -0.5827 -0.7586 -0.1302
 2619SOL    HW310530   1.215   2.472   4.544 -0.3978  0.9907  2.6529
 2619SOL    MW410531   1.157   2.413   4.574 -0.3233 -0.2897  0.3586
 2620SOL     OW10532   4.103   0.388   4.133  0.2528  0.2172 -0.9049
 2620SOL    HW210533   4.030   0.431   4.177 -0.9758 -1.2317 -1.5164
 2620SOL    HW310534   4.181   0.428   4.173 -0.8456  0.4961  1.0371
 2620SOL    MW410535   4.104   0.399   4.144 -0.0544  0.0628 -0.7291
 2621SOL     OW10536   3.794   1.606   4.653  0.1338 -0.0612 -0.3334
 2621SOL    HW210537   3.703   1.618   4.626  0.2826 -0.4303 -0.9980
 2621SOL    HW310538   3.809   1.512   4.644  0.6096  0.0110 -0.2998
 2621SOL    MW410539   3.784   1.595   4.648  0.2162 -0.1005 -0.4163
 2622SOL     OW10540   4.389   3.924   4.502  0.3452 -0.3496  0.2103
 2622SOL    HW210541   4.375   3.830   4.516 -0.6519 -0.1159  0.8438
 2622SOL    HW310542   4.301   3.962   4.505  0.6585  0.4882 -1.0085
 2622SOL    MW410543   4.376   3.917   4.505  0.2551 -0.2084  0.1330
 2623SOL     OW10544   4.292   0.760   4.142  0.6625  0.1435  0.4504
 2623SOL    HW210545   4.296   0.667   4.163  0.0952 -0.0488 -0.2580
 2623SOL    HW310546   4.292   0.763   4.047 -1.1317  0.7619  0.4419
 2623SOL    MW410547   4.292   0.748   4.133  0.3514  0.1997  0.3552
 2624SOL     OW10548   4.237   0.710   4.582 -0.0227 -0.0967  0.0053
 2624SOL    HW210549   4.301   0.779   4.564  1.2659 -1.3504 -0.4093
 2624SOL    HW310550   4.289   0.629   4.578 -1.2068 -0.9796  1.8822
 2624SOL    MW410551   4.253   0.708   4.580 -0.0086 -0.3785  0.1979
 2625SOL     OW10552   4.027   1.187   4.194  0.4483  0.0389 -0.3464
 2625SOL    HW210553   4.040   1.092   4.200 -0.6799 -0.0712  0.4335
 2625SOL    HW310554   4.113   1.224   4.216  0.4320 -0.7583  1.1204
 2625SOL    MW410555   4.040   1.179   4.198  0.2980 -0.0808 -0.0501
 2626SOL     OW10556   4.264   1.552   4.159 -0.3521 -0.2191 -0.7500
 2626SOL    HW210557   4.264   1.530   4.066 -0.2806 -0.2694 -0.7389
 2626SOL    HW310558   4.342   1.606   4.170 -0.4469 -0.0828 -0.7498
 2626SOL    MW410559   4.275   1.556   4.148 -0.3548 -0.2077 -0.7486
 2627SOL     OW10560   0.011   1.680   4.225  0.1519  0.0289  0.2683
 2627SOL    HW210561   0.017   1.769   4.191  1.1237 -0.9526 -2.2624
 2627SOL    HW310562   0.095   1.640   4.202  0.1893 -1.2021  2.4393
 2627SOL    MW410563   0.023   1.686   4.218  0.2851 -0.2631  0.2213
 2628SOL     OW10564   0.308   2.075   4.517 -0.0201 -0.5950 -0.1852
 2628SOL    HW210565   0.285   2.148   4.575 -0.5263 -0.0063 -1.1136
 2628SOL    HW310566   0.278   1.997   4.564  1.2230 -0.2710  1.1622
 2628SOL    MW410567   0.301   2.075   4.531  0.0771 -0.4745 -0.1297
 2629SOL     OW10568   0.033   1.663   4.512  0.4380  0.4149  0.0696
 2629SOL    HW210569  -0.052   1.699   4.538 -0.6364 -1.7579 -0.3360
 2629SOL    HW310570   0.035   1.673   4.416  1.5631  2.3583  0.2643
 2629SOL    MW410571   0.022   1.669   4.503  0.4447  0.3847  0.0420
 2630SOL     OW10572   4.292   2.058   4.265  0.4887  0.1145  0.2026
 2630SOL    HW210573   4.305   2.077   4.358  1.7094 -2.1507  0.5282
 2630SOL    HW310574   4.211   2.008   4.261 -0.3104  1.4212 -0.1259
 2630SOL    MW410575   4.283   2.054   4.276  0.5445 -0.0119  0.2022
 2631SOL     OW10576   4.244   2.330   4.141  0.2851 -0.1627 -0.0484
 2631SOL    HW210577   4.252   2.237   4.159  1.5430  0.1759  1.1608
 2631SOL    HW310578   4.179   2.362   4.204 -2.0236 -0.6497 -2.0735
 2631SOL    MW410579   4.236   2.322   4.151  0.1464 -0.1822 -0.1559
 2632SOL     OW10580   0.450   1.160   4.166 -0.1252 -0.1243 -0.6528
 2632SOL    HW210581   0.462   1.140   4.073  0.1427  2.2186 -1.1590
 2632SOL    HW310582   0.535   1.193   4.194 -1.0806  2.1768 -0.3862
 2632SOL    MW410583   0.463   1.162   4.158 -0.2159  0.4884 -0.6843
 2633SOL     OW10584   4.031   2.720   4.200 -0.1814 -0.0528  0.1822
 2633SOL    HW210585   4.111   2.766   4.227 -0.4177  0.5629 -0.1557
 2633SOL    HW310586   3.961   2.784   4.211 -0.8353 -1.0064  1.7299
 2633SOL    MW410587   4.033   2.734   4.205 -0.2985 -0.0975  0.3424
 2634SOL     OW10588   3.345   1.419   4.520 -0.0415 -0.2960  0.4422
 2634SOL    HW210589   3.399   1.494   4.548 -1.0600  0.8349 -0.5625
 2634SOL    HW310590   3.255   1.451   4.528 -0.4559 -1.1875 -0.6654
 2634SOL    MW410591   3.340   1.433   4.525 -0.2306 -0.2644  0.1640
 2635SOL     OW10592   4.270   2.791   4.287 -0.1447 -0.1133  0.1764
 2635SOL    HW210593   4.348   2.782   4.231  0.0585  1.1331  0.2515
 2635SOL    HW310594   4.264   2.885   4.304 -2.0391 -0.1234 -0.3516
 2635SOL    MW410595   4.279   2.802   4.282 -0.3676  0.0498  0.1159
 2636SOL     OW10596   4.242   3.074   4.249  0.3393  0.1638  0.5433
 2636SOL    HW210597   4.237   3.071   4.153  1.9252 -0.1095  0.4529
 2636SOL    HW310598   4.171   3.132   4.275 -0.0651  0.2924 -0.8038
 2636SOL    MW410599   4.232   3.081   4.240  0.4954  0.1447  0.3538
 2637SOL     OW10600   4.026   3.248   4.331 -0.2899  0.0619 -0.1831
 2637SOL    HW210601   4.051   3.244   4.423  1.6293  0.0740 -0.6817
 2637SOL    HW310602   3.943   3.200   4.326  0.5141 -1.4977  1.2403
 2637SOL    MW410603   4.018   3.241   4.343  0.0691 -0.1421 -0.0610
 2638SOL     OW10604   4.035   3.510   4.228  0.0859  0.1567 -0.2866
 2638SOL    HW210605   4.030   3.419   4.257 -0.9197  0.3306  0.1174
 2638SOL    HW310606   4.042   3.504   4.133  1.6768 -0.3766 -0.1362
 2638SOL    MW410607   4.035   3.497   4.219  0.1631  0.1090 -0.2131
 2639SOL     OW10608   3.878   0.472   4.252 -0.1328 -0.1342  0.0541
 2639SOL    HW210609   3.868   0.567   4.245 -1.9472 -0.3735 -0.9016
 2639SOL    HW310610   3.865   0.454   4.345  2.2151  0.7395  0.5941
 2639SOL    MW410611   3.875   0.482   4.264 -0.0625 -0.0505 -0.0005
 2640SOL     OW10612   0.664   1.264   4.512  0.4562  0.1247 -0.1749
 2640SOL    HW210613   0.652   1.173   4.537 -0.1929  0.7124  1.7006
 2640SOL    HW310614   0.596   1.312   4.560  2.1985  1.8616  0.6402
 2640SOL    MW410615   0.654   1.258   4.522  0.6005  0.4315  0.1802
 2641SOL     OW10616   2.371   1.694   4.523  0.6127 -0.2320  0.4868
 2641SOL    HW210617   2.347   1.713   4.432  0.4945 -2.7794 -0.0546
 2641SOL    HW310618   2.291   1.714   4.572 -0.1107 -1.1557 -0.2875
 2641SOL    MW410619   2.357   1.699   4.517  0.5016 -0.6900  0.3128
 2642SOL     OW10620   0.409   0.410   4.198  0.2488 -0.3305  0.2993
 2642SOL    HW210621   0.386   0.403   4.106  1.6205  0.7542 -0.1379
 2642SOL    HW310622   0.337   0.460   4.237  0.8319  1.2865 -0.6658
 2642SOL    MW410623   0.396   0.416   4.191  0.5067  0.0259  0.1144
 2643SOL     OW10624   2.634   4.257   4.188 -0.1990 -0.1065 -0.3418
 2643SOL    HW210625   2.644   4.267   4.093  0.6534 -0.3189 -0.2776
 2643SOL    HW310626   2.719   4.283   4.224 -0.5024 -0.0777  0.3642
 2643SOL    MW410627   2.647   4.262   4.180 -0.1266 -0.1307 -0.2398
 2644SOL     OW10628   4.274   3.850   4.147 -0.3373 -0.3577  0.1867
 2644SOL    HW210629   4.277   3.877   4.055 -0.0026 -1.0991 -0.0142
 2644SOL    HW310630   4.352   3.888   4.187  1.2481 -2.7506 -0.5626
 2644SOL    MW410631   4.284   3.859   4.140 -0.0844 -0.7713  0.0615
 2645SOL     OW10632   1.990   4.286   4.517  0.2407  0.0840 -0.4735
 2645SOL    HW210633   1.985   4.319   4.427  0.2172 -0.8171 -0.8053
 2645SOL    HW310634   2.072   4.237   4.520  0.6774  0.8501  0.2513
 2645SOL    MW410635   2.000   4.284   4.506  0.2952  0.0668 -0.4210
 2646SOL     OW10636   0.765   3.051   4.729  0.2057 -0.2809 -0.4661
 2646SOL    HW210637   0.796   2.978   4.676  0.3965  0.5703 -1.5417
 2646SOL    HW310638   0.672   3.032   4.744  0.0234 -0.2674 -1.5353
 2646SOL    MW410639   0.757   3.039   4.724  0.2068 -0.1667 -0.7482
 2647SOL     OW10640   1.313   2.988   4.664 -0.5848 -0.1525 -0.1713
 2647SOL    HW210641   1.314   3.067   4.611 -2.0265 -0.2017 -0.2866
 2647SOL    HW310642   1.245   3.003   4.730 -0.1093 -0.8491  0.4927
 2647SOL    MW410643   1.304   3.000   4.666 -0.7123 -0.2508 -0.0987
 2648SOL     OW10644   0.257   1.087   4.771  0.3174  0.4032  0.3481
 2648SOL    HW210645   0.260   1.146   4.696 -0.2901  0.9872  0.7738
 2648SOL    HW310646   0.346   1.088   4.807  0.8300 -0.5476 -0.8651
 2648SOL    MW410647   0.269   1.095   4.766  0.3049  0.3549  0.2441
 2649SOL     OW10648   4.442   0.904   4.550 -0.0326  0.1538  0.0159
 2649SOL    HW210649   4.438   0.986   4.599 -0.7014 -0.1142  0.4252
 2649SOL    HW310650   4.464   0.930   4.461 -0.4130  0.7945  0.1056
 2649SOL    MW410651   4.444   0.918   4.545 -0.1707  0.2030  0.0815
 2650SOL     OW10652   4.482   1.399   4.579 -0.0695  0.6390 -0.3194
 2650SOL    HW210653   4.386   1.400   4.581 -0.0611  0.7985  0.0305
 2650SOL    HW310654   4.506   1.481   4.535 -0.0937  0.5898 -0.4251
 2650SOL    MW410655   4.472   1.410   4.574 -0.0715  0.6535 -0.2875
 2651SOL     OW10656   2.022   2.067   4.292 -0.1506 -0.4878  0.7852
 2651SOL    HW210657   2.086   2.019   4.241  0.3727 -0.2730  1.2406
 2651SOL    HW310658   2.025   2.156   4.258  0.9491 -0.0900  1.8820
 2651SOL    MW410659   2.031   2.072   4.281  0.0637 -0.4070  0.9899
 2652SOL     OW10660   0.016   1.936   4.148 -0.2611  0.3429 -0.1582
 2652SOL    HW210661  -0.064   1.965   4.191  0.1671  1.0639  0.1479
 2652SOL    HW310662   0.087   1.971   4.201  0.3109  3.4430 -2.8228
 2652SOL    MW410663   0.015   1.944   4.160 -0.1291  0.8471 -0.4692
 2653SOL     OW10664   0.621   1.012   4.624 -0.1063 -0.2336 -0.1631
 2653SOL    HW210665   0.573   0.930   4.611 -0.9071  0.3712 -1.0603
 2653SOL    HW310666   0.595   1.040   4.712 -2.0812  0.5270 -0.9665
 2653SOL    MW410667   0.611   1.005   4.634 -0.4725 -0.0533 -0.3872
 2654SOL     OW10668   0.611   2.053   4.490 -0.1458 -0.1886 -0.3593
 2654SOL    HW210669   0.519   2.058   4.518  0.0170 -0.7254  0.2904
 2654SOL    HW310670   0.645   2.141   4.504 -1.1871  0.6683 -2.8551
 2654SOL    MW410671   0.603   2.065   4.495 -0.2617 -0.1462 -0.6032
 2655SOL     OW10672   2.716   3.383   4.507  0.2637  0.1090 -0.1803
 2655SOL    HW210673   2.713   3.477   4.489  0.3041 -0.0294 -0.9189
 2655SOL    HW310674   2.642   3.368   4.566  0.9902  0.8099  0.9492
 2655SOL    MW410675   2.706   3.394   4.513  0.3648  0.1831 -0.1283
 2656SOL     OW10676   2.347   1.805   4.963 -0.2631 -0.1042  0.1957
 2656SOL    HW210677   2.348   1.899   4.983  0.0395  0.0414 -0.5093
 2656SOL    HW310678   2.346   1.763   5.049 -0.0771  0.5402  0.5182
 2656SOL    MW410679   2.347   1.812   4.977 -0.1984  0.0000  0.1459
 2657SOL     OW10680   1.384   0.804   4.495 -0.2787  0.2725 -0.1238
 2657SOL    HW210681   1.404   0.833   4.406  0.3170  0.8879  0.2045
 2657SOL    HW310682   1.469   0.801   4.539 -0.7063  1.1673  0.7786
 2657SOL    MW410683   1.398   0.807   4.489 -0.2565  0.4718  0.0381
 2658SOL     OW10684   3.579   3.733   4.638  0.3000 -0.2096 -0.0994
 2658SOL    HW210685   3.584   3.828   4.641  1.0812 -0.2338 -0.4578
 2658SOL    HW310686   3.670   3.704   4.626  0.2288 -1.0435  1.2740
 2658SOL    MW410687   3.592   3.741   4.637  0.3936 -0.3228  0.0348
 2659SOL     OW10688   3.793   1.287   4.291  0.1234  0.2944  0.0748
 2659SOL    HW210689   3.873   1.239   4.272  0.3649  0.9909 -0.6779
 2659SOL    HW310690   3.723   1.235   4.251  0.3744  0.5161 -0.6603
 2659SOL    MW410691   3.794   1.274   4.283  0.1884  0.4156 -0.1216
 2660SOL     OW10692   4.481   2.449   4.259 -0.3798  0.1025  0.0177
 2660SOL    HW210693   4.548   2.391   4.221 -0.5978 -1.6955  2.3058
 2660SOL    HW310694   4.400   2.425   4.212 -0.3205 -0.9454  0.4274
 2660SOL    MW410695   4.479   2.438   4.248 -0.4015 -0.2730  0.3734
 2661SOL     OW10696   2.202   1.741   4.733  0.3767  0.2285  1.0973
 2661SOL    HW210697   2.128   1.681   4.738  0.1821  0.1828 -1.3818
 2661SOL    HW310698   2.246   1.733   4.817 -1.7891 -0.5855  2.1723
 2661SOL    MW410699   2.198   1.732   4.745  0.0653  0.1149  0.9117
 2662SOL     OW10700   2.639   1.046   4.404 -0.0269 -0.1688 -0.0749
 2662SOL    HW210701   2.719   1.071   4.451  0.4424 -2.1247  0.2406
 2662SOL    HW310702   2.615   1.124   4.354  2.5590  0.2130 -0.8201
 2662SOL    MW410703   2.647   1.060   4.404  0.3762 -0.3765 -0.1311
 2663SOL     OW10704   1.701   2.512   4.533  0.1882  0.6669 -0.3248
 2663SOL    HW210705   1.652   2.444   4.580 -0.2235  0.6162 -0.8167
 2663SOL    HW310706   1.791   2.502   4.563  0.3589 -0.9081 -1.3286
 2663SOL    MW410707   1.706   2.502   4.544  0.1564  0.4523 -0.5221
 2664SOL     OW10708   1.857   1.704   4.537  0.1269 -0.0099 -0.0038
 2664SOL    HW210709   1.914   1.648   4.590  1.5673 -0.1995 -1.6856
 2664SOL    HW310710   1.889   1.793   4.553 -0.8018  0.1442  1.0483
 2664SOL    MW410711   1.869   1.708   4.546  0.1945 -0.0145 -0.0868
 2665SOL     OW10712   2.324   1.696   4.252  0.3174  0.1904  0.4436
 2665SOL    HW210713   2.391   1.635   4.223  0.2191  0.0666  0.4748
 2665SOL    HW310714   2.241   1.652   4.230  0.2420  1.0466 -1.0855
 2665SOL    MW410715   2.322   1.682   4.245  0.2947  0.2868  0.2456
 2666SOL     OW10716   0.195   1.847   4.639 -0.5183 -0.0963  0.1595
 2666SOL    HW210717   0.194   1.811   4.727 -0.1033  0.5282  0.4170
 2666SOL    HW310718   0.127   1.798   4.593 -1.6619  0.5152  1.1921
 2666SOL    MW410719   0.186   1.836   4.644 -0.6144  0.0668  0.3290
 2667SOL     OW10720   2.218   0.011   4.595  0.3484  0.4727  0.1729
 2667SOL    HW210721   2.212   0.052   4.509  0.6685  1.1716  0.4806
 2667SOL    HW310722   2.312   0.008   4.613  0.4393 -1.8646 -0.5444
 2667SOL    MW410723   2.229   0.016   4.586  0.4025  0.2565  0.1192
 2668SOL     OW10724   3.597   4.276   4.159 -0.1376 -0.1825 -0.1981
 2668SOL    HW210725   3.658   4.338   4.199 -1.0977  0.6325 -0.0063
 2668SOL    HW310726   3.601   4.199   4.215  1.2359 -0.4062 -0.5656
 2668SOL    MW410727   3.606   4.274   4.172 -0.0830 -0.1044 -0.2213
 2669SOL     OW10728   2.457   0.005   4.213 -0.8158  0.0768 -0.4818
 2669SOL    HW210729   2.540   0.031   4.254 -1.3781  0.3042  0.5468
 2669SOL    HW310730   2.454  -0.090   4.223  0.5170 -0.2615 -2.8513
 2669SOL    MW410731   2.468  -0.004   4.220 -0.7138  0.0625 -0.6585
 2670SOL     OW10732   3.051   1.477   4.528  0.0166  0.1769 -0.5141
 2670SOL    HW210733   3.045   1.563   4.569  0.9252 -0.5924  1.2819
 2670SOL    HW310734   2.982   1.425   4.570  0.2789 -0.3347 -0.7050
 2670SOL    MW410735   3.041   1.481   4.539  0.1712  0.0079 -0.3023
 2671SOL     OW10736   1.239   4.613   4.569  0.5365 -0.0682 -0.1502
 2671SOL    HW210737   1.191   4.679   4.518  0.2045 -0.3563 -0.2113
 2671SOL    HW310738   1.188   4.533   4.558  0.7551 -0.2552  0.2038
 2671SOL    MW410739   1.226   4.611   4.561  0.5215 -0.1311 -0.1116
 2672SOL     OW10740   4.041   2.447   4.305 -0.0862 -0.0758 -0.1341
 2672SOL    HW210741   3.994   2.437   4.387  1.5116  0.0178  0.8214
 2672SOL    HW310742   4.042   2.541   4.288  1.1149  0.0783  0.6904
 2672SOL    MW410743   4.035   2.458   4.313  0.2828 -0.0432  0.1006
 2673SOL     OW10744   2.435   1.293   4.541  0.1347  0.6173 -0.0819
 2673SOL    HW210745   2.443   1.255   4.454  1.1772 -1.0978  0.7392
 2673SOL    HW310746   2.485   1.374   4.536  2.0294 -0.5219 -0.5009
 2673SOL    MW410747   2.443   1.298   4.529  0.5224  0.2407 -0.0286
 2674SOL     OW10748   3.058   0.377   4.555 -0.2631  0.2130 -0.0252
 2674SOL    HW210749   3.046   0.465   4.519  0.6500 -0.0953 -1.1013
 2674SOL    HW310750   2.975   0.333   4.537 -0.6772  0.8110  0.4003
 2674SOL    MW410751   3.045   0.383   4.548 -0.1974  0.2513 -0.1111
 2675SOL     OW10752   0.607   3.640   4.273  0.6565 -0.4166  0.1301
 2675SOL    HW210753   0.692   3.600   4.253  0.1680 -0.8907 -1.0413
 2675SOL    HW310754   0.543   3.578   4.238 -0.1318  0.7476 -0.4972
 2675SOL    MW410755   0.610   3.626   4.266  0.4881 -0.3254 -0.1078
 2676SOL     OW10756   1.104   1.843   4.540  0.2566 -0.0304 -0.4381
 2676SOL    HW210757   1.092   1.893   4.459  1.1103 -0.2399 -0.7040
 2676SOL    HW310758   1.187   1.797   4.527  0.1005 -0.5353  0.3152
 2676SOL    MW410759   1.113   1.843   4.527  0.3487 -0.1246 -0.3738
 2677SOL     OW10760   1.586   1.280   4.173 -0.3183 -0.3707 -0.7134
 2677SOL    HW210761   1.592   1.276   4.269 -0.4816  0.5623 -0.6526
 2677SOL    HW310762   1.507   1.231   4.152 -0.6493 -0.0184 -0.3116
 2677SOL    MW410763   1.577   1.273   4.183 -0.3836 -0.2011 -0.6518
 2678SOL     OW10764   1.677   3.240   4.556 -0.2567  0.2037  0.2112
 2678SOL    HW210765   1.620   3.316   4.566 -3.9880 -2.3848 -0.2828
 2678SOL    HW310766   1.676   3.222   4.462  0.3662 -0.6624  0.3639
 2678SOL    MW410767   1.670   3.248   4.545 -0.6670 -0.2520  0.1664
 2679SOL     OW10768   0.123   3.320   4.705  0.0128  0.3370  0.2799
 2679SOL    HW210769   0.058   3.255   4.678 -0.1865  1.1197 -1.1456
 2679SOL    HW310770   0.099   3.341   4.796 -0.1884 -1.2395  0.6025
 2679SOL    MW410771   0.111   3.314   4.714 -0.0401  0.2322  0.1345
 2680SOL     OW10772   0.607   0.578   4.526  0.4487  0.1616 -0.5037
 2680SOL    HW210773   0.560   0.510   4.575 -1.6896  1.7984 -0.2418
 2680SOL    HW310774   0.552   0.655   4.533  2.8684  1.9564 -0.7946
 2680SOL    MW410775   0.593   0.579   4.534  0.4858  0.6143 -0.5074
 2681SOL     OW10776   3.249   2.660   4.917 -0.0255 -0.2113 -0.4664
 2681SOL    HW210777   3.275   2.573   4.949  1.2323  0.4173  0.2655
 2681SOL    HW310778   3.176   2.643   4.858 -0.1442 -1.7217  0.0972
 2681SOL    MW410779   3.243   2.646   4.913  0.1249 -0.3273 -0.2956
 2682SOL     OW10780   2.902   4.327   4.254 -0.4840 -0.0486  0.2237
 2682SOL    HW210781   2.913   4.343   4.348  1.1483  3.5111 -0.4825
 2682SOL    HW310782   2.984   4.286   4.228 -1.6664 -2.7711  0.6316
 2682SOL    MW410783   2.914   4.324   4.263 -0.4246  0.0615  0.1850
 2683SOL     OW10784   4.467   4.226   4.155  0.2252  0.0937 -0.2325
 2683SOL    HW210785   4.462   4.228   4.059  0.4429  1.2809 -0.2347
 2683SOL    HW310786   4.492   4.137   4.176 -1.1432 -0.5353 -1.2143
 2683SOL    MW410787   4.470   4.215   4.145  0.0739  0.1674 -0.3619
 2684SOL     OW10788   2.027   2.338   4.222  0.1351 -0.0210  0.2827
 2684SOL    HW210789   2.037   2.338   4.127  1.2256  0.3311  0.3880
 2684SOL    HW310790   1.947   2.389   4.237 -0.6861 -1.0588 -0.4931
 2684SOL    MW410791   2.018   2.345   4.211  0.1707 -0.1116  0.1941
 2685SOL     OW10792   3.437   2.094   4.512  0.0294 -0.3691  0.2813
 2685SOL    HW210793   3.527   2.125   4.523 -0.2272  0.4944  0.0231
 2685SOL    HW310794   3.433   2.064   4.421 -0.3492  1.0283 -0.1859
 2685SOL    MW410795   3.448   2.094   4.501 -0.0544 -0.0708  0.1855
 2686SOL     OW10796   0.650   3.893   4.156 -0.3449 -0.0124  0.0130
 2686SOL    HW210797   0.619   3.805   4.179 -1.2556  0.3181  0.0625
 2686SOL    HW310798   0.593   3.952   4.205  0.2418  0.6117 -0.0537
 2686SOL    MW410799   0.639   3.889   4.166 -0.3877  0.1135  0.0110
 2687SOL     OW10800   0.029   4.449   4.496  0.0007 -0.1902  0.1579
 2687SOL    HW210801   0.045   4.540   4.522 -1.5409 -0.1283  0.9711
 2687SOL    HW310802   0.083   4.435   4.419  1.0702  1.0928  0.6672
 2687SOL    MW410803   0.038   4.459   4.490 -0.0616 -0.0129  0.3324
 2688SOL     OW10804   4.480   0.125   4.229 -0.1182  0.1027 -0.4367
 2688SOL    HW210805   4.399   0.086   4.197 -0.4421 -0.1797  0.6926
 2688SOL    HW310806   4.549   0.076   4.186 -0.5384  0.3734 -1.4402
 2688SOL    MW410807   4.478   0.114   4.220 -0.2165  0.1011 -0.4206
 2689SOL     OW10808   2.816   2.406   5.109  0.0677  0.4984  0.2624
 2689SOL    HW210809   2.846   2.415   5.019  0.1605  0.6919  0.3115
 2689SOL    HW310810   2.744   2.343   5.105 -0.7739  1.4741 -0.1414
 2689SOL    MW410811   2.811   2.399   5.097 -0.0310  0.6528  0.2160
 2690SOL     OW10812   0.297   3.927   4.466  0.1879 -0.1074 -0.3969
 2690SOL    HW210813   0.302   3.857   4.531  0.3769  0.9608  0.7413
 2690SOL    HW310814   0.242   3.994   4.506  0.9497  0.9055 -1.0036
 2690SOL    MW410815   0.290   3.927   4.480  0.3134  0.1671 -0.3266
 2691SOL     OW10816   1.292   2.023   4.649 -0.0369 -0.1538 -0.3737
 2691SOL    HW210817   1.335   2.021   4.563  2.2504 -1.6290  0.7226
 2691SOL    HW310818   1.221   1.960   4.641  0.0948 -0.2095 -1.2196
 2691SOL    MW410819   1.288   2.014   4.636  0.2823 -0.3557 -0.3409
 2692SOL     OW10820   1.359   3.454   4.168  0.0890  0.5423  0.0294
 2692SOL    HW210821   1.375   3.459   4.074  0.7640 -0.8026  0.0655
 2692SOL    HW310822   1.419   3.518   4.206 -0.8975  1.8162 -0.5143
 2692SOL    MW410823   1.369   3.463   4.161  0.0479  0.5331 -0.0372
 2693SOL     OW10824   4.045   1.981   4.580  0.4936 -0.3485 -0.3231
 2693SOL    HW210825   4.046   1.938   4.495 -0.8681  0.6548 -0.8739
 2693SOL    HW310826   3.980   1.933   4.631  0.7472 -0.4705 -0.1148
 2693SOL    MW410827   4.037   1.969   4.576  0.3476 -0.2323 -0.3681
 2694SOL     OW10828   2.004   1.513   4.687 -0.0608 -0.5267  0.0793
 2694SOL    HW210829   2.066   1.458   4.640  0.0396  0.2592 -0.7221
 2694SOL    HW310830   1.922   1.463   4.686  0.6478 -1.7658  1.5338
 2694SOL    MW410831   2.001   1.499   4.681  0.0460 -0.5865  0.1655
 2695SOL     OW10832   1.745   4.257   4.163  0.2163 -0.1159 -0.3254
 2695SOL    HW210833   1.743   4.246   4.068 -1.8200  0.2593 -0.3475
 2695SOL    HW310834   1.733   4.169   4.198 -0.4889 -0.0756 -0.4439
 2695SOL    MW410835   1.743   4.244   4.155 -0.1453 -0.0610 -0.3438
 2696SOL     OW10836   0.488   1.629   4.665 -0.2262  0.2161 -0.1121
 2696SOL    HW210837   0.554   1.668   4.607 -1.7531  0.1256 -1.9664
 2696SOL    HW310838   0.421   1.697   4.674 -0.3395 -0.0420  0.9754
 2696SOL    MW410839   0.488   1.643   4.659 -0.4426  0.1700 -0.2131
 2697SOL     OW10840   4.253   4.336   4.536  0.1478  0.4195  0.0770
 2697SOL    HW210841   4.345   4.359   4.529  0.0364  0.0345 -3.2697
 2697SOL    HW310842   4.207   4.420   4.531  0.2386  0.4549 -0.1744
 2697SOL    MW410843   4.259   4.350   4.535  0.1450  0.3729 -0.3982
 2698SOL     OW10844   0.474   1.352   4.699  0.4664  0.1191  0.2606
 2698SOL    HW210845   0.487   1.446   4.688 -0.3789  0.4127  1.6259
 2698SOL    HW310846   0.391   1.333   4.654 -0.0151  0.2646  1.0789
 2698SOL    MW410847   0.465   1.362   4.692  0.2913  0.1770  0.5488
 2699SOL     OW10848   0.458   1.889   3.849 -0.3279 -0.6537  0.3240
 2699SOL    HW210849   0.448   1.805   3.805  0.4563 -0.6368  0.1141
 2699SOL    HW310850   0.372   1.931   3.841 -0.6121 -1.2789  0.1182
 2699SOL    MW410851   0.445   1.883   3.842 -0.2620 -0.7339  0.2692
 2700SOL     OW10852   3.616   4.005   4.320  0.3016 -0.4266  0.3457
 2700SOL    HW210853   3.616   3.993   4.415 -1.2998 -0.6655  0.3194
 2700SOL    HW310854   3.536   3.962   4.290  0.7495 -0.2776 -1.1091
 2700SOL    MW410855   3.606   3.998   4.329  0.1495 -0.4389  0.1502
 2701SOL     OW10856   2.673   3.650   4.420  0.3663 -0.1568  0.1927
 2701SOL    HW210857   2.650   3.712   4.489 -1.6988  0.8441 -1.3368
 2701SOL    HW310858   2.759   3.679   4.390  0.0262  1.1326  0.4160
 2701SOL    MW410859   2.681   3.662   4.425  0.0491  0.1454  0.0205
 2702SOL     OW10860   1.419   1.241   4.640  0.3951 -0.3026 -0.1078
 2702SOL    HW210861   1.461   1.222   4.724  0.2491 -1.5737 -0.3134
 2702SOL    HW310862   1.358   1.169   4.627 -0.9117  0.8411 -0.4397
 2702SOL    MW410863   1.417   1.229   4.650  0.2035 -0.3195 -0.1788
 2703SOL     OW10864   3.095   0.406   4.140  0.4357  0.2412  0.3815
 2703SOL    HW210865   3.127   0.376   4.225  0.7908 -0.9418 -0.1699
 2703SOL    HW310866   3.000   0.407   4.150  0.4548 -0.3260  0.6467
 2703SOL    MW410867   3.087   0.403   4.153  0.4852  0.0103  0.3443
 2704SOL     OW10868   3.197   2.238   4.586  0.6744 -0.0841 -0.0531
 2704SOL    HW210869   3.278   2.198   4.552 -0.7441 -1.0140 -2.4526
 2704SOL    HW310870   3.211   2.332   4.574  1.5093 -0.2226 -0.2378
 2704SOL    MW410871   3.210   2.245   4.580  0.5975 -0.2248 -0.3943
 2705SOL     OW10872   4.050   1.930   4.215  0.3248  0.0792 -0.0796
 2705SOL    HW210873   3.966   1.974   4.227 -0.6122 -1.3074 -1.3921
 2705SOL    HW310874   4.032   1.837   4.232  1.7878 -0.1318  0.4781
 2705SOL    MW410875   4.037   1.923   4.219  0.3943 -0.1316 -0.1793
 2706SOL     OW10876   3.853   3.671   4.592  0.1862 -0.5963 -0.2398
 2706SOL    HW210877   3.926   3.612   4.610  0.5783 -0.0543 -0.0649
 2706SOL    HW310878   3.891   3.758   4.596 -0.9246 -0.1774  2.2091
 2706SOL    MW410879   3.868   3.674   4.595  0.0916 -0.4697  0.1063
 2707SOL     OW10880   1.150   2.847   4.484 -0.4315 -0.0381  0.4307
 2707SOL    HW210881   1.196   2.763   4.476  0.1816  0.3560 -0.3442
 2707SOL    HW310882   1.194   2.891   4.556  1.3062  0.8635 -1.1242
 2707SOL    MW410883   1.162   2.842   4.492 -0.1214  0.1330  0.1235
 2708SOL     OW10884   4.081   4.553   4.518  0.0811  0.0906  0.2424
 2708SOL    HW210885   4.078   4.648   4.507 -1.8370 -0.1802 -2.1238
 2708SOL    HW310886   3.989   4.527   4.526  0.5460 -1.6106  0.3104
 2708SOL    MW410887   4.068   4.562   4.518 -0.1111 -0.1693 -0.0606
 2709SOL     OW10888   0.632   2.746   4.448 -0.2669 -0.4227  0.2396
 2709SOL    HW210889   0.718   2.755   4.488 -0.3249  0.4137  0.1782
 2709SOL    HW310890   0.646   2.769   4.356  0.0691 -3.2745 -0.4645
 2709SOL    MW410891   0.645   2.750   4.441 -0.2301 -0.6883  0.1388
 2710SOL     OW10892   1.588   1.664   4.623  0.6064  0.1439  0.1306
 2710SOL    HW210893   1.680   1.679   4.600  0.7492 -1.4671 -0.4338
 2710SOL    HW310894   1.583   1.570   4.638 -0.7412  0.3734  1.1629
 2710SOL    MW410895   1.600   1.654   4.621  0.4474 -0.0384  0.1926
 2711SOL     OW10896   0.031   0.077   4.500  0.2369  0.5039  0.3136
 2711SOL    HW210897  -0.041   0.113   4.552  1.2782  1.7731  0.8790
 2711SOL    HW310898   0.019   0.116   4.413  0.3300  0.8465  0.4522
 2711SOL    MW410899   0.020   0.087   4.495  0.3866  0.7166  0.4067
 2712SOL     OW10900   0.902   2.790   4.609 -0.0314 -0.2861 -0.3353
 2712SOL    HW210901   0.989   2.821   4.583  0.9443 -0.9741  1.9159
 2712SOL    HW310902   0.905   2.695   4.596 -0.3573 -0.3325 -0.0833
 2712SOL    MW410903   0.914   2.782   4.604  0.0544 -0.3829 -0.0048
 2713SOL     OW10904   3.656   3.990   4.622 -0.1681  0.0913 -0.1924
 2713SOL    HW210905   3.750   3.979   4.637  0.1098  0.2759 -1.7254
 2713SOL    HW310906   3.644   4.085   4.614 -0.4891  0.0692  0.0462
 2713SOL    MW410907   3.667   4.001   4.623 -0.1740  0.1125 -0.3629
 2714SOL     OW10908   1.050   3.347   4.675 -0.6720 -0.1894  0.0882
 2714SOL    HW210909   1.053   3.435   4.714 -3.6213 -0.1684  0.3826
 2714SOL    HW310910   0.961   3.340   4.639 -0.1958 -2.7535 -0.6694
 2714SOL    MW410911   1.038   3.358   4.675 -0.9984 -0.5250  0.0267
 2715SOL     OW10912   3.087   1.325   4.286  0.0300  0.2700  0.0838
 2715SOL    HW210913   3.078   1.376   4.367 -0.2081  1.5622 -0.7389
 2715SOL    HW310914   3.181   1.324   4.268  0.1358 -0.4866  0.6664
 2715SOL    MW410915   3.098   1.332   4.294  0.0124  0.3407  0.0525
 2716SOL     OW10916   1.347   0.376   4.114 -0.2238  0.0543  0.1154
 2716SOL    HW210917   1.428   0.423   4.134 -0.1472  1.2941 -2.8520
 2716SOL    HW310918   1.278   0.434   4.147  0.0168 -0.4377  1.5429
 2716SOL    MW410919   1.348   0.390   4.121 -0.1819  0.1529 -0.0877
 2717SOL     OW10920   3.403   3.322   4.515  0.1523  0.2081  0.1712
 2717SOL    HW210921   3.450   3.268   4.578 -0.3899  0.5080  0.8352
 2717SOL    HW310922   3.458   3.320   4.436  0.5057 -0.6950  0.4352
 2717SOL    MW410923   3.416   3.314   4.513  0.1276  0.1285  0.2942
 2718SOL     OW10924   1.283   3.245   4.556  0.1514  0.5789  0.3242
 2718SOL    HW210925   1.360   3.296   4.581 -0.3381  1.2827  0.3990
 2718SOL    HW310926   1.209   3.291   4.596 -0.4654  0.7807 -1.0195
 2718SOL    MW410927   1.283   3.257   4.564  0.0056  0.6986  0.1569
 2719SOL     OW10928   2.199   0.859   4.535  0.2800  0.7302 -0.3322
 2719SOL    HW210929   2.193   0.766   4.557 -0.7612  0.8589 -0.0459
 2719SOL    HW310930   2.289   0.871   4.507  0.3753 -0.4033 -0.5342
 2719SOL    MW410931   2.210   0.849   4.534  0.1552  0.5976 -0.3209
 2720SOL     OW10932   2.951   2.101   4.221  0.5854  0.4984 -0.3132
 2720SOL    HW210933   2.970   2.077   4.312  1.1881  0.2453 -0.5034
 2720SOL    HW310934   2.882   2.040   4.194  0.8774  0.1401 -0.2406
 2720SOL    MW410935   2.944   2.090   4.230  0.7036  0.4179 -0.3285
 2721SOL     OW10936   1.351   0.558   4.597 -0.0495 -0.5581 -0.1982
 2721SOL    HW210937   1.434   0.535   4.555  0.9190  1.4312  0.5888
 2721SOL    HW310938   1.330   0.645   4.564 -0.8470 -0.2546  1.0631
 2721SOL    MW410939   1.359   0.566   4.587 -0.0271 -0.2555  0.0725
 2722SOL     OW10940   2.614   0.664   4.571  0.2799  0.2865  0.5819
 2722SOL    HW210941   2.685   0.715   4.609  0.6104  0.4408 -0.2259
 2722SOL    HW310942   2.656   0.607   4.506  0.0464 -1.7035  2.1086
 2722SOL    MW410943   2.629   0.663   4.568  0.2928  0.0444  0.6762
 2723SOL     OW10944   2.530   1.229   4.243  0.0902 -0.0131  0.3850
 2723SOL    HW210945   2.583   1.181   4.181 -0.6860 -0.2794 -0.0802
 2723SOL    HW310946   2.528   1.319   4.209  0.0171 -0.0632  0.2583
 2723SOL    MW410947   2.537   1.235   4.230 -0.0222 -0.0547  0.3066
 2724SOL     OW10948   3.377   2.867   4.257  0.0180 -0.1357  0.1397
 2724SOL    HW210949   3.462   2.828   4.236  0.0703 -0.8955  1.7627
 2724SOL    HW310950   3.314   2.816   4.207  0.5519  0.8896 -1.6555
 2724SOL    MW410951   3.380   2.855   4.248  0.0951 -0.1004  0.1168
 2725SOL     OW10952   0.000   2.637   4.793 -1.0320 -0.5359  0.3979
 2725SOL    HW210953  -0.072   2.579   4.772 -0.8800  0.1773 -2.4048
 2725SOL    HW310954   0.079   2.584   4.779 -0.8999  0.2117 -1.9607
 2725SOL    MW410955   0.001   2.623   4.788 -0.9945 -0.3431 -0.2832
 2726SOL     OW10956   4.299   0.520   4.267  0.4414 -1.0011  0.0111
 2726SOL    HW210957   4.382   0.480   4.238 -0.1666 -1.5339 -1.0467
 2726SOL    HW310958   4.309   0.531   4.361  1.3278 -2.0142  0.0498
 2726SOL    MW410959   4.311   0.516   4.275  0.4783 -1.2051 -0.1225
 2727SOL     OW10960   1.388   1.768   4.466  0.0119 -0.5080 -0.4709
 2727SOL    HW210961   1.431   1.852   4.451  0.0453 -0.5498 -0.6038
 2727SOL    HW310962   1.451   1.717   4.516 -0.2120 -0.2641  0.0712
 2727SOL    MW410963   1.402   1.772   4.471 -0.0134 -0.4814 -0.4172
 2728SOL     OW10964   2.625   1.687   4.875 -0.0572 -0.0687 -0.1629
 2728SOL    HW210965   2.701   1.743   4.890 -0.2992  0.2196 -0.0072
 2728SOL    HW310966   2.551   1.740   4.904 -0.5064  0.3319 -1.9825
 2728SOL    MW410967   2.625   1.701   4.881 -0.1485  0.0221 -0.3824
 2729SOL     OW10968   4.093   3.517   4.639 -0.1278  0.4510  0.3431
 2729SOL    HW210969   4.171   3.567   4.613 -0.4343  0.2075 -1.0839
 2729SOL    HW310970   4.116   3.426   4.620 -1.6420  0.6039 -2.4080
 2729SOL    MW410971   4.106   3.511   4.633 -0.3681  0.4389 -0.2074
 2730SOL     OW10972   2.024   2.839   4.309  0.2817  0.0793 -0.4074
 2730SOL    HW210973   2.011   2.927   4.275 -1.8780  0.5970  1.6374
 2730SOL    HW310974   2.026   2.850   4.404  1.5661 -1.8773 -0.1921
 2730SOL    MW410975   2.022   2.852   4.317  0.1662 -0.1104 -0.1087
 2731SOL     OW10976   0.424   2.429   4.258  0.3282 -0.0612 -0.3530
 2731SOL    HW210977   0.445   2.517   4.225  0.5809  0.8859  2.2279
 2731SOL    HW310978   0.504   2.378   4.242 -0.5352 -0.4281 -3.7511
 2731SOL    MW410979   0.437   2.434   4.252  0.2476  0.0155 -0.4611
 2732SOL     OW10980   1.657   0.763   4.148 -0.0295 -0.2522 -0.0927
 2732SOL    HW210981   1.642   0.668   4.154 -0.0314 -0.2878 -0.6477
 2732SOL    HW310982   1.656   0.781   4.054  0.7319  0.1785 -0.0149
 2732SOL    MW410983   1.655   0.753   4.136  0.0706 -0.2001 -0.1554
 2733SOL     OW10984   3.853   0.408   4.514 -0.2915 -0.1455  0.1039
 2733SOL    HW210985   3.761   0.418   4.538 -0.4613 -0.0191 -0.6043
 2733SOL    HW310986   3.898   0.474   4.566 -0.8468  1.1698 -1.0745
 2733SOL    MW410987   3.847   0.418   4.524 -0.3872  0.0447 -0.1450
 2734SOL     OW10988   0.122   4.126   4.602  0.0493 -0.0799 -0.8394
 2734SOL    HW210989   0.031   4.094   4.601 -0.0036  0.0380 -0.2589
 2734SOL    HW310990   0.116   4.215   4.568 -0.2946  0.5103  0.7293
 2734SOL    MW410991   0.109   4.133   4.597 -0.0030  0.0134 -0.5560
 2735SOL     OW10992   2.445   3.114   4.136  0.3045 -0.1816  0.3312
 2735SOL    HW210993   2.512   3.173   4.169 -1.3188  1.4264  0.8110
 2735SOL    HW310994   2.362   3.158   4.156 -0.8233 -0.4624 -3.4157
 2735SOL    MW410995   2.443   3.127   4.143 -0.0584 -0.0067 -0.0997
 2736SOL     OW10996   3.364   2.334   4.189  0.5588  0.0971 -0.3625
 2736SOL    HW210997   3.379   2.336   4.095  2.4300 -1.9065 -0.1582
 2736SOL    HW310998   3.436   2.385   4.226 -0.2764  1.0396 -0.0135
 2736SOL    MW410999   3.376   2.341   4.182  0.6955 -0.0427 -0.2890
 2737SOL     OW11000   2.589   2.209   5.020  0.1353  0.0765  0.2178
 2737SOL    HW211001   2.642   2.203   4.940 -1.0318  0.0030 -0.5551
 2737SOL    HW311002   2.532   2.285   5.005 -0.6753 -0.4497  0.6278
 2737SOL    MW411003   2.589   2.218   5.008 -0.1256 -0.0026  0.1702
 2738SOL     OW11004   0.899   0.603   4.595 -0.1635  0.5863  0.4979
 2738SOL    HW211005   0.805   0.599   4.582 -0.2915 -0.6232  1.6869
 2738SOL    HW311006   0.921   0.696   4.584 -1.0115  0.4715 -2.6954
 2738SOL    MW411007   0.890   0.615   4.592 -0.2922  0.4116  0.2332
 2739SOL     OW11008   2.287   3.616   4.576  0.6997 -0.5931  0.1549
 2739SOL    HW211009   2.335   3.561   4.639  2.5358 -0.1274 -0.8130
 2739SOL    HW311010   2.330   3.600   4.492 -0.7726 -0.0605 -0.7139
 2739SOL    MW411011   2.299   3.607   4.573  0.7479 -0.4613 -0.0877
 2740SOL     OW11012   0.923   2.482   4.250 -0.0773  0.2238  0.0881
 2740SOL    HW211013   0.985   2.408   4.245  0.3516  0.6796 -1.5779
 2740SOL    HW311014   0.838   2.442   4.232  0.1025  0.0545 -0.4124
 2740SOL    MW411015   0.920   2.467   4.247  0.0030  0.2615 -0.1979
 2741SOL     OW11016   1.733   3.995   4.246 -0.0104  0.0174  0.2655
 2741SOL    HW211017   1.715   3.992   4.340  1.3768 -0.9152  0.5217
 2741SOL    HW311018   1.663   3.944   4.206  0.2743 -0.9270  0.9498
 2741SOL    MW411019   1.721   3.988   4.253  0.2100 -0.2301  0.3901
 2742SOL     OW11020   1.296   2.596   4.444  0.4085  0.4818  0.1177
 2742SOL    HW211021   1.296   2.597   4.348  1.3031 -0.7082  0.0865
 2742SOL    HW311022   1.380   2.634   4.469 -0.1333  1.4794  0.4581
 2742SOL    MW411023   1.307   2.601   4.435  0.4550  0.4566  0.1583
 2743SOL     OW11024   2.052   0.356   4.380 -0.0940  0.6089 -0.8436
 2743SOL    HW211025   2.114   0.283   4.386 -0.2534  0.4617 -0.9720
 2743SOL    HW311026   2.056   0.383   4.289  0.5537  1.2809 -0.6163
 2743SOL    MW411027   2.060   0.350   4.369 -0.0296  0.6782 -0.8302
 2744SOL     OW11028   2.217   0.106   4.337 -0.2375  0.0104  0.7040
 2744SOL    HW211029   2.296   0.087   4.286 -0.3437  1.2329  0.0782
 2744SOL    HW311030   2.147   0.059   4.292 -0.0631 -0.2017  0.6506
 2744SOL    MW411031   2.218   0.097   4.324 -0.2284  0.1437  0.6146
 2745SOL     OW11032   2.307   3.887   4.664  0.1156  0.2870  0.0433
 2745SOL    HW211033   2.302   3.857   4.755  2.0142 -0.0756  0.0480
 2745SOL    HW311034   2.280   3.811   4.612  0.8203 -0.1108  0.2449
 2745SOL    MW411035   2.303   3.873   4.669  0.4592  0.1864  0.0701
 2746SOL     OW11036   3.374   4.407   4.540  0.4302 -0.1391 -0.5722
 2746SOL    HW211037   3.285   4.377   4.559  0.7287 -0.8269 -0.2427
 2746SOL    HW311038   3.373   4.500   4.564 -0.1657 -0.1734 -0.4535
 2746SOL    MW411039   3.362   4.416   4.546  0.3912 -0.2346 -0.5136
 2747SOL     OW11040   0.446   3.225   4.293 -0.1319  0.0521  0.3485
 2747SOL    HW211041   0.411   3.233   4.382  1.6653  0.1245  1.0765
 2747SOL    HW311042   0.438   3.313   4.257 -1.0201 -0.0132  0.3749
 2747SOL    MW411043   0.440   3.238   4.300 -0.0120  0.0532  0.4482
 2748SOL     OW11044   1.473   2.040   4.436  0.3334  0.1260  0.2025
 2748SOL    HW211045   1.487   2.070   4.346  1.7312 -2.2829 -0.4170
 2748SOL    HW311046   1.556   2.057   4.480  0.7692 -1.7455  0.1399
 2748SOL    MW411047   1.486   2.046   4.430  0.5753 -0.4389  0.1125
 2749SOL     OW11048   3.828   1.322   4.566 -0.0318  0.2979 -0.5511
 2749SOL    HW211049   3.804   1.287   4.480  1.1898 -0.1866 -0.7123
 2749SOL    HW311050   3.912   1.280   4.586  0.2525  1.2785  0.3618
 2749SOL    MW411051   3.836   1.312   4.557  0.1669  0.3633 -0.4525
 2750SOL     OW11052   2.452   0.833   4.420  0.4033 -0.1295 -0.0669
 2750SOL    HW211053   2.519   0.901   4.416 -0.4273  0.7523  0.4963
 2750SOL    HW311054   2.489   0.765   4.476  0.4396  0.8116  1.0803
 2750SOL    MW411055   2.466   0.833   4.427  0.2987  0.1110  0.1583
 2751SOL     OW11056   0.446   4.302   4.216  0.1850 -0.2155  0.0956
 2751SOL    HW211057   0.444   4.298   4.120  3.3092  1.4039 -0.1150
 2751SOL    HW311058   0.466   4.213   4.244 -0.8898 -0.7303 -0.7285
 2751SOL    MW411059   0.448   4.290   4.207  0.4554 -0.0701 -0.0415
 2752SOL     OW11060   2.244   2.722   4.195 -0.2229 -0.0171 -0.3734
 2752SOL    HW211061   2.328   2.753   4.229 -0.3306  1.7948 -1.6754
 2752SOL    HW311062   2.179   2.759   4.255 -0.1382 -0.9173  0.2830
 2752SOL    MW411063   2.246   2.731   4.208 -0.2260  0.1032 -0.4578
 2753SOL     OW11064   3.038   2.023   4.493  0.6919  0.2045 -0.1233
 2753SOL    HW211065   2.966   2.016   4.556  0.3943  0.4440 -0.4282
 2753SOL    HW311066   3.089   2.098   4.523 -0.3315  1.3065 -1.0243
 2753SOL    MW411067   3.035   2.032   4.505  0.5176  0.3815 -0.2828
 2754SOL     OW11068   1.731   0.052   4.564  0.0718  0.0123  0.2268
 2754SOL    HW211069   1.656  -0.003   4.588  1.0690 -1.8226 -0.7786
 2754SOL    HW311070   1.808   0.000   4.588  1.0362  1.0003 -0.6680
 2754SOL    MW411071   1.731   0.038   4.571  0.3306 -0.0995 -0.0238
 2755SOL     OW11072   4.144   3.228   4.615  0.4635 -0.4772 -0.0245
 2755SOL    HW211073   4.111   3.208   4.703 -0.5215 -0.5497 -0.3982
 2755SOL    HW311074   4.239   3.218   4.622  0.3689 -0.7775  0.9562
 2755SOL    MW411075   4.152   3.224   4.628  0.3214 -0.5264  0.0548
 2756SOL     OW11076   1.770   0.701   4.807  0.1634 -0.0362 -0.0401
 2756SOL    HW211077   1.841   0.641   4.782  0.7889  1.0825 -1.0010
 2756SOL    HW311078   1.694   0.645   4.818  1.1459 -1.2399  0.8230
 2756SOL    MW411079   1.769   0.686   4.805  0.3755 -0.0474 -0.0525
 2757SOL     OW11080   4.069   0.128   4.215 -0.2626  0.8105  0.0674
 2757SOL    HW211081   3.981   0.097   4.196  0.0886  1.3538 -2.6386
 2757SOL    HW311082   4.068   0.220   4.191  0.6509  1.1954  1.4294
 2757SOL    MW411083   4.057   0.136   4.209 -0.0958  0.9330 -0.1097
 2758SOL     OW11084   3.296   2.417   5.042 -0.5551  0.2298 -0.1363
 2758SOL    HW211085   3.247   2.431   5.123 -0.8351 -0.7180 -0.1367
 2758SOL    HW311086   3.248   2.349   4.996  1.1357 -1.2471  0.2083
 2758SOL    MW411087   3.284   2.410   5.047 -0.3688 -0.0901 -0.0906
 2759SOL     OW11088   3.707   1.076   4.628 -0.1472 -0.2524  0.2451
 2759SOL    HW211089   3.749   1.162   4.618  1.0003 -1.0616 -2.3552
 2759SOL    HW311090   3.614   1.093   4.614  0.2613  0.3517 -2.0802
 2759SOL    MW411091   3.700   1.090   4.625  0.0582 -0.2794 -0.4044
 2760SOL     OW11092   3.572   0.371   4.542  0.3584 -0.2211 -0.1585
 2760SOL    HW211093   3.566   0.419   4.460  2.4599  2.9919  1.5090
 2760SOL    HW311094   3.485   0.379   4.581 -0.0241  0.0282 -1.0625
 2760SOL    MW411095   3.559   0.378   4.536  0.5851  0.2357 -0.0572
 2761SOL     OW11096   2.848   0.819   4.667 -0.3434  0.1065 -0.0878
 2761SOL    HW211097   2.896   0.820   4.750  1.2585 -0.5568 -0.9890
 2761SOL    HW311098   2.864   0.906   4.630 -0.2236  0.0489 -0.1716
 2761SOL    MW411099   2.856   0.831   4.673 -0.1166  0.0114 -0.2174
 2762SOL     OW11100   1.094   0.526   4.217 -0.1807 -0.0184  0.4083
 2762SOL    HW211101   1.112   0.507   4.309 -0.2095 -0.6195  0.2919
 2762SOL    HW311102   1.021   0.467   4.195 -0.5285  0.5047  0.1485
 2762SOL    MW411103   1.087   0.515   4.226 -0.2303 -0.0287  0.3586
 2763SOL     OW11104   3.979   4.288   4.102 -0.4042  0.0527  0.7395
 2763SOL    HW211105   4.058   4.343   4.106  0.0942 -0.6740  1.0876
 2763SOL    HW311106   4.007   4.204   4.138 -1.0677 -0.5506 -0.1394
 2763SOL    MW411107   3.993   4.284   4.107 -0.4263 -0.1230  0.6690
 2764SOL     OW11108   2.625   1.208   4.742  0.1011  0.6839 -0.4802
 2764SOL    HW211109   2.576   1.255   4.810 -0.7064 -0.4288 -0.2842
 2764SOL    HW311110   2.570   1.215   4.664 -0.5326 -0.8343 -0.1823
 2764SOL    MW411111   2.611   1.215   4.740 -0.0889  0.3369 -0.4153
 2765SOL     OW11112   1.837   0.347   4.553  0.3734  0.2307 -0.2594
 2765SOL    HW211113   1.816   0.256   4.574  1.9458 -0.1946 -0.4874
 2765SOL    HW311114   1.898   0.342   4.480  0.3375  1.4793 -0.3889
 2765SOL    MW411115   1.843   0.334   4.546  0.5763  0.3394 -0.3066
 2766SOL     OW11116   2.825   1.343   4.624 -0.4986 -0.2286  0.3837
 2766SOL    HW211117   2.775   1.422   4.603  1.0915  1.0917  1.4505
 2766SOL    HW311118   2.766   1.292   4.680 -2.5355 -1.0703 -2.4247
 2766SOL    MW411119   2.811   1.346   4.629 -0.5574 -0.1655  0.1540
 2767SOL     OW11120   1.781   1.955   4.152  0.4925  0.4259  0.1812
 2767SOL    HW211121   1.852   1.982   4.211  1.3254 -0.7269 -0.2857
 2767SOL    HW311122   1.777   1.860   4.162  0.3471  0.2770 -1.2985
 2767SOL    MW411123   1.790   1.946   4.161  0.5831  0.2542 -0.0753
 2768SOL     OW11124   3.354   2.845   4.536 -0.1064 -0.2669 -0.2652
 2768SOL    HW211125   3.370   2.857   4.442 -0.7601  1.0535 -0.2288
 2768SOL    HW311126   3.259   2.853   4.545 -0.0523 -0.4841  0.4959
 2768SOL    MW411127   3.343   2.848   4.524 -0.1855 -0.1214 -0.1607
 2769SOL     OW11128   2.754   1.931   4.157  0.3354 -0.4049 -0.2559
 2769SOL    HW211129   2.757   1.927   4.061  0.7163 -0.8661 -0.2227
 2769SOL    HW311130   2.667   1.966   4.176 -0.7108 -2.7175 -0.6895
 2769SOL    MW411131   2.743   1.935   4.147  0.2472 -0.7708 -0.3090
 2770SOL     OW11132   1.117   4.373   4.539  0.0549 -0.4493  0.1478
 2770SOL    HW211133   1.186   4.312   4.566 -0.3957 -0.6188  0.9259
 2770SOL    HW311134   1.125   4.377   4.443  2.0551  0.6254  0.3384
 2770SOL    MW411135   1.127   4.365   4.530  0.2594 -0.3300  0.2756
 2771SOL     OW11136   0.196   2.798   4.572  0.3598 -0.0080 -0.0284
 2771SOL    HW211137   0.109   2.819   4.604  0.7020 -0.0111  0.9231
 2771SOL    HW311138   0.204   2.703   4.581  0.3088 -0.0619 -0.5161
 2771SOL    MW411139   0.186   2.788   4.577  0.3982 -0.0155  0.0329
 2772SOL     OW11140   0.466   2.949   4.568  0.7404  0.1740 -0.4227
 2772SOL    HW211141   0.379   2.910   4.565  0.3936  0.9880 -0.9591
 2772SOL    HW311142   0.522   2.885   4.524  0.2575  0.0437 -0.8572
 2772SOL    MW411143   0.462   2.935   4.562  0.6309  0.2644 -0.5503
 2773SOL     OW11144   4.106   2.247   4.620  0.1262 -0.2835 -0.0689
 2773SOL    HW211145   4.070   2.160   4.601  1.5685 -0.5836 -1.5669
 2773SOL    HW311146   4.033   2.307   4.606 -0.2425 -1.0342 -1.4492
 2773SOL    MW411147   4.091   2.243   4.615  0.2680 -0.4222 -0.4492
 2774SOL     OW11148   0.358   3.217   4.558 -0.1376 -0.2475 -0.2438
 2774SOL    HW211149   0.298   3.224   4.632 -0.4615 -0.3035 -0.4998
 2774SOL    HW311150   0.406   3.135   4.573 -0.3897 -0.3944 -0.2331
 2774SOL    MW411151   0.357   3.207   4.570 -0.2137 -0.2744 -0.2761
 2775SOL     OW11152   1.536   3.602   4.303 -0.2117 -0.3399 -0.4903
 2775SOL    HW211153   1.518   3.545   4.378  0.3042 -0.4381 -0.4374
 2775SOL    HW311154   1.630   3.593   4.288 -0.1245  0.5190 -0.4715
 2775SOL    MW411155   1.546   3.593   4.311 -0.1321 -0.2396 -0.4816
 2776SOL     OW11156   3.217   2.509   4.578  0.2951 -0.1441 -0.5402
 2776SOL    HW211157   3.294   2.551   4.615 -0.3142  0.1911  0.3582
 2776SOL    HW311158   3.144   2.542   4.630 -0.5959  0.4530 -2.1308
 2776SOL    MW411159   3.217   2.519   4.590  0.0973 -0.0210 -0.6323
 2777SOL     OW11160   0.265   2.821   4.260  0.1773 -0.1397 -0.6453
 2777SOL    HW211161   0.230   2.823   4.349  0.7723 -0.6076 -0.3991
 2777SOL    HW311162   0.238   2.905   4.222 -0.0189  0.0894 -0.0045
 2777SOL    MW411163   0.257   2.833   4.267  0.2299 -0.1712 -0.5283
 2778SOL     OW11164   2.888   1.082   4.543  0.1653  0.3234 -0.3386
 2778SOL    HW211165   2.982   1.063   4.535 -0.2143 -1.3323 -1.1184
 2778SOL    HW311166   2.884   1.174   4.569  1.9797  0.6805 -1.2517
 2778SOL    MW411167   2.900   1.092   4.545  0.3545  0.1521 -0.5617
 2779SOL     OW11168   3.788   3.114   4.337  0.2014 -0.4158 -0.3406
 2779SOL    HW211169   3.782   3.039   4.279  0.0663 -0.3176 -0.4525
 2779SOL    HW311170   3.716   3.171   4.311  0.5680 -0.0422 -0.5508
 2779SOL    MW411171   3.778   3.112   4.326  0.2317 -0.3538 -0.3829
 2780SOL     OW11172   4.194   2.716   4.574  0.1923 -0.4083 -0.2064
 2780SOL    HW211173   4.133   2.787   4.561 -1.7726 -2.2685 -1.4960
 2780SOL    HW311174   4.249   2.716   4.495 -0.4898 -0.9641 -0.6837
 2780SOL    MW411175   4.193   2.725   4.562 -0.1569 -0.7272 -0.4392
 2781SOL     OW11176   2.649   3.992   4.255 -0.1252 -0.0044 -0.1766
 2781SOL    HW211177   2.575   3.950   4.212  0.3594  0.8564 -1.8985
 2781SOL    HW311178   2.645   4.083   4.226  0.8357  0.3549  0.7699
 2781SOL    MW411179   2.639   3.999   4.246  0.0658  0.1566 -0.2794
 2782SOL     OW11180   2.195   2.986   4.874 -0.1379 -0.4548  0.1445
 2782SOL    HW211181   2.218   2.897   4.900  0.2625 -0.3907  0.0033
 2782SOL    HW311182   2.250   3.042   4.928  0.0310 -0.3044 -0.1841
 2782SOL    MW411183   2.205   2.981   4.884 -0.0627 -0.4265  0.0820
 2783SOL     OW11184   3.806   4.490   4.535 -0.1001 -0.0827 -0.4140
 2783SOL    HW211185   3.750   4.566   4.548  0.1422  0.0959 -0.4159
 2783SOL    HW311186   3.801   4.472   4.441 -0.7700 -0.5416 -0.2946
 2783SOL    MW411187   3.798   4.498   4.524 -0.1564 -0.1197 -0.3986
 2784SOL     OW11188   1.774   1.023   4.473 -0.0630  0.4640 -0.1107
 2784SOL    HW211189   1.801   0.994   4.386  0.2109  1.7423 -0.4480
 2784SOL    HW311190   1.857   1.040   4.519 -0.2020 -0.3744  0.4631
 2784SOL    MW411191   1.789   1.021   4.468 -0.0453  0.5221 -0.0792
 2785SOL     OW11192   2.334   2.074   4.956  0.0127  0.2264  0.3278
 2785SOL    HW211193   2.419   2.102   4.990  0.4096 -0.4187 -0.1218
 2785SOL    HW311194   2.280   2.153   4.959  0.7827  0.7741  0.1296
 2785SOL    MW411195   2.338   2.088   4.961  0.1667  0.2136  0.2422
 2786SOL     OW11196   0.908   1.686   4.443  0.4950 -0.1297  0.2742
 2786SOL    HW211197   0.969   1.726   4.505 -0.4314 -1.4110  2.0700
 2786SOL    HW311198   0.906   1.593   4.467  1.6833 -1.0584 -3.0412
 2786SOL    MW411199   0.915   1.679   4.455  0.5296 -0.4213  0.0734
 2787SOL     OW11200   4.407   3.160   4.617 -0.6912 -0.7329  0.0337
 2787SOL    HW211201   4.425   3.159   4.523 -0.1983 -0.4723  0.1254
 2787SOL    HW311202   4.398   3.067   4.640  2.2754 -1.0277  0.3037
 2787SOL    MW411203   4.408   3.147   4.607 -0.2351 -0.7372  0.0820
 2788SOL     OW11204   4.273   2.479   4.724  0.1355 -0.0978 -0.2201
 2788SOL    HW211205   4.217   2.411   4.687  0.0768 -0.1682 -0.0047
 2788SOL    HW311206   4.232   2.561   4.699  0.3922 -0.1336 -0.7711
 2788SOL    MW411207   4.261   2.481   4.716  0.1616 -0.1121 -0.2637
 2789SOL     OW11208   3.152   1.941   4.110 -0.1640  0.0674  0.2268
 2789SOL    HW211209   3.073   1.987   4.134 -0.0745  1.4038 -1.9345
 2789SOL    HW311210   3.222   1.988   4.155 -0.2090  1.2977 -0.9537
 2789SOL    MW411211   3.151   1.953   4.119 -0.1581  0.4060 -0.2136
 2790SOL     OW11212   4.063   1.648   4.537  0.2889  0.2977 -0.1960
 2790SOL    HW211213   3.975   1.632   4.572 -0.3713  0.6369 -1.6626
 2790SOL    HW311214   4.110   1.566   4.552 -0.0813  0.3103  1.1291
 2790SOL    MW411215   4.058   1.635   4.544  0.1531  0.3440 -0.2146
 2791SOL     OW11216   3.617   0.771   4.365  0.0716 -0.2784 -0.1776
 2791SOL    HW211217   3.683   0.762   4.297  1.5267 -1.0694  1.2953
 2791SOL    HW311218   3.555   0.699   4.349 -0.2116  0.2049 -1.2983
 2791SOL    MW411219   3.617   0.760   4.354  0.2265 -0.3190 -0.1307
 2792SOL     OW11220   3.253   0.657   4.160 -0.1555  0.0664  0.6993
 2792SOL    HW211221   3.218   0.735   4.202 -2.0099  1.3690 -3.0093
 2792SOL    HW311222   3.187   0.589   4.175  0.6009 -0.3089  2.3831
 2792SOL    MW411223   3.240   0.658   4.168 -0.3004  0.1888  0.4320
 2793SOL     OW11224   3.591   0.116   4.205 -0.0007 -0.3156 -0.3921
 2793SOL    HW211225   3.587   0.121   4.300  1.3412  0.8300 -0.3871
 2793SOL    HW311226   3.579   0.206   4.175 -2.1424 -0.8972 -1.3928
 2793SOL    MW411227   3.588   0.129   4.213 -0.1061 -0.2412 -0.5236
 2794SOL     OW11228   1.123   0.442   4.483  0.3277  0.0729 -0.0107
 2794SOL    HW211229   1.197   0.474   4.534  0.2241  0.5694 -0.1693
 2794SOL    HW311230   1.046   0.469   4.533  0.2316  0.3704 -0.3191
 2794SOL    MW411231   1.123   0.450   4.497  0.3012  0.1777 -0.0720
 2795SOL     OW11232   3.438   2.634   4.686  0.2664  0.5339 -0.4827
 2795SOL    HW211233   3.409   2.716   4.645 -0.7653  0.4871  0.1377
 2795SOL    HW311234   3.405   2.639   4.776  1.8306  0.2813  0.1174
 2795SOL    MW411235   3.430   2.646   4.692  0.3366  0.4942 -0.3214
 2796SOL     OW11236   4.199   1.405   4.541  0.0134 -0.5653  0.0227
 2796SOL    HW211237   4.224   1.373   4.454  1.9451  1.6174 -0.2649
 2796SOL    HW311238   4.155   1.330   4.582 -0.4742 -1.7937 -2.6308
 2796SOL    MW411239   4.196   1.391   4.535  0.2041 -0.4393 -0.3653
 2797SOL     OW11240   3.563   2.503   4.279  0.1852 -0.4333  0.0854
 2797SOL    HW211241   3.643   2.460   4.252  0.1948  0.1389 -0.8048
 2797SOL    HW311242   3.576   2.520   4.373  1.4179  0.3274 -0.2068
 2797SOL    MW411243   3.575   2.500   4.288  0.3493 -0.2577 -0.0706
 2798SOL     OW11244   1.636   0.553   4.469 -0.4008  0.1266  0.0595
 2798SOL    HW211245   1.648   0.643   4.497 -0.8385  0.4164 -0.6817
 2798SOL    HW311246   1.707   0.505   4.512 -0.7594  0.6510  1.2446
 2798SOL    MW411247   1.647   0.558   4.478 -0.5059  0.2340  0.1173
 2799SOL     OW11248   4.347   3.653   4.546  0.4956 -0.1783 -0.5392
 2799SOL    HW211249   4.332   3.637   4.452 -0.2161 -1.2413 -0.2546
 2799SOL    HW311250   4.437   3.624   4.561  0.8766  0.7024 -1.0377
 2799SOL    MW411251   4.357   3.647   4.535  0.4520 -0.2024 -0.5670
 2800SOL     OW11252   3.882   2.417   4.546 -0.2946  0.2747 -0.3056
 2800SOL    HW211253   3.825   2.340   4.540  0.9949 -0.9733  2.5389
 2800SOL    HW311254   3.822   2.490   4.559 -1.3593 -0.8916  1.6417
 2800SOL    MW411255   3.866   2.416   4.547 -0.2651 -0.0439  0.3266
 2801SOL     OW11256   2.881   3.203   4.842 -0.8836  0.4181 -0.5919
 2801SOL    HW211257   2.935   3.174   4.915 -0.7410 -0.5303 -1.0637
 2801SOL    HW311258   2.920   3.286   4.813  0.2461 -0.2051 -0.8611
 2801SOL    MW411259   2.893   3.210   4.848 -0.7157  0.2108 -0.6900
 2802SOL     OW11260   1.963   4.545   4.624  0.2249  0.2620 -0.0908
 2802SOL    HW211261   1.985   4.457   4.591 -0.6307 -0.6317  1.6497
 2802SOL    HW311262   2.048   4.589   4.632  0.7210 -0.6119 -0.4127
 2802SOL    MW411263   1.977   4.539   4.621  0.1775  0.0281  0.0963
 2803SOL     OW11264   4.270   4.649   4.112 -0.1015  0.2674 -0.5227
 2803SOL    HW211265   4.193   4.693   4.147  0.0110  0.5370 -0.6057
 2803SOL    HW311266   4.271   4.564   4.155  0.6464  1.0103  0.9853
 2803SOL    MW411267   4.260   4.644   4.123  0.0119  0.4010 -0.3343
 2804SOL     OW11268   3.811   2.076   4.272  0.1395  0.1611  0.2923
 2804SOL    HW211269   3.739   2.029   4.230 -0.0658  0.9800 -0.2836
 2804SOL    HW311270   3.811   2.162   4.231  1.0801  0.3670  0.7039
 2804SOL    MW411271   3.802   2.081   4.261  0.2365  0.2964  0.2708
 2805SOL     OW11272   0.690   1.288   4.237  0.3541  0.0127 -0.2291
 2805SOL    HW211273   0.684   1.298   4.332  0.4887 -0.4224 -0.1751
 2805SOL    HW311274   0.670   1.375   4.203 -1.4525 -0.2311  0.1458
 2805SOL    MW411275   0.686   1.301   4.245  0.1335 -0.0769 -0.1726
 2806SOL     OW11276   1.542   4.402   4.268  0.4062  0.0387 -0.2437
 2806SOL    HW211277   1.556   4.382   4.360 -0.6533 -1.6380 -0.4242
 2806SOL    HW311278   1.604   4.345   4.221 -2.1053 -2.3928 -0.7335
 2806SOL    MW411279   1.552   4.392   4.274 -0.0651 -0.5035 -0.3324
 2807SOL     OW11280   0.452   0.800   4.542 -0.2212  0.1925  0.0428
 2807SOL    HW211281   0.361   0.814   4.567 -0.4844  1.1267 -1.3817
 2807SOL    HW311282   0.460   0.843   4.457  1.6354  0.3735  0.3051
 2807SOL    MW411283   0.441   0.807   4.534 -0.0109  0.3396 -0.1101
 2808SOL     OW11284   2.718   2.737   4.298  0.5557 -0.6975 -0.5344
 2808SOL    HW211285   2.711   2.663   4.238 -0.5708 -0.5928 -0.5474
 2808SOL    HW311286   2.643   2.793   4.276 -0.1852 -0.9197  1.3293
 2808SOL    MW411287   2.707   2.735   4.287  0.3092 -0.7131 -0.2904
 2809SOL     OW11288   2.668   4.489   4.503  0.4226 -0.2400 -0.6845
 2809SOL    HW211289   2.744   4.433   4.520  0.4950  0.4410  1.3806
 2809SOL    HW311290   2.593   4.430   4.507  0.5881 -0.3819  0.4412
 2809SOL    MW411291   2.668   4.474   4.505  0.4542 -0.1688 -0.2632
 2810SOL     OW11292   3.162   0.031   4.301 -0.3192  0.0042 -0.0467
 2810SOL    HW211293   3.225   0.004   4.234 -0.7177 -1.3559  0.0947
 2810SOL    HW311294   3.081  -0.014   4.276 -0.6345 -0.0192  1.0004
 2810SOL    MW411295   3.160   0.021   4.289 -0.4132 -0.1784  0.1101
 2811SOL     OW11296   0.916   0.914   4.524 -0.0416  0.1866 -0.1143
 2811SOL    HW211297   0.911   0.918   4.429 -0.5337 -1.3872 -0.1601
 2811SOL    HW311298   0.829   0.941   4.554 -0.7379 -1.9198 -0.1947
 2811SOL    MW411299   0.904   0.918   4.515 -0.1984 -0.2990 -0.1307
 2812SOL     OW11300   4.388   0.493   4.557 -0.5553  0.0279 -0.0279
 2812SOL    HW211301   4.370   0.400   4.567 -1.8816  0.1663 -0.9102
 2812SOL    HW311302   4.482   0.501   4.567 -0.2411 -1.6129 -1.4141
 2812SOL    MW411303   4.398   0.482   4.560 -0.6886 -0.1704 -0.3271
 2813SOL     OW11304   2.020   1.046   4.619 -0.0002  0.2523 -0.1866
 2813SOL    HW211305   2.071   1.127   4.615  0.7572 -0.1750  0.7265
 2813SOL    HW311306   2.083   0.976   4.603 -0.4275 -0.2384  0.2368
 2813SOL    MW411307   2.035   1.048   4.616  0.0432  0.1312 -0.0105
 2814SOL     OW11308   1.494   4.547   4.652 -0.2756 -0.2632 -0.2018
 2814SOL    HW211309   1.410   4.589   4.629 -0.0008 -0.1744 -1.0584
 2814SOL    HW311310   1.490   4.538   4.747 -0.6792  0.9980 -0.0825
 2814SOL    MW411311   1.482   4.551   4.661 -0.2927 -0.0854 -0.2990
 2815SOL     OW11312   0.396   0.412   4.659 -0.2878 -0.5275  0.3158
 2815SOL    HW211313   0.359   0.338   4.610 -0.6597 -0.0781 -0.0861
 2815SOL    HW311314   0.402   0.379   4.749  0.4105 -1.3572 -0.0263
 2815SOL    MW411315   0.392   0.398   4.664 -0.2448 -0.5776  0.2179
 2816SOL     OW11316   0.167   3.607   4.264 -0.1101  0.2393 -0.4849
 2816SOL    HW211317   0.097   3.554   4.226 -0.1212  0.4484 -0.7592
 2816SOL    HW311318   0.150   3.605   4.358  0.8742 -1.6577 -0.3235
 2816SOL    MW411319   0.155   3.600   4.272  0.0183  0.0165 -0.4997
 2817SOL     OW11320   3.800   1.555   4.189  0.2495 -0.5980 -0.4536
 2817SOL    HW211321   3.797   1.471   4.234  0.9965 -0.4720 -0.1505
 2817SOL    HW311322   3.890   1.586   4.203  0.3013 -0.2576 -1.4855
 2817SOL    MW411323   3.812   1.548   4.197  0.3548 -0.5364 -0.5498
 2818SOL     OW11324   1.777   0.092   4.274 -0.4220  0.0963 -0.0399
 2818SOL    HW211325   1.758   0.064   4.364  1.1964  0.0820  0.3171
 2818SOL    HW311326   1.702   0.061   4.223 -0.3642 -1.7744  0.9536
 2818SOL    MW411327   1.765   0.084   4.280 -0.2007 -0.1524  0.1383
 2819SOL     OW11328   2.741   1.683   4.262  0.4175 -0.1342  0.2886
 2819SOL    HW211329   2.753   1.764   4.212  0.4880 -0.2353  0.1431
 2819SOL    HW311330   2.765   1.707   4.352 -1.2814  0.4821  0.5905
 2819SOL    MW411331   2.746   1.697   4.267  0.2027 -0.0662  0.3090
 2820SOL     OW11332   3.417   0.994   4.347  0.1097  0.0839 -0.0538
 2820SOL    HW211333   3.484   0.925   4.344 -0.0820 -0.0772 -0.5864
 2820SOL    HW311334   3.451   1.063   4.290 -1.5155 -1.1970 -2.6572
 2820SOL    MW411335   3.430   0.994   4.339 -0.1299 -0.1065 -0.4683
 2821SOL     OW11336   2.294   3.006   4.610  0.3197 -0.5956  0.0860
 2821SOL    HW211337   2.319   2.918   4.580  0.1532 -0.3761 -0.7072
 2821SOL    HW311338   2.289   2.998   4.706 -0.0245 -1.5415 -0.0013
 2821SOL    MW411339   2.297   2.993   4.619  0.2525 -0.6912 -0.0300
 2822SOL     OW11340   2.035   1.308   4.278 -0.0919  0.1839 -0.7316
 2822SOL    HW211341   1.968   1.280   4.216 -0.1359 -1.4993  0.0261
 2822SOL    HW311342   2.032   1.403   4.276 -1.3396  0.1349 -1.9616
 2822SOL    MW411343   2.025   1.317   4.270 -0.2623 -0.0447 -0.7944
 2823SOL     OW11344   3.048   2.853   4.567 -0.1051  0.1437 -0.1221
 2823SOL    HW211345   3.019   2.779   4.620 -0.3469  0.3909  0.0935
 2823SOL    HW311346   3.045   2.928   4.627 -2.4619  0.8366 -1.0558
 2823SOL    MW411347   3.044   2.854   4.582 -0.4482  0.2677 -0.2165
 2824SOL     OW11348   4.300   1.825   4.564 -0.2561 -0.2430  0.0947
 2824SOL    HW211349   4.215   1.799   4.599 -0.1640  0.5638  0.9364
 2824SOL    HW311350   4.301   1.920   4.571  0.7056 -0.2465  0.0546
 2824SOL    MW411351   4.289   1.834   4.569 -0.1173 -0.1372  0.2003
 2825SOL     OW11352   0.039   2.735   4.159  0.7233  0.0273 -0.0608
 2825SOL    HW211353   0.021   2.646   4.191 -0.3995  1.1849  2.6365
 2825SOL    HW311354   0.125   2.756   4.194  0.7996  0.1936 -0.3425
 2825SOL    MW411355   0.048   2.726   4.168  0.5853  0.2019  0.2575
 2826SOL     OW11356   2.617   1.563   4.605 -0.5424 -0.0882 -0.5692
 2826SOL    HW211357   2.534   1.596   4.572 -1.7035 -2.8110 -0.4730
 2826SOL    HW311358   2.621   1.593   4.696 -0.9493  0.8577 -0.8582
 2826SOL    MW411359   2.607   1.571   4.612 -0.7491 -0.3226 -0.5951
 2827SOL     OW11360   1.686   1.243   4.845  0.2644  0.5165  0.2482
 2827SOL    HW211361   1.725   1.157   4.826 -2.4573 -0.8924  0.7797
 2827SOL    HW311362   1.697   1.255   4.939 -1.1697 -0.2388  0.5354
 2827SOL    MW411363   1.692   1.233   4.855 -0.2838  0.2310  0.3562
 2828SOL     OW11364   3.121   1.971   4.856  0.0316 -0.3986  0.2952
 2828SOL    HW211365   3.197   1.943   4.807 -0.0381  0.0080 -0.0495
 2828SOL    HW311366   3.125   2.067   4.855  0.6932 -0.3908  2.1125
 2828SOL    MW411367   3.131   1.980   4.850  0.1097 -0.3439  0.4897
 2829SOL     OW11368   3.366   4.367   4.251 -0.0379 -0.2574 -0.0540
 2829SOL    HW211369   3.454   4.341   4.222  0.2605  0.9923 -0.2774
 2829SOL    HW311370   3.374   4.373   4.346 -0.2879 -1.6098  0.0694
 2829SOL    MW411371   3.379   4.364   4.260 -0.0317 -0.2708 -0.0677
 2830SOL     OW11372   3.156   4.202   4.526 -0.6625  0.0800  0.0727
 2830SOL    HW211373   3.226   4.166   4.580 -0.8484 -0.0330  0.2354
 2830SOL    HW311374   3.107   4.126   4.495 -0.2103  0.1017 -0.7377
 2830SOL    MW411375   3.159   4.188   4.529 -0.6273  0.0677 -0.0129
 2831SOL     OW11376   3.137   1.763   4.528  0.4419 -0.5337 -0.0331
 2831SOL    HW211377   3.156   1.741   4.437 -0.3698 -0.2248 -0.2859
 2831SOL    HW311378   3.114   1.856   4.526 -1.3336 -0.9338  0.1935
 2831SOL    MW411379   3.136   1.772   4.516  0.1004 -0.5457 -0.0362
 2832SOL     OW11380   3.827   3.886   4.179  0.0338 -0.3936 -0.0276
 2832SOL    HW211381   3.762   3.946   4.215 -0.5696 -1.5296  0.7612
 2832SOL    HW311382   3.812   3.803   4.223  0.7194 -1.2098 -1.2854
 2832SOL    MW411383   3.817   3.883   4.189  0.0446 -0.6509 -0.0887
 2833SOL     OW11384   0.236   2.066   4.240 -0.2868  0.1959  0.3239
 2833SOL    HW211385   0.258   2.073   4.333  0.0044 -0.7960  0.3352
 2833SOL    HW311386   0.305   2.012   4.203 -0.3741  0.6273 -0.4889
 2833SOL    MW411387   0.248   2.060   4.247 -0.2599  0.1218  0.2179
 2834SOL     OW11388   2.928   4.604   4.199 -0.2211  0.3647  0.6674
 2834SOL    HW211389   2.911   4.511   4.210  0.4214  0.0433 -0.8926
 2834SOL    HW311390   2.850   4.647   4.236 -1.7020 -0.8816 -0.9066
 2834SOL    MW411391   2.915   4.597   4.205 -0.3316  0.1578  0.2542
 2835SOL     OW11392   3.110   3.497   4.116  0.3901 -0.4580  0.5061
 2835SOL    HW211393   3.134   3.405   4.114 -1.2216 -0.8769 -0.1184
 2835SOL    HW311394   3.097   3.521   4.024 -1.9315 -0.3667  0.8172
 2835SOL    MW411395   3.111   3.488   4.103 -0.1287 -0.5009  0.4644
 2836SOL     OW11396   2.698   0.041   4.326 -0.0520 -0.1028 -0.1496
 2836SOL    HW211397   2.740   0.114   4.371 -1.4127 -0.1599  1.2590
 2836SOL    HW311398   2.692  -0.028   4.391 -1.5492 -0.3841 -0.5624
 2836SOL    MW411399   2.702   0.042   4.340 -0.4289 -0.1473 -0.0181
 2837SOL     OW11400   4.055   2.947   4.554  0.4735 -0.4320  0.0041
 2837SOL    HW211401   3.963   2.970   4.546  0.0572 -2.2817 -0.9241
 2837SOL    HW311402   4.099   3.030   4.573 -1.4084  0.4175  0.8317
 2837SOL    MW411403   4.049   2.961   4.555  0.1702 -0.5639 -0.0091
 2838SOL     OW11404   0.649   1.770   4.478 -0.2607  0.1944  0.0642
 2838SOL    HW211405   0.742   1.748   4.489 -0.5084 -0.7499  0.2955
 2838SOL    HW311406   0.645   1.864   4.496  1.1447  0.9181 -2.8830
 2838SOL    MW411407   0.661   1.780   4.481 -0.1079  0.1653 -0.2937
 2839SOL     OW11408   2.889   4.310   4.533  0.2478  0.5595 -0.8658
 2839SOL    HW211409   2.841   4.228   4.539 -0.0701  0.8759  1.2415
 2839SOL    HW311410   2.969   4.295   4.582  0.4703  1.3011 -0.9906
 2839SOL    MW411411   2.893   4.297   4.540  0.2351  0.6990 -0.6037
 2840SOL     OW11412   3.167   2.520   4.283  0.2075  0.2279 -0.0610
 2840SOL    HW211413   3.154   2.514   4.377 -1.7651 -1.0880 -0.3887
 2840SOL    HW311414   3.235   2.454   4.264  0.4627  0.3575  0.4107
 2840SOL    MW411415   3.174   2.510   4.293 -0.0188  0.0715 -0.0420
 2841SOL     OW11416   0.168   0.567   4.581 -0.0536  0.0176 -0.3461
 2841SOL    HW211417   0.196   0.656   4.605  2.0392 -0.4783 -0.8764
 2841SOL    HW311418   0.241   0.511   4.608 -2.0222 -1.7537  1.4521
 2841SOL    MW411419   0.182   0.572   4.588 -0.0372 -0.2815 -0.1788
 2842SOL     OW11420   3.918   3.949   4.655 -0.5965  0.3980  0.4744
 2842SOL    HW211421   3.999   3.989   4.622 -1.3043  1.9566  0.5808
 2842SOL    HW311422   3.931   3.944   4.749 -0.5835  0.5160  0.4781
 2842SOL    MW411423   3.931   3.953   4.663 -0.6883  0.6189  0.4888
 2843SOL     OW11424   1.660   0.804   4.575  0.1016  0.0055 -0.0447
 2843SOL    HW211425   1.699   0.789   4.662  2.2988 -0.9822 -1.1427
 2843SOL    HW311426   1.706   0.881   4.541 -0.1952 -0.0786 -0.6391
 2843SOL    MW411427   1.672   0.812   4.582  0.3524 -0.1359 -0.2675
 2844SOL     OW11428   2.414   3.617   4.308 -0.1975 -0.2379  0.1302
 2844SOL    HW211429   2.419   3.698   4.258  1.2282 -0.7041 -0.5030
 2844SOL    HW311430   2.501   3.607   4.348 -0.5341 -1.1576  0.6725
 2844SOL    MW411431   2.426   3.626   4.307 -0.0539 -0.4208  0.1178
 2845SOL     OW11432   0.803   3.313   4.593 -0.1853 -0.0635 -0.0420
 2845SOL    HW211433   0.780   3.227   4.629 -1.1344  0.1109 -0.2036
 2845SOL    HW311434   0.814   3.297   4.499  1.4458 -0.3545  0.1931
 2845SOL    MW411435   0.801   3.299   4.585 -0.0953 -0.0789 -0.0324
 2846SOL     OW11436   1.635   1.546   4.119 -0.2576  0.0521  0.0795
 2846SOL    HW211437   1.557   1.580   4.162 -0.0382 -0.8424  1.1990
 2846SOL    HW311438   1.627   1.451   4.125  0.3023 -0.0652 -0.9143
 2846SOL    MW411439   1.624   1.538   4.125 -0.1549 -0.0814  0.0963
 2847SOL     OW11440   2.008   4.366   4.264 -0.5484  0.4277  0.5876
 2847SOL    HW211441   1.932   4.323   4.226 -0.2099  0.9333 -0.7108
 2847SOL    HW311442   2.010   4.453   4.222  0.7696  0.3883  0.5345
 2847SOL    MW411443   1.998   4.372   4.253 -0.3300  0.4888  0.4096
 2848SOL     OW11444   3.837   0.766   4.175 -0.3328  0.0397  0.4247
 2848SOL    HW211445   3.917   0.813   4.197  0.5625 -1.4204  0.3693
 2848SOL    HW311446   3.827   0.777   4.081  0.2573 -0.4606  0.3034
 2848SOL    MW411447   3.846   0.773   4.166 -0.1369 -0.2189  0.4010
 2849SOL     OW11448   4.467   0.935   4.266  0.1839 -0.1567 -0.4401
 2849SOL    HW211449   4.407   0.873   4.226  1.3884 -1.1397 -0.7293
 2849SOL    HW311450   4.553   0.895   4.257  0.6965  0.4649  1.4601
 2849SOL    MW411451   4.470   0.922   4.260  0.4106 -0.2044 -0.2275
 2850SOL     OW11452   2.519   2.315   4.139  0.5173  0.1684 -0.4869
 2850SOL    HW211453   2.442   2.359   4.175  0.8245 -0.0171  0.4006
 2850SOL    HW311454   2.502   2.312   4.045 -0.6966 -0.1401 -0.2684
 2850SOL    MW411455   2.506   2.321   4.132  0.3977  0.1037 -0.3400
 2851SOL     OW11456   1.086   3.615   4.729  0.1682  0.3545 -0.0393
 2851SOL    HW211457   1.003   3.643   4.691  0.7578  1.1059 -0.7984
 2851SOL    HW311458   1.098   3.673   4.805 -0.4089 -0.3228  0.5745
 2851SOL    MW411459   1.077   3.627   4.734  0.1698  0.3645 -0.0587
 2852SOL     OW11460   3.375   2.065   4.228  0.3667 -0.5418  0.0213
 2852SOL    HW211461   3.369   2.160   4.219  0.9497 -0.3552  1.3955
 2852SOL    HW311462   3.454   2.041   4.181 -0.8879 -0.6296 -2.1066
 2852SOL    MW411463   3.384   2.075   4.221  0.2782 -0.5288 -0.0782
 2853SOL     OW11464   0.634   2.320   4.556  0.2155  0.2908  0.4783
 2853SOL    HW211465   0.722   2.358   4.564  0.2051  0.3652  0.2273
 2853SOL    HW311466   0.576   2.395   4.553  0.1130  0.2370  0.9804
 2853SOL    MW411467   0.638   2.335   4.557  0.2006  0.2935  0.5116
 2854SOL     OW11468   2.141   1.303   4.547  0.3247  0.1185  0.2036
 2854SOL    HW211469   2.237   1.304   4.549  0.3208 -0.0370  0.8277
 2854SOL    HW311470   2.118   1.306   4.455  0.9520 -0.5861  0.0192
 2854SOL    MW411471   2.151   1.303   4.535  0.4072  0.0049  0.2613
 2855SOL     OW11472   3.599   3.523   4.156 -0.0405  0.4091 -0.4084
 2855SOL    HW211473   3.518   3.555   4.195  0.3111 -0.9106  1.5238
 2855SOL    HW311474   3.669   3.564   4.207  0.5036  0.9672 -1.5823
 2855SOL    MW411475   3.597   3.532   4.168  0.0777  0.3085 -0.3090
 2856SOL     OW11476   2.495   0.045   4.612 -0.3846  0.0584  0.1719
 2856SOL    HW211477   2.514   0.131   4.576  0.0069  0.8270  2.1496
 2856SOL    HW311478   2.567  -0.010   4.582  0.1185  0.7639  0.0788
 2856SOL    MW411479   2.507   0.049   4.603 -0.2668  0.2529  0.4210
 2857SOL     OW11480   4.463   1.151   4.732 -0.3604  0.5232  0.0415
 2857SOL    HW211481   4.540   1.127   4.785 -0.8582 -0.6358  0.2679
 2857SOL    HW311482   4.489   1.230   4.686  0.8522  0.3418  0.3942
 2857SOL    MW411483   4.477   1.158   4.733 -0.2661  0.3463  0.1183
 2858SOL     OW11484   1.275   3.622   4.512 -0.3064 -0.1350 -0.0675
 2858SOL    HW211485   1.211   3.613   4.582 -0.7521  0.9104 -0.3355
 2858SOL    HW311486   1.226   3.605   4.432  0.3052 -1.7873 -0.0989
 2858SOL    MW411487   1.260   3.619   4.511 -0.2844 -0.2151 -0.1073
 2859SOL     OW11488   2.398   3.135   5.002  0.2924 -0.0734  0.5957
 2859SOL    HW211489   2.438   3.089   5.075  0.1627 -1.1747 -0.0064
 2859SOL    HW311490   2.471   3.158   4.944  0.4155  0.9582  1.1455
 2859SOL    MW411491   2.413   3.132   5.004  0.2918 -0.0823  0.5894
 2860SOL     OW11492   4.329   2.124   4.539  0.1446  0.0402  0.4121
 2860SOL    HW211493   4.397   2.191   4.550 -0.4879  0.8022 -0.1981
 2860SOL    HW311494   4.248   2.169   4.563 -0.3374 -0.3940 -0.3774
 2860SOL    MW411495   4.328   2.139   4.544 -0.0019  0.0834  0.2270
 2861SOL     OW11496   1.135   0.177   4.446  0.1997 -0.4500  0.1034
 2861SOL    HW211497   1.047   0.150   4.417  0.5411  0.5132 -1.9248
 2861SOL    HW311498   1.130   0.272   4.452  0.8321 -0.4675  0.9433
 2861SOL    MW411499   1.122   0.186   4.443  0.3283 -0.3252 -0.0534
 2862SOL     OW11500   0.691   0.762   4.141  0.2610  0.2093  0.2136
 2862SOL    HW211501   0.689   0.748   4.046 -1.1791  1.3289  0.0666
 2862SOL    HW311502   0.656   0.681   4.178  1.6773 -0.5891 -0.1555
 2862SOL    MW411503   0.686   0.750   4.134  0.2578  0.2517  0.1454
 2863SOL     OW11504   3.358   3.611   4.242  0.0007 -0.3452  0.1021
 2863SOL    HW211505   3.276   3.575   4.207 -0.5493  0.5519  0.4589
 2863SOL    HW311506   3.355   3.591   4.335 -0.0845  0.2068  0.2180
 2863SOL    MW411507   3.347   3.603   4.249 -0.0830 -0.1540  0.1650
 2864SOL     OW11508   1.587   0.500   4.205  0.2199 -0.3211 -0.3139
 2864SOL    HW211509   1.586   0.522   4.298  1.5807 -0.0251 -0.3639
 2864SOL    HW311510   1.651   0.429   4.197  1.7233  1.1064 -1.3306
 2864SOL    MW411511   1.595   0.493   4.216  0.5978 -0.0937 -0.4549
 2865SOL     OW11512   2.196   0.283   4.768  0.1494  0.0354  0.2858
 2865SOL    HW211513   2.284   0.317   4.750 -0.4368  1.1842 -0.4655
 2865SOL    HW311514   2.201   0.190   4.746  0.9949  0.2346 -0.3819
 2865SOL    MW411515   2.208   0.275   4.763  0.1838  0.2133  0.0982
 2866SOL     OW11516   0.445   2.541   4.511  0.3829 -0.4319  0.1676
 2866SOL    HW211517   0.511   2.607   4.490  0.4778 -0.4600  0.3761
 2866SOL    HW311518   0.430   2.495   4.428 -1.1169  1.1207 -0.4719
 2866SOL    MW411519   0.451   2.544   4.497  0.1976 -0.2310  0.1106
 2867SOL     OW11520   0.460   1.935   4.119  0.3534  0.0730  0.3792
 2867SOL    HW211521   0.471   1.917   4.025 -0.9387  0.7519  0.0954
 2867SOL    HW311522   0.540   1.982   4.143  0.0778  1.0934 -0.6803
 2867SOL    MW411523   0.472   1.938   4.109  0.1466  0.2973  0.2017
 2868SOL     OW11524   2.612   3.839   4.598  0.0532 -0.1271 -0.5330
 2868SOL    HW211525   2.525   3.871   4.623  1.0484  0.4813  2.2940
 2868SOL    HW311526   2.663   3.918   4.582  0.7508 -0.4210  0.2106
 2868SOL    MW411527   2.607   3.854   4.599  0.2766 -0.0851 -0.0615
 2869SOL     OW11528   3.593   1.724   4.309  0.0442  0.1237 -0.0112
 2869SOL    HW211529   3.674   1.678   4.287  0.7670  1.5474 -0.4127
 2869SOL    HW311530   3.526   1.684   4.253  0.5537 -0.7745  0.0175
 2869SOL    MW411531   3.595   1.713   4.299  0.2067  0.1930 -0.0601
 2870SOL     OW11532   4.034   1.665   4.259  0.2389  0.0568  0.3301
 2870SOL    HW211533   4.114   1.625   4.226  0.3701  0.4642  0.1458
 2870SOL    HW311534   4.044   1.665   4.355  0.3109 -0.1918  0.3213
 2870SOL    MW411535   4.046   1.660   4.268  0.2656  0.0778  0.3047
 2871SOL     OW11536   2.854   1.885   4.759  0.1437  0.4590  0.2873
 2871SOL    HW211537   2.948   1.895   4.771 -0.0240  1.0770  1.1580
 2871SOL    HW311538   2.816   1.961   4.803 -0.8572 -0.7829  1.6628
 2871SOL    MW411539   2.861   1.896   4.767 -0.0107  0.3768  0.5836
 2872SOL     OW11540   4.064   1.191   4.650 -0.0888  0.1683 -0.2188
 2872SOL    HW211541   4.105   1.185   4.737 -0.0395  0.2491 -0.2363
 2872SOL    HW311542   4.081   1.106   4.610 -0.8290 -0.1626  0.1666
 2872SOL    MW411543   4.072   1.179   4.656 -0.1798  0.1353 -0.1702
 2873SOL     OW11544   0.370   0.127   4.268  0.0277  0.2966  0.0323
 2873SOL    HW211545   0.451   0.082   4.243 -0.0728 -0.8703  1.7256
 2873SOL    HW311546   0.390   0.220   4.256  0.6505 -0.1071 -2.3172
 2873SOL    MW411547   0.383   0.133   4.263  0.0966  0.0894 -0.0539
 2874SOL     OW11548   3.795   0.821   4.588 -0.5541  0.1153 -0.0548
 2874SOL    HW211549   3.781   0.913   4.612 -2.3958 -0.0737 -0.3238
 2874SOL    HW311550   3.738   0.808   4.512 -1.5113 -1.6631  0.9538
 2874SOL    MW411551   3.785   0.832   4.581 -0.9234 -0.1444  0.0434
 2875SOL     OW11552   3.352   1.859   4.685  0.0781  0.0452 -0.1213
 2875SOL    HW211553   3.275   1.823   4.642 -0.9258 -0.0726  1.7130
 2875SOL    HW311554   3.373   1.938   4.635 -1.5412  0.3568 -0.3308
 2875SOL    MW411555   3.344   1.864   4.673 -0.2680  0.0708  0.0935
 2876SOL     OW11556   0.225   2.485   4.672  0.2639 -0.4366 -0.6094
 2876SOL    HW211557   0.169   2.437   4.611  0.1064  0.2294 -0.9992
 2876SOL    HW311558   0.304   2.504   4.622  0.8035 -1.2976 -0.0878
 2876SOL    MW411559   0.228   2.481   4.657  0.3143 -0.4621 -0.5918
 2877SOL     OW11560   3.140   3.238   4.472 -0.1611  0.2456 -0.5096
 2877SOL    HW211561   3.125   3.241   4.378  0.6275  2.6180 -0.5835
 2877SOL    HW311562   3.234   3.246   4.482 -0.3128  0.8328  0.5127
 2877SOL    MW411563   3.150   3.240   4.461 -0.0770  0.6359 -0.3843
 2878SOL     OW11564   3.640   4.262   4.584 -0.1352  0.1118 -0.2325
 2878SOL    HW211565   3.697   4.339   4.576 -1.3309  0.8978 -1.5042
 2878SOL    HW311566   3.551   4.298   4.585 -0.6658 -1.1809  0.4129
 2878SOL    MW411567   3.636   4.277   4.583 -0.3631  0.0448 -0.3157
 2879SOL     OW11568   2.779   4.045   4.522 -0.7259 -0.4751  0.4511
 2879SOL    HW211569   2.866   4.005   4.518 -0.1711  0.5826  1.4024
 2879SOL    HW311570   2.746   4.040   4.433  0.6323 -0.2326 -0.0925
 2879SOL    MW411571   2.786   4.039   4.510 -0.4735 -0.3037  0.5045
 2880SOL     OW11572   3.239   0.299   4.361  0.6222 -0.1491  0.3344
 2880SOL    HW211573   3.186   0.324   4.437  1.5755 -0.4151  1.1061
 2880SOL    HW311574   3.206   0.213   4.336  0.6404 -0.2844  0.7704
 2880SOL    MW411575   3.227   0.291   4.368  0.7503 -0.2021  0.4940
 2881SOL     OW11576   3.136   4.228   4.146 -0.3191  0.5653  0.1422
 2881SOL    HW211577   3.149   4.136   4.169 -1.8085  0.0766 -0.9612
 2881SOL    HW311578   3.209   4.273   4.190  2.1618 -1.4690 -1.6969
 2881SOL    MW411579   3.148   4.222   4.155 -0.1881  0.2322 -0.2456
 2882SOL     OW11580   4.248   4.402   4.220 -0.0316  0.1053 -0.1300
 2882SOL    HW211581   4.249   4.404   4.316  1.0725  1.7022 -0.1534
 2882SOL    HW311582   4.314   4.338   4.196  0.2904  0.3304  0.1626
 2882SOL    MW411583   4.257   4.394   4.230  0.1564  0.3452 -0.0944
 2883NA      NA11584   2.781   3.226   0.500  0.2030  0.1759 -0.4935
   4.49070   4.66690  10.00000
