Gromacs Runs On Most of All Computer Systems in water t= 50000.00000 step= 50000000
11584
    1RU5    O5'    1   2.629   2.130   4.619 -0.3279  0.1660  0.2975
    1RU5    H5T    2   2.537   2.110   4.599 -0.6278 -0.3494  2.0780
    1RU5    C5'    3   2.689   2.206   4.516 -0.6619  0.0465 -0.5375
    1RU5   H5'1    4   2.675   2.156   4.420  1.4267  1.2654 -1.5342
    1RU5   H5'2    5   2.796   2.209   4.540 -0.1963 -4.7554 -1.5409
    1RU5    C4'    6   2.630   2.346   4.504 -0.2582 -0.1995  0.0842
    1RU5    H4'    7   2.674   2.389   4.414  0.6158 -0.3290  0.4436
    1RU5    O4'    8   2.487   2.342   4.501  0.0411 -0.0865  0.1336
    1RU5    C1'    9   2.441   2.474   4.536  0.3064  0.1451 -0.6429
    1RU5    H1'   10   2.439   2.528   4.442 -1.9981  1.2619  0.0081
    1RU5     N1   11   2.299   2.480   4.584 -0.6030 -0.4846 -0.2681
    1RU5     C6   12   2.248   2.375   4.650  0.0518  0.1365 -0.1888
    1RU5     H6   13   2.316   2.299   4.685 -2.5027 -1.4708  1.4521
    1RU5     C5   14   2.115   2.368   4.675  0.0112  0.3812 -0.2104
    1RU5     H5   15   2.085   2.274   4.719 -0.7353 -0.3469 -2.1875
    1RU5     C4   16   2.020   2.464   4.634 -0.0834 -0.5210  0.4164
    1RU5     O4   17   1.901   2.460   4.655 -0.1537  0.5974 -0.2210
    1RU5     N3   18   2.081   2.578   4.577  0.5451 -0.0675 -0.1385
    1RU5     H3   19   2.019   2.650   4.543 -0.4245  0.2973  2.2493
    1RU5     C2   20   2.212   2.585   4.549 -0.0817  0.0082  0.3417
    1RU5     O2   21   2.252   2.684   4.491 -0.2710  0.0831 -1.0255
    1RU5    C3'   22   2.665   2.437   4.619 -0.0583 -0.4070 -0.0280
    1RU5    H3'   23   2.656   2.386   4.714  0.1542 -1.2221 -0.4385
    1RU5    C2'   24   2.555   2.542   4.616  0.4685 -0.7556  0.2539
    1RU5   H2'1   25   2.528   2.573   4.717  1.0085 -2.4645  0.9416
    1RU5    O2'   26   2.603   2.650   4.534  0.2010 -0.0009 -0.3198
    1RU5   HO'2   27   2.697   2.640   4.518  0.2710  0.9148 -0.5514
    1RU5    O3'   28   2.790   2.494   4.599  0.1273  0.0414 -0.1092
    2RG3      P   29   2.891   2.507   4.715  0.1123 -0.1180 -0.3356
    2RG3    O1P   30   3.011   2.582   4.666  0.0862 -0.5470 -0.1359
    2RG3    O2P   31   2.908   2.379   4.778 -0.2591 -0.8286 -0.1412
    2RG3    O5'   32   2.814   2.597   4.818 -0.4930 -0.6707 -0.2024
    2RG3    C5'   33   2.817   2.741   4.803 -0.4523 -0.1132 -0.4756
    2RG3   H5'1   34   2.790   2.762   4.699  1.0442 -0.7750 -1.0139
    2RG3   H5'2   35   2.917   2.779   4.823  1.6431 -4.7804 -1.4949
    2RG3    C4'   36   2.716   2.822   4.876  0.3240  0.0306 -0.0469
    2RG3    H4'   37   2.733   2.926   4.845 -0.9493 -0.2372 -1.7620
    2RG3    O4'   38   2.584   2.788   4.837 -0.3930  0.0895 -0.1713
    2RG3    C1'   39   2.500   2.798   4.946 -0.3329 -0.5363  0.5247
    2RG3    H1'   40   2.423   2.874   4.929  0.0327 -0.2871 -0.0701
    2RG3     N9   41   2.428   2.668   4.958 -0.3527  0.0284 -0.2561
    2RG3     C8   42   2.489   2.551   4.988 -0.1118 -0.1315 -0.0507
    2RG3     H8   43   2.596   2.541   4.987  0.0587  1.5382 -1.1666
    2RG3     N7   44   2.401   2.459   5.006  0.6253 -0.2245 -0.2376
    2RG3     C5   45   2.274   2.518   4.992  0.1540  0.3171 -0.0363
    2RG3     C6   46   2.137   2.468   4.998 -0.3518 -0.0654  0.0776
    2RG3     O6   47   2.094   2.357   5.038  0.4830 -0.2702 -0.1434
    2RG3     N1   48   2.046   2.561   4.960 -0.1835  0.3903 -0.3596
    2RG3     H1   49   1.948   2.535   4.959 -0.2936  0.8069 -0.6256
    2RG3     C2   50   2.073   2.694   4.941  0.4405 -0.0865  0.5794
    2RG3     N2   51   1.983   2.766   4.887 -0.2361  0.1001 -0.4341
    2RG3    H21   52   1.893   2.721   4.878 -0.8382  1.2063 -0.0379
    2RG3    H22   53   2.003   2.860   4.854  2.1259 -0.3289 -0.3485
    2RG3     N3   54   2.194   2.744   4.940 -0.2252 -0.2227  0.3290
    2RG3     C4   55   2.293   2.650   4.960 -0.2539  0.5918 -0.5071
    2RG3    C3'   56   2.729   2.810   5.023 -0.1783 -0.4137 -0.1760
    2RG3    H3'   57   2.756   2.706   5.046  0.7496 -0.0203  0.5627
    2RG3    C2'   58   2.587   2.840   5.065 -0.5893  0.2801  0.2837
    2RG3   H2'1   59   2.566   2.780   5.153 -0.6912 -1.9525 -1.2085
    2RG3    O2'   60   2.560   2.976   5.078  0.4121 -0.4353  0.1832
    2RG3   HO'2   61   2.636   3.005   5.129  0.4466 -0.4725  0.1530
    2RG3    O3'   62   2.818   2.909   5.080  0.0395  0.1825  0.3775
    2RG3    H3T   63   2.909   2.883   5.066  1.3816  3.8201  1.6527
    3SOL     OW   64   2.681   3.818   0.411  0.1758 -0.3001 -0.2724
    3SOL    HW2   65   2.616   3.750   0.430 -0.1561 -0.2984 -1.3853
    3SOL    HW3   66   2.665   3.885   0.478 -0.1993 -0.8328  0.1795
    3SOL    MW4   67   2.670   3.818   0.422  0.0825 -0.3703 -0.3596
    4SOL     OW   68   2.928   4.462   0.536  0.1014  0.0615  0.2504
    4SOL    HW2   69   2.916   4.459   0.631  0.1452  0.0048  0.2538
    4SOL    HW3   70   2.847   4.500   0.503 -0.3661 -0.9654  0.2163
    4SOL    MW4   71   2.916   4.467   0.544  0.0455 -0.0815  0.2464
    5SOL     OW   72   1.595   2.320   0.816  0.2794 -0.3334 -0.3544
    5SOL    HW2   73   1.516   2.358   0.778 -0.1479 -1.0200 -0.1632
    5SOL    HW3   74   1.591   2.227   0.791  0.6378 -0.5229  0.2963
    5SOL    MW4   75   1.584   2.313   0.807  0.2702 -0.4492 -0.2433
    6SOL     OW   76   1.348   3.486   0.809  0.4953  0.1812  0.2102
    6SOL    HW2   77   1.278   3.536   0.767 -0.2386  1.1135  2.4645
    6SOL    HW3   78   1.335   3.396   0.779 -0.7350  0.6150 -0.5761
    6SOL    MW4   79   1.337   3.481   0.799  0.2363  0.3612  0.4039
    7SOL     OW   80   1.208   3.604   0.244  0.3160  0.1209  0.4724
    7SOL    HW2   81   1.249   3.690   0.248 -1.0276  0.7546  0.8495
    7SOL    HW3   82   1.165   3.600   0.159  0.1988 -0.0966  0.5387
    7SOL    MW4   83   1.208   3.615   0.234  0.1231  0.1760  0.5309
    8SOL     OW   84   1.535   4.659   0.874 -0.0338  0.2874  0.0047
    8SOL    HW2   85   1.524   4.652   0.969  0.6945  1.7519  0.2168
    8SOL    HW3   86   1.463   4.716   0.846  0.6771  1.1485 -0.0936
    8SOL    MW4   87   1.524   4.666   0.883  0.1560  0.5941  0.0197
    9SOL     OW   88   4.240   3.634   0.521 -0.6654  0.4079  0.3409
    9SOL    HW2   89   4.156   3.655   0.480 -0.9192 -0.2732  0.4931
    9SOL    HW3   90   4.262   3.548   0.485  0.2375  0.8194 -0.1102
    9SOL    MW4   91   4.232   3.625   0.511 -0.5798  0.3722  0.3015
   10SOL     OW   92   3.739   0.584   0.228 -0.1469 -0.0497 -0.3653
   10SOL    HW2   93   3.730   0.489   0.231 -1.7849  0.0852 -0.2976
   10SOL    HW3   94   3.820   0.603   0.275  0.0285 -1.3845 -0.1288
   10SOL    MW4   95   3.748   0.574   0.234 -0.3397 -0.2080 -0.3252
   11SOL     OW   96   3.380   3.103   0.822  0.5974  0.5288  0.0674
   11SOL    HW2   97   3.395   3.016   0.786 -0.9060  0.2970 -0.0307
   11SOL    HW3   98   3.388   3.091   0.917 -0.0222  0.1980  0.0782
   11SOL    MW4   99   3.383   3.090   0.830  0.3171  0.4544  0.0558
   12SOL     OW  100   0.254   2.050   0.743  0.3016 -0.6712  0.2380
   12SOL    HW2  101   0.183   2.002   0.786 -1.0864 -0.0655 -1.3119
   12SOL    HW3  102   0.249   2.138   0.780  0.9113 -0.8923  0.8646
   12SOL    MW4  103   0.244   2.055   0.754  0.1989 -0.6208  0.1162
   13SOL     OW  104   4.103   2.936   0.413  0.0425  0.0111 -0.0356
   13SOL    HW2  105   4.026   2.880   0.423  0.5424 -0.6853 -0.0789
   13SOL    HW3  106   4.068   3.025   0.410 -0.9274 -0.4049 -1.8544
   13SOL    MW4  107   4.088   2.940   0.414 -0.0200 -0.1357 -0.2813
   14SOL     OW  108   1.395   2.114   0.452  0.2023  0.0222  0.5574
   14SOL    HW2  109   1.489   2.097   0.442  0.3971  0.4853  1.5238
   14SOL    HW3  110   1.354   2.029   0.437  0.6407  0.1391 -1.4702
   14SOL    MW4  111   1.402   2.101   0.449  0.2859  0.0989  0.4174
   15SOL     OW  112   3.372   2.345   0.796 -0.3249  0.4054  0.0547
   15SOL    HW2  113   3.355   2.341   0.891 -0.2691  0.8493  0.0807
   15SOL    HW3  114   3.465   2.366   0.789 -0.1655 -0.3370 -0.0977
   15SOL    MW4  115   3.382   2.347   0.808 -0.2961  0.3660  0.0380
   16SOL     OW  116   0.038   1.925   0.872  0.1627  0.5800 -0.0636
   16SOL    HW2  117  -0.030   1.957   0.812 -0.0199  0.8785  0.3045
   16SOL    HW3  118   0.059   1.837   0.839 -0.7467  0.2956  0.1133
   16SOL    MW4  119   0.032   1.917   0.860  0.0186  0.5819  0.0083
   17SOL     OW  120   3.858   2.765   0.507 -0.5780 -0.0543  0.0486
   17SOL    HW2  121   3.867   2.796   0.597  0.1106 -0.0212 -0.0244
   17SOL    HW3  122   3.911   2.685   0.504 -0.4799  0.0209 -0.3587
   17SOL    MW4  123   3.866   2.758   0.518 -0.4742 -0.0401 -0.0148
   18SOL     OW  124   2.667   3.034   0.425  0.1397 -0.1668 -0.4910
   18SOL    HW2  125   2.586   2.986   0.440 -0.2455  0.2348 -1.2412
   18SOL    HW3  126   2.736   2.974   0.451 -0.3726 -0.7283 -0.4138
   18SOL    MW4  127   2.665   3.020   0.431  0.0210 -0.1881 -0.5798
   19SOL     OW  128   2.444   4.178   0.189 -0.1450 -0.2489  0.4488
   19SOL    HW2  129   2.532   4.205   0.162 -0.2221 -0.8620 -0.4388
   19SOL    HW3  130   2.449   4.083   0.194 -0.8471 -0.3019  0.1191
   19SOL    MW4  131   2.456   4.169   0.186 -0.2480 -0.3371  0.2882
   20SOL     OW  132   1.785   3.214   0.728  0.1443 -0.0643  0.2749
   20SOL    HW2  133   1.860   3.158   0.750  0.4319  0.2189  0.0254
   20SOL    HW3  134   1.709   3.164   0.757  0.3418 -0.9504 -0.7273
   20SOL    MW4  135   1.785   3.200   0.735  0.2084 -0.1442  0.1097
   21SOL     OW  136   3.566   3.261   0.716  0.4030 -0.0619  0.0763
   21SOL    HW2  137   3.497   3.204   0.751  1.5650 -0.7731  1.2808
   21SOL    HW3  138   3.573   3.237   0.624  0.1419 -1.1071  0.3265
   21SOL    MW4  139   3.558   3.250   0.708  0.5219 -0.2937  0.2682
   22SOL     OW  140   2.922   0.252   0.480 -0.0906 -0.0610  0.4183
   22SOL    HW2  141   2.857   0.195   0.439 -0.5448  0.8316 -0.1130
   22SOL    HW3  142   2.901   0.248   0.574 -2.2525  1.8014  0.0939
   22SOL    MW4  143   2.910   0.244   0.487 -0.4356  0.3025  0.3054
   23SOL     OW  144   4.317   2.094   0.469  0.5362 -0.6749  0.1906
   23SOL    HW2  145   4.359   2.016   0.433  2.5516 -0.3598  1.7626
   23SOL    HW3  146   4.385   2.161   0.468 -0.1152  0.0523  2.1837
   23SOL    MW4  147   4.331   2.093   0.464  0.7162 -0.5376  0.6610
   24SOL     OW  148   2.676   0.123   0.426 -0.4597  0.3118 -0.0721
   24SOL    HW2  149   2.696   0.032   0.403 -1.4984  0.4363 -1.5475
   24SOL    HW3  150   2.667   0.122   0.521  0.1877 -0.9963 -0.0064
   24SOL    MW4  151   2.678   0.110   0.436 -0.5112  0.1556 -0.2581
   25SOL     OW  152   2.445   0.241   0.317  0.0524 -0.3967  0.3241
   25SOL    HW2  153   2.461   0.230   0.224 -0.6898 -0.4152  0.1979
   25SOL    HW3  154   2.528   0.218   0.359  0.7207  0.6489 -0.3908
   25SOL    MW4  155   2.458   0.237   0.310  0.0427 -0.2612  0.2131
   26SOL     OW  156   1.689   3.694   0.249 -0.1627 -0.0935 -0.2602
   26SOL    HW2  157   1.659   3.645   0.326  0.6219 -0.2439 -0.0404
   26SOL    HW3  158   1.726   3.628   0.191  0.1956  0.1475 -0.3080
   26SOL    MW4  159   1.690   3.679   0.252 -0.0119 -0.0815 -0.2375
   27SOL     OW  160   3.811   4.506   0.249 -0.3401 -0.0556 -0.2419
   27SOL    HW2  161   3.784   4.488   0.339 -0.6605  0.6096 -0.2043
   27SOL    HW3  162   3.905   4.486   0.248  0.0773  1.7638  0.7278
   27SOL    MW4  163   3.820   4.501   0.261 -0.3273  0.2723 -0.1090
   28SOL     OW  164   0.655   3.905   0.680  0.2868 -0.0260 -0.2207
   28SOL    HW2  165   0.565   3.920   0.711  0.2333  0.1312 -0.4491
   28SOL    HW3  166   0.710   3.924   0.756  0.1199 -0.2205 -0.0510
   28SOL    MW4  167   0.650   3.909   0.694  0.2577 -0.0310 -0.2285
   29SOL     OW  168   4.018   3.733   0.415 -0.4022  0.4627 -0.4661
   29SOL    HW2  169   3.994   3.724   0.322 -0.9899 -0.3543 -0.2426
   29SOL    HW3  170   4.014   3.828   0.431 -2.3075  0.4706 -0.7680
   29SOL    MW4  171   4.014   3.745   0.405 -0.7310  0.3557 -0.4764
   30SOL     OW  172   3.146   1.142   0.477 -0.3886 -0.0319  0.2469
   30SOL    HW2  173   3.072   1.199   0.496  0.2279  0.9421 -0.2358
   30SOL    HW3  174   3.223   1.194   0.500  0.1848 -0.5695 -0.4412
   30SOL    MW4  175   3.146   1.156   0.482 -0.2313  0.0256  0.0924
   31SOL     OW  176   3.713   0.083   0.386  0.1450  0.4416 -0.1340
   31SOL    HW2  177   3.729   0.023   0.312  0.0602  0.3888 -0.1104
   31SOL    HW3  178   3.637   0.045   0.430 -1.0908  1.5952 -1.2154
   31SOL    MW4  179   3.705   0.070   0.382 -0.0293  0.5868 -0.2736
   32SOL     OW  180   0.232   0.747   0.824  0.0059  0.1813 -1.0096
   32SOL    HW2  181   0.258   0.667   0.780  0.0781  0.1753 -0.9559
   32SOL    HW3  182   0.234   0.725   0.917  0.2388  0.3082 -0.9830
   32SOL    MW4  183   0.236   0.734   0.830  0.0462  0.1972 -0.9990
   33SOL     OW  184   3.939   0.896   0.502  0.6607 -0.0980 -0.5256
   33SOL    HW2  185   3.973   0.887   0.592  1.4356  2.4368 -0.5142
   33SOL    HW3  186   3.983   0.974   0.468 -0.1296 -0.6512 -2.9001
   33SOL    MW4  187   3.949   0.905   0.510  0.6583  0.1634 -0.8374
   34SOL     OW  188   2.714   1.162   0.456 -0.1947 -0.2767 -0.6562
   34SOL    HW2  189   2.630   1.202   0.433 -1.0558 -0.2756  2.2663
   34SOL    HW3  190   2.699   1.068   0.449 -0.4826 -0.2798 -0.0107
   34SOL    MW4  191   2.701   1.155   0.452 -0.3464 -0.2770 -0.1855
   35SOL     OW  192   3.107   0.691   0.505  0.3676  0.3739  0.3707
   35SOL    HW2  193   3.036   0.629   0.493  1.0510 -0.0616 -1.5291
   35SOL    HW3  194   3.065   0.770   0.538 -0.6661 -0.6761  1.5942
   35SOL    MW4  195   3.092   0.694   0.508  0.3214  0.1779  0.2815
   36SOL     OW  196   2.041   1.301   0.697  0.1985 -0.1197  0.5808
   36SOL    HW2  197   2.048   1.387   0.739  0.1056 -0.9779  2.4291
   36SOL    HW3  198   2.119   1.255   0.726 -0.3364 -1.0488  0.5523
   36SOL    MW4  199   2.052   1.306   0.706  0.1159 -0.3555  0.8209
   37SOL     OW  200   4.093   2.581   0.523  0.4843  0.2663  0.4177
   37SOL    HW2  201   4.180   2.592   0.485 -0.0623 -0.1418 -0.9524
   37SOL    HW3  202   4.055   2.507   0.477 -0.7050  0.6179  0.8158
   37SOL    MW4  203   4.099   2.573   0.512  0.2551  0.2587  0.2895
   38SOL     OW  204   4.077   1.826   0.482  0.1434  1.2026 -0.2249
   38SOL    HW2  205   4.040   1.914   0.490 -0.3875  0.9727 -0.1193
   38SOL    HW3  206   4.021   1.782   0.418 -1.2800  0.0688  1.7530
   38SOL    MW4  207   4.065   1.831   0.475 -0.1144  1.0227  0.0499
   39SOL     OW  208   2.436   4.472   0.494 -0.2621 -0.4629 -0.0537
   39SOL    HW2  209   2.344   4.477   0.468 -0.4575 -0.4101  0.6470
   39SOL    HW3  210   2.435   4.475   0.589  0.5149  0.2559 -0.0607
   39SOL    MW4  211   2.424   4.473   0.503 -0.1855 -0.3610  0.0378
   40SOL     OW  212   1.815   2.450   0.729  0.0979 -0.1914  0.1863
   40SOL    HW2  213   1.812   2.531   0.780  0.0389  0.3394 -0.6424
   40SOL    HW3  214   1.747   2.395   0.768  0.4237 -0.0053  1.0207
   40SOL    MW4  215   1.805   2.453   0.741  0.1330 -0.0966  0.1871
   41SOL     OW  216   4.254   3.111   0.793  0.0487 -0.1337 -0.8453
   41SOL    HW2  217   4.342   3.141   0.773  0.2503  0.7105  1.1550
   41SOL    HW3  218   4.259   3.016   0.788  1.6944 -0.2107  1.5455
   41SOL    MW4  219   4.266   3.103   0.790  0.2923 -0.0322 -0.2658
   42SOL     OW  220   0.647   2.824   0.685  0.5846  0.2335 -0.8487
   42SOL    HW2  221   0.615   2.789   0.601  0.1969 -0.8468 -0.2595
   42SOL    HW3  222   0.594   2.780   0.751 -0.2560  2.3458 -0.0912
   42SOL    MW4  223   0.636   2.813   0.682  0.4226  0.3695 -0.6710
   43SOL     OW  224   2.656   0.627   0.381 -0.1715  0.1632 -0.3975
   43SOL    HW2  225   2.737   0.592   0.418 -0.5903  0.1080  0.4826
   43SOL    HW3  226   2.650   0.716   0.414 -1.4853 -0.4905  1.2023
   43SOL    MW4  227   2.666   0.634   0.390 -0.4001  0.0697 -0.0704
   44SOL     OW  228   2.476   3.913   0.247  0.4901 -0.2600 -0.3631
   44SOL    HW2  229   2.561   3.890   0.284  0.3141  0.4768  0.5116
   44SOL    HW3  230   2.414   3.854   0.290  0.3455  0.3014  0.2108
   44SOL    MW4  231   2.479   3.902   0.257  0.4475 -0.0887 -0.1720
   45SOL     OW  232   2.519   0.725   0.890  0.2787 -0.1038  0.0160
   45SOL    HW2  233   2.486   0.654   0.836 -1.0786  0.9542 -0.5746
   45SOL    HW3  234   2.614   0.721   0.880  0.1140 -0.7248 -1.4080
   45SOL    MW4  235   2.527   0.715   0.882  0.0777 -0.0461 -0.2498
   46SOL     OW  236   1.563   4.410   0.720 -0.3968  0.1233  0.2664
   46SOL    HW2  237   1.517   4.480   0.768 -0.2077  0.1261  0.4440
   46SOL    HW3  238   1.639   4.390   0.775 -0.2985 -0.0251  0.0732
   46SOL    MW4  239   1.567   4.417   0.734 -0.3587  0.1040  0.2643
   47SOL     OW  240   1.094   0.816   0.916 -0.4378 -0.1407  0.0451
   47SOL    HW2  241   1.119   0.729   0.887  0.5550  0.7517 -1.8849
   47SOL    HW3  242   1.111   0.816   1.010  0.2762 -1.7808 -0.0714
   47SOL    MW4  243   1.100   0.805   0.924 -0.2126 -0.2394 -0.2249
   48SOL     OW  244   0.635   0.370   0.509  0.4350  0.2380  0.0648
   48SOL    HW2  245   0.553   0.417   0.492 -0.3242 -0.7379  1.0065
   48SOL    HW3  246   0.609   0.278   0.515  1.3447  0.0945  2.0670
   48SOL    MW4  247   0.620   0.364   0.507  0.4548  0.0903  0.4532
   49SOL     OW  248   0.672   4.392   0.754 -0.4200 -0.1047  0.4686
   49SOL    HW2  249   0.688   4.480   0.787  0.8148 -0.3144  0.4546
   49SOL    HW3  250   0.650   4.404   0.661 -0.5436  0.2071  0.5390
   49SOL    MW4  251   0.671   4.405   0.746 -0.2733 -0.0911  0.4761
   50SOL     OW  252   0.387   2.392   0.524 -0.0649 -0.3316  0.0564
   50SOL    HW2  253   0.386   2.296   0.514  0.3242 -0.5599  1.9865
   50SOL    HW3  254   0.448   2.422   0.457  0.5308 -1.5373  0.0308
   50SOL    MW4  255   0.395   2.383   0.514  0.0650 -0.5212  0.3077
   51SOL     OW  256   3.810   3.132   0.838 -0.3206 -0.1503  0.2132
   51SOL    HW2  257   3.725   3.160   0.804 -0.2791 -0.0309  0.2092
   51SOL    HW3  258   3.874   3.176   0.782 -0.2580 -0.6003 -0.0765
   51SOL    MW4  259   3.807   3.141   0.826 -0.3073 -0.1941  0.1744
   52SOL     OW  260   1.245   0.769   0.551 -0.5640 -0.0259  0.3919
   52SOL    HW2  261   1.193   0.689   0.554 -0.3833 -0.1557  0.1378
   52SOL    HW3  262   1.181   0.839   0.540 -0.6607 -0.2191 -0.3067
   52SOL    MW4  263   1.230   0.768   0.550 -0.5529 -0.0685  0.2662
   53SOL     OW  264   1.364   2.445   0.747  0.0160  0.1897 -0.2549
   53SOL    HW2  265   1.348   2.540   0.750  1.7241  0.5162 -0.8647
   53SOL    HW3  266   1.307   2.409   0.815  0.1753  1.7759  0.7447
   53SOL    MW4  267   1.354   2.453   0.757  0.2625  0.4420 -0.2034
   54SOL     OW  268   2.308   1.681   0.470  0.2718  0.0767 -0.1550
   54SOL    HW2  269   2.378   1.615   0.470  0.2889  0.0585 -2.1746
   54SOL    HW3  270   2.231   1.634   0.437  0.3798  1.1365 -1.9805
   54SOL    MW4  271   2.307   1.666   0.465  0.2882  0.2141 -0.6623
   55SOL     OW  272   3.632   2.443   0.753  0.8131  0.1670 -0.5826
   55SOL    HW2  273   3.706   2.400   0.795  1.2622  1.8300  0.3814
   55SOL    HW3  274   3.644   2.536   0.773 -1.2086  0.5166 -0.9210
   55SOL    MW4  275   3.643   2.449   0.761  0.6058  0.4325 -0.5001
   56SOL     OW  276   1.294   4.172   0.371 -0.9567  0.1513 -0.1589
   56SOL    HW2  277   1.349   4.250   0.373  0.1427 -0.6088 -0.2729
   56SOL    HW3  278   1.213   4.199   0.414 -1.1373  1.7581 -1.4377
   56SOL    MW4  279   1.291   4.186   0.377 -0.8354  0.2627 -0.3426
   57SOL     OW  280   3.935   2.337   0.424  0.0494 -0.2054  0.0367
   57SOL    HW2  281   3.843   2.357   0.437  0.4075  0.3758  1.8364
   57SOL    HW3  282   3.950   2.350   0.330 -1.8487 -1.0385 -0.4001
   57SOL    MW4  283   3.925   2.341   0.413 -0.1535 -0.2384  0.2165
   58SOL     OW  284   4.050   1.662   0.711  0.0167  0.1243 -0.2073
   58SOL    HW2  285   4.143   1.644   0.724  0.2411  0.4080 -1.3274
   58SOL    HW3  286   4.047   1.713   0.630 -1.0287  0.9403  0.3306
   58SOL    MW4  287   4.062   1.666   0.702 -0.0916  0.2694 -0.2841
   59SOL     OW  288   0.603   4.108   0.476 -0.6525  0.2220 -0.4029
   59SOL    HW2  289   0.641   4.099   0.388  0.4411  0.6224  0.0146
   59SOL    HW3  290   0.651   4.044   0.529 -0.8088  0.4841  0.0603
   59SOL    MW4  291   0.614   4.098   0.471 -0.5288  0.3090 -0.2867
   60SOL     OW  292   0.721   2.353   0.868  0.0818 -0.0415  0.1006
   60SOL    HW2  293   0.710   2.262   0.842 -1.5905  0.0349  0.4544
   60SOL    HW3  294   0.753   2.349   0.958  0.0373 -0.2864  0.1054
   60SOL    MW4  295   0.724   2.341   0.876 -0.1447 -0.0639  0.1480
   61SOL     OW  296   4.027   3.206   0.446  0.2590 -0.1263  0.0971
   61SOL    HW2  297   4.085   3.274   0.412 -0.9892  1.3861  0.9354
   61SOL    HW3  298   4.020   3.225   0.540 -2.4014  0.3579 -0.1621
   61SOL    MW4  299   4.034   3.218   0.454 -0.2565  0.1371  0.1735
   62SOL     OW  300   3.854   2.307   0.869 -0.3624  0.1895 -0.0802
   62SOL    HW2  301   3.852   2.339   0.959  0.7430  0.6901 -0.2231
   62SOL    HW3  302   3.933   2.347   0.831 -0.4413 -0.5636 -1.0612
   62SOL    MW4  303   3.864   2.316   0.876 -0.2267  0.1564 -0.2286
   63SOL     OW  304   4.481   3.284   0.461 -0.0310  0.2535 -0.0532
   63SOL    HW2  305   4.451   3.197   0.434  1.4894 -0.4501  0.4967
   63SOL    HW3  306   4.572   3.288   0.433 -0.1508  1.7700 -0.2755
   63SOL    MW4  307   4.489   3.273   0.453  0.1535  0.3610 -0.0100
   64SOL     OW  308   2.480   3.645   0.732 -0.0009 -0.3458  0.1820
   64SOL    HW2  309   2.552   3.590   0.764 -0.6218 -0.5918  1.1693
   64SOL    HW3  310   2.401   3.597   0.754 -0.4754 -0.1228 -0.9985
   64SOL    MW4  311   2.479   3.632   0.739 -0.1454 -0.3490  0.1565
   65SOL     OW  312   2.331   2.421   0.471  0.2451 -0.0293 -0.1795
   65SOL    HW2  313   2.311   2.418   0.564  1.4913 -0.9467  0.0683
   65SOL    HW3  314   2.410   2.473   0.464 -1.2657  2.2219 -1.0033
   65SOL    MW4  315   2.339   2.427   0.482  0.2100  0.1469 -0.2555
   66SOL     OW  316   4.434   1.481   0.428 -0.2508  0.6572 -0.4475
   66SOL    HW2  317   4.389   1.561   0.455 -0.8251 -0.3692  1.8000
   66SOL    HW3  318   4.375   1.411   0.454  1.3646 -0.5994 -0.1077
   66SOL    MW4  319   4.420   1.483   0.435 -0.1135  0.3561 -0.1062
   67SOL     OW  320   0.058   2.226   0.437  0.2409 -0.4220 -0.4841
   67SOL    HW2  321   0.142   2.181   0.433 -0.3001 -1.4529 -0.5660
   67SOL    HW3  322   0.079   2.318   0.420  1.6696 -0.2272  2.0816
   67SOL    MW4  323   0.072   2.232   0.434  0.3581 -0.5326 -0.1564
   68SOL     OW  324   0.891   1.443   0.487  0.0865 -0.1735 -0.0716
   68SOL    HW2  325   0.894   1.379   0.415 -0.9518 -0.3706  0.0653
   68SOL    HW3  326   0.799   1.464   0.498  0.2236 -0.2641  1.3358
   68SOL    MW4  327   0.880   1.438   0.479 -0.0325 -0.2115  0.1322
   69SOL     OW  328   3.267   0.643   0.733 -0.4367 -0.2945  0.3268
   69SOL    HW2  329   3.285   0.721   0.785 -0.3244 -0.2582  0.2341
   69SOL    HW3  330   3.202   0.671   0.669 -0.3509 -0.2614  0.2542
   69SOL    MW4  331   3.261   0.657   0.732 -0.4106 -0.2853  0.3050
   70SOL     OW  332   0.816   4.441   0.353  0.2592  0.7129  0.3908
   70SOL    HW2  333   0.838   4.534   0.366  0.0741  0.8993 -0.6117
   70SOL    HW3  334   0.728   4.432   0.388 -0.3384  1.2730 -0.9456
   70SOL    MW4  335   0.807   4.452   0.359  0.1559  0.8111  0.0822
   71SOL     OW  336   3.672   1.891   0.358  0.0690 -0.3881 -0.1108
   71SOL    HW2  337   3.642   1.812   0.404  0.9229  0.3852  1.8291
   71SOL    HW3  338   3.754   1.863   0.315  0.7049 -0.4165  1.0870
   71SOL    MW4  339   3.679   1.877   0.358  0.2651 -0.2898  0.3032
   72SOL     OW  340   0.218   1.582   0.539 -0.0157  0.3582  0.1546
   72SOL    HW2  341   0.296   1.597   0.486  0.2175  0.3732  0.4954
   72SOL    HW3  342   0.149   1.565   0.476  0.7276 -1.8614 -0.0884
   72SOL    MW4  343   0.219   1.582   0.524  0.1131  0.0672  0.1675
   73SOL     OW  344   0.759   3.362   0.457 -0.3119  1.0489 -0.3422
   73SOL    HW2  345   0.843   3.319   0.474 -1.1613  0.2164  1.9320
   73SOL    HW3  346   0.783   3.445   0.416  1.4523 -0.6871 -3.0784
   73SOL    MW4  347   0.773   3.367   0.454 -0.1913  0.7102 -0.4032
   74SOL     OW  348   1.345   0.882   0.801 -0.7241 -0.0102  0.2777
   74SOL    HW2  349   1.318   0.850   0.715 -0.5844 -0.0980  0.2660
   74SOL    HW3  350   1.269   0.867   0.858 -0.8470  0.1309  0.1475
   74SOL    MW4  351   1.331   0.876   0.798 -0.7219 -0.0032  0.2590
   75SOL     OW  352   0.847   2.928   0.468  0.5339 -0.3644  0.0493
   75SOL    HW2  353   0.776   2.935   0.405  0.0025  1.3125  0.8102
   75SOL    HW3  354   0.804   2.898   0.549  0.3847  2.2702  0.9825
   75SOL    MW4  355   0.832   2.925   0.471  0.4441  0.2046  0.2728
   76SOL     OW  356   2.857   4.195   0.478  0.5010  0.8717  0.0800
   76SOL    HW2  357   2.872   4.281   0.516 -0.4398  0.9276  0.3220
   76SOL    HW3  358   2.944   4.153   0.478  0.8367  1.5671  0.5539
   76SOL    MW4  359   2.871   4.201   0.483  0.4215  0.9708  0.1744
   77SOL     OW  360   3.001   2.392   0.313  0.2228 -0.0013  0.3266
   77SOL    HW2  361   3.014   2.457   0.244  0.0159 -0.0571  0.2367
   77SOL    HW3  362   3.079   2.401   0.369 -0.4957  1.3542  1.1631
   77SOL    MW4  363   3.013   2.402   0.312  0.1004  0.1700  0.4251
   78SOL     OW  364   4.361   4.561   0.425 -0.1785  0.1618 -0.2333
   78SOL    HW2  365   4.354   4.534   0.516 -0.4799  1.0263  0.0081
   78SOL    HW3  366   4.413   4.493   0.383 -1.2433 -0.9889  0.2685
   78SOL    MW4  367   4.367   4.549   0.432 -0.3586  0.1240 -0.1353
   79SOL     OW  368   1.801   0.961   0.689 -0.2253 -0.0184  0.0154
   79SOL    HW2  369   1.830   0.969   0.598 -2.2136  0.5589 -0.5964
   79SOL    HW3  370   1.872   0.914   0.733  1.5833  1.3168 -1.4125
   79SOL    MW4  371   1.814   0.955   0.683 -0.2490  0.2339 -0.2537
   80SOL     OW  372   0.978   0.267   0.257  0.2217 -0.1294 -0.5482
   80SOL    HW2  373   0.968   0.280   0.163  1.6674  1.7912 -0.4760
   80SOL    HW3  374   0.929   0.339   0.297 -1.1902 -1.4884  0.2017
   80SOL    MW4  375   0.970   0.278   0.250  0.2261 -0.0553 -0.4397
   81SOL     OW  376   1.347   1.184   0.805 -0.4375  0.1697 -0.6015
   81SOL    HW2  377   1.426   1.234   0.783 -0.8427  0.3777 -1.6437
   81SOL    HW3  378   1.361   1.098   0.765 -0.6208  0.1165 -0.5516
   81SOL    MW4  379   1.359   1.179   0.796 -0.5151  0.1901 -0.7324
   82SOL     OW  380   2.846   2.554   0.487  0.5043 -0.2448  0.1446
   82SOL    HW2  381   2.891   2.490   0.432  2.2488  1.0645  0.0247
   82SOL    HW3  382   2.829   2.508   0.569  0.2661 -1.3736 -0.5345
   82SOL    MW4  383   2.849   2.540   0.490  0.7031 -0.2210  0.0392
   83SOL     OW  384   3.223   2.417   0.488  0.2633  0.1201  0.2192
   83SOL    HW2  385   3.197   2.445   0.575  1.7341  2.7518 -0.1363
   83SOL    HW3  386   3.230   2.322   0.494 -0.6401  0.1854  2.6719
   83SOL    MW4  387   3.220   2.408   0.500  0.3381  0.4761  0.4959
   84SOL     OW  388   2.467   1.920   0.429 -0.0473 -0.0937  0.1874
   84SOL    HW2  389   2.411   1.842   0.435  0.2851 -0.4466 -1.2012
   84SOL    HW3  390   2.529   1.899   0.359  1.4866  0.5097  1.3409
   84SOL    MW4  391   2.468   1.907   0.421  0.1988 -0.0608  0.1563
   85SOL     OW  392   2.663   0.892   0.437 -0.1903 -0.2620  0.2311
   85SOL    HW2  393   2.737   0.908   0.378  0.4484 -1.0361  0.8179
   85SOL    HW3  394   2.703   0.884   0.524 -0.7667 -2.4469  0.3125
   85SOL    MW4  395   2.678   0.893   0.441 -0.1819 -0.6524  0.3193
   86SOL     OW  396   2.060   2.057   0.614 -0.2784  0.0117 -0.4799
   86SOL    HW2  397   2.122   2.079   0.543 -0.6813  0.3777 -0.7190
   86SOL    HW3  398   2.048   2.140   0.661  1.1025 -0.5333  0.9076
   86SOL    MW4  399   2.067   2.071   0.611 -0.1490 -0.0122 -0.3284
   87SOL     OW  400   3.262   2.773   0.287  0.3680 -0.2944  0.1534
   87SOL    HW2  401   3.276   2.865   0.311  0.2606 -0.3476  0.4257
   87SOL    HW3  402   3.346   2.731   0.304  0.8495  0.0343 -1.3306
   87SOL    MW4  403   3.275   2.780   0.292  0.4172 -0.2580 -0.0065
   88SOL     OW  404   1.638   3.044   0.393 -0.1757 -0.3021  0.3042
   88SOL    HW2  405   1.553   3.035   0.436 -0.1165  1.1732  0.7633
   88SOL    HW3  406   1.625   3.113   0.328  0.1962 -1.3279 -0.8774
   88SOL    MW4  407   1.625   3.052   0.390 -0.1190 -0.2432  0.2089
   89SOL     OW  408   1.604   0.539   0.741 -0.2033 -0.0649  0.5341
   89SOL    HW2  409   1.517   0.508   0.767 -0.1040 -1.0087 -0.1959
   89SOL    HW3  410   1.610   0.627   0.776 -1.5768  0.1174  0.3484
   89SOL    MW4  411   1.593   0.546   0.749 -0.3713 -0.1654  0.4133
   90SOL     OW  412   1.798   2.689   0.842 -0.6697  0.3014 -0.2682
   90SOL    HW2  413   1.730   2.741   0.800  0.2437  2.1935  0.5247
   90SOL    HW3  414   1.877   2.707   0.792 -0.2249  0.1086  0.3562
   90SOL    MW4  415   1.799   2.698   0.830 -0.4905  0.5255 -0.0811
   91SOL     OW  416   2.872   0.023   0.821  0.2444 -0.1801 -0.3325
   91SOL    HW2  417   2.954   0.072   0.824  0.0622  0.0994  0.0066
   91SOL    HW3  418   2.900  -0.068   0.808  0.5453  0.1285 -2.0873
   91SOL    MW4  419   2.887   0.017   0.819  0.2601 -0.1025 -0.5193
   92SOL     OW  420   0.691   3.062   0.797  0.3757  0.2570  0.5564
   92SOL    HW2  421   0.627   3.124   0.763  0.7543  0.2848 -0.1142
   92SOL    HW3  422   0.661   2.976   0.766  0.7399  0.2868  0.1058
   92SOL    MW4  423   0.679   3.058   0.788  0.4737  0.2646  0.4085
   93SOL     OW  424   1.175   2.289   0.878 -0.3294 -0.1986 -0.0610
   93SOL    HW2  425   1.185   2.292   0.973  1.2075 -0.8434 -0.1857
   93SOL    HW3  426   1.109   2.355   0.858 -1.7736 -1.1067  1.5918
   93SOL    MW4  427   1.168   2.298   0.888 -0.3172 -0.4034  0.1406
   94SOL     OW  428   1.013   2.031   0.535 -0.0465 -0.3849 -0.5842
   94SOL    HW2  429   1.005   2.126   0.526 -0.4044 -0.3657 -0.0823
   94SOL    HW3  430   1.053   2.018   0.621 -0.4987 -0.7087 -0.4238
   94SOL    MW4  431   1.017   2.041   0.545 -0.1534 -0.4251 -0.4969
   95SOL     OW  432   2.254   1.678   0.733 -0.1256 -0.2052  0.1634
   95SOL    HW2  433   2.332   1.635   0.770 -0.1420 -1.0486 -0.7769
   95SOL    HW3  434   2.272   1.684   0.640 -1.0462 -0.0868 -0.0088
   95SOL    MW4  435   2.267   1.673   0.726 -0.2491 -0.3009  0.0166
   96SOL     OW  436   2.694   1.140   0.821 -0.1114  0.1473 -0.5360
   96SOL    HW2  437   2.632   1.195   0.773  0.1964 -0.5484 -1.7311
   96SOL    HW3  438   2.718   1.070   0.760 -0.2461 -1.1374  0.8598
   96SOL    MW4  439   2.689   1.138   0.807 -0.0887 -0.1138 -0.5096
   97SOL     OW  440   1.188   3.973   0.209  0.0324  0.4993  0.0274
   97SOL    HW2  441   1.213   4.059   0.243 -0.8731  1.3690 -1.4406
   97SOL    HW3  442   1.270   3.925   0.202  0.8233  1.9549 -1.0042
   97SOL    MW4  443   1.202   3.978   0.212  0.0174  0.8063 -0.3024
   98SOL     OW  444   0.982   3.180   0.477 -0.1797 -0.2398  0.7823
   98SOL    HW2  445   1.072   3.179   0.446 -0.6428  0.0417 -0.6366
   98SOL    HW3  446   0.946   3.096   0.448 -0.4011 -0.3180  1.2742
   98SOL    MW4  447   0.989   3.169   0.469 -0.2700 -0.2131  0.6600
   99SOL     OW  448   4.435   3.843   0.466  0.6931  0.4658  0.0960
   99SOL    HW2  449   4.437   3.886   0.552 -0.8943  1.7804 -0.4963
   99SOL    HW3  450   4.381   3.766   0.479  1.4318  0.0165  0.5501
   99SOL    MW4  451   4.428   3.839   0.479  0.5808  0.5798  0.0778
  100SOL     OW  452   3.984   0.181   0.492  0.5390  0.8075  0.1108
  100SOL    HW2  453   3.949   0.269   0.479  0.2888  0.8247  0.8604
  100SOL    HW3  454   3.913   0.123   0.464  0.4849  0.8451  0.1709
  100SOL    MW4  455   3.970   0.185   0.487  0.4988  0.8147  0.2176
  101SOL     OW  456   1.323   3.218   0.725 -0.3958 -0.6511 -0.0820
  101SOL    HW2  457   1.272   3.193   0.802 -0.2380  1.8423  0.8512
  101SOL    HW3  458   1.406   3.172   0.735 -0.1835  0.0574  1.5074
  101SOL    MW4  459   1.327   3.208   0.736 -0.3471 -0.2286  0.2508
  102SOL     OW  460   2.636   2.272   0.487  0.0299  0.6619 -0.1525
  102SOL    HW2  461   2.687   2.297   0.564 -0.8247 -0.5228  0.8037
  102SOL    HW3  462   2.582   2.349   0.467  0.5040  1.0917  0.2032
  102SOL    MW4  463   2.636   2.286   0.494 -0.0205  0.5622  0.0206
  103SOL     OW  464   2.140   4.466   0.477 -0.5985  0.0405 -0.2372
  103SOL    HW2  465   2.151   4.416   0.396  2.3002  0.8465 -0.4150
  103SOL    HW3  466   2.152   4.557   0.450  1.1095  0.2656  1.1833
  103SOL    MW4  467   2.143   4.471   0.463  0.0093  0.1769 -0.0733
  104SOL     OW  468   2.673   1.600   0.311  0.3272 -0.6118 -0.0597
  104SOL    HW2  469   2.662   1.679   0.258  0.8579 -0.3845  0.1705
  104SOL    HW3  470   2.760   1.609   0.349  0.0503 -0.9074  0.6353
  104SOL    MW4  471   2.683   1.612   0.309  0.3605 -0.6210  0.0624
  105SOL     OW  472   3.191   0.144   0.499  0.3144  0.2319 -0.4393
  105SOL    HW2  473   3.253   0.201   0.455 -0.6754  1.5569 -0.1716
  105SOL    HW3  474   3.106   0.166   0.460 -0.4479  0.7830  1.4310
  105SOL    MW4  475   3.188   0.154   0.488  0.0830  0.4795 -0.1572
  106SOL     OW  476   0.611   2.972   0.305  0.0628  0.2362 -0.3520
  106SOL    HW2  477   0.574   3.043   0.356  1.1140 -0.3739  1.2774
  106SOL    HW3  478   0.608   3.003   0.214  1.8844  2.9686  0.4773
  106SOL    MW4  479   0.606   2.985   0.299  0.4418  0.5164 -0.0276
  107SOL     OW  480   2.023   0.833   0.813 -0.2577 -0.3333  0.2621
  107SOL    HW2  481   2.019   0.739   0.796 -1.6516 -0.3498  0.6509
  107SOL    HW3  482   2.115   0.856   0.798 -0.1805 -1.4984 -1.1787
  107SOL    MW4  483   2.035   0.823   0.809 -0.4315 -0.4892  0.1233
  108SOL     OW  484   3.716   1.372   0.465 -0.3559  0.4591 -0.6093
  108SOL    HW2  485   3.671   1.293   0.435 -2.1106  1.0097  0.5629
  108SOL    HW3  486   3.753   1.348   0.550 -1.7774  1.1818  0.2402
  108SOL    MW4  487   3.715   1.358   0.472 -0.7751  0.6269 -0.3426
  109SOL     OW  488   1.772   2.397   0.453 -0.3379 -0.0282  0.0369
  109SOL    HW2  489   1.793   2.416   0.544  0.1277  0.9602 -0.2811
  109SOL    HW3  490   1.851   2.355   0.418  0.1718  1.3023 -0.4284
  109SOL    MW4  491   1.785   2.394   0.460 -0.2093  0.2778 -0.0664
  110SOL     OW  492   0.530   2.728   0.443 -0.7140 -0.2752 -0.4141
  110SOL    HW2  493   0.540   2.651   0.386 -1.4044 -0.9069  0.3002
  110SOL    HW3  494   0.579   2.797   0.399  1.4993 -1.6191 -0.1243
  110SOL    MW4  495   0.538   2.727   0.430 -0.5131 -0.5360 -0.2816
  111SOL     OW  496   0.867   0.479   0.425 -0.0434 -0.5421  0.1007
  111SOL    HW2  497   0.781   0.443   0.447  0.1145 -0.9769  0.0227
  111SOL    HW3  498   0.852   0.573   0.414 -1.0088 -0.9307 -2.3488
  111SOL    MW4  499   0.854   0.486   0.426 -0.1499 -0.6508 -0.2328
  112SOL     OW  500   1.362   2.646   0.462  0.0418  0.2075 -0.0277
  112SOL    HW2  501   1.320   2.561   0.473  1.0167 -0.2629  0.1007
  112SOL    HW3  502   1.455   2.626   0.454  0.2721  1.2608 -0.0510
  112SOL    MW4  503   1.368   2.632   0.462  0.2007  0.2844 -0.0138
  113SOL     OW  504   0.655   2.081   0.804 -0.7416 -0.1158  0.4790
  113SOL    HW2  505   0.582   2.037   0.848 -0.0569 -0.7184  1.0335
  113SOL    HW3  506   0.733   2.039   0.841 -0.0476  2.0716  1.5656
  113SOL    MW4  507   0.656   2.069   0.815 -0.5597  0.0935  0.6956
  114SOL     OW  508   4.252   0.205   0.437 -0.9800 -0.0479 -0.1640
  114SOL    HW2  509   4.282   0.114   0.427 -0.8827  0.0188 -0.4945
  114SOL    HW3  510   4.159   0.198   0.457 -1.2429 -0.1763 -1.4205
  114SOL    MW4  511   4.244   0.192   0.438 -1.0018 -0.0561 -0.3735
  115SOL     OW  512   0.580   2.486   0.327 -0.1019  0.4798  0.0050
  115SOL    HW2  513   0.568   2.480   0.233 -1.5498 -1.1034  0.2695
  115SOL    HW3  514   0.642   2.416   0.348 -0.2473  0.4403  0.3051
  115SOL    MW4  515   0.587   2.476   0.318 -0.3121  0.2658  0.0795
  116SOL     OW  516   0.613   3.675   0.531 -0.4886  0.2100 -0.6982
  116SOL    HW2  517   0.625   3.762   0.570 -0.1856 -0.2339  0.2237
  116SOL    HW3  518   0.651   3.615   0.595 -1.9088 -0.7203 -0.7162
  116SOL    MW4  519   0.620   3.678   0.545 -0.6360  0.0288 -0.5789
  117SOL     OW  520   3.979   1.420   0.388  0.1401 -0.6421 -0.2369
  117SOL    HW2  521   3.891   1.382   0.393  0.2542 -0.9798 -0.6802
  117SOL    HW3  522   4.036   1.353   0.426  0.3071 -0.7989 -0.7513
  117SOL    MW4  523   3.975   1.406   0.394  0.1774 -0.7073 -0.3633
  118SOL     OW  524   4.248   3.400   0.359  0.3835 -0.0158 -0.2695
  118SOL    HW2  525   4.267   3.433   0.271  0.5793 -0.6872 -0.4843
  118SOL    HW3  526   4.333   3.377   0.396  0.2347 -0.4589 -0.1975
  118SOL    MW4  527   4.261   3.401   0.352  0.3905 -0.1628 -0.2884
  119SOL     OW  528   2.450   4.431   0.777  0.2702  0.2110  0.2661
  119SOL    HW2  529   2.526   4.385   0.813  1.5296  2.3371  0.4168
  119SOL    HW3  530   2.444   4.512   0.828 -1.2059  0.7676 -0.7382
  119SOL    MW4  531   2.459   4.436   0.789  0.2418  0.5651  0.1535
  120SOL     OW  532   2.441   0.494   0.747  0.3249  0.2077  0.1853
  120SOL    HW2  533   2.355   0.467   0.778  0.6900 -0.6907  0.4320
  120SOL    HW3  534   2.434   0.494   0.652 -0.7953  2.9555  0.1994
  120SOL    MW4  535   2.429   0.491   0.739  0.2253  0.4517  0.2198
  121SOL     OW  536   2.899   3.670   0.455  0.5287 -0.1784  0.0017
  121SOL    HW2  537   2.984   3.704   0.426  0.2894  1.3591  1.0590
  121SOL    HW3  538   2.836   3.737   0.428  0.0908  0.4338  2.4818
  121SOL    MW4  539   2.902   3.683   0.448  0.4394  0.1054  0.4685
  122SOL     OW  540   1.109   4.622   0.852  0.1075 -0.0954  0.5687
  122SOL    HW2  541   1.121   4.537   0.810  0.8627  0.3393 -0.1130
  122SOL    HW3  542   1.037   4.663   0.803  0.9902  0.4123 -0.3408
  122SOL    MW4  543   1.101   4.616   0.840  0.3235  0.0296  0.3587
  123SOL     OW  544   1.124   3.639   0.714  0.0276 -0.1560  0.1996
  123SOL    HW2  545   1.110   3.723   0.757  1.3156  0.6110 -0.8016
  123SOL    HW3  546   1.097   3.654   0.623  1.1568 -0.5188 -0.2106
  123SOL    MW4  547   1.119   3.652   0.708  0.3468 -0.1030  0.0134
  124SOL     OW  548   2.501   1.545   0.804 -0.0163 -0.3130  0.4373
  124SOL    HW2  549   2.492   1.453   0.779 -0.1556 -0.1280 -0.2014
  124SOL    HW3  550   2.592   1.566   0.785 -0.1374 -0.1562  0.0188
  124SOL    MW4  551   2.512   1.536   0.798 -0.0505 -0.2677  0.2978
  125SOL     OW  552   2.964   3.087   0.451  0.1608  0.3816 -0.2181
  125SOL    HW2  553   3.048   3.122   0.480  0.9549 -0.2096 -1.7545
  125SOL    HW3  554   2.979   2.993   0.442 -1.1395  0.0373  1.0881
  125SOL    MW4  555   2.977   3.079   0.454  0.0939  0.2582 -0.2485
  126SOL     OW  556   3.541   0.714   0.378 -0.2764  0.0512  0.3341
  126SOL    HW2  557   3.612   0.674   0.328  0.5593 -0.0001  1.5398
  126SOL    HW3  558   3.521   0.650   0.446 -1.4294  0.1048  0.0541
  126SOL    MW4  559   3.548   0.700   0.380 -0.3183  0.0516  0.4562
  127SOL     OW  560   0.968   1.666   0.862  0.3213 -0.0420  0.2827
  127SOL    HW2  561   0.884   1.619   0.868 -0.1593  0.6903 -0.7671
  127SOL    HW3  562   0.944   1.758   0.859  1.1116  0.1288 -1.1202
  127SOL    MW4  563   0.954   1.672   0.863  0.3622  0.0772 -0.0409
  128SOL     OW  564   0.383   3.985   0.770  0.4065 -0.3875 -0.2190
  128SOL    HW2  565   0.355   4.005   0.681  0.6108  2.0901  0.2313
  128SOL    HW3  566   0.393   4.070   0.812  1.5774 -1.4629  1.7988
  128SOL    MW4  567   0.381   3.999   0.764  0.5879 -0.2024  0.1068
  129SOL     OW  568   2.451   2.822   0.466 -0.2528 -0.0960  0.2073
  129SOL    HW2  569   2.448   2.837   0.560 -0.6349  0.2997  0.1329
  129SOL    HW3  570   2.381   2.877   0.430  0.9691  1.0386 -0.4711
  129SOL    MW4  571   2.441   2.831   0.473 -0.1421  0.1061  0.1079
  130SOL     OW  572   2.283   3.812   0.430 -0.2300 -0.6060  0.2469
  130SOL    HW2  573   2.205   3.756   0.434 -0.5595 -0.0595  1.6051
  130SOL    HW3  574   2.254   3.896   0.464  0.4672  0.1973 -1.0931
  130SOL    MW4  575   2.269   3.815   0.435 -0.1814 -0.4282  0.2493
  131SOL     OW  576   1.350   3.959   0.778  0.1768  0.2752 -0.3056
  131SOL    HW2  577   1.422   3.926   0.832 -0.1991 -0.8155 -0.4614
  131SOL    HW3  578   1.376   3.938   0.689  0.4331  1.3838 -0.4984
  131SOL    MW4  579   1.363   3.952   0.774  0.1609  0.2770 -0.3516
  132SOL     OW  580   2.278   2.412   0.745  0.0301  0.1019  0.1823
  132SOL    HW2  581   2.347   2.355   0.780  0.4307 -0.1222 -0.9347
  132SOL    HW3  582   2.196   2.370   0.773  0.3372  0.4090  1.5723
  132SOL    MW4  583   2.276   2.399   0.753  0.1233  0.1128  0.2183
  133SOL     OW  584   0.806   3.610   0.350  0.1757 -0.1746 -0.4960
  133SOL    HW2  585   0.886   3.651   0.381 -0.4100 -0.6485  1.7459
  133SOL    HW3  586   0.744   3.620   0.423 -1.5701 -0.4923 -1.8825
  133SOL    MW4  587   0.808   3.617   0.364 -0.1320 -0.2789 -0.3832
  134SOL     OW  588   1.730   4.515   0.452  0.3661  0.0349 -0.0761
  134SOL    HW2  589   1.739   4.610   0.446 -0.3820  0.0955 -0.4154
  134SOL    HW3  590   1.702   4.499   0.542  2.3713 -0.0381  0.5526
  134SOL    MW4  591   1.727   4.526   0.463  0.5318  0.0339 -0.0379
  135SOL     OW  592   2.958   2.040   0.780 -0.3437 -0.3320  0.0730
  135SOL    HW2  593   2.868   2.009   0.791 -0.8950  1.4094  0.6684
  135SOL    HW3  594   2.976   2.027   0.686 -1.5374  0.1405 -0.2332
  135SOL    MW4  595   2.948   2.034   0.769 -0.5739 -0.0403  0.1112
  136SOL     OW  596   1.643   2.636   0.488 -0.3829  0.0224 -0.3031
  136SOL    HW2  597   1.684   2.554   0.463 -0.7106 -0.3615  0.3820
  136SOL    HW3  598   1.678   2.701   0.428 -1.0208 -0.8359 -1.6244
  136SOL    MW4  599   1.653   2.634   0.477 -0.5102 -0.1416 -0.3870
  137SOL     OW  600   1.880   0.983   0.421  0.4356  0.4584 -0.0442
  137SOL    HW2  601   1.956   0.936   0.387 -0.0803  0.3172 -1.0000
  137SOL    HW3  602   1.896   1.075   0.399  0.7416  0.5444  0.5262
  137SOL    MW4  603   1.892   0.989   0.414  0.4077  0.4511 -0.0951
  138SOL     OW  604   0.198   3.625   0.723  0.4336  0.6424 -0.0482
  138SOL    HW2  605   0.276   3.580   0.755 -0.2860  0.2331  1.1494
  138SOL    HW3  606   0.187   3.699   0.782 -1.6321 -0.8413  1.5059
  138SOL    MW4  607   0.207   3.629   0.735  0.0661  0.3929  0.3148
  139SOL     OW  608   2.016   4.392   0.700  0.1230 -0.5404 -0.1446
  139SOL    HW2  609   2.091   4.356   0.747  0.3524 -0.1800 -0.2263
  139SOL    HW3  610   2.050   4.411   0.613  0.0280 -0.0606 -0.0790
  139SOL    MW4  611   2.031   4.390   0.695  0.1409 -0.4301 -0.1467
  140SOL     OW  612   1.287   2.365   0.483 -0.2303  0.4278 -0.5860
  140SOL    HW2  613   1.327   2.280   0.469 -0.5169  0.0939  0.5951
  140SOL    HW3  614   1.312   2.390   0.572 -0.4274  1.4232 -0.7937
  140SOL    MW4  615   1.295   2.357   0.492 -0.2942  0.5150 -0.4576
  141SOL     OW  616   1.641   3.288   0.250  0.2865 -0.2484 -0.0931
  141SOL    HW2  617   1.556   3.330   0.264  0.7749  0.7701 -0.1663
  141SOL    HW3  618   1.696   3.319   0.322  1.3218  1.0334 -1.4130
  141SOL    MW4  619   1.637   3.297   0.261  0.4876  0.0553 -0.2769
  142SOL     OW  620   0.403   0.518   0.444 -0.6033  0.4534  0.3038
  142SOL    HW2  621   0.451   0.592   0.406  0.0962 -0.5607 -0.8523
  142SOL    HW3  622   0.332   0.502   0.382 -1.4735  0.9146  1.1778
  142SOL    MW4  623   0.400   0.526   0.431 -0.6258  0.3805  0.2666
  143SOL     OW  624   3.157   0.800   0.258 -0.1728  0.4161 -0.2462
  143SOL    HW2  625   3.131   0.762   0.342  0.4444  1.7601  0.5684
  143SOL    HW3  626   3.216   0.736   0.219  0.3924  0.2722  0.8433
  143SOL    MW4  627   3.161   0.787   0.264 -0.0169  0.5744  0.0051
  144SOL     OW  628   0.517   3.206   0.432 -0.6393 -0.1221  0.3923
  144SOL    HW2  629   0.497   3.195   0.525 -0.1169  0.9869  0.6398
  144SOL    HW3  630   0.591   3.266   0.430 -0.4734 -0.3501 -0.7345
  144SOL    MW4  631   0.524   3.212   0.444 -0.5485 -0.0062  0.2763
  145SOL     OW  632   4.297   4.443   0.666  0.2183 -0.0639 -0.6109
  145SOL    HW2  633   4.362   4.378   0.695 -0.7195 -1.0788 -0.7197
  145SOL    HW3  634   4.301   4.512   0.731  1.6942  0.0763 -0.8398
  145SOL    MW4  635   4.306   4.443   0.678  0.2890 -0.1798 -0.6554
  146SOL     OW  636   2.358   0.876   0.521  0.2942  0.0554 -0.0737
  146SOL    HW2  637   2.320   0.947   0.469  0.6445  0.5868  0.3986
  146SOL    HW3  638   2.449   0.871   0.492  0.6748  0.8192  0.9978
  146SOL    MW4  639   2.365   0.885   0.510  0.3908  0.2264  0.1299
  147SOL     OW  640   3.501   4.554   0.520 -0.0077  0.5795  0.0944
  147SOL    HW2  641   3.408   4.544   0.498  0.2589 -0.9288 -0.4210
  147SOL    HW3  642   3.502   4.614   0.595 -1.4332  0.1094  0.5024
  147SOL    MW4  643   3.489   4.561   0.527 -0.1605  0.3190  0.0802
  148SOL     OW  644   0.038   0.281   0.384 -0.3255 -0.5657 -0.2327
  148SOL    HW2  645   0.086   0.206   0.418 -0.1743 -0.0887  0.6376
  148SOL    HW3  646  -0.054   0.260   0.400 -0.2548 -0.3484  0.4655
  148SOL    MW4  647   0.032   0.269   0.391 -0.2962 -0.4741 -0.0258
  149SOL     OW  648   1.548   0.298   0.367 -0.0413  0.2255 -0.4544
  149SOL    HW2  649   1.479   0.234   0.385  0.0109 -0.0171 -1.1062
  149SOL    HW3  650   1.515   0.349   0.294 -0.0629  0.9236  0.0334
  149SOL    MW4  651   1.535   0.296   0.360 -0.0372  0.2856 -0.4761
  150SOL     OW  652   3.795   3.572   0.504  0.1541  0.6565 -0.3544
  150SOL    HW2  653   3.802   3.603   0.595  2.2942  1.3268 -0.7190
  150SOL    HW3  654   3.855   3.629   0.455 -1.0146  0.3331 -2.2081
  150SOL    MW4  655   3.803   3.584   0.510  0.2823  0.7021 -0.6471
  151SOL     OW  656   0.760   2.299   0.437 -0.0754  0.4605  0.4010
  151SOL    HW2  657   0.849   2.304   0.471 -0.5552  0.7696  1.6406
  151SOL    HW3  658   0.726   2.216   0.470 -0.5345  0.7417  0.6445
  151SOL    MW4  659   0.767   2.289   0.446 -0.1993  0.5381  0.5967
  152SOL     OW  660   3.100   4.017   0.757  0.0895  0.2645 -0.0138
  152SOL    HW2  661   3.034   3.970   0.809  0.2763  0.0476  0.0289
  152SOL    HW3  662   3.182   3.971   0.775  0.3087  0.7140  0.1681
  152SOL    MW4  663   3.102   4.005   0.766  0.1431  0.2947  0.0158
  153SOL     OW  664   2.228   0.672   0.386 -0.3393 -0.3254  0.2345
  153SOL    HW2  665   2.263   0.742   0.441  0.6164 -0.6903  0.1050
  153SOL    HW3  666   2.300   0.609   0.378 -0.4890 -0.3217 -1.3608
  153SOL    MW4  667   2.242   0.673   0.392 -0.2332 -0.3731  0.0069
  154SOL     OW  668   1.424   3.958   0.517 -0.3966  0.0446 -0.0959
  154SOL    HW2  669   1.516   3.983   0.512 -0.5842  0.8434  0.2232
  154SOL    HW3  670   1.377   4.034   0.482 -0.9036 -0.5916 -0.8165
  154SOL    MW4  671   1.430   3.972   0.512 -0.4883  0.0660 -0.1488
  155SOL     OW  672   0.569   4.384   0.490  0.2113  0.1190  0.3406
  155SOL    HW2  673   0.473   4.389   0.487  0.1725 -0.9066 -0.0453
  155SOL    HW3  674   0.589   4.291   0.490  1.2544  0.3378 -0.7233
  155SOL    MW4  675   0.559   4.373   0.490  0.3438  0.0124  0.1493
  156SOL     OW  676   2.793   0.926   0.679 -0.0056 -0.2277 -0.0040
  156SOL    HW2  677   2.887   0.938   0.663 -0.1486  0.0431 -0.6608
  156SOL    HW3  678   2.789   0.867   0.754  0.6912 -0.0241  0.1981
  156SOL    MW4  679   2.805   0.920   0.687  0.0672 -0.1650 -0.0640
  157SOL     OW  680   2.980   2.304   0.864  0.0227  0.1557  0.2142
  157SOL    HW2  681   2.976   2.213   0.837  0.5163  0.5441 -1.1976
  157SOL    HW3  682   2.969   2.301   0.959 -2.1792 -1.2070 -0.0368
  157SOL    MW4  683   2.978   2.292   0.873 -0.2029  0.0272 -0.0052
  158SOL     OW  684   2.118   1.499   0.386  0.5808 -0.4013 -0.2891
  158SOL    HW2  685   2.053   1.556   0.344  2.9269  1.3106 -1.7302
  158SOL    HW3  686   2.071   1.416   0.401 -2.3839  1.2926  0.2440
  158SOL    MW4  687   2.103   1.496   0.382  0.4992  0.0480 -0.4089
  159SOL     OW  688   0.208   0.452   0.242 -0.0926 -0.2875 -0.0267
  159SOL    HW2  689   0.167   0.390   0.303  0.0076  0.8462  1.2113
  159SOL    HW3  690   0.216   0.403   0.160 -0.3250 -1.8012  0.8371
  159SOL    MW4  691   0.203   0.437   0.239 -0.1101 -0.3377  0.2506
  160SOL     OW  692   0.048   0.104   0.776  0.3282 -0.2405  0.5545
  160SOL    HW2  693  -0.037   0.067   0.802 -0.1103  0.8766  0.7330
  160SOL    HW3  694   0.034   0.199   0.774  1.4160 -0.0779  0.0078
  160SOL    MW4  695   0.035   0.112   0.779  0.4139 -0.0716  0.5060
  161SOL     OW  696   0.653   1.323   0.714  0.1639 -0.1629 -0.5281
  161SOL    HW2  697   0.632   1.346   0.623  1.4223  1.6830 -0.3882
  161SOL    HW3  698   0.686   1.405   0.752  0.3851 -1.1130  1.3716
  161SOL    MW4  699   0.654   1.337   0.707  0.3592 -0.0447 -0.2590
  162SOL     OW  700   0.238   2.749   0.484 -0.6469  0.1779  0.4698
  162SOL    HW2  701   0.237   2.782   0.574  0.0638  0.7713  0.2606
  162SOL    HW3  702   0.331   2.743   0.462 -0.8142 -0.2440 -0.1266
  162SOL    MW4  703   0.250   2.752   0.493 -0.5752  0.2007  0.3636
  163SOL     OW  704   3.665   0.882   0.546  0.1202  0.5557  0.1486
  163SOL    HW2  705   3.638   0.818   0.480 -1.0815  2.0991 -0.8716
  163SOL    HW3  706   3.759   0.892   0.533  0.3521 -1.0809  0.4106
  163SOL    MW4  707   3.674   0.875   0.536 -0.0076  0.5434  0.0486
  164SOL     OW  708   0.508   1.622   0.467  0.2790  0.4011  0.1445
  164SOL    HW2  709   0.532   1.714   0.461  0.3614  0.3878  0.2539
  164SOL    HW3  710   0.500   1.606   0.561 -0.4840  0.4894  0.1012
  164SOL    MW4  711   0.510   1.632   0.479  0.1892  0.4110  0.1533
  165SOL     OW  712   2.650   0.131   0.710  0.2805  0.2713 -0.1147
  165SOL    HW2  713   2.643   0.216   0.754 -1.2763  0.0302  0.1321
  165SOL    HW3  714   2.732   0.094   0.741 -0.5501  0.3346  2.2049
  165SOL    MW4  715   2.660   0.137   0.720 -0.0346  0.2479  0.2240
  166SOL     OW  716   0.881   1.188   0.800 -0.3094 -0.3108 -0.3454
  166SOL    HW2  717   0.805   1.235   0.767  0.6139  0.8927 -0.7931
  166SOL    HW3  718   0.954   1.219   0.746  0.5593 -1.1785  0.3143
  166SOL    MW4  719   0.881   1.199   0.789 -0.0730 -0.2664 -0.3174
  167SOL     OW  720   0.002   3.239   0.728  0.0494 -0.4664  0.3670
  167SOL    HW2  721  -0.002   3.249   0.633 -0.8153 -0.6191  0.3887
  167SOL    HW3  722   0.006   3.329   0.762  1.4336 -0.4267  0.1510
  167SOL    MW4  723   0.002   3.253   0.720  0.1179 -0.4811  0.3414
  168SOL     OW  724   1.372   0.442   0.199 -0.1896  0.5003 -0.2581
  168SOL    HW2  725   1.375   0.529   0.237  0.5555  0.7918 -0.9793
  168SOL    HW3  726   1.350   0.456   0.107  1.2143  0.0250 -0.6823
  168SOL    MW4  727   1.369   0.455   0.192  0.0941  0.4760 -0.4093
  169SOL     OW  728   2.832   2.121   0.339 -0.1535 -0.5243  0.7109
  169SOL    HW2  729   2.763   2.160   0.393 -0.2346 -0.4792  0.5748
  169SOL    HW3  730   2.871   2.194   0.292 -0.7725 -0.6912 -0.0762
  169SOL    MW4  731   2.828   2.135   0.340 -0.2458 -0.5403  0.5891
  170SOL     OW  732   1.016   2.319   0.536  0.4938  0.5894 -0.4148
  170SOL    HW2  733   1.108   2.328   0.512  1.0506 -0.0336  1.3801
  170SOL    HW3  734   1.010   2.363   0.621 -0.4095 -1.1827  0.4663
  170SOL    MW4  735   1.027   2.326   0.544  0.4480  0.2732 -0.0618
  171SOL     OW  736   3.312   3.063   0.407  0.4011  0.0685  0.8020
  171SOL    HW2  737   3.279   3.152   0.419 -0.8131 -0.1613 -0.6133
  171SOL    HW3  738   3.407   3.071   0.410  0.2893  1.3659  1.0188
  171SOL    MW4  739   3.320   3.076   0.409  0.2260  0.2093  0.6439
  172SOL     OW  740   1.338   1.688   0.618 -0.0435  0.6102  0.0244
  172SOL    HW2  741   1.252   1.648   0.637 -0.7912  2.4708  0.6823
  172SOL    HW3  742   1.322   1.743   0.542  0.7971  0.2400 -0.4160
  172SOL    MW4  743   1.324   1.690   0.611 -0.0312  0.8068  0.0531
  173SOL     OW  744   1.675   2.102   0.454 -0.0515 -0.2137 -0.0246
  173SOL    HW2  745   1.650   2.086   0.545  1.6157  0.7784  0.6365
  173SOL    HW3  746   1.692   2.196   0.450 -0.9563 -0.0974 -1.5942
  173SOL    MW4  747   1.674   2.112   0.465  0.0491 -0.0672 -0.1445
  174SOL     OW  748   1.386   0.683   0.334  0.3114 -0.1712 -0.0602
  174SOL    HW2  749   1.476   0.679   0.367  0.9445 -0.3851 -1.7246
  174SOL    HW3  750   1.336   0.722   0.405  1.8784  0.7370  0.5818
  174SOL    MW4  751   1.391   0.687   0.347  0.6016 -0.0796 -0.1951
  175SOL     OW  752   4.361   2.540   0.430  0.0921 -0.6937  0.2122
  175SOL    HW2  753   4.452   2.515   0.447 -0.0344  0.0383  2.0898
  175SOL    HW3  754   4.363   2.636   0.425 -0.3816 -0.7407 -0.9398
  175SOL    MW4  755   4.373   2.550   0.432  0.0129 -0.6032  0.3079
  176SOL     OW  756   3.315   4.271   0.525 -0.2064 -0.0894 -0.5112
  176SOL    HW2  757   3.278   4.354   0.494 -1.6891  0.0558  1.5191
  176SOL    HW3  758   3.251   4.205   0.500  0.7371 -0.5631 -1.6892
  176SOL    MW4  759   3.302   4.274   0.518 -0.2778 -0.1330 -0.3988
  177SOL     OW  760   2.045   2.282   0.777 -0.2255 -0.2452  0.2730
  177SOL    HW2  761   2.038   2.276   0.872 -0.4822 -0.2633  0.2533
  177SOL    HW3  762   1.968   2.331   0.750 -0.3971 -0.6462  0.0288
  177SOL    MW4  763   2.034   2.288   0.786 -0.2820 -0.3004  0.2382
  178SOL     OW  764   0.335   0.946   0.441  0.0069 -0.4062  0.0984
  178SOL    HW2  765   0.241   0.930   0.437 -0.0663  0.0832 -0.1550
  178SOL    HW3  766   0.358   0.933   0.533 -0.2807 -0.6846  0.1308
  178SOL    MW4  767   0.326   0.942   0.452 -0.0407 -0.3784  0.0692
  179SOL     OW  768   1.083   3.883   0.852  0.6218  0.0381  0.3724
  179SOL    HW2  769   1.167   3.914   0.820  0.6130  0.9544  1.2092
  179SOL    HW3  770   1.099   3.857   0.943  0.1087 -0.2594  0.3839
  179SOL    MW4  771   1.096   3.883   0.860  0.5528  0.1197  0.4843
  180SOL     OW  772   2.909   0.943   0.290 -0.1900  0.0464  0.0682
  180SOL    HW2  773   2.931   1.032   0.263  1.1016 -0.1621  0.3868
  180SOL    HW3  774   2.987   0.892   0.269 -0.4877 -0.7799  0.9570
  180SOL    MW4  775   2.922   0.948   0.284 -0.0587 -0.0901  0.2275
  181SOL     OW  776   1.878   1.903   0.451  0.0202 -0.1394 -0.3383
  181SOL    HW2  777   1.804   1.960   0.429  0.0371  0.2968  0.6810
  181SOL    HW3  778   1.934   1.958   0.506 -0.2508 -1.3226  1.1566
  181SOL    MW4  779   1.875   1.918   0.456 -0.0135 -0.2379 -0.0066
  182SOL     OW  780   4.100   2.425   0.771  0.1991  0.1443 -0.2023
  182SOL    HW2  781   4.176   2.371   0.791 -0.9571 -1.3496  0.2271
  182SOL    HW3  782   4.111   2.449   0.679  1.0318 -0.3202 -0.2220
  182SOL    MW4  783   4.111   2.421   0.761  0.1559 -0.1142 -0.1484
  183SOL     OW  784   1.773   1.438   0.391  0.2053  0.1715  0.3082
  183SOL    HW2  785   1.804   1.527   0.375  2.2153 -0.4651  0.5728
  183SOL    HW3  786   1.685   1.450   0.426  0.6206  2.0802  0.7787
  183SOL    MW4  787   1.765   1.452   0.394  0.5252  0.3393  0.4052
  184SOL     OW  788   1.573   1.522   0.566  0.0899 -0.1626  0.1235
  184SOL    HW2  789   1.581   1.464   0.642  0.0730 -0.4849 -0.1198
  184SOL    HW3  790   1.492   1.571   0.582  1.2544  1.3822  1.4083
  184SOL    MW4  791   1.563   1.521   0.579  0.2414 -0.0013  0.2609
  185SOL     OW  792   2.567   2.550   0.453  0.4808  0.2430 -0.0406
  185SOL    HW2  793   2.662   2.546   0.461  0.4545 -1.0649 -0.3324
  185SOL    HW3  794   2.547   2.644   0.452  1.6522  0.5232  1.3344
  185SOL    MW4  795   2.577   2.562   0.454  0.6316  0.1070  0.1023
  186SOL     OW  796   3.949   4.005   0.481  0.2844  0.2156 -0.2437
  186SOL    HW2  797   4.003   4.080   0.457 -0.2437  0.3561 -1.0132
  186SOL    HW3  798   3.869   4.016   0.430 -0.5579  0.1183  1.0311
  186SOL    MW4  799   3.945   4.016   0.471  0.1037  0.2213 -0.1770
  187SOL     OW  800   2.939   2.849   0.690  0.3534  0.3152  0.2350
  187SOL    HW2  801   2.964   2.815   0.604  1.1994  1.3367  0.0649
  187SOL    HW3  802   3.014   2.828   0.747  0.1407  0.3608  0.5336
  187SOL    MW4  803   2.952   2.842   0.686  0.4365  0.4561  0.2519
  188SOL     OW  804   0.214   3.813   0.488  0.0302  0.4361 -0.4020
  188SOL    HW2  805   0.211   3.741   0.552  1.2285 -0.4843 -1.3651
  188SOL    HW3  806   0.122   3.829   0.467 -0.2670 -0.7227 -0.0649
  188SOL    MW4  807   0.201   3.805   0.494  0.1490  0.1619 -0.4846
  189SOL     OW  808   1.135   4.350   0.695 -0.2673  0.3680 -0.0160
  189SOL    HW2  809   1.122   4.317   0.605 -0.2402  0.8157 -0.1812
  189SOL    HW3  810   1.207   4.297   0.729  1.0265  1.5333 -0.9194
  189SOL    MW4  811   1.142   4.338   0.687 -0.0930  0.5808 -0.1569
  190SOL     OW  812   3.646   0.329   0.308  0.6896 -0.2314  0.0171
  190SOL    HW2  813   3.685   0.245   0.332  2.0811  0.2940 -0.3520
  190SOL    HW3  814   3.554   0.321   0.333  1.1179 -1.3384  1.2966
  190SOL    MW4  815   3.639   0.317   0.314  0.9298 -0.3082  0.1372
  191SOL     OW  816   2.231   2.944   0.339  0.2610  0.0620  0.5816
  191SOL    HW2  817   2.220   2.940   0.244 -1.1385 -1.0767  0.7771
  191SOL    HW3  818   2.170   2.879   0.373  1.0202  0.1965  2.2492
  191SOL    MW4  819   2.221   2.935   0.331  0.1767 -0.0706  0.8274
  192SOL     OW  820   0.035   2.447   0.750  0.4278 -0.2042  0.0308
  192SOL    HW2  821   0.100   2.394   0.797  0.6744 -0.8478 -1.0322
  192SOL    HW3  822   0.078   2.473   0.669 -0.6090 -0.5721 -0.6544
  192SOL    MW4  823   0.049   2.443   0.746  0.3235 -0.3378 -0.1999
  193SOL     OW  824   0.453   2.428   0.791  0.5606 -0.1105  0.1669
  193SOL    HW2  825   0.443   2.415   0.697 -0.5861  0.9352  0.1379
  193SOL    HW3  826   0.543   2.399   0.809  1.5986  1.8070 -1.6390
  193SOL    MW4  827   0.464   2.423   0.781  0.5462  0.2806 -0.0752
  194SOL     OW  828   4.123   4.186   0.366  0.0205 -0.0479 -0.5455
  194SOL    HW2  829   4.218   4.173   0.369 -0.0361 -0.3241  0.2704
  194SOL    HW3  830   4.112   4.281   0.366  0.3023 -0.0116 -1.0056
  194SOL    MW4  831   4.134   4.197   0.367  0.0501 -0.0792 -0.4986
  195SOL     OW  832   2.036   2.821   0.698  0.5025 -0.1023  0.2458
  195SOL    HW2  833   2.107   2.767   0.731  0.3416 -2.0074 -2.4079
  195SOL    HW3  834   2.035   2.805   0.603 -0.7198  3.1599 -0.3570
  195SOL    MW4  835   2.045   2.812   0.690  0.3200  0.0765 -0.1838
  196SOL     OW  836   1.584   3.558   0.465  0.3751  0.3963 -0.3020
  196SOL    HW2  837   1.563   3.595   0.551 -1.2627  0.6546 -0.7963
  196SOL    HW3  838   1.509   3.503   0.444  0.4689  0.8576 -1.8656
  196SOL    MW4  839   1.571   3.556   0.474  0.1714  0.4911 -0.5735
  197SOL     OW  840   2.668   0.364   0.886 -0.3403  0.0145  0.3294
  197SOL    HW2  841   2.605   0.416   0.836  0.0071  0.5631  0.4627
  197SOL    HW3  842   2.647   0.383   0.978 -0.7171 -0.6822  0.3913
  197SOL    MW4  843   2.657   0.373   0.892 -0.3440 -0.0050  0.3551
  198SOL     OW  844   2.252   4.019   0.815  0.1265 -0.0509 -0.1639
  198SOL    HW2  845   2.169   3.976   0.837  0.0100 -0.0497 -0.6001
  198SOL    HW3  846   2.251   4.026   0.719  0.3477  0.5188 -0.1248
  198SOL    MW4  847   2.241   4.014   0.805  0.1402  0.0243 -0.2163
  199SOL     OW  848   0.890   0.093   0.703 -0.1032 -0.4465  0.2280
  199SOL    HW2  849   0.924   0.168   0.752 -1.5119 -0.6238  1.5218
  199SOL    HW3  850   0.834   0.047   0.766 -0.8885 -1.4323 -1.1666
  199SOL    MW4  851   0.887   0.097   0.718 -0.3927 -0.6000  0.2148
  200SOL     OW  852   3.581   2.832   0.466  0.4729  0.3465 -0.0712
  200SOL    HW2  853   3.534   2.751   0.449 -0.0741  0.6466  0.0042
  200SOL    HW3  854   3.673   2.806   0.473  0.3646 -0.1835 -0.6107
  200SOL    MW4  855   3.587   2.818   0.464  0.3867  0.3164 -0.1324
  201SOL     OW  856   0.239   1.238   0.708 -0.1262  0.1612  0.6316
  201SOL    HW2  857   0.257   1.244   0.614 -1.0562  0.1532  0.4516
  201SOL    HW3  858   0.310   1.182   0.741 -0.3840 -0.7088 -0.2402
  201SOL    MW4  859   0.251   1.231   0.700 -0.2829  0.0453  0.4929
  202SOL     OW  860   4.001   0.620   0.376  0.4104  0.0513 -0.1086
  202SOL    HW2  861   4.091   0.587   0.372  0.1169 -0.6483 -1.3257
  202SOL    HW3  862   4.005   0.694   0.436  1.8219  0.0761 -0.2167
  202SOL    MW4  863   4.014   0.626   0.383  0.5589 -0.0377 -0.2835
  203SOL     OW  864   4.015   0.893   0.779 -0.2478  0.3104 -0.2555
  203SOL    HW2  865   3.933   0.869   0.821 -0.3959  1.0459 -0.1279
  203SOL    HW3  866   4.030   0.984   0.805  0.6448  0.1540 -0.2169
  203SOL    MW4  867   4.006   0.902   0.788 -0.1497  0.3868 -0.2335
  204SOL     OW  868   1.038   3.705   0.456  0.2649  0.7262  0.8243
  204SOL    HW2  869   1.022   3.796   0.435  0.9129  0.8211  0.7294
  204SOL    HW3  870   1.097   3.674   0.387 -1.8945 -0.4498 -0.5641
  204SOL    MW4  871   1.044   3.713   0.444  0.0654  0.5836  0.6286
  205SOL     OW  872   3.900   1.701   0.343 -0.1938  0.1773 -0.1019
  205SOL    HW2  873   3.837   1.683   0.414 -1.4930  0.2725 -1.2037
  205SOL    HW3  874   3.941   1.617   0.325  0.9618  0.3772  1.5249
  205SOL    MW4  875   3.897   1.688   0.350 -0.2124  0.2161 -0.0326
  206SOL     OW  876   3.321   3.593   0.485 -0.4188 -0.4105  0.2531
  206SOL    HW2  877   3.407   3.612   0.447 -0.9041  0.4991 -0.4081
  206SOL    HW3  878   3.334   3.604   0.579 -0.0978  0.8989  0.0682
  206SOL    MW4  879   3.334   3.597   0.493 -0.4404 -0.1178  0.1415
  207SOL     OW  880   3.915   3.690   0.151 -0.1822  0.1867  0.0582
  207SOL    HW2  881   3.841   3.632   0.136  2.8178 -3.4205 -1.7056
  207SOL    HW3  882   3.925   3.738   0.069 -1.5706  1.9417  0.8950
  207SOL    MW4  883   3.907   3.689   0.139  0.0305 -0.0575 -0.0641
  208SOL     OW  884   3.784   3.306   0.382  0.5557  0.3064  0.0026
  208SOL    HW2  885   3.785   3.386   0.433  0.1782  0.6099 -0.4578
  208SOL    HW3  886   3.870   3.267   0.395  0.3968  0.2914  1.0046
  208SOL    MW4  887   3.795   3.311   0.390  0.4852  0.3445  0.0741
  209SOL     OW  888   3.842   0.438   0.513 -0.0005  0.1174  0.4396
  209SOL    HW2  889   3.766   0.425   0.456 -0.5808 -0.3891  1.3318
  209SOL    HW3  890   3.894   0.505   0.468 -1.7676  1.6570  0.6435
  209SOL    MW4  891   3.839   0.445   0.499 -0.3102  0.2537  0.5843
  210SOL     OW  892   2.938   1.550   0.869 -0.1256  0.0423  0.2893
  210SOL    HW2  893   2.938   1.456   0.851 -0.0538  0.2651 -0.8815
  210SOL    HW3  894   3.020   1.582   0.833  0.8562  0.2110  2.6007
  210SOL    MW4  895   2.949   1.541   0.862  0.0134  0.0939  0.4397
  211SOL     OW  896   3.364   0.601   0.191  0.0960 -0.3937 -0.0558
  211SOL    HW2  897   3.423   0.649   0.250  0.1715 -0.9884  0.3560
  211SOL    HW3  898   3.413   0.594   0.109 -0.1504  0.7545 -0.3165
  211SOL    MW4  899   3.378   0.606   0.188  0.0737 -0.3207 -0.0359
  212SOL     OW  900   2.891   0.513   0.788  0.0297  0.0174 -0.5670
  212SOL    HW2  901   2.822   0.466   0.835  0.7836 -1.5381 -0.9641
  212SOL    HW3  902   2.972   0.474   0.821  0.6863  1.2588 -0.6939
  212SOL    MW4  903   2.893   0.502   0.799  0.2158 -0.0241 -0.6360
  213SOL     OW  904   2.905   3.402   0.483 -0.1763  0.2894 -0.6040
  213SOL    HW2  905   2.999   3.384   0.476 -0.3375  0.0874 -2.5342
  213SOL    HW3  906   2.897   3.493   0.456 -0.5841  0.1942 -0.7935
  213SOL    MW4  907   2.917   3.411   0.478 -0.2513  0.2503 -0.8837
  214SOL     OW  908   0.288   4.348   0.483 -0.3641 -0.1136 -0.4637
  214SOL    HW2  909   0.256   4.367   0.571 -0.5890 -0.0267 -0.5668
  214SOL    HW3  910   0.312   4.255   0.487  1.4962  0.3737  0.2712
  214SOL    MW4  911   0.287   4.338   0.495 -0.1483 -0.0377 -0.3804
  215SOL     OW  912   0.318   2.124   0.456  0.3964  0.4396  0.1140
  215SOL    HW2  913   0.296   2.098   0.546 -1.2247  0.2873 -0.3146
  215SOL    HW3  914   0.394   2.070   0.434 -0.2375 -0.7569  0.7939
  215SOL    MW4  915   0.326   2.113   0.465  0.0989  0.2618  0.1472
  216SOL     OW  916   4.067   1.920   0.842 -0.4201  0.5539 -0.1537
  216SOL    HW2  917   4.056   1.833   0.804 -0.8678  0.5292  0.0213
  216SOL    HW3  918   3.989   1.968   0.813 -0.7119  0.5665  0.6316
  216SOL    MW4  919   4.055   1.915   0.833 -0.5174  0.5523 -0.0270
  217SOL     OW  920   2.216   4.297   0.871  0.2963  0.3030  0.0053
  217SOL    HW2  921   2.209   4.205   0.845  0.0215  0.7810 -1.6611
  217SOL    HW3  922   2.302   4.325   0.839 -0.0103  0.8766 -0.3280
  217SOL    MW4  923   2.226   4.288   0.864  0.2196  0.4420 -0.2585
  218SOL     OW  924   1.771   0.131   0.498 -0.2537 -0.3339  0.4180
  218SOL    HW2  925   1.752   0.155   0.589 -2.7853  0.9444 -0.3944
  218SOL    HW3  926   1.702   0.174   0.447 -0.1936 -2.8672 -1.9044
  218SOL    MW4  927   1.759   0.140   0.503 -0.5797 -0.4995  0.0044
  219SOL     OW  928   3.580   4.322   0.846 -0.0484 -0.4533  0.0938
  219SOL    HW2  929   3.496   4.350   0.810  0.3559  1.5937  0.6490
  219SOL    HW3  930   3.644   4.347   0.779  0.2512 -0.8785  0.2175
  219SOL    MW4  931   3.578   4.329   0.833  0.0441 -0.2389  0.1833
  220SOL     OW  932   1.839   4.257   0.487 -0.2845 -0.1283 -0.1910
  220SOL    HW2  933   1.837   4.347   0.456 -2.0142  0.2267  0.9314
  220SOL    HW3  934   1.872   4.262   0.577 -0.2409 -0.6407 -0.1720
  220SOL    MW4  935   1.843   4.269   0.494 -0.5070 -0.1493 -0.0404
  221SOL     OW  936   0.566   0.093   0.520 -0.2797 -0.2057 -0.8076
  221SOL    HW2  937   0.497   0.054   0.466  0.6303 -1.2786 -1.2168
  221SOL    HW3  938   0.645   0.043   0.498 -0.0365 -1.1906  2.0879
  221SOL    MW4  939   0.567   0.081   0.510 -0.1276 -0.4772 -0.4796
  222SOL     OW  940   3.204   4.530   0.503 -0.3912  0.3691 -0.4524
  222SOL    HW2  941   3.193   4.624   0.495 -1.2193  0.3505  0.4576
  222SOL    HW3  942   3.116   4.494   0.496 -0.4463 -0.1065  2.1631
  222SOL    MW4  943   3.191   4.537   0.501 -0.5076  0.3037  0.0128
  223SOL     OW  944   3.141   1.132   0.934  0.1450  0.0721 -0.3301
  223SOL    HW2  945   3.140   1.144   1.028 -1.0291  0.0848 -0.3388
  223SOL    HW3  946   3.217   1.183   0.904 -0.3665  1.2997  0.4335
  223SOL    MW4  947   3.151   1.140   0.942 -0.0775  0.2357 -0.2306
  224SOL     OW  948   3.018   2.003   0.512  0.0473 -0.2905  0.0084
  224SOL    HW2  949   2.952   2.043   0.455  0.0054  2.2502  1.7356
  224SOL    HW3  950   3.101   2.044   0.484  0.3671 -0.7963  0.2131
  224SOL    MW4  951   3.021   2.014   0.501  0.0839 -0.0219  0.2632
  225SOL     OW  952   0.060   0.902   0.429  0.3039  0.4956 -0.5338
  225SOL    HW2  953   0.030   0.895   0.520 -2.1323  1.0496 -1.2317
  225SOL    HW3  954   0.032   0.820   0.388  1.0433  0.4085 -0.8673
  225SOL    MW4  955   0.052   0.890   0.435  0.0800  0.5572 -0.6700
  226SOL     OW  956   1.263   3.161   0.460  0.5457  0.1688  0.2095
  226SOL    HW2  957   1.277   3.066   0.457 -2.2630 -0.3265  1.2837
  226SOL    HW3  958   1.277   3.184   0.552 -0.9256  0.4200  0.3764
  226SOL    MW4  959   1.267   3.152   0.471 -0.0191  0.1366  0.3733
  227SOL     OW  960   1.763   0.150   0.787  0.0137 -0.1416  0.2330
  227SOL    HW2  961   1.840   0.094   0.791  0.0482 -0.0946  0.2244
  227SOL    HW3  962   1.692   0.095   0.819  0.2105  0.0991  1.0937
  227SOL    MW4  963   1.764   0.136   0.792  0.0442 -0.1036  0.3455
  228SOL     OW  964   1.754   2.818   0.308 -0.3781 -0.4521  0.2484
  228SOL    HW2  965   1.710   2.790   0.228  0.3731  0.2068 -0.4093
  228SOL    HW3  966   1.716   2.904   0.327  1.2943  0.5882 -0.8932
  228SOL    MW4  967   1.744   2.826   0.300 -0.0584 -0.2279  0.0110
  229SOL     OW  968   0.591   1.361   0.434 -0.2517  0.3734 -0.1000
  229SOL    HW2  969   0.565   1.453   0.429 -0.5385  0.3789  1.2829
  229SOL    HW3  970   0.508   1.313   0.424 -0.0119  0.2408 -1.5209
  229SOL    MW4  971   0.576   1.367   0.432 -0.2579  0.3567 -0.1051
  230SOL     OW  972   0.966   3.984   0.370 -0.5064 -0.3795  0.2814
  230SOL    HW2  973   0.884   3.996   0.321 -0.0916 -0.9170 -0.5454
  230SOL    HW3  974   1.034   3.981   0.303  0.0144 -1.6174  0.8539
  230SOL    MW4  975   0.964   3.985   0.355 -0.3830 -0.6137  0.2478
  231SOL     OW  976   2.999   2.794   0.430  0.0201  0.1381 -0.1719
  231SOL    HW2  977   3.088   2.771   0.401 -0.0553  0.8398 -0.9613
  231SOL    HW3  978   2.946   2.720   0.402  0.3891 -0.3886  0.4999
  231SOL    MW4  979   3.004   2.781   0.422  0.0589  0.1614 -0.1874
  232SOL     OW  980   1.476   4.375   0.443 -0.3393 -0.0507  0.0689
  232SOL    HW2  981   1.546   4.429   0.407 -0.6959  0.2129 -0.2350
  232SOL    HW3  982   1.496   4.369   0.537  1.5933 -2.2385 -0.4270
  232SOL    MW4  983   1.488   4.381   0.451 -0.1314 -0.3047 -0.0366
  233SOL     OW  984   3.864   2.070   0.738 -0.1532  0.0757 -0.3567
  233SOL    HW2  985   3.876   2.152   0.785 -1.6644  0.5168 -0.7295
  233SOL    HW3  986   3.913   2.081   0.657  1.5726 -0.2874  0.5934
  233SOL    MW4  987   3.872   2.082   0.734 -0.1249  0.0861 -0.2806
  234SOL     OW  988   1.591   1.354   0.784  0.5925  0.3027  0.2265
  234SOL    HW2  989   1.610   1.419   0.851  0.3311  0.2374  0.3651
  234SOL    HW3  990   1.667   1.296   0.783  1.3570  1.3103 -0.7256
  234SOL    MW4  991   1.603   1.355   0.793  0.6589  0.4271  0.1191
  235SOL     OW  992   0.138   2.492   0.465 -0.0328 -0.1211  0.0111
  235SOL    HW2  993   0.156   2.586   0.463  1.3969 -0.3631  0.8010
  235SOL    HW3  994   0.221   2.453   0.492 -1.0105 -1.5067  1.0289
  235SOL    MW4  995   0.151   2.500   0.468  0.0268 -0.3357  0.2496
  236SOL     OW  996   3.024   2.647   0.164  0.5133  0.2101  0.0668
  236SOL    HW2  997   3.003   2.675   0.075  1.5111  0.2047 -0.1654
  236SOL    HW3  998   3.096   2.703   0.191  1.1203 -0.7037  0.3658
  236SOL    MW4  999   3.030   2.658   0.156  0.7250  0.0887  0.0756
  237SOL     OW 1000   1.187   2.866   0.483 -0.5621  0.0356  0.1957
  237SOL    HW2 1001   1.251   2.795   0.483 -0.2157  0.3499  1.0006
  237SOL    HW3 1002   1.112   2.830   0.436  0.2142 -0.3252 -0.7873
  237SOL    MW4 1003   1.186   2.852   0.477 -0.4140  0.0293  0.1722
  238SOL     OW 1004   4.352   2.826   0.489 -0.1030 -0.0320  0.0729
  238SOL    HW2 1005   4.269   2.847   0.447 -0.7936 -0.8111  1.0126
  238SOL    HW3 1006   4.416   2.884   0.448 -1.0725  0.4177 -0.8115
  238SOL    MW4 1007   4.350   2.836   0.478 -0.3219 -0.0753  0.0802
  239SOL     OW 1008   3.570   3.693   0.394 -0.1627  0.0765  0.0762
  239SOL    HW2 1009   3.595   3.785   0.405  0.7510 -0.2710  0.9712
  239SOL    HW3 1010   3.635   3.644   0.444 -0.2596 -1.1040 -0.9162
  239SOL    MW4 1011   3.582   3.699   0.402 -0.0548 -0.1249  0.0633
  240SOL     OW 1012   4.318   2.029   0.729  0.0367 -0.1895  0.0774
  240SOL    HW2 1013   4.299   2.052   0.638  0.4888 -1.1679 -0.2725
  240SOL    HW3 1014   4.233   2.007   0.766 -0.1850  0.4738 -0.0352
  240SOL    MW4 1015   4.304   2.029   0.722  0.0672 -0.2310  0.0163
  241SOL     OW 1016   1.038   0.950   0.514  0.0776  0.4533 -0.4151
  241SOL    HW2 1017   0.980   0.935   0.589  1.3895  0.3459  0.5958
  241SOL    HW3 1018   1.052   1.045   0.514  0.7987  0.3548  0.0424
  241SOL    MW4 1019   1.032   0.961   0.524  0.3458  0.4262 -0.2214
  242SOL     OW 1020   0.241   3.449   0.177 -0.0195 -0.1780 -0.0936
  242SOL    HW2 1021   0.210   3.499   0.102  0.6411 -1.6115 -1.3573
  242SOL    HW3 1022   0.305   3.506   0.220 -1.1618  1.0584 -0.0018
  242SOL    MW4 1023   0.245   3.463   0.173 -0.0830 -0.2041 -0.2482
  243SOL     OW 1024   0.510   0.108   0.796  0.2484  0.3440 -0.0877
  243SOL    HW2 1025   0.521   0.091   0.702 -2.4188 -0.1505 -0.3383
  243SOL    HW3 1026   0.428   0.064   0.819  0.7495  0.6663  2.4385
  243SOL    MW4 1027   0.501   0.100   0.786 -0.0374  0.3213  0.2126
  244SOL     OW 1028   0.287   4.664   0.848  0.6258 -0.2540 -0.2072
  244SOL    HW2 1029   0.206   4.706   0.816  0.7584  0.3449  0.2345
  244SOL    HW3 1030   0.278   4.573   0.822  0.3611  0.0582 -1.2569
  244SOL    MW4 1031   0.275   4.658   0.840  0.6084 -0.1338 -0.2874
  245SOL     OW 1032   0.032   0.404   0.805  0.2792  0.1281 -0.3542
  245SOL    HW2 1033   0.116   0.438   0.773 -0.5555  1.3628 -1.3000
  245SOL    HW3 1034   0.038   0.411   0.900  0.7047  1.5468 -0.4708
  245SOL    MW4 1035   0.044   0.409   0.813  0.2252  0.4782 -0.4944
  246SOL     OW 1036   4.473   0.870   0.698 -0.0931  0.0665 -0.0470
  246SOL    HW2 1037   4.473   0.965   0.698 -0.0454  0.0694 -0.7638
  246SOL    HW3 1038   4.555   0.846   0.743 -0.4104  0.3508  0.6970
  246SOL    MW4 1039   4.484   0.879   0.704 -0.1292  0.1044 -0.0434
  247SOL     OW 1040   0.304   0.491   0.714  0.0984  0.0433  0.5105
  247SOL    HW2 1041   0.369   0.458   0.775  0.3274 -0.6296 -0.1021
  247SOL    HW3 1042   0.344   0.482   0.628 -0.2101  1.0202  0.2568
  247SOL    MW4 1043   0.318   0.486   0.711  0.0879  0.0834  0.3963
  248SOL     OW 1044   4.022   1.162   0.822 -0.6958 -0.2932  0.8894
  248SOL    HW2 1045   3.944   1.210   0.792 -0.7386 -1.6115 -1.2231
  248SOL    HW3 1046   4.012   1.157   0.917 -3.1711 -0.3413  0.6640
  248SOL    MW4 1047   4.010   1.167   0.831 -1.0281 -0.4734  0.5810
  249SOL     OW 1048   2.089   2.520   0.337  0.3190  0.0433 -0.1226
  249SOL    HW2 1049   2.171   2.496   0.379  0.1443  0.6484  0.5922
  249SOL    HW3 1050   2.044   2.437   0.323 -0.2826 -0.1010  2.3092
  249SOL    MW4 1051   2.093   2.506   0.341  0.2167  0.1040  0.2925
  250SOL     OW 1052   4.245   1.285   0.707 -0.5750  0.0242  0.4941
  250SOL    HW2 1053   4.178   1.230   0.747 -0.6750  0.0517  0.3672
  250SOL    HW3 1054   4.328   1.244   0.732 -0.6926 -1.3577 -1.2568
  250SOL    MW4 1055   4.247   1.272   0.715 -0.6042 -0.1545  0.2463
  251SOL     OW 1056   0.023   4.357   0.344  0.2557  0.1716 -0.1557
  251SOL    HW2 1057   0.008   4.263   0.350  0.1052  0.1188 -1.2595
  251SOL    HW3 1058   0.104   4.372   0.394 -0.9125 -0.2126  1.8792
  251SOL    MW4 1059   0.032   4.347   0.351  0.0817  0.1140 -0.0328
  252SOL     OW 1060   0.429   1.886   0.876 -0.5659 -0.5173  0.3615
  252SOL    HW2 1061   0.433   1.915   0.967  1.8371  0.6976 -0.0887
  252SOL    HW3 1062   0.365   1.943   0.835  0.1975  0.6150  0.7205
  252SOL    MW4 1063   0.421   1.897   0.883 -0.1482 -0.2077  0.3494
  253SOL     OW 1064   0.534   1.903   0.463 -0.0951 -0.3776  0.1933
  253SOL    HW2 1065   0.618   1.947   0.473 -0.5228  0.4414  0.2522
  253SOL    HW3 1066   0.504   1.888   0.553 -0.0204 -0.6420  0.1731
  253SOL    MW4 1067   0.541   1.907   0.476 -0.1417 -0.3045  0.1984
  254SOL     OW 1068   1.618   0.543   0.462 -0.7158  0.1874 -0.0801
  254SOL    HW2 1069   1.609   0.452   0.435 -0.4997  0.4302 -0.9671
  254SOL    HW3 1070   1.607   0.540   0.557  0.5409 -0.9258  0.0436
  254SOL    MW4 1071   1.615   0.531   0.471 -0.5214  0.0727 -0.1808
  255SOL     OW 1072   0.234   2.302   0.846  0.6491  0.8756 -0.1378
  255SOL    HW2 1073   0.222   2.306   0.941  1.0530  0.6502 -0.0770
  255SOL    HW3 1074   0.317   2.347   0.831  1.0220  0.1309 -0.2994
  255SOL    MW4 1075   0.243   2.309   0.856  0.7515  0.7477 -0.1511
  256SOL     OW 1076   4.320   2.279   0.853 -0.1151 -0.2989 -0.0878
  256SOL    HW2 1077   4.389   2.336   0.819  0.3805 -0.7641  0.1211
  256SOL    HW3 1078   4.342   2.192   0.819 -0.6417 -0.4407 -0.0784
  256SOL    MW4 1079   4.332   2.275   0.844 -0.1192 -0.3788 -0.0591
  257SOL     OW 1080   0.010   2.715   0.877  0.5237 -0.1063  0.1692
  257SOL    HW2 1081   0.006   2.625   0.846  1.3891  0.2917 -1.1740
  257SOL    HW3 1082   0.004   2.709   0.972  0.9618 -1.6030  0.1066
  257SOL    MW4 1083   0.009   2.702   0.886  0.6957 -0.2513 -0.0163
  258SOL     OW 1084   0.241   2.817   0.766  0.5613  0.3542  0.1280
  258SOL    HW2 1085   0.159   2.779   0.798  0.0678  0.6881 -0.7174
  258SOL    HW3 1086   0.230   2.911   0.780 -0.0926  0.6107 -1.9540
  258SOL    MW4 1087   0.229   2.824   0.772  0.4099  0.4320 -0.2583
  259SOL     OW 1088   0.237   3.096   0.797 -0.6698  0.3486 -0.3192
  259SOL    HW2 1089   0.204   3.089   0.886  0.6640  1.7859  0.3086
  259SOL    HW3 1090   0.175   3.155   0.754 -1.3499 -0.3955 -0.3728
  259SOL    MW4 1091   0.224   3.103   0.803 -0.5836  0.4399 -0.2435
  260SOL     OW 1092   3.573   2.113   0.479  0.0198  0.2048  0.0773
  260SOL    HW2 1093   3.513   2.081   0.547 -0.9364  0.8327 -0.4640
  260SOL    HW3 1094   3.610   2.033   0.441 -0.5800 -0.1994  0.3237
  260SOL    MW4 1095   3.570   2.098   0.483 -0.1855  0.2344  0.0384
  261SOL     OW 1096   4.482   3.485   0.838 -0.3628  0.2816  0.0438
  261SOL    HW2 1097   4.408   3.543   0.819 -0.0042  0.1028 -2.0109
  261SOL    HW3 1098   4.555   3.524   0.789  0.0553 -1.4773 -0.7666
  261SOL    MW4 1099   4.482   3.498   0.829 -0.2603  0.0262 -0.3342
  262SOL     OW 1100   3.572   1.166   0.883 -0.0001 -0.1585 -0.0494
  262SOL    HW2 1101   3.569   1.146   0.977  0.1611 -1.2872 -0.2725
  262SOL    HW3 1102   3.488   1.206   0.864  0.3175  0.9436  0.7569
  262SOL    MW4 1103   3.561   1.169   0.893  0.0632 -0.1619  0.0275
  263SOL     OW 1104   3.599   3.492   0.843 -0.0919  0.0068  0.0195
  263SOL    HW2 1105   3.519   3.537   0.816  0.0662 -1.1525 -2.5185
  263SOL    HW3 1106   3.596   3.408   0.797  1.9800 -0.5603  0.8633
  263SOL    MW4 1107   3.588   3.487   0.833  0.2022 -0.2210 -0.2040
  264SOL     OW 1108   0.160   3.855   0.890  0.2132  0.4095 -0.3191
  264SOL    HW2 1109   0.178   3.847   0.983  0.5106  2.3899 -0.2011
  264SOL    HW3 1110   0.226   3.917   0.857  0.4304 -0.6277 -1.9438
  264SOL    MW4 1111   0.171   3.862   0.898  0.2811  0.5341 -0.5180
  265SOL     OW 1112   0.003   4.254   0.771 -0.6137 -0.4845  0.1846
  265SOL    HW2 1113  -0.011   4.163   0.744  2.2694 -1.4794  1.9417
  265SOL    HW3 1114   0.004   4.252   0.866  0.2392  1.2579  0.2386
  265SOL    MW4 1115   0.001   4.242   0.780 -0.1208 -0.3858  0.4236
  266SOL     OW 1116   4.394   4.103   0.323 -0.5681 -0.5703  0.3198
  266SOL    HW2 1117   4.403   4.080   0.231 -0.8646 -1.5992  0.5459
  266SOL    HW3 1118   4.390   4.019   0.369 -1.0148 -0.0693  1.2114
  266SOL    MW4 1119   4.394   4.089   0.317 -0.6657 -0.6394  0.4673
  267SOL     OW 1120   0.736   4.636   0.886 -0.4534 -0.1445  0.3796
  267SOL    HW2 1121   0.737   4.644   0.981  1.3346  1.1027  0.2617
  267SOL    HW3 1122   0.655   4.679   0.859 -0.6331  0.0754  1.2749
  267SOL    MW4 1123   0.725   4.642   0.895 -0.2412  0.0491  0.4821
  268SOL     OW 1124   1.778   3.363   0.499  0.0387  0.2106  0.3791
  268SOL    HW2 1125   1.765   3.317   0.581 -1.3305  0.8699  0.5467
  268SOL    HW3 1126   1.718   3.438   0.503 -1.7056 -0.9527 -2.1286
  268SOL    MW4 1127   1.768   3.367   0.510 -0.3723  0.1442  0.0703
  269SOL     OW 1128   0.497   0.375   0.880 -0.1488 -0.5699 -0.3970
  269SOL    HW2 1129   0.495   0.283   0.852  2.7198 -0.9104  0.3569
  269SOL    HW3 1130   0.563   0.416   0.823 -1.5767  1.0914 -0.8857
  269SOL    MW4 1131   0.506   0.368   0.869  0.0413 -0.3956 -0.3620
  270SOL     OW 1132   1.231   1.865   0.420 -0.0177  0.5176  0.2721
  270SOL    HW2 1133   1.224   1.843   0.327 -0.8801  1.7056  0.0367
  270SOL    HW3 1134   1.143   1.895   0.444  0.6373  1.8855  1.0326
  270SOL    MW4 1135   1.218   1.866   0.411 -0.0451  0.8547  0.3414
  271SOL     OW 1136   0.658   0.765   0.807  0.0804  0.1096  0.6695
  271SOL    HW2 1137   0.683   0.675   0.789 -1.4232 -0.7364  2.5408
  271SOL    HW3 1138   0.739   0.815   0.801  1.1587 -1.5797  0.8870
  271SOL    MW4 1139   0.672   0.760   0.804  0.0243 -0.2249  0.9450
  272SOL     OW 1140   4.467   1.144   0.796 -0.3500  0.2933  0.4393
  272SOL    HW2 1141   4.556   1.171   0.773 -0.2277 -0.8380 -0.4866
  272SOL    HW3 1142   4.464   1.147   0.892  0.3485  1.3639  0.4266
  272SOL    MW4 1143   4.478   1.148   0.806 -0.2417  0.2854  0.3155
  273SOL     OW 1144   0.433   0.868   0.684 -0.3872  0.1027 -0.2552
  273SOL    HW2 1145   0.513   0.826   0.717 -0.0660  0.9905  0.1278
  273SOL    HW3 1146   0.370   0.858   0.755 -0.5203 -0.3256 -0.4337
  273SOL    MW4 1147   0.435   0.861   0.698 -0.3624  0.1633 -0.2283
  274SOL     OW 1148   2.005   1.557   0.807  0.4428  0.2152  0.4040
  274SOL    HW2 1149   1.943   1.596   0.746  0.2062  1.1593  1.2500
  274SOL    HW3 1150   2.087   1.605   0.792  0.1658  1.0053  1.4054
  274SOL    MW4 1151   2.008   1.568   0.797  0.3750  0.4441  0.6477
  275SOL     OW 1152   0.487   1.648   0.738 -0.5207 -0.3280  0.2937
  275SOL    HW2 1153   0.430   1.582   0.778 -0.9210  0.9294  1.9065
  275SOL    HW3 1154   0.462   1.730   0.782  1.3552  0.5416 -0.2044
  275SOL    MW4 1155   0.476   1.650   0.749 -0.3260 -0.0473  0.4408
  276SOL     OW 1156   0.283   1.493   0.843  0.4008 -0.3755  0.1778
  276SOL    HW2 1157   0.239   1.561   0.792  0.1333 -1.3729 -0.9495
  276SOL    HW3 1158   0.265   1.412   0.795 -0.5238 -1.4636  2.2762
  276SOL    MW4 1159   0.275   1.491   0.830  0.2435 -0.6506  0.3059
  277SOL     OW 1160   3.703   3.523   0.194  0.5654  0.3702  0.0249
  277SOL    HW2 1161   3.708   3.437   0.236 -0.4684  0.1401 -0.3100
  277SOL    HW3 1162   3.655   3.577   0.256 -1.6668 -0.1854 -1.1901
  277SOL    MW4 1163   3.698   3.519   0.208  0.1347  0.2666 -0.1796
  278SOL     OW 1164   0.461   3.215   0.699  0.4812 -0.1073 -0.3811
  278SOL    HW2 1165   0.436   3.301   0.733 -0.6470 -0.5449 -0.0583
  278SOL    HW3 1166   0.395   3.156   0.736  2.2705 -1.3914  0.8428
  278SOL    MW4 1167   0.449   3.219   0.709  0.5684 -0.3343 -0.1770
  279SOL     OW 1168   0.971   2.463   0.795  0.7049  0.1462  0.1071
  279SOL    HW2 1169   0.880   2.436   0.805  0.9157 -0.8905 -0.6844
  279SOL    HW3 1170   0.967   2.559   0.790 -0.2963  0.1324  0.4843
  279SOL    MW4 1171   0.958   2.472   0.796  0.6006  0.0079  0.0525
  280SOL     OW 1172   0.888   2.720   0.822  0.3089 -0.3365  0.0578
  280SOL    HW2 1173   0.874   2.710   0.916 -0.2124 -0.4103 -0.0275
  280SOL    HW3 1174   0.803   2.748   0.787  0.0656 -1.8050 -0.6010
  280SOL    MW4 1175   0.875   2.722   0.830  0.2080 -0.5398 -0.0404
  281SOL     OW 1176   0.474   2.702   0.865 -0.4329  0.1262 -0.0068
  281SOL    HW2 1177   0.398   2.748   0.828 -0.6594 -0.3297 -0.1056
  281SOL    HW3 1178   0.454   2.609   0.855  0.3666  0.0036 -0.4849
  281SOL    MW4 1179   0.461   2.696   0.859 -0.3573  0.0501 -0.0830
  282SOL     OW 1180   3.581   4.169   0.511 -0.4745  0.2796  0.2787
  282SOL    HW2 1181   3.492   4.203   0.520  0.0464  1.3220  1.6737
  282SOL    HW3 1182   3.636   4.248   0.504  0.2100 -0.3586 -2.1420
  282SOL    MW4 1183   3.576   4.184   0.511 -0.3154  0.3333  0.1434
  283SOL     OW 1184   1.362   4.242   0.829 -0.1681  0.1567 -0.1723
  283SOL    HW2 1185   1.438   4.287   0.792  0.0162  0.9325  1.1353
  283SOL    HW3 1186   1.374   4.150   0.803  1.6034  0.1290  0.6228
  283SOL    MW4 1187   1.374   4.236   0.821  0.0900  0.2556  0.1051
  284SOL     OW 1188   0.442   3.466   0.829 -0.0539 -0.0857  0.0632
  284SOL    HW2 1189   0.456   3.491   0.920  0.4319  0.0254 -0.0415
  284SOL    HW3 1190   0.526   3.480   0.786  0.0423 -1.2284 -0.1512
  284SOL    MW4 1191   0.455   3.471   0.835  0.0229 -0.2217  0.0210
  285SOL     OW 1192   4.345   1.756   0.512 -0.0590  0.0279 -0.2188
  285SOL    HW2 1193   4.362   1.773   0.605  1.2152 -1.6629 -0.0979
  285SOL    HW3 1194   4.251   1.769   0.502 -0.4175 -0.9180  1.6006
  285SOL    MW4 1195   4.335   1.760   0.523  0.0620 -0.3200  0.0372
  286SOL     OW 1196   4.385   1.112   0.308 -0.1634  0.5944 -0.4409
  286SOL    HW2 1197   4.434   1.037   0.342 -1.8130  0.5504  1.9265
  286SOL    HW3 1198   4.351   1.083   0.224  0.3041 -0.8510 -0.1424
  286SOL    MW4 1199   4.387   1.098   0.302 -0.3200  0.3979 -0.0891
  287SOL     OW 1200   4.450   3.984   0.717 -0.0716  0.2861 -0.0870
  287SOL    HW2 1201   4.370   3.961   0.764 -0.2648 -0.2111 -0.6460
  287SOL    HW3 1202   4.521   3.942   0.766 -0.1366  0.9064  0.5287
  287SOL    MW4 1203   4.449   3.975   0.729 -0.1054  0.3023 -0.0795
  288SOL     OW 1204   0.708   0.494   0.742  0.2479 -0.2774 -0.2113
  288SOL    HW2 1205   0.688   0.452   0.659 -0.3876  0.5487 -0.4757
  288SOL    HW3 1206   0.781   0.443   0.777  0.5258 -0.6224 -1.2743
  288SOL    MW4 1207   0.715   0.482   0.736  0.2007 -0.2139 -0.3865
  289SOL     OW 1208   0.436   4.240   0.844  0.7572 -0.3116  0.0712
  289SOL    HW2 1209   0.439   4.248   0.939  1.1474  0.4495  0.0036
  289SOL    HW3 1210   0.522   4.272   0.815  0.3966  0.0876 -0.5688
  289SOL    MW4 1211   0.448   4.245   0.853  0.7611 -0.1583 -0.0222
  290SOL     OW 1212   3.864   0.502   0.772 -0.1725 -0.3618 -0.0954
  290SOL    HW2 1213   3.838   0.497   0.680 -0.8198 -1.5895  0.1452
  290SOL    HW3 1214   3.838   0.590   0.800 -0.7152 -0.2815 -0.8525
  290SOL    MW4 1215   3.857   0.513   0.763 -0.3295 -0.5132 -0.1635
  291SOL     OW 1216   3.632   1.646   0.496  0.0418 -0.5165  0.2187
  291SOL    HW2 1217   3.642   1.551   0.491  1.9340 -0.3596  0.7612
  291SOL    HW3 1218   3.652   1.668   0.586  1.2262  0.5732 -0.2902
  291SOL    MW4 1219   3.636   1.637   0.507  0.4480 -0.3520  0.2231
  292SOL     OW 1220   4.261   0.766   0.830  0.5038 -0.0769 -0.2999
  292SOL    HW2 1221   4.186   0.824   0.813  0.6723  0.3237  0.3342
  292SOL    HW3 1222   4.331   0.801   0.776  0.1043 -0.7457 -1.2820
  292SOL    MW4 1223   4.260   0.778   0.821  0.4735 -0.1123 -0.3458
  293SOL     OW 1224   0.935   0.352   0.877  0.2743 -0.4385 -0.5490
  293SOL    HW2 1225   0.942   0.351   0.973  0.4678  1.1927 -0.5334
  293SOL    HW3 1226   1.005   0.411   0.849  1.1167 -2.0032 -1.7897
  293SOL    MW4 1227   0.945   0.360   0.886  0.4110 -0.4297 -0.7105
  294SOL     OW 1228   0.711   1.563   0.858  0.3911  0.4307  0.1973
  294SOL    HW2 1229   0.627   1.589   0.820  0.1048 -1.2689 -0.3740
  294SOL    HW3 1230   0.697   1.566   0.952  0.0004  1.0989  0.1245
  294SOL    MW4 1231   0.698   1.567   0.865  0.3018  0.2947  0.1122
  295SOL     OW 1232   1.144   0.555   0.853  0.1374 -0.7809 -0.1761
  295SOL    HW2 1233   1.120   0.558   0.761  0.3612  1.8939 -0.1963
  295SOL    HW3 1234   1.226   0.506   0.856  1.5842  1.4774 -1.7518
  295SOL    MW4 1235   1.152   0.549   0.841  0.3579 -0.1300 -0.3867
  296SOL     OW 1236   4.042   2.098   0.528 -0.1329 -0.3604 -0.1651
  296SOL    HW2 1237   4.133   2.100   0.498  0.1805  0.0711  0.8026
  296SOL    HW3 1238   4.004   2.180   0.495 -0.6686 -1.3400 -2.0681
  296SOL    MW4 1239   4.049   2.109   0.519 -0.1621 -0.4327 -0.2885
  297SOL     OW 1240   0.885   0.914   0.761  0.3776  0.1603 -0.1026
  297SOL    HW2 1241   0.878   1.006   0.784  0.3764  0.3000 -0.6526
  297SOL    HW3 1242   0.966   0.884   0.801  0.0168  0.2171  0.6844
  297SOL    MW4 1243   0.895   0.922   0.770  0.3299  0.1862 -0.0714
  298SOL     OW 1244   1.802   1.708   0.646  0.0367  0.4399  0.2835
  298SOL    HW2 1245   1.747   1.640   0.607  0.0694  0.7671 -0.3552
  298SOL    HW3 1246   1.824   1.765   0.572 -1.0254  1.8344  1.0221
  298SOL    MW4 1247   1.798   1.707   0.631 -0.0992  0.6671  0.2967
  299SOL     OW 1248   1.106   1.240   0.630 -0.3800 -0.3383  0.1420
  299SOL    HW2 1249   1.102   1.336   0.625 -0.6157 -0.4384 -2.0027
  299SOL    HW3 1250   1.172   1.223   0.697  1.0490  1.3464 -0.7664
  299SOL    MW4 1251   1.114   1.251   0.638 -0.2227 -0.1291 -0.2608
  300SOL     OW 1252   0.486   1.130   0.820 -0.2960  0.1522  0.3298
  300SOL    HW2 1253   0.505   1.048   0.773 -0.5382  0.3651 -0.1445
  300SOL    HW3 1254   0.536   1.197   0.772 -1.6137  0.5900 -0.4519
  300SOL    MW4 1255   0.495   1.128   0.808 -0.5018  0.2379  0.1641
  301SOL     OW 1256   1.130   2.030   0.779 -0.1921 -0.2394 -0.1021
  301SOL    HW2 1257   1.216   1.989   0.778 -0.5290 -1.0419  1.6988
  301SOL    HW3 1258   1.145   2.116   0.819 -0.0548  0.0867 -0.8339
  301SOL    MW4 1259   1.143   2.036   0.784 -0.2184 -0.3026  0.0390
  302SOL     OW 1260   0.371   4.624   0.383  0.1711 -0.5695  0.4311
  302SOL    HW2 1261   0.296   4.664   0.428  0.5520  0.2693  0.3295
  302SOL    HW3 1262   0.356   4.530   0.390 -0.4946 -0.4168  1.0866
  302SOL    MW4 1263   0.359   4.617   0.390  0.1336 -0.4387  0.5042
  303SOL     OW 1264   2.730   4.250   0.227  0.5387  0.0134 -0.2570
  303SOL    HW2 1265   2.756   4.213   0.311  0.3975  0.7152  0.0988
  303SOL    HW3 1266   2.810   4.248   0.174  1.0758  1.2131  0.4892
  303SOL    MW4 1267   2.744   4.245   0.231  0.5908  0.2642 -0.1116
  304SOL     OW 1268   0.830   3.988   0.900  0.3595 -0.4140 -0.3395
  304SOL    HW2 1269   0.915   3.945   0.892  0.0873 -1.1142  0.4794
  304SOL    HW3 1270   0.845   4.077   0.867  1.8419  0.0362  1.4787
  304SOL    MW4 1271   0.843   3.994   0.894  0.5192 -0.4470  0.0085
  305SOL     OW 1272   1.341   2.708   0.835  0.0226  0.4083 -0.0910
  305SOL    HW2 1273   1.345   2.726   0.929 -0.4396  1.4645 -0.2647
  305SOL    HW3 1274   1.277   2.770   0.801  1.7883  1.5366 -1.4615
  305SOL    MW4 1275   1.333   2.718   0.843  0.1948  0.6967 -0.2947
  306SOL     OW 1276   2.633   4.043   0.563  0.1733 -0.2209  0.0221
  306SOL    HW2 1277   2.575   4.109   0.526 -1.2267 -2.6216 -2.2278
  306SOL    HW3 1278   2.721   4.080   0.552 -0.5849  1.3339 -1.0304
  306SOL    MW4 1279   2.637   4.057   0.556 -0.1116 -0.3324 -0.4137
  307SOL     OW 1280   1.126   2.866   0.766  0.4103  0.3943  0.0507
  307SOL    HW2 1281   1.133   2.868   0.670 -1.3100 -0.7334 -0.0989
  307SOL    HW3 1282   1.043   2.822   0.784  0.2149  1.5106  2.0519
  307SOL    MW4 1283   1.116   2.861   0.756  0.1576  0.3927  0.2950
  308SOL     OW 1284   0.698   3.496   0.706 -0.2703  0.5027  0.3501
  308SOL    HW2 1285   0.783   3.516   0.747  0.4892  1.0346 -1.4228
  308SOL    HW3 1286   0.720   3.435   0.635 -1.5889 -0.5554  0.8462
  308SOL    MW4 1287   0.712   3.491   0.702 -0.3442  0.4334  0.1817
  309SOL     OW 1288   0.326   4.060   0.508 -0.2280 -0.2796 -0.2911
  309SOL    HW2 1289   0.290   3.972   0.497 -0.8184 -0.0918  0.0812
  309SOL    HW3 1290   0.420   4.049   0.500 -0.1862 -1.1853  1.2421
  309SOL    MW4 1291   0.334   4.047   0.505 -0.3004 -0.3738 -0.0397
  310SOL     OW 1292   1.126   3.115   0.910 -0.0059  0.1404 -0.1298
  310SOL    HW2 1293   1.138   3.030   0.866 -1.4013  0.2819 -0.7932
  310SOL    HW3 1294   1.038   3.142   0.887  0.2691  1.5766  0.4611
  310SOL    MW4 1295   1.116   3.107   0.901 -0.1538  0.3488 -0.1394
  311SOL     OW 1296   1.332   0.149   0.796 -0.1414  0.1218 -0.6980
  311SOL    HW2 1297   1.267   0.088   0.831 -1.7524  2.1634 -0.0373
  311SOL    HW3 1298   1.339   0.125   0.703 -0.8559 -0.9559 -0.4853
  311SOL    MW4 1299   1.325   0.138   0.788 -0.4482  0.2490 -0.5827
  312SOL     OW 1300   0.933   3.506   0.847  0.0128  0.1385 -0.0175
  312SOL    HW2 1301   0.942   3.415   0.820  1.1115  0.1456  0.3056
  312SOL    HW3 1302   0.999   3.553   0.797 -0.0644  0.6417  0.3505
  312SOL    MW4 1303   0.943   3.500   0.837  0.1475  0.2058  0.0737
  313SOL     OW 1304   0.908   4.257   0.840 -0.2510  0.2525 -0.0778
  313SOL    HW2 1305   0.980   4.295   0.789 -0.0641 -0.2627 -0.2036
  313SOL    HW3 1306   0.829   4.298   0.805  0.0114  1.1655  0.3704
  313SOL    MW4 1307   0.907   4.267   0.829 -0.1917  0.3047 -0.0352
  314SOL     OW 1308   2.807   0.748   0.879 -0.0937  0.0071 -0.5738
  314SOL    HW2 1309   2.843   0.760   0.967 -0.0613 -0.7523 -0.4816
  314SOL    HW3 1310   2.848   0.668   0.847 -1.8825 -0.9983 -0.3765
  314SOL    MW4 1311   2.818   0.739   0.886 -0.3254 -0.2258 -0.5356
  315SOL     OW 1312   1.798   0.393   0.886 -0.0465  0.0290  0.0781
  315SOL    HW2 1313   1.791   0.308   0.843  0.6750  0.5324 -1.0377
  315SOL    HW3 1314   1.729   0.446   0.847  0.9122  0.6334 -0.8219
  315SOL    MW4 1315   1.788   0.389   0.875  0.1754  0.1752 -0.1879
  316SOL     OW 1316   1.033   4.279   0.431  0.1206  0.7780 -0.3382
  316SOL    HW2 1317   0.990   4.197   0.407  0.1215  0.4733  0.6707
  316SOL    HW3 1318   0.966   4.346   0.417 -0.9408  0.2418  1.8142
  316SOL    MW4 1319   1.018   4.277   0.426 -0.0193  0.6671  0.0789
  317SOL     OW 1320   0.404   3.649   0.347  0.1957 -0.2156 -0.0333
  317SOL    HW2 1321   0.344   3.721   0.367  0.8839  0.3608 -0.0230
  317SOL    HW3 1322   0.472   3.656   0.414  1.0457  0.0236 -0.9089
  317SOL    MW4 1323   0.406   3.659   0.359  0.3986 -0.1080 -0.1475
  318SOL     OW 1324   0.932   3.240   0.743 -0.2936 -0.3073 -0.1212
  318SOL    HW2 1325   0.858   3.180   0.752  0.7142 -1.4558  0.5769
  318SOL    HW3 1326   0.972   3.216   0.660 -0.9417  0.6085 -0.7146
  318SOL    MW4 1327   0.927   3.229   0.733 -0.2462 -0.3378 -0.1074
  319SOL     OW 1328   3.483   0.524   0.591 -0.5121 -0.6291  0.2291
  319SOL    HW2 1329   3.546   0.473   0.643 -0.3901  1.1207  1.8321
  319SOL    HW3 1330   3.419   0.556   0.655 -2.5831 -1.6824 -1.2644
  319SOL    MW4 1331   3.483   0.521   0.606 -0.7691 -0.5372  0.2435
  320SOL     OW 1332   1.832   0.702   0.406 -0.0735  0.3194  0.0344
  320SOL    HW2 1333   1.755   0.647   0.421 -0.0933  0.5231  0.7009
  320SOL    HW3 1334   1.799   0.792   0.414  0.4291  0.4020  1.3881
  320SOL    MW4 1335   1.818   0.707   0.409 -0.0098  0.3572  0.3010
  321SOL     OW 1336   1.813   1.194   0.815  0.2472 -0.4166  0.6755
  321SOL    HW2 1337   1.889   1.238   0.776 -1.1143  0.4750 -1.0642
  321SOL    HW3 1338   1.814   1.106   0.778 -0.1749 -0.0563 -0.2049
  321SOL    MW4 1339   1.823   1.189   0.805  0.0120 -0.2515  0.3298
  322SOL     OW 1340   1.095   0.549   0.570 -0.0559 -0.0403  0.2272
  322SOL    HW2 1341   1.003   0.539   0.543 -0.2067  2.6949 -0.4377
  322SOL    HW3 1342   1.142   0.482   0.520 -1.5062 -0.6293 -0.3970
  322SOL    MW4 1343   1.089   0.539   0.560 -0.2670  0.2429  0.0571
  323SOL     OW 1344   1.095   1.545   0.652 -0.4415  0.0611 -0.3480
  323SOL    HW2 1345   1.045   1.587   0.722 -0.3232  1.2121 -0.9400
  323SOL    HW3 1346   1.028   1.508   0.594 -0.5162 -2.0090  1.0306
  323SOL    MW4 1347   1.080   1.546   0.654 -0.4358 -0.0601 -0.2441
  324SOL     OW 1348   1.420   3.830   0.257  0.2311  0.5188  0.3197
  324SOL    HW2 1349   1.505   3.795   0.230  1.0376  1.7691  1.1238
  324SOL    HW3 1350   1.438   3.871   0.342 -0.8900  1.9279 -0.1098
  324SOL    MW4 1351   1.434   3.831   0.265  0.1895  0.8695  0.3691
  325SOL     OW 1352   0.888   1.943   0.872 -0.1705  0.3196 -0.1380
  325SOL    HW2 1353   0.885   1.953   0.967  0.5424 -2.3304  0.2170
  325SOL    HW3 1354   0.976   1.970   0.847  0.9090 -2.4233  0.4806
  325SOL    MW4 1355   0.899   1.948   0.882  0.0660 -0.3920 -0.0095
  326SOL     OW 1356   1.392   3.398   0.351  0.5308 -0.1886 -0.2477
  326SOL    HW2 1357   1.329   3.456   0.308  0.1678 -1.8723 -2.0153
  326SOL    HW3 1358   1.340   3.327   0.388  1.0840  0.0458  1.0239
  326SOL    MW4 1359   1.377   3.397   0.350  0.5559 -0.3798 -0.3131
  327SOL     OW 1360   3.322   1.032   0.255 -0.1590  0.2138 -0.3437
  327SOL    HW2 1361   3.272   1.097   0.304  0.0725  1.0328 -1.1841
  327SOL    HW3 1362   3.275   0.950   0.270  0.4061  0.2714  1.9806
  327SOL    MW4 1363   3.309   1.030   0.264 -0.0539  0.3295 -0.1479
  328SOL     OW 1364   2.026   2.775   0.402 -0.3886  0.2294  0.2242
  328SOL    HW2 1365   1.941   2.785   0.360 -0.8669 -1.9742  0.6112
  328SOL    HW3 1366   2.047   2.682   0.391  1.2420  0.4358  1.4998
  328SOL    MW4 1367   2.018   2.764   0.395 -0.2367 -0.0339  0.4436
  329SOL     OW 1368   2.486   3.620   0.443  0.5436  0.0693  0.1083
  329SOL    HW2 1369   2.507   3.620   0.537 -0.3868 -0.0030  0.3253
  329SOL    HW3 1370   2.416   3.685   0.435 -0.4715 -1.0502 -0.2810
  329SOL    MW4 1371   2.479   3.629   0.455  0.2871 -0.0880  0.0855
  330SOL     OW 1372   1.581   2.804   0.732 -0.0154 -0.5626  0.3996
  330SOL    HW2 1373   1.502   2.762   0.765  1.0294 -2.3381  0.7289
  330SOL    HW3 1374   1.604   2.754   0.653  0.3119  0.4747 -0.1776
  330SOL    MW4 1375   1.574   2.791   0.726  0.1656 -0.6597  0.3669
  331SOL     OW 1376   1.550   3.068   0.798  0.4803 -0.1778 -0.0267
  331SOL    HW2 1377   1.567   3.091   0.889  0.6524 -1.0678  0.1698
  331SOL    HW3 1378   1.571   2.975   0.792 -1.0408 -0.4960 -0.6016
  331SOL    MW4 1379   1.555   3.059   0.809  0.3022 -0.3371 -0.0767
  332SOL     OW 1380   2.557   3.342   0.407 -0.1369  0.1068 -0.5282
  332SOL    HW2 1381   2.542   3.434   0.384 -0.4805  0.0497 -0.5384
  332SOL    HW3 1382   2.473   3.299   0.389 -0.2068 -0.0630  0.1940
  332SOL    MW4 1383   2.544   3.349   0.402 -0.1917  0.0768 -0.4342
  333SOL     OW 1384   1.571   3.634   0.730  0.9201 -0.3710 -0.3781
  333SOL    HW2 1385   1.646   3.583   0.761  0.2253 -0.1200  1.7913
  333SOL    HW3 1386   1.497   3.573   0.733  0.5881  0.0336 -0.2944
  333SOL    MW4 1387   1.571   3.619   0.734  0.7846 -0.2844 -0.0809
  334SOL     OW 1388   3.272   2.142   0.470 -0.1900 -0.1160 -0.1971
  334SOL    HW2 1389   3.295   2.110   0.558  0.2699 -0.9326 -0.6061
  334SOL    HW3 1390   3.357   2.152   0.426 -0.5089 -1.5274 -1.1709
  334SOL    MW4 1391   3.286   2.139   0.476 -0.1712 -0.4098 -0.3795
  335SOL     OW 1392   1.589   3.856   0.886  0.2276 -0.5146 -0.0778
  335SOL    HW2 1393   1.564   3.776   0.841  0.9211 -0.5670 -0.3759
  335SOL    HW3 1394   1.654   3.897   0.829 -1.0235  0.8963 -0.5323
  335SOL    MW4 1395   1.594   3.851   0.873  0.1540 -0.3352 -0.1771
  336SOL     OW 1396   0.847   0.764   0.407  0.1799 -0.1090  0.0658
  336SOL    HW2 1397   0.906   0.838   0.420  0.2476 -0.5989  3.1519
  336SOL    HW3 1398   0.760   0.798   0.428 -0.1748 -0.2244 -1.1890
  336SOL    MW4 1399   0.844   0.778   0.412  0.1421 -0.1889  0.3074
  337SOL     OW 1400   1.271   4.555   0.426  0.0509  0.1738 -0.4487
  337SOL    HW2 1401   1.347   4.501   0.447 -0.6736 -0.3580  0.8255
  337SOL    HW3 1402   1.213   4.497   0.377 -0.0668  0.2459 -0.3946
  337SOL    MW4 1403   1.273   4.541   0.422 -0.0601  0.1130 -0.2735
  338SOL     OW 1404   0.744   2.057   0.554  0.2493  0.0720  0.5516
  338SOL    HW2 1405   0.835   2.028   0.547 -0.7344 -3.5185  2.0575
  338SOL    HW3 1406   0.732   2.075   0.647 -0.7597 -0.0535  0.4438
  338SOL    MW4 1407   0.755   2.056   0.565 -0.0135 -0.4182  0.7361
  339SOL     OW 1408   1.981   4.645   0.809  0.4138 -0.2148 -0.3194
  339SOL    HW2 1409   2.041   4.713   0.776  1.8109  0.0917  2.7295
  339SOL    HW3 1410   2.006   4.566   0.762  1.7914  0.3797 -0.6062
  339SOL    MW4 1411   1.992   4.644   0.798  0.7800 -0.0958  0.0450
  340SOL     OW 1412   2.010   0.513   0.528  0.0980  0.2238 -0.5632
  340SOL    HW2 1413   2.085   0.554   0.484  1.7393 -0.6340  1.3723
  340SOL    HW3 1414   1.938   0.574   0.513  1.8166  2.4224 -0.1706
  340SOL    MW4 1415   2.010   0.527   0.520  0.5414  0.4007 -0.2559
  341SOL     OW 1416   0.340   1.209   0.423 -0.0759 -0.2263  0.0359
  341SOL    HW2 1417   0.346   1.115   0.411  1.3221  0.1274 -2.2347
  341SOL    HW3 1418   0.270   1.237   0.365  1.1529  0.4270 -1.1609
  341SOL    MW4 1419   0.331   1.201   0.414  0.2707 -0.0935 -0.4216
  342SOL     OW 1420   1.386   0.419   0.846  0.3643 -0.4285  0.4490
  342SOL    HW2 1421   1.378   0.328   0.816  1.8931 -0.7635  0.9727
  342SOL    HW3 1422   1.386   0.413   0.942  2.3214 -0.1030  0.5023
  342SOL    MW4 1423   1.385   0.406   0.855  0.8242 -0.4297  0.5251
  343SOL     OW 1424   2.879   0.529   0.512  0.2668  0.1010 -0.0409
  343SOL    HW2 1425   2.876   0.535   0.607 -1.2800  2.0139 -0.1799
  343SOL    HW3 1426   2.917   0.443   0.494  2.4845  0.5442  2.2876
  343SOL    MW4 1427   2.883   0.518   0.522  0.3552  0.4119  0.2480
  344SOL     OW 1428   1.963   1.242   0.437 -0.1419 -0.2150  0.5003
  344SOL    HW2 1429   1.982   1.280   0.523  0.6194 -0.7959  0.6004
  344SOL    HW3 1430   1.885   1.288   0.407  0.7944  1.4625  0.5980
  344SOL    MW4 1431   1.956   1.253   0.445  0.0821 -0.0701  0.5264
  345SOL     OW 1432   2.029   3.344   0.406 -0.0014 -0.2360 -0.4686
  345SOL    HW2 1433   1.940   3.353   0.442  0.7083  0.1712  1.2361
  345SOL    HW3 1434   2.015   3.312   0.317 -1.8282 -1.3250  0.1581
  345SOL    MW4 1435   2.015   3.341   0.399 -0.1490 -0.3259 -0.1610
  346SOL     OW 1436   2.302   0.906   0.804 -0.1090  0.2344 -0.0869
  346SOL    HW2 1437   2.340   0.892   0.717 -0.3356 -0.6438 -0.0423
  346SOL    HW3 1438   2.361   0.860   0.863  0.3272  1.2630  0.2826
  346SOL    MW4 1439   2.314   0.898   0.800 -0.0813  0.2542 -0.0324
  347SOL     OW 1440   2.219   0.095   0.470 -0.0415  0.1175  0.4762
  347SOL    HW2 1441   2.280   0.152   0.422  0.5316 -0.0670  0.9714
  347SOL    HW3 1442   2.133   0.134   0.456  0.1153  0.0527 -0.7172
  347SOL    MW4 1443   2.216   0.108   0.462  0.0548  0.0846  0.3841
  348SOL     OW 1444   1.388   1.899   0.791 -0.4274 -0.1678 -0.0742
  348SOL    HW2 1445   1.377   1.816   0.745  1.5424  0.2215 -1.3237
  348SOL    HW3 1446   1.381   1.877   0.884 -0.8190 -1.5803 -0.4372
  348SOL    MW4 1447   1.386   1.885   0.798 -0.2192 -0.3027 -0.2870
  349SOL     OW 1448   1.842   1.924   0.812 -0.5715 -0.0618 -0.3541
  349SOL    HW2 1449   1.811   1.843   0.771 -0.3372  0.0236 -0.7085
  349SOL    HW3 1450   1.912   1.954   0.754 -1.2099  0.8330 -0.6866
  349SOL    MW4 1451   1.847   1.917   0.799 -0.6247  0.0676 -0.4447
  350SOL     OW 1452   4.133   1.184   0.462  0.1927  0.7379  0.1869
  350SOL    HW2 1453   4.166   1.211   0.548 -1.8647  2.4613  0.4646
  350SOL    HW3 1454   4.212   1.170   0.410  1.4217  2.7591  1.4222
  350SOL    MW4 1455   4.148   1.185   0.467  0.0830  1.2319  0.3866
  351SOL     OW 1456   1.617   2.053   0.726 -0.0366  0.2727 -0.1714
  351SOL    HW2 1457   1.689   2.021   0.780  0.5147  1.4137 -0.2168
  351SOL    HW3 1458   1.542   2.001   0.752  0.4702  0.0975  0.9476
  351SOL    MW4 1459   1.617   2.042   0.736  0.1031  0.4001 -0.0297
  352SOL     OW 1460   1.338   0.143   0.502 -0.2304  0.0981 -0.2403
  352SOL    HW2 1461   1.301   0.070   0.452  1.3678 -0.9651  0.0634
  352SOL    HW3 1462   1.285   0.219   0.478 -0.9561 -0.8633 -1.7534
  352SOL    MW4 1463   1.326   0.143   0.492 -0.1154 -0.1690 -0.3998
  353SOL     OW 1464   1.205   0.362   0.403  0.4417 -0.2107 -0.0955
  353SOL    HW2 1465   1.127   0.334   0.354  0.1124  0.6888 -0.0892
  353SOL    HW3 1466   1.258   0.407   0.338 -0.5179  1.9958  0.6171
  353SOL    MW4 1467   1.202   0.364   0.388  0.2716  0.1991 -0.0007
  354SOL     OW 1468   0.728   4.038   0.231 -0.0120  0.2198 -0.3985
  354SOL    HW2 1469   0.725   4.084   0.147 -0.9129  1.9427  0.5481
  354SOL    HW3 1470   0.694   3.951   0.212 -0.2205  0.5964 -1.8152
  354SOL    MW4 1471   0.723   4.033   0.217 -0.1583  0.4969 -0.4606
  355SOL     OW 1472   2.000   3.071   0.793 -0.3688  0.0049  0.5505
  355SOL    HW2 1473   2.021   2.993   0.742 -0.2843  1.7327 -2.1477
  355SOL    HW3 1474   2.076   3.127   0.783 -0.5792  0.6100  2.1843
  355SOL    MW4 1475   2.012   3.068   0.785 -0.3853  0.3126  0.4101
  356SOL     OW 1476   2.023   3.627   0.470 -0.4596 -0.0017 -0.0660
  356SOL    HW2 1477   2.011   3.625   0.565  0.4651 -0.4933  0.0538
  356SOL    HW3 1478   2.030   3.535   0.445 -0.2620  0.1438 -0.5536
  356SOL    MW4 1479   2.022   3.615   0.479 -0.3119 -0.0474 -0.1145
  357SOL     OW 1480   1.787   3.480   0.810 -0.1936 -0.1545  0.5059
  357SOL    HW2 1481   1.808   3.485   0.904 -0.4139 -0.6374  0.5855
  357SOL    HW3 1482   1.778   3.386   0.793  0.7975 -0.1197 -0.2134
  357SOL    MW4 1483   1.788   3.468   0.820 -0.0918 -0.2141  0.4215
  358SOL     OW 1484   2.024   3.614   0.741  0.0758 -0.3916 -0.5377
  358SOL    HW2 1485   2.018   3.698   0.786 -0.7755 -0.1176 -1.1422
  358SOL    HW3 1486   1.941   3.570   0.762  0.1563 -0.7231 -0.9108
  358SOL    MW4 1487   2.012   3.619   0.750 -0.0255 -0.3991 -0.6666
  359SOL     OW 1488   2.024   3.865   0.875 -0.0146  0.4010 -0.6226
  359SOL    HW2 1489   2.008   3.887   0.967  0.6496 -1.2281 -0.0988
  359SOL    HW3 1490   1.957   3.914   0.827 -1.4979 -0.1102  0.8815
  359SOL    MW4 1491   2.013   3.874   0.881 -0.1228  0.1187 -0.3551
  360SOL     OW 1492   1.811   4.008   0.744  0.4572  0.0330 -0.1367
  360SOL    HW2 1493   1.764   4.001   0.661 -0.6105  1.1618  0.3478
  360SOL    HW3 1494   1.798   4.099   0.771 -0.5481 -0.7187  2.0381
  360SOL    MW4 1495   1.803   4.019   0.737  0.1837  0.0825  0.2142
  361SOL     OW 1496   1.787   4.281   0.830 -0.1476  0.1114  0.5635
  361SOL    HW2 1497   1.797   4.264   0.924 -0.4034  1.2877  0.8232
  361SOL    HW3 1498   1.863   4.334   0.807  0.6163 -1.3016 -0.2019
  361SOL    MW4 1499   1.798   4.286   0.840 -0.0807  0.0801  0.4968
  362SOL     OW 1500   4.087   4.456   0.384 -0.0893 -0.1880 -0.2736
  362SOL    HW2 1501   4.049   4.461   0.471 -0.0551 -0.6308 -0.2282
  362SOL    HW3 1502   4.171   4.501   0.391 -0.2069  0.0082 -0.1463
  362SOL    MW4 1503   4.093   4.462   0.396 -0.1001 -0.2198 -0.2508
  363SOL     OW 1504   2.417   0.025   0.881 -0.0369  0.3358  0.5986
  363SOL    HW2 1505   2.438   0.023   0.975  0.4441  0.6543  0.4981
  363SOL    HW3 1506   2.496   0.059   0.840  0.2299 -1.0582 -0.0579
  363SOL    MW4 1507   2.430   0.029   0.888  0.0618  0.1941  0.4988
  364SOL     OW 1508   2.196   4.310   0.239  0.3969 -0.0720 -0.1604
  364SOL    HW2 1509   2.129   4.251   0.272  0.6413  1.3111  3.0188
  364SOL    HW3 1510   2.272   4.254   0.223 -0.0942 -0.9813  0.6126
  364SOL    MW4 1511   2.198   4.295   0.241  0.3643 -0.0095  0.3610
  365SOL     OW 1512   2.003   0.553   0.804  0.2331  0.3675 -0.1246
  365SOL    HW2 1513   1.939   0.489   0.836  1.8519 -0.8479  0.7342
  365SOL    HW3 1514   1.999   0.544   0.708 -1.5390  0.9907 -0.1348
  365SOL    MW4 1515   1.994   0.543   0.795  0.2128  0.2893 -0.0126
  366SOL     OW 1516   2.016   4.104   0.331  0.2630  0.0942 -0.3076
  366SOL    HW2 1517   1.967   4.022   0.317 -0.4739  0.5668 -0.5014
  366SOL    HW3 1518   1.955   4.161   0.377  1.3427 -0.0291  1.3165
  366SOL    MW4 1519   2.001   4.101   0.335  0.3083  0.1402 -0.1189
  367SOL     OW 1520   2.936   1.310   0.542 -0.0951  0.2669 -0.4934
  367SOL    HW2 1521   2.935   1.301   0.637 -0.5764 -0.5512 -0.5697
  367SOL    HW3 1522   2.859   1.262   0.512 -0.9547  2.0476 -1.1710
  367SOL    MW4 1523   2.926   1.302   0.550 -0.2720  0.3939 -0.5929
  368SOL     OW 1524   0.090   2.981   0.396 -0.2322  0.4279 -0.2927
  368SOL    HW2 1525   0.138   2.899   0.409 -0.4999 -0.0236 -1.9982
  368SOL    HW3 1526   0.158   3.047   0.385 -0.0020  0.1003 -0.8611
  368SOL    MW4 1527   0.106   2.979   0.396 -0.2371  0.3250 -0.5927
  369SOL     OW 1528   2.265   1.196   0.829 -0.0559 -0.2491  0.3742
  369SOL    HW2 1529   2.260   1.201   0.924  2.7516  0.4785  0.5389
  369SOL    HW3 1530   2.282   1.104   0.810  0.3092 -0.2392  0.6461
  369SOL    MW4 1531   2.267   1.185   0.839  0.3629 -0.1518  0.4317
  370SOL     OW 1532   2.501   1.289   0.715  0.4324  0.2299 -0.2171
  370SOL    HW2 1533   2.418   1.250   0.743  0.9330 -0.1339  0.8094
  370SOL    HW3 1534   2.515   1.255   0.627 -0.2922 -0.0641 -0.2234
  370SOL    MW4 1535   2.492   1.279   0.707  0.4027  0.1432 -0.0826
  371SOL     OW 1536   2.743   1.641   0.711  0.1285  0.2385  0.0403
  371SOL    HW2 1537   2.817   1.599   0.754 -0.3150 -0.1251  0.4504
  371SOL    HW3 1538   2.756   1.735   0.725  0.5306  0.1759  0.0781
  371SOL    MW4 1539   2.754   1.648   0.718  0.1228  0.1823  0.0994
  372SOL     OW 1540   2.250   1.946   0.796 -0.0354  0.2397  0.0889
  372SOL    HW2 1541   2.183   1.981   0.737  1.6048  1.5466 -1.0474
  372SOL    HW3 1542   2.250   1.852   0.777  0.5916  0.6664 -2.1698
  372SOL    MW4 1543   2.241   1.938   0.785  0.2639  0.4685 -0.3590
  373SOL     OW 1544   2.259   2.144   0.434 -0.2067 -0.1039 -0.4876
  373SOL    HW2 1545   2.286   2.233   0.457 -1.4862  0.4554 -1.1024
  373SOL    HW3 1546   2.341   2.094   0.431  0.2773  0.4369  2.4668
  373SOL    MW4 1547   2.274   2.149   0.437 -0.3116  0.0410 -0.1790
  374SOL     OW 1548   2.508   2.050   0.696 -0.5697  0.1713  0.0168
  374SOL    HW2 1549   2.512   2.047   0.600 -2.2289 -0.4898 -0.0451
  374SOL    HW3 1550   2.432   1.997   0.719 -0.0050  0.0582  1.7337
  374SOL    MW4 1551   2.499   2.042   0.686 -0.7138  0.0691  0.2352
  375SOL     OW 1552   2.495   2.280   0.834  0.2949 -0.6803 -0.0962
  375SOL    HW2 1553   2.488   2.201   0.781 -0.1238 -0.5838 -0.1944
  375SOL    HW3 1554   2.560   2.334   0.789 -0.6753 -0.2347 -1.0066
  375SOL    MW4 1555   2.502   2.277   0.821  0.1116 -0.6087 -0.2294
  376SOL     OW 1556   3.199   1.631   0.777  0.2034  0.0344 -0.1347
  376SOL    HW2 1557   3.190   1.723   0.799  1.7455  0.3563 -0.7910
  376SOL    HW3 1558   3.229   1.630   0.686  1.2518 -1.0682  0.1984
  376SOL    MW4 1559   3.202   1.643   0.768  0.5450 -0.0685 -0.1773
  377SOL     OW 1560   2.253   2.681   0.797 -0.0588  0.1669  0.3652
  377SOL    HW2 1561   2.253   2.678   0.892  1.2891  0.0610  0.3775
  377SOL    HW3 1562   2.284   2.595   0.770  0.1988  0.4195 -0.1541
  377SOL    MW4 1563   2.257   2.669   0.806  0.1528  0.1860  0.2983
  378SOL     OW 1564   2.493   2.845   0.733  0.0936  0.0511 -0.1507
  378SOL    HW2 1565   2.551   2.777   0.767 -1.1054 -1.2657 -0.6970
  378SOL    HW3 1566   2.408   2.825   0.771 -0.6746  0.1425 -1.7804
  378SOL    MW4 1567   2.490   2.833   0.743 -0.1659 -0.1104 -0.4378
  379SOL     OW 1568   2.499   3.108   0.819  0.2565  0.4487  0.1460
  379SOL    HW2 1569   2.491   3.096   0.914 -0.7252 -0.2889 -0.0239
  379SOL    HW3 1570   2.501   3.019   0.784  1.3125  0.7131 -0.4763
  379SOL    MW4 1571   2.498   3.094   0.827  0.2663  0.3862  0.0415
  380SOL     OW 1572   2.265   3.222   0.734 -0.0980 -0.4449 -0.0303
  380SOL    HW2 1573   2.338   3.191   0.787  0.8431  1.9798  0.1688
  380SOL    HW3 1574   2.290   3.202   0.644 -0.4529 -2.0982  0.2315
  380SOL    MW4 1575   2.278   3.215   0.729 -0.0205 -0.3431  0.0305
  381SOL     OW 1576   2.265   3.476   0.814  0.1216  0.5295  0.2766
  381SOL    HW2 1577   2.267   3.398   0.759 -0.6653  1.6133 -1.3333
  381SOL    HW3 1578   2.185   3.522   0.789  0.1113  1.4245  1.8289
  381SOL    MW4 1579   2.255   3.472   0.804  0.0167  0.7906  0.2690
  382SOL     OW 1580   1.687   4.031   0.500 -0.2001 -0.3369  0.0266
  382SOL    HW2 1581   1.743   4.104   0.474 -0.7549  0.4486  1.0205
  382SOL    HW3 1582   1.730   3.953   0.464  0.8938  0.3850 -0.2253
  382SOL    MW4 1583   1.700   4.030   0.492 -0.1290 -0.1383  0.1245
  383SOL     OW 1584   3.121   1.746   0.511  0.1784  0.3488 -0.2320
  383SOL    HW2 1585   3.046   1.691   0.492  0.9629 -0.5414 -0.8051
  383SOL    HW3 1586   3.090   1.835   0.499 -0.4750 -0.0555 -1.5954
  383SOL    MW4 1587   3.107   1.750   0.507  0.1955  0.1780 -0.4874
  384SOL     OW 1588   1.932   1.671   0.308  0.0756  0.1859 -0.3070
  384SOL    HW2 1589   1.920   1.752   0.358 -0.6799 -0.0741 -0.0553
  384SOL    HW3 1590   1.931   1.699   0.217 -0.4957  0.4340 -0.2313
  384SOL    MW4 1591   1.930   1.685   0.303 -0.0995  0.1844 -0.2638
  385SOL     OW 1592   2.466   3.869   0.886 -0.1093 -0.5137  0.0321
  385SOL    HW2 1593   2.472   3.793   0.828 -2.1551 -2.5226  2.3380
  385SOL    HW3 1594   2.385   3.912   0.860  0.3499  0.1099 -0.3681
  385SOL    MW4 1595   2.456   3.864   0.875 -0.3185 -0.6964  0.2836
  386SOL     OW 1596   0.243   3.221   0.354 -0.1920  0.2896  0.2709
  386SOL    HW2 1597   0.336   3.217   0.378 -0.1527  0.0405  0.0836
  386SOL    HW3 1598   0.241   3.276   0.275 -0.4017  1.6766  1.2296
  386SOL    MW4 1599   0.255   3.228   0.347 -0.2145  0.4396  0.3727
  387SOL     OW 1600   4.485   0.643   0.314 -0.0068  0.1189  0.1114
  387SOL    HW2 1601   4.544   0.570   0.293 -0.6278 -0.4741  0.3947
  387SOL    HW3 1602   4.409   0.601   0.354 -0.1934  0.9647  0.6535
  387SOL    MW4 1603   4.483   0.628   0.316 -0.1135  0.1522  0.2203
  388SOL     OW 1604   2.287   3.204   0.456  0.0171  0.2964  0.2100
  388SOL    HW2 1605   2.206   3.250   0.434  1.0367  1.2453 -1.6085
  388SOL    HW3 1606   2.270   3.113   0.434 -0.2972  0.6159 -0.8691
  388SOL    MW4 1607   2.274   3.198   0.450  0.1101  0.4635 -0.1723
  389SOL     OW 1608   2.206   0.380   0.858  0.4093 -0.3606  0.5962
  389SOL    HW2 1609   2.125   0.429   0.848  0.9819  0.1952 -1.4764
  389SOL    HW3 1610   2.189   0.296   0.814  0.5698 -0.6945  1.1660
  389SOL    MW4 1611   2.193   0.375   0.851  0.5062 -0.3313  0.3980
  390SOL     OW 1612   3.683   3.960   0.360 -0.0570 -0.0784 -0.1339
  390SOL    HW2 1613   3.639   4.029   0.409  0.0385  0.4980 -0.8459
  390SOL    HW3 1614   3.661   3.979   0.268  0.1753 -0.8467 -0.3487
  390SOL    MW4 1615   3.674   3.972   0.354 -0.0141 -0.1037 -0.2562
  391SOL     OW 1616   3.073   0.937   0.643  0.0381  0.0178  0.0762
  391SOL    HW2 1617   3.088   1.010   0.583 -0.1025 -0.6027 -0.7381
  391SOL    HW3 1618   3.150   0.937   0.701 -0.1596  1.0455  0.3378
  391SOL    MW4 1619   3.085   0.946   0.642 -0.0067  0.0715  0.0033
  392SOL     OW 1620   3.358   1.602   0.543 -0.0355 -0.0107 -0.0814
  392SOL    HW2 1621   3.293   1.659   0.502 -0.3409 -0.7482 -0.6383
  392SOL    HW3 1622   3.443   1.641   0.519 -0.1921 -0.7900 -1.9639
  392SOL    MW4 1623   3.361   1.615   0.535 -0.0966 -0.2106 -0.4032
  393SOL     OW 1624   4.252   0.528   0.406  0.5775 -0.1521 -0.0958
  393SOL    HW2 1625   4.273   0.438   0.383 -1.4272 -0.3602 -1.2331
  393SOL    HW3 1626   4.276   0.535   0.499  0.7471 -1.8466  0.0059
  393SOL    MW4 1627   4.258   0.517   0.416  0.3352 -0.4032 -0.2325
  394SOL     OW 1628   1.985   2.258   0.326  0.0213  0.7715 -0.4900
  394SOL    HW2 1629   2.072   2.235   0.359 -0.1720  0.5596 -0.1243
  394SOL    HW3 1630   1.973   2.201   0.251  0.1649  0.7446 -0.4937
  394SOL    MW4 1631   1.995   2.247   0.321  0.0147  0.7401 -0.4422
  395SOL     OW 1632   3.570   1.118   0.401 -0.0254  0.2361  1.0572
  395SOL    HW2 1633   3.608   1.045   0.449  0.7933  0.0599  0.1697
  395SOL    HW3 1634   3.520   1.076   0.330 -1.6139  0.4744  2.0233
  395SOL    MW4 1635   3.569   1.102   0.398 -0.1268  0.2443  1.0675
  396SOL     OW 1636   3.384   1.293   0.518  0.2966 -0.3889  0.1351
  396SOL    HW2 1637   3.401   1.383   0.492 -2.5323  0.0416 -0.3780
  396SOL    HW3 1638   3.448   1.242   0.469  1.8195  1.3149  0.3179
  396SOL    MW4 1639   3.394   1.298   0.508  0.1242 -0.1073  0.0914
  397SOL     OW 1640   2.715   1.909   0.788 -0.6628 -0.0738  0.1959
  397SOL    HW2 1641   2.694   1.901   0.881 -0.7252  0.7559  0.2498
  397SOL    HW3 1642   2.645   1.963   0.752  0.3382  1.1065  0.0051
  397SOL    MW4 1643   2.703   1.915   0.795 -0.5388  0.1915  0.1778
  398SOL     OW 1644   3.736   4.413   0.488 -0.0252  0.3748 -0.0413
  398SOL    HW2 1645   3.783   4.424   0.571 -0.0046 -0.8954  0.1234
  398SOL    HW3 1646   3.653   4.458   0.502  0.9582  2.3063 -0.2007
  398SOL    MW4 1647   3.731   4.421   0.501  0.1073  0.4616 -0.0406
  399SOL     OW 1648   2.202   0.143   0.741 -0.3760  0.3439 -0.2092
  399SOL    HW2 1649   2.234   0.131   0.652 -1.9632 -1.2501 -0.5924
  399SOL    HW3 1650   2.272   0.109   0.797  0.4453  0.9681 -0.8414
  399SOL    MW4 1651   2.215   0.137   0.737 -0.4771  0.2160 -0.3432
  400SOL     OW 1652   2.761   2.411   0.729  0.0746 -0.4067  0.0140
  400SOL    HW2 1653   2.759   2.503   0.756 -0.4956 -0.2653 -0.5141
  400SOL    HW3 1654   2.819   2.369   0.793  0.2947  0.3066  0.2895
  400SOL    MW4 1655   2.769   2.417   0.741  0.0286 -0.2937 -0.0194
  401SOL     OW 1656   2.728   2.661   0.807 -0.1407 -0.4533  0.1741
  401SOL    HW2 1657   2.723   2.687   0.899 -0.1226 -0.5160  0.1928
  401SOL    HW3 1658   2.791   2.721   0.768 -1.3059  0.5798 -0.1417
  401SOL    MW4 1659   2.735   2.672   0.814 -0.2921 -0.3252  0.1349
  402SOL     OW 1660   1.607   0.803   0.830 -0.1697  0.3833 -0.1946
  402SOL    HW2 1661   1.666   0.861   0.782 -0.4894  1.5293  0.7572
  402SOL    HW3 1662   1.520   0.841   0.817 -0.4711 -0.2735 -0.1223
  402SOL    MW4 1663   1.603   0.816   0.822 -0.2517  0.4479 -0.0594
  403SOL     OW 1664   2.917   3.080   0.848 -0.0164 -0.6770 -0.3330
  403SOL    HW2 1665   2.863   3.149   0.810 -1.0980 -1.1047  0.4052
  403SOL    HW3 1666   2.911   3.008   0.786 -1.2390 -1.1352  0.3005
  403SOL    MW4 1667   2.909   3.080   0.835 -0.3207 -0.7942 -0.1521
  404SOL     OW 1668   2.722   3.234   0.720  0.3675  0.2770  0.2311
  404SOL    HW2 1669   2.710   3.322   0.756 -1.7288  0.2577 -0.3493
  404SOL    HW3 1670   2.649   3.184   0.756 -0.3437 -0.3806 -2.0337
  404SOL    MW4 1671   2.711   3.239   0.730 -0.0031  0.1879 -0.1442
  405SOL     OW 1672   2.707   3.487   0.813 -0.1382 -0.0893 -0.1806
  405SOL    HW2 1673   2.727   3.466   0.904 -0.1229  0.3952 -0.0755
  405SOL    HW3 1674   2.783   3.536   0.782 -0.0420 -0.4494 -0.5230
  405SOL    MW4 1675   2.720   3.491   0.821 -0.1233 -0.0727 -0.2119
  406SOL     OW 1676   2.948   3.620   0.728  0.1478  0.0558  0.2891
  406SOL    HW2 1677   2.944   3.707   0.767  1.8563  0.1012  0.3975
  406SOL    HW3 1678   2.927   3.634   0.636  0.0212  0.5112  0.3830
  406SOL    MW4 1679   2.944   3.633   0.721  0.3564  0.1218  0.3158
  407SOL     OW 1680   2.926   3.862   0.880  0.1915  0.4235  0.2778
  407SOL    HW2 1681   2.841   3.900   0.861 -0.4715 -1.2131 -0.0997
  407SOL    HW3 1682   2.932   3.863   0.976 -0.7206 -0.4514  0.3500
  407SOL    MW4 1683   2.916   3.867   0.890 -0.0165  0.0923  0.2375
  408SOL     OW 1684   2.688   4.014   0.836  0.6636  0.0195 -0.1860
  408SOL    HW2 1685   2.672   4.020   0.742  0.4804 -1.6467 -0.2725
  408SOL    HW3 1686   2.620   3.955   0.868  1.8021 -0.8334  0.6988
  408SOL    MW4 1687   2.677   4.007   0.828  0.7896 -0.3128 -0.0806
  409SOL     OW 1688   2.678   4.299   0.869 -0.1786 -0.1426 -0.0475
  409SOL    HW2 1689   2.680   4.302   0.965  1.2445  0.1300 -0.0677
  409SOL    HW3 1690   2.677   4.205   0.848 -1.7251 -0.1962  0.2377
  409SOL    MW4 1691   2.678   4.287   0.879 -0.1945 -0.1135 -0.0125
  410SOL     OW 1692   3.195   3.332   0.512  0.4162 -0.4124 -0.1346
  410SOL    HW2 1693   3.250   3.409   0.500 -0.9956  0.7515  0.6668
  410SOL    HW3 1694   3.197   3.316   0.606  0.6847 -1.3491 -0.2978
  410SOL    MW4 1695   3.203   3.340   0.523  0.2654 -0.3824 -0.0504
  411SOL     OW 1696   3.310   4.659   0.847 -0.2179 -0.0847 -0.1030
  411SOL    HW2 1697   3.338   4.677   0.937 -1.7923 -0.4796  0.4661
  411SOL    HW3 1698   3.237   4.719   0.832 -0.5258 -0.6376 -0.8340
  411SOL    MW4 1699   3.304   4.670   0.857 -0.4661 -0.2097 -0.1243
  412SOL     OW 1700   2.113   0.886   0.206 -0.0639 -0.1592 -0.1032
  412SOL    HW2 1701   2.073   0.845   0.130  2.2326 -1.6698 -0.5565
  412SOL    HW3 1702   2.143   0.813   0.260  1.5733  0.8758  0.4486
  412SOL    MW4 1703   2.112   0.871   0.203  0.4549 -0.2220 -0.0902
  413SOL     OW 1704   3.146   3.781   0.384 -0.3928 -0.0593 -0.0377
  413SOL    HW2 1705   3.197   3.721   0.439 -1.2349 -1.0053 -0.2692
  413SOL    HW3 1706   3.186   3.772   0.297 -0.6066 -0.4068 -0.1038
  413SOL    MW4 1707   3.158   3.772   0.380 -0.5324 -0.2298 -0.0770
  414SOL     OW 1708   3.093   0.165   0.760  0.3270 -0.5593  0.0142
  414SOL    HW2 1709   3.111   0.255   0.787 -2.0625  0.4927 -1.7773
  414SOL    HW3 1710   3.130   0.158   0.672 -1.7165 -0.5420 -0.8589
  414SOL    MW4 1711   3.100   0.176   0.752 -0.2577 -0.4182 -0.3374
  415SOL     OW 1712   3.261   0.891   0.860  0.0608  0.1956 -0.0428
  415SOL    HW2 1713   3.344   0.928   0.829  0.2332  0.4291  0.6612
  415SOL    HW3 1714   3.204   0.967   0.873 -0.0216  0.1027  0.1520
  415SOL    MW4 1715   3.265   0.906   0.858  0.0725  0.2142  0.0758
  416SOL     OW 1716   2.486   1.489   0.488 -0.3331 -0.4561 -0.4090
  416SOL    HW2 1717   2.510   1.508   0.579  0.7271  1.5321 -1.0545
  416SOL    HW3 1718   2.561   1.521   0.437 -2.0980  1.0548 -2.1501
  416SOL    MW4 1719   2.499   1.496   0.493 -0.4258  0.0055 -0.7239
  417SOL     OW 1720   2.928   1.275   0.814 -0.0089  0.1551 -0.0761
  417SOL    HW2 1721   2.844   1.229   0.818 -0.4749  0.7325 -2.3355
  417SOL    HW3 1722   2.992   1.213   0.849 -1.0094 -1.2092 -0.6289
  417SOL    MW4 1723   2.925   1.261   0.819 -0.2022  0.0513 -0.4472
  418SOL     OW 1724   3.351   1.297   0.817  0.4720 -0.0132 -0.0099
  418SOL    HW2 1725   3.367   1.304   0.723 -2.2367  1.3414 -0.4018
  418SOL    HW3 1726   3.370   1.385   0.851 -1.2512  0.2635  0.2622
  418SOL    MW4 1727   3.356   1.310   0.809 -0.1128  0.2019 -0.0256
  419SOL     OW 1728   3.405   1.537   0.926 -0.5567  0.0246  0.2874
  419SOL    HW2 1729   3.334   1.588   0.886 -0.4369 -0.4272 -0.5089
  419SOL    HW3 1730   3.384   1.536   1.020 -0.7150  1.2903  0.2809
  419SOL    MW4 1731   3.393   1.544   0.933 -0.5620  0.1320  0.1815
  420SOL     OW 1732   0.107   1.300   0.310 -0.5143  0.0026 -0.0364
  420SOL    HW2 1733   0.061   1.377   0.344 -0.5264  0.3039 -0.7294
  420SOL    HW3 1734   0.041   1.231   0.307 -0.5693  0.0393  0.3307
  420SOL    MW4 1735   0.092   1.301   0.314 -0.5232  0.0472 -0.0794
  421SOL     OW 1736   3.198   1.922   0.862  0.3190  0.0540 -0.0394
  421SOL    HW2 1737   3.118   1.972   0.845  0.9445  1.3106  0.5966
  421SOL    HW3 1738   3.198   1.909   0.957  1.4824  1.1538  0.1282
  421SOL    MW4 1739   3.187   1.927   0.873  0.5550  0.3649  0.0666
  422SOL     OW 1740   2.443   0.484   0.446 -0.2080  0.1727 -0.1661
  422SOL    HW2 1741   2.524   0.526   0.419 -0.1984 -0.3873 -1.0158
  422SOL    HW3 1742   2.441   0.401   0.398 -0.7110 -0.3519  0.7304
  422SOL    MW4 1743   2.454   0.478   0.436 -0.2730  0.0297 -0.1599
  423SOL     OW 1744   2.904   1.593   0.488  0.3505  0.0197 -0.2630
  423SOL    HW2 1745   2.917   1.498   0.500  0.2186 -0.2256 -1.9419
  423SOL    HW3 1746   2.845   1.618   0.559  0.1667 -1.2129  0.0366
  423SOL    MW4 1747   2.898   1.584   0.499  0.3088 -0.1752 -0.4450
  424SOL     OW 1748   3.158   2.500   0.736 -0.0767 -0.1285 -0.1238
  424SOL    HW2 1749   3.088   2.454   0.782  0.0429 -0.9461 -0.7543
  424SOL    HW3 1750   3.238   2.458   0.766  0.2160  1.2472  1.1106
  424SOL    MW4 1751   3.159   2.488   0.746 -0.0224 -0.0548 -0.0442
  425SOL     OW 1752   3.419   2.857   0.735  0.1321  0.0981  0.0126
  425SOL    HW2 1753   3.442   2.840   0.643 -1.7449 -1.7078 -0.1315
  425SOL    HW3 1754   3.485   2.809   0.785  0.7556  0.5398 -0.3612
  425SOL    MW4 1755   3.431   2.849   0.729 -0.0334 -0.0815 -0.0558
  426SOL     OW 1756   2.224   4.057   0.524 -0.3442  0.0538  0.4142
  426SOL    HW2 1757   2.301   4.095   0.483 -0.1979 -0.9863 -0.3130
  426SOL    HW3 1758   2.152   4.082   0.466 -0.1622 -1.2615 -0.4065
  426SOL    MW4 1759   2.225   4.065   0.511 -0.3009 -0.2575  0.2099
  427SOL     OW 1760   3.159   2.771   0.846  0.0940 -0.6147 -0.4456
  427SOL    HW2 1761   3.235   2.809   0.801  0.5763 -0.1992  0.6937
  427SOL    HW3 1762   3.158   2.679   0.819  0.0084 -0.2229 -1.7799
  427SOL    MW4 1763   3.169   2.764   0.837  0.1464 -0.5083 -0.4713
  428SOL     OW 1764   3.140   3.241   0.800  0.3822 -0.7032 -0.1836
  428SOL    HW2 1765   3.211   3.184   0.830  0.6651 -0.8894 -1.1879
  428SOL    HW3 1766   3.060   3.196   0.827  0.6374 -0.3438  1.2272
  428SOL    MW4 1767   3.139   3.227   0.807  0.4530 -0.6802 -0.1299
  429SOL     OW 1768   3.136   3.500   0.909  0.2324  0.1276 -0.3047
  429SOL    HW2 1769   3.144   3.419   0.859 -1.2131 -0.2197  0.0176
  429SOL    HW3 1770   3.083   3.557   0.853 -0.3367  0.1768  0.2799
  429SOL    MW4 1771   3.130   3.497   0.895 -0.0334  0.0885 -0.1850
  430SOL     OW 1772   3.353   3.616   0.780 -0.8037 -0.0253 -0.0536
  430SOL    HW2 1773   3.342   3.709   0.802  0.4767 -0.3324  1.9452
  430SOL    HW3 1774   3.279   3.573   0.822 -1.1377  0.0081 -0.5946
  430SOL    MW4 1775   3.341   3.623   0.788 -0.6785 -0.0613  0.1388
  431SOL     OW 1776   3.323   3.900   0.860  0.3309  0.1699 -0.3740
  431SOL    HW2 1777   3.338   3.900   0.954 -0.2944  0.7551 -0.2750
  431SOL    HW3 1778   3.399   3.943   0.823  0.7913 -0.4622 -0.1724
  431SOL    MW4 1779   3.335   3.905   0.867  0.3092  0.1638 -0.3343
  432SOL     OW 1780   3.107   4.253   0.907  0.2344  0.2723 -0.1977
  432SOL    HW2 1781   3.112   4.165   0.870 -1.9242  0.8308 -1.9139
  432SOL    HW3 1782   3.191   4.293   0.884  1.0672 -1.1767  0.2332
  432SOL    MW4 1783   3.119   4.246   0.899  0.0598  0.1550 -0.3673
  433SOL     OW 1784   2.911   4.417   0.816 -0.0011 -0.1373  0.5498
  433SOL    HW2 1785   2.831   4.376   0.847 -0.5552  0.4738 -0.0616
  433SOL    HW3 1786   2.982   4.365   0.854 -0.6885 -2.2031 -0.9337
  433SOL    MW4 1787   2.910   4.405   0.825 -0.1647 -0.3290  0.2734
  434SOL     OW 1788   3.314   4.380   0.795  0.3302 -0.6205  0.4006
  434SOL    HW2 1789   3.305   4.344   0.707 -0.4696  0.3796  0.0550
  434SOL    HW3 1790   3.312   4.475   0.782  0.5866 -0.4647  1.4590
  434SOL    MW4 1791   3.313   4.388   0.782  0.2587 -0.4678  0.4947
  435SOL     OW 1792   3.786   0.004   0.867 -0.5019 -0.6758 -0.1725
  435SOL    HW2 1793   3.708   0.023   0.814 -0.6280  0.4068  0.3898
  435SOL    HW3 1794   3.854   0.060   0.830 -0.2338 -0.9286 -0.0604
  435SOL    MW4 1795   3.784   0.014   0.855 -0.4830 -0.5663 -0.0836
  436SOL     OW 1796   3.555   0.056   0.731  0.4338 -0.1528  0.2789
  436SOL    HW2 1797   3.470   0.046   0.774 -0.5944 -0.1212 -1.6839
  436SOL    HW3 1798   3.566   0.150   0.720  0.8377 -0.1440  0.7246
  436SOL    MW4 1799   3.545   0.067   0.735  0.3514 -0.1475  0.0788
  437SOL     OW 1800   3.142   0.418   0.849 -0.4843 -0.2195  0.2695
  437SOL    HW2 1801   3.192   0.491   0.811  0.0692 -1.6765 -1.8985
  437SOL    HW3 1802   3.169   0.416   0.941  3.4879 -0.9126 -0.7822
  437SOL    MW4 1803   3.153   0.428   0.856  0.1125 -0.5032 -0.1553
  438SOL     OW 1804   3.360   0.347   0.378  0.5714  0.4203 -0.1430
  438SOL    HW2 1805   3.346   0.412   0.309 -0.2231  1.5909  1.0963
  438SOL    HW3 1806   3.381   0.399   0.456 -0.0412 -0.8007  0.8524
  438SOL    MW4 1807   3.361   0.363   0.379  0.3858  0.4136  0.1518
  439SOL     OW 1808   4.306   0.537   0.691 -0.3956  0.0357  0.2139
  439SOL    HW2 1809   4.309   0.612   0.750 -1.4713 -0.4898  0.9398
  439SOL    HW3 1810   4.374   0.478   0.724 -2.5015 -1.2758  2.3326
  439SOL    MW4 1811   4.316   0.540   0.703 -0.8154 -0.2067  0.5892
  440SOL     OW 1812   3.774   0.756   0.873 -0.1009  0.5345 -0.2052
  440SOL    HW2 1813   3.784   0.760   0.968 -0.0046  1.1327 -0.2352
  440SOL    HW3 1814   3.688   0.794   0.856  0.6069  2.0779 -0.4785
  440SOL    MW4 1815   3.764   0.762   0.883  0.0050  0.8170 -0.2452
  441SOL     OW 1816   3.538   0.903   0.806 -0.2862  0.3623 -0.4111
  441SOL    HW2 1817   3.562   0.994   0.826  0.6431 -0.4300  2.2815
  441SOL    HW3 1818   3.568   0.889   0.716  1.2181  2.1500 -0.2081
  441SOL    MW4 1819   3.545   0.913   0.797  0.0350  0.4936 -0.0290
  442SOL     OW 1820   2.005   0.257   0.420  0.0899 -0.1212 -0.6322
  442SOL    HW2 1821   2.002   0.342   0.465  0.8853 -0.5804  0.3149
  442SOL    HW3 1822   1.932   0.208   0.458 -0.1993  0.0333 -0.9809
  442SOL    MW4 1823   1.995   0.262   0.431  0.1568 -0.1614 -0.5532
  443SOL     OW 1824   3.840   1.550   0.848  0.3718 -0.0482  0.2624
  443SOL    HW2 1825   3.916   1.598   0.817  1.9779 -0.8373  2.7693
  443SOL    HW3 1826   3.765   1.600   0.816  1.9380  1.1995 -1.5700
  443SOL    MW4 1827   3.840   1.563   0.840  0.7901  0.0123  0.3514
  444SOL     OW 1828   3.617   1.675   0.786  0.1075  0.4610  0.7680
  444SOL    HW2 1829   3.610   1.769   0.801  0.2001  0.3501  1.5319
  444SOL    HW3 1830   3.553   1.636   0.846 -0.0074  0.0464  0.3774
  444SOL    MW4 1831   3.608   1.682   0.796  0.1044  0.3917  0.8172
  445SOL     OW 1832   0.517   0.756   0.356  0.2853 -0.1257  0.3066
  445SOL    HW2 1833   0.446   0.817   0.375 -0.1375 -0.4269 -0.3094
  445SOL    HW3 1834   0.544   0.778   0.267  1.5086  0.5264  0.8283
  445SOL    MW4 1835   0.511   0.767   0.347  0.3909 -0.0794  0.2941
  446SOL     OW 1836   0.627   3.797   0.202 -0.2016 -0.2727  0.0999
  446SOL    HW2 1837   0.538   3.773   0.227 -0.3917 -0.2678 -0.5622
  446SOL    HW3 1838   0.683   3.728   0.238 -0.2940  0.5707  1.9423
  446SOL    MW4 1839   0.623   3.785   0.210 -0.2388 -0.1609  0.2556
  447SOL     OW 1840   3.400   2.059   0.731  0.2516 -0.0267  0.5987
  447SOL    HW2 1841   3.377   2.149   0.755 -1.5729  0.4753 -2.7074
  447SOL    HW3 1842   3.335   2.006   0.777  0.3227  0.4563  1.2761
  447SOL    MW4 1843   3.388   2.064   0.740  0.0203  0.1035  0.2519
  448SOL     OW 1844   3.670   2.376   0.460 -0.4007 -0.2458 -0.0063
  448SOL    HW2 1845   3.656   2.403   0.551 -0.6386 -0.0304 -0.1079
  448SOL    HW3 1846   3.636   2.286   0.457 -0.6138 -0.1677  0.0566
  448SOL    MW4 1847   3.664   2.368   0.472 -0.4601 -0.2072 -0.0114
  449SOL     OW 1848   3.625   2.714   0.849 -0.2715  0.1193  0.1472
  449SOL    HW2 1849   3.637   2.724   0.943 -2.9146  1.7147  0.3968
  449SOL    HW3 1850   3.685   2.777   0.810 -0.2789  0.5665  0.8498
  449SOL    MW4 1851   3.634   2.724   0.856 -0.6213  0.3889  0.2728
  450SOL     OW 1852   2.216   1.082   0.401  0.0162  0.3276 -0.2495
  450SOL    HW2 1853   2.181   1.043   0.321  1.6764  0.0980 -0.8870
  450SOL    HW3 1854   2.140   1.120   0.445 -1.1616 -0.9713 -1.1269
  450SOL    MW4 1855   2.202   1.082   0.397  0.0801  0.1260 -0.4494
  451SOL     OW 1856   4.050   2.685   0.868  0.7028 -0.1697 -0.3313
  451SOL    HW2 1857   4.114   2.742   0.826  1.9700 -0.2533  1.4414
  451SOL    HW3 1858   4.071   2.597   0.836 -0.1124  0.1066 -1.6621
  451SOL    MW4 1859   4.061   2.681   0.858  0.7620 -0.1442 -0.2730
  452SOL     OW 1860   2.695   4.507   0.387  0.3594  0.0828 -0.1923
  452SOL    HW2 1861   2.611   4.517   0.431  0.9975  0.1001  1.0420
  452SOL    HW3 1862   2.689   4.423   0.342  0.3949 -0.8708  1.5302
  452SOL    MW4 1863   2.683   4.497   0.387  0.4482 -0.0405  0.1978
  453SOL     OW 1864   3.817   3.673   0.777 -0.4030  0.3780  0.2873
  453SOL    HW2 1865   3.903   3.634   0.793  0.0873  1.6595  0.8073
  453SOL    HW3 1866   3.755   3.610   0.814  0.4105  0.3475  1.6415
  453SOL    MW4 1867   3.820   3.659   0.784 -0.2313  0.5429  0.5347
  454SOL     OW 1868   0.138   0.026   0.501  0.0410 -0.7270  0.2924
  454SOL    HW2 1869   0.134   0.032   0.596 -1.5313 -0.6222  0.2295
  454SOL    HW3 1870   0.066  -0.033   0.478 -0.4692  0.3649 -0.9361
  454SOL    MW4 1871   0.128   0.019   0.510 -0.2337 -0.5691  0.1220
  455SOL     OW 1872   3.780   3.916   0.904  0.3545  0.1720 -0.0182
  455SOL    HW2 1873   3.701   3.959   0.873 -0.5346 -1.4359 -0.0638
  455SOL    HW3 1874   3.781   3.832   0.859  0.5914 -0.9885  2.0491
  455SOL    MW4 1875   3.770   3.910   0.894  0.2685 -0.1931  0.2485
  456SOL     OW 1876   3.551   4.030   0.769  0.0937  0.0589 -0.1050
  456SOL    HW2 1877   3.554   4.055   0.677 -2.2039  0.2573 -0.1549
  456SOL    HW3 1878   3.570   4.111   0.817 -0.1021  0.2680 -0.3826
  456SOL    MW4 1879   3.554   4.044   0.764 -0.2353  0.1125 -0.1482
  457SOL     OW 1880   3.842   4.419   0.757  0.3495  0.2060  0.1088
  457SOL    HW2 1881   3.923   4.384   0.795 -0.6804 -1.1883  1.0673
  457SOL    HW3 1882   3.822   4.496   0.810  1.0672  0.5673 -0.1473
  457SOL    MW4 1883   3.850   4.424   0.769  0.3083  0.0696  0.2015
  458SOL     OW 1884   4.079   0.138   0.755 -0.0190 -0.1045  0.0223
  458SOL    HW2 1885   4.103   0.229   0.774  0.6801 -0.5514  1.3735
  458SOL    HW3 1886   4.059   0.137   0.661  1.6958  1.0718 -0.3781
  458SOL    MW4 1887   4.079   0.150   0.745  0.2999 -0.0082  0.1478
  459SOL     OW 1888   4.305   4.650   0.863 -0.0827  0.3348 -0.1647
  459SOL    HW2 1889   4.307   4.639   0.958  0.1764 -0.5969 -0.2746
  459SOL    HW3 1890   4.226   4.702   0.847 -0.0777  0.5778  0.5651
  459SOL    MW4 1891   4.295   4.655   0.873 -0.0482  0.2439 -0.0830
  460SOL     OW 1892   4.116   0.403   0.845  0.2743 -0.0236  0.5499
  460SOL    HW2 1893   4.172   0.457   0.790  0.2167 -1.4932 -0.9726
  460SOL    HW3 1894   4.032   0.450   0.848  1.0847  1.4150  1.6125
  460SOL    MW4 1895   4.112   0.416   0.838  0.3734 -0.0277  0.4893
  461SOL     OW 1896   1.857   3.849   0.379  0.0306 -0.4180 -0.2548
  461SOL    HW2 1897   1.921   3.783   0.406 -0.1270 -0.8306 -0.8909
  461SOL    HW3 1898   1.800   3.804   0.317 -0.7460  0.0088  0.1398
  461SOL    MW4 1899   1.858   3.834   0.374 -0.0927 -0.4160 -0.2866
  462SOL     OW 1900   3.622   0.369   0.798  0.2083 -0.0689 -0.2309
  462SOL    HW2 1901   3.700   0.422   0.815  0.3335 -0.5066  0.5617
  462SOL    HW3 1902   3.581   0.358   0.883 -0.7937  0.2585 -0.6636
  462SOL    MW4 1903   3.627   0.374   0.811  0.0925 -0.0834 -0.1833
  463SOL     OW 1904   3.573   3.123   0.474 -0.1450  0.1257 -0.2367
  463SOL    HW2 1905   3.652   3.168   0.447 -0.1989  0.4070  0.0672
  463SOL    HW3 1906   3.602   3.034   0.495  0.4187  0.7221  1.5944
  463SOL    MW4 1907   3.587   3.117   0.474 -0.0777  0.2415  0.0450
  464SOL     OW 1908   2.663   1.891   0.231  0.6408  0.4493 -0.5391
  464SOL    HW2 1909   2.712   1.967   0.261  2.5177 -0.5939 -0.8736
  464SOL    HW3 1910   2.629   1.916   0.145 -1.0867  1.8703  0.5191
  464SOL    MW4 1911   2.665   1.904   0.224  0.6607  0.4991 -0.4436
  465SOL     OW 1912   0.854   0.044   0.407  0.2927 -0.3868  0.1472
  465SOL    HW2 1913   0.891   0.111   0.349 -0.2505  0.2864  0.5604
  465SOL    HW3 1914   0.897   0.060   0.491  0.9507 -1.2497 -0.0133
  465SOL    MW4 1915   0.865   0.055   0.411  0.3079 -0.4118  0.1805
  466SOL     OW 1916   3.798   1.284   0.723  0.1131  0.5703 -0.2953
  466SOL    HW2 1917   3.723   1.242   0.767 -0.5429  0.5594 -1.3969
  466SOL    HW3 1918   3.801   1.372   0.760 -1.2209  0.9797 -1.1283
  466SOL    MW4 1919   3.788   1.290   0.733 -0.1495  0.6229 -0.5504
  467SOL     OW 1920   4.296   1.565   0.756  0.1661  0.2465 -0.1930
  467SOL    HW2 1921   4.276   1.550   0.849  0.2655  1.0306 -0.0380
  467SOL    HW3 1922   4.290   1.479   0.716  1.1034 -0.2520  0.7320
  467SOL    MW4 1923   4.292   1.552   0.763  0.3033  0.2843 -0.0505
  468SOL     OW 1924   3.460   2.572   0.393 -0.0023 -0.7352 -0.6352
  468SOL    HW2 1925   3.545   2.530   0.410 -0.1752 -0.9266 -0.2443
  468SOL    HW3 1926   3.395   2.511   0.428 -0.3387 -0.8977 -1.5466
  468SOL    MW4 1927   3.463   2.559   0.400 -0.0696 -0.7818 -0.7039
  469SOL     OW 1928   3.637   1.942   0.835 -0.1840  0.0903  0.7451
  469SOL    HW2 1929   3.718   1.984   0.806  0.3958 -0.8639  0.9828
  469SOL    HW3 1930   3.568   2.004   0.810  0.5517  0.5845 -0.1013
  469SOL    MW4 1931   3.638   1.956   0.828 -0.0107  0.0296  0.6648
  470SOL     OW 1932   3.108   4.071   0.485  0.3636  0.1258 -0.1325
  470SOL    HW2 1933   3.120   3.990   0.435 -1.5096 -0.1013 -0.2395
  470SOL    HW3 1934   3.099   4.041   0.576 -0.1704  0.2237 -0.1527
  470SOL    MW4 1935   3.109   4.056   0.490  0.0460  0.1087 -0.1493
  471SOL     OW 1936   0.079   1.672   0.749 -0.0258  0.5078 -0.3016
  471SOL    HW2 1937   0.099   1.644   0.660 -0.9722 -2.2947  0.3194
  471SOL    HW3 1938   0.002   1.620   0.774  1.5591 -0.3908  2.9195
  471SOL    MW4 1939   0.071   1.661   0.741  0.0584  0.0194  0.2053
  472SOL     OW 1940   2.454   4.202   0.457  0.2156  0.0954 -0.0278
  472SOL    HW2 1941   2.447   4.194   0.362 -0.9256 -0.7397  0.1133
  472SOL    HW3 1942   2.440   4.295   0.475  2.2407  0.5894 -0.8041
  472SOL    MW4 1943   2.451   4.213   0.447  0.3321  0.0501 -0.1116
  473SOL     OW 1944   3.847   2.864   0.777  0.6328 -0.0953 -0.0411
  473SOL    HW2 1945   3.919   2.825   0.828  1.3285 -0.7061 -1.4830
  473SOL    HW3 1946   3.844   2.955   0.807  0.4391 -0.6682  1.7438
  473SOL    MW4 1947   3.856   2.871   0.788  0.6990 -0.2515  0.0042
  474SOL     OW 1948   2.445   1.224   0.446  0.0065 -0.2374  0.2888
  474SOL    HW2 1949   2.429   1.318   0.455 -2.6143 -0.7325  1.4462
  474SOL    HW3 1950   2.360   1.187   0.423  1.1585 -2.2533 -0.8828
  474SOL    MW4 1951   2.432   1.231   0.444 -0.1872 -0.5686  0.2869
  475SOL     OW 1952   4.031   3.252   0.718 -0.1462  0.0509  0.3092
  475SOL    HW2 1953   4.034   3.345   0.741 -2.0045 -0.3297  2.2894
  475SOL    HW3 1954   4.114   3.217   0.749 -1.0364  0.3226  3.1630
  475SOL    MW4 1955   4.042   3.260   0.725 -0.5088  0.0367  0.9470
  476SOL     OW 1956   4.045   3.521   0.864  0.3651  0.4372 -0.0849
  476SOL    HW2 1957   4.039   3.509   0.959  1.1141  0.6655 -0.0055
  476SOL    HW3 1958   4.125   3.573   0.852  0.6001 -0.1142 -0.8888
  476SOL    MW4 1959   4.055   3.526   0.875  0.4954  0.3946 -0.1805
  477SOL     OW 1960   4.273   2.830   0.755  0.0768  0.0424  0.1501
  477SOL    HW2 1961   4.306   2.840   0.666  0.7017 -0.8219  0.2824
  477SOL    HW3 1962   4.347   2.797   0.805  0.2759  2.2964  1.4148
  477SOL    MW4 1963   4.287   2.827   0.750  0.1855  0.2260  0.3345
  478SOL     OW 1964   4.283   3.650   0.793  0.1700  0.3308 -0.1236
  478SOL    HW2 1965   4.283   3.639   0.698 -0.3153 -0.6540 -0.0150
  478SOL    HW3 1966   4.261   3.743   0.806 -1.3738  0.1076 -0.9483
  478SOL    MW4 1967   4.280   3.661   0.783 -0.0982  0.1714 -0.2182
  479SOL     OW 1968   4.231   3.911   0.845  0.1984  0.1134 -0.1857
  479SOL    HW2 1969   4.238   3.894   0.939 -0.1963 -0.6268 -0.2917
  479SOL    HW3 1970   4.147   3.957   0.836 -0.4726 -1.1244 -0.3565
  479SOL    MW4 1971   4.221   3.915   0.856  0.0582 -0.1473 -0.2222
  480SOL     OW 1972   3.991   4.037   0.762 -0.1500  0.2322 -0.0228
  480SOL    HW2 1973   3.916   4.007   0.815  0.7262 -0.2941  0.9492
  480SOL    HW3 1974   3.961   4.028   0.672 -1.3017  0.1314  0.3519
  480SOL    MW4 1975   3.977   4.032   0.757 -0.1864  0.1493  0.1549
  481SOL     OW 1976   4.081   4.304   0.810  0.4746  0.1900 -0.3156
  481SOL    HW2 1977   4.155   4.325   0.752  1.4225 -3.0053 -0.3580
  481SOL    HW3 1978   4.056   4.215   0.785 -0.2653 -0.5664  2.9652
  481SOL    MW4 1979   4.088   4.295   0.799  0.5021 -0.3314  0.1117
  482SOL     OW 1980   0.220   4.411   0.750 -0.4717  0.0181 -0.4751
  482SOL    HW2 1981   0.294   4.353   0.770 -1.1637 -0.4955  0.5964
  482SOL    HW3 1982   0.142   4.361   0.775 -1.0549  1.6750  1.1295
  482SOL    MW4 1983   0.220   4.397   0.756 -0.6399  0.1693 -0.1220
  483SOL     OW 1984   0.246   0.030   1.143 -0.3319  0.0055  0.4648
  483SOL    HW2 1985   0.323   0.070   1.183  0.3933 -0.3638 -0.5410
  483SOL    HW3 1986   0.272   0.014   1.052 -2.3645  1.9604 -0.5143
  483SOL    MW4 1987   0.260   0.033   1.136 -0.5044  0.2147  0.2030
  484SOL     OW 1988   0.018   0.148   1.203  0.0324  0.2135 -0.1599
  484SOL    HW2 1989  -0.057   0.089   1.195  0.1923  0.1743 -1.4477
  484SOL    HW3 1990   0.093   0.096   1.176  0.4360  0.4619  0.4695
  484SOL    MW4 1991   0.018   0.134   1.199  0.1068  0.2411 -0.2468
  485SOL     OW 1992   0.041   0.395   1.083  0.8299  0.2099  0.5304
  485SOL    HW2 1993  -0.032   0.438   1.129  0.8358 -0.9463  1.6480
  485SOL    HW3 1994   0.044   0.307   1.120  1.6636 -0.3349 -0.7917
  485SOL    MW4 1995   0.031   0.389   1.094  0.9407 -0.0145  0.5035
  486SOL     OW 1996   0.245   0.525   1.227  0.0094 -0.1323  0.0665
  486SOL    HW2 1997   0.218   0.601   1.176  1.0188 -0.3653 -0.8434
  486SOL    HW3 1998   0.179   0.458   1.208 -0.3457  0.2115  0.1043
  486SOL    MW4 1999   0.233   0.526   1.217  0.0957 -0.1177 -0.0485
  487SOL     OW 2000   0.194   0.768   1.112  0.3214  0.1581 -0.1997
  487SOL    HW2 2001   0.280   0.811   1.110  0.3610  0.0462 -1.1272
  487SOL    HW3 2002   0.135   0.835   1.146  0.9672 -0.1284  1.5734
  487SOL    MW4 2003   0.198   0.783   1.117  0.4119  0.1056 -0.0882
  488SOL     OW 2004   4.478   0.941   1.216  0.1916 -0.0745 -0.0756
  488SOL    HW2 2005   4.476   0.917   1.309  0.9343  0.1024 -0.0107
  488SOL    HW3 2006   4.402   0.897   1.178 -0.5503  0.4802  0.7690
  488SOL    MW4 2007   4.468   0.932   1.223  0.1912  0.0221  0.0443
  489SOL     OW 2008   4.463   1.187   1.074 -0.3108  0.1466  0.0373
  489SOL    HW2 2009   4.379   1.230   1.094 -0.8822 -0.6569 -0.5875
  489SOL    HW3 2010   4.463   1.110   1.130 -0.6011 -0.5640 -0.9234
  489SOL    MW4 2011   4.452   1.183   1.084 -0.4244 -0.0533 -0.1718
  490SOL     OW 2012   0.190   1.268   1.207  0.2206 -0.7215 -0.0419
  490SOL    HW2 2013   0.275   1.241   1.173  0.4368 -0.2766  0.1283
  490SOL    HW3 2014   0.126   1.228   1.149  0.6113  1.1257 -1.7907
  490SOL    MW4 2015   0.193   1.259   1.195  0.3006 -0.4191 -0.2501
  491SOL     OW 2016   0.228   1.524   1.118 -0.0491  0.1659 -0.3432
  491SOL    HW2 2017   0.207   1.438   1.157 -0.1979  1.1414  1.8226
  491SOL    HW3 2018   0.242   1.505   1.025 -0.0422 -2.2178  0.0935
  491SOL    MW4 2019   0.227   1.510   1.111 -0.0678 -0.0198  0.0004
  492SOL     OW 2020   4.478   1.615   1.197  0.2378 -0.0780 -0.1477
  492SOL    HW2 2021   4.487   1.710   1.188  0.6552 -0.1967 -1.0100
  492SOL    HW3 2022   4.561   1.580   1.164 -0.3233 -0.7987 -0.8100
  492SOL    MW4 2023   4.490   1.623   1.192  0.2189 -0.1888 -0.3488
  493SOL     OW 2024   0.008   1.900   1.165 -0.2573  0.2619  0.1049
  493SOL    HW2 2025  -0.071   1.947   1.192  0.0577  0.2926  0.9791
  493SOL    HW3 2026   0.003   1.898   1.070  0.6452  3.6368 -0.0673
  493SOL    MW4 2027  -0.003   1.906   1.156 -0.0963  0.7112  0.1976
  494SOL     OW 2028   0.222   2.053   1.257  0.2258 -0.2740  0.3530
  494SOL    HW2 2029   0.206   2.141   1.223  1.0050 -0.1934  0.1869
  494SOL    HW3 2030   0.162   1.997   1.209  0.0507  0.1049  0.1327
  494SOL    MW4 2031   0.212   2.057   1.246  0.3055 -0.2134  0.3020
  495SOL     OW 2032   0.226   2.303   1.128  0.2390  0.1658 -0.4215
  495SOL    HW2 2033   0.311   2.343   1.147  0.9654 -1.3467 -0.3473
  495SOL    HW3 2034   0.162   2.357   1.174  1.2011  1.0797 -0.1410
  495SOL    MW4 2035   0.229   2.315   1.136  0.4618  0.0868 -0.3747
  496SOL     OW 2036   0.040   2.458   1.248  0.1127  0.0490 -0.1765
  496SOL    HW2 2037   0.050   2.444   1.342 -0.5549 -1.4638 -0.3158
  496SOL    HW3 2038  -0.038   2.408   1.225  0.6039 -0.0651 -1.6372
  496SOL    MW4 2039   0.031   2.450   1.257  0.0895 -0.1655 -0.3875
  497SOL     OW 2040   4.484   2.711   1.141 -0.4326  0.0801  0.4180
  497SOL    HW2 2041   4.409   2.753   1.183 -0.4179 -0.6730  1.2196
  497SOL    HW3 2042   4.499   2.632   1.193  1.4182  0.6324  0.7778
  497SOL    MW4 2043   4.476   2.706   1.153 -0.1865  0.0536  0.5714
  498SOL     OW 2044   0.209   2.859   1.224  0.4511 -0.8182  0.1381
  498SOL    HW2 2045   0.217   2.876   1.318 -0.5300  0.7635 -0.0375
  498SOL    HW3 2046   0.139   2.793   1.217  0.1418 -0.5330  0.4948
  498SOL    MW4 2047   0.201   2.853   1.236  0.2808 -0.5720  0.1619
  499SOL     OW 2048   0.195   3.115   1.072  0.0054 -0.0612 -0.1819
  499SOL    HW2 2049   0.269   3.158   1.115 -0.1528 -0.3324  0.3766
  499SOL    HW3 2050   0.196   3.026   1.107 -0.0963 -0.3028 -0.7886
  499SOL    MW4 2051   0.205   3.109   1.082 -0.0289 -0.1285 -0.1884
  500SOL     OW 2052   4.471   3.205   1.220  0.2626 -0.0784  0.2835
  500SOL    HW2 2053   4.389   3.171   1.185  1.0522 -2.0930  0.2934
  500SOL    HW3 2054   4.539   3.162   1.167  1.3176  1.8726 -0.0058
  500SOL    MW4 2055   4.469   3.194   1.208  0.5064 -0.0870  0.2466
  501SOL     OW 2056   4.467   3.487   1.111  0.1779  0.1436 -0.4020
  501SOL    HW2 2057   4.478   3.397   1.141 -0.2373  0.4510  0.7070
  501SOL    HW3 2058   4.479   3.483   1.016 -1.1430 -1.2880 -0.5241
  501SOL    MW4 2059   4.470   3.475   1.102 -0.0505 -0.0045 -0.2719
  502SOL     OW 2060   0.214   3.605   1.186 -0.2208  0.1248 -0.0689
  502SOL    HW2 2061   0.223   3.609   1.281 -1.8796  2.5420  0.0413
  502SOL    HW3 2062   0.132   3.558   1.172  0.2881 -0.6842 -0.3119
  502SOL    MW4 2063   0.204   3.599   1.196 -0.3725  0.3371 -0.0864
  503SOL     OW 2064   0.269   3.890   1.154  0.3777 -0.3138 -0.3828
  503SOL    HW2 2065   0.188   3.941   1.161  0.6430 -0.1570  1.6757
  503SOL    HW3 2066   0.247   3.804   1.189  1.2611 -0.0711  0.8034
  503SOL    MW4 2067   0.256   3.885   1.159  0.5292 -0.2611  0.0454
  504SOL     OW 2068   0.027   4.020   1.196 -0.0041 -0.3799  0.0288
  504SOL    HW2 2069   0.013   4.007   1.290 -0.3176 -1.5764 -0.1773
  504SOL    HW3 2070  -0.047   3.975   1.155  0.0674  0.2512 -0.7891
  504SOL    MW4 2071   0.015   4.012   1.203 -0.0362 -0.4549 -0.1063
  505SOL     OW 2072   0.049   4.261   1.061 -0.2785 -0.2424  0.7944
  505SOL    HW2 2073   0.111   4.310   1.117  1.8742 -0.8348 -0.9949
  505SOL    HW3 2074   0.052   4.172   1.096  0.1624 -0.3504  0.4853
  505SOL    MW4 2075   0.058   4.256   1.073  0.0637 -0.3352  0.5174
  506SOL     OW 2076   0.236   4.420   1.220  0.0742 -0.0397 -0.1595
  506SOL    HW2 2077   0.246   4.413   1.315 -0.3388 -0.1622 -0.1247
  506SOL    HW3 2078   0.200   4.508   1.206  1.6994  0.6212 -0.3263
  506SOL    MW4 2079   0.233   4.431   1.230  0.2341  0.0315 -0.1769
  507SOL     OW 2080   0.699   0.012   1.155  0.1345  0.2422  0.0817
  507SOL    HW2 2081   0.772   0.053   1.203 -0.4629  1.1865  0.1956
  507SOL    HW3 2082   0.693  -0.076   1.191  0.0531  0.7581  1.3581
  507SOL    MW4 2083   0.708   0.006   1.166  0.0449  0.4348  0.2651
  508SOL     OW 2084   0.461   0.137   1.264  0.3491  0.0126  0.5073
  508SOL    HW2 2085   0.468   0.228   1.238 -0.9733 -0.0473 -0.0777
  508SOL    HW3 2086   0.541   0.096   1.232 -0.2762  0.3921 -1.5882
  508SOL    MW4 2087   0.472   0.143   1.257  0.0921  0.0548  0.1535
  509SOL     OW 2088   0.477   0.402   1.164  0.0833  0.1509 -0.3979
  509SOL    HW2 2089   0.396   0.450   1.180  0.0628 -0.4957  1.5657
  509SOL    HW3 2090   0.477   0.386   1.070 -1.0315  1.9851 -0.7262
  509SOL    MW4 2091   0.466   0.406   1.154 -0.0665  0.3076 -0.1820
  510SOL     OW 2092   0.708   0.525   1.230  0.0936 -0.2154  0.0705
  510SOL    HW2 2093   0.694   0.608   1.185 -0.6545 -0.6662 -0.5353
  510SOL    HW3 2094   0.630   0.473   1.211 -0.0841 -0.5391  1.6151
  510SOL    MW4 2095   0.696   0.529   1.221 -0.0286 -0.3176  0.1943
  511SOL     OW 2096   0.647   0.773   1.090 -0.2599  0.2177 -0.0214
  511SOL    HW2 2097   0.563   0.812   1.111  0.1986  1.7020 -0.9000
  511SOL    HW3 2098   0.652   0.776   0.994  0.4538 -0.5662 -0.0199
  511SOL    MW4 2099   0.637   0.778   1.080 -0.1052  0.3100 -0.1371
  512SOL     OW 2100   0.429   0.914   1.183 -0.3970  0.0720 -0.3679
  512SOL    HW2 2101   0.425   0.909   1.278  1.4013 -0.9580 -0.3175
  512SOL    HW3 2102   0.427   1.008   1.164 -0.9408  0.2726  0.6767
  512SOL    MW4 2103   0.428   0.926   1.193 -0.2315 -0.0374 -0.2234
  513SOL     OW 2104   0.436   1.178   1.111  0.1289  0.5860  0.2840
  513SOL    HW2 2105   0.514   1.217   1.151  0.6415 -1.2562  1.0985
  513SOL    HW3 2106   0.445   1.197   1.018  1.8522 -0.1141  0.3021
  513SOL    MW4 2107   0.447   1.186   1.104  0.4239  0.2506  0.3940
  514SOL     OW 2108   0.657   1.306   1.200  0.1321  0.7487  0.0385
  514SOL    HW2 2109   0.733   1.268   1.155 -0.5618  1.0321 -1.4187
  514SOL    HW3 2110   0.660   1.399   1.177  0.6980  1.2330  1.9651
  514SOL    MW4 2111   0.668   1.313   1.191  0.1153  0.8501  0.1004
  515SOL     OW 2112   0.685   1.584   1.135 -0.0966 -0.0796  0.1672
  515SOL    HW2 2113   0.750   1.636   1.183 -0.5348 -0.0547  0.7567
  515SOL    HW3 2114   0.601   1.623   1.161 -0.2950  0.5891 -1.4229
  515SOL    MW4 2115   0.682   1.596   1.145 -0.1805  0.0119  0.0352
  516SOL     OW 2116   0.431   1.678   1.222 -0.1848  0.0342 -0.3270
  516SOL    HW2 2117   0.426   1.673   1.317  1.0840 -0.3084 -0.2624
  516SOL    HW3 2118   0.364   1.617   1.190  0.4549 -1.0332  0.3548
  516SOL    MW4 2119   0.422   1.669   1.230  0.0669 -0.1519 -0.2285
  517SOL     OW 2120   0.443   1.946   1.132  0.1209 -0.0405  0.0547
  517SOL    HW2 2121   0.444   1.852   1.151 -0.4910 -0.0734 -0.0825
  517SOL    HW3 2122   0.369   1.980   1.182 -1.0534 -0.0069 -1.6671
  517SOL    MW4 2123   0.434   1.938   1.141 -0.1147 -0.0404 -0.1906
  518SOL     OW 2124   0.657   2.068   1.254 -0.0464  0.0807 -0.0638
  518SOL    HW2 2125   0.642   2.065   1.348 -0.8990  0.2325 -0.1893
  518SOL    HW3 2126   0.580   2.027   1.216  2.0047 -3.5565 -0.5761
  518SOL    MW4 2127   0.645   2.062   1.261  0.1118 -0.3791 -0.1479
  519SOL     OW 2128   0.748   2.304   1.146  0.0280 -0.2771 -0.0829
  519SOL    HW2 2129   0.672   2.361   1.151 -0.2327 -0.3377 -2.5343
  519SOL    HW3 2130   0.717   2.218   1.175 -0.8277 -0.2881 -1.0313
  519SOL    MW4 2131   0.734   2.300   1.150 -0.1194 -0.2866 -0.5314
  520SOL     OW 2132   0.493   2.449   1.191 -0.1324 -0.0580  0.0741
  520SOL    HW2 2133   0.476   2.453   1.285 -0.7482  0.8439 -0.0687
  520SOL    HW3 2134   0.491   2.541   1.162  0.8893 -0.2559 -0.6733
  520SOL    MW4 2135   0.490   2.462   1.199 -0.0788  0.0348 -0.0433
  521SOL     OW 2136   0.479   2.714   1.160  0.2081  0.1560  0.3136
  521SOL    HW2 2137   0.399   2.748   1.200  0.5242 -0.4950  1.5492
  521SOL    HW3 2138   0.470   2.733   1.067 -1.1014  0.6456  0.5312
  521SOL    MW4 2139   0.467   2.721   1.153  0.0770  0.1349  0.5052
  522SOL     OW 2140   0.702   2.861   1.223  0.0921 -0.2843 -0.1106
  522SOL    HW2 2141   0.691   2.946   1.181  2.0155 -0.0621 -0.2268
  522SOL    HW3 2142   0.628   2.809   1.192  0.0038  0.7169 -1.6521
  522SOL    MW4 2143   0.691   2.866   1.213  0.3342 -0.1230 -0.3294
  523SOL     OW 2144   0.646   3.103   1.081  0.1430  0.2970 -0.4555
  523SOL    HW2 2145   0.709   3.159   1.126 -0.3149  0.5959 -0.1900
  523SOL    HW3 2146   0.674   3.104   0.989  0.6013  0.3225 -0.3179
  523SOL    MW4 2147   0.658   3.110   1.075  0.1430  0.3397 -0.4023
  524SOL     OW 2148   0.421   3.220   1.184 -0.1855  0.0592  0.1734
  524SOL    HW2 2149   0.442   3.312   1.166 -1.3873  0.3669  0.2661
  524SOL    HW3 2150   0.495   3.171   1.150  0.1645  1.0228 -0.4771
  524SOL    MW4 2151   0.433   3.226   1.177 -0.2979  0.2272  0.0998
  525SOL     OW 2152   0.460   3.488   1.112 -0.1482  0.0992  0.6423
  525SOL    HW2 2153   0.529   3.534   1.160 -0.3269 -0.0526  1.0447
  525SOL    HW3 2154   0.383   3.543   1.122  0.3734  1.2613 -1.4302
  525SOL    MW4 2155   0.459   3.501   1.119 -0.1029  0.2322  0.4218
  526SOL     OW 2156   0.656   3.629   1.222 -0.1255 -0.2487 -0.5788
  526SOL    HW2 2157   0.658   3.639   1.317  3.2509 -0.2924 -0.5696
  526SOL    HW3 2158   0.664   3.719   1.189 -1.6607 -0.1991 -0.8609
  526SOL    MW4 2159   0.657   3.642   1.230  0.1174 -0.2480 -0.6148
  527SOL     OW 2160   0.694   3.888   1.126  0.3023  0.3315 -0.1683
  527SOL    HW2 2161   0.623   3.942   1.163  0.4769  0.9401 -0.7190
  527SOL    HW3 2162   0.725   3.937   1.051  0.6089 -0.4466 -0.5565
  527SOL    MW4 2163   0.688   3.901   1.121  0.3659  0.3090 -0.2922
  528SOL     OW 2164   0.482   4.051   1.233  0.2626  0.5258 -0.3302
  528SOL    HW2 2165   0.468   4.131   1.183  0.5324  0.0901 -1.1070
  528SOL    HW3 2166   0.407   3.995   1.212  0.1489  0.5124  0.0978
  528SOL    MW4 2167   0.470   4.054   1.224  0.2832  0.4663 -0.3763
  529SOL     OW 2168   0.469   4.315   1.110  0.0044 -0.3107  0.5088
  529SOL    HW2 2169   0.541   4.348   1.164 -0.0855 -0.3200  0.6342
  529SOL    HW3 2170   0.392   4.362   1.142  0.0064 -0.0768  0.1687
  529SOL    MW4 2171   0.468   4.326   1.122 -0.0072 -0.2813  0.4804
  530SOL     OW 2172   0.685   4.420   1.232 -0.1161 -0.2063  0.0391
  530SOL    HW2 2173   0.684   4.405   1.327  0.2327 -0.0316  0.0704
  530SOL    HW3 2174   0.760   4.368   1.201  0.0313  0.0816 -0.0842
  530SOL    MW4 2175   0.695   4.411   1.241 -0.0506 -0.1454  0.0269
  531SOL     OW 2176   1.099   0.005   1.140 -0.2660 -0.2589 -0.0727
  531SOL    HW2 2177   1.127  -0.082   1.168  1.2368  0.1686 -0.2249
  531SOL    HW3 2178   1.086  -0.003   1.046  0.7677 -0.0932 -0.2362
  531SOL    MW4 2179   1.101  -0.007   1.131  0.0687 -0.1807 -0.1143
  532SOL     OW 2180   0.905   0.131   1.276 -0.3786 -0.1729  0.3476
  532SOL    HW2 2181   0.920   0.125   1.370 -1.8237  0.1989  0.6201
  532SOL    HW3 2182   0.973   0.077   1.236  0.2961 -0.2438  1.6035
  532SOL    MW4 2183   0.916   0.123   1.283 -0.4802 -0.1332  0.5493
  533SOL     OW 2184   0.935   0.379   1.155 -0.0033 -0.0707  0.6420
  533SOL    HW2 2185   0.915   0.306   1.212 -0.9662 -0.4263 -0.1242
  533SOL    HW3 2186   0.860   0.439   1.165  0.3525  0.3894  0.5958
  533SOL    MW4 2187   0.922   0.378   1.164 -0.0834 -0.0569  0.5348
  534SOL     OW 2188   1.142   0.555   1.225 -0.2506 -0.4690 -0.1714
  534SOL    HW2 2189   1.150   0.537   1.319  1.6640  0.0201 -0.2137
  534SOL    HW3 2190   1.075   0.494   1.194 -1.3883 -0.1672  1.6341
  534SOL    MW4 2191   1.135   0.544   1.233 -0.1481 -0.3647  0.0613
  535SOL     OW 2192   1.139   0.832   1.206 -0.3187  0.5841  0.1364
  535SOL    HW2 2193   1.052   0.865   1.229 -0.2542  0.3210  0.7622
  535SOL    HW3 2194   1.133   0.737   1.222 -0.4689  0.2913 -1.5310
  535SOL    MW4 2195   1.127   0.824   1.211 -0.3300  0.5108 -0.0012
  536SOL     OW 2196   0.872   0.924   1.228  0.4008  0.3084  0.2698
  536SOL    HW2 2197   0.869   1.004   1.175 -0.4572  1.4714  2.0496
  536SOL    HW3 2198   0.806   0.867   1.188 -1.5539  1.8859  1.1668
  536SOL    MW4 2199   0.863   0.927   1.216  0.0297  0.6700  0.6229
  537SOL     OW 2200   0.844   1.166   1.087 -0.0227 -0.9914 -0.1325
  537SOL    HW2 2201   0.919   1.224   1.102 -1.4295  0.9457 -0.5058
  537SOL    HW3 2202   0.837   1.159   0.992 -0.6407 -0.7459 -0.1079
  537SOL    MW4 2203   0.853   1.172   1.077 -0.2899 -0.7036 -0.1785
  538SOL     OW 2204   1.082   1.305   1.146  0.1475 -0.4922 -0.1743
  538SOL    HW2 2205   1.073   1.310   1.241 -0.0453  0.0847 -0.2195
  538SOL    HW3 2206   1.163   1.257   1.131  1.5808  1.7376  0.2950
  538SOL    MW4 2207   1.091   1.299   1.156  0.3113 -0.1221 -0.1184
  539SOL     OW 2208   1.120   1.595   1.105  0.3462  0.1615 -0.1440
  539SOL    HW2 2209   1.119   1.499   1.109 -1.3231  0.1060 -1.1969
  539SOL    HW3 2210   1.084   1.615   1.018  0.5044  1.7442  0.1437
  539SOL    MW4 2211   1.115   1.585   1.094  0.1467  0.3631 -0.2449
  540SOL     OW 2212   0.895   1.690   1.272 -0.2977  0.0839 -0.0167
  540SOL    HW2 2213   0.914   1.782   1.250 -0.0609  0.4990  1.8153
  540SOL    HW3 2214   0.975   1.643   1.247 -0.2304  0.4421 -0.5001
  540SOL    MW4 2215   0.908   1.696   1.265 -0.2576  0.1860  0.1613
  541SOL     OW 2216   0.906   1.942   1.160  0.5208 -0.5826 -0.1249
  541SOL    HW2 2217   0.987   1.983   1.188  0.0075 -0.8828  1.8997
  541SOL    HW3 2218   0.837   1.993   1.203 -0.2687 -1.5216 -0.2571
  541SOL    MW4 2219   0.907   1.954   1.169  0.3489 -0.7460  0.1247
  542SOL     OW 2220   1.135   2.071   1.236 -0.3082  0.1849 -0.3345
  542SOL    HW2 2221   1.119   2.070   1.330  0.4795  0.9379 -0.1857
  542SOL    HW3 2222   1.175   2.157   1.219  0.3548 -0.2876 -1.2103
  542SOL    MW4 2223   1.138   2.082   1.246 -0.1168  0.2217 -0.4303
  543SOL     OW 2224   1.196   2.327   1.156 -0.0876 -0.2597  0.7567
  543SOL    HW2 2225   1.279   2.374   1.165 -0.9481  1.3132  0.6622
  543SOL    HW3 2226   1.129   2.392   1.179 -1.3051 -1.4330  0.5807
  543SOL    MW4 2227   1.198   2.342   1.160 -0.3618 -0.2069  0.7210
  544SOL     OW 2228   0.953   2.445   1.245  0.2426  0.3693 -0.1021
  544SOL    HW2 2229   0.937   2.441   1.339  1.7309  1.5179  0.2185
  544SOL    HW3 2230   0.887   2.387   1.207 -0.8445  0.4689  1.5835
  544SOL    MW4 2231   0.942   2.437   1.253  0.2955  0.5341  0.1626
  545SOL     OW 2232   0.881   2.684   1.098 -0.3270 -0.2589  0.0455
  545SOL    HW2 2233   0.903   2.603   1.146 -3.0280 -1.2166 -0.2829
  545SOL    HW3 2234   0.820   2.730   1.156  0.3232  1.0281 -0.2781
  545SOL    MW4 2235   0.876   2.679   1.112 -0.5976 -0.2153 -0.0404
  546SOL     OW 2236   1.097   2.870   1.207 -0.6040  0.3901  0.4022
  546SOL    HW2 2237   1.101   2.841   1.298  0.7082  1.5220  0.7152
  546SOL    HW3 2238   1.026   2.817   1.168 -1.2917  0.0305  2.1062
  546SOL    MW4 2239   1.088   2.859   1.214 -0.5215  0.4923  0.6683
  547SOL     OW 2240   1.112   3.147   1.173 -0.3869  0.3603  0.1356
  547SOL    HW2 2241   1.113   3.054   1.196  1.5233  0.3498  0.0883
  547SOL    HW3 2242   1.119   3.147   1.077  0.2527  0.5677  0.1838
  547SOL    MW4 2243   1.113   3.135   1.163 -0.0505  0.3865  0.1355
  548SOL     OW 2244   0.857   3.246   1.217  0.0906  0.4807 -0.1424
  548SOL    HW2 2245   0.873   3.338   1.196  1.6657  1.0337  3.0924
  548SOL    HW3 2246   0.942   3.204   1.208  0.0237 -0.0046  1.2265
  548SOL    MW4 2247   0.870   3.253   1.213  0.2897  0.4895  0.4652
  549SOL     OW 2248   0.891   3.506   1.125 -0.0955 -0.2556 -0.0010
  549SOL    HW2 2249   0.812   3.554   1.149  1.0012  0.8495  1.4441
  549SOL    HW3 2250   0.901   3.521   1.031 -0.6318  1.0445  0.1431
  549SOL    MW4 2251   0.882   3.514   1.116 -0.0216  0.0618  0.2085
  550SOL     OW 2252   1.115   3.618   1.241 -0.3666 -0.1616 -0.1591
  550SOL    HW2 2253   1.189   3.581   1.193 -0.9969  0.5726 -1.7288
  550SOL    HW3 2254   1.038   3.582   1.198 -0.9658  1.8696 -0.8320
  550SOL    MW4 2255   1.115   3.608   1.229 -0.5288  0.2034 -0.4550
  551SOL     OW 2256   1.117   3.871   1.132 -0.3497  0.1358  0.2427
  551SOL    HW2 2257   1.035   3.909   1.163 -0.6458  0.1960 -0.6040
  551SOL    HW3 2258   1.124   3.787   1.177 -1.0641 -0.0380  0.0223
  551SOL    MW4 2259   1.107   3.865   1.142 -0.4829  0.1209  0.1019
  552SOL     OW 2260   0.906   4.022   1.250  0.0882 -0.5022  0.5698
  552SOL    HW2 2261   0.894   4.025   1.345 -1.4346  1.1322  0.3503
  552SOL    HW3 2262   0.835   3.965   1.219  0.5953 -1.0479  0.3949
  552SOL    MW4 2263   0.895   4.015   1.259 -0.0458 -0.3586  0.5178
  553SOL     OW 2264   0.918   4.300   1.137  0.0574  0.0500  0.2557
  553SOL    HW2 2265   0.923   4.209   1.166  0.5557  0.5919  1.9281
  553SOL    HW3 2266   0.912   4.295   1.042  0.8855 -1.7137  0.2806
  553SOL    MW4 2267   0.918   4.288   1.128  0.2324 -0.1116  0.4796
  554SOL     OW 2268   1.160   4.432   1.213  0.0081  0.2307 -0.2771
  554SOL    HW2 2269   1.167   4.413   1.307  1.9893  0.0107 -0.4578
  554SOL    HW3 2270   1.079   4.388   1.186  0.2735 -1.0810  0.9943
  554SOL    MW4 2271   1.150   4.424   1.222  0.3047  0.0286 -0.1332
  555SOL     OW 2272   1.541   4.655   1.152  0.0872  0.5542 -0.0944
  555SOL    HW2 2273   1.628   4.692   1.170  0.1505  0.9555 -1.1782
  555SOL    HW3 2274   1.551   4.561   1.166  1.2575  0.3215 -2.2359
  555SOL    MW4 2275   1.554   4.648   1.156  0.2499  0.5770 -0.5199
  556SOL     OW 2276   1.319   0.152   1.253 -0.0232 -0.3192  0.0920
  556SOL    HW2 2277   1.392   0.096   1.225  0.0439  1.0081 -2.5644
  556SOL    HW3 2278   1.241   0.109   1.216 -0.2862 -0.2350  0.5497
  556SOL    MW4 2279   1.318   0.139   1.244 -0.0490 -0.1330 -0.1981
  557SOL     OW 2280   1.362   0.404   1.130  0.1958  0.5690  0.1080
  557SOL    HW2 2281   1.332   0.319   1.161  0.8739  0.3396  0.1497
  557SOL    HW3 2282   1.293   0.465   1.155 -0.1528  0.0779  0.3445
  557SOL    MW4 2283   1.349   0.401   1.137  0.2394  0.4739  0.1447
  558SOL     OW 2284   1.578   0.514   1.260 -0.1636 -0.2243 -0.2211
  558SOL    HW2 2285   1.572   0.600   1.218  0.5203  0.7455  1.5842
  558SOL    HW3 2286   1.509   0.462   1.219 -0.0449  0.9215 -1.9357
  558SOL    MW4 2287   1.569   0.518   1.249 -0.0577  0.0549 -0.2091
  559SOL     OW 2288   1.598   0.754   1.105  0.1666  0.8767 -0.2552
  559SOL    HW2 2289   1.673   0.805   1.134  0.1288  0.6350  0.2780
  559SOL    HW3 2290   1.589   0.774   1.012  1.4986  0.1505 -0.5470
  559SOL    MW4 2291   1.607   0.763   1.097  0.3374  0.7489 -0.2233
  560SOL     OW 2292   1.391   0.915   1.189 -0.1986 -0.2584  0.6090
  560SOL    HW2 2293   1.453   0.846   1.165 -0.8032 -0.7535  0.4371
  560SOL    HW3 2294   1.306   0.870   1.192 -0.3690  0.1461  2.0525
  560SOL    MW4 2295   1.388   0.900   1.186 -0.3008 -0.2703  0.7766
  561SOL     OW 2296   1.331   1.175   1.089  0.0563  0.0787  0.1943
  561SOL    HW2 2297   1.346   1.082   1.105 -0.1467 -0.1176 -0.7075
  561SOL    HW3 2298   1.323   1.182   0.994  0.1460  1.0308  0.2506
  561SOL    MW4 2299   1.332   1.163   1.078  0.0414  0.1783  0.0827
  562SOL     OW 2300   1.561   1.313   1.172 -0.0942 -0.0170 -0.4299
  562SOL    HW2 2301   1.636   1.260   1.147 -0.5958 -0.9080 -0.0633
  562SOL    HW3 2302   1.485   1.267   1.136 -0.4642  0.9684 -0.9543
  562SOL    MW4 2303   1.561   1.300   1.164 -0.2093 -0.0045 -0.4508
  563SOL     OW 2304   1.599   1.542   1.014  0.2876 -0.3632 -0.3808
  563SOL    HW2 2305   1.669   1.588   1.061  0.7057 -0.2472 -1.1104
  563SOL    HW3 2306   1.591   1.458   1.059 -0.0417  0.1724  0.5608
  563SOL    MW4 2307   1.608   1.537   1.026  0.2992 -0.2772 -0.3527
  564SOL     OW 2308   1.388   1.657   1.170  0.0840  0.1099 -0.0829
  564SOL    HW2 2309   1.456   1.631   1.108  1.9926  0.7549  1.6793
  564SOL    HW3 2310   1.308   1.620   1.134  1.6294 -2.2080 -1.3017
  564SOL    MW4 2311   1.387   1.649   1.157  0.5397 -0.1109 -0.0111
  565SOL     OW 2312   1.331   1.924   1.107  0.0392 -0.3019  0.4504
  565SOL    HW2 2313   1.257   1.960   1.157 -0.0969 -1.1544  0.8678
  565SOL    HW3 2314   1.334   1.832   1.132  2.2453  0.0562  1.6689
  565SOL    MW4 2315   1.322   1.917   1.117  0.3122 -0.3670  0.6661
  566SOL     OW 2316   1.572   2.056   1.129 -0.1838  0.6924 -0.2511
  566SOL    HW2 2317   1.561   2.149   1.110 -1.3489  0.3792 -1.1909
  566SOL    HW3 2318   1.483   2.020   1.121  0.5090 -0.7685 -1.3819
  566SOL    MW4 2319   1.559   2.063   1.126 -0.2463  0.4582 -0.5243
  567SOL     OW 2320   1.592   2.339   1.095  0.0348  0.1220 -0.2609
  567SOL    HW2 2321   1.534   2.410   1.123 -1.7241 -1.0733 -0.7866
  567SOL    HW3 2322   1.591   2.343   0.999  1.9396  0.9486 -0.2756
  567SOL    MW4 2323   1.584   2.349   1.086  0.0541  0.0732 -0.3321
  568SOL     OW 2324   1.414   2.512   1.210  0.2326 -0.1026  0.2199
  568SOL    HW2 2325   1.395   2.508   1.303  1.1798  1.3404  0.4928
  568SOL    HW3 2326   1.374   2.594   1.181  0.6863 -0.1134 -0.4530
  568SOL    MW4 2327   1.407   2.522   1.218  0.4174  0.0863  0.1670
  569SOL     OW 2328   1.348   2.755   1.115 -0.3004  0.5621  0.4046
  569SOL    HW2 2329   1.425   2.782   1.165 -1.0757 -0.1302  2.0254
  569SOL    HW3 2330   1.277   2.811   1.149 -0.4374  1.4986 -1.3826
  569SOL    MW4 2331   1.348   2.766   1.126 -0.4209  0.5944  0.3827
  570SOL     OW 2332   1.588   2.840   1.242  0.3145 -0.6052  0.2548
  570SOL    HW2 2333   1.661   2.796   1.198  1.0743  0.2678  0.6209
  570SOL    HW3 2334   1.572   2.919   1.190  1.0079  0.2689  1.3369
  570SOL    MW4 2335   1.596   2.845   1.229  0.5063 -0.3750  0.4458
  571SOL     OW 2336   1.558   3.082   1.068 -0.8028  0.0694 -0.6439
  571SOL    HW2 2337   1.637   3.131   1.089 -0.8533 -0.5026  0.9787
  571SOL    HW3 2338   1.488   3.130   1.110 -0.8727 -1.2716  0.8202
  571SOL    MW4 2339   1.559   3.095   1.076 -0.8187 -0.1829 -0.2365
  572SOL     OW 2340   1.368   3.219   1.211  0.8349  0.2977  0.2089
  572SOL    HW2 2341   1.380   3.213   1.305  1.4578 -1.9480  0.0033
  572SOL    HW3 2342   1.280   3.184   1.196  0.2192  1.8405  0.0555
  572SOL    MW4 2343   1.358   3.214   1.221  0.8359  0.2048  0.1615
  573SOL     OW 2344   1.343   3.497   1.127  0.3347  0.3578  0.2774
  573SOL    HW2 2345   1.352   3.406   1.155 -1.5427  0.1959  0.4112
  573SOL    HW3 2346   1.353   3.494   1.031 -0.3434 -0.0685  0.2221
  573SOL    MW4 2347   1.346   3.485   1.118 -0.0025  0.2801  0.2877
  574SOL     OW 2348   1.614   3.606   1.193  0.0821 -0.6992 -0.1514
  574SOL    HW2 2349   1.590   3.698   1.179  1.2106 -0.1553  1.4209
  574SOL    HW3 2350   1.533   3.558   1.177 -1.0681  0.7597  1.1074
  574SOL    MW4 2351   1.600   3.612   1.189  0.0792 -0.4351  0.2222
  575SOL     OW 2352   1.592   3.887   1.165 -0.1302 -0.2474 -0.2770
  575SOL    HW2 2353   1.517   3.935   1.200 -0.5929 -0.8954 -0.3912
  575SOL    HW3 2354   1.578   3.887   1.070 -0.3349 -0.9566 -0.2465
  575SOL    MW4 2355   1.580   3.894   1.157 -0.2183 -0.4263 -0.2880
  576SOL     OW 2356   1.341   4.009   1.239 -0.6296  0.3143  0.0901
  576SOL    HW2 2357   1.336   4.093   1.193 -1.1845  0.6268  0.7066
  576SOL    HW3 2358   1.266   3.960   1.206 -0.5921  0.2533  0.0971
  576SOL    MW4 2359   1.330   4.014   1.229 -0.6977  0.3476  0.1725
  577SOL     OW 2360   1.335   4.242   1.110 -0.1063  0.1698 -0.1961
  577SOL    HW2 2361   1.271   4.309   1.134  1.0499  1.3963 -0.4624
  577SOL    HW3 2362   1.341   4.248   1.014 -0.4894 -0.7798 -0.2860
  577SOL    MW4 2363   1.328   4.252   1.100 -0.0043  0.2065 -0.2431
  578SOL     OW 2364   1.559   4.385   1.207  0.1925  0.5129 -0.1329
  578SOL    HW2 2365   1.562   4.375   1.302  0.4925 -0.3999 -0.2320
  578SOL    HW3 2366   1.484   4.332   1.180  0.5948  0.1227 -0.4835
  578SOL    MW4 2367   1.549   4.377   1.216  0.2851  0.3414 -0.1923
  579SOL     OW 2368   2.049   4.652   1.129 -0.5402  0.3122  0.0149
  579SOL    HW2 2369   2.033   4.564   1.164  2.1302  0.2699  1.2392
  579SOL    HW3 2370   2.032   4.643   1.035  1.2386 -1.9303 -0.1418
  579SOL    MW4 2371   2.045   4.639   1.121  0.0467  0.0110  0.1558
  580SOL     OW 2372   1.793   0.086   1.200  0.3685 -0.0520 -0.1985
  580SOL    HW2 2373   1.800   0.180   1.183  0.5732 -0.1556 -0.7149
  580SOL    HW3 2374   1.880   0.052   1.181  1.2286  0.1181  3.1181
  580SOL    MW4 2375   1.806   0.094   1.195  0.5091 -0.0433  0.1709
  581SOL     OW 2376   1.805   0.369   1.161  0.0071 -0.0108 -0.1697
  581SOL    HW2 2377   1.730   0.421   1.192  0.9214  1.0421  0.3166
  581SOL    HW3 2378   1.804   0.381   1.066 -0.2319  0.2755 -0.1331
  581SOL    MW4 2379   1.795   0.378   1.153  0.0962  0.1658 -0.1007
  582SOL     OW 2380   2.008   0.541   1.215  0.3384  0.2388 -0.0168
  582SOL    HW2 2381   2.022   0.534   1.310  0.3922 -0.7031 -0.0929
  582SOL    HW3 2382   1.923   0.501   1.200  0.0715  0.9028 -0.3007
  582SOL    MW4 2383   1.999   0.535   1.226  0.3103  0.2022 -0.0645
  583SOL     OW 2384   2.017   0.812   1.108 -0.1653  0.6044  0.6889
  583SOL    HW2 2385   1.998   0.719   1.120  0.2013  0.4669  0.2025
  583SOL    HW3 2386   2.034   0.821   1.014  0.6313  1.0119  0.8700
  583SOL    MW4 2387   2.016   0.801   1.097 -0.0119  0.6401  0.6485
  584SOL     OW 2388   1.786   0.937   1.209 -0.6322 -0.8250  0.1749
  584SOL    HW2 2389   1.787   0.914   1.302  0.8623  0.2059  0.4259
  584SOL    HW3 2390   1.866   0.899   1.174 -1.2618 -1.3372 -0.7448
  584SOL    MW4 2391   1.796   0.929   1.217 -0.5181 -0.7566  0.0867
  585SOL     OW 2392   1.780   1.191   1.082 -0.2358 -0.1003  0.6399
  585SOL    HW2 2393   1.792   1.170   0.990  0.9175  0.5611  0.6178
  585SOL    HW3 2394   1.791   1.107   1.128  0.2344 -0.2527  0.2521
  585SOL    MW4 2395   1.783   1.177   1.076 -0.0216 -0.0331  0.5858
  586SOL     OW 2396   1.999   1.317   1.181  0.2231  0.6918  0.0425
  586SOL    HW2 2397   2.067   1.256   1.152  0.5824  0.9420  0.3630
  586SOL    HW3 2398   1.918   1.283   1.141  0.4687  0.1674 -0.0127
  586SOL    MW4 2399   1.997   1.304   1.172  0.3030  0.6557  0.0776
  587SOL     OW 2400   2.031   1.573   1.084 -0.5851 -0.0438  0.6904
  587SOL    HW2 2401   2.028   1.481   1.108 -0.8828  0.3351  2.1838
  587SOL    HW3 2402   2.012   1.575   0.991  1.0534 -1.6267  0.2930
  587SOL    MW4 2403   2.028   1.561   1.075 -0.4079 -0.2025  0.8351
  588SOL     OW 2404   1.791   1.691   1.205 -0.1627 -0.3462 -0.3256
  588SOL    HW2 2405   1.799   1.781   1.172 -1.0768 -0.9173 -2.1921
  588SOL    HW3 2406   1.880   1.656   1.198 -0.3407 -0.4554 -2.2555
  588SOL    MW4 2407   1.804   1.698   1.199 -0.3067 -0.4359 -0.8266
  589SOL     OW 2408   1.844   1.948   1.100 -0.0531 -0.3962 -0.4774
  589SOL    HW2 2409   1.761   1.984   1.130  0.0342 -0.2923 -0.3581
  589SOL    HW3 2410   1.837   1.946   1.005 -0.3856 -0.8563 -0.4445
  589SOL    MW4 2411   1.832   1.952   1.092 -0.0855 -0.4432 -0.4572
  590SOL     OW 2412   2.065   2.036   1.206  0.3579 -0.0388 -0.5760
  590SOL    HW2 2413   2.040   2.054   1.296  0.6725 -0.6689 -0.3583
  590SOL    HW3 2414   1.989   1.992   1.168  0.8458 -1.3265 -0.1145
  590SOL    MW4 2415   2.052   2.032   1.213  0.4640 -0.2916 -0.4863
  591SOL     OW 2416   2.051   2.266   1.052  0.2369 -0.2516  0.0020
  591SOL    HW2 2417   2.131   2.314   1.074  1.1696 -0.8066 -2.0529
  591SOL    HW3 2418   2.049   2.193   1.114  0.9294  0.1847  0.5481
  591SOL    MW4 2419   2.061   2.262   1.063  0.4513 -0.2670 -0.1969
  592SOL     OW 2420   1.854   2.412   1.205 -0.2263 -0.1549 -0.0061
  592SOL    HW2 2421   1.919   2.359   1.160 -0.6346 -0.6776  0.0180
  592SOL    HW3 2422   1.770   2.379   1.173 -0.4824  0.4438  0.0411
  592SOL    MW4 2423   1.851   2.401   1.195 -0.3139 -0.1450  0.0032
  593SOL     OW 2424   1.788   2.697   1.118  0.1077  0.4063  0.0904
  593SOL    HW2 2425   1.831   2.613   1.127  0.6545  0.9440  2.7790
  593SOL    HW3 2426   1.778   2.709   1.023  0.4450 -2.4295 -0.3285
  593SOL    MW4 2427   1.792   2.688   1.107  0.2244  0.1030  0.3899
  594SOL     OW 2428   2.045   2.801   1.168  0.7358 -0.1457  0.1635
  594SOL    HW2 2429   2.044   2.891   1.133  0.8353 -0.6580 -1.2037
  594SOL    HW3 2430   1.955   2.772   1.160  0.9447 -0.6043 -0.5850
  594SOL    MW4 2431   2.033   2.809   1.162  0.7763 -0.2739 -0.1156
  595SOL     OW 2432   2.025   3.076   1.076  0.1669  0.2472 -0.1890
  595SOL    HW2 2433   1.942   3.123   1.090  0.0469  0.2905 -1.0720
  595SOL    HW3 2434   2.033   3.068   0.981  1.1328  0.1548 -0.0992
  595SOL    MW4 2435   2.015   3.081   1.066  0.2785  0.2408 -0.2935
  596SOL     OW 2436   1.794   3.224   1.149 -0.1006 -0.3462  0.1278
  596SOL    HW2 2437   1.793   3.213   1.244 -0.6293  0.2201  0.1937
  596SOL    HW3 2438   1.812   3.317   1.135  0.2903 -0.4856 -0.3349
  596SOL    MW4 2439   1.796   3.235   1.160 -0.1189 -0.2899  0.0753
  597SOL     OW 2440   1.870   3.496   1.093  0.1649  0.1224 -0.3259
  597SOL    HW2 2441   1.940   3.551   1.128  0.5041  0.7310 -1.9023
  597SOL    HW3 2442   1.790   3.533   1.129  0.4481  1.1893 -0.7582
  597SOL    MW4 2443   1.869   3.508   1.102  0.2469  0.3433 -0.5909
  598SOL     OW 2444   2.065   3.660   1.241  0.1421  0.0303  0.2802
  598SOL    HW2 2445   2.056   3.633   1.332  0.8641  1.2075  0.7181
  598SOL    HW3 2446   2.126   3.597   1.202 -0.0505 -0.3852  0.6539
  598SOL    MW4 2447   2.072   3.648   1.248  0.2122  0.1311  0.3871
  599SOL     OW 2448   2.043   3.916   1.158  0.2418  0.0274  0.5403
  599SOL    HW2 2449   1.986   3.958   1.223  1.0579  0.4404  0.9850
  599SOL    HW3 2450   2.050   3.825   1.188  0.6135  0.2170  1.0235
  599SOL    MW4 2451   2.036   3.909   1.170  0.3986  0.1068  0.6627
  600SOL     OW 2452   1.824   4.044   1.258 -0.3614  0.2062  0.0077
  600SOL    HW2 2453   1.820   4.045   1.354 -0.9748 -1.6985  0.0316
  600SOL    HW3 2454   1.758   3.979   1.233  1.0620 -0.6302 -1.6325
  600SOL    MW4 2455   1.814   4.036   1.267 -0.2545 -0.1554 -0.2054
  601SOL     OW 2456   1.792   4.270   1.117  0.2882 -0.0340  0.0523
  601SOL    HW2 2457   1.813   4.191   1.168  0.9712  0.7999  1.1053
  601SOL    HW3 2458   1.706   4.296   1.149  0.9037  0.7354  1.1297
  601SOL    MW4 2459   1.784   4.263   1.128  0.4596  0.1779  0.3332
  602SOL     OW 2460   2.026   4.394   1.228 -0.5185 -0.2407 -0.3000
  602SOL    HW2 2461   2.023   4.377   1.322  0.4082  2.1767  0.2092
  602SOL    HW3 2462   1.944   4.357   1.194 -0.4154 -1.9701  1.2833
  602SOL    MW4 2463   2.015   4.387   1.236 -0.3827 -0.1502 -0.0240
  603SOL     OW 2464   2.476   0.016   1.153 -0.2078  0.2353  0.3744
  603SOL    HW2 2465   2.555   0.058   1.186 -0.0413  0.9350 -0.9013
  603SOL    HW3 2466   2.404   0.060   1.199  0.0412  0.9478  0.0799
  603SOL    MW4 2467   2.477   0.027   1.164 -0.1531  0.4210  0.1673
  604SOL     OW 2468   2.244   0.110   1.266 -0.3911 -0.0702  0.0924
  604SOL    HW2 2469   2.242   0.204   1.245  0.4407 -0.5299 -2.0989
  604SOL    HW3 2470   2.183   0.070   1.204  0.2710 -1.1453  0.1212
  604SOL    MW4 2471   2.236   0.117   1.255 -0.1943 -0.2727 -0.1930
  605SOL     OW 2472   2.210   0.362   1.133 -0.7539  0.3594 -0.5240
  605SOL    HW2 2473   2.149   0.431   1.159 -0.9638  0.0899 -0.2834
  605SOL    HW3 2474   2.202   0.356   1.038 -1.2989  0.1484 -0.4676
  605SOL    MW4 2475   2.201   0.370   1.124 -0.8538  0.2960 -0.4849
  606SOL     OW 2476   2.405   0.536   1.244  0.3247  0.2122 -0.0608
  606SOL    HW2 2477   2.392   0.517   1.337 -1.2232  1.7254  0.0588
  606SOL    HW3 2478   2.338   0.483   1.200  0.5209  0.1238 -0.2527
  606SOL    MW4 2479   2.394   0.526   1.251  0.1464  0.4001 -0.0703
  607SOL     OW 2480   2.450   0.799   1.135  0.4690 -0.4776  0.6854
  607SOL    HW2 2481   2.430   0.714   1.175 -1.0674  0.0432  1.0846
  607SOL    HW3 2482   2.483   0.778   1.048  0.7504 -1.5132  1.0402
  607SOL    MW4 2483   2.452   0.785   1.129  0.3033 -0.5456  0.7849
  608SOL     OW 2484   2.232   0.924   1.251 -0.5168  0.0871 -0.0873
  608SOL    HW2 2485   2.311   0.888   1.210  0.3733  0.1526  1.4948
  608SOL    HW3 2486   2.159   0.883   1.205  0.4367  0.4692 -1.9740
  608SOL    MW4 2487   2.233   0.914   1.240 -0.2739  0.1462 -0.1274
  609SOL     OW 2488   2.234   1.178   1.133  0.0901  0.3569 -1.1043
  609SOL    HW2 2489   2.314   1.224   1.159  1.6841 -1.5912 -2.3333
  609SOL    HW3 2490   2.231   1.101   1.189 -2.1791  1.5334  0.4635
  609SOL    MW4 2491   2.244   1.174   1.144  0.0010  0.2550 -1.0595
  610SOL     OW 2492   2.471   1.293   1.231 -0.0852 -0.3252  0.1094
  610SOL    HW2 2493   2.532   1.236   1.185  0.3912 -0.3972  0.8175
  610SOL    HW3 2494   2.468   1.373   1.178  0.2661 -0.4966 -0.1726
  610SOL    MW4 2495   2.478   1.296   1.218  0.0238 -0.3572  0.1657
  611SOL     OW 2496   2.453   1.522   1.080 -0.3088 -1.2427 -0.0920
  611SOL    HW2 2497   2.397   1.597   1.102  1.3904  0.0916 -0.1729
  611SOL    HW3 2498   2.480   1.538   0.990  1.0355 -1.3072  0.2816
  611SOL    MW4 2499   2.449   1.534   1.071  0.0927 -1.0751 -0.0535
  612SOL     OW 2500   2.265   1.688   1.186 -0.0289  0.5043 -0.1768
  612SOL    HW2 2501   2.268   1.781   1.165  0.8507  0.0967 -1.9287
  612SOL    HW3 2502   2.185   1.656   1.144  0.3640  0.2064 -0.7004
  612SOL    MW4 2503   2.255   1.696   1.178  0.1388  0.4112 -0.4770
  613SOL     OW 2504   2.293   1.942   1.092 -0.0788 -0.0206 -0.3765
  613SOL    HW2 2505   2.217   1.985   1.131 -0.5736 -0.5198 -0.7636
  613SOL    HW3 2506   2.284   1.960   0.998  0.6978  0.5575 -0.3390
  613SOL    MW4 2507   2.281   1.950   1.085 -0.0415 -0.0101 -0.4227
  614SOL     OW 2508   2.523   2.038   1.213  0.1044  0.2292 -0.3794
  614SOL    HW2 2509   2.591   1.991   1.163  0.8606  1.0158 -0.0960
  614SOL    HW3 2510   2.441   2.007   1.175  0.6958  2.1306 -3.3551
  614SOL    MW4 2511   2.521   2.027   1.201  0.2823  0.5839 -0.7344
  615SOL     OW 2512   2.528   2.310   1.126  0.3486 -0.0547  0.2152
  615SOL    HW2 2513   2.513   2.220   1.154  1.1516  0.4572  2.4219
  615SOL    HW3 2514   2.518   2.308   1.031 -2.7576 -1.8142  0.5389
  615SOL    MW4 2515   2.525   2.298   1.117  0.0448 -0.2191  0.5491
  616SOL     OW 2516   2.272   2.412   1.164  0.4411 -0.3623 -0.2125
  616SOL    HW2 2517   2.262   2.418   1.259  0.4032  0.5720 -0.2699
  616SOL    HW3 2518   2.362   2.380   1.151  1.2474  1.7026  0.1037
  616SOL    MW4 2519   2.283   2.408   1.175  0.5424  0.0336 -0.1783
  617SOL     OW 2520   2.273   2.682   1.061 -0.1084  0.4748  0.1935
  617SOL    HW2 2521   2.272   2.588   1.078 -2.7788  0.2649 -0.8138
  617SOL    HW3 2522   2.195   2.715   1.106 -0.7481  1.7486 -1.8178
  617SOL    MW4 2523   2.263   2.674   1.069 -0.5453  0.6151 -0.2048
  618SOL     OW 2524   2.492   2.815   1.195  0.0889  0.0727  0.1036
  618SOL    HW2 2525   2.479   2.833   1.288 -0.4855  2.0122 -0.3235
  618SOL    HW3 2526   2.410   2.775   1.166  0.0639 -0.0263  0.3140
  618SOL    MW4 2527   2.480   2.812   1.203  0.0098  0.3157  0.0750
  619SOL     OW 2528   2.490   3.097   1.088  0.0416  0.3993  0.1658
  619SOL    HW2 2529   2.413   3.144   1.120  0.2277  1.1153 -0.4427
  619SOL    HW3 2530   2.477   3.007   1.119 -1.2218  0.4277 -0.2411
  619SOL    MW4 2531   2.478   3.091   1.096 -0.1004  0.4976  0.0319
  620SOL     OW 2532   2.256   3.221   1.183  0.4486 -0.1468 -0.1882
  620SOL    HW2 2533   2.242   3.311   1.154  0.3839 -0.4381 -1.0752
  620SOL    HW3 2534   2.182   3.172   1.147 -0.2525 -0.2999  1.4647
  620SOL    MW4 2535   2.245   3.227   1.174  0.3476 -0.2053 -0.0874
  621SOL     OW 2536   2.261   3.495   1.088  0.4830  0.4744  0.2375
  621SOL    HW2 2537   2.341   3.532   1.125  1.2634 -0.4575 -0.5013
  621SOL    HW3 2538   2.278   3.491   0.994 -0.8993  1.4015 -0.0583
  621SOL    MW4 2539   2.274   3.499   1.081  0.4036  0.4740  0.1010
  622SOL     OW 2540   2.495   3.597   1.218 -0.0380 -0.0381 -0.0895
  622SOL    HW2 2541   2.502   3.593   1.314 -0.9317 -1.4751 -0.0661
  622SOL    HW3 2542   2.506   3.690   1.197 -0.4795  0.3883  1.4654
  622SOL    MW4 2543   2.497   3.609   1.228 -0.2139 -0.1714  0.1186
  623SOL     OW 2544   2.490   3.876   1.166  0.3328  0.1736  0.4878
  623SOL    HW2 2545   2.407   3.921   1.184 -1.0357 -2.7193  1.7911
  623SOL    HW3 2546   2.492   3.869   1.070 -1.3904 -0.5236  0.4800
  623SOL    MW4 2547   2.479   3.881   1.155 -0.0751 -0.2999  0.6588
  624SOL     OW 2548   2.275   4.035   1.260 -0.1068  0.8059 -0.5819
  624SOL    HW2 2549   2.272   4.120   1.217  0.1650 -0.0452 -2.3151
  624SOL    HW3 2550   2.196   3.991   1.232 -0.5152  0.6723  0.7460
  624SOL    MW4 2551   2.264   4.041   1.251 -0.1247  0.6766 -0.6354
  625SOL     OW 2552   2.281   4.284   1.143 -0.2649 -0.3533 -0.1259
  625SOL    HW2 2553   2.212   4.342   1.175 -0.2154  0.0134 -0.6830
  625SOL    HW3 2554   2.269   4.281   1.048 -0.9412 -2.1256  0.0007
  625SOL    MW4 2555   2.270   4.291   1.135 -0.3476 -0.5383 -0.1827
  626SOL     OW 2556   2.472   4.441   1.273 -1.0026  0.4511 -0.1078
  626SOL    HW2 2557   2.409   4.387   1.227  1.9713 -2.1058 -1.3304
  626SOL    HW3 2558   2.477   4.522   1.222 -0.5418 -0.8376 -2.1599
  626SOL    MW4 2559   2.464   4.445   1.260 -0.5493 -0.0572 -0.5397
  627SOL     OW 2560   2.917   0.038   1.128  0.3136 -0.1982 -0.1973
  627SOL    HW2 2561   2.916  -0.049   1.168 -0.3259  0.2166  0.7263
  627SOL    HW3 2562   2.894   0.023   1.037 -0.5706 -0.9206  0.1360
  627SOL    MW4 2563   2.914   0.025   1.122  0.1128 -0.2389 -0.0315
  628SOL     OW 2564   2.699   0.156   1.257  0.3092 -0.4431 -0.0461
  628SOL    HW2 2565   2.703   0.121   1.346  0.4697 -0.1552  0.0612
  628SOL    HW3 2566   2.768   0.111   1.210 -0.3233 -1.2090 -0.2442
  628SOL    MW4 2567   2.708   0.146   1.263  0.2468 -0.5062 -0.0582
  629SOL     OW 2568   2.624   0.405   1.164 -0.3993 -0.1819 -0.1816
  629SOL    HW2 2569   2.636   0.318   1.201 -0.9189 -0.4238 -0.5778
  629SOL    HW3 2570   2.542   0.436   1.202 -0.5471 -0.1248 -0.5492
  629SOL    MW4 2571   2.615   0.398   1.174 -0.4873 -0.2062 -0.2823
  630SOL     OW 2572   2.912   0.543   1.216  0.0628  0.1482  0.0550
  630SOL    HW2 2573   2.902   0.635   1.191 -0.8434  0.2123  0.6275
  630SOL    HW3 2574   2.822   0.510   1.219  0.3397 -0.5595  0.5844
  630SOL    MW4 2575   2.899   0.551   1.213 -0.0203  0.0633  0.2004
  631SOL     OW 2576   2.887   0.806   1.141  0.0410  0.0281  0.3474
  631SOL    HW2 2577   2.959   0.829   1.201 -0.9036  0.5445  1.2876
  631SOL    HW3 2578   2.811   0.853   1.175 -0.5007  0.3865 -1.3033
  631SOL    MW4 2579   2.887   0.815   1.153 -0.1552  0.1435  0.2536
  632SOL     OW 2580   2.667   0.896   1.268  0.2447  0.6857 -0.1332
  632SOL    HW2 2581   2.666   0.986   1.234 -0.8570  0.0590 -1.8711
  632SOL    HW3 2582   2.582   0.860   1.240  0.2661 -0.5858  1.4000
  632SOL    MW4 2583   2.655   0.903   1.260  0.1023  0.4352 -0.1602
  633SOL     OW 2584   2.670   1.130   1.125 -0.3212  0.1062  0.1341
  633SOL    HW2 2585   2.676   1.103   1.034  0.6024 -1.8577  0.7536
  633SOL    HW3 2586   2.741   1.193   1.137  0.6584 -0.9551 -0.0575
  633SOL    MW4 2587   2.680   1.135   1.115 -0.0701 -0.2929  0.1904
  634SOL     OW 2588   2.901   1.256   1.230  0.4628  0.0842 -0.0286
  634SOL    HW2 2589   2.905   1.266   1.325  0.5071  0.0155 -0.0236
  634SOL    HW3 2590   2.912   1.345   1.196  0.9322  0.0481  0.0160
  634SOL    MW4 2591   2.903   1.269   1.238  0.5302  0.0705 -0.0221
  635SOL     OW 2592   2.903   1.525   1.151  0.5371  0.5765 -0.2809
  635SOL    HW2 2593   2.973   1.582   1.182  0.7390  0.4015 -0.4117
  635SOL    HW3 2594   2.906   1.533   1.056  0.1415  0.8508 -0.2699
  635SOL    MW4 2595   2.913   1.533   1.142  0.5116  0.5897 -0.2968
  636SOL     OW 2596   2.665   1.661   1.202 -0.0020  0.5862 -0.3456
  636SOL    HW2 2597   2.741   1.604   1.193 -0.4785 -0.5728  2.4980
  636SOL    HW3 2598   2.591   1.607   1.173 -0.1028  0.7171 -0.3342
  636SOL    MW4 2599   2.665   1.646   1.197 -0.0780  0.4505  0.0311
  637SOL     OW 2600   2.709   1.903   1.066  0.1457 -0.8792 -0.3072
  637SOL    HW2 2601   2.768   1.950   1.124 -0.7936 -0.2314  0.1464
  637SOL    HW3 2602   2.691   1.821   1.112  0.8048 -1.1318 -0.5095
  637SOL    MW4 2603   2.714   1.898   1.080  0.1087 -0.8271 -0.2741
  638SOL     OW 2604   2.917   2.060   1.206  0.4134 -0.2499  0.2649
  638SOL    HW2 2605   2.918   2.050   1.302  1.4384 -1.2110  0.1578
  638SOL    HW3 2606   2.920   2.155   1.192 -0.1788 -0.0877  1.1909
  638SOL    MW4 2607   2.917   2.071   1.217  0.4709 -0.3550  0.3728
  639SOL     OW 2608   2.924   2.327   1.132 -0.1980 -0.1131 -0.0680
  639SOL    HW2 2609   3.010   2.358   1.162 -0.3569 -1.2513  1.5776
  639SOL    HW3 2610   2.863   2.395   1.161  0.0669  0.4942 -0.8845
  639SOL    MW4 2611   2.928   2.340   1.140 -0.1838 -0.1829  0.0415
  640SOL     OW 2612   2.716   2.492   1.220 -0.1981 -0.1759 -0.2441
  640SOL    HW2 2613   2.718   2.502   1.315 -3.3776 -0.0684 -0.1505
  640SOL    HW3 2614   2.647   2.428   1.203 -1.3019  1.5403 -2.5813
  640SOL    MW4 2615   2.707   2.485   1.230 -0.7634  0.0648 -0.5403
  641SOL     OW 2616   2.743   2.732   1.089  0.1155  0.3121 -0.0357
  641SOL    HW2 2617   2.740   2.643   1.125  0.0095 -0.4012 -1.7524
  641SOL    HW3 2618   2.665   2.774   1.124 -0.7025 -0.7916 -0.4904
  641SOL    MW4 2619   2.732   2.726   1.099 -0.0067  0.0722 -0.3222
  642SOL     OW 2620   2.932   2.843   1.251  0.1585 -0.1669  0.2654
  642SOL    HW2 2621   2.904   2.833   1.342  0.7351  0.8884  0.5572
  642SOL    HW3 2622   2.864   2.798   1.201  0.1049 -1.2002  1.2446
  642SOL    MW4 2623   2.919   2.836   1.256  0.2277 -0.1640  0.4332
  643SOL     OW 2624   2.926   3.079   1.131  0.2752  0.0931 -0.0650
  643SOL    HW2 2625   2.925   2.992   1.170 -2.4519 -0.2496 -0.8276
  643SOL    HW3 2626   2.935   3.063   1.037  1.9422  0.7322 -0.0315
  643SOL    MW4 2627   2.927   3.066   1.124  0.1352  0.1323 -0.1612
  644SOL     OW 2628   2.683   3.205   1.243  0.1704 -0.9865  0.2230
  644SOL    HW2 2629   2.753   3.155   1.202  0.6631 -0.6828  0.6870
  644SOL    HW3 2630   2.604   3.179   1.195  0.6517 -1.0479 -0.5553
  644SOL    MW4 2631   2.682   3.195   1.231  0.2987 -0.9544  0.1816
  645SOL     OW 2632   2.691   3.447   1.095 -0.2932  0.6551 -0.2398
  645SOL    HW2 2633   2.694   3.366   1.146 -1.2933 -0.0075 -1.2013
  645SOL    HW3 2634   2.625   3.500   1.139 -0.3713  0.5230 -0.1968
  645SOL    MW4 2635   2.683   3.443   1.107 -0.4356  0.5500 -0.3610
  646SOL     OW 2636   2.908   3.616   1.230 -0.0175  0.1530  0.3259
  646SOL    HW2 2637   2.993   3.579   1.205 -0.1701 -0.8908  1.3237
  646SOL    HW3 2638   2.844   3.554   1.195 -0.3724  0.8275 -0.2362
  646SOL    MW4 2639   2.911   3.603   1.222 -0.0846  0.1042  0.3835
  647SOL     OW 2640   2.913   3.877   1.157 -0.1429 -0.0890 -0.1638
  647SOL    HW2 2641   2.993   3.912   1.197 -1.0210  2.4975 -0.5553
  647SOL    HW3 2642   2.911   3.785   1.184  1.0187  0.7461  3.0074
  647SOL    MW4 2643   2.923   3.870   1.166 -0.1054  0.3626  0.2029
  648SOL     OW 2644   2.696   4.021   1.251  0.0735 -0.3645 -0.9373
  648SOL    HW2 2645   2.761   3.980   1.194 -0.2072 -0.5880 -1.0972
  648SOL    HW3 2646   2.617   3.969   1.239  0.1852 -0.7935  0.1505
  648SOL    MW4 2647   2.694   4.009   1.242  0.0513 -0.4506 -0.8148
  649SOL     OW 2648   2.668   4.296   1.150  0.4053 -0.3689 -0.2846
  649SOL    HW2 2649   2.663   4.204   1.176  1.1889 -0.5028 -0.6176
  649SOL    HW3 2650   2.599   4.338   1.202  1.2591 -0.8158  1.2400
  649SOL    MW4 2651   2.658   4.289   1.161  0.6211 -0.4458 -0.1273
  650SOL     OW 2652   2.903   4.450   1.248  0.1549 -0.2829  0.3801
  650SOL    HW2 2653   2.983   4.398   1.237  0.3668  0.3957 -1.4268
  650SOL    HW3 2654   2.834   4.396   1.210  0.2642  0.4472 -0.8756
  650SOL    MW4 2655   2.905   4.436   1.242  0.1972 -0.0978 -0.0240
  651SOL     OW 2656   3.376   4.659   1.121  0.1639  0.1976  0.1412
  651SOL    HW2 2657   3.453   4.702   1.159  0.1547 -1.9073  2.6171
  651SOL    HW3 2658   3.302   4.713   1.149  0.3758 -0.0029  1.0914
  651SOL    MW4 2659   3.376   4.672   1.129  0.1905 -0.1066  0.5933
  652SOL     OW 2660   3.161   0.133   1.212 -0.4138 -0.4639  0.6176
  652SOL    HW2 2661   3.163   0.136   1.308  0.5708 -1.7190  0.6535
  652SOL    HW3 2662   3.072   0.108   1.190 -0.9731  1.0071  1.1592
  652SOL    MW4 2663   3.150   0.130   1.222 -0.3576 -0.4354  0.6939
  653SOL     OW 2664   3.171   0.400   1.129  0.0584 -0.0271 -0.1873
  653SOL    HW2 2665   3.157   0.309   1.156 -0.6205 -0.1513 -0.9340
  653SOL    HW3 2666   3.095   0.447   1.163  0.1929  0.1798 -0.1741
  653SOL    MW4 2667   3.159   0.394   1.137 -0.0134 -0.0162 -0.2841
  654SOL     OW 2668   3.399   0.528   1.229  0.5934 -0.0355  0.4968
  654SOL    HW2 2669   3.408   0.616   1.191  0.5231  0.0213  0.6096
  654SOL    HW3 2670   3.322   0.491   1.186  2.4127 -1.2040 -1.7793
  654SOL    MW4 2671   3.390   0.535   1.219  0.8242 -0.1821  0.2112
  655SOL     OW 2672   3.334   0.788   1.132 -0.0051 -0.2142  0.4950
  655SOL    HW2 2673   3.257   0.792   1.189 -0.3677  1.0050 -0.0758
  655SOL    HW3 2674   3.303   0.819   1.047  0.8773 -0.6961 -0.0130
  655SOL    MW4 2675   3.320   0.793   1.128  0.0632 -0.1169  0.3526
  656SOL     OW 2676   3.117   0.859   1.284  0.2698 -0.1595  0.2664
  656SOL    HW2 2677   3.146   0.859   1.375 -1.2859 -0.8802  0.7818
  656SOL    HW3 2678   3.127   0.950   1.256  1.1647 -0.0210  1.0235
  656SOL    MW4 2679   3.122   0.871   1.293  0.1826 -0.2364  0.4342
  657SOL     OW 2680   3.128   1.107   1.195  0.1412  0.0018 -0.3009
  657SOL    HW2 2681   3.199   1.160   1.231  0.0937 -0.5170  0.5507
  657SOL    HW3 2682   3.049   1.158   1.213  0.1035 -0.3218  0.4463
  657SOL    MW4 2683   3.127   1.121   1.202  0.1302 -0.1093 -0.0899
  658SOL     OW 2684   3.345   1.270   1.277 -0.4396  0.3759  0.0580
  658SOL    HW2 2685   3.359   1.284   1.370 -0.4251  0.8541 -0.0150
  658SOL    HW3 2686   3.351   1.357   1.238 -1.0274  0.2548 -0.3143
  658SOL    MW4 2687   3.348   1.283   1.284 -0.5152  0.4230 -0.0007
  659SOL     OW 2688   3.370   1.529   1.216 -0.4669 -0.0047 -0.4440
  659SOL    HW2 2689   3.441   1.593   1.226 -0.9374  0.7499 -1.8147
  659SOL    HW3 2690   3.290   1.581   1.221 -0.8825 -0.6515 -0.3734
  659SOL    MW4 2691   3.369   1.545   1.218 -0.5836  0.0095 -0.6156
  660SOL     OW 2692   3.132   1.658   1.238  0.3669 -0.5243  0.5119
  660SOL    HW2 2693   3.148   1.660   1.333 -1.0442  0.6845  0.7454
  660SOL    HW3 2694   3.137   1.750   1.212 -0.6791 -0.6969 -0.3235
  660SOL    MW4 2695   3.135   1.670   1.247  0.0424 -0.3877  0.4326
  661SOL     OW 2696   3.158   1.939   1.146  0.0989 -0.0385 -0.0618
  661SOL    HW2 2697   3.230   1.995   1.174  1.1180 -1.2861 -0.1184
  661SOL    HW3 2698   3.079   1.986   1.172  0.9347  1.2833  0.1305
  661SOL    MW4 2699   3.157   1.953   1.153  0.3438 -0.0288 -0.0440
  662SOL     OW 2700   3.375   2.094   1.216 -0.0701  0.2985 -0.1257
  662SOL    HW2 2701   3.459   2.060   1.186  0.0913 -0.4166  1.0793
  662SOL    HW3 2702   3.363   2.176   1.168  0.2803 -0.6847 -1.9194
  662SOL    MW4 2703   3.384   2.100   1.206 -0.0021  0.0744 -0.2035
  663SOL     OW 2704   3.370   2.338   1.103 -0.4318 -0.4247 -0.0309
  663SOL    HW2 2705   3.449   2.380   1.136 -0.4446 -0.6435  0.2868
  663SOL    HW3 2706   3.298   2.389   1.141 -0.4458 -0.5084  0.0556
  663SOL    MW4 2707   3.371   2.351   1.112 -0.4351 -0.4644  0.0223
  664SOL     OW 2708   3.144   2.451   1.219 -0.0635  0.3607  0.2062
  664SOL    HW2 2709   3.145   2.457   1.315 -0.8165 -0.2609  0.2623
  664SOL    HW3 2710   3.142   2.542   1.189 -0.7296  0.5531  0.8019
  664SOL    MW4 2711   3.144   2.464   1.228 -0.2506  0.3040  0.2921
  665SOL     OW 2712   3.144   2.720   1.129  0.4871 -0.6449  0.0644
  665SOL    HW2 2713   3.059   2.753   1.159  0.6684 -0.0493 -0.0869
  665SOL    HW3 2714   3.146   2.741   1.035  1.7938  1.4543  0.5346
  665SOL    MW4 2715   3.133   2.727   1.120  0.6833 -0.2894  0.1065
  666SOL     OW 2716   3.399   2.852   1.217  0.0677  0.1968 -0.4742
  666SOL    HW2 2717   3.410   2.936   1.172 -1.0123  0.0557 -1.0133
  666SOL    HW3 2718   3.311   2.824   1.194 -0.0389 -0.4875  0.7117
  666SOL    MW4 2719   3.389   2.860   1.208 -0.0887  0.0880 -0.3887
  667SOL     OW 2720   3.379   3.105   1.099  0.3169  0.1775 -0.4882
  667SOL    HW2 2721   3.460   3.151   1.121  0.0828  1.8832 -3.0522
  667SOL    HW3 2722   3.310   3.155   1.142  0.4089  0.0716 -0.2181
  667SOL    MW4 2723   3.381   3.117   1.108  0.2985  0.3884 -0.7908
  668SOL     OW 2724   3.165   3.227   1.220  0.2827  0.0977  0.3647
  668SOL    HW2 2725   3.158   3.323   1.217  1.2666  0.2532  2.3151
  668SOL    HW3 2726   3.079   3.196   1.192 -0.7424  1.5802  1.7735
  668SOL    MW4 2727   3.153   3.236   1.216  0.2773  0.3140  0.8078
  669SOL     OW 2728   3.172   3.497   1.182 -0.0872  0.1726  0.0912
  669SOL    HW2 2729   3.247   3.552   1.205 -0.0128  0.8213 -1.5706
  669SOL    HW3 2730   3.171   3.498   1.086 -1.3441 -1.0309  0.0752
  669SOL    MW4 2731   3.182   3.504   1.172 -0.2432  0.0994 -0.1302
  670SOL     OW 2732   3.391   3.644   1.230 -0.3855 -0.0991  0.6229
  670SOL    HW2 2733   3.401   3.640   1.325 -0.5324  1.1291  0.7061
  670SOL    HW3 2734   3.459   3.586   1.195 -0.0546 -0.2190  1.4653
  670SOL    MW4 2735   3.401   3.636   1.238 -0.3610  0.0474  0.7451
  671SOL     OW 2736   3.368   3.899   1.128 -0.0848 -0.0407 -0.3421
  671SOL    HW2 2737   3.293   3.939   1.172  2.0413  1.8592  1.7460
  671SOL    HW3 2738   3.376   3.813   1.168  0.6049  0.8997  1.6385
  671SOL    MW4 2739   3.359   3.893   1.139  0.2866  0.3338  0.1948
  672SOL     OW 2740   3.149   4.007   1.266  0.6387  0.0302  0.1270
  672SOL    HW2 2741   3.171   4.006   1.359 -2.1977 -0.0756  0.8323
  672SOL    HW3 2742   3.124   4.098   1.248 -0.9997 -0.4360  0.0156
  672SOL    MW4 2743   3.149   4.019   1.276  0.0486 -0.0453  0.2054
  673SOL     OW 2744   3.102   4.277   1.189 -0.0771 -1.0176  0.5978
  673SOL    HW2 2745   3.183   4.327   1.199 -0.1835 -0.8272  0.5113
  673SOL    HW3 2746   3.094   4.262   1.094 -0.7083 -0.0920  0.4991
  673SOL    MW4 2747   3.112   4.282   1.177 -0.1745 -0.8707  0.5734
  674SOL     OW 2748   3.357   4.400   1.218 -0.1473 -0.3639 -0.8726
  674SOL    HW2 2749   3.446   4.369   1.199  0.8707  0.8991  1.5763
  674SOL    HW3 2750   3.354   4.487   1.179  0.8469  0.9206  1.8121
  674SOL    MW4 2751   3.369   4.407   1.210  0.1180 -0.0281 -0.1953
  675SOL     OW 2752   3.838   4.648   1.134 -0.5760  0.1928 -0.3255
  675SOL    HW2 2753   3.847   4.554   1.149 -2.4662  0.0951  0.1965
  675SOL    HW3 2754   3.822   4.656   1.040 -1.1667 -0.0600 -0.2459
  675SOL    MW4 2755   3.837   4.637   1.123 -0.9031  0.1469 -0.2462
  676SOL     OW 2756   3.612   0.109   1.234 -0.7639  0.3169 -0.2880
  676SOL    HW2 2757   3.595   0.197   1.200 -0.8145  0.7702  0.9024
  676SOL    HW3 2758   3.691   0.081   1.188 -0.1294  1.4096  0.1313
  676SOL    MW4 2759   3.620   0.117   1.223 -0.6866  0.5209 -0.0756
  677SOL     OW 2760   3.567   0.356   1.102  0.1198 -0.1658 -0.4294
  677SOL    HW2 2761   3.646   0.396   1.140  0.1973 -0.3644 -0.3776
  677SOL    HW3 2762   3.495   0.411   1.132  0.2972  0.3650 -0.9689
  677SOL    MW4 2763   3.568   0.368   1.111  0.1535 -0.1220 -0.4938
  678SOL     OW 2764   3.822   0.454   1.229  0.0496 -0.5751  0.5154
  678SOL    HW2 2765   3.885   0.407   1.174 -0.8118 -0.4618 -0.6077
  678SOL    HW3 2766   3.825   0.544   1.196 -0.8894 -0.6294  0.2693
  678SOL    MW4 2767   3.830   0.460   1.217 -0.1879 -0.5673  0.3347
  679SOL     OW 2768   3.799   0.746   1.136 -0.6062 -0.4364  0.5464
  679SOL    HW2 2769   3.864   0.807   1.171 -1.0801  0.7269 -0.5787
  679SOL    HW3 2770   3.715   0.777   1.170 -0.9508  0.0905 -0.7729
  679SOL    MW4 2771   3.797   0.758   1.145 -0.7143 -0.2134  0.2239
  680SOL     OW 2772   3.581   0.862   1.252 -0.2419 -0.3403 -0.1580
  680SOL    HW2 2773   3.605   0.952   1.229  1.6300 -1.1564 -1.4844
  680SOL    HW3 2774   3.497   0.848   1.209  0.6435 -0.0278 -2.0663
  680SOL    MW4 2775   3.573   0.872   1.243  0.1218 -0.4068 -0.5848
  681SOL     OW 2776   3.566   1.127   1.145 -0.1674 -0.0125  0.6583
  681SOL    HW2 2777   3.643   1.179   1.168 -0.2744  1.0264 -1.2415
  681SOL    HW3 2778   3.493   1.171   1.190 -0.2163  1.3855 -0.7176
  681SOL    MW4 2779   3.566   1.140   1.154 -0.1879  0.3091  0.2260
  682SOL     OW 2780   3.797   1.299   1.210  0.3798  0.1119  0.3544
  682SOL    HW2 2781   3.802   1.321   1.303  0.4549  0.7824  0.1905
  682SOL    HW3 2782   3.778   1.382   1.166 -0.0424 -0.2707 -0.1942
  682SOL    MW4 2783   3.795   1.313   1.216  0.3343  0.1500  0.2604
  683SOL     OW 2784   3.780   1.574   1.130  0.1142 -0.3795 -0.3302
  683SOL    HW2 2785   3.865   1.601   1.163  0.9399 -1.8812 -1.1998
  683SOL    HW3 2786   3.789   1.573   1.035 -1.1097  0.1951 -0.4705
  683SOL    MW4 2787   3.792   1.577   1.122  0.0618 -0.5016 -0.4635
  684SOL     OW 2788   3.565   1.720   1.244 -0.3715  0.2113  0.3336
  684SOL    HW2 2789   3.567   1.814   1.225 -0.8688 -0.1097 -1.4231
  684SOL    HW3 2790   3.641   1.685   1.198 -0.2539 -0.2764  0.8923
  684SOL    MW4 2791   3.575   1.728   1.235 -0.4218  0.1047  0.1755
  685SOL     OW 2792   3.611   1.971   1.125 -0.0648 -0.2192  0.2510
  685SOL    HW2 2793   3.690   2.013   1.157  1.2074 -2.5638  0.3051
  685SOL    HW3 2794   3.632   1.946   1.035 -1.6798  1.4132 -0.6345
  685SOL    MW4 2795   3.624   1.973   1.117 -0.1099 -0.3133  0.1413
  686SOL     OW 2796   3.838   2.074   1.252  0.3465 -0.2067  0.2592
  686SOL    HW2 2797   3.844   2.058   1.346  0.2026 -0.1488  0.2787
  686SOL    HW3 2798   3.919   2.038   1.216  0.6712  0.2934  0.4765
  686SOL    MW4 2799   3.850   2.067   1.260  0.3705 -0.1330  0.2905
  687SOL     OW 2800   3.845   2.339   1.170 -0.2574  0.2831  0.1028
  687SOL    HW2 2801   3.933   2.368   1.191 -0.4127  0.6392  0.2527
  687SOL    HW3 2802   3.841   2.249   1.203  0.3130 -0.0119 -0.6183
  687SOL    MW4 2803   3.856   2.331   1.177 -0.2029  0.2913  0.0274
  688SOL     OW 2804   3.606   2.464   1.205  0.1479  0.1584  0.2441
  688SOL    HW2 2805   3.585   2.457   1.298 -0.1069 -2.1314  0.0398
  688SOL    HW3 2806   3.686   2.414   1.194  0.1428  0.3582 -0.7841
  688SOL    MW4 2807   3.614   2.456   1.216  0.1137 -0.1175  0.0814
  689SOL     OW 2808   3.636   2.730   1.137  0.2218  0.2121 -0.1596
  689SOL    HW2 2809   3.645   2.638   1.162 -0.6553 -0.0515 -0.8156
  689SOL    HW3 2810   3.561   2.761   1.189  0.8329  0.7012  0.4472
  689SOL    MW4 2811   3.627   2.722   1.147  0.1867  0.2418 -0.1661
  690SOL     OW 2812   3.858   2.855   1.210 -0.3488 -0.1064 -0.0737
  690SOL    HW2 2813   3.864   2.850   1.305 -1.8940  1.8529  0.1735
  690SOL    HW3 2814   3.779   2.806   1.188 -0.7581  0.5856 -0.1880
  690SOL    MW4 2815   3.848   2.848   1.219 -0.6070  0.2434 -0.0561
  691SOL     OW 2816   3.829   3.123   1.122  0.2740  0.0826  0.3441
  691SOL    HW2 2817   3.838   3.031   1.144  0.2816  0.4350  1.8391
  691SOL    HW3 2818   3.812   3.123   1.027  0.4843 -1.4262  0.2913
  691SOL    MW4 2819   3.828   3.111   1.112  0.3026 -0.0701  0.5343
  692SOL     OW 2820   3.596   3.243   1.224 -0.4047  0.1160  0.0155
  692SOL    HW2 2821   3.607   3.334   1.195 -0.3452 -0.0173 -0.3725
  692SOL    HW3 2822   3.678   3.200   1.201 -0.6493 -0.1764 -0.3132
  692SOL    MW4 2823   3.608   3.250   1.217 -0.4289  0.0596 -0.0790
  693SOL     OW 2824   3.597   3.496   1.118  0.7038 -0.5602  0.0168
  693SOL    HW2 2825   3.685   3.520   1.147  0.5758  1.5653 -1.2482
  693SOL    HW3 2826   3.603   3.497   1.022 -0.6334 -0.6650 -0.0760
  693SOL    MW4 2827   3.610   3.499   1.109  0.5105 -0.2937 -0.1622
  694SOL     OW 2828   3.825   3.588   1.221 -0.4993 -0.1729  0.2175
  694SOL    HW2 2829   3.817   3.581   1.317 -1.6238 -0.5108  0.1018
  694SOL    HW3 2830   3.812   3.682   1.203 -1.4320 -0.2779  0.3010
  694SOL    MW4 2831   3.822   3.600   1.232 -0.7706 -0.2313  0.2133
  695SOL     OW 2832   3.823   3.877   1.175 -0.0039  0.1943 -0.4210
  695SOL    HW2 2833   3.736   3.910   1.198  0.6242  1.6098 -0.0606
  695SOL    HW3 2834   3.824   3.877   1.080 -0.1831  0.7609 -0.4253
  695SOL    MW4 2835   3.811   3.881   1.166  0.0551  0.4559 -0.3741
  696SOL     OW 2836   3.603   4.030   1.198 -0.3625 -0.4136 -0.4261
  696SOL    HW2 2837   3.592   4.042   1.292 -0.5718 -0.5161 -0.4387
  696SOL    HW3 2838   3.523   3.987   1.169 -0.7467  0.5388 -0.8208
  696SOL    MW4 2839   3.591   4.026   1.206 -0.4411 -0.3014 -0.4798
  697SOL     OW 2840   3.602   4.312   1.121  0.1276 -0.0256  0.1735
  697SOL    HW2 2841   3.597   4.219   1.140  0.4635  0.1503  1.1351
  697SOL    HW3 2842   3.598   4.317   1.025 -0.2658 -0.9954  0.1342
  697SOL    MW4 2843   3.601   4.301   1.111  0.1199 -0.1302  0.2952
  698SOL     OW 2844   3.874   4.377   1.185 -0.2341 -0.2642  0.1746
  698SOL    HW2 2845   3.861   4.374   1.280  0.1194 -0.0650  0.2286
  698SOL    HW3 2846   3.789   4.353   1.149 -0.8538  1.3125  0.5329
  698SOL    MW4 2847   3.861   4.374   1.193 -0.2689 -0.0300  0.2291
  699SOL     OW 2848   4.314   4.624   1.143  0.1500  0.3533 -0.3849
  699SOL    HW2 2849   4.314   4.529   1.158 -0.4604  0.0988 -1.9435
  699SOL    HW3 2850   4.228   4.653   1.173  0.0120  0.2824 -0.7117
  699SOL    MW4 2851   4.303   4.615   1.149  0.0510  0.3104 -0.6337
  700SOL     OW 2852   4.076   0.079   1.197 -0.2421 -0.1733 -0.3215
  700SOL    HW2 2853   4.080   0.078   1.293  0.0261 -1.9736 -0.3375
  700SOL    HW3 2854   3.988   0.047   1.177 -0.8832  1.7023 -0.6828
  700SOL    MW4 2855   4.065   0.075   1.207 -0.2913 -0.1634 -0.3712
  701SOL     OW 2856   4.058   0.353   1.116 -0.8822  0.4984  0.2620
  701SOL    HW2 2857   4.047   0.264   1.150 -2.1076  0.0107 -1.3374
  701SOL    HW3 2858   4.070   0.342   1.021 -0.1174  1.9775  0.1657
  701SOL    MW4 2859   4.058   0.340   1.108 -0.9427  0.6292  0.0384
  702SOL     OW 2860   4.284   0.523   1.209 -0.2524  0.1404 -0.2035
  702SOL    HW2 2861   4.260   0.518   1.302 -0.9949 -2.0437 -0.4792
  702SOL    HW3 2862   4.221   0.466   1.165  0.3844  0.7960 -2.0014
  702SOL    MW4 2863   4.273   0.514   1.216 -0.2656 -0.0613 -0.4771
  703SOL     OW 2864   4.262   0.775   1.116  0.2124  0.3999 -0.4245
  703SOL    HW2 2865   4.278   0.688   1.154 -1.5785  0.2050 -0.0717
  703SOL    HW3 2866   4.275   0.763   1.022  0.2215 -0.1883 -0.3535
  703SOL    MW4 2867   4.266   0.762   1.109 -0.0229  0.2965 -0.3686
  704SOL     OW 2868   4.017   0.891   1.231 -0.0726  0.2192  0.1296
  704SOL    HW2 2869   4.039   0.884   1.324 -0.2690  0.7893  0.2224
  704SOL    HW3 2870   4.085   0.840   1.186  0.7164  0.9313  0.5062
  704SOL    MW4 2871   4.029   0.883   1.237  0.0062  0.3883  0.1915
  705SOL     OW 2872   3.999   1.130   1.098 -0.4532  0.5658 -0.1677
  705SOL    HW2 2873   4.010   1.051   1.151 -0.6331 -0.8972 -2.2390
  705SOL    HW3 2874   3.916   1.168   1.128 -0.4187 -0.0876  0.7717
  705SOL    MW4 2875   3.990   1.125   1.109 -0.4728  0.2866 -0.3171
  706SOL     OW 2876   4.206   1.298   1.171  0.2439  0.3647 -0.2123
  706SOL    HW2 2877   4.232   1.276   1.261 -0.7378 -0.8374 -0.2086
  706SOL    HW3 2878   4.132   1.241   1.153 -0.3639  1.4876 -1.3577
  706SOL    MW4 2879   4.200   1.288   1.180  0.0343  0.3542 -0.3629
  707SOL     OW 2880   4.245   1.547   1.058  0.6951 -0.1033 -0.7710
  707SOL    HW2 2881   4.228   1.457   1.085  0.1301  0.4563  0.8054
  707SOL    HW3 2882   4.324   1.573   1.107  0.3865  0.5184 -0.5920
  707SOL    MW4 2883   4.254   1.539   1.068  0.5798  0.0525 -0.5394
  708SOL     OW 2884   4.028   1.679   1.199 -0.2396  0.2745  0.2029
  708SOL    HW2 2885   4.047   1.657   1.290 -0.1704  1.7852  0.5607
  708SOL    HW3 2886   4.081   1.618   1.148 -0.5892 -0.8613  1.1569
  708SOL    MW4 2887   4.037   1.668   1.205 -0.2766  0.3240  0.3761
  709SOL     OW 2888   4.052   1.944   1.129  0.4321 -0.4202 -0.0396
  709SOL    HW2 2889   4.040   1.854   1.160 -0.7397 -0.2220  0.1055
  709SOL    HW3 2890   4.052   1.937   1.034  0.5101 -0.5938 -0.0267
  709SOL    MW4 2891   4.050   1.931   1.121  0.2880 -0.4169 -0.0187
  710SOL     OW 2892   4.295   2.069   1.249 -0.1583 -0.3613  0.0544
  710SOL    HW2 2893   4.309   2.158   1.215 -1.0940 -0.0050  0.5958
  710SOL    HW3 2894   4.218   2.038   1.201  0.5362 -1.1146 -0.5796
  710SOL    MW4 2895   4.287   2.077   1.238 -0.1898 -0.4137  0.0421
  711SOL     OW 2896   4.309   2.354   1.138 -0.2738 -0.0537  0.1684
  711SOL    HW2 2897   4.225   2.389   1.167 -0.1449  0.1067  0.3541
  711SOL    HW3 2898   4.292   2.317   1.052 -0.3387  0.7449 -0.1666
  711SOL    MW4 2899   4.296   2.354   1.131 -0.2656  0.0730  0.1487
  712SOL     OW 2900   4.085   2.451   1.260  0.0871  0.0564  0.3411
  712SOL    HW2 2901   4.080   2.452   1.355  1.2853 -0.5883  0.4092
  712SOL    HW3 2902   4.085   2.544   1.235  0.2984  0.2273  0.9839
  712SOL    MW4 2903   4.084   2.463   1.269  0.2732 -0.0060  0.4349
  713SOL     OW 2904   4.083   2.690   1.134  0.2910  0.4400 -0.3487
  713SOL    HW2 2905   4.010   2.746   1.162  1.2951  1.5984 -0.0352
  713SOL    HW3 2906   4.083   2.697   1.038 -0.2181  0.1584 -0.3727
  713SOL    MW4 2907   4.073   2.698   1.125  0.3567  0.5555 -0.3105
  714SOL     OW 2908   4.262   2.864   1.240 -0.4194  0.2205  0.0642
  714SOL    HW2 2909   4.260   2.935   1.176  1.2273  0.4484  0.2485
  714SOL    HW3 2910   4.203   2.798   1.204 -1.9409  1.6452 -0.1283
  714SOL    MW4 2911   4.254   2.865   1.227 -0.4029  0.4387  0.0632
  715SOL     OW 2912   4.248   3.090   1.080 -0.2335  0.3676 -0.3119
  715SOL    HW2 2913   4.176   3.133   1.125 -0.4505 -0.7224  0.4002
  715SOL    HW3 2914   4.223   3.092   0.987 -0.6315  1.0127 -0.1890
  715SOL    MW4 2915   4.235   3.096   1.073 -0.3152  0.3090 -0.2018
  716SOL     OW 2916   4.070   3.235   1.230  0.3125 -0.0038  0.4706
  716SOL    HW2 2917   4.065   3.246   1.325 -0.0452  0.4023  0.4057
  716SOL    HW3 2918   3.985   3.198   1.206  0.2541  0.2663  0.2605
  716SOL    MW4 2919   4.058   3.232   1.240  0.2575  0.0854  0.4344
  717SOL     OW 2920   4.061   3.493   1.137  0.1249  0.2453 -0.1919
  717SOL    HW2 2921   4.076   3.403   1.166 -1.2532 -0.1041 -0.5117
  717SOL    HW3 2922   3.970   3.511   1.162  0.1210  1.2464 -0.9151
  717SOL    MW4 2923   4.051   3.484   1.144 -0.0577  0.3314 -0.3296
  718SOL     OW 2924   4.287   3.633   1.251  0.0455  0.2411  0.6967
  718SOL    HW2 2925   4.212   3.590   1.210 -0.6578  1.3318  0.8100
  718SOL    HW3 2926   4.363   3.587   1.216 -0.5404  1.1569 -1.8632
  718SOL    MW4 2927   4.287   3.621   1.241 -0.1245  0.5057  0.3738
  719SOL     OW 2928   4.290   3.890   1.119 -0.1647 -0.0794  0.1032
  719SOL    HW2 2929   4.227   3.948   1.162  0.1141 -0.0591  0.4870
  719SOL    HW3 2930   4.284   3.808   1.169  1.1040  0.3664  0.9920
  719SOL    MW4 2931   4.281   3.887   1.132  0.0396 -0.0181  0.2710
  720SOL     OW 2932   4.059   4.021   1.238 -0.1644  0.2988 -0.2489
  720SOL    HW2 2933   4.057   4.101   1.185 -2.2465  0.4414  0.0043
  720SOL    HW3 2934   3.983   3.971   1.208  0.8828 -1.4158 -0.1204
  720SOL    MW4 2935   4.048   4.025   1.227 -0.3009  0.0920 -0.1985
  721SOL     OW 2936   4.099   4.243   1.067 -0.0254 -0.2981 -0.1044
  721SOL    HW2 2937   4.036   4.301   1.110 -0.8860 -1.1320 -0.2226
  721SOL    HW3 2938   4.101   4.274   0.976 -0.3130 -0.3123 -0.1154
  721SOL    MW4 2939   4.091   4.255   1.060 -0.1769 -0.4101 -0.1215
  722SOL     OW 2940   4.325   4.362   1.188 -0.2638  0.7137 -0.1035
  722SOL    HW2 2941   4.249   4.313   1.157  0.7620 -0.3485 -0.9931
  722SOL    HW3 2942   4.398   4.329   1.134  0.6459  2.3909  0.0822
  722SOL    MW4 2943   4.324   4.351   1.176 -0.0081  0.7944 -0.1962
  723SOL     OW 2944   0.229   0.005   1.594 -0.5217 -0.5351  0.5392
  723SOL    HW2 2945   0.318   0.039   1.585 -0.6958 -0.2412 -0.1239
  723SOL    HW3 2946   0.175   0.067   1.545 -0.7527 -2.1732 -1.3257
  723SOL    MW4 2947   0.234   0.018   1.587 -0.5752 -0.7129  0.2058
  724SOL     OW 2948   0.021   0.144   1.486 -0.5229  0.0687  0.2986
  724SOL    HW2 2949  -0.054   0.090   1.509 -0.2258 -0.4432  0.0825
  724SOL    HW3 2950   0.020   0.147   1.390  1.1373 -1.9878  0.1718
  724SOL    MW4 2951   0.011   0.137   1.476 -0.2647 -0.2702  0.2533
  725SOL     OW 2952   0.000   0.390   1.598 -0.0297 -0.0294  0.2785
  725SOL    HW2 2953  -0.002   0.376   1.693 -0.2831  1.0464  0.4294
  725SOL    HW3 2954   0.002   0.301   1.562 -2.6933 -0.5194  1.2223
  725SOL    MW4 2955   0.000   0.376   1.606 -0.4139  0.0479  0.4230
  726SOL     OW 2956   0.245   0.514   1.516 -0.2034 -0.2014  0.1459
  726SOL    HW2 2957   0.158   0.477   1.529 -0.8719  1.5992  0.9493
  726SOL    HW3 2958   0.248   0.537   1.423 -0.9495  0.6215  0.3247
  726SOL    MW4 2959   0.234   0.512   1.505 -0.3901  0.1448  0.2756
  727SOL     OW 2960   0.196   0.780   1.616  0.2124 -0.7252  0.2482
  727SOL    HW2 2961   0.263   0.828   1.569 -0.5921 -0.1166 -0.2730
  727SOL    HW3 2962   0.211   0.688   1.593  0.7594 -0.5715  0.0046
  727SOL    MW4 2963   0.207   0.774   1.607  0.1784 -0.6247  0.1475
  728SOL     OW 2964   4.471   0.903   1.496 -0.1103  0.1253 -0.0841
  728SOL    HW2 2965   4.458   0.968   1.565 -2.0963 -0.0382 -0.2683
  728SOL    HW3 2966   4.553   0.860   1.519  0.7896  2.0801  0.5287
  728SOL    MW4 2967   4.480   0.906   1.508 -0.2537  0.3617 -0.0275
  729SOL     OW 2968   0.004   1.159   1.610  0.2129 -0.4866  0.2151
  729SOL    HW2 2969   0.029   1.163   1.703  1.0571  1.6219 -0.0694
  729SOL    HW3 2970   0.080   1.192   1.563 -0.7705 -0.0655 -1.1302
  729SOL    MW4 2971   0.017   1.164   1.616  0.1945 -0.1528  0.0001
  730SOL     OW 2972   0.227   1.262   1.486  0.3747  0.3491 -0.5776
  730SOL    HW2 2973   0.224   1.351   1.521 -0.4863  0.7740 -1.6929
  730SOL    HW3 2974   0.208   1.272   1.393  0.0756 -1.0218 -0.6754
  730SOL    MW4 2975   0.224   1.275   1.478  0.2216  0.2242 -0.7377
  731SOL     OW 2976   0.210   1.513   1.604  0.1295 -0.7068 -0.5457
  731SOL    HW2 2977   0.203   1.516   1.700  0.9087  0.5181 -0.5237
  731SOL    HW3 2978   0.127   1.550   1.573  0.4844  0.2722 -0.3371
  731SOL    MW4 2979   0.198   1.518   1.613  0.2792 -0.4160 -0.5152
  732SOL     OW 2980   4.479   1.614   1.471  0.3481  0.1923  0.1632
  732SOL    HW2 2981   4.474   1.703   1.504  1.6323  0.3035  0.0985
  732SOL    HW3 2982   4.495   1.625   1.377 -1.3575 -0.1125 -0.1674
  732SOL    MW4 2983   4.481   1.627   1.463  0.2928  0.1668  0.1109
  733SOL     OW 2984   0.038   1.875   1.606 -0.3272  0.4149 -0.1160
  733SOL    HW2 2985   0.056   1.885   1.700 -0.6186 -1.4560  0.1577
  733SOL    HW3 2986  -0.019   1.949   1.585  0.5509  1.4074  0.9565
  733SOL    MW4 2987   0.033   1.886   1.616 -0.2494  0.2990  0.0616
  734SOL     OW 2988   0.241   2.059   1.535  0.6114  0.0895 -1.0230
  734SOL    HW2 2989   0.176   1.997   1.568 -0.1690  1.3301 -0.2258
  734SOL    HW3 2990   0.238   2.049   1.440 -0.1905 -0.4056 -0.9501
  734SOL    MW4 2991   0.232   2.049   1.527  0.4026  0.1879 -0.9083
  735SOL     OW 2992   0.233   2.313   1.630  0.5821 -0.0898  0.0838
  735SOL    HW2 2993   0.258   2.312   1.722  0.5049 -0.2572  0.1015
  735SOL    HW3 2994   0.233   2.221   1.604 -0.4725 -0.1236  0.2037
  735SOL    MW4 2995   0.236   2.301   1.639  0.4328 -0.1166  0.1019
  736SOL     OW 2996   0.011   2.451   1.526 -0.1647  0.3519 -0.3916
  736SOL    HW2 2997  -0.062   2.405   1.568 -0.0340 -0.2134 -0.7726
  736SOL    HW3 2998   0.089   2.407   1.558  0.0109  0.9501  0.0051
  736SOL    MW4 2999   0.012   2.439   1.536 -0.1243  0.3562 -0.3895
  737SOL     OW 3000   0.020   2.726   1.629  0.2659  0.5152 -0.0085
  737SOL    HW2 3001  -0.069   2.756   1.609  0.5070  0.5190 -1.0463
  737SOL    HW3 3002   0.022   2.636   1.597  0.9075  0.7938 -0.7489
  737SOL    MW4 3003   0.008   2.718   1.622  0.3824  0.5524 -0.2429
  738SOL     OW 3004   0.239   2.839   1.494 -0.0706  0.2775 -0.1103
  738SOL    HW2 3005   0.316   2.798   1.534  0.4977  1.7160  0.3276
  738SOL    HW3 3006   0.165   2.798   1.538  0.4770 -0.3847  0.2096
  738SOL    MW4 3007   0.240   2.828   1.505  0.0767  0.3798 -0.0104
  739SOL     OW 3008   0.264   3.094   1.607  0.0218 -0.2222  0.0704
  739SOL    HW2 3009   0.195   3.149   1.571  0.9818  0.9046 -0.0989
  739SOL    HW3 3010   0.240   3.005   1.582 -1.1084  0.2039 -0.3984
  739SOL    MW4 3011   0.252   3.090   1.599 -0.0007 -0.0176 -0.0137
  740SOL     OW 3012   0.050   3.234   1.507 -0.1436 -0.4045 -0.0447
  740SOL    HW2 3013   0.025   3.324   1.527 -0.0233 -0.5226  0.6447
  740SOL    HW3 3014   0.027   3.223   1.414 -1.6345 -0.1569  0.2781
  740SOL    MW4 3015   0.044   3.244   1.497 -0.3244 -0.3877  0.0889
  741SOL     OW 3016   0.023   3.487   1.587 -0.6018 -0.2612 -0.2929
  741SOL    HW2 3017   0.029   3.484   1.682  0.2047  1.3531 -0.2756
  741SOL    HW3 3018  -0.064   3.524   1.570 -0.6206 -0.2485 -0.1720
  741SOL    MW4 3019   0.012   3.492   1.597 -0.4978 -0.0465 -0.2747
  742SOL     OW 3020   0.242   3.597   1.464  0.6501 -0.0625  1.0918
  742SOL    HW2 3021   0.248   3.684   1.503  0.0924  0.4947 -0.0351
  742SOL    HW3 3022   0.164   3.558   1.503  0.1656  0.4422  0.6201
  742SOL    MW4 3023   0.233   3.603   1.474  0.5126  0.0780  0.8810
  743SOL     OW 3024   0.437   3.996   1.517 -0.0866  0.5077  0.0943
  743SOL    HW2 3025   0.523   3.966   1.544 -0.3050  0.3280  0.6023
  743SOL    HW3 3026   0.448   4.023   1.426  0.3998  0.0664  0.0221
  743SOL    MW4 3027   0.450   3.996   1.509 -0.0512  0.4256  0.1519
  744SOL     OW 3028   4.482   3.958   1.474  0.2475 -0.2817 -0.0863
  744SOL    HW2 3029   4.484   4.049   1.502 -0.1923 -0.5700  0.8840
  744SOL    HW3 3030   4.564   3.920   1.507  1.5071  0.3134 -2.4131
  744SOL    MW4 3031   4.493   3.965   1.482  0.3557 -0.2408 -0.2652
  745SOL     OW 3032   0.012   4.231   1.591 -0.2067 -0.3938 -0.1828
  745SOL    HW2 3033   0.004   4.248   1.685 -0.7759 -0.6151 -0.1914
  745SOL    HW3 3034  -0.049   4.291   1.550  0.4148  0.0640 -0.4527
  745SOL    MW4 3035   0.003   4.241   1.598 -0.1997 -0.3624 -0.2196
  746SOL     OW 3036   0.237   4.397   1.491  0.2242  0.1800 -0.5085
  746SOL    HW2 3037   0.158   4.352   1.518  0.5731 -0.3305 -0.3314
  746SOL    HW3 3038   0.243   4.473   1.549  0.1310 -0.0557 -0.1921
  746SOL    MW4 3039   0.228   4.401   1.502  0.2580  0.0815 -0.4433
  747SOL     OW 3040   0.708   4.647   1.608  0.5671 -0.3831  0.2317
  747SOL    HW2 3041   0.781   4.704   1.582  0.2241 -0.4587 -0.9287
  747SOL    HW3 3042   0.630   4.695   1.582  0.2619 -1.1630 -0.3007
  747SOL    MW4 3043   0.708   4.660   1.601  0.4816 -0.4959  0.0083
  748SOL     OW 3044   0.464   0.111   1.533  0.0639  0.0545 -0.2199
  748SOL    HW2 3045   0.445   0.199   1.565 -1.1963 -0.3334  0.1719
  748SOL    HW3 3046   0.462   0.118   1.438  1.6981  0.7910 -0.2065
  748SOL    MW4 3047   0.461   0.123   1.525  0.1132  0.1005 -0.1665
  749SOL     OW 3048   0.481   0.378   1.634  0.0669 -0.1755  0.9021
  749SOL    HW2 3049   0.552   0.421   1.586  1.2309 -1.1887  1.6881
  749SOL    HW3 3050   0.402   0.425   1.607  1.1319  1.4809  0.6086
  749SOL    MW4 3051   0.480   0.390   1.624  0.3610 -0.0906  0.9670
  750SOL     OW 3052   0.684   0.522   1.504  0.4999  0.7584  0.3348
  750SOL    HW2 3053   0.678   0.614   1.531 -1.0557  0.5336  0.8171
  750SOL    HW3 3054   0.703   0.526   1.410  0.6765  1.5688  0.4004
  750SOL    MW4 3055   0.686   0.535   1.495  0.3179  0.8357  0.4071
  751SOL     OW 3056   0.629   0.769   1.589  0.1223  0.2984  0.7755
  751SOL    HW2 3057   0.634   0.761   1.684  1.9405 -0.5619  0.6129
  751SOL    HW3 3058   0.691   0.838   1.567 -0.3904  0.5885  0.2136
  751SOL    MW4 3059   0.638   0.777   1.599  0.2946  0.2231  0.6799
  752SOL     OW 3060   0.411   0.904   1.486 -0.0850  0.2849 -0.0928
  752SOL    HW2 3061   0.435   0.990   1.522  1.7025 -0.3398  0.2538
  752SOL    HW3 3062   0.486   0.848   1.505 -1.7351 -1.6944  0.7751
  752SOL    MW4 3063   0.424   0.908   1.493 -0.0668 -0.0587  0.0672
  753SOL     OW 3064   0.459   1.137   1.613  0.1611 -0.0368 -0.5831
  753SOL    HW2 3065   0.539   1.168   1.572  0.6019 -0.0688  0.2494
  753SOL    HW3 3066   0.389   1.190   1.574  0.6041  0.1167 -1.1662
  753SOL    MW4 3067   0.460   1.148   1.603  0.2777 -0.0207 -0.5503
  754SOL     OW 3068   0.663   1.262   1.471 -0.0210  0.2968  0.3056
  754SOL    HW2 3069   0.643   1.347   1.510 -1.1359 -0.0148  0.4521
  754SOL    HW3 3070   0.648   1.275   1.378  0.0641  0.3385  0.2982
  754SOL    MW4 3071   0.658   1.275   1.464 -0.1569  0.2612  0.3239
  755SOL     OW 3072   0.626   1.529   1.621  0.4727 -0.2042  0.1312
  755SOL    HW2 3073   0.698   1.581   1.586 -0.1466 -0.2576 -1.2514
  755SOL    HW3 3074   0.548   1.564   1.579 -0.1504 -1.0905  0.5229
  755SOL    MW4 3075   0.625   1.540   1.611  0.3088 -0.3282  0.0005
  756SOL     OW 3076   0.426   1.649   1.493  0.0814 -0.7748  0.4528
  756SOL    HW2 3077   0.434   1.732   1.539  1.5030 -0.3705 -0.4762
  756SOL    HW3 3078   0.342   1.613   1.522 -1.4883  1.8915 -0.6420
  756SOL    MW4 3079   0.416   1.655   1.503  0.0618 -0.3697  0.1858
  757SOL     OW 3080   0.475   1.912   1.620  0.2771  0.5601 -0.5197
  757SOL    HW2 3081   0.459   1.911   1.714 -0.2682 -1.1834 -0.6153
  757SOL    HW3 3082   0.402   1.962   1.584  0.5006  1.2517 -0.0192
  757SOL    MW4 3083   0.464   1.919   1.627  0.2346  0.4213 -0.4661
  758SOL     OW 3084   0.683   2.060   1.532  0.2195  0.1552  0.9330
  758SOL    HW2 3085   0.751   1.993   1.544  1.0084  0.9844  1.1693
  758SOL    HW3 3086   0.605   2.022   1.572  0.4793 -0.9174  0.4284
  758SOL    MW4 3087   0.682   2.046   1.539  0.3580  0.1230  0.8976
  759SOL     OW 3088   0.666   2.325   1.626  0.3733 -0.1175  0.1191
  759SOL    HW2 3089   0.612   2.360   1.556 -0.8383 -2.0356  0.0443
  759SOL    HW3 3090   0.674   2.232   1.606  3.2253 -0.0022  0.4746
  759SOL    MW4 3091   0.660   2.317   1.614  0.5897 -0.3555  0.1562
  760SOL     OW 3092   0.450   2.444   1.460  0.2003 -0.0963  0.2242
  760SOL    HW2 3093   0.454   2.527   1.507 -0.3523  1.3098 -2.1120
  760SOL    HW3 3094   0.388   2.391   1.511  0.1121  1.1251  1.4274
  760SOL    MW4 3095   0.442   2.448   1.473  0.1158  0.2503  0.0747
  761SOL     OW 3096   0.468   2.687   1.606 -0.0578 -0.0469  0.5132
  761SOL    HW2 3097   0.473   2.698   1.701  0.3961 -0.2231  0.5126
  761SOL    HW3 3098   0.545   2.733   1.573 -0.2695  0.1014  0.2202
  761SOL    MW4 3099   0.479   2.695   1.614 -0.0258 -0.0505  0.4746
  762SOL     OW 3100   0.691   2.806   1.504 -0.1035 -0.1721 -0.4621
  762SOL    HW2 3101   0.692   2.894   1.542 -0.7521  0.0797 -1.0083
  762SOL    HW3 3102   0.678   2.821   1.410  1.1684 -0.7969 -0.7511
  762SOL    MW4 3103   0.690   2.820   1.496 -0.0212 -0.2210 -0.5723
  763SOL     OW 3104   0.670   3.079   1.590 -0.6919  0.1898  0.3060
  763SOL    HW2 3105   0.751   3.125   1.569 -0.4559 -0.5718 -0.4967
  763SOL    HW3 3106   0.601   3.129   1.546 -0.6593  0.8059  0.9451
  763SOL    MW4 3107   0.671   3.091   1.582 -0.6565  0.1705  0.2843
  764SOL     OW 3108   0.473   3.195   1.460 -0.2539  0.1649 -0.0942
  764SOL    HW2 3109   0.398   3.149   1.499  0.7580 -1.3257  0.1242
  764SOL    HW3 3110   0.447   3.209   1.368 -1.5587  1.3523  0.4356
  764SOL    MW4 3111   0.459   3.191   1.453 -0.2925  0.1249  0.0045
  765SOL     OW 3112   0.454   3.462   1.588  0.3207 -0.5147  0.2851
  765SOL    HW2 3113   0.458   3.373   1.555  0.7135 -0.6441  0.6727
  765SOL    HW3 3114   0.381   3.502   1.541  0.2555 -0.9852 -0.0182
  765SOL    MW4 3115   0.445   3.456   1.578  0.3639 -0.5937  0.2962
  766SOL     OW 3116   0.674   3.628   1.494  0.1034 -0.8997  0.0071
  766SOL    HW2 3117   0.748   3.579   1.530 -0.3507 -2.3632 -1.0314
  766SOL    HW3 3118   0.598   3.572   1.511 -0.6110  0.0497 -0.0103
  766SOL    MW4 3119   0.674   3.614   1.501 -0.0508 -0.9675 -0.1321
  767SOL     OW 3120   0.663   3.891   1.624 -0.3905 -0.0855  0.0567
  767SOL    HW2 3121   0.721   3.962   1.600 -1.7298  0.7649 -0.7406
  767SOL    HW3 3122   0.688   3.819   1.565  1.1901 -0.4141  1.0969
  767SOL    MW4 3123   0.674   3.891   1.613 -0.3586 -0.0165  0.0889
  768SOL     OW 3124   0.221   3.848   1.571 -0.4195 -0.0441  0.4952
  768SOL    HW2 3125   0.210   3.850   1.666 -0.6450 -0.2307  0.4720
  768SOL    HW3 3126   0.300   3.901   1.555 -1.9689  2.3698  0.5405
  768SOL    MW4 3127   0.230   3.856   1.581 -0.6537  0.2499  0.4982
  769SOL     OW 3128   0.444   4.263   1.622  0.1101 -0.0116  0.3441
  769SOL    HW2 3129   0.432   4.168   1.615  0.4977  0.0095 -0.6498
  769SOL    HW3 3130   0.368   4.301   1.579  0.4653  0.1188 -0.1848
  769SOL    MW4 3131   0.433   4.255   1.616  0.2081  0.0081  0.1432
  770SOL     OW 3132   0.687   4.390   1.506 -0.2147  0.2560  0.0652
  770SOL    HW2 3133   0.615   4.347   1.553 -0.7444  0.9958 -0.0568
  770SOL    HW3 3134   0.681   4.482   1.533  0.4811  0.3778 -0.2049
  770SOL    MW4 3135   0.676   4.396   1.516 -0.1928  0.3700  0.0136
  771SOL     OW 3136   1.158   4.641   1.621  0.6009 -0.4047 -0.1565
  771SOL    HW2 3137   1.159   4.664   1.714 -0.6535  1.0039 -0.4832
  771SOL    HW3 3138   1.228   4.695   1.583 -0.2180  0.5022 -0.3749
  771SOL    MW4 3139   1.168   4.651   1.628  0.3273 -0.0992 -0.2284
  772SOL     OW 3140   0.933   0.132   1.563  0.0423 -0.3353 -0.1500
  772SOL    HW2 3141   0.953   0.220   1.593 -0.5015 -0.3866  0.3768
  772SOL    HW3 3142   1.002   0.077   1.600  0.6040 -0.0722 -0.8078
  772SOL    MW4 3143   0.945   0.136   1.572  0.0447 -0.3074 -0.1673
  773SOL     OW 3144   0.927   0.405   1.624  0.0537 -0.1909  0.2311
  773SOL    HW2 3145   0.898   0.402   1.715 -0.7743 -0.1842 -0.0291
  773SOL    HW3 3146   0.852   0.439   1.575  0.9201  1.0187 -0.2900
  773SOL    MW4 3147   0.913   0.409   1.629  0.0588 -0.0305  0.1280
  774SOL     OW 3148   1.155   0.517   1.499 -0.3959 -0.7612  0.2981
  774SOL    HW2 3149   1.145   0.612   1.499  0.6575 -0.6306 -1.1798
  774SOL    HW3 3150   1.071   0.484   1.529 -1.7414  0.5685 -1.8448
  774SOL    MW4 3151   1.143   0.525   1.503 -0.4345 -0.5685 -0.1796
  775SOL     OW 3152   1.101   0.786   1.559  0.0946  0.1346  0.2942
  775SOL    HW2 3153   1.124   0.763   1.649  1.7621 -0.7469 -0.3497
  775SOL    HW3 3154   1.168   0.849   1.532 -0.6265  0.6967 -0.2128
  775SOL    MW4 3155   1.113   0.792   1.568  0.2195  0.0924  0.1425
  776SOL     OW 3156   0.864   0.908   1.504 -0.0951  0.3135  0.4630
  776SOL    HW2 3157   0.945   0.862   1.524  0.3959  1.4695  1.1919
  776SOL    HW3 3158   0.854   0.900   1.409  0.7487 -0.0282  0.4024
  776SOL    MW4 3159   0.873   0.901   1.494  0.0811  0.4209  0.5512
  777SOL     OW 3160   0.897   1.164   1.563 -0.2920 -0.3494 -0.0245
  777SOL    HW2 3161   0.887   1.071   1.542 -0.3769 -0.8926  2.2866
  777SOL    HW3 3162   0.814   1.204   1.537 -0.2564 -0.9136 -1.0228
  777SOL    MW4 3163   0.885   1.157   1.557 -0.2986 -0.4954  0.1488
  778SOL     OW 3164   1.100   1.303   1.440 -0.4551 -0.4808  0.6314
  778SOL    HW2 3165   1.175   1.245   1.456 -0.6448 -0.7596  0.5206
  778SOL    HW3 3166   1.028   1.264   1.489 -0.4440 -0.0192  1.0180
  778SOL    MW4 3167   1.100   1.290   1.448 -0.4787 -0.4568  0.6678
  779SOL     OW 3168   1.135   1.529   1.588 -0.0695  0.4268 -0.0677
  779SOL    HW2 3169   1.210   1.567   1.542 -0.4072  0.1115 -0.9028
  779SOL    HW3 3170   1.118   1.446   1.542 -0.1498 -0.1006  0.9032
  779SOL    MW4 3171   1.142   1.523   1.576 -0.1247  0.3157 -0.0498
  780SOL     OW 3172   0.878   1.632   1.547 -0.1450 -0.1344  0.2638
  780SOL    HW2 3173   0.963   1.592   1.563 -0.3869 -0.3894  0.9276
  780SOL    HW3 3174   0.866   1.626   1.452 -0.3241 -1.9643  0.3823
  780SOL    MW4 3175   0.888   1.626   1.537 -0.2006 -0.4095  0.3669
  781SOL     OW 3176   0.894   1.901   1.601 -0.1992 -0.0508 -0.3067
  781SOL    HW2 3177   0.978   1.933   1.568 -0.8150  0.7698 -1.0977
  781SOL    HW3 3178   0.891   1.810   1.571  1.4676 -0.8420  1.7896
  781SOL    MW4 3179   0.905   1.893   1.592 -0.0606 -0.0470 -0.1343
  782SOL     OW 3180   1.119   2.027   1.501  0.2951 -0.1852 -0.3328
  782SOL    HW2 3181   1.192   1.965   1.506 -0.1258 -0.5855  1.2503
  782SOL    HW3 3182   1.158   2.112   1.524  0.2732 -0.3935  0.4828
  782SOL    MW4 3183   1.134   2.030   1.505  0.2366 -0.2654 -0.0162
  783SOL     OW 3184   1.172   2.285   1.592 -0.1715  0.0194  0.4248
  783SOL    HW2 3185   1.239   2.343   1.556  0.4667  0.1285  1.7515
  783SOL    HW3 3186   1.091   2.312   1.549  0.7785 -0.7457 -1.9179
  783SOL    MW4 3187   1.170   2.296   1.582  0.0381 -0.0672  0.2908
  784SOL     OW 3188   0.919   2.403   1.536 -0.3655 -0.0312 -0.5030
  784SOL    HW2 3189   0.913   2.493   1.568 -1.4769 -0.1082 -0.4486
  784SOL    HW3 3190   0.842   2.360   1.573 -0.6513 -0.6074 -1.7400
  784SOL    MW4 3191   0.908   2.409   1.545 -0.5499 -0.1173 -0.6590
  785SOL     OW 3192   0.901   2.663   1.603 -0.0313  0.0153 -0.4928
  785SOL    HW2 3193   0.872   2.667   1.694  0.0800  0.7279 -0.4873
  785SOL    HW3 3194   0.828   2.702   1.553 -0.5203 -1.2752 -0.8095
  785SOL    MW4 3195   0.887   2.669   1.608 -0.0811 -0.0606 -0.5338
  786SOL     OW 3196   1.133   2.813   1.482  0.3114  0.3617  0.6965
  786SOL    HW2 3197   1.131   2.907   1.500 -1.4457  0.3279  0.6767
  786SOL    HW3 3198   1.056   2.777   1.525 -1.1800 -0.4763 -2.4815
  786SOL    MW4 3199   1.123   2.821   1.490 -0.1173  0.2465  0.2747
  787SOL     OW 3200   1.117   3.088   1.558  0.0185 -0.1520 -0.0867
  787SOL    HW2 3201   1.115   3.076   1.653 -1.0073  1.5805  0.1282
  787SOL    HW3 3202   1.207   3.115   1.539  0.0206  0.2577  0.4986
  787SOL    MW4 3203   1.129   3.090   1.568 -0.1165  0.1304  0.0187
  788SOL     OW 3204   0.884   3.227   1.510 -0.0798 -0.3972  0.0332
  788SOL    HW2 3205   0.961   3.174   1.530 -0.5314 -1.2459 -0.4821
  788SOL    HW3 3206   0.874   3.221   1.415 -1.4307 -1.2074  0.2188
  788SOL    MW4 3207   0.893   3.219   1.500 -0.3176 -0.6161 -0.0103
  789SOL     OW 3208   0.881   3.490   1.607  0.3668 -0.0835 -0.0219
  789SOL    HW2 3209   0.967   3.526   1.585  0.1418  0.5625  0.1444
  789SOL    HW3 3210   0.887   3.397   1.584  1.9871 -0.6241  2.4853
  789SOL    MW4 3211   0.893   3.483   1.601  0.5508 -0.0694  0.3308
  790SOL     OW 3212   1.122   3.598   1.523  0.5554  0.2725 -0.1137
  790SOL    HW2 3213   1.202   3.551   1.549  0.0948 -1.0051 -0.9571
  790SOL    HW3 3214   1.124   3.597   1.427  0.0057  1.0695 -0.1315
  790SOL    MW4 3215   1.133   3.592   1.514  0.4221  0.2091 -0.2272
  791SOL     OW 3216   1.108   3.871   1.562  0.6254 -0.2084  0.1263
  791SOL    HW2 3217   1.191   3.911   1.536 -0.3296  0.0994 -2.5970
  791SOL    HW3 3218   1.118   3.779   1.539 -1.0821  0.4802 -3.7552
  791SOL    MW4 3219   1.120   3.864   1.556  0.2741 -0.0770 -0.7451
  792SOL     OW 3220   0.871   4.035   1.551 -0.4171 -0.5960  0.0341
  792SOL    HW2 3221   0.891   4.129   1.556 -2.3136 -0.0782 -1.6296
  792SOL    HW3 3222   0.953   3.992   1.578  1.1292  1.4952 -1.1551
  792SOL    MW4 3223   0.885   4.042   1.555 -0.4634 -0.2518 -0.3422
  793SOL     OW 3224   0.932   4.287   1.615  0.0607  0.1280  0.1145
  793SOL    HW2 3225   0.928   4.287   1.711  0.1100 -0.3293  0.1197
  793SOL    HW3 3226   0.847   4.321   1.587 -0.2896 -0.5795  0.3116
  793SOL    MW4 3227   0.920   4.291   1.624  0.0209 -0.0257  0.1413
  794SOL     OW 3228   1.167   4.367   1.475 -0.4210  0.0835 -0.1391
  794SOL    HW2 3229   1.087   4.320   1.499 -0.2261  0.1427  0.6562
  794SOL    HW3 3230   1.168   4.443   1.533  1.2022 -0.9345  1.2576
  794SOL    MW4 3231   1.157   4.371   1.486 -0.1811 -0.0434  0.1501
  795SOL     OW 3232   1.550   4.630   1.605 -0.1779 -0.1330 -0.0563
  795SOL    HW2 3233   1.550   4.641   1.700  0.1450 -1.5068  0.1060
  795SOL    HW3 3234   1.486   4.694   1.574  1.0071  1.5789  0.9361
  795SOL    MW4 3235   1.541   4.640   1.614  0.0211 -0.0887  0.0961
  796SOL     OW 3236   1.337   0.158   1.537 -0.2910 -0.0520 -0.0684
  796SOL    HW2 3237   1.339   0.245   1.576  0.0192  0.0850 -0.3839
  796SOL    HW3 3238   1.313   0.174   1.445 -0.7921 -0.3477  0.0118
  796SOL    MW4 3239   1.334   0.172   1.530 -0.3160 -0.0729 -0.0995
  797SOL     OW 3240   1.371   0.441   1.637 -0.3147 -0.2552  0.5934
  797SOL    HW2 3241   1.442   0.499   1.610  1.5207 -1.7455  2.0771
  797SOL    HW3 3242   1.295   0.472   1.588  0.7459  2.9958  0.8890
  797SOL    MW4 3243   1.370   0.452   1.627  0.0672 -0.0229  0.8281
  798SOL     OW 3244   1.617   0.550   1.527  0.0351 -0.2154 -0.2398
  798SOL    HW2 3245   1.671   0.483   1.569  0.9594  0.0006 -1.0932
  798SOL    HW3 3246   1.610   0.522   1.436 -1.0321 -0.0715 -0.2131
  798SOL    MW4 3247   1.623   0.537   1.521  0.0162 -0.1680 -0.3488
  799SOL     OW 3248   1.579   0.815   1.631  0.2791 -0.2362  0.1251
  799SOL    HW2 3249   1.577   0.822   1.726 -1.6584 -0.9252  0.1606
  799SOL    HW3 3250   1.596   0.722   1.614  0.2078 -0.1880 -0.2058
  799SOL    MW4 3251   1.581   0.804   1.641  0.0141 -0.3207  0.0862
  800SOL     OW 3252   1.349   0.895   1.459 -0.2524 -0.4902  0.0752
  800SOL    HW2 3253   1.434   0.871   1.498  0.1572 -0.4465 -0.7817
  800SOL    HW3 3254   1.369   0.913   1.367 -1.1258 -0.0674 -0.0358
  800SOL    MW4 3255   1.363   0.894   1.452 -0.3135 -0.4287 -0.0525
  801SOL     OW 3256   1.306   1.157   1.540 -0.6308 -0.2641 -0.1831
  801SOL    HW2 3257   1.303   1.161   1.635  0.9698 -1.4019 -0.0717
  801SOL    HW3 3258   1.342   1.070   1.520  0.8734  0.6774 -1.7627
  801SOL    MW4 3259   1.310   1.146   1.550 -0.2211 -0.2899 -0.3769
  802SOL     OW 3260   1.573   1.267   1.451  0.3581  0.1981  0.3802
  802SOL    HW2 3261   1.490   1.227   1.478  1.3004 -1.9994  0.1396
  802SOL    HW3 3262   1.555   1.301   1.363  0.2575 -2.1383 -0.5487
  802SOL    MW4 3263   1.559   1.266   1.443  0.4692 -0.3999  0.2259
  803SOL     OW 3264   1.586   1.522   1.578  0.1421 -0.0362 -0.0130
  803SOL    HW2 3265   1.574   1.503   1.671  0.1972  2.3778  0.4991
  803SOL    HW3 3266   1.590   1.435   1.537  2.4773 -1.2116  2.5173
  803SOL    MW4 3267   1.585   1.508   1.585  0.4574  0.1272  0.3883
  804SOL     OW 3268   1.369   1.642   1.462  0.0528  0.0238 -0.3031
  804SOL    HW2 3269   1.450   1.605   1.498  0.0647  0.5378  0.2148
  804SOL    HW3 3270   1.386   1.650   1.368  0.0069 -1.3711 -0.4416
  804SOL    MW4 3271   1.382   1.638   1.455  0.0483 -0.0924 -0.2531
  805SOL     OW 3272   1.344   1.903   1.556 -0.7127  0.1793 -0.2378
  805SOL    HW2 3273   1.364   1.900   1.650 -2.6666 -0.5993  0.1856
  805SOL    HW3 3274   1.359   1.813   1.526 -0.5177  0.3235 -0.5648
  805SOL    MW4 3275   1.349   1.890   1.565 -0.9449  0.0955 -0.2251
  806SOL     OW 3276   1.533   2.085   1.450 -0.4363 -0.0117  0.8373
  806SOL    HW2 3277   1.465   2.022   1.475  1.2107 -2.2275 -0.1271
  806SOL    HW3 3278   1.548   2.068   1.357  1.0809  0.7924  0.9170
  806SOL    MW4 3279   1.526   2.075   1.441 -0.0188 -0.1979  0.7206
  807SOL     OW 3280   1.574   2.325   1.585 -0.2332  0.1916  0.1303
  807SOL    HW2 3281   1.641   2.366   1.530  1.3688 -2.6652 -0.1767
  807SOL    HW3 3282   1.550   2.245   1.537 -0.7193 -1.0017  2.2916
  807SOL    MW4 3283   1.580   2.320   1.572 -0.0859 -0.3428  0.3750
  808SOL     OW 3284   1.369   2.469   1.473 -0.1613  0.1795  0.1417
  808SOL    HW2 3285   1.364   2.541   1.536  0.3731  0.2622  0.0873
  808SOL    HW3 3286   1.438   2.412   1.506  1.3089  1.1013 -1.2809
  808SOL    MW4 3287   1.377   2.471   1.486  0.1031  0.3121 -0.0533
  809SOL     OW 3288   1.368   2.718   1.625 -0.1396 -0.5047  0.2886
  809SOL    HW2 3289   1.439   2.761   1.577  0.0530 -0.1716  0.8743
  809SOL    HW3 3290   1.288   2.748   1.581  0.0448 -0.3244  0.0776
  809SOL    MW4 3291   1.367   2.728   1.613 -0.0899 -0.4368  0.3380
  810SOL     OW 3292   1.588   2.842   1.514 -0.1938 -0.0584  0.0132
  810SOL    HW2 3293   1.677   2.814   1.535  0.9522  3.3612  0.0069
  810SOL    HW3 3294   1.582   2.835   1.419  1.2062  2.7318 -0.3151
  810SOL    MW4 3295   1.599   2.837   1.505  0.1421  0.7613 -0.0311
  811SOL     OW 3296   1.608   3.104   1.611 -0.0419  0.0841 -0.0343
  811SOL    HW2 3297   1.653   3.169   1.557 -1.4842  0.4544 -0.8428
  811SOL    HW3 3298   1.611   3.023   1.559  0.3178 -0.0757  0.2341
  811SOL    MW4 3299   1.614   3.102   1.597 -0.1847  0.1121 -0.1055
  812SOL     OW 3300   1.372   3.200   1.492  0.1645 -0.0732 -0.3030
  812SOL    HW2 3301   1.380   3.287   1.532  1.2280  0.6467 -2.0359
  812SOL    HW3 3302   1.445   3.151   1.530  0.0106  0.0207  0.1180
  812SOL    MW4 3303   1.383   3.205   1.502  0.2846  0.0341 -0.4761
  813SOL     OW 3304   1.355   3.450   1.621  0.2680 -0.0138 -0.2503
  813SOL    HW2 3305   1.344   3.462   1.715 -0.7981 -2.1876 -0.0691
  813SOL    HW3 3306   1.432   3.503   1.599  0.2270  0.9341  1.7271
  813SOL    MW4 3307   1.364   3.459   1.630  0.1218 -0.1755  0.0343
  814SOL     OW 3308   1.574   3.591   1.478  0.0087  0.3350  0.2480
  814SOL    HW2 3309   1.562   3.677   1.518  1.1411  0.8287 -0.4515
  814SOL    HW3 3310   1.587   3.609   1.385  2.2454 -0.4410  0.3861
  814SOL    MW4 3311   1.574   3.604   1.471  0.4532  0.2975  0.1739
  815SOL     OW 3312   1.572   3.837   1.617 -0.0019  0.5060 -0.7508
  815SOL    HW2 3313   1.570   3.843   1.713 -2.0463  1.7531 -0.8369
  815SOL    HW3 3314   1.503   3.898   1.588  0.7782  0.3517 -3.0199
  815SOL    MW4 3315   1.562   3.846   1.626 -0.1687  0.6502 -1.0617
  816SOL     OW 3316   1.349   3.970   1.516 -0.0116 -0.2456  0.3065
  816SOL    HW2 3317   1.341   4.053   1.564 -0.1611 -0.7540  1.1770
  816SOL    HW3 3318   1.345   3.995   1.424 -1.4958  0.5785  0.5827
  816SOL    MW4 3319   1.347   3.984   1.510 -0.2271 -0.2041  0.4578
  817SOL     OW 3320   1.352   4.238   1.632 -0.2980  0.6148  0.3131
  817SOL    HW2 3321   1.434   4.277   1.600  0.1213  0.7631  1.5612
  817SOL    HW3 3322   1.283   4.285   1.584  0.3066  1.0413 -0.1532
  817SOL    MW4 3323   1.354   4.250   1.621 -0.1628  0.6909  0.4162
  818SOL     OW 3324   1.558   4.353   1.494  0.2487 -0.2303  0.0248
  818SOL    HW2 3325   1.639   4.318   1.532  0.7132 -0.4938 -1.2060
  818SOL    HW3 3326   1.553   4.443   1.527  1.0822 -0.1897  0.0421
  818SOL    MW4 3327   1.568   4.361   1.504  0.4199 -0.2599 -0.1353
  819SOL     OW 3328   2.012   4.631   1.617 -0.2602 -0.1160  0.3778
  819SOL    HW2 3329   1.990   4.645   1.709 -0.5311 -1.6041  0.5645
  819SOL    HW3 3330   1.936   4.665   1.569  0.0360  0.9788  0.6866
  819SOL    MW4 3331   1.999   4.637   1.622 -0.2567 -0.1678  0.4433
  820SOL     OW 3332   1.791   0.039   1.474 -0.0795 -0.2961 -0.1286
  820SOL    HW2 3333   1.703   0.015   1.501 -0.2866  0.6811  0.1134
  820SOL    HW3 3334   1.786   0.046   1.379 -0.1083 -0.8276 -0.1671
  820SOL    MW4 3335   1.779   0.037   1.465 -0.1105 -0.2373 -0.1017
  821SOL     OW 3336   1.829   0.344   1.616  0.1757 -0.6385  0.7407
  821SOL    HW2 3337   1.896   0.392   1.567 -1.0988  0.2232 -0.2042
  821SOL    HW3 3338   1.816   0.263   1.567 -0.9259  0.1152 -0.2358
  821SOL    MW4 3339   1.836   0.340   1.603 -0.1377 -0.4254  0.4871
  822SOL     OW 3340   2.021   0.501   1.491 -0.0664 -0.2614 -0.2247
  822SOL    HW2 3341   2.085   0.439   1.525  1.4150  0.7052 -1.1813
  822SOL    HW3 3342   2.047   0.586   1.528 -0.2119  0.3021 -1.3788
  822SOL    MW4 3343   2.033   0.504   1.500  0.1099 -0.0595 -0.5033
  823SOL     OW 3344   2.035   0.769   1.567 -0.2314  0.3026  0.0802
  823SOL    HW2 3345   2.108   0.831   1.560  0.3959 -0.4273  0.0938
  823SOL    HW3 3346   1.958   0.819   1.540  0.3477  0.9455 -0.3816
  823SOL    MW4 3347   2.034   0.784   1.563 -0.0722  0.2910  0.0210
  824SOL     OW 3348   1.791   0.915   1.480  0.1262 -0.8533 -0.3020
  824SOL    HW2 3349   1.786   1.001   1.523 -0.8671  0.1621 -2.3713
  824SOL    HW3 3350   1.727   0.861   1.527 -0.3638 -0.0069  0.0164
  824SOL    MW4 3351   1.782   0.919   1.492 -0.0695 -0.6076 -0.5331
  825SOL     OW 3352   1.797   1.163   1.591 -0.0557  0.0880  0.2710
  825SOL    HW2 3353   1.862   1.212   1.540 -0.1799 -0.2561 -0.2197
  825SOL    HW3 3354   1.713   1.199   1.562 -0.0416  1.4440  1.8433
  825SOL    MW4 3355   1.794   1.175   1.580 -0.0702  0.2215  0.4137
  826SOL     OW 3356   1.992   1.317   1.487  0.1334 -0.2049 -0.0289
  826SOL    HW2 3357   1.995   1.411   1.506 -0.8282  0.1562 -1.5853
  826SOL    HW3 3358   1.997   1.312   1.391 -0.6190 -1.6971 -0.0023
  826SOL    MW4 3359   1.993   1.329   1.477 -0.0927 -0.3542 -0.2307
  827SOL     OW 3360   2.027   1.594   1.593  0.0511 -0.4446  0.0340
  827SOL    HW2 3361   2.110   1.630   1.563 -0.8836  0.4450 -1.5100
  827SOL    HW3 3362   1.960   1.649   1.552 -1.3395 -2.0890  0.0482
  827SOL    MW4 3363   2.029   1.606   1.584 -0.2556 -0.5442 -0.1677
  828SOL     OW 3364   1.797   1.710   1.478 -0.0192 -0.2162 -0.0674
  828SOL    HW2 3365   1.744   1.646   1.526  1.2036 -0.9058  0.3832
  828SOL    HW3 3366   1.775   1.695   1.386 -2.5600  1.2765  0.2324
  828SOL    MW4 3367   1.787   1.699   1.472 -0.1930 -0.1103  0.0316
  829SOL     OW 3368   1.750   1.962   1.607  0.0597 -0.1769 -0.0084
  829SOL    HW2 3369   1.744   1.877   1.564 -1.7220 -1.5425  2.8172
  829SOL    HW3 3370   1.671   2.009   1.578  0.7372  0.3124 -1.0925
  829SOL    MW4 3371   1.738   1.957   1.598 -0.0859 -0.2927  0.2214
  830SOL     OW 3372   1.996   2.069   1.474 -0.4300  0.0566 -0.5061
  830SOL    HW2 3373   2.055   2.023   1.533 -0.4985  1.2660  0.5037
  830SOL    HW3 3374   1.909   2.033   1.494 -0.3601 -0.0447 -0.3833
  830SOL    MW4 3375   1.992   2.058   1.484 -0.4300  0.2029 -0.3566
  831SOL     OW 3376   2.029   2.325   1.586  0.2301 -0.6377 -0.0828
  831SOL    HW2 3377   2.035   2.310   1.680 -0.2781  0.7749  0.1857
  831SOL    HW3 3378   2.011   2.238   1.549  0.2678 -1.1729  1.1333
  831SOL    MW4 3379   2.027   2.312   1.593  0.1681 -0.5219  0.1130
  832SOL     OW 3380   1.806   2.431   1.473 -0.2189  0.0370 -0.6836
  832SOL    HW2 3381   1.886   2.403   1.518 -0.7841  0.8616  0.8723
  832SOL    HW3 3382   1.822   2.411   1.381  1.8508  0.3267 -0.4144
  832SOL    MW4 3383   1.819   2.425   1.467 -0.0204  0.1841 -0.4429
  833SOL     OW 3384   1.823   2.697   1.562  0.4687  0.0795  0.2133
  833SOL    HW2 3385   1.909   2.722   1.529  0.9186 -0.3219  1.0620
  833SOL    HW3 3386   1.814   2.604   1.538  0.1648  0.1887 -0.0988
  833SOL    MW4 3387   1.833   2.688   1.555  0.4879  0.0408  0.2841
  834SOL     OW 3388   2.039   2.823   1.454 -0.1372  0.2384 -0.1932
  834SOL    HW2 3389   2.053   2.918   1.464  0.5480  0.2577 -1.1936
  834SOL    HW3 3390   2.024   2.811   1.360 -0.3365 -0.6374 -0.0536
  834SOL    MW4 3391   2.039   2.834   1.443 -0.0730  0.1254 -0.3068
  835SOL     OW 3392   2.044   3.090   1.545 -0.0788 -0.1009  0.0034
  835SOL    HW2 3393   2.037   3.080   1.640  1.2453 -1.4801 -0.0266
  835SOL    HW3 3394   2.118   3.149   1.532 -0.9916  1.0293 -0.1527
  835SOL    MW4 3395   2.053   3.097   1.556 -0.0250 -0.1340 -0.0211
  836SOL     OW 3396   1.836   3.221   1.422 -0.3436 -0.2868  0.2780
  836SOL    HW2 3397   1.832   3.295   1.483  0.4002  0.2554 -0.3206
  836SOL    HW3 3398   1.903   3.163   1.457 -1.1073 -0.8135  0.8873
  836SOL    MW4 3399   1.844   3.223   1.435 -0.3462 -0.2849  0.2794
  837SOL     OW 3400   1.787   3.447   1.580 -0.1874  0.1212  0.3180
  837SOL    HW2 3401   1.786   3.468   1.673 -1.6573 -0.0134  0.3428
  837SOL    HW3 3402   1.719   3.502   1.542  0.4278  0.2003 -0.6889
  837SOL    MW4 3403   1.778   3.457   1.587 -0.3002  0.1140  0.1885
  838SOL     OW 3404   2.011   3.588   1.501  0.3775 -0.1418  0.0177
  838SOL    HW2 3405   2.085   3.546   1.545 -0.0578 -0.7018  0.2232
  838SOL    HW3 3406   1.936   3.532   1.523 -0.1904  0.6972  0.2296
  838SOL    MW4 3407   2.011   3.575   1.510  0.2451 -0.1051  0.0730
  839SOL     OW 3408   2.046   3.849   1.626 -0.0002  0.4002 -0.3511
  839SOL    HW2 3409   2.131   3.886   1.605  0.0081  0.6356  0.0948
  839SOL    HW3 3410   2.039   3.771   1.570  1.5787 -1.0725  1.4167
  839SOL    MW4 3411   2.056   3.843   1.616  0.2091  0.2370 -0.0589
  840SOL     OW 3412   1.814   3.962   1.536  0.1856 -0.2962 -1.2326
  840SOL    HW2 3413   1.894   3.926   1.573 -0.5770 -0.4160  0.3316
  840SOL    HW3 3414   1.743   3.913   1.579 -0.7359  0.2380 -2.1266
  840SOL    MW4 3415   1.815   3.951   1.547 -0.0366 -0.2418 -1.1441
  841SOL     OW 3416   1.787   4.242   1.599  0.4011  0.2582 -0.1448
  841SOL    HW2 3417   1.855   4.296   1.559  0.8228 -0.4639 -0.4025
  841SOL    HW3 3418   1.824   4.154   1.601 -0.3584 -0.0577  0.1073
  841SOL    MW4 3419   1.801   4.238   1.594  0.3567  0.1211 -0.1454
  842SOL     OW 3420   2.016   4.356   1.501  0.0099  0.2823  0.0209
  842SOL    HW2 3421   2.091   4.304   1.529 -1.2544 -0.0843  2.9562
  842SOL    HW3 3422   2.026   4.440   1.547 -1.2864  0.2553  0.4027
  842SOL    MW4 3423   2.027   4.360   1.511 -0.3278  0.2303  0.4585
  843SOL     OW 3424   2.470   4.632   1.611  0.1252  0.0299  0.2177
  843SOL    HW2 3425   2.461   4.638   1.706  0.6035 -1.0930  0.3435
  843SOL    HW3 3426   2.407   4.696   1.577 -1.0269 -0.5211  1.2537
  843SOL    MW4 3427   2.461   4.641   1.619  0.0362 -0.1912  0.3710
  844SOL     OW 3428   2.251   0.120   1.545 -0.3425 -0.0026  0.1866
  844SOL    HW2 3429   2.181   0.069   1.585 -0.3771 -0.9434 -1.0547
  844SOL    HW3 3430   2.245   0.101   1.452 -1.0644  3.1328 -0.4587
  844SOL    MW4 3431   2.241   0.111   1.538 -0.4425  0.2869 -0.0622
  845SOL     OW 3432   2.255   0.367   1.655  0.0043  0.2510 -0.3121
  845SOL    HW2 3433   2.242   0.366   1.749  1.6299  0.6005 -0.0649
  845SOL    HW3 3434   2.240   0.277   1.627 -0.8152  0.2211  0.2249
  845SOL    MW4 3435   2.252   0.355   1.663  0.1106  0.2932 -0.2085
  846SOL     OW 3436   2.451   0.503   1.523  0.0890  0.2238  0.2032
  846SOL    HW2 3437   2.526   0.445   1.541  0.3690  0.8179  0.9803
  846SOL    HW3 3438   2.377   0.458   1.564  0.2823  0.3357  0.6859
  846SOL    MW4 3439   2.451   0.489   1.531  0.1514  0.3169  0.3694
  847SOL     OW 3440   2.460   0.781   1.642 -0.3881  0.3685  0.1582
  847SOL    HW2 3441   2.385   0.835   1.615  0.1395  1.2611  0.4749
  847SOL    HW3 3442   2.451   0.702   1.589 -0.5159  1.2472 -1.1742
  847SOL    MW4 3443   2.449   0.778   1.631 -0.3355  0.6022  0.0242
  848SOL     OW 3444   2.254   0.935   1.532 -0.9707 -0.0561 -0.5269
  848SOL    HW2 3445   2.217   1.017   1.564  0.6131  0.5315 -0.1668
  848SOL    HW3 3446   2.257   0.946   1.437  0.5103  0.8707 -0.3892
  848SOL    MW4 3447   2.250   0.947   1.524 -0.5667  0.1437 -0.4612
  849SOL     OW 3448   2.206   1.199   1.604  0.4512 -0.4275 -0.0034
  849SOL    HW2 3449   2.201   1.189   1.699  0.8247 -2.2242 -0.1721
  849SOL    HW3 3450   2.125   1.244   1.581 -0.9187 -2.3863  0.8687
  849SOL    MW4 3451   2.195   1.204   1.613  0.3197 -0.9229  0.0893
  850SOL     OW 3452   2.455   1.279   1.513 -0.0633  0.0903 -0.0259
  850SOL    HW2 3453   2.367   1.248   1.535 -0.0347 -0.1122 -0.1917
  850SOL    HW3 3454   2.452   1.295   1.419 -0.3659  1.5590  0.2287
  850SOL    MW4 3455   2.443   1.277   1.504 -0.0994  0.2575 -0.0141
  851SOL     OW 3456   2.468   1.555   1.565 -0.2538  0.1164  0.1364
  851SOL    HW2 3457   2.547   1.592   1.525 -0.4462 -0.6774 -0.9918
  851SOL    HW3 3458   2.471   1.462   1.544 -0.8245 -0.1611  1.2244
  851SOL    MW4 3459   2.479   1.548   1.557 -0.3545 -0.0249  0.1310
  852SOL     OW 3460   2.246   1.682   1.468 -0.0079  0.1085  0.2179
  852SOL    HW2 3461   2.330   1.637   1.477 -0.9507 -1.9890 -0.9847
  852SOL    HW3 3462   2.236   1.696   1.374 -0.4662  1.3896  0.4509
  852SOL    MW4 3463   2.255   1.678   1.457 -0.1926  0.0008  0.0899
  853SOL     OW 3464   2.213   1.944   1.578  0.1803  0.1125  0.0857
  853SOL    HW2 3465   2.230   1.943   1.672  0.3042 -0.2857  0.0619
  853SOL    HW3 3466   2.245   1.859   1.547 -0.8804 -0.2200 -0.1335
  853SOL    MW4 3467   2.219   1.933   1.586  0.0567  0.0161  0.0536
  854SOL     OW 3468   2.467   2.041   1.501 -0.5682 -0.1155  0.1105
  854SOL    HW2 3469   2.376   2.019   1.521 -1.4825  2.1765 -1.3538
  854SOL    HW3 3470   2.472   2.040   1.406  0.8632  0.1569  0.1683
  854SOL    MW4 3471   2.456   2.038   1.491 -0.5000  0.2229 -0.0751
  855SOL     OW 3472   2.490   2.314   1.585  0.2874 -0.1422 -0.5941
  855SOL    HW2 3473   2.466   2.322   1.677 -0.1495  0.9726 -0.7972
  855SOL    HW3 3474   2.468   2.224   1.562 -0.5227 -0.1332  0.1229
  855SOL    MW4 3475   2.484   2.303   1.594  0.1230  0.0060 -0.5261
  856SOL     OW 3476   2.257   2.433   1.446  0.2501  0.8576 -0.1519
  856SOL    HW2 3477   2.333   2.396   1.491  0.1414  0.8551  0.0285
  856SOL    HW3 3478   2.182   2.399   1.494  0.0479 -1.1396 -1.8373
  856SOL    MW4 3479   2.257   2.424   1.458  0.2089  0.5934 -0.3504
  857SOL     OW 3480   2.255   2.672   1.576 -0.1354 -0.1515 -0.1328
  857SOL    HW2 3481   2.250   2.590   1.527  0.0337 -0.0529 -0.3193
  857SOL    HW3 3482   2.176   2.720   1.551 -0.1169 -0.1591 -0.2059
  857SOL    MW4 3483   2.244   2.668   1.566 -0.1106 -0.1395 -0.1671
  858SOL     OW 3484   2.469   2.837   1.484 -0.2651 -0.1306  0.1930
  858SOL    HW2 3485   2.479   2.914   1.540  0.4199 -0.4310  0.4974
  858SOL    HW3 3486   2.392   2.791   1.519  1.1158 -1.1872  1.9658
  858SOL    MW4 3487   2.460   2.841   1.496  0.0076 -0.3099  0.4671
  859SOL     OW 3488   2.489   3.073   1.612 -0.8179 -0.6149  0.2585
  859SOL    HW2 3489   2.559   3.137   1.597 -0.7437 -0.3724  1.5811
  859SOL    HW3 3490   2.410   3.115   1.578 -0.9396  0.6031  1.9664
  859SOL    MW4 3491   2.488   3.087   1.606 -0.8242 -0.4220  0.6583
  860SOL     OW 3492   2.270   3.215   1.482  0.0328 -0.1322  0.3256
  860SOL    HW2 3493   2.259   3.306   1.510  1.4170  0.1666 -0.0692
  860SOL    HW3 3494   2.274   3.220   1.386  1.1698 -0.4786  0.3491
  860SOL    MW4 3495   2.269   3.228   1.473  0.3653 -0.1388  0.2764
  861SOL     OW 3496   2.268   3.470   1.609 -0.0179 -0.1187  0.4303
  861SOL    HW2 3497   2.271   3.496   1.701 -1.7682  1.4952  0.0650
  861SOL    HW3 3498   2.342   3.514   1.568 -0.2205  0.5098  0.7447
  861SOL    MW4 3499   2.278   3.479   1.616 -0.2756  0.1771  0.4236
  862SOL     OW 3500   2.500   3.590   1.505 -0.6706  0.1832 -0.0976
  862SOL    HW2 3501   2.575   3.555   1.553 -2.0163 -1.1243  1.1129
  862SOL    HW3 3502   2.502   3.684   1.525  0.1652  0.0286  0.6078
  862SOL    MW4 3503   2.510   3.598   1.514 -0.7379 -0.0095  0.1551
  863SOL     OW 3504   2.537   3.870   1.598 -0.4098 -0.1231 -0.5290
  863SOL    HW2 3505   2.529   3.874   1.694 -1.0819 -1.5060 -0.5042
  863SOL    HW3 3506   2.612   3.925   1.578 -0.1184  0.0038  0.8271
  863SOL    MW4 3507   2.546   3.878   1.608 -0.4599 -0.2887 -0.3469
  864SOL     OW 3508   2.281   3.958   1.529 -0.2146 -0.2346  0.5981
  864SOL    HW2 3509   2.367   3.920   1.549  0.1799  0.8097  0.8997
  864SOL    HW3 3510   2.280   3.967   1.434  0.0745 -0.0987  0.6074
  864SOL    MW4 3511   2.293   3.954   1.519 -0.1245 -0.0789  0.6392
  865SOL     OW 3512   2.236   4.235   1.599 -0.2827 -0.1302  0.0742
  865SOL    HW2 3513   2.319   4.279   1.580 -0.0232 -0.8527 -0.4739
  865SOL    HW3 3514   2.252   4.143   1.577 -1.3425 -0.2074 -0.4034
  865SOL    MW4 3515   2.249   4.229   1.593 -0.3881 -0.2356 -0.0612
  866SOL     OW 3516   2.481   4.369   1.539  0.0090  0.1387 -0.4472
  866SOL    HW2 3517   2.479   4.460   1.569  0.5980  0.2318 -0.6851
  866SOL    HW3 3518   2.473   4.375   1.444  1.2932  0.0068 -0.5665
  866SOL    MW4 3519   2.480   4.382   1.530  0.2561  0.1335 -0.4942
  867SOL     OW 3520   2.937   0.000   1.607  0.3286  0.2934  0.0282
  867SOL    HW2 3521   2.930   0.001   1.702  1.4533 -1.0197  0.1291
  867SOL    HW3 3522   2.858   0.044   1.577 -0.1552  0.4938  1.5606
  867SOL    MW4 3523   2.926   0.006   1.615  0.4129  0.1469  0.2437
  868SOL     OW 3524   2.702   0.078   1.520 -0.3965  0.2597  0.2305
  868SOL    HW2 3525   2.692   0.173   1.524 -1.7725  0.1224  0.2667
  868SOL    HW3 3526   2.618   0.044   1.552 -0.0496 -0.9617 -0.1490
  868SOL    MW4 3527   2.690   0.086   1.525 -0.5322  0.0804  0.1851
  869SOL     OW 3528   2.681   0.341   1.553  0.3739  0.3545  0.1609
  869SOL    HW2 3529   2.699   0.338   1.647 -0.4914 -0.6506  0.3011
  869SOL    HW3 3530   2.740   0.409   1.520  1.2920  0.1364  1.2916
  869SOL    MW4 3531   2.691   0.349   1.561  0.3810  0.1931  0.3287
  870SOL     OW 3532   2.895   0.520   1.494 -0.2625  0.4013 -0.0426
  870SOL    HW2 3533   2.893   0.601   1.546  1.2250  1.2180 -1.2145
  870SOL    HW3 3534   2.900   0.550   1.403 -0.2783 -1.0174 -0.5156
  870SOL    MW4 3535   2.895   0.535   1.489 -0.0682  0.3220 -0.2596
  871SOL     OW 3536   2.905   0.748   1.660  0.0516  0.2271  0.1107
  871SOL    HW2 3537   2.915   0.769   1.753  0.9381 -1.2802  0.3629
  871SOL    HW3 3538   2.834   0.805   1.631 -0.3709  0.5751  1.7526
  871SOL    MW4 3539   2.897   0.759   1.668  0.1128  0.0741  0.3606
  872SOL     OW 3540   2.691   0.897   1.546  0.7000  0.3927  0.1480
  872SOL    HW2 3541   2.607   0.861   1.573  0.8920 -0.4251 -0.3288
  872SOL    HW3 3542   2.689   0.895   1.451  1.6394 -0.5488  0.1343
  872SOL    MW4 3543   2.680   0.892   1.537  0.8492  0.1606  0.0832
  873SOL     OW 3544   2.678   1.175   1.587 -0.2625  0.0980 -0.0816
  873SOL    HW2 3545   2.656   1.082   1.577  1.3797 -0.2274 -0.9931
  873SOL    HW3 3546   2.599   1.221   1.562 -1.0085 -1.0597  0.0919
  873SOL    MW4 3547   2.665   1.169   1.582 -0.1440 -0.0975 -0.1791
  874SOL     OW 3548   2.909   1.300   1.500 -0.1866 -0.6536 -0.1202
  874SOL    HW2 3549   2.979   1.251   1.542 -0.6005 -0.5971  0.6516
  874SOL    HW3 3550   2.829   1.265   1.538 -0.6478 -1.5347 -1.8648
  874SOL    MW4 3551   2.908   1.289   1.511 -0.3021 -0.7623 -0.2484
  875SOL     OW 3552   2.896   1.552   1.631  0.0067  0.1302 -0.2001
  875SOL    HW2 3553   2.819   1.597   1.596 -0.8625 -0.6449  0.7131
  875SOL    HW3 3554   2.890   1.463   1.596  0.4427  0.0372 -0.0492
  875SOL    MW4 3555   2.885   1.546   1.621 -0.0505  0.0157 -0.0597
  876SOL     OW 3556   2.708   1.683   1.492 -0.0093 -0.2674  0.3346
  876SOL    HW2 3557   2.718   1.768   1.534 -1.0060 -0.3660  0.7933
  876SOL    HW3 3558   2.708   1.702   1.398  1.9575 -0.0188  0.3682
  876SOL    MW4 3559   2.709   1.696   1.485  0.1190 -0.2476  0.3995
  877SOL     OW 3560   2.709   1.949   1.610  0.4253 -0.2118  0.0014
  877SOL    HW2 3561   2.707   1.936   1.704 -1.1214 -2.6505 -0.3414
  877SOL    HW3 3562   2.624   1.989   1.589  1.1361  1.2168 -0.2735
  877SOL    MW4 3563   2.698   1.953   1.619  0.3152 -0.3450 -0.0800
  878SOL     OW 3564   2.936   2.050   1.475  0.0405  0.0498 -0.2237
  878SOL    HW2 3565   2.936   2.145   1.486 -0.0165  0.3242 -2.3625
  878SOL    HW3 3566   2.864   2.020   1.531 -0.7200  1.3862 -0.4657
  878SOL    MW4 3567   2.926   2.059   1.484 -0.0675  0.2623 -0.5376
  879SOL     OW 3568   2.919   2.303   1.585 -0.0917 -0.7276  0.0604
  879SOL    HW2 3569   2.914   2.290   1.680  1.8100  0.0657  0.2933
  879SOL    HW3 3570   2.841   2.354   1.564  0.6299  1.0597  1.5764
  879SOL    MW4 3571   2.908   2.308   1.595  0.2544 -0.3872  0.2911
  880SOL     OW 3572   2.694   2.453   1.495  0.4867  0.1343 -0.3683
  880SOL    HW2 3573   2.673   2.533   1.543  1.7100  0.2451 -0.0086
  880SOL    HW3 3574   2.626   2.391   1.521 -0.0813  0.8512 -0.1359
  880SOL    MW4 3575   2.682   2.456   1.504  0.5732  0.2437 -0.2902
  881SOL     OW 3576   2.668   2.701   1.625  0.5165  0.2557  0.5214
  881SOL    HW2 3577   2.740   2.751   1.588  0.4854  1.2907  1.8344
  881SOL    HW3 3578   2.590   2.738   1.584  0.6918 -0.7208 -0.7353
  881SOL    MW4 3579   2.667   2.712   1.614  0.5355  0.2632  0.5289
  882SOL     OW 3580   2.883   2.829   1.519  0.5043 -0.1383 -0.1483
  882SOL    HW2 3581   2.961   2.785   1.552 -0.4986 -1.0606  1.0103
  882SOL    HW3 3582   2.890   2.918   1.553  1.4259  0.0157 -0.6971
  882SOL    MW4 3583   2.895   2.835   1.528  0.4935 -0.2401 -0.0679
  883SOL     OW 3584   2.892   3.087   1.622 -0.0881  0.4126 -0.0143
  883SOL    HW2 3585   2.905   3.084   1.717  0.3015  0.0381 -0.0752
  883SOL    HW3 3586   2.977   3.116   1.588  0.3836 -1.3739 -0.3844
  883SOL    MW4 3587   2.905   3.091   1.631  0.0255  0.1276 -0.0713
  884SOL     OW 3588   2.696   3.249   1.520 -0.1437  0.0014  0.0910
  884SOL    HW2 3589   2.767   3.191   1.549  0.4696  1.1626  0.9618
  884SOL    HW3 3590   2.681   3.225   1.428 -0.4455 -2.0657  0.6646
  884SOL    MW4 3591   2.704   3.238   1.512 -0.1028 -0.1185  0.2816
  885SOL     OW 3592   2.715   3.491   1.652  0.3826 -0.5744  0.3195
  885SOL    HW2 3593   2.720   3.495   1.748  0.2489 -0.6331  0.3295
  885SOL    HW3 3594   2.720   3.397   1.632 -0.4078 -0.6166  0.3167
  885SOL    MW4 3595   2.716   3.479   1.662  0.2606 -0.5875  0.3204
  886SOL     OW 3596   2.930   3.581   1.499 -0.3333  0.0032  0.8050
  886SOL    HW2 3597   2.850   3.557   1.544 -1.0978 -0.7405 -0.8932
  886SOL    HW3 3598   2.905   3.585   1.406  1.7038 -0.7991  0.1968
  886SOL    MW4 3599   2.916   3.579   1.493 -0.1655 -0.2007  0.5008
  887SOL     OW 3600   2.958   3.838   1.599 -0.1563 -0.1054  0.1631
  887SOL    HW2 3601   2.898   3.894   1.550  2.2672  1.1799 -1.4506
  887SOL    HW3 3602   2.940   3.750   1.566 -0.7028  0.3431 -0.7564
  887SOL    MW4 3603   2.948   3.834   1.588  0.0913  0.1235 -0.1712
  888SOL     OW 3604   2.772   4.019   1.513  0.3242 -0.4259 -0.1037
  888SOL    HW2 3605   2.757   4.103   1.557  1.2816 -0.2472 -0.1095
  888SOL    HW3 3606   2.744   4.034   1.423 -0.1086 -0.3076  0.0475
  888SOL    MW4 3607   2.766   4.032   1.507  0.3934 -0.3867 -0.0845
  889SOL     OW 3608   2.714   4.263   1.649 -0.1157 -0.1118  0.0886
  889SOL    HW2 3609   2.775   4.328   1.612  0.0102  0.6476  1.5751
  889SOL    HW3 3610   2.630   4.286   1.611  0.1990 -0.0104 -0.5584
  889SOL    MW4 3611   2.711   4.275   1.640 -0.0577  0.0019  0.1993
  890SOL     OW 3612   2.910   4.412   1.525  0.1142  0.0371  0.4521
  890SOL    HW2 3613   2.909   4.504   1.551 -0.3978 -0.0266  0.6639
  890SOL    HW3 3614   2.903   4.415   1.429 -0.3365  0.2085  0.4886
  890SOL    MW4 3615   2.909   4.425   1.516 -0.0129  0.0515  0.4847
  891SOL     OW 3616   3.356   0.016   1.612  0.0105  0.1320 -0.0030
  891SOL    HW2 3617   3.437   0.055   1.578  0.7432 -0.7196  0.7222
  891SOL    HW3 3618   3.364  -0.077   1.593 -1.7102  0.2969 -1.6690
  891SOL    MW4 3619   3.368   0.009   1.605 -0.1199  0.0415 -0.1272
  892SOL     OW 3620   3.156   0.144   1.480  0.4700 -0.1083 -0.1515
  892SOL    HW2 3621   3.226   0.103   1.531 -0.2840 -0.5932  0.5224
  892SOL    HW3 3622   3.076   0.098   1.509 -0.1603  0.6506 -0.6699
  892SOL    MW4 3623   3.154   0.132   1.491  0.2875 -0.0721 -0.1310
  893SOL     OW 3624   3.129   0.402   1.588  0.4019  0.4102  0.3989
  893SOL    HW2 3625   3.127   0.318   1.543  0.0453 -0.1803  1.4995
  893SOL    HW3 3626   3.047   0.445   1.565 -0.0613 -0.1593  1.0070
  893SOL    MW4 3627   3.118   0.397   1.579  0.2937  0.2571  0.6243
  894SOL     OW 3628   3.352   0.548   1.536 -0.2746  0.3197  0.0189
  894SOL    HW2 3629   3.277   0.490   1.550  1.4768 -1.5501  2.0961
  894SOL    HW3 3630   3.362   0.551   1.441 -1.8317 -0.8932 -0.2141
  894SOL    MW4 3631   3.343   0.541   1.526 -0.2487 -0.0870  0.2623
  895SOL     OW 3632   3.384   0.803   1.654  0.2094 -0.1993  0.6530
  895SOL    HW2 3633   3.388   0.790   1.749 -0.5890 -1.1899  0.5645
  895SOL    HW3 3634   3.381   0.714   1.618 -2.4791  0.1815 -0.1473
  895SOL    MW4 3635   3.384   0.790   1.662 -0.2508 -0.2797  0.5357
  896SOL     OW 3636   3.127   0.915   1.574 -0.4725 -0.1486  0.2709
  896SOL    HW2 3637   3.204   0.896   1.628 -0.2127  2.3419  0.8341
  896SOL    HW3 3638   3.061   0.852   1.604  0.3841 -0.2960  1.9288
  896SOL    MW4 3639   3.128   0.904   1.585 -0.3252  0.1605  0.5639
  897SOL     OW 3640   3.139   1.193   1.631  0.3004 -0.0058  0.4351
  897SOL    HW2 3641   3.120   1.181   1.724  0.0479  0.5134  0.4556
  897SOL    HW3 3642   3.143   1.104   1.595 -1.4804 -0.1693  0.5753
  897SOL    MW4 3643   3.137   1.180   1.638  0.0319  0.0411  0.4563
  898SOL     OW 3644   3.378   1.283   1.549  0.1953 -0.1728 -0.2702
  898SOL    HW2 3645   3.296   1.255   1.590 -0.9102 -0.2849 -2.4250
  898SOL    HW3 3646   3.445   1.227   1.588 -1.4473 -3.3742 -1.8105
  898SOL    MW4 3647   3.376   1.272   1.559 -0.1669 -0.6099 -0.7576
  899SOL     OW 3648   3.364   1.548   1.640 -0.1798 -0.4366  0.6413
  899SOL    HW2 3649   3.346   1.538   1.734 -1.0792 -0.5415  0.4634
  899SOL    HW3 3650   3.376   1.459   1.608 -2.6611 -0.6137  0.1272
  899SOL    MW4 3651   3.363   1.535   1.648 -0.6258 -0.4737  0.5500
  900SOL     OW 3652   3.131   1.669   1.528 -0.1979 -0.4495  0.1060
  900SOL    HW2 3653   3.205   1.620   1.564 -0.3898 -1.2469 -0.5666
  900SOL    HW3 3654   3.054   1.625   1.565 -0.3937 -1.2023 -1.1805
  900SOL    MW4 3655   3.130   1.657   1.538 -0.2487 -0.6541 -0.1525
  901SOL     OW 3656   3.153   1.941   1.590  0.2166 -0.7989 -0.5793
  901SOL    HW2 3657   3.147   1.846   1.575  0.1069 -0.6685 -1.3700
  901SOL    HW3 3658   3.077   1.977   1.543 -0.0285 -0.3664  0.1436
  901SOL    MW4 3659   3.142   1.933   1.582  0.1698 -0.7247 -0.5883
  902SOL     OW 3660   3.382   2.051   1.495  0.1612  0.0807 -0.3124
  902SOL    HW2 3661   3.301   2.004   1.515  0.4340 -0.3005 -0.0883
  902SOL    HW3 3662   3.384   2.057   1.400 -0.3792  0.5299 -0.2931
  902SOL    MW4 3663   3.372   2.045   1.485  0.1259  0.0896 -0.2803
  903SOL     OW 3664   3.361   2.307   1.606  0.7237  0.1771  0.1231
  903SOL    HW2 3665   3.436   2.361   1.579  1.7556 -1.2387  0.0974
  903SOL    HW3 3666   3.377   2.222   1.565 -0.5845 -0.3253  0.6426
  903SOL    MW4 3667   3.373   2.303   1.597  0.6871 -0.0758  0.1882
  904SOL     OW 3668   3.134   2.466   1.507 -0.1748  0.1855  0.1310
  904SOL    HW2 3669   3.206   2.410   1.535 -0.0334  0.0168 -0.5799
  904SOL    HW3 3670   3.055   2.422   1.538 -0.0056  0.1054  0.4504
  904SOL    MW4 3671   3.133   2.453   1.515 -0.1340  0.1523  0.0794
  905SOL     OW 3672   3.151   2.735   1.587 -0.4831 -0.0278 -0.2717
  905SOL    HW2 3673   3.236   2.772   1.562 -1.2784  1.3404 -0.9884
  905SOL    HW3 3674   3.158   2.643   1.564  0.7097  0.1348 -0.6037
  905SOL    MW4 3675   3.163   2.728   1.581 -0.4308  0.1740 -0.4101
  906SOL     OW 3676   3.403   2.837   1.493  0.0544 -0.4845 -0.2380
  906SOL    HW2 3677   3.405   2.930   1.515 -0.5433 -0.8018  1.2176
  906SOL    HW3 3678   3.395   2.835   1.397  0.0690  0.9547 -0.2790
  906SOL    MW4 3679   3.402   2.849   1.483 -0.0224 -0.3362 -0.0513
  907SOL     OW 3680   3.334   3.085   1.602 -0.0489  0.2951 -0.6327
  907SOL    HW2 3681   3.361   3.064   1.692 -2.4574 -0.6048 -0.1011
  907SOL    HW3 3682   3.407   3.137   1.567  1.0206  0.4534  1.7494
  907SOL    MW4 3683   3.347   3.089   1.609 -0.2255  0.1974 -0.2483
  908SOL     OW 3684   3.118   3.194   1.480  0.0024  0.0010  0.3815
  908SOL    HW2 3685   3.197   3.154   1.517  0.2116  0.4649  0.4314
  908SOL    HW3 3686   3.130   3.188   1.385 -0.4478 -1.0170  0.3802
  908SOL    MW4 3687   3.130   3.188   1.473 -0.0293 -0.0718  0.3879
  909SOL     OW 3688   3.156   3.449   1.586 -0.2939 -0.3048 -0.0934
  909SOL    HW2 3689   3.142   3.360   1.553 -1.0210 -0.4836  0.6846
  909SOL    HW3 3690   3.078   3.497   1.560 -0.4632 -0.2156  0.5716
  909SOL    MW4 3691   3.144   3.443   1.578 -0.4122 -0.3166  0.0970
  910SOL     OW 3692   3.387   3.609   1.508 -0.4796 -0.2550  0.3196
  910SOL    HW2 3693   3.456   3.552   1.541  0.0554  0.1773 -0.0441
  910SOL    HW3 3694   3.305   3.562   1.526 -0.0743 -0.8856  0.5018
  910SOL    MW4 3695   3.385   3.596   1.515 -0.3555 -0.2813  0.2955
  911SOL     OW 3696   3.415   3.870   1.609 -0.4842  0.0530 -0.3043
  911SOL    HW2 3697   3.331   3.908   1.583 -0.2107  0.0349 -1.2384
  911SOL    HW3 3698   3.408   3.777   1.584  0.2526  0.3065 -1.4747
  911SOL    MW4 3699   3.403   3.862   1.602 -0.3507  0.0842 -0.5820
  912SOL     OW 3700   3.175   3.995   1.541 -0.3384  0.4381 -0.0021
  912SOL    HW2 3701   3.152   4.086   1.561 -0.0976  0.4156  0.3804
  912SOL    HW3 3702   3.094   3.946   1.551 -0.3710  0.5396  0.2229
  912SOL    MW4 3703   3.161   4.001   1.545 -0.3109  0.4482  0.0782
  913SOL     OW 3704   3.142   4.275   1.584 -0.4283 -0.0812  0.2231
  913SOL    HW2 3705   3.150   4.265   1.679 -0.3620  1.2292  0.3652
  913SOL    HW3 3706   3.069   4.337   1.573 -0.6380 -0.4665 -0.5917
  913SOL    MW4 3707   3.133   4.282   1.595 -0.4470  0.0405  0.1342
  914SOL     OW 3708   3.376   4.408   1.497  0.1870 -0.3099  0.0341
  914SOL    HW2 3709   3.292   4.366   1.511 -0.4541  1.2388  0.9477
  914SOL    HW3 3710   3.385   4.414   1.402 -0.5015 -0.9258 -0.0668
  914SOL    MW4 3711   3.366   4.403   1.486  0.0119 -0.1869  0.1413
  915SOL     OW 3712   3.802   4.646   1.586 -0.1365  0.1714 -0.2331
  915SOL    HW2 3713   3.802   4.639   1.681 -2.9240  0.1600 -0.2053
  915SOL    HW3 3714   3.891   4.674   1.564  0.1059  1.6963  2.4830
  915SOL    MW4 3715   3.814   4.649   1.595 -0.4721  0.3705  0.1290
  916SOL     OW 3716   3.588   0.132   1.503  0.1307  0.0001 -0.4893
  916SOL    HW2 3717   3.657   0.074   1.534 -0.4411 -0.1771  0.4700
  916SOL    HW3 3718   3.598   0.132   1.407  0.6917 -0.9747 -0.4404
  916SOL    MW4 3719   3.598   0.124   1.494  0.1290 -0.1519 -0.3563
  917SOL     OW 3720   3.562   0.385   1.625 -0.3954 -0.5776 -0.0897
  917SOL    HW2 3721   3.556   0.300   1.581 -0.0759 -1.7130  1.9900
  917SOL    HW3 3722   3.488   0.435   1.591 -0.6192 -1.6906 -1.2979
  917SOL    MW4 3723   3.552   0.380   1.614 -0.3827 -0.8742  0.0252
  918SOL     OW 3724   3.803   0.501   1.517  0.1998  0.6758  0.1774
  918SOL    HW2 3725   3.718   0.470   1.550 -1.1747  1.7772 -2.2289
  918SOL    HW3 3726   3.798   0.488   1.422  2.4769  1.3625 -0.0558
  918SOL    MW4 3727   3.791   0.495   1.509  0.3190  0.9118 -0.1708
  919SOL     OW 3728   3.825   0.784   1.601  0.0687 -0.1724 -0.2442
  919SOL    HW2 3729   3.748   0.835   1.574  0.0718 -0.4929 -0.8587
  919SOL    HW3 3730   3.809   0.696   1.566 -0.3324 -0.8200  1.5312
  919SOL    MW4 3731   3.812   0.779   1.593  0.0162 -0.3002 -0.0911
  920SOL     OW 3732   3.608   0.929   1.519 -0.0632 -0.3777  0.0772
  920SOL    HW2 3733   3.529   0.900   1.565 -0.2961 -0.0787 -0.1319
  920SOL    HW3 3734   3.592   0.906   1.427 -0.2697  0.4559 -0.0980
  920SOL    MW4 3735   3.596   0.922   1.513 -0.1214 -0.2282  0.0265
  921SOL     OW 3736   3.615   1.182   1.661 -0.1946 -0.3059  0.5858
  921SOL    HW2 3737   3.686   1.228   1.616 -0.4534  0.2641  0.7577
  921SOL    HW3 3738   3.605   1.101   1.612  0.2121 -0.1461  0.2297
  921SOL    MW4 3739   3.623   1.178   1.648 -0.1750 -0.2096  0.5615
  922SOL     OW 3740   3.810   1.320   1.493  0.0829 -0.2598  0.3633
  922SOL    HW2 3741   3.881   1.265   1.528  0.4000  0.9416  1.6617
  922SOL    HW3 3742   3.814   1.400   1.546 -0.7096  0.7992 -1.1595
  922SOL    MW4 3743   3.820   1.323   1.505  0.0203  0.0384  0.3335
  923SOL     OW 3744   3.821   1.553   1.625  0.0238  0.3618  0.1227
  923SOL    HW2 3745   3.823   1.541   1.720  1.0770  0.4604  0.1172
  923SOL    HW3 3746   3.736   1.593   1.608 -0.1396  0.4115  1.0332
  923SOL    MW4 3747   3.810   1.557   1.635  0.1414  0.3815  0.2421
  924SOL     OW 3748   3.593   1.678   1.537 -0.1275  0.2259  0.2758
  924SOL    HW2 3749   3.511   1.641   1.570  0.2683 -1.6279 -0.7613
  924SOL    HW3 3750   3.581   1.683   1.442  1.1255 -0.5126  0.0728
  924SOL    MW4 3751   3.581   1.674   1.529  0.0901 -0.1161  0.1121
  925SOL     OW 3752   3.615   1.933   1.625 -0.1534 -0.0740  0.3120
  925SOL    HW2 3753   3.611   1.846   1.586  0.3564  0.6056 -1.3263
  925SOL    HW3 3754   3.533   1.975   1.596 -0.5735 -0.1222  1.4013
  925SOL    MW4 3755   3.603   1.927   1.616 -0.1419  0.0093  0.2396
  926SOL     OW 3756   3.861   2.053   1.547 -0.3508 -0.1229 -0.1130
  926SOL    HW2 3757   3.854   2.148   1.556 -3.3076 -0.1999 -1.0910
  926SOL    HW3 3758   3.787   2.018   1.597 -0.1534 -1.8431 -0.9614
  926SOL    MW4 3759   3.850   2.061   1.555 -0.7150 -0.3603 -0.3539
  927SOL     OW 3760   3.813   2.328   1.615 -0.4603 -0.3893 -0.3924
  927SOL    HW2 3761   3.831   2.327   1.709  0.3082 -1.8463 -0.5385
  927SOL    HW3 3762   3.892   2.365   1.576 -1.5731  2.1773 -0.3480
  927SOL    MW4 3763   3.825   2.333   1.622 -0.5057 -0.2432 -0.4058
  928SOL     OW 3764   3.582   2.436   1.501 -0.0515 -0.5515 -0.0485
  928SOL    HW2 3765   3.607   2.525   1.528 -0.1135 -0.3926 -0.5117
  928SOL    HW3 3766   3.656   2.382   1.525  0.8328 -0.0498 -1.6149
  928SOL    MW4 3767   3.595   2.441   1.508  0.0572 -0.4644 -0.3163
  929SOL     OW 3768   3.622   2.698   1.604  0.1904 -0.0316 -0.8531
  929SOL    HW2 3769   3.614   2.699   1.700 -1.6676 -0.4003 -0.9737
  929SOL    HW3 3770   3.547   2.750   1.574  1.0155  0.4519 -2.1024
  929SOL    MW4 3771   3.611   2.705   1.613  0.0541 -0.0167 -1.0338
  930SOL     OW 3772   3.826   2.836   1.486 -0.2728  0.0909  0.2010
  930SOL    HW2 3773   3.907   2.789   1.508 -0.5137  0.1956  1.3714
  930SOL    HW3 3774   3.758   2.792   1.537 -0.6151  1.2383  0.7647
  930SOL    MW4 3775   3.828   2.824   1.496 -0.3500  0.2561  0.4297
  931SOL     OW 3776   3.816   3.081   1.605  0.3656  0.2559 -0.2413
  931SOL    HW2 3777   3.897   3.121   1.574  1.1662 -1.1134  0.0025
  931SOL    HW3 3778   3.813   2.996   1.561 -0.0408 -0.4299  1.0545
  931SOL    MW4 3779   3.827   3.075   1.595  0.4175 -0.0150 -0.0381
  932SOL     OW 3780   3.583   3.190   1.504  0.4567  0.1063 -0.0908
  932SOL    HW2 3781   3.666   3.146   1.520 -0.2876 -1.4537 -0.4699
  932SOL    HW3 3782   3.585   3.212   1.410 -0.0271 -0.9554 -0.3608
  932SOL    MW4 3783   3.594   3.187   1.493  0.2947 -0.2396 -0.1763
  933SOL     OW 3784   3.605   3.444   1.599  0.4005 -0.3304  0.0587
  933SOL    HW2 3785   3.688   3.480   1.570  0.5745 -0.3980  0.4710
  933SOL    HW3 3786   3.602   3.356   1.562  0.3120 -0.1672 -0.3233
  933SOL    MW4 3787   3.615   3.437   1.590  0.4117 -0.3178  0.0626
  934SOL     OW 3788   3.803   3.596   1.499 -0.0931  0.2212 -0.1953
  934SOL    HW2 3789   3.887   3.557   1.525  0.6226  0.0246 -2.7146
  934SOL    HW3 3790   3.806   3.684   1.536  0.3693 -0.4445  1.3990
  934SOL    MW4 3791   3.815   3.603   1.508  0.0622  0.1073 -0.3175
  935SOL     OW 3792   3.815   3.869   1.555 -0.8439  0.3871 -0.4040
  935SOL    HW2 3793   3.891   3.922   1.532 -0.0182  0.1141  1.6041
  935SOL    HW3 3794   3.740   3.919   1.522  0.1387  1.1579 -1.4904
  935SOL    MW4 3795   3.815   3.883   1.548 -0.6053  0.4528 -0.2823
  936SOL     OW 3796   3.587   4.014   1.467 -0.3824 -0.0319 -0.0370
  936SOL    HW2 3797   3.592   4.101   1.505 -3.4820 -0.0001  0.4312
  936SOL    HW3 3798   3.526   3.966   1.525  3.7867 -3.5610  1.6946
  936SOL    MW4 3799   3.579   4.019   1.480 -0.2413 -0.4935  0.2532
  937SOL     OW 3800   3.587   4.256   1.616  0.1915 -0.8290  0.0890
  937SOL    HW2 3801   3.562   4.232   1.705  1.4030  2.8941  1.5649
  937SOL    HW3 3802   3.520   4.318   1.588  0.5870 -0.8971 -1.0527
  937SOL    MW4 3803   3.575   4.261   1.624  0.4036 -0.3467  0.1330
  938SOL     OW 3804   3.830   4.379   1.515  0.2497 -0.2097  0.0297
  938SOL    HW2 3805   3.757   4.336   1.559 -0.4032  0.6567 -0.1910
  938SOL    HW3 3806   3.816   4.472   1.532 -0.2463  0.1895 -2.3574
  938SOL    MW4 3807   3.818   4.386   1.523  0.0982 -0.0420 -0.3142
  939SOL     OW 3808   4.311   4.650   1.598 -0.5928 -0.0733 -0.4456
  939SOL    HW2 3809   4.288   4.647   1.691 -1.1298 -0.0189 -0.5745
  939SOL    HW3 3810   4.320   4.558   1.572 -0.9703 -0.1080 -0.4651
  939SOL    MW4 3811   4.309   4.638   1.607 -0.7138 -0.0710 -0.4653
  940SOL     OW 3812   4.071   0.065   1.492  0.0142  0.1819  0.2525
  940SOL    HW2 3813   4.062   0.159   1.504  1.0143  0.1760  1.1797
  940SOL    HW3 3814   4.158   0.045   1.527 -0.0614 -1.0303 -0.2395
  940SOL    MW4 3815   4.081   0.075   1.499  0.1364  0.0212  0.3099
  941SOL     OW 3816   4.044   0.334   1.579 -0.2789 -0.1030  0.3547
  941SOL    HW2 3817   4.066   0.347   1.672  1.3817 -0.3749 -0.0026
  941SOL    HW3 3818   3.963   0.385   1.567 -1.0571 -0.8673  2.1840
  941SOL    MW4 3819   4.036   0.343   1.590 -0.1631 -0.2397  0.5488
  942SOL     OW 3820   4.261   0.502   1.486  0.4042 -0.5644  0.4592
  942SOL    HW2 3821   4.180   0.460   1.515  0.0695 -1.1422 -1.2438
  942SOL    HW3 3822   4.329   0.463   1.540 -0.3947 -0.3195  1.6744
  942SOL    MW4 3823   4.259   0.492   1.497  0.2546 -0.6084  0.3949
  943SOL     OW 3824   4.278   0.746   1.599  0.0379 -0.1561 -0.2860
  943SOL    HW2 3825   4.284   0.660   1.556  0.9150 -0.3085  0.1415
  943SOL    HW3 3826   4.348   0.798   1.560  1.1919 -0.4673  1.3442
  943SOL    MW4 3827   4.288   0.741   1.588  0.3061 -0.2173 -0.0145
  944SOL     OW 3828   4.060   0.900   1.507 -0.1715  0.4083 -0.3807
  944SOL    HW2 3829   4.122   0.834   1.537  0.0878  1.3122  1.0860
  944SOL    HW3 3830   3.974   0.865   1.532  0.0284  1.0528  1.2068
  944SOL    MW4 3831   4.057   0.886   1.514 -0.1106  0.6126  0.0223
  945SOL     OW 3832   4.038   1.159   1.591 -0.6215 -0.1412 -0.3464
  945SOL    HW2 3833   4.039   1.180   1.684  1.0013 -0.4633 -0.2737
  945SOL    HW3 3834   4.047   1.063   1.589  2.0520  0.0764 -0.8552
  945SOL    MW4 3835   4.039   1.149   1.603 -0.0544 -0.1551 -0.4040
  946SOL     OW 3836   4.255   1.215   1.431 -0.2200 -0.2291 -0.1514
  946SOL    HW2 3837   4.176   1.193   1.481 -0.2804 -0.6326 -0.4265
  946SOL    HW3 3838   4.327   1.192   1.490 -0.1883 -3.7738 -1.4361
  946SOL    MW4 3839   4.254   1.209   1.445 -0.2241 -0.7501 -0.3573
  947SOL     OW 3840   4.254   1.468   1.550 -0.6178 -0.4853 -0.1288
  947SOL    HW2 3841   4.248   1.378   1.517 -0.0513 -0.6285  0.1600
  947SOL    HW3 3842   4.341   1.498   1.524 -0.5289 -0.2695  0.4072
  947SOL    MW4 3843   4.264   1.460   1.542 -0.5312 -0.4759 -0.0200
  948SOL     OW 3844   4.034   1.636   1.468  0.2216  1.0174 -0.6391
  948SOL    HW2 3845   4.112   1.591   1.500 -1.0933 -0.9511 -0.0603
  948SOL    HW3 3846   3.962   1.596   1.518 -1.1736  2.5977 -1.3476
  948SOL    MW4 3847   4.035   1.625   1.479 -0.1359  0.9662 -0.6562
  949SOL     OW 3848   4.083   1.894   1.582  0.1314 -0.3242 -0.0247
  949SOL    HW2 3849   4.073   1.806   1.546  0.5666  0.2590 -1.6258
  949SOL    HW3 3850   4.003   1.940   1.558  0.4417  0.0791 -0.3116
  949SOL    MW4 3851   4.071   1.889   1.574  0.2303 -0.1942 -0.2739
  950SOL     OW 3852   4.319   2.068   1.542  0.2298  0.2146 -0.1064
  950SOL    HW2 3853   4.249   2.005   1.557  0.1999  0.5942  1.4020
  950SOL    HW3 3854   4.319   2.081   1.447  0.0888 -1.8551 -0.4072
  950SOL    MW4 3855   4.310   2.062   1.532  0.2074 -0.0083  0.0529
  951SOL     OW 3856   4.272   2.338   1.650 -0.0090 -0.9423  0.0781
  951SOL    HW2 3857   4.267   2.337   1.745 -0.6564  0.3945  0.0743
  951SOL    HW3 3858   4.272   2.246   1.625 -2.4339 -1.3218  1.2652
  951SOL    MW4 3859   4.271   2.326   1.659 -0.4148 -0.8159  0.2341
  952SOL     OW 3860   4.047   2.456   1.530  0.5030  0.1607  0.2741
  952SOL    HW2 3861   4.047   2.551   1.539 -1.0210  0.1593  0.3369
  952SOL    HW3 3862   4.114   2.427   1.592  0.0399  1.1026  1.2403
  952SOL    MW4 3863   4.056   2.465   1.539  0.2413  0.2844  0.4100
  953SOL     OW 3864   4.054   2.731   1.591 -0.4322 -0.3531 -0.2289
  953SOL    HW2 3865   4.039   2.745   1.685 -1.5579 -0.8045 -0.3315
  953SOL    HW3 3866   4.134   2.779   1.572 -0.5253  0.2429  0.8455
  953SOL    MW4 3867   4.062   2.739   1.601 -0.5922 -0.3340 -0.1007
  954SOL     OW 3868   4.274   2.877   1.516  0.0094  0.0274  0.0398
  954SOL    HW2 3869   4.283   2.966   1.549 -1.6466  0.4202 -0.5197
  954SOL    HW3 3870   4.271   2.887   1.420  0.0906 -0.6526 -0.0358
  954SOL    MW4 3871   4.275   2.890   1.507 -0.1984 -0.0105 -0.0441
  955SOL     OW 3872   4.296   3.141   1.643 -0.0274 -0.0289 -0.0351
  955SOL    HW2 3873   4.308   3.152   1.737 -0.0714 -1.6198  0.1601
  955SOL    HW3 3874   4.372   3.186   1.604 -0.4811  1.4154  0.7001
  955SOL    MW4 3875   4.308   3.149   1.650 -0.0935 -0.0484  0.0877
  956SOL     OW 3876   4.041   3.228   1.511 -0.2862  0.1293  0.0975
  956SOL    HW2 3877   4.045   3.315   1.550 -1.0165 -0.2060  0.9517
  956SOL    HW3 3878   4.109   3.178   1.556 -2.0390 -0.6460  1.9891
  956SOL    MW4 3879   4.050   3.233   1.522 -0.6137 -0.0172  0.4597
  957SOL     OW 3880   4.018   3.494   1.618  0.1033  0.6856 -0.6424
  957SOL    HW2 3881   4.017   3.494   1.714  1.6041 -1.0370 -0.5911
  957SOL    HW3 3882   4.100   3.537   1.594 -0.2305  1.0429 -1.1398
  957SOL    MW4 3883   4.029   3.499   1.628  0.2580  0.5052 -0.7013
  958SOL     OW 3884   4.246   3.607   1.529 -0.1146 -0.0607 -0.4716
  958SOL    HW2 3885   4.260   3.694   1.567 -0.6771  0.6223 -1.8042
  958SOL    HW3 3886   4.254   3.620   1.434  0.1949 -1.5366 -0.6611
  958SOL    MW4 3887   4.249   3.620   1.521 -0.1478 -0.1655 -0.6725
  959SOL     OW 3888   4.275   3.878   1.625  0.4552  0.0967  0.3999
  959SOL    HW2 3889   4.197   3.917   1.584 -0.2001 -0.0532  1.4710
  959SOL    HW3 3890   4.348   3.909   1.572 -0.0179  3.0382  1.3691
  959SOL    MW4 3891   4.274   3.887   1.613  0.3061  0.4652  0.6691
  960SOL     OW 3892   4.043   3.998   1.507 -0.0069 -0.0222  0.1434
  960SOL    HW2 3893   4.065   4.084   1.542 -0.7743 -0.1610  0.9911
  960SOL    HW3 3894   4.056   4.007   1.412  0.9814  0.6929  0.3387
  960SOL    MW4 3895   4.048   4.011   1.499  0.0229  0.0539  0.2810
  961SOL     OW 3896   4.109   4.248   1.602  0.2918 -0.0940 -0.2911
  961SOL    HW2 3897   4.113   4.237   1.697 -0.6813 -1.8584 -0.4323
  961SOL    HW3 3898   4.024   4.288   1.586  0.3094 -0.1208 -0.4504
  961SOL    MW4 3899   4.098   4.252   1.612  0.1655 -0.3300 -0.3307
  962SOL     OW 3900   4.332   4.405   1.472 -0.0110  0.2815  0.3626
  962SOL    HW2 3901   4.253   4.359   1.501  1.4246 -2.5738 -0.0834
  962SOL    HW3 3902   4.324   4.407   1.377 -0.2020  1.2538  0.3937
  962SOL    MW4 3903   4.321   4.400   1.463  0.1535  0.0324  0.3079
  963SOL     OW 3904   0.208   0.027   1.881 -0.0682  0.1754 -0.4024
  963SOL    HW2 3905   0.297   0.055   1.904 -0.0984  1.4433 -1.7289
  963SOL    HW3 3906   0.205   0.032   1.785 -1.5936  0.2537 -0.3701
  963SOL    MW4 3907   0.219   0.031   1.871 -0.2734  0.3529 -0.5732
  964SOL     OW 3908   4.472   0.125   1.990 -0.0316  0.0157 -0.0368
  964SOL    HW2 3909   4.482   0.217   1.966 -0.1285  0.2542  0.8154
  964SOL    HW3 3910   4.554   0.084   1.964 -0.2994  0.1795 -1.1574
  964SOL    MW4 3911   4.484   0.132   1.983 -0.0796  0.0688 -0.0722
  965SOL     OW 3912   0.004   0.391   1.880  0.4843 -0.0592 -0.5273
  965SOL    HW2 3913  -0.080   0.425   1.911  0.5298 -1.2009  0.8992
  965SOL    HW3 3914   0.070   0.440   1.930  0.5887 -1.0876  0.3535
  965SOL    MW4 3915   0.002   0.402   1.891  0.5045 -0.3455 -0.2228
  966SOL     OW 3916   0.209   0.510   2.025 -0.0662  0.4255  0.1281
  966SOL    HW2 3917   0.290   0.468   1.995  0.3434  1.2845  0.0307
  966SOL    HW3 3918   0.213   0.598   1.988 -0.3783  0.9325  1.2934
  966SOL    MW4 3919   0.220   0.516   2.016 -0.0533  0.6057  0.2692
  967SOL     OW 3920   0.246   0.745   1.895 -0.1465 -0.4058  0.4737
  967SOL    HW2 3921   0.315   0.804   1.924  0.7296 -0.6579 -1.0192
  967SOL    HW3 3922   0.244   0.755   1.800  0.9248 -3.6816  0.0149
  967SOL    MW4 3923   0.255   0.754   1.886  0.1104 -0.8713  0.2161
  968SOL     OW 3924   0.027   0.893   1.978 -0.3764  0.2676 -0.0253
  968SOL    HW2 3925  -0.053   0.858   1.938 -0.5769  1.4635 -0.7065
  968SOL    HW3 3926   0.098   0.842   1.939 -0.7808 -0.5530  0.3060
  968SOL    MW4 3927   0.026   0.882   1.967 -0.4562  0.3171 -0.0714
  969SOL     OW 3928   0.040   1.161   1.895 -0.0314 -0.0878 -0.1436
  969SOL    HW2 3929  -0.038   1.211   1.918  0.1128  0.5244 -0.9431
  969SOL    HW3 3930   0.021   1.072   1.923 -1.6554 -0.2659 -1.6926
  969SOL    MW4 3931   0.027   1.156   1.902 -0.2267 -0.0304 -0.4535
  970SOL     OW 3932   0.251   1.279   2.015 -0.3454 -0.4976  0.1671
  970SOL    HW2 3933   0.230   1.363   1.975  2.2221 -0.0055 -0.2353
  970SOL    HW3 3934   0.194   1.216   1.971  0.5434  0.4243 -2.3441
  970SOL    MW4 3935   0.240   1.282   2.004  0.1106 -0.3110 -0.2174
  971SOL     OW 3936   0.198   1.539   1.886  0.5378 -0.2224  0.2846
  971SOL    HW2 3937   0.268   1.573   1.942 -1.1748 -0.7844  2.8132
  971SOL    HW3 3938   0.124   1.598   1.901  0.2640  0.0895 -2.0215
  971SOL    MW4 3939   0.198   1.551   1.895  0.2757 -0.2555  0.3140
  972SOL     OW 3940   4.451   1.673   1.961  0.5808  0.1360 -0.3296
  972SOL    HW2 3941   4.432   1.658   2.053  0.8991  0.5275 -0.2046
  972SOL    HW3 3942   4.383   1.623   1.915 -0.2093  0.7764  0.1207
  972SOL    MW4 3943   4.439   1.664   1.967  0.5193  0.2722 -0.2538
  973SOL     OW 3944   0.040   1.934   1.863 -0.0094  0.1559  0.2798
  973SOL    HW2 3945  -0.012   2.003   1.903 -0.4530 -0.1917  0.3120
  973SOL    HW3 3946   0.008   1.853   1.905  1.1422  0.0176  0.9228
  973SOL    MW4 3947   0.029   1.932   1.874  0.0840  0.0917  0.3690
  974SOL     OW 3948   0.266   2.041   2.009 -0.0941  0.5416  0.1984
  974SOL    HW2 3949   0.265   2.135   1.990 -0.1677  0.5721  0.3563
  974SOL    HW3 3950   0.194   2.006   1.957  0.3901  0.4625 -0.4330
  974SOL    MW4 3951   0.257   2.049   1.999 -0.0399  0.5352  0.1359
  975SOL     OW 3952   0.286   2.312   1.913 -0.4556  0.2787  0.1598
  975SOL    HW2 3953   0.362   2.366   1.935 -0.3293  0.3744 -0.5115
  975SOL    HW3 3954   0.211   2.370   1.927 -0.3217  0.6252 -0.5415
  975SOL    MW4 3955   0.287   2.327   1.917 -0.4213  0.3369 -0.0213
  976SOL     OW 3956   0.029   2.455   1.986 -0.3555 -0.3369 -0.4527
  976SOL    HW2 3957   0.030   2.448   2.081  1.5836 -1.1893 -0.5206
  976SOL    HW3 3958   0.035   2.549   1.969  0.2117 -0.2362  0.2690
  976SOL    MW4 3959   0.030   2.466   1.996 -0.0248 -0.4361 -0.3663
  977SOL     OW 3960   0.022   2.713   1.907  0.1729 -0.0020 -0.0285
  977SOL    HW2 3961  -0.056   2.765   1.926 -1.1118 -2.0712  0.4660
  977SOL    HW3 3962   0.030   2.716   1.811  0.7455  1.9616  0.0557
  977SOL    MW4 3963   0.013   2.720   1.897  0.0792 -0.0157  0.0478
  978SOL     OW 3964   0.248   2.837   2.028  0.3167 -0.2283  0.2821
  978SOL    HW2 3965   0.247   2.923   1.987  1.4814  0.3420  1.4045
  978SOL    HW3 3966   0.173   2.792   1.991 -1.5449  1.9954  1.2101
  978SOL    MW4 3967   0.238   2.842   2.018  0.2248  0.1402  0.5524
  979SOL     OW 3968   0.233   3.068   1.888 -0.3893 -0.1426  0.0377
  979SOL    HW2 3969   0.303   3.125   1.919 -1.5902  0.4938  1.6012
  979SOL    HW3 3970   0.240   3.072   1.792  1.8128 -0.2462  0.1650
  979SOL    MW4 3971   0.243   3.076   1.879 -0.2572 -0.0722  0.2608
  980SOL     OW 3972   0.037   3.243   2.009  0.5481 -0.2383 -0.1893
  980SOL    HW2 3973  -0.048   3.209   1.985  0.3628  1.0218 -1.4130
  980SOL    HW3 3974   0.099   3.176   1.979  0.1667  0.2166 -2.1010
  980SOL    MW4 3975   0.034   3.230   2.002  0.4733 -0.0119 -0.6027
  981SOL     OW 3976   0.023   3.478   1.862  0.1599  0.2158 -0.2841
  981SOL    HW2 3977   0.089   3.537   1.899 -1.2145  0.8532  1.1835
  981SOL    HW3 3978   0.031   3.398   1.914  0.5581 -0.1433 -0.8814
  981SOL    MW4 3979   0.033   3.475   1.874  0.0311  0.2525 -0.1692
  982SOL     OW 3980   0.201   3.630   1.981 -0.1512 -0.5815 -0.0238
  982SOL    HW2 3981   0.212   3.608   2.073  0.5001  1.3439  0.3804
  982SOL    HW3 3982   0.278   3.594   1.937  1.3720  1.5789  0.7735
  982SOL    MW4 3983   0.212   3.622   1.987  0.1357 -0.0424  0.1348
  983SOL     OW 3984   0.223   3.894   1.850 -0.2844 -0.4197  0.3064
  983SOL    HW2 3985   0.310   3.931   1.870  0.0789 -1.5935  0.9402
  983SOL    HW3 3986   0.216   3.818   1.907 -1.8383 -0.2086  0.4104
  983SOL    MW4 3987   0.234   3.889   1.860 -0.4415 -0.5467  0.4038
  984SOL     OW 3988   0.020   4.020   1.997  0.1075  0.6218  0.4800
  984SOL    HW2 3989   0.016   4.100   1.945 -1.1280 -0.8996 -1.8495
  984SOL    HW3 3990   0.080   3.964   1.949  0.7898  0.0446  1.9820
  984SOL    MW4 3991   0.028   4.023   1.984  0.0345  0.3457  0.3707
  985SOL     OW 3992   4.477   4.275   1.860 -0.0802  0.2760  0.0918
  985SOL    HW2 3993   4.427   4.307   1.935  0.9829  1.1910  0.4205
  985SOL    HW3 3994   4.558   4.325   1.862  0.0837  0.0975 -1.5121
  985SOL    MW4 3995   4.481   4.286   1.871  0.0817  0.3734 -0.0765
  986SOL     OW 3996   0.201   4.419   1.941 -0.3369  0.2444  0.0615
  986SOL    HW2 3997   0.204   4.405   2.036 -1.5742  0.3096  0.1145
  986SOL    HW3 3998   0.204   4.515   1.931  0.6044  0.2119 -0.0022
  986SOL    MW4 3999   0.202   4.430   1.952 -0.3760  0.2484  0.0601
  987SOL     OW 4000   0.671   0.010   1.891 -0.0847 -0.5521  0.1224
  987SOL    HW2 4001   0.701  -0.076   1.920  0.9221 -0.3011 -0.1370
  987SOL    HW3 4002   0.691   0.012   1.798 -0.1736 -0.0671  0.1138
  987SOL    MW4 4003   0.678  -0.001   1.883  0.0364 -0.4549  0.0870
  988SOL     OW 4004   0.439   0.109   1.985  0.5369 -0.1195  0.2136
  988SOL    HW2 4005   0.443   0.202   1.963 -0.3597 -0.3854 -1.1715
  988SOL    HW3 4006   0.519   0.072   1.949 -0.0537 -0.2240 -1.0271
  988SOL    MW4 4007   0.450   0.116   1.978  0.3407 -0.1683 -0.1328
  989SOL     OW 4008   0.430   0.390   1.904  0.1992  0.7835 -0.0401
  989SOL    HW2 4009   0.498   0.450   1.935  1.8708 -0.7234 -0.7354
  989SOL    HW3 4010   0.439   0.390   1.809  0.4146 -0.7881 -0.0315
  989SOL    MW4 4011   0.440   0.398   1.895  0.4482  0.3774 -0.1307
  990SOL     OW 4012   0.648   0.496   2.026  0.0110 -0.0323 -0.0253
  990SOL    HW2 4013   0.652   0.488   2.122 -0.8686  0.0089  0.0157
  990SOL    HW3 4014   0.723   0.444   1.995  0.4110  0.1074  0.6891
  990SOL    MW4 4015   0.659   0.488   2.035 -0.0523 -0.0085  0.0744
  991SOL     OW 4016   0.642   0.737   1.870 -0.0552  0.5405 -0.4425
  991SOL    HW2 4017   0.730   0.769   1.887  0.1287  0.3075 -0.9329
  991SOL    HW3 4018   0.630   0.664   1.929 -0.0203  0.7402 -0.1878
  991SOL    MW4 4019   0.652   0.732   1.880 -0.0264  0.5361 -0.4736
  992SOL     OW 4020   0.447   0.911   1.984  0.2028  0.0356  0.3585
  992SOL    HW2 4021   0.459   1.002   1.955 -1.6424  0.2751  0.2812
  992SOL    HW3 4022   0.507   0.860   1.929 -1.4109  0.7822 -2.2082
  992SOL    MW4 4023   0.456   0.916   1.973 -0.2536  0.1658  0.0098
  993SOL     OW 4024   0.472   1.166   1.888 -0.1131 -0.0960  0.3832
  993SOL    HW2 4025   0.398   1.217   1.922  0.9572  1.9993 -0.3099
  993SOL    HW3 4026   0.454   1.158   1.794  1.3837  2.0330 -0.1389
  993SOL    MW4 4027   0.460   1.172   1.880  0.2256  0.4613  0.2228
  994SOL     OW 4028   0.724   1.250   1.981 -0.0725  0.4561 -0.2292
  994SOL    HW2 4029   0.740   1.250   2.076 -1.3948  2.7179  0.0395
  994SOL    HW3 4030   0.636   1.212   1.972  0.2437 -0.1913 -0.5928
  994SOL    MW4 4031   0.714   1.245   1.993 -0.2052  0.6691 -0.2418
  995SOL     OW 4032   0.657   1.509   1.913 -0.4901 -0.5322 -0.4004
  995SOL    HW2 4033   0.675   1.419   1.938 -1.1796 -0.9231 -1.3097
  995SOL    HW3 4034   0.642   1.506   1.819  1.2783  0.8137 -0.7674
  995SOL    MW4 4035   0.657   1.497   1.904 -0.3478 -0.4061 -0.5687
  996SOL     OW 4036   0.437   1.668   1.980 -0.0460  0.6370 -0.2600
  996SOL    HW2 4037   0.446   1.668   2.076 -1.9909  0.6154 -0.0589
  996SOL    HW3 4038   0.510   1.613   1.950 -0.8502 -1.4273  1.3826
  996SOL    MW4 4039   0.448   1.661   1.989 -0.4087  0.3619 -0.0168
  997SOL     OW 4040   0.498   1.917   1.901  0.8065 -0.1053  0.1848
  997SOL    HW2 4041   0.477   1.825   1.913  0.7126 -0.3528 -1.7006
  997SOL    HW3 4042   0.428   1.964   1.945  0.4994 -0.9241  0.5864
  997SOL    MW4 4043   0.486   1.911   1.908  0.7536 -0.2460 -0.0111
  998SOL     OW 4044   0.717   2.038   1.998  0.7320 -0.7350  0.6298
  998SOL    HW2 4045   0.683   2.050   2.086 -0.8422  0.8572 -0.1696
  998SOL    HW3 4046   0.663   1.968   1.961  0.3876 -0.3670  0.4295
  998SOL    MW4 4047   0.706   2.030   2.004  0.4788 -0.4766  0.4978
  999SOL     OW 4048   0.682   2.303   1.902  0.3392 -0.4901  0.0150
  999SOL    HW2 4049   0.710   2.213   1.920  2.5538  0.1119 -0.3357
  999SOL    HW3 4050   0.677   2.309   1.807  0.3144 -0.2152  0.0316
  999SOL    MW4 4051   0.685   2.292   1.892  0.6281 -0.3743 -0.0291
 1000SOL     OW 4052   0.484   2.484   1.998 -0.2459  0.3561  0.1782
 1000SOL    HW2 4053   0.472   2.459   2.090 -2.3915  0.0659 -0.1796
 1000SOL    HW3 4054   0.552   2.424   1.966  0.3058  0.2628  1.4800
 1000SOL    MW4 4055   0.492   2.473   2.006 -0.4562  0.3054  0.3026
 1001SOL     OW 4056   0.469   2.728   1.875 -0.4341 -0.1154  0.1301
 1001SOL    HW2 4057   0.485   2.647   1.923 -0.2211 -0.4151 -0.4375
 1001SOL    HW3 4058   0.386   2.760   1.909 -0.7917 -0.8576 -0.0312
 1001SOL    MW4 4059   0.461   2.721   1.886 -0.4532 -0.2527  0.0340
 1002SOL     OW 4060   0.663   2.870   2.001 -0.0267  0.2839  0.0844
 1002SOL    HW2 4061   0.641   2.855   2.093  0.3795  1.1665  0.3374
 1002SOL    HW3 4062   0.611   2.806   1.953 -1.4810  0.8991  0.8188
 1002SOL    MW4 4063   0.653   2.860   2.007 -0.1650  0.4818  0.2151
 1003SOL     OW 4064   0.626   3.130   1.877  0.0097 -0.6915  0.2310
 1003SOL    HW2 4065   0.637   3.044   1.917 -1.8386 -0.9025  0.3431
 1003SOL    HW3 4066   0.631   3.115   1.783  2.9372 -0.4058  0.2830
 1003SOL    MW4 4067   0.628   3.117   1.870  0.1521 -0.6816  0.2525
 1004SOL     OW 4068   0.407   3.242   1.992  0.1889 -0.4187 -0.0930
 1004SOL    HW2 4069   0.408   3.335   1.970  1.1230 -0.4352 -0.1534
 1004SOL    HW3 4070   0.483   3.206   1.946 -0.7444 -1.4066 -0.9063
 1004SOL    MW4 4071   0.417   3.250   1.983  0.1890 -0.5510 -0.2083
 1005SOL     OW 4072   0.424   3.496   1.880  0.0286  0.1601  0.1317
 1005SOL    HW2 4073   0.490   3.555   1.916  0.3782 -0.5552  0.7025
 1005SOL    HW3 4074   0.445   3.489   1.787  1.6755 -1.2072  0.5801
 1005SOL    MW4 4075   0.435   3.503   1.873  0.2920 -0.1147  0.2662
 1006SOL     OW 4076   0.645   3.624   1.988 -0.3117  0.4433 -0.4783
 1006SOL    HW2 4077   0.707   3.562   1.949  2.1713  1.9842  0.9086
 1006SOL    HW3 4078   0.666   3.708   1.946 -0.7665  1.1992  0.7854
 1006SOL    MW4 4079   0.656   3.627   1.977 -0.0441  0.7463 -0.1284
 1007SOL     OW 4080   0.687   3.881   1.898  0.5385  0.2855  0.0775
 1007SOL    HW2 4081   0.772   3.924   1.912  1.3440 -1.0696 -0.5715
 1007SOL    HW3 4082   0.680   3.871   1.803  0.0620 -0.4159  0.1833
 1007SOL    MW4 4083   0.697   3.886   1.888  0.5819  0.0143  0.0058
 1008SOL     OW 4084   0.457   4.006   1.948  0.5157  0.0094 -0.0469
 1008SOL    HW2 4085   0.481   4.098   1.953  0.6351  0.0633 -1.4276
 1008SOL    HW3 4086   0.540   3.960   1.935  0.2991 -0.1625 -0.8142
 1008SOL    MW4 4087   0.471   4.012   1.947  0.5029 -0.0062 -0.3302
 1009SOL     OW 4088   0.448   4.297   1.900 -0.1499 -0.4657 -0.2145
 1009SOL    HW2 4089   0.365   4.338   1.923 -0.8975 -0.4125 -2.7683
 1009SOL    HW3 4090   0.442   4.282   1.805  2.8795 -0.1855 -0.5190
 1009SOL    MW4 4091   0.436   4.300   1.890  0.1512 -0.4215 -0.5915
 1010SOL     OW 4092   0.674   4.428   1.993  0.2582  0.2596 -0.3546
 1010SOL    HW2 4093   0.737   4.362   1.964 -0.8661 -0.9981  0.0200
 1010SOL    HW3 4094   0.590   4.396   1.961 -0.3770  1.2442  0.3059
 1010SOL    MW4 4095   0.671   4.415   1.985  0.0260  0.2241 -0.2180
 1011SOL     OW 4096   1.097   0.025   1.881  0.1473 -0.4604  0.0027
 1011SOL    HW2 4097   1.175   0.071   1.910  0.8094 -1.1386 -0.6826
 1011SOL    HW3 4098   1.113  -0.067   1.902 -0.1018 -0.7182 -0.9049
 1011SOL    MW4 4099   1.109   0.019   1.888  0.2019 -0.5838 -0.2075
 1012SOL     OW 4100   0.901   0.148   2.016 -0.0829 -0.4277  0.1691
 1012SOL    HW2 4101   0.980   0.109   1.978 -0.1527 -0.0461 -0.3689
 1012SOL    HW3 4102   0.829   0.100   1.974 -0.1467 -0.4178  0.2691
 1012SOL    MW4 4103   0.902   0.137   2.005 -0.1006 -0.3760  0.1111
 1013SOL     OW 4104   0.874   0.388   1.895  0.4506  0.5431 -0.1433
 1013SOL    HW2 4105   0.950   0.440   1.920  0.0216  1.0841  0.0443
 1013SOL    HW3 4106   0.896   0.299   1.923  2.1596  0.1680 -2.5436
 1013SOL    MW4 4107   0.887   0.383   1.902  0.6195  0.5650 -0.4351
 1014SOL     OW 4108   1.115   0.503   1.956  0.0613  0.2237 -0.3513
 1014SOL    HW2 4109   1.197   0.464   1.926  0.8628  0.4514  1.4885
 1014SOL    HW3 4110   1.111   0.588   1.911  0.6465  0.0487 -0.7373
 1014SOL    MW4 4111   1.126   0.509   1.946  0.2443  0.2307 -0.1594
 1015SOL     OW 4112   1.145   0.761   1.846  0.1756 -0.5742 -0.6339
 1015SOL    HW2 4113   1.209   0.806   1.901 -0.5225 -0.5870  0.2004
 1015SOL    HW3 4114   1.061   0.781   1.886 -0.2828 -1.1978 -1.2705
 1015SOL    MW4 4115   1.143   0.769   1.858  0.0231 -0.6582 -0.6077
 1016SOL     OW 4116   0.893   0.843   1.932  0.0502 -0.0739  0.4577
 1016SOL    HW2 4117   0.884   0.847   2.027 -1.5466  1.1268  0.2820
 1016SOL    HW3 4118   0.884   0.934   1.903  1.1151 -0.3489 -0.8026
 1016SOL    MW4 4119   0.890   0.856   1.941 -0.0200  0.0482  0.2683
 1017SOL     OW 4120   0.906   1.094   1.830  0.5837  0.6626 -0.1070
 1017SOL    HW2 4121   0.841   1.149   1.873 -0.9718 -0.8507 -0.4471
 1017SOL    HW3 4122   0.909   1.126   1.739 -0.8460 -0.2354 -0.4935
 1017SOL    MW4 4123   0.898   1.105   1.823  0.1898  0.3445 -0.2029
 1018SOL     OW 4124   1.115   1.248   1.957 -0.0966 -0.2559 -0.0488
 1018SOL    HW2 4125   1.094   1.328   1.910  0.6069 -1.0323 -1.7707
 1018SOL    HW3 4126   1.071   1.179   1.907  1.1901 -1.1697  0.0469
 1018SOL    MW4 4127   1.107   1.249   1.944  0.1658 -0.4787 -0.2635
 1019SOL     OW 4128   1.142   1.516   1.860  0.2842  0.3439  0.0918
 1019SOL    HW2 4129   1.060   1.560   1.882 -0.4723 -1.3081  0.6748
 1019SOL    HW3 4130   1.141   1.510   1.765 -0.2400  0.3840  0.0941
 1019SOL    MW4 4131   1.131   1.521   1.851  0.1152  0.1314  0.1689
 1020SOL     OW 4132   0.885   1.632   1.961  0.1524 -0.4608 -0.6833
 1020SOL    HW2 4133   0.886   1.722   1.929 -0.4490  0.1259  0.8780
 1020SOL    HW3 4134   0.796   1.601   1.943 -0.0631 -0.2652  0.0145
 1020SOL    MW4 4135   0.874   1.639   1.955  0.0446 -0.3575 -0.3853
 1021SOL     OW 4136   0.928   1.893   1.884  0.4488 -0.2550  0.4024
 1021SOL    HW2 4137   0.864   1.949   1.927  0.1680  0.0040 -0.3327
 1021SOL    HW3 4138   0.915   1.911   1.790 -0.1981 -2.1244  0.1171
 1021SOL    MW4 4139   0.918   1.903   1.877  0.3264 -0.4674  0.2677
 1022SOL     OW 4140   1.154   2.015   1.975  0.2426  0.1778 -0.9789
 1022SOL    HW2 4141   1.142   2.101   1.934  0.0184  0.1549 -0.9571
 1022SOL    HW3 4142   1.075   1.966   1.953 -0.0472  0.2889 -0.1955
 1022SOL    MW4 4143   1.142   2.020   1.967  0.1749  0.1893 -0.8727
 1023SOL     OW 4144   1.132   2.284   1.871  0.1798  0.1693 -0.1730
 1023SOL    HW2 4145   1.211   2.333   1.894  0.3041  0.8905 -2.0368
 1023SOL    HW3 4146   1.139   2.270   1.777 -0.5193 -2.3056  0.1034
 1023SOL    MW4 4147   1.143   2.288   1.862  0.1040 -0.0618 -0.3825
 1024SOL     OW 4148   0.917   2.417   1.995  0.5730  0.3683 -0.0463
 1024SOL    HW2 4149   0.989   2.376   1.947  1.3415 -0.9124  2.1128
 1024SOL    HW3 4150   0.840   2.365   1.971  0.6391  0.8209 -1.2249
 1024SOL    MW4 4151   0.916   2.404   1.986  0.6831  0.2592  0.0831
 1025SOL     OW 4152   0.868   2.701   1.882  0.1788 -0.6576 -0.1150
 1025SOL    HW2 4153   0.857   2.612   1.916 -0.2949 -0.1252  1.1650
 1025SOL    HW3 4154   0.798   2.752   1.925  0.7246  0.4173 -0.4859
 1025SOL    MW4 4155   0.857   2.696   1.892  0.1882 -0.4454  0.0049
 1026SOL     OW 4156   1.120   2.803   1.951  0.1295  0.0988  0.1776
 1026SOL    HW2 4157   1.131   2.802   2.047 -0.6089  0.2448  0.2660
 1026SOL    HW3 4158   1.035   2.763   1.937  0.1912  0.1852 -0.4185
 1026SOL    MW4 4159   1.111   2.797   1.962  0.0402  0.1292  0.1107
 1027SOL     OW 4160   1.109   3.074   1.833 -0.1530  0.6459  0.2175
 1027SOL    HW2 4161   1.019   3.099   1.851 -0.4999  0.6945 -1.4551
 1027SOL    HW3 4162   1.123   2.996   1.886 -0.8813  1.1599  1.1778
 1027SOL    MW4 4163   1.099   3.067   1.842 -0.2949  0.7205  0.1234
 1028SOL     OW 4164   0.891   3.194   1.958  0.2566 -0.1222 -0.0952
 1028SOL    HW2 4165   0.901   3.194   2.053  0.1750 -0.3533 -0.0870
 1028SOL    HW3 4166   0.797   3.187   1.944  0.1842  0.9402 -0.1837
 1028SOL    MW4 4167   0.880   3.194   1.969  0.2362 -0.0124 -0.1057
 1029SOL     OW 4168   0.844   3.461   1.886 -0.2789  0.0068  0.4082
 1029SOL    HW2 4169   0.866   3.371   1.913 -0.6898 -0.2015  0.0473
 1029SOL    HW3 4170   0.853   3.461   1.791 -0.5767  0.2682  0.3797
 1029SOL    MW4 4171   0.848   3.449   1.877 -0.3724  0.0138  0.3569
 1030SOL     OW 4172   1.075   3.583   1.953  0.3884 -0.1670  0.1842
 1030SOL    HW2 4173   1.091   3.579   2.048  0.5567  1.4735  0.2380
 1030SOL    HW3 4174   0.988   3.546   1.942 -0.0641  0.6219  1.1006
 1030SOL    MW4 4175   1.066   3.577   1.964  0.3508  0.1531  0.3121
 1031SOL     OW 4176   1.102   3.853   1.858 -0.2888 -0.1758 -0.2022
 1031SOL    HW2 4177   1.101   3.758   1.869 -1.3944 -0.1442  0.0572
 1031SOL    HW3 4178   1.094   3.867   1.764  0.0696 -0.3440 -0.2571
 1031SOL    MW4 4179   1.101   3.843   1.847 -0.3874 -0.1938 -0.1751
 1032SOL     OW 4180   0.907   4.029   1.945  0.1031 -0.0738  0.0199
 1032SOL    HW2 4181   0.904   4.025   2.041  0.3299 -0.3936  0.0152
 1032SOL    HW3 4182   0.967   3.959   1.921 -1.6557 -1.4523 -0.4642
 1032SOL    MW4 4183   0.915   4.019   1.955 -0.0989 -0.2975 -0.0447
 1033SOL     OW 4184   0.927   4.296   1.891  0.1579 -0.0058  0.0273
 1033SOL    HW2 4185   0.994   4.352   1.932  0.5878 -0.9197  0.5811
 1033SOL    HW3 4186   0.955   4.207   1.911 -0.2241 -0.4396 -1.3317
 1033SOL    MW4 4187   0.940   4.292   1.899  0.1642 -0.1836 -0.0790
 1034SOL     OW 4188   1.128   4.436   2.011 -0.5776 -0.0638  0.6108
 1034SOL    HW2 4189   1.112   4.406   2.101  0.2124  1.3068  1.2107
 1034SOL    HW3 4190   1.200   4.381   1.980  1.3292  1.6192  1.9505
 1034SOL    MW4 4191   1.135   4.425   2.019 -0.2216  0.3386  0.8669
 1035SOL     OW 4192   1.534   4.663   1.872 -0.0471 -0.0577 -0.1775
 1035SOL    HW2 4193   1.616   4.691   1.912 -0.1869  0.5303 -0.2974
 1035SOL    HW3 4194   1.524   4.572   1.900 -0.0783  0.3060  1.0272
 1035SOL    MW4 4195   1.543   4.655   1.881 -0.0696  0.0677 -0.0345
 1036SOL     OW 4196   1.330   0.142   1.984  0.0047  0.3840 -0.3936
 1036SOL    HW2 4197   1.343   0.139   2.079 -1.0460 -2.0149 -0.2757
 1036SOL    HW3 4198   1.395   0.080   1.949  0.0841  0.9090 -1.1906
 1036SOL    MW4 4199   1.340   0.133   1.992 -0.1234  0.1368 -0.4830
 1037SOL     OW 4200   1.362   0.414   1.913 -0.0773 -0.4664 -0.1749
 1037SOL    HW2 4201   1.349   0.326   1.949 -1.0475 -0.7927 -1.2839
 1037SOL    HW3 4202   1.382   0.399   1.820  0.9781  0.4270 -0.1013
 1037SOL    MW4 4203   1.363   0.400   1.905 -0.0660 -0.3916 -0.3115
 1038SOL     OW 4204   1.586   0.517   2.039  0.2410  0.0355  0.3022
 1038SOL    HW2 4205   1.659   0.471   1.999  0.1198  1.1451 -1.2579
 1038SOL    HW3 4206   1.508   0.483   1.995 -0.0139  0.2614  0.5697
 1038SOL    MW4 4207   1.585   0.507   2.028  0.1915  0.2118  0.1318
 1039SOL     OW 4208   1.584   0.757   1.912  0.0680  0.0863  0.4991
 1039SOL    HW2 4209   1.663   0.800   1.944  0.4354 -0.5187  0.4102
 1039SOL    HW3 4210   1.589   0.668   1.947 -0.2735 -0.1343 -0.0071
 1039SOL    MW4 4211   1.595   0.751   1.921  0.0713 -0.0226  0.4206
 1040SOL     OW 4212   1.351   0.903   1.973 -0.0882 -0.6031 -0.0025
 1040SOL    HW2 4213   1.353   0.886   2.067  1.4591  3.1276  0.7305
 1040SOL    HW3 4214   1.415   0.842   1.937  1.3096 -0.2490  1.7695
 1040SOL    MW4 4215   1.360   0.893   1.981  0.3004 -0.0642  0.3281
 1041SOL     OW 4216   1.336   1.148   1.828 -0.3064  0.0348 -0.0777
 1041SOL    HW2 4217   1.333   1.061   1.869  0.8310 -0.0364 -0.1342
 1041SOL    HW3 4218   1.269   1.198   1.875  0.4451 -0.2755  1.3493
 1041SOL    MW4 4219   1.327   1.143   1.840 -0.0572 -0.0157  0.1031
 1042SOL     OW 4220   1.553   1.248   1.978 -0.3424 -0.0087 -0.3350
 1042SOL    HW2 4221   1.567   1.338   1.949 -0.1515 -0.3178 -1.2225
 1042SOL    HW3 4222   1.475   1.220   1.930 -0.4308 -0.2961 -0.0210
 1042SOL    MW4 4223   1.544   1.256   1.968 -0.3289 -0.0874 -0.4107
 1043SOL     OW 4224   1.592   1.490   1.874  0.2330  0.3312  0.6690
 1043SOL    HW2 4225   1.667   1.535   1.914  0.4052 -0.6466  1.4901
 1043SOL    HW3 4226   1.516   1.543   1.899  0.5460  0.7955  0.6481
 1043SOL    MW4 4227   1.592   1.503   1.883  0.2971  0.2635  0.7745
 1044SOL     OW 4228   1.382   1.642   1.937 -0.0061  0.2754  0.2474
 1044SOL    HW2 4229   1.376   1.655   2.031 -0.2603  1.9498  0.0323
 1044SOL    HW3 4230   1.297   1.606   1.912  0.1242 -0.3259  0.6807
 1044SOL    MW4 4231   1.370   1.639   1.946 -0.0224  0.4169  0.2762
 1045SOL     OW 4232   1.364   1.890   1.851 -0.5351 -0.1316 -0.0404
 1045SOL    HW2 4233   1.369   1.801   1.885 -0.3068 -0.4884 -0.9932
 1045SOL    HW3 4234   1.274   1.918   1.870  0.0107  0.2347  2.1938
 1045SOL    MW4 4235   1.353   1.882   1.858 -0.4328 -0.1303  0.1286
 1046SOL     OW 4236   1.555   2.082   1.964  0.1598  0.4961  0.6902
 1046SOL    HW2 4237   1.556   2.167   1.920 -3.1249  0.6486  0.7805
 1046SOL    HW3 4238   1.483   2.035   1.923  0.0571 -1.1432  2.6837
 1046SOL    MW4 4239   1.546   2.087   1.953 -0.2872  0.3002  0.9651
 1047SOL     OW 4240   1.600   2.331   1.857  0.1567 -0.4049  0.1234
 1047SOL    HW2 4241   1.676   2.382   1.887 -0.3520  1.3296 -1.4854
 1047SOL    HW3 4242   1.603   2.337   1.762 -1.7783 -0.6318  0.0318
 1047SOL    MW4 4243   1.611   2.339   1.849 -0.1657 -0.2060 -0.1011
 1048SOL     OW 4244   1.371   2.421   1.971 -0.2285 -0.3734  0.2893
 1048SOL    HW2 4245   1.363   2.508   1.933 -1.1684 -1.1928 -1.4538
 1048SOL    HW3 4246   1.454   2.387   1.937 -0.7204 -0.8315 -0.4646
 1048SOL    MW4 4247   1.381   2.428   1.962 -0.4175 -0.5422 -0.0401
 1049SOL     OW 4248   1.344   2.674   1.886  0.4093  0.3406  0.0839
 1049SOL    HW2 4249   1.259   2.713   1.907  0.0645  0.0672 -0.8227
 1049SOL    HW3 4250   1.349   2.676   1.791  1.1538 -0.2080  0.1091
 1049SOL    MW4 4251   1.333   2.679   1.876  0.4621  0.2322 -0.0324
 1050SOL     OW 4252   1.572   2.848   1.950  0.2451 -0.4038  0.0384
 1050SOL    HW2 4253   1.654   2.813   1.915  0.7502 -1.2836  2.0404
 1050SOL    HW3 4254   1.505   2.788   1.917  0.6961 -1.1617  0.4892
 1050SOL    MW4 4255   1.574   2.836   1.941  0.3713 -0.6199  0.3620
 1051SOL     OW 4256   1.541   3.101   1.877 -0.1280  0.1286 -0.7217
 1051SOL    HW2 4257   1.547   3.014   1.915  1.0983 -0.1441 -1.5100
 1051SOL    HW3 4258   1.566   3.089   1.785  0.3469  1.3666 -0.7599
 1051SOL    MW4 4259   1.545   3.088   1.870  0.0966  0.2561 -0.8308
 1052SOL     OW 4260   1.303   3.217   1.977 -0.1559 -0.3505  0.5420
 1052SOL    HW2 4261   1.386   3.178   1.949  0.8133  2.2319 -0.3716
 1052SOL    HW3 4262   1.237   3.172   1.924  0.7845 -1.4568  0.2722
 1052SOL    MW4 4263   1.305   3.206   1.966  0.0961 -0.1554  0.3856
 1053SOL     OW 4264   1.326   3.488   1.893  0.3537 -0.3498  0.0554
 1053SOL    HW2 4265   1.325   3.399   1.927  0.1609 -0.6374 -0.6852
 1053SOL    HW3 4266   1.238   3.522   1.911  0.1529 -0.6081 -0.4157
 1053SOL    MW4 4267   1.314   3.481   1.900  0.3018 -0.4220 -0.1045
 1054SOL     OW 4268   1.554   3.626   1.976  0.0436 -0.4160  0.2714
 1054SOL    HW2 4269   1.563   3.601   2.068  0.8741  0.8862  0.5524
 1054SOL    HW3 4270   1.474   3.581   1.948 -1.1723  0.4923  2.1001
 1054SOL    MW4 4271   1.544   3.616   1.985 -0.0073 -0.1245  0.5497
 1055SOL     OW 4272   1.569   3.891   1.894 -0.2460 -0.0674 -0.2451
 1055SOL    HW2 4273   1.645   3.942   1.923 -0.6169  0.4517 -0.1719
 1055SOL    HW3 4274   1.585   3.803   1.927  0.6931 -0.1415 -0.8800
 1055SOL    MW4 4275   1.581   3.886   1.902 -0.1711 -0.0091 -0.3194
 1056SOL     OW 4276   1.312   4.010   1.949  0.0272  0.0573 -0.1806
 1056SOL    HW2 4277   1.390   3.960   1.926  0.4594  0.0862  1.1957
 1056SOL    HW3 4278   1.239   3.953   1.924  0.5173 -1.3480  1.4568
 1056SOL    MW4 4279   1.313   3.996   1.943  0.1489 -0.1245  0.2170
 1057SOL     OW 4280   1.332   4.282   1.911  0.3589  0.0288 -0.0226
 1057SOL    HW2 4281   1.329   4.188   1.927  0.8128 -0.1885 -1.1674
 1057SOL    HW3 4282   1.348   4.290   1.817  0.3614  1.2499  0.0719
 1057SOL    MW4 4283   1.334   4.271   1.900  0.4193  0.1612 -0.1612
 1058SOL     OW 4284   1.573   4.402   1.996 -0.1204  0.3570  0.4291
 1058SOL    HW2 4285   1.570   4.418   2.090 -1.4855  2.4696  0.0578
 1058SOL    HW3 4286   1.487   4.367   1.974 -0.5732  1.9172 -0.3571
 1058SOL    MW4 4287   1.562   4.400   2.005 -0.3604  0.8416  0.2766
 1059SOL     OW 4288   2.010   4.658   1.892 -0.0218  0.1161  0.0544
 1059SOL    HW2 4289   2.088   4.709   1.913  0.8192 -1.3043  0.4443
 1059SOL    HW3 4290   2.031   4.569   1.919 -1.7488 -0.3129  0.0785
 1059SOL    MW4 4291   2.023   4.653   1.898 -0.1383 -0.1283  0.1090
 1060SOL     OW 4292   1.764   0.080   1.982 -0.2391  0.0639 -0.1454
 1060SOL    HW2 4293   1.779   0.086   2.077 -0.2471 -1.2622 -0.0477
 1060SOL    HW3 4294   1.842   0.035   1.949 -1.1019 -1.1925 -0.5035
 1060SOL    MW4 4295   1.776   0.075   1.990 -0.3539 -0.2769 -0.1798
 1061SOL     OW 4296   1.804   0.349   1.903 -0.0006  0.6694  0.1482
 1061SOL    HW2 4297   1.797   0.259   1.934  0.2039  0.5231 -0.2169
 1061SOL    HW3 4298   1.824   0.340   1.809 -0.2632  1.0951  0.0491
 1061SOL    MW4 4299   1.806   0.336   1.895 -0.0082  0.7062  0.0869
 1062SOL     OW 4300   1.989   0.505   2.024  0.0978  0.5185 -0.1370
 1062SOL    HW2 4301   2.004   0.587   1.977  0.7258  0.2249 -0.4494
 1062SOL    HW3 4302   1.922   0.460   1.971  0.2671  0.5157 -0.3493
 1062SOL    MW4 4303   1.982   0.510   2.011  0.2030  0.4795 -0.2065
 1063SOL     OW 4304   2.020   0.749   1.872 -0.0140  0.2416  0.1532
 1063SOL    HW2 4305   2.095   0.790   1.916  0.2929 -1.1416  0.9279
 1063SOL    HW3 4306   2.040   0.758   1.779  1.7684 -1.2899  0.3575
 1063SOL    MW4 4307   2.033   0.756   1.866  0.2618 -0.1430  0.2824
 1064SOL     OW 4308   1.815   0.876   1.994  0.0008  0.1310  0.0820
 1064SOL    HW2 4309   1.825   0.962   1.954  0.6212  0.3317  0.6589
 1064SOL    HW3 4310   1.881   0.822   1.952  0.0767  0.1194  0.2145
 1064SOL    MW4 4311   1.825   0.880   1.983  0.0926  0.1560  0.1756
 1065SOL     OW 4312   1.797   1.135   1.884  0.3749  0.2803  0.0983
 1065SOL    HW2 4313   1.709   1.166   1.907  0.1602 -1.0674  1.1865
 1065SOL    HW3 4314   1.804   1.151   1.790 -0.4828  1.7266  0.2545
 1065SOL    MW4 4315   1.786   1.142   1.875  0.2335  0.2933  0.2625
 1066SOL     OW 4316   1.984   1.307   1.946 -0.1684  0.1448  0.2434
 1066SOL    HW2 4317   2.064   1.268   1.912  0.7690  0.0864  2.4648
 1066SOL    HW3 4318   1.917   1.239   1.931  0.3637 -0.1689 -0.7774
 1066SOL    MW4 4319   1.985   1.293   1.939  0.0254  0.0957  0.4019
 1067SOL     OW 4320   2.054   1.566   1.870 -0.0031  0.4451  0.5083
 1067SOL    HW2 4321   2.028   1.475   1.883  0.9804  0.3411  1.7690
 1067SOL    HW3 4322   2.055   1.577   1.774  0.7258 -1.1079  0.3212
 1067SOL    MW4 4323   2.050   1.556   1.859  0.2229  0.2265  0.6498
 1068SOL     OW 4324   1.797   1.664   1.946  0.6033 -0.3574  0.2447
 1068SOL    HW2 4325   1.789   1.757   1.925 -0.6830 -0.6274 -0.4586
 1068SOL    HW3 4326   1.887   1.641   1.920  0.1579  0.1313 -1.7708
 1068SOL    MW4 4327   1.808   1.673   1.940  0.3748 -0.3285 -0.1140
 1069SOL     OW 4328   1.787   1.939   1.870  0.5648 -0.0965  0.1206
 1069SOL    HW2 4329   1.718   1.993   1.907  0.9824  0.4149  0.1663
 1069SOL    HW3 4330   1.776   1.948   1.775  0.6303  0.0706  0.1277
 1069SOL    MW4 4331   1.777   1.947   1.862  0.6286 -0.0069  0.1276
 1070SOL     OW 4332   2.023   2.032   1.963  0.0301 -0.3327  0.0549
 1070SOL    HW2 4333   2.094   1.978   1.930 -2.0138 -1.0885 -3.3842
 1070SOL    HW3 4334   1.943   1.988   1.933 -1.8206  1.6226  1.9370
 1070SOL    MW4 4335   2.021   2.019   1.954 -0.4838 -0.1745 -0.1506
 1071SOL     OW 4336   2.023   2.292   1.877  0.3338  0.3060  0.3769
 1071SOL    HW2 4337   2.104   2.333   1.907  0.6129 -0.2528  0.3994
 1071SOL    HW3 4338   2.029   2.202   1.908 -0.5953  0.4335  0.9447
 1071SOL    MW4 4339   2.035   2.285   1.885  0.2482  0.2491  0.4547
 1072SOL     OW 4340   1.822   2.454   1.975 -0.4140 -0.7600  0.3140
 1072SOL    HW2 4341   1.807   2.448   2.070 -1.0753 -1.2982  0.1740
 1072SOL    HW3 4342   1.888   2.388   1.957 -1.6611 -1.9654  0.1023
 1072SOL    MW4 4343   1.829   2.445   1.985 -0.6658 -0.9902  0.2676
 1073SOL     OW 4344   1.781   2.709   1.841  0.2863  0.2067 -0.2932
 1073SOL    HW2 4345   1.787   2.616   1.863  1.1358  0.1174 -0.8676
 1073SOL    HW3 4346   1.800   2.712   1.748  0.3641  0.9670 -0.2499
 1073SOL    MW4 4347   1.784   2.697   1.832  0.4085  0.2952 -0.3633
 1074SOL     OW 4348   2.005   2.837   1.916  0.4374 -0.5036  0.2611
 1074SOL    HW2 4349   2.003   2.836   2.012  0.2770 -0.7702  0.2552
 1074SOL    HW3 4350   1.925   2.792   1.890  1.8756 -2.9352 -0.0088
 1074SOL    MW4 4351   1.994   2.831   1.925  0.6061 -0.8597  0.2247
 1075SOL     OW 4352   2.005   3.106   1.820  0.3026  0.3231  0.3757
 1075SOL    HW2 4353   1.927   3.149   1.855  0.1818  0.5298 -0.1397
 1075SOL    HW3 4354   2.000   3.016   1.854  1.0888  0.9814  2.2664
 1075SOL    MW4 4355   1.994   3.100   1.829  0.3902  0.4373  0.5572
 1076SOL     OW 4356   1.785   3.231   1.947  0.3019  0.6974 -0.1226
 1076SOL    HW2 4357   1.788   3.243   2.042 -0.9760  1.7742 -0.1888
 1076SOL    HW3 4358   1.697   3.197   1.930  0.5719  0.3826 -0.8982
 1076SOL    MW4 4359   1.774   3.228   1.957  0.1688  0.7977 -0.2337
 1077SOL     OW 4360   1.777   3.488   1.851 -0.2758  0.0727 -0.7016
 1077SOL    HW2 4361   1.762   3.401   1.887 -1.4471  0.7765  0.5506
 1077SOL    HW3 4362   1.702   3.540   1.880  0.8130  1.7118 -0.7172
 1077SOL    MW4 4363   1.765   3.483   1.859 -0.2867  0.3817 -0.5385
 1078SOL     OW 4364   2.009   3.599   2.010 -0.1618 -0.2318  0.0229
 1078SOL    HW2 4365   2.017   3.691   1.983 -0.8765  0.1562  1.0949
 1078SOL    HW3 4366   1.932   3.567   1.963  0.8522 -0.6654 -1.3639
 1078SOL    MW4 4367   2.000   3.607   2.000 -0.1223 -0.2377 -0.0186
 1079SOL     OW 4368   2.041   3.854   1.899 -0.0066 -0.2462  0.0260
 1079SOL    HW2 4369   2.112   3.905   1.939  0.9444 -2.1822  0.8741
 1079SOL    HW3 4370   2.069   3.841   1.809  0.5536 -0.6646  0.2529
 1079SOL    MW4 4371   2.054   3.859   1.893  0.1929 -0.5567  0.1678
 1080SOL     OW 4372   1.821   3.995   1.985  0.2423  0.0147  0.0009
 1080SOL    HW2 4373   1.818   4.075   1.934  0.7426 -0.3117 -0.5578
 1080SOL    HW3 4374   1.896   3.947   1.950 -0.5710 -1.0922 -0.2693
 1080SOL    MW4 4375   1.831   3.999   1.974  0.2011 -0.1748 -0.1086
 1081SOL     OW 4376   1.776   4.249   1.888 -0.1923 -0.3245 -0.5832
 1081SOL    HW2 4377   1.721   4.311   1.934 -1.9564 -0.9242 -1.8459
 1081SOL    HW3 4378   1.762   4.267   1.796 -0.1371 -2.0749 -0.9568
 1081SOL    MW4 4379   1.767   4.259   1.882 -0.4177 -0.6351 -0.7991
 1082SOL     OW 4380   2.026   4.394   1.982  0.0433 -0.4342 -0.1409
 1082SOL    HW2 4381   2.088   4.322   1.969 -0.1346 -0.7801  0.9192
 1082SOL    HW3 4382   1.941   4.357   1.958  0.1815 -0.0781 -1.2093
 1082SOL    MW4 4383   2.023   4.380   1.977  0.0381 -0.4325 -0.1421
 1083SOL     OW 4384   2.456   4.662   1.891 -0.1624  0.0391 -1.0245
 1083SOL    HW2 4385   2.546   4.694   1.899 -0.2203  0.1173 -0.6733
 1083SOL    HW3 4386   2.460   4.572   1.923 -0.5553  0.6155  0.7037
 1083SOL    MW4 4387   2.468   4.654   1.896 -0.2217  0.1254 -0.7502
 1084SOL     OW 4388   2.238   0.136   1.986 -0.2216 -0.3807 -0.2221
 1084SOL    HW2 4389   2.237   0.154   2.080 -0.3614  2.5035 -0.7176
 1084SOL    HW3 4390   2.321   0.090   1.971  0.4109  0.2997  1.1154
 1084SOL    MW4 4391   2.249   0.132   1.996 -0.1566  0.0896 -0.1110
 1085SOL     OW 4392   2.232   0.392   1.931  0.3910  0.2389  0.0766
 1085SOL    HW2 4393   2.244   0.306   1.973  0.2144  1.0026  1.7336
 1085SOL    HW3 4394   2.156   0.430   1.976 -0.2296  0.8124 -1.4247
 1085SOL    MW4 4395   2.223   0.385   1.943  0.2861  0.4153  0.0973
 1086SOL     OW 4396   2.509   0.508   1.979 -0.1064 -0.1913  0.6250
 1086SOL    HW2 4397   2.572   0.453   1.932 -0.4418  0.4666 -0.6016
 1086SOL    HW3 4398   2.425   0.463   1.969 -0.1643 -0.0954  0.6785
 1086SOL    MW4 4399   2.506   0.495   1.971 -0.1583 -0.0919  0.4702
 1087SOL     OW 4400   2.492   0.768   1.908 -0.0268 -0.0962  0.1456
 1087SOL    HW2 4401   2.501   0.673   1.919  0.5558 -0.1469 -0.7217
 1087SOL    HW3 4402   2.492   0.781   1.814 -0.1922  0.7707  0.2623
 1087SOL    MW4 4403   2.493   0.757   1.897  0.0281  0.0115  0.0465
 1088SOL     OW 4404   2.255   0.896   1.971 -0.0624 -0.0630  0.3953
 1088SOL    HW2 4405   2.260   0.891   2.067 -0.0820 -0.9463  0.3517
 1088SOL    HW3 4406   2.337   0.858   1.941 -0.5055 -0.7333  0.0313
 1088SOL    MW4 4407   2.267   0.891   1.980 -0.1235 -0.2680  0.3415
 1089SOL     OW 4408   2.199   1.147   1.868 -0.3373 -0.5632 -0.0832
 1089SOL    HW2 4409   2.283   1.183   1.895 -0.2208 -0.4570 -0.5745
 1089SOL    HW3 4410   2.198   1.059   1.905  0.3234 -0.8428 -0.7060
 1089SOL    MW4 4411   2.210   1.140   1.876 -0.2346 -0.5860 -0.2303
 1090SOL     OW 4412   2.440   1.282   1.966 -0.2852  0.0522  0.4663
 1090SOL    HW2 4413   2.436   1.295   2.060  0.5659  0.5805  0.4363
 1090SOL    HW3 4414   2.436   1.370   1.929 -0.2209 -0.1284  0.0165
 1090SOL    MW4 4415   2.439   1.295   1.973 -0.1643  0.0981  0.4030
 1091SOL     OW 4416   2.466   1.528   1.834 -0.2058  0.0701  0.2028
 1091SOL    HW2 4417   2.398   1.582   1.875 -1.1088 -1.1848  0.4061
 1091SOL    HW3 4418   2.465   1.553   1.742 -1.1421 -0.1255  0.1533
 1091SOL    MW4 4419   2.457   1.538   1.827 -0.4487 -0.1211  0.2230
 1092SOL     OW 4420   2.283   1.664   1.985 -0.2544 -0.3406 -0.3222
 1092SOL    HW2 4421   2.292   1.666   2.080 -0.4354 -0.5721 -0.3008
 1092SOL    HW3 4422   2.206   1.610   1.969  0.2154 -0.9243 -0.6263
 1092SOL    MW4 4423   2.274   1.657   1.995 -0.2165 -0.4482 -0.3595
 1093SOL     OW 4424   2.255   1.901   1.857 -0.4243  0.0149 -0.1959
 1093SOL    HW2 4425   2.322   1.954   1.901  0.8310 -0.0389 -1.9859
 1093SOL    HW3 4426   2.264   1.814   1.895  0.6277 -0.0212 -0.5154
 1093SOL    MW4 4427   2.265   1.896   1.867 -0.1199  0.0030 -0.4742
 1094SOL     OW 4428   2.436   2.069   1.996 -0.3085 -0.3606 -0.1587
 1094SOL    HW2 4429   2.503   2.009   1.962  1.6121  1.1510  0.8306
 1094SOL    HW3 4430   2.461   2.155   1.960 -0.6119  0.5496  1.7470
 1094SOL    MW4 4431   2.448   2.073   1.987 -0.0951 -0.0410  0.2234
 1095SOL     OW 4432   2.464   2.322   1.902  0.0242  0.5498  0.4211
 1095SOL    HW2 4433   2.537   2.358   1.952 -0.3716  1.0346  0.6447
 1095SOL    HW3 4434   2.388   2.372   1.929 -0.2439  0.6391 -0.4668
 1095SOL    MW4 4435   2.463   2.333   1.912 -0.0634  0.6256  0.3335
 1096SOL     OW 4436   2.232   2.448   1.977 -0.3887  0.0873  0.4214
 1096SOL    HW2 4437   2.239   2.457   2.072  1.7321 -0.2420  0.3221
 1096SOL    HW3 4438   2.246   2.537   1.943  1.6344 -0.2266  0.3267
 1096SOL    MW4 4439   2.235   2.461   1.985  0.1578  0.0026  0.3959
 1097SOL     OW 4440   2.257   2.695   1.853 -0.1505  0.0016 -0.5588
 1097SOL    HW2 4441   2.191   2.758   1.883  0.9675  0.8413  0.1635
 1097SOL    HW3 4442   2.238   2.684   1.760  0.2197  2.1274 -0.9198
 1097SOL    MW4 4443   2.246   2.702   1.845  0.0460  0.3932 -0.5112
 1098SOL     OW 4444   2.468   2.836   2.007 -0.0401  0.0747  0.8942
 1098SOL    HW2 4445   2.469   2.913   1.950  0.3485 -0.0239  0.7653
 1098SOL    HW3 4446   2.399   2.780   1.971 -0.0156  0.1609  0.7132
 1098SOL    MW4 4447   2.459   2.838   1.995  0.0143  0.0732  0.8534
 1099SOL     OW 4448   2.449   3.095   1.892  0.7219  0.4540 -0.0420
 1099SOL    HW2 4449   2.359   3.126   1.908  0.7203  0.4992 -0.1338
 1099SOL    HW3 4450   2.456   3.095   1.796  0.3771 -0.8147 -0.0721
 1099SOL    MW4 4451   2.438   3.099   1.881  0.6762  0.2925 -0.0581
 1100SOL     OW 4452   2.202   3.250   1.952 -0.3961  0.7025  0.3535
 1100SOL    HW2 4453   2.204   3.240   2.048  0.0817 -0.0340  0.2742
 1100SOL    HW3 4454   2.127   3.197   1.925 -0.3594  0.6819  0.2946
 1100SOL    MW4 4455   2.192   3.241   1.961 -0.3281  0.6027  0.3352
 1101SOL     OW 4456   2.255   3.514   1.889 -0.2511  0.3261  0.1275
 1101SOL    HW2 4457   2.245   3.421   1.908 -1.4055  0.3281 -0.4586
 1101SOL    HW3 4458   2.182   3.556   1.933  0.1798  0.9434  0.2599
 1101SOL    MW4 4459   2.244   3.507   1.897 -0.3469  0.4077  0.0677
 1102SOL     OW 4460   2.473   3.639   1.978 -0.1669  0.0298  0.3962
 1102SOL    HW2 4461   2.480   3.620   2.072 -1.1791 -0.6795  0.3427
 1102SOL    HW3 4462   2.402   3.582   1.948  0.9805 -0.6689 -1.0554
 1102SOL    MW4 4463   2.464   3.629   1.987 -0.1490 -0.1559  0.1976
 1103SOL     OW 4464   2.498   3.904   1.874 -0.2578  0.0722 -0.3668
 1103SOL    HW2 4465   2.425   3.955   1.910  0.3975  1.0489 -0.3903
 1103SOL    HW3 4466   2.488   3.817   1.912 -1.9350 -0.0482 -1.0668
 1103SOL    MW4 4467   2.487   3.900   1.884 -0.3927  0.1855 -0.4623
 1104SOL     OW 4468   2.259   4.000   2.001 -0.1831  0.1738  0.5094
 1104SOL    HW2 4469   2.258   4.008   2.096 -0.4547  2.0990  0.3614
 1104SOL    HW3 4470   2.265   4.090   1.969 -0.0553 -0.4512 -1.2954
 1104SOL    MW4 4471   2.260   4.013   2.009 -0.2019  0.3452  0.2518
 1105SOL     OW 4472   2.264   4.253   1.877  0.0272  0.3615  0.3756
 1105SOL    HW2 4473   2.338   4.310   1.896  0.6763 -0.1190 -0.6036
 1105SOL    HW3 4474   2.262   4.248   1.781 -1.2514  0.3418  0.4012
 1105SOL    MW4 4475   2.274   4.260   1.867 -0.0560  0.2961  0.2497
 1106SOL     OW 4476   2.490   4.399   1.964 -0.1618  0.3648  0.3718
 1106SOL    HW2 4477   2.498   4.409   2.059 -1.2240  0.9273  0.4102
 1106SOL    HW3 4478   2.570   4.354   1.937 -0.5790 -1.2224  1.7367
 1106SOL    MW4 4479   2.502   4.395   1.973 -0.3569  0.2298  0.5569
 1107SOL     OW 4480   2.940   4.652   1.882  0.3663  0.6537  0.2838
 1107SOL    HW2 4481   3.021   4.698   1.902  0.6909  0.0803  0.2977
 1107SOL    HW3 4482   2.939   4.578   1.943 -0.4792  1.0166  0.7247
 1107SOL    MW4 4483   2.950   4.648   1.893  0.2973  0.6261  0.3438
 1108SOL     OW 4484   2.708   0.109   1.951  0.3270  0.1969  0.3253
 1108SOL    HW2 4485   2.719   0.131   2.044 -0.1807 -1.3081  0.7616
 1108SOL    HW3 4486   2.784   0.056   1.930  0.2192  0.1738 -0.0004
 1108SOL    MW4 4487   2.719   0.105   1.961  0.2458 -0.0047  0.3400
 1109SOL     OW 4488   2.708   0.351   1.830  0.0441 -0.0577  0.1701
 1109SOL    HW2 4489   2.776   0.398   1.879 -1.0693  0.5712  1.1126
 1109SOL    HW3 4490   2.707   0.263   1.868 -0.8775  0.4560  1.3168
 1109SOL    MW4 4491   2.717   0.346   1.841 -0.2241  0.0931  0.4457
 1110SOL     OW 4492   2.940   0.510   1.963  0.2400  0.0278  0.0627
 1110SOL    HW2 4493   3.023   0.470   1.940  0.0573 -0.4498  0.2394
 1110SOL    HW3 4494   2.950   0.602   1.937  0.6914 -0.1059 -0.2401
 1110SOL    MW4 4495   2.952   0.517   1.956  0.2756 -0.0529  0.0461
 1111SOL     OW 4496   2.922   0.796   1.936 -0.1212  0.7419 -0.1434
 1111SOL    HW2 4497   3.004   0.828   1.972  0.3050  0.2432 -0.6642
 1111SOL    HW3 4498   2.855   0.850   1.977  0.1798 -1.1210  2.9498
 1111SOL    MW4 4499   2.924   0.807   1.946 -0.0253  0.4303  0.1961
 1112SOL     OW 4500   2.694   0.935   1.987  0.5999  0.1179 -0.6519
 1112SOL    HW2 4501   2.696   1.017   1.938  0.8376  0.6349  0.2015
 1112SOL    HW3 4502   2.639   0.877   1.934 -0.7859  1.2973 -0.5699
 1112SOL    MW4 4503   2.687   0.938   1.974  0.4482  0.3417 -0.5283
 1113SOL     OW 4504   2.669   1.174   1.862 -0.4569  0.1924 -0.3534
 1113SOL    HW2 4505   2.578   1.199   1.878 -0.7663 -0.6261 -0.7784
 1113SOL    HW3 4506   2.680   1.182   1.767  0.6026  2.5087 -0.0670
 1113SOL    MW4 4507   2.658   1.178   1.852 -0.3581  0.3899 -0.3717
 1114SOL     OW 4508   2.896   1.272   2.016 -0.1016  0.2463 -0.2768
 1114SOL    HW2 4509   2.908   1.359   1.976 -1.0831  0.4130 -0.2208
 1114SOL    HW3 4510   2.813   1.241   1.980 -0.3877 -0.1254  0.7085
 1114SOL    MW4 4511   2.887   1.280   2.006 -0.2692  0.2192 -0.1390
 1115SOL     OW 4512   2.934   1.510   1.903 -0.2012 -0.9872 -0.2812
 1115SOL    HW2 4513   3.008   1.563   1.935 -0.4150 -1.3089  0.7638
 1115SOL    HW3 4514   2.927   1.533   1.810 -0.6565  1.2765  0.2609
 1115SOL    MW4 4515   2.943   1.520   1.895 -0.2897 -0.7310 -0.0716
 1116SOL     OW 4516   2.706   1.649   1.962  0.0202  0.1796  0.3560
 1116SOL    HW2 4517   2.789   1.603   1.950 -0.2036 -0.2660  0.5154
 1116SOL    HW3 4518   2.640   1.592   1.923 -0.4916 -0.4986  2.1677
 1116SOL    MW4 4519   2.708   1.636   1.956 -0.0768  0.0315  0.6161
 1117SOL     OW 4520   2.660   1.914   1.882  0.7830  0.2313  0.2099
 1117SOL    HW2 4521   2.736   1.958   1.920  0.6678 -0.3192  1.0945
 1117SOL    HW3 4522   2.675   1.821   1.900 -0.2194  0.1388  0.6335
 1117SOL    MW4 4523   2.672   1.908   1.890  0.6354  0.1465  0.3825
 1118SOL     OW 4524   2.879   2.056   1.953  0.0886  0.3944 -0.0951
 1118SOL    HW2 4525   2.884   2.061   2.049 -0.4572  1.4158 -0.1203
 1118SOL    HW3 4526   2.953   2.000   1.929  1.2880  1.5545  0.8026
 1118SOL    MW4 4527   2.890   2.049   1.963  0.1748  0.6824  0.0199
 1119SOL     OW 4528   2.903   2.311   1.860  0.3210 -0.1811  0.1794
 1119SOL    HW2 4529   2.985   2.342   1.898 -0.3585  1.0118  0.6744
 1119SOL    HW3 4530   2.890   2.225   1.899  0.1629  0.5878  1.8383
 1119SOL    MW4 4531   2.912   2.304   1.870  0.2105  0.0777  0.4636
 1120SOL     OW 4532   2.697   2.434   2.004 -0.8737 -0.0200  0.0364
 1120SOL    HW2 4533   2.700   2.527   1.982  1.3024  0.2595  1.3048
 1120SOL    HW3 4534   2.766   2.395   1.951 -0.0469 -0.4449  1.4008
 1120SOL    MW4 4535   2.707   2.442   1.994 -0.4776 -0.0396  0.3836
 1121SOL     OW 4536   2.684   2.704   1.907 -0.4158 -0.5164  0.2238
 1121SOL    HW2 4537   2.613   2.762   1.934 -0.5143 -0.7815  0.5490
 1121SOL    HW3 4538   2.681   2.705   1.812  1.9060  2.8536  0.1004
 1121SOL    MW4 4539   2.674   2.711   1.898 -0.1223 -0.1066  0.2503
 1122SOL     OW 4540   2.944   2.793   1.983 -0.2223  0.4135  0.1743
 1122SOL    HW2 4541   2.946   2.878   1.940  0.4819  0.8730  1.1044
 1122SOL    HW3 4542   2.863   2.753   1.954  0.5034  0.4870 -2.0281
 1122SOL    MW4 4543   2.934   2.799   1.974 -0.0339  0.4838  0.0063
 1123SOL     OW 4544   2.924   3.068   1.884  0.3531  0.4133 -0.4358
 1123SOL    HW2 4545   2.997   3.121   1.916  0.8113 -0.2004 -0.4628
 1123SOL    HW3 4546   2.846   3.109   1.923  0.8156  0.2921  0.6433
 1123SOL    MW4 4547   2.923   3.081   1.894  0.4747  0.3166 -0.2970
 1124SOL     OW 4548   2.686   3.178   1.987 -0.1468 -0.1380  0.6005
 1124SOL    HW2 4549   2.671   3.263   1.946  0.0264 -0.3683  0.0579
 1124SOL    HW3 4550   2.604   3.131   1.975  0.1804 -0.5149 -0.2414
 1124SOL    MW4 4551   2.673   3.183   1.980 -0.0808 -0.2182  0.4178
 1125SOL     OW 4552   2.679   3.457   1.925  0.0291 -0.4409 -0.2519
 1125SOL    HW2 4553   2.757   3.508   1.947  0.6197 -1.6815  0.6037
 1125SOL    HW3 4554   2.607   3.519   1.932  0.7713  0.3514  0.4456
 1125SOL    MW4 4555   2.680   3.472   1.929  0.2050 -0.5002 -0.0470
 1126SOL     OW 4556   2.919   3.583   1.972  0.0132  0.0289  0.0866
 1126SOL    HW2 4557   2.927   3.586   2.067  1.0919  1.8124 -0.0292
 1126SOL    HW3 4558   2.995   3.533   1.943 -0.4753 -0.7686  0.1717
 1126SOL    MW4 4559   2.930   3.577   1.980  0.0911  0.1588  0.0826
 1127SOL     OW 4560   2.926   3.861   1.892 -0.3280  0.1479 -0.2809
 1127SOL    HW2 4561   2.912   3.770   1.918  1.0821 -0.0969 -0.3064
 1127SOL    HW3 4562   2.928   3.859   1.796 -1.0906  0.3437 -0.3077
 1127SOL    MW4 4563   2.925   3.849   1.882 -0.2425  0.1409 -0.2877
 1128SOL     OW 4564   2.716   4.000   2.010 -0.3331  0.3023  0.3081
 1128SOL    HW2 4565   2.792   3.948   1.985 -0.8734 -0.5529  0.4238
 1128SOL    HW3 4566   2.642   3.955   1.969 -0.8230  0.8940  0.5355
 1128SOL    MW4 4567   2.716   3.987   2.001 -0.4692  0.2675  0.3533
 1129SOL     OW 4568   2.748   4.276   1.922  0.0939  0.2010 -0.2099
 1129SOL    HW2 4569   2.746   4.184   1.946 -1.4817  0.3893  0.4630
 1129SOL    HW3 4570   2.737   4.277   1.827  1.5701 -0.3599 -0.3871
 1129SOL    MW4 4571   2.746   4.264   1.913  0.0808  0.1521 -0.1444
 1130SOL     OW 4572   2.985   4.405   1.997 -0.3290  0.1053 -0.3168
 1130SOL    HW2 4573   2.976   4.421   2.091 -0.1861  1.5694 -0.5481
 1130SOL    HW3 4574   2.903   4.361   1.973 -1.4508  1.9996  0.0146
 1130SOL    MW4 4575   2.973   4.401   2.006 -0.4582  0.5484 -0.3035
 1131SOL     OW 4576   3.352   0.010   1.894 -0.1513  0.4527 -0.0115
 1131SOL    HW2 4577   3.360  -0.078   1.931 -1.7092  0.2393 -0.1377
 1131SOL    HW3 4578   3.357  -0.003   1.799 -0.9855  0.4137 -0.0566
 1131SOL    MW4 4579   3.353  -0.003   1.886 -0.4673  0.4191 -0.0342
 1132SOL     OW 4580   3.140   0.166   1.973  0.2072 -0.4264 -0.5497
 1132SOL    HW2 4581   3.126   0.149   2.066 -1.4957  0.1488 -0.6956
 1132SOL    HW3 4582   3.212   0.107   1.949  0.5993 -0.6460  1.0928
 1132SOL    MW4 4583   3.148   0.156   1.982  0.0343 -0.3794 -0.3523
 1133SOL     OW 4584   3.183   0.413   1.868  0.6505  0.0600 -0.3195
 1133SOL    HW2 4585   3.176   0.323   1.900  0.0771  0.6367  1.2284
 1133SOL    HW3 4586   3.163   0.407   1.775 -0.1971 -1.3114 -0.0671
 1133SOL    MW4 4587   3.179   0.400   1.860  0.4632 -0.0449 -0.0820
 1134SOL     OW 4588   3.400   0.498   2.001  0.3056 -0.2348  0.4991
 1134SOL    HW2 4589   3.473   0.448   1.966  0.0300 -0.2372 -0.0798
 1134SOL    HW3 4590   3.323   0.463   1.957  0.2234  1.4497 -0.7494
 1134SOL    MW4 4591   3.399   0.487   1.991  0.2582 -0.0129  0.2578
 1135SOL     OW 4592   3.416   0.771   1.934  0.2611  0.0474  0.0901
 1135SOL    HW2 4593   3.330   0.787   1.972  0.2601  0.3281 -0.0280
 1135SOL    HW3 4594   3.426   0.676   1.937 -0.2000 -0.0109 -0.2219
 1135SOL    MW4 4595   3.406   0.761   1.940  0.1998  0.0768  0.0334
 1136SOL     OW 4596   3.179   0.905   1.992  0.1474 -0.4525 -0.4504
 1136SOL    HW2 4597   3.182   0.917   2.087  0.7531 -2.9006 -0.1206
 1136SOL    HW3 4598   3.155   0.991   1.958 -1.0100  0.2341  1.9727
 1136SOL    MW4 4599   3.177   0.918   2.000  0.0744 -0.6849 -0.0873
 1137SOL     OW 4600   3.129   1.155   1.901  0.2931 -0.4742  0.0247
 1137SOL    HW2 4601   3.199   1.203   1.944  0.2020 -0.7658  0.5018
 1137SOL    HW3 4602   3.049   1.189   1.941  0.1199  0.3430 -0.9995
 1137SOL    MW4 4603   3.128   1.166   1.912  0.2582 -0.4050 -0.0476
 1138SOL     OW 4604   3.355   1.252   2.008  0.4890  0.6215  0.6368
 1138SOL    HW2 4605   3.363   1.249   2.103 -0.9484  1.1915  0.7938
 1138SOL    HW3 4606   3.359   1.346   1.986 -1.2590  0.6501  0.3543
 1138SOL    MW4 4607   3.356   1.264   2.017  0.0689  0.7005  0.6201
 1139SOL     OW 4608   3.365   1.502   1.926 -0.0206 -0.1433  0.4365
 1139SOL    HW2 4609   3.444   1.555   1.925  0.3903 -0.7481  0.5147
 1139SOL    HW3 4610   3.300   1.556   1.972 -0.2377  1.1697 -1.3785
 1139SOL    MW4 4611   3.366   1.516   1.932  0.0050 -0.0499  0.2074
 1140SOL     OW 4612   3.145   1.679   1.998 -0.5703  0.0466  0.4489
 1140SOL    HW2 4613   3.145   1.693   2.093  4.1160  0.6499  0.4838
 1140SOL    HW3 4614   3.118   1.763   1.961 -1.2313  0.1674  1.1942
 1140SOL    MW4 4615   3.142   1.692   2.006 -0.0393  0.1422  0.5517
 1141SOL     OW 4616   3.128   1.915   1.868 -0.1949 -0.2471  0.0421
 1141SOL    HW2 4617   3.193   1.966   1.915 -0.1143 -1.2229  1.0127
 1141SOL    HW3 4618   3.147   1.931   1.776  1.1564 -0.1928  0.3224
 1141SOL    MW4 4619   3.139   1.924   1.862 -0.0062 -0.3687  0.2072
 1142SOL     OW 4620   3.341   2.041   1.975 -0.0556 -0.6017  0.2987
 1142SOL    HW2 4621   3.424   2.006   1.945  0.3083  0.4066  0.1134
 1142SOL    HW3 4622   3.339   2.131   1.941 -0.5094 -0.0961  1.6394
 1142SOL    MW4 4623   3.351   2.048   1.967 -0.0677 -0.4017  0.4511
 1143SOL     OW 4624   3.353   2.305   1.882 -0.1604  0.0285 -0.1583
 1143SOL    HW2 4625   3.265   2.331   1.910 -0.3620 -1.9467  1.0859
 1143SOL    HW3 4626   3.343   2.289   1.788 -0.6987  1.5362 -0.3845
 1143SOL    MW4 4627   3.340   2.306   1.873 -0.2580 -0.0331 -0.0241
 1144SOL     OW 4628   3.119   2.429   1.982  0.2041 -0.1514  0.1308
 1144SOL    HW2 4629   3.124   2.426   2.077 -1.3674 -0.1577  0.2307
 1144SOL    HW3 4630   3.143   2.519   1.960  0.1453 -0.0319  0.5557
 1144SOL    MW4 4631   3.123   2.441   1.992 -0.0107 -0.1366  0.1999
 1145SOL     OW 4632   3.173   2.662   1.874  0.4103 -0.0272  0.1735
 1145SOL    HW2 4633   3.085   2.689   1.901  0.8240  0.0946  1.3986
 1145SOL    HW3 4634   3.174   2.677   1.779 -0.4321  1.2646  0.3603
 1145SOL    MW4 4635   3.161   2.668   1.865  0.3538  0.1595  0.3597
 1146SOL     OW 4636   3.392   2.803   1.997 -0.3719  0.3511 -0.1606
 1146SOL    HW2 4637   3.380   2.798   2.092  0.4134  0.5507 -0.0528
 1146SOL    HW3 4638   3.315   2.757   1.961 -0.0084 -0.8744  0.5873
 1146SOL    MW4 4639   3.380   2.796   2.004 -0.2201  0.2155 -0.0477
 1147SOL     OW 4640   3.380   3.053   1.897  0.1008  0.1818  0.0081
 1147SOL    HW2 4641   3.456   3.098   1.933  0.0363 -0.0579  0.4463
 1147SOL    HW3 4642   3.378   2.969   1.944  0.2578 -0.3055 -0.8347
 1147SOL    MW4 4643   3.390   3.048   1.908  0.1132  0.0858 -0.0453
 1148SOL     OW 4644   3.146   3.197   1.982 -0.1153  0.0821 -0.1170
 1148SOL    HW2 4645   3.145   3.281   1.935  0.8170  0.6163  0.8028
 1148SOL    HW3 4646   3.231   3.159   1.960  0.4918  0.5149  1.4417
 1148SOL    MW4 4647   3.157   3.203   1.973  0.0877  0.2096  0.2099
 1149SOL     OW 4648   3.142   3.448   1.856  0.0558 -0.0293 -0.0454
 1149SOL    HW2 4649   3.207   3.510   1.889  0.2700 -0.3465  0.1295
 1149SOL    HW3 4650   3.155   3.448   1.761 -0.4584  0.7666 -0.1184
 1149SOL    MW4 4651   3.152   3.456   1.848  0.0162  0.0339 -0.0317
 1150SOL     OW 4652   3.360   3.573   1.983  0.2082 -0.3592 -0.1956
 1150SOL    HW2 4653   3.439   3.529   1.950 -0.4454 -0.5844 -1.4593
 1150SOL    HW3 4654   3.371   3.664   1.957 -0.1385 -0.4671 -0.7134
 1150SOL    MW4 4655   3.372   3.579   1.975  0.0761 -0.4032 -0.4307
 1151SOL     OW 4656   3.381   3.822   1.875  0.0497  0.0392 -0.1478
 1151SOL    HW2 4657   3.309   3.880   1.899  0.8090  0.9012  0.1077
 1151SOL    HW3 4658   3.396   3.841   1.782  0.1708  0.1092 -0.1140
 1151SOL    MW4 4659   3.374   3.833   1.866  0.1659  0.1621 -0.1096
 1152SOL     OW 4660   3.163   3.968   1.956  0.5870  0.4160 -0.0707
 1152SOL    HW2 4661   3.153   4.004   2.044  0.1284  1.1915 -0.4276
 1152SOL    HW3 4662   3.079   3.927   1.937  0.4580  0.8115 -0.3841
 1152SOL    MW4 4663   3.151   3.967   1.965  0.5095  0.5705 -0.1591
 1153SOL     OW 4664   3.159   4.244   1.865  0.1470 -0.3838  0.4599
 1153SOL    HW2 4665   3.158   4.155   1.902  0.0142 -0.3524  0.5298
 1153SOL    HW3 4666   3.093   4.292   1.914 -0.4676 -0.5094 -0.2476
 1153SOL    MW4 4667   3.150   4.238   1.877  0.0484 -0.3963  0.3756
 1154SOL     OW 4668   3.362   4.403   1.963  0.1094  0.2738  0.2428
 1154SOL    HW2 4669   3.441   4.353   1.948  0.1520  0.8072 -1.3770
 1154SOL    HW3 4670   3.293   4.353   1.921 -0.2374  0.3743  0.6837
 1154SOL    MW4 4671   3.363   4.390   1.956  0.0691  0.3567  0.0871
 1155SOL     OW 4672   3.821   4.632   1.857 -0.5810  0.2371 -0.1451
 1155SOL    HW2 4673   3.829   4.540   1.885  0.1776  0.5803  0.7902
 1155SOL    HW3 4674   3.762   4.672   1.922  0.4757  0.8203  0.4688
 1155SOL    MW4 4675   3.814   4.625   1.870 -0.3414  0.3591  0.0594
 1156SOL     OW 4676   3.615   0.090   1.980 -0.1513 -0.2386  0.5351
 1156SOL    HW2 4677   3.605   0.091   2.075 -0.3832 -2.1104  0.5431
 1156SOL    HW3 4678   3.526   0.077   1.947 -0.1555  0.9950  0.0301
 1156SOL    MW4 4679   3.602   0.089   1.988 -0.1822 -0.3228  0.4696
 1157SOL     OW 4680   3.613   0.348   1.895  0.0568  0.1874 -0.5111
 1157SOL    HW2 4681   3.608   0.256   1.922 -1.9205  0.3185 -0.3451
 1157SOL    HW3 4682   3.595   0.346   1.801  0.5088  0.3693 -0.6039
 1157SOL    MW4 4683   3.610   0.336   1.886 -0.1445  0.2286 -0.5014
 1158SOL     OW 4684   3.851   0.478   1.944 -0.4341 -0.2379 -0.1392
 1158SOL    HW2 4685   3.843   0.572   1.932 -0.5695  0.0484  1.9019
 1158SOL    HW3 4686   3.769   0.441   1.911 -1.2903  0.5896  1.0020
 1158SOL    MW4 4687   3.839   0.485   1.938 -0.5651 -0.0910  0.2807
 1159SOL     OW 4688   3.840   0.752   1.876 -0.7961  0.2880  0.4905
 1159SOL    HW2 4689   3.769   0.806   1.912 -0.6961  2.3652 -2.2481
 1159SOL    HW3 4690   3.826   0.754   1.782  0.8254 -2.3122  0.1450
 1159SOL    MW4 4691   3.829   0.759   1.869 -0.5691  0.2191  0.0836
 1160SOL     OW 4692   3.645   0.919   1.999  0.1206 -0.2618  0.1186
 1160SOL    HW2 4693   3.649   1.010   1.969 -0.2180  0.1597  1.3353
 1160SOL    HW3 4694   3.555   0.893   1.984 -0.1364  0.0622  1.0951
 1160SOL    MW4 4695   3.634   0.928   1.993  0.0420 -0.1634  0.4081
 1161SOL     OW 4696   3.625   1.206   1.940 -0.4933  0.5697 -0.3146
 1161SOL    HW2 4697   3.535   1.211   1.971 -0.6208 -1.9606 -0.1798
 1161SOL    HW3 4698   3.617   1.191   1.846 -0.1931  1.1017 -0.4282
 1161SOL    MW4 4699   3.612   1.205   1.932 -0.4704  0.3061 -0.3119
 1162SOL     OW 4700   3.866   1.313   2.037  0.3027  0.3170 -0.5205
 1162SOL    HW2 4701   3.849   1.292   2.129  0.4408 -1.0467 -0.7956
 1162SOL    HW3 4702   3.788   1.283   1.991 -0.2462  2.0063 -0.7277
 1162SOL    MW4 4703   3.853   1.307   2.043  0.2484  0.3598 -0.5841
 1163SOL     OW 4704   3.844   1.570   1.899 -0.0580 -0.2836 -0.4987
 1163SOL    HW2 4705   3.912   1.634   1.921  0.1038 -0.2795 -1.0028
 1163SOL    HW3 4706   3.870   1.490   1.946 -0.9443  0.3825  1.1498
 1163SOL    MW4 4707   3.857   1.568   1.908 -0.1535 -0.1951 -0.3477
 1164SOL     OW 4708   3.581   1.652   1.940 -0.0518 -0.3041  0.3907
 1164SOL    HW2 4709   3.581   1.748   1.940  0.7016 -0.2801 -1.2402
 1164SOL    HW3 4710   3.674   1.629   1.932 -0.2732 -1.1670  0.3116
 1164SOL    MW4 4711   3.594   1.662   1.939  0.0181 -0.4147  0.1650
 1165SOL     OW 4712   3.589   1.951   1.915  0.3286 -0.4445 -0.4278
 1165SOL    HW2 4713   3.668   1.970   1.965  0.0083 -0.8385  0.2255
 1165SOL    HW3 4714   3.617   1.954   1.823  1.3884 -1.8880 -0.1619
 1165SOL    MW4 4715   3.603   1.954   1.909  0.4261 -0.6870 -0.3065
 1166SOL     OW 4716   3.856   2.033   2.024  0.1631 -0.0429 -0.3399
 1166SOL    HW2 4717   3.934   1.988   1.991  0.7334  1.1316 -0.5926
 1166SOL    HW3 4718   3.853   2.115   1.976 -2.1875 -0.7860 -1.5605
 1166SOL    MW4 4719   3.866   2.038   2.013 -0.0715  0.0141 -0.5341
 1167SOL     OW 4720   3.835   2.293   1.896  0.1363 -0.1720  0.2201
 1167SOL    HW2 4721   3.897   2.354   1.937  0.4405 -0.4086  0.1083
 1167SOL    HW3 4722   3.749   2.321   1.930  0.3328 -0.0395  0.6168
 1167SOL    MW4 4723   3.832   2.305   1.906  0.2024 -0.1857  0.2577
 1168SOL     OW 4724   3.589   2.416   2.015 -0.4214 -0.1014 -0.4161
 1168SOL    HW2 4725   3.600   2.504   1.979 -0.3677 -0.1472 -0.5138
 1168SOL    HW3 4726   3.504   2.387   1.982 -0.7020  0.1403  0.1001
 1168SOL    MW4 4727   3.579   2.424   2.006 -0.4516 -0.0756 -0.3610
 1169SOL     OW 4728   3.632   2.670   1.907  0.1679  0.8146 -0.1942
 1169SOL    HW2 4729   3.704   2.733   1.904  0.5647  0.4085  0.5691
 1169SOL    HW3 4730   3.556   2.721   1.936  0.0186  1.3501 -1.4816
 1169SOL    MW4 4731   3.631   2.685   1.910  0.2007  0.8316 -0.2633
 1170SOL     OW 4732   3.849   2.834   1.970 -0.0761 -0.0080 -0.0487
 1170SOL    HW2 4733   3.840   2.830   2.065 -0.5237  0.0953 -0.0830
 1170SOL    HW3 4734   3.837   2.927   1.950  0.4536  0.0333 -0.1630
 1170SOL    MW4 4735   3.846   2.846   1.980 -0.0653  0.0112 -0.0683
 1171SOL     OW 4736   3.835   3.095   1.887 -0.0590 -0.1373 -0.2032
 1171SOL    HW2 4737   3.758   3.142   1.919  0.1754  0.5849 -0.6908
 1171SOL    HW3 4738   3.833   3.107   1.792  0.7492  0.0363 -0.2036
 1171SOL    MW4 4739   3.825   3.103   1.878  0.0787 -0.0191 -0.2675
 1172SOL     OW 4740   3.608   3.204   2.008 -0.3606  0.3739 -0.3100
 1172SOL    HW2 4741   3.611   3.209   2.103 -1.1165  0.2284 -0.2768
 1172SOL    HW3 4742   3.601   3.295   1.979  2.6192  0.6318 -0.3396
 1172SOL    MW4 4743   3.608   3.216   2.017 -0.0672  0.3886 -0.3092
 1173SOL     OW 4744   3.603   3.464   1.877 -0.4556 -0.1324  0.3105
 1173SOL    HW2 4745   3.666   3.531   1.905 -1.0856  0.9049 -0.7045
 1173SOL    HW3 4746   3.613   3.459   1.782 -0.8752 -1.0229  0.3047
 1173SOL    MW4 4747   3.612   3.472   1.868 -0.5941 -0.1128  0.1758
 1174SOL     OW 4748   3.812   3.639   1.976  0.1641  0.2166  0.0445
 1174SOL    HW2 4749   3.885   3.584   1.949 -0.4967  0.0406 -1.4480
 1174SOL    HW3 4750   3.820   3.717   1.921 -0.5000  0.3909  0.1967
 1174SOL    MW4 4751   3.823   3.642   1.965 -0.0107  0.2165 -0.1324
 1175SOL     OW 4752   3.858   3.867   1.825 -0.0398 -0.4863 -0.3266
 1175SOL    HW2 4753   3.777   3.901   1.863  0.0133  0.9130 -1.3949
 1175SOL    HW3 4754   3.842   3.869   1.731  1.1439 -0.4164 -0.5280
 1175SOL    MW4 4755   3.845   3.872   1.818  0.1233 -0.2923 -0.4940
 1176SOL     OW 4756   3.625   3.974   1.952 -0.1938  0.2987  0.1580
 1176SOL    HW2 4757   3.627   3.986   2.047 -0.2002  0.9588  0.0771
 1176SOL    HW3 4758   3.541   3.933   1.935 -0.1818  0.1508  0.4359
 1176SOL    MW4 4759   3.614   3.970   1.962 -0.1931  0.3662  0.1839
 1177SOL     OW 4760   3.588   4.247   1.892  0.0701  0.1296  0.2475
 1177SOL    HW2 4761   3.676   4.284   1.901  0.0769  0.3204 -0.5975
 1177SOL    HW3 4762   3.600   4.153   1.909  0.1563  0.4050  1.7634
 1177SOL    MW4 4763   3.601   4.239   1.896  0.0820  0.1912  0.3359
 1178SOL     OW 4764   3.816   4.383   1.969  0.2845  0.1091  0.2202
 1178SOL    HW2 4765   3.791   4.369   2.061  0.3508 -0.5975  0.1392
 1178SOL    HW3 4766   3.906   4.349   1.964  0.2043 -0.0474 -0.1552
 1178SOL    MW4 4767   3.825   4.376   1.981  0.2825 -0.0043  0.1599
 1179SOL     OW 4768   4.276   4.632   1.875  0.5011  0.4258 -0.5224
 1179SOL    HW2 4769   4.194   4.660   1.915 -0.1789 -2.0831 -0.0997
 1179SOL    HW3 4770   4.341   4.694   1.908 -0.8757  1.2397  0.7059
 1179SOL    MW4 4771   4.274   4.644   1.884  0.2298  0.2022 -0.3045
 1180SOL     OW 4772   4.043   0.104   1.953 -0.1261  0.5045  0.3059
 1180SOL    HW2 4773   4.035   0.091   2.047  0.6578 -0.8623  0.2057
 1180SOL    HW3 4774   3.968   0.056   1.916 -0.2892  0.8258  0.2144
 1180SOL    MW4 4775   4.032   0.096   1.960 -0.0443  0.3665  0.2806
 1181SOL     OW 4776   4.077   0.360   1.853  0.0221 -0.2596 -0.0543
 1181SOL    HW2 4777   4.068   0.274   1.893 -0.7921 -0.4078 -0.5536
 1181SOL    HW3 4778   3.998   0.407   1.879  0.7959  0.5905  0.8200
 1181SOL    MW4 4779   4.065   0.355   1.861  0.0172 -0.1670 -0.0048
 1182SOL     OW 4780   4.267   0.513   1.980  0.3817 -0.0541 -0.0827
 1182SOL    HW2 4781   4.262   0.509   2.075  1.5707 -0.4475 -0.0412
 1182SOL    HW3 4782   4.196   0.456   1.950 -0.3449  0.5003  0.5602
 1182SOL    MW4 4783   4.257   0.505   1.988  0.4430 -0.0329  0.0076
 1183SOL     OW 4784   4.280   0.765   1.874  0.5787  0.1037 -0.4079
 1183SOL    HW2 4785   4.272   0.673   1.900  1.0187  0.4861  1.1736
 1183SOL    HW3 4786   4.280   0.763   1.779 -0.4207 -1.4423 -0.3995
 1183SOL    MW4 4787   4.279   0.752   1.865  0.5054 -0.0498 -0.1980
 1184SOL     OW 4788   4.057   0.908   1.973 -0.3043 -0.0217 -0.3808
 1184SOL    HW2 4789   4.133   0.857   1.947 -1.0497 -1.8197  0.9222
 1184SOL    HW3 4790   3.983   0.865   1.931 -1.1677 -1.2130  2.2254
 1184SOL    MW4 4791   4.057   0.896   1.964 -0.5169 -0.4161  0.1348
 1185SOL     OW 4792   4.044   1.186   1.877  0.0015  0.0031 -0.0764
 1185SOL    HW2 4793   4.053   1.097   1.909 -1.0014 -0.0786 -0.0154
 1185SOL    HW3 4794   3.994   1.231   1.945 -0.1685  0.4083 -0.4685
 1185SOL    MW4 4795   4.039   1.180   1.890 -0.1535  0.0458 -0.1202
 1186SOL     OW 4796   4.288   1.273   1.989 -0.2846  0.3183 -0.0284
 1186SOL    HW2 4797   4.280   1.271   2.085 -0.1115 -0.4314 -0.0232
 1186SOL    HW3 4798   4.203   1.242   1.958 -0.5079  1.0239 -0.1288
 1186SOL    MW4 4799   4.276   1.268   1.998 -0.2913  0.3124 -0.0409
 1187SOL     OW 4800   4.247   1.512   1.842  0.8434 -0.1788  0.0405
 1187SOL    HW2 4801   4.269   1.429   1.884  1.4664 -0.2907 -0.4859
 1187SOL    HW3 4802   4.250   1.492   1.748 -0.8629 -0.0180 -0.0675
 1187SOL    MW4 4803   4.250   1.498   1.835  0.7000 -0.1725 -0.0433
 1188SOL     OW 4804   4.083   1.697   1.998 -0.5487  0.0325 -0.1108
 1188SOL    HW2 4805   4.086   1.673   2.090 -0.4761  0.6183  0.0404
 1188SOL    HW3 4806   4.144   1.636   1.955 -1.7743 -1.2729 -0.0089
 1188SOL    MW4 4807   4.092   1.686   2.004 -0.7010 -0.0625 -0.0772
 1189SOL     OW 4808   4.070   1.939   1.880  0.0183  0.1114 -0.9007
 1189SOL    HW2 4809   4.065   1.853   1.922  0.6138  1.0404  1.1543
 1189SOL    HW3 4810   4.067   1.920   1.786 -3.4270 -1.8882 -0.4695
 1189SOL    MW4 4811   4.069   1.925   1.873 -0.3586 -0.0299 -0.5727
 1190SOL     OW 4812   4.313   2.049   1.980 -0.0766 -0.1032  0.2692
 1190SOL    HW2 4813   4.295   2.041   2.074  0.2798 -0.6355  0.2947
 1190SOL    HW3 4814   4.240   2.005   1.937 -1.1130  1.6079  0.2419
 1190SOL    MW4 4815   4.301   2.042   1.987 -0.1659  0.0522  0.2689
 1191SOL     OW 4816   4.263   2.335   1.942  0.2353  0.3501  0.1775
 1191SOL    HW2 4817   4.266   2.245   1.975 -0.1868 -0.2318 -1.3257
 1191SOL    HW3 4818   4.350   2.370   1.961  0.2164 -0.1800  1.2987
 1191SOL    MW4 4819   4.275   2.328   1.949  0.1774  0.2031  0.1271
 1192SOL     OW 4820   4.024   2.468   1.995  0.6851  0.0146 -0.1225
 1192SOL    HW2 4821   4.007   2.454   2.089 -1.1885  1.6914 -0.1942
 1192SOL    HW3 4822   4.099   2.411   1.976  0.8469 -0.6399  2.3053
 1192SOL    MW4 4823   4.032   2.458   2.005  0.4592  0.1495  0.1884
 1193SOL     OW 4824   4.086   2.729   1.888 -0.2823 -0.2066 -0.2986
 1193SOL    HW2 4825   4.073   2.639   1.918 -0.9256 -0.0577 -0.1170
 1193SOL    HW3 4826   4.016   2.778   1.931  0.1744  0.4080 -0.2636
 1193SOL    MW4 4827   4.075   2.723   1.898 -0.3071 -0.1056 -0.2700
 1194SOL     OW 4828   4.298   2.866   1.992  0.0747 -0.1277 -0.0319
 1194SOL    HW2 4829   4.303   2.847   2.086  1.1515  0.4534  0.0424
 1194SOL    HW3 4830   4.223   2.816   1.961  0.2686 -1.0686  0.9660
 1194SOL    MW4 4831   4.289   2.857   2.001  0.2422 -0.1748  0.1097
 1195SOL     OW 4832   4.294   3.133   1.925  0.2397 -0.6912 -0.4349
 1195SOL    HW2 4833   4.209   3.170   1.948  0.6778 -0.8438  1.5686
 1195SOL    HW3 4834   4.280   3.038   1.927  0.7355 -0.7535  1.1903
 1195SOL    MW4 4835   4.281   3.125   1.929  0.3629 -0.7193  0.0440
 1196SOL     OW 4836   4.042   3.238   1.978  0.0494  0.0606  0.2197
 1196SOL    HW2 4837   4.023   3.241   2.071 -0.3200 -2.1910  0.2255
 1196SOL    HW3 4838   3.974   3.182   1.941  1.7887 -1.3167 -0.9784
 1196SOL    MW4 4839   4.031   3.231   1.985  0.2308 -0.4182  0.0625
 1197SOL     OW 4840   4.024   3.498   1.896 -0.2526 -0.0748 -0.2503
 1197SOL    HW2 4841   4.104   3.541   1.924 -0.1257  0.1835 -0.9845
 1197SOL    HW3 4842   4.028   3.411   1.936  0.8486 -0.3914 -1.0157
 1197SOL    MW4 4843   4.035   3.492   1.905 -0.0906 -0.0825 -0.4480
 1198SOL     OW 4844   4.266   3.602   1.969 -0.1375 -0.7401 -0.1860
 1198SOL    HW2 4845   4.278   3.695   1.947 -1.2015 -0.5914 -0.1332
 1198SOL    HW3 4846   4.353   3.564   1.955  0.1336  0.1150 -0.9456
 1198SOL    MW4 4847   4.279   3.609   1.964 -0.2418 -0.6075 -0.2793
 1199SOL     OW 4848   4.289   3.870   1.933  0.2115  0.1995 -0.1077
 1199SOL    HW2 4849   4.371   3.920   1.940 -0.1272  0.6604  0.6782
 1199SOL    HW3 4850   4.268   3.872   1.840  0.2237  1.4943 -0.0978
 1199SOL    MW4 4851   4.297   3.877   1.922  0.1683  0.4311 -0.0026
 1200SOL     OW 4852   4.047   3.994   1.993 -0.2452 -0.1458  0.0319
 1200SOL    HW2 4853   4.136   3.960   1.986 -0.2443 -0.4011  1.1988
 1200SOL    HW3 4854   3.995   3.939   1.934  0.5241  0.5843 -1.3488
 1200SOL    MW4 4855   4.052   3.983   1.985 -0.1435 -0.0830  0.0037
 1201SOL     OW 4856   4.068   4.262   1.882 -0.0742 -0.0280 -0.1194
 1201SOL    HW2 4857   4.133   4.310   1.935  2.3088 -2.1912 -0.9749
 1201SOL    HW3 4858   4.064   4.175   1.922 -1.1532 -0.4701 -1.1513
 1201SOL    MW4 4859   4.076   4.257   1.894  0.0973 -0.3715 -0.3684
 1202SOL     OW 4860   4.286   4.404   2.009 -0.2926  0.1906 -0.1517
 1202SOL    HW2 4861   4.268   4.421   2.101 -1.1687 -0.6192 -0.1643
 1202SOL    HW3 4862   4.301   4.491   1.971  2.0344  0.3824  1.1342
 1202SOL    MW4 4863   4.285   4.418   2.016 -0.1011  0.1087  0.0165
 1203SOL     OW 4864   0.199   4.618   2.356 -0.4187 -0.0192  0.3706
 1203SOL    HW2 4865   0.197   4.629   2.451  0.3382 -0.3580  0.4335
 1203SOL    HW3 4866   0.283   4.657   2.329 -0.6655  0.1487 -0.1660
 1203SOL    MW4 4867   0.210   4.625   2.365 -0.3514 -0.0415  0.3080
 1204SOL     OW 4868   4.467   0.109   2.263  0.3670  0.2188 -0.0884
 1204SOL    HW2 4869   4.543   0.065   2.302  0.0741 -0.0382  0.1953
 1204SOL    HW3 4870   4.483   0.103   2.168  0.6625  0.0959 -0.0328
 1204SOL    MW4 4871   4.479   0.102   2.255  0.3672  0.1687 -0.0436
 1205SOL     OW 4872   4.460   0.368   2.405  0.2180 -0.3677 -0.0806
 1205SOL    HW2 4873   4.519   0.418   2.349  1.4296 -1.2445  0.3628
 1205SOL    HW3 4874   4.446   0.286   2.357  1.1115 -1.0439  0.7826
 1205SOL    MW4 4875   4.466   0.363   2.391  0.4954 -0.5726  0.0920
 1206SOL     OW 4876   0.205   0.475   2.300 -0.0277 -0.2499  0.4101
 1206SOL    HW2 4877   0.280   0.421   2.326 -0.5160 -1.1075  0.0835
 1206SOL    HW3 4878   0.207   0.475   2.204  1.3120  2.2506  0.4029
 1206SOL    MW4 4879   0.215   0.468   2.291  0.0846 -0.0331  0.3660
 1207SOL     OW 4880   0.195   0.741   2.352 -0.7879 -0.1311  0.0117
 1207SOL    HW2 4881   0.207   0.758   2.446 -0.7338  1.4574 -0.2661
 1207SOL    HW3 4882   0.196   0.645   2.345 -1.5417 -0.2887  1.7243
 1207SOL    MW4 4883   0.197   0.730   2.364 -0.8803  0.0577  0.2010
 1208SOL     OW 4884   0.016   0.904   2.267  0.1026 -0.2905 -0.0618
 1208SOL    HW2 4885   0.092   0.853   2.293  1.0854 -0.0206 -2.2946
 1208SOL    HW3 4886   0.022   0.909   2.172 -0.3326  3.3711  0.0143
 1208SOL    MW4 4887   0.027   0.898   2.258  0.1749  0.2282 -0.3464
 1209SOL     OW 4888   0.003   1.163   2.383  0.5208  0.0714 -0.1030
 1209SOL    HW2 4889  -0.004   1.147   2.477 -3.1252 -0.1738 -0.3142
 1209SOL    HW3 4890  -0.002   1.076   2.343  0.0301  0.2981 -0.5512
 1209SOL    MW4 4891   0.001   1.149   2.390 -0.0253  0.0690 -0.1903
 1210SOL     OW 4892   0.248   1.264   2.306  0.5882  0.0376 -0.2499
 1210SOL    HW2 4893   0.164   1.227   2.331  1.2107 -1.6821 -0.5896
 1210SOL    HW3 4894   0.246   1.266   2.210  0.7195  0.5279 -0.2457
 1210SOL    MW4 4895   0.237   1.259   2.296  0.6876 -0.1246 -0.2942
 1211SOL     OW 4896   0.199   1.548   2.349  0.2911  0.3266 -0.2402
 1211SOL    HW2 4897   0.210   1.550   2.444 -0.7147 -2.4396 -0.0077
 1211SOL    HW3 4898   0.220   1.458   2.325  1.4089  1.2263 -2.7739
 1211SOL    MW4 4899   0.203   1.536   2.359  0.3059  0.0805 -0.5441
 1212SOL     OW 4900   4.433   1.651   2.248 -0.3111 -0.1533  0.1882
 1212SOL    HW2 4901   4.433   1.736   2.291  1.0240 -0.1265  0.1423
 1212SOL    HW3 4902   4.516   1.610   2.275 -0.0883 -0.6822 -1.2682
 1212SOL    MW4 4903   4.444   1.657   2.258 -0.1054 -0.2196 -0.0098
 1213SOL     OW 4904   4.470   1.892   2.371 -0.1284  0.3052 -0.3858
 1213SOL    HW2 4905   4.396   1.934   2.328 -0.3782  0.4659  0.1933
 1213SOL    HW3 4906   4.547   1.935   2.334 -0.2034 -1.5327 -2.7987
 1213SOL    MW4 4907   4.470   1.903   2.360 -0.1717  0.0838 -0.6278
 1214SOL     OW 4908   0.211   2.034   2.280 -0.2007 -0.1988 -0.4274
 1214SOL    HW2 4909   0.280   1.980   2.318  0.4417  0.3932 -0.7562
 1214SOL    HW3 4910   0.230   2.035   2.186 -0.5473  0.1298 -0.4974
 1214SOL    MW4 4911   0.222   2.027   2.273 -0.1617 -0.0772 -0.4802
 1215SOL     OW 4912   0.252   2.296   2.376 -0.3817 -0.5285 -0.1064
 1215SOL    HW2 4913   0.248   2.273   2.469 -2.2255 -0.6446 -0.1887
 1215SOL    HW3 4914   0.220   2.218   2.330 -1.0859  0.1241 -0.7369
 1215SOL    MW4 4915   0.247   2.283   2.382 -0.7178 -0.4575 -0.2005
 1216SOL     OW 4916   0.029   2.430   2.255  1.2446 -0.2978 -0.3147
 1216SOL    HW2 4917   0.030   2.513   2.302 -0.1978  0.5992 -1.8469
 1216SOL    HW3 4918   0.107   2.384   2.287  1.5743  1.2537  1.2040
 1216SOL    MW4 4919   0.040   2.435   2.266  1.0977  0.0255 -0.3166
 1217SOL     OW 4920   0.006   2.690   2.401  0.2159  0.7012  0.3359
 1217SOL    HW2 4921  -0.003   2.700   2.495  0.6721 -1.0860  0.5908
 1217SOL    HW3 4922   0.072   2.754   2.375  0.5149  0.7893  1.3196
 1217SOL    MW4 4923   0.013   2.700   2.410  0.3155  0.4771  0.4992
 1218SOL     OW 4924   0.221   2.850   2.308 -0.4526  0.0196  0.0308
 1218SOL    HW2 4925   0.280   2.778   2.332 -1.4755 -0.8130  0.1141
 1218SOL    HW3 4926   0.218   2.848   2.213 -0.7405 -0.2797  0.0425
 1218SOL    MW4 4927   0.228   2.840   2.299 -0.6255 -0.1295  0.0434
 1219SOL     OW 4928   0.225   3.120   2.379 -0.0821  0.3132 -0.0793
 1219SOL    HW2 4929   0.148   3.163   2.342  0.4106  0.6120 -0.7670
 1219SOL    HW3 4930   0.220   3.030   2.348 -0.3679  0.2257  0.2137
 1219SOL    MW4 4931   0.214   3.114   2.370 -0.0548  0.3409 -0.1316
 1220SOL     OW 4932   4.485   3.237   2.277  0.2213  0.4075  0.1414
 1220SOL    HW2 4933   4.485   3.331   2.298  1.7203  0.3381  0.5569
 1220SOL    HW3 4934   4.489   3.234   2.182  0.4262  0.7862  0.1345
 1220SOL    MW4 4935   4.486   3.249   2.267  0.4454  0.4485  0.1953
 1221SOL     OW 4936   4.484   3.503   2.340  0.3872  0.1045 -0.3256
 1221SOL    HW2 4937   4.479   3.497   2.436 -0.1108 -0.1299 -0.3687
 1221SOL    HW3 4938   4.400   3.539   2.314  0.6781  0.5537 -0.6466
 1221SOL    MW4 4939   4.472   3.507   2.349  0.3605  0.1330 -0.3736
 1222SOL     OW 4940   0.224   3.633   2.259 -0.2551  0.1490  0.3105
 1222SOL    HW2 4941   0.298   3.589   2.303  0.3030 -0.3846 -1.1424
 1222SOL    HW3 4942   0.147   3.585   2.291  0.0638  0.2979  1.3464
 1222SOL    MW4 4943   0.224   3.621   2.269 -0.1394  0.0980  0.2553
 1223SOL     OW 4944   0.219   3.879   2.386  0.2042  0.5118  0.3975
 1223SOL    HW2 4945   0.146   3.930   2.350 -0.5264 -0.1282  0.9434
 1223SOL    HW3 4946   0.223   3.801   2.331  0.0323  0.2298  0.7762
 1223SOL    MW4 4947   0.210   3.875   2.374  0.0851  0.3898  0.5198
 1224SOL     OW 4948   0.008   4.020   2.286 -0.0579  0.0691  0.3534
 1224SOL    HW2 4949   0.015   4.104   2.331 -1.1567  0.6384 -0.4970
 1224SOL    HW3 4950   0.019   4.042   2.193  1.7938 -1.0295  0.3062
 1224SOL    MW4 4951   0.010   4.034   2.280  0.0414 -0.0010  0.2348
 1225SOL     OW 4952   0.008   4.286   2.366 -0.5107 -0.1441  0.3877
 1225SOL    HW2 4953   0.033   4.286   2.458  1.0120  0.7062 -0.0121
 1225SOL    HW3 4954   0.081   4.328   2.321 -0.5650 -1.8738 -1.3890
 1225SOL    MW4 4955   0.021   4.292   2.372 -0.3166 -0.2594  0.1004
 1226SOL     OW 4956   0.234   4.393   2.218 -0.0276  0.6565 -0.0011
 1226SOL    HW2 4957   0.304   4.352   2.268 -1.3464 -0.3008  1.1070
 1226SOL    HW3 4958   0.213   4.473   2.267  0.3849  1.0143 -0.4082
 1226SOL    MW4 4959   0.240   4.398   2.231 -0.1472  0.5774  0.0916
 1227SOL     OW 4960   0.673   4.655   2.350 -0.5253  0.3907  0.2042
 1227SOL    HW2 4961   0.679   4.658   2.445  0.3090 -2.0416  0.2734
 1227SOL    HW3 4962   0.742   4.713   2.319  0.5127 -0.3358  1.1041
 1227SOL    MW4 4963   0.683   4.663   2.358 -0.2783 -0.0262  0.3324
 1228SOL     OW 4964   0.438   0.108   2.275 -0.0851 -0.1855 -0.4171
 1228SOL    HW2 4965   0.520   0.061   2.289 -0.7303 -1.4923 -0.8570
 1228SOL    HW3 4966   0.426   0.108   2.180  0.0593  1.1694 -0.4459
 1228SOL    MW4 4967   0.447   0.102   2.264 -0.1512 -0.1792 -0.4790
 1229SOL     OW 4968   0.432   0.359   2.391  0.1807 -0.3690 -0.1005
 1229SOL    HW2 4969   0.437   0.358   2.487 -0.9238 -0.5496 -0.0473
 1229SOL    HW3 4970   0.450   0.269   2.365 -2.0024 -0.8529  0.0567
 1229SOL    MW4 4971   0.435   0.347   2.401 -0.2531 -0.4567 -0.0730
 1230SOL     OW 4972   0.670   0.486   2.338 -0.2945  0.3963 -0.4361
 1230SOL    HW2 4973   0.664   0.579   2.356 -0.9262  0.1335  0.7412
 1230SOL    HW3 4974   0.579   0.455   2.340 -0.0590 -0.3097 -0.4871
 1230SOL    MW4 4975   0.657   0.494   2.340 -0.3468  0.2685 -0.2878
 1231SOL     OW 4976   0.683   0.756   2.375  0.3320 -0.2697 -0.3315
 1231SOL    HW2 4977   0.680   0.775   2.469  0.3761 -1.5126 -0.0777
 1231SOL    HW3 4978   0.602   0.795   2.341 -0.7944 -1.7675  0.5898
 1231SOL    MW4 4979   0.672   0.764   2.383  0.1892 -0.6313 -0.1767
 1232SOL     OW 4980   0.450   0.861   2.264 -0.1116 -0.4056  0.2169
 1232SOL    HW2 4981   0.362   0.829   2.288  0.4212 -0.7401  1.8188
 1232SOL    HW3 4982   0.439   0.898   2.177 -1.8398 -0.5092  0.3650
 1232SOL    MW4 4983   0.437   0.861   2.256 -0.2694 -0.4634  0.4478
 1233SOL     OW 4984   0.462   1.120   2.388  0.2969 -0.3386 -0.1617
 1233SOL    HW2 4985   0.460   1.028   2.359  0.0684  0.0049 -1.2472
 1233SOL    HW3 4986   0.380   1.157   2.356  0.3092  0.2014  0.4288
 1233SOL    MW4 4987   0.451   1.113   2.380  0.2683 -0.2218 -0.2272
 1234SOL     OW 4988   0.675   1.272   2.254 -0.3918 -0.8017  0.5188
 1234SOL    HW2 4989   0.681   1.347   2.313 -0.5044 -0.2613 -0.1513
 1234SOL    HW3 4990   0.592   1.229   2.278 -0.1641 -0.9130  1.1240
 1234SOL    MW4 4991   0.665   1.276   2.265 -0.3766 -0.7452  0.5105
 1235SOL     OW 4992   0.676   1.539   2.354  0.0567  0.3472 -0.2567
 1235SOL    HW2 4993   0.686   1.529   2.449 -0.6777 -1.5589 -0.3577
 1235SOL    HW3 4994   0.755   1.584   2.326  2.2540 -2.7311  0.7263
 1235SOL    MW4 4995   0.687   1.543   2.363  0.2497 -0.3103 -0.1404
 1236SOL     OW 4996   0.437   1.664   2.254  0.4454  0.0736  0.3730
 1236SOL    HW2 4997   0.511   1.619   2.296  0.3350 -0.5006 -0.0483
 1236SOL    HW3 4998   0.361   1.634   2.303  0.3620 -0.2793  0.0333
 1236SOL    MW4 4999   0.437   1.654   2.266  0.4198 -0.0488  0.2725
 1237SOL     OW 5000   0.423   1.905   2.381 -0.6156  0.3686  0.5749
 1237SOL    HW2 5001   0.497   1.959   2.355 -2.1044  2.4070  0.4957
 1237SOL    HW3 5002   0.437   1.822   2.334  1.4680  0.7858  0.3921
 1237SOL    MW4 5003   0.435   1.901   2.371 -0.5371  0.6925  0.5403
 1238SOL     OW 5004   0.641   2.044   2.275  0.0376 -0.2516 -0.2769
 1238SOL    HW2 5005   0.718   1.990   2.293 -1.3213 -2.1425  0.0309
 1238SOL    HW3 5006   0.663   2.130   2.311  2.2887 -0.5391 -0.8726
 1238SOL    MW4 5007   0.654   2.048   2.282  0.1553 -0.5391 -0.3150
 1239SOL     OW 5008   0.681   2.294   2.392 -0.1935 -0.2093 -0.1186
 1239SOL    HW2 5009   0.671   2.293   2.487 -0.6056  1.5061 -0.1190
 1239SOL    HW3 5010   0.764   2.340   2.378 -0.6362  0.4538 -0.6052
 1239SOL    MW4 5011   0.691   2.300   2.402 -0.3063  0.1044 -0.1829
 1240SOL     OW 5012   0.483   2.421   2.277 -0.6133 -0.1757 -0.3405
 1240SOL    HW2 5013   0.564   2.392   2.319  0.7072  1.1124 -1.9356
 1240SOL    HW3 5014   0.418   2.355   2.302  1.0209 -1.4588  0.6174
 1240SOL    MW4 5015   0.485   2.408   2.286 -0.2234 -0.1750 -0.4241
 1241SOL     OW 5016   0.415   2.666   2.399  0.1410  0.2819 -0.3602
 1241SOL    HW2 5017   0.428   2.670   2.494 -0.2019  1.2786 -0.3588
 1241SOL    HW3 5018   0.434   2.574   2.377 -0.6831 -0.1809  0.8036
 1241SOL    MW4 5019   0.419   2.654   2.409 -0.0129  0.3526 -0.2062
 1242SOL     OW 5020   0.620   2.805   2.266  0.4214 -0.3088 -0.5064
 1242SOL    HW2 5021   0.705   2.772   2.297  0.5858  1.1520  0.6322
 1242SOL    HW3 5022   0.556   2.755   2.316  0.6557  0.0620  0.1858
 1242SOL    MW4 5023   0.623   2.794   2.277  0.4740 -0.0672 -0.2649
 1243SOL     OW 5024   0.680   3.068   2.379  0.0999  0.0206 -0.1097
 1243SOL    HW2 5025   0.616   3.126   2.339 -0.9118  0.7171  2.4456
 1243SOL    HW3 5026   0.663   2.983   2.338 -2.0208  0.3415  0.0409
 1243SOL    MW4 5027   0.669   3.064   2.368 -0.3134  0.1550  0.2472
 1244SOL     OW 5028   0.452   3.234   2.281  0.0747  0.1407 -0.2970
 1244SOL    HW2 5029   0.368   3.208   2.319 -0.3394  1.2327 -0.4553
 1244SOL    HW3 5030   0.439   3.226   2.186  0.0258  0.7022 -0.3360
 1244SOL    MW4 5031   0.439   3.229   2.273  0.0136  0.3588 -0.3231
 1245SOL     OW 5032   0.464   3.496   2.376 -0.0683  0.1827  0.3330
 1245SOL    HW2 5033   0.542   3.540   2.343 -0.7231  1.6008  0.6343
 1245SOL    HW3 5034   0.476   3.405   2.353  0.9954  0.6324 -0.9156
 1245SOL    MW4 5035   0.476   3.490   2.369 -0.0143  0.4292  0.2081
 1246SOL     OW 5036   0.672   3.643   2.294 -0.4306 -0.2529  0.2569
 1246SOL    HW2 5037   0.696   3.729   2.329  0.3041 -0.6951  0.8478
 1246SOL    HW3 5038   0.653   3.660   2.201 -0.2045  0.5233  0.3444
 1246SOL    MW4 5039   0.672   3.657   2.286 -0.3039 -0.2086  0.3464
 1247SOL     OW 5040   0.693   3.907   2.352 -0.2974  0.0392  0.3913
 1247SOL    HW2 5041   0.685   3.902   2.448 -2.0133 -0.4326  0.2442
 1247SOL    HW3 5042   0.609   3.943   2.323  0.9662  2.1223 -0.8147
 1247SOL    MW4 5043   0.681   3.911   2.361 -0.3571  0.2520  0.2127
 1248SOL     OW 5044   0.433   4.003   2.266 -0.2655 -0.3268  0.0081
 1248SOL    HW2 5045   0.356   3.961   2.304 -0.4053 -2.2093 -2.2022
 1248SOL    HW3 5046   0.417   4.002   2.172  2.0004  0.1372 -0.4257
 1248SOL    MW4 5047   0.421   3.997   2.258  0.0150 -0.5140 -0.3407
 1249SOL     OW 5048   0.432   4.264   2.381  0.5266  0.3643 -0.6073
 1249SOL    HW2 5049   0.502   4.319   2.347 -0.0166  0.8858 -0.8920
 1249SOL    HW3 5050   0.458   4.175   2.358  1.2499  0.5328 -0.4273
 1249SOL    MW4 5051   0.444   4.259   2.373  0.5504  0.4554 -0.6208
 1250SOL     OW 5052   0.666   4.375   2.277  0.2629  0.3078 -0.5784
 1250SOL    HW2 5053   0.657   4.467   2.300  0.0725  0.4263 -1.1341
 1250SOL    HW3 5054   0.693   4.375   2.185  1.3094 -0.1646 -0.2748
 1250SOL    MW4 5055   0.669   4.387   2.268  0.3758  0.2608 -0.6118
 1251SOL     OW 5056   1.125   4.634   2.356 -0.3566  0.2892  0.3592
 1251SOL    HW2 5057   1.130   4.620   2.450 -1.1015 -0.5676  0.2863
 1251SOL    HW3 5058   1.042   4.679   2.342 -0.7962 -0.6109  0.0127
 1251SOL    MW4 5059   1.115   4.638   2.366 -0.5128  0.0577  0.3037
 1252SOL     OW 5060   0.901   0.128   2.293  0.2749  0.1755  0.3407
 1252SOL    HW2 5061   0.908   0.210   2.342  0.4658  0.7361 -0.6256
 1252SOL    HW3 5062   0.913   0.153   2.202 -0.1558 -0.8618 -0.0072
 1252SOL    MW4 5063   0.904   0.142   2.288  0.2432  0.1126  0.1674
 1253SOL     OW 5064   0.936   0.417   2.410 -0.1663  0.1496  0.4752
 1253SOL    HW2 5065   1.006   0.460   2.360 -0.5335 -0.4704 -0.5755
 1253SOL    HW3 5066   0.855   0.448   2.370 -0.4615 -0.3105  0.7092
 1253SOL    MW4 5067   0.935   0.427   2.398 -0.2537  0.0071  0.3672
 1254SOL     OW 5068   1.122   0.533   2.238  0.1263  0.1582 -0.0316
 1254SOL    HW2 5069   1.205   0.491   2.262 -0.0211  0.3153  0.7719
 1254SOL    HW3 5070   1.121   0.532   2.143  1.0380  0.1177 -0.0434
 1254SOL    MW4 5071   1.133   0.528   2.229  0.2271  0.1735  0.0727
 1255SOL     OW 5072   1.113   0.782   2.362 -0.8253 -0.0842  0.5320
 1255SOL    HW2 5073   1.065   0.838   2.302 -0.4819  0.0904  0.4199
 1255SOL    HW3 5074   1.100   0.693   2.327 -0.2587  0.0637 -0.0500
 1255SOL    MW4 5075   1.105   0.777   2.349 -0.7052 -0.0416  0.4404
 1256SOL     OW 5076   0.871   0.874   2.209  0.0010  0.3565 -0.0310
 1256SOL    HW2 5077   0.875   0.955   2.258 -1.8209  0.3856  0.0759
 1256SOL    HW3 5078   0.814   0.817   2.261 -0.2535 -0.3300 -1.0536
 1256SOL    MW4 5079   0.864   0.877   2.222 -0.2730  0.2697 -0.1516
 1257SOL     OW 5080   0.896   1.147   2.321  0.0260  0.2751  0.0902
 1257SOL    HW2 5081   0.966   1.188   2.270  0.2558 -1.2494 -0.8467
 1257SOL    HW3 5082   0.817   1.196   2.298  0.7487  1.9269  1.0609
 1257SOL    MW4 5083   0.895   1.159   2.311  0.1516  0.2918  0.0947
 1258SOL     OW 5084   1.129   1.272   2.231 -0.4291 -0.2986  0.2541
 1258SOL    HW2 5085   1.210   1.240   2.271  0.1468  2.5017  1.4728
 1258SOL    HW3 5086   1.139   1.253   2.138  1.4164 -0.4764  0.4683
 1258SOL    MW4 5087   1.141   1.265   2.224 -0.1094  0.0474  0.4435
 1259SOL     OW 5088   1.132   1.532   2.334 -0.0464 -0.1988 -0.0905
 1259SOL    HW2 5089   1.045   1.561   2.308 -0.2576  0.0609  0.8794
 1259SOL    HW3 5090   1.135   1.439   2.311  0.1135  0.2347 -1.8758
 1259SOL    MW4 5091   1.121   1.524   2.327 -0.0532 -0.1074 -0.1981
 1260SOL     OW 5092   0.905   1.649   2.246  0.2399 -0.1547 -0.1242
 1260SOL    HW2 5093   0.894   1.741   2.269  0.8410 -0.2848  0.7045
 1260SOL    HW3 5094   0.902   1.648   2.150 -1.4541  0.5003 -0.0916
 1260SOL    MW4 5095   0.903   1.661   2.236  0.0956 -0.0855 -0.0107
 1261SOL     OW 5096   0.892   1.913   2.331  0.3988 -0.0234 -0.3120
 1261SOL    HW2 5097   0.905   1.919   2.425  0.0812  1.0121 -0.3293
 1261SOL    HW3 5098   0.967   1.958   2.293  0.5642 -0.5007 -0.5552
 1261SOL    MW4 5099   0.903   1.920   2.338  0.3788  0.0502 -0.3462
 1262SOL     OW 5100   1.138   2.058   2.242  0.0893  0.2153  0.0981
 1262SOL    HW2 5101   1.207   2.004   2.280  0.6196  0.4856 -0.4638
 1262SOL    HW3 5102   1.143   2.042   2.148 -1.6905 -0.9974  0.1957
 1262SOL    MW4 5103   1.148   2.049   2.234 -0.0756  0.0911  0.0370
 1263SOL     OW 5104   1.148   2.302   2.387  0.0710 -0.2363 -0.1375
 1263SOL    HW2 5105   1.221   2.348   2.345  0.1277 -0.0458  0.1624
 1263SOL    HW3 5106   1.146   2.216   2.346 -0.4181  0.2466 -1.1357
 1263SOL    MW4 5107   1.157   2.297   2.376  0.0139 -0.1476 -0.2296
 1264SOL     OW 5108   0.920   2.421   2.275 -0.1429 -0.0720 -0.6284
 1264SOL    HW2 5109   1.000   2.375   2.301 -1.4211 -0.9622  1.9162
 1264SOL    HW3 5110   0.915   2.408   2.180  1.6559 -1.7438 -0.5430
 1264SOL    MW4 5111   0.930   2.413   2.266 -0.0741 -0.4098 -0.2813
 1265SOL     OW 5112   0.866   2.678   2.360  0.0601  0.0162  0.4281
 1265SOL    HW2 5113   0.869   2.667   2.455 -2.8876  0.2555  0.5811
 1265SOL    HW3 5114   0.885   2.590   2.326  1.8534  0.0863  1.1996
 1265SOL    MW4 5115   0.869   2.665   2.368 -0.0921  0.0570  0.5498
 1266SOL     OW 5116   1.090   2.809   2.266  0.0239  0.1094  0.0781
 1266SOL    HW2 5117   1.159   2.747   2.289  0.5587 -0.2743 -2.3981
 1266SOL    HW3 5118   1.009   2.765   2.291  0.5661 -0.2433  1.2552
 1266SOL    MW4 5119   1.089   2.795   2.273  0.1661  0.0124 -0.0930
 1267SOL     OW 5120   1.133   3.077   2.348 -0.1555  0.0663  0.1058
 1267SOL    HW2 5121   1.054   3.120   2.316  0.2092 -0.3082 -1.3236
 1267SOL    HW3 5122   1.122   2.985   2.325 -0.2358 -0.3496  1.7687
 1267SOL    MW4 5123   1.121   3.071   2.341 -0.1180 -0.0379  0.1366
 1268SOL     OW 5124   0.907   3.197   2.237 -0.2651  0.1332 -0.5047
 1268SOL    HW2 5125   0.906   3.275   2.292 -0.6652 -0.1583 -0.0974
 1268SOL    HW3 5126   0.844   3.138   2.278  1.0127 -0.9218 -0.0610
 1268SOL    MW4 5127   0.898   3.200   2.250 -0.1493 -0.0443 -0.3927
 1269SOL     OW 5128   0.881   3.472   2.335 -0.1941  0.4709 -0.1377
 1269SOL    HW2 5129   0.900   3.479   2.429  0.0481  1.5451 -0.2623
 1269SOL    HW3 5130   0.819   3.542   2.317  0.7078  1.0575 -1.0172
 1269SOL    MW4 5131   0.876   3.482   2.345 -0.0432  0.6902 -0.2704
 1270SOL     OW 5132   1.122   3.594   2.239  0.1596  0.0971 -0.2518
 1270SOL    HW2 5133   1.206   3.558   2.266  0.2431  0.3920 -0.1102
 1270SOL    HW3 5134   1.058   3.528   2.265  0.3036  0.0829  0.0774
 1270SOL    MW4 5135   1.125   3.581   2.246  0.1897  0.1342 -0.1900
 1271SOL     OW 5136   1.118   3.857   2.362 -0.0391 -0.1412 -0.1447
 1271SOL    HW2 5137   1.202   3.883   2.325 -0.1359 -0.1997 -0.4059
 1271SOL    HW3 5138   1.104   3.767   2.330 -0.4221  0.0395 -0.4871
 1271SOL    MW4 5139   1.127   3.848   2.353 -0.1024 -0.1252 -0.2241
 1272SOL     OW 5140   0.913   4.024   2.257 -0.2466 -0.0631  0.9632
 1272SOL    HW2 5141   0.983   3.971   2.295 -0.0417 -2.3686 -2.3209
 1272SOL    HW3 5142   0.832   3.985   2.290 -0.0330  0.0579  1.6257
 1272SOL    MW4 5143   0.911   4.012   2.266 -0.1914 -0.3514  0.6173
 1273SOL     OW 5144   0.893   4.257   2.389 -0.1275  0.2916  0.0107
 1273SOL    HW2 5145   0.889   4.172   2.346  0.8355 -0.5750  1.5650
 1273SOL    HW3 5146   0.815   4.304   2.360 -1.1634 -1.4858 -0.1105
 1273SOL    MW4 5147   0.883   4.252   2.380 -0.1371 -0.0572  0.2000
 1274SOL     OW 5148   1.138   4.363   2.267 -0.3894  0.1227  0.0218
 1274SOL    HW2 5149   1.065   4.324   2.315  1.0411  0.3589  2.4831
 1274SOL    HW3 5150   1.134   4.456   2.290  1.3491 -0.0535  1.0793
 1274SOL    MW4 5151   1.127   4.370   2.277  0.0287  0.1307  0.4861
 1275SOL     OW 5152   1.566   0.019   2.373  0.2236 -0.1554 -0.3610
 1275SOL    HW2 5153   1.631   0.075   2.332  1.0349 -1.0493 -0.3066
 1275SOL    HW3 5154   1.482   0.051   2.340  0.7832  0.0124 -1.6469
 1275SOL    MW4 5155   1.563   0.031   2.363  0.4045 -0.2513 -0.5238
 1276SOL     OW 5156   1.349   0.122   2.256  0.1752  0.5828  0.4363
 1276SOL    HW2 5157   1.338   0.215   2.275 -0.7985  0.3995  0.8075
 1276SOL    HW3 5158   1.264   0.083   2.278  0.2857 -0.2456 -0.5691
 1276SOL    MW4 5159   1.336   0.129   2.261  0.0614  0.4493  0.3524
 1277SOL     OW 5160   1.342   0.379   2.343  0.2244 -0.0209  0.1409
 1277SOL    HW2 5161   1.340   0.374   2.438  1.3014 -2.4786  0.0585
 1277SOL    HW3 5162   1.425   0.423   2.324 -0.3437  1.1651  0.3286
 1277SOL    MW4 5163   1.353   0.384   2.353  0.2916 -0.1887  0.1547
 1278SOL     OW 5164   1.573   0.518   2.314  0.1023 -0.0458  0.6883
 1278SOL    HW2 5165   1.650   0.478   2.355 -0.8954  0.1933  2.8093
 1278SOL    HW3 5166   1.594   0.517   2.220  2.7878  0.2497  1.2452
 1278SOL    MW4 5167   1.586   0.512   2.307  0.3248  0.0247  1.0412
 1279SOL     OW 5168   1.575   0.799   2.392  0.2918  0.2314  0.2585
 1279SOL    HW2 5169   1.653   0.838   2.353 -0.4386  1.2390 -0.2491
 1279SOL    HW3 5170   1.562   0.717   2.345  1.9118 -0.7062  1.4002
 1279SOL    MW4 5171   1.584   0.794   2.380  0.4094  0.2407  0.3424
 1280SOL     OW 5172   1.338   0.903   2.256  0.3797  0.0212  0.1132
 1280SOL    HW2 5173   1.408   0.864   2.307  1.3713 -0.0949 -1.3242
 1280SOL    HW3 5174   1.257   0.867   2.294  1.1974 -1.9948 -0.0380
 1280SOL    MW4 5175   1.336   0.893   2.268  0.6186 -0.2601 -0.0966
 1281SOL     OW 5176   1.365   1.161   2.345  0.0194 -0.0434 -0.4222
 1281SOL    HW2 5177   1.349   1.158   2.439 -0.6937  0.2194 -0.5266
 1281SOL    HW3 5178   1.353   1.071   2.315  0.6372 -0.1999 -0.2048
 1281SOL    MW4 5179   1.361   1.149   2.353  0.0069 -0.0294 -0.4072
 1282SOL     OW 5180   1.596   1.297   2.248  0.1447 -0.2784 -0.1806
 1282SOL    HW2 5181   1.520   1.273   2.300 -0.0614 -1.4754 -1.0066
 1282SOL    HW3 5182   1.572   1.273   2.158  1.4413 -0.5538 -0.4610
 1282SOL    MW4 5183   1.583   1.291   2.243  0.2886 -0.4727 -0.3266
 1283SOL     OW 5184   1.605   1.555   2.352  0.0556  0.4322  0.2647
 1283SOL    HW2 5185   1.685   1.601   2.327 -0.1723  0.3626 -0.5982
 1283SOL    HW3 5186   1.602   1.478   2.296 -1.1134  0.9441 -0.3957
 1283SOL    MW4 5187   1.615   1.551   2.341 -0.1287  0.4907  0.0634
 1284SOL     OW 5188   1.354   1.677   2.223  0.2403  0.1353 -0.5879
 1284SOL    HW2 5189   1.423   1.625   2.262  0.2411 -0.2284 -1.0678
 1284SOL    HW3 5190   1.272   1.637   2.252  0.1903  1.6622  1.4784
 1284SOL    MW4 5191   1.352   1.665   2.232  0.2339  0.2887 -0.3784
 1285SOL     OW 5192   1.333   1.920   2.349  0.0007 -0.6207  0.6534
 1285SOL    HW2 5193   1.406   1.963   2.305  0.6764 -1.9434  0.4560
 1285SOL    HW3 5194   1.326   1.835   2.307 -0.9523 -0.9359  1.4274
 1285SOL    MW4 5195   1.342   1.915   2.338 -0.0359 -0.8367  0.7296
 1286SOL     OW 5196   1.562   2.030   2.233  0.1011  0.1213  0.1169
 1286SOL    HW2 5197   1.646   1.986   2.246 -0.2193 -0.8181 -0.8915
 1286SOL    HW3 5198   1.557   2.045   2.139 -0.0794  1.7828  0.3770
 1286SOL    MW4 5199   1.572   2.026   2.223  0.0352  0.2167  0.0181
 1287SOL     OW 5200   1.598   2.302   2.323  0.2529 -0.0030  0.6484
 1287SOL    HW2 5201   1.571   2.322   2.412 -0.9666  0.0901  0.2635
 1287SOL    HW3 5202   1.573   2.211   2.310 -0.0813  0.1501  0.2110
 1287SOL    MW4 5203   1.591   2.293   2.333  0.0479  0.0296  0.5400
 1288SOL     OW 5204   1.366   2.418   2.248  0.0348 -0.4976 -0.0662
 1288SOL    HW2 5205   1.444   2.370   2.277 -0.2683 -0.9243  0.0481
 1288SOL    HW3 5206   1.371   2.415   2.152  0.5809  0.1698 -0.0652
 1288SOL    MW4 5207   1.377   2.411   2.239  0.0668 -0.4661 -0.0513
 1289SOL     OW 5208   1.321   2.673   2.319  0.0532  0.2161 -0.2122
 1289SOL    HW2 5209   1.404   2.713   2.291  1.0733 -1.1819  0.7368
 1289SOL    HW3 5210   1.333   2.579   2.304 -0.0209 -0.3998  3.1251
 1289SOL    MW4 5211   1.334   2.666   2.313  0.1780 -0.0498  0.3536
 1290SOL     OW 5212   1.577   2.830   2.239 -0.4713 -0.0631  0.0701
 1290SOL    HW2 5213   1.565   2.923   2.258  0.6084  0.1707 -0.3286
 1290SOL    HW3 5214   1.581   2.825   2.144 -2.0716 -0.7328  0.0228
 1290SOL    MW4 5215   1.576   2.842   2.229 -0.5400 -0.1204  0.0112
 1291SOL     OW 5216   1.563   3.100   2.310 -0.0790 -0.3339 -0.3530
 1291SOL    HW2 5217   1.569   3.096   2.405  0.6631 -3.0185 -0.4714
 1291SOL    HW3 5218   1.476   3.134   2.292 -0.1625  0.3227  1.2807
 1291SOL    MW4 5219   1.553   3.104   2.320  0.0080 -0.6018 -0.1533
 1292SOL     OW 5220   1.330   3.223   2.245 -0.2628  0.1774  0.2993
 1292SOL    HW2 5221   1.254   3.175   2.277 -0.5435  1.1958  1.1782
 1292SOL    HW3 5222   1.319   3.225   2.150 -1.0394 -0.1694  0.3802
 1292SOL    MW4 5223   1.319   3.217   2.236 -0.4025  0.2661  0.4261
 1293SOL     OW 5224   1.347   3.482   2.355 -0.0915  0.5644 -0.1415
 1293SOL    HW2 5225   1.350   3.479   2.451  0.4991 -0.9081 -0.1999
 1293SOL    HW3 5226   1.354   3.391   2.328  0.5934  1.0392 -1.6147
 1293SOL    MW4 5227   1.349   3.470   2.364  0.0769  0.4327 -0.3433
 1294SOL     OW 5228   1.572   3.589   2.244 -0.2846 -0.3783  0.1357
 1294SOL    HW2 5229   1.579   3.683   2.263  0.1935 -0.6318  1.2983
 1294SOL    HW3 5230   1.491   3.562   2.287 -0.9096 -0.3137 -0.9998
 1294SOL    MW4 5231   1.562   3.598   2.252 -0.3040 -0.4032  0.1392
 1295SOL     OW 5232   1.597   3.847   2.337 -0.3000 -0.3900 -0.6644
 1295SOL    HW2 5233   1.572   3.857   2.429  0.5345 -0.7025 -0.3988
 1295SOL    HW3 5234   1.677   3.900   2.328 -1.5322  1.3708 -1.7302
 1295SOL    MW4 5235   1.605   3.856   2.348 -0.3525 -0.1986 -0.7699
 1296SOL     OW 5236   1.362   3.983   2.249 -0.3230  0.3032 -0.6257
 1296SOL    HW2 5237   1.444   3.934   2.256 -0.7417 -0.5844 -1.7056
 1296SOL    HW3 5238   1.349   3.993   2.155 -1.6190  0.1529 -0.4708
 1296SOL    MW4 5239   1.371   3.978   2.237 -0.5491  0.1662 -0.7477
 1297SOL     OW 5240   1.373   4.237   2.361  0.2617  0.4050 -0.7770
 1297SOL    HW2 5241   1.379   4.145   2.338 -1.0676  0.3794 -1.0621
 1297SOL    HW3 5242   1.312   4.275   2.297  1.3684  1.6470 -1.1350
 1297SOL    MW4 5243   1.366   4.230   2.350  0.2323  0.5655 -0.8619
 1298SOL     OW 5244   1.567   4.410   2.278 -0.1555 -0.2435  0.4029
 1298SOL    HW2 5245   1.495   4.369   2.327 -1.0779  0.0150 -0.7064
 1298SOL    HW3 5246   1.560   4.503   2.298 -0.0962 -0.2227  0.3281
 1298SOL    MW4 5247   1.556   4.417   2.287 -0.2693 -0.2065  0.2465
 1299SOL     OW 5248   2.002   0.015   2.308  0.1441  0.2373  0.3107
 1299SOL    HW2 5249   2.085   0.055   2.284  1.2051 -1.0694  1.6603
 1299SOL    HW3 5250   2.013  -0.078   2.286 -1.1588  0.1453  0.0013
 1299SOL    MW4 5251   2.014   0.008   2.302  0.1121  0.0528  0.4480
 1300SOL     OW 5252   1.757   0.160   2.240  0.2849  0.3327  0.1335
 1300SOL    HW2 5253   1.763   0.250   2.272 -0.6108  1.0156 -1.5803
 1300SOL    HW3 5254   1.837   0.118   2.272  1.0249  1.9125  0.3951
 1300SOL    MW4 5255   1.768   0.166   2.248  0.2644  0.6312 -0.0579
 1301SOL     OW 5256   1.796   0.395   2.397 -0.2421  0.3578 -0.1793
 1301SOL    HW2 5257   1.799   0.365   2.488  1.1159 -0.9176 -0.6213
 1301SOL    HW3 5258   1.885   0.425   2.379 -0.8557  1.9419 -0.6752
 1301SOL    MW4 5259   1.808   0.395   2.407 -0.1438  0.3986 -0.3030
 1302SOL     OW 5260   2.041   0.466   2.307 -0.2449  0.6584  0.2146
 1302SOL    HW2 5261   2.025   0.553   2.344 -0.4759  0.1616  1.2960
 1302SOL    HW3 5262   2.035   0.479   2.212  0.6452  2.0074  0.3269
 1302SOL    MW4 5263   2.038   0.479   2.299 -0.1578  0.7709  0.3717
 1303SOL     OW 5264   2.023   0.745   2.388  0.1684  0.0570 -0.0058
 1303SOL    HW2 5265   2.103   0.768   2.341  0.4444  0.9064  0.8598
 1303SOL    HW3 5266   1.953   0.788   2.338  0.3347  0.0184 -0.2754
 1303SOL    MW4 5267   2.024   0.754   2.375  0.2267  0.1639  0.0730
 1304SOL     OW 5268   1.809   0.880   2.269 -0.6539 -0.0790 -0.4564
 1304SOL    HW2 5269   1.815   0.972   2.294  1.1363 -0.5238  0.8035
 1304SOL    HW3 5270   1.796   0.882   2.174 -0.2269  1.4504 -0.4957
 1304SOL    MW4 5271   1.808   0.892   2.260 -0.3614  0.0641 -0.2954
 1305SOL     OW 5272   1.817   1.154   2.316 -0.4580 -0.2206  0.1222
 1305SOL    HW2 5273   1.892   1.201   2.279 -0.3651  0.0715  0.6800
 1305SOL    HW3 5274   1.741   1.204   2.286 -0.4634 -0.8126 -0.8758
 1305SOL    MW4 5275   1.817   1.167   2.307 -0.4464 -0.2602  0.0644
 1306SOL     OW 5276   2.051   1.276   2.222  0.7160 -0.3569  0.2941
 1306SOL    HW2 5277   2.057   1.366   2.254 -0.1405 -0.9073  2.0783
 1306SOL    HW3 5278   2.028   1.285   2.130 -0.5987  1.2484  0.7499
 1306SOL    MW4 5279   2.049   1.289   2.214  0.4294 -0.2178  0.5896
 1307SOL     OW 5280   2.033   1.526   2.330  0.0762 -0.6237  0.4975
 1307SOL    HW2 5281   2.032   1.513   2.425  1.3717  1.7133  0.8662
 1307SOL    HW3 5282   1.958   1.583   2.313 -0.4479 -1.4431  0.0435
 1307SOL    MW4 5283   2.023   1.532   2.340  0.1781 -0.4237  0.4864
 1308SOL     OW 5284   1.826   1.681   2.220  0.0670 -0.0079 -0.0370
 1308SOL    HW2 5285   1.834   1.776   2.235 -0.9407 -0.1018  1.2004
 1308SOL    HW3 5286   1.798   1.674   2.129 -1.5249  0.9832  0.3486
 1308SOL    MW4 5287   1.823   1.693   2.210 -0.2760  0.1104  0.1774
 1309SOL     OW 5288   1.814   1.952   2.303 -0.2132 -0.2328  0.0242
 1309SOL    HW2 5289   1.818   1.962   2.398 -1.5709  1.0157 -0.0420
 1309SOL    HW3 5290   1.877   2.017   2.270 -1.1527  0.6894  0.0121
 1309SOL    MW4 5291   1.823   1.962   2.311 -0.5163  0.0536  0.0138
 1310SOL     OW 5292   2.019   2.115   2.253 -0.0808 -0.0489 -0.0870
 1310SOL    HW2 5293   2.083   2.064   2.302  0.1093  0.8341  0.6108
 1310SOL    HW3 5294   2.028   2.085   2.163 -0.4950 -1.7611  0.4284
 1310SOL    MW4 5295   2.029   2.105   2.248 -0.1104 -0.1583  0.0730
 1311SOL     OW 5296   2.056   2.364   2.392 -0.0551  0.2528 -0.1357
 1311SOL    HW2 5297   2.124   2.405   2.338 -1.0206  0.3253 -1.3326
 1311SOL    HW3 5298   2.046   2.276   2.354 -1.3633  0.6125 -0.6621
 1311SOL    MW4 5299   2.064   2.357   2.380 -0.3550  0.3097 -0.3633
 1312SOL     OW 5300   1.827   2.436   2.243  0.0566  0.2153  0.2825
 1312SOL    HW2 5301   1.904   2.417   2.296  0.2725  1.9375  0.6401
 1312SOL    HW3 5302   1.761   2.374   2.273  0.8386 -0.2470  1.0679
 1312SOL    MW4 5303   1.828   2.426   2.254  0.1882  0.3815  0.4334
 1313SOL     OW 5304   1.802   2.684   2.348  0.2127 -0.0152 -0.6733
 1313SOL    HW2 5305   1.798   2.600   2.302 -1.3039 -1.2011  1.5111
 1313SOL    HW3 5306   1.722   2.730   2.321  0.1494 -0.0302 -0.5159
 1313SOL    MW4 5307   1.791   2.679   2.339  0.0042 -0.1736 -0.3643
 1314SOL     OW 5308   1.992   2.820   2.193 -0.3075 -0.5014 -0.3414
 1314SOL    HW2 5309   2.073   2.791   2.235 -0.0870  0.1947 -0.2921
 1314SOL    HW3 5310   1.923   2.777   2.244 -0.1263  1.8475  1.9681
 1314SOL    MW4 5311   1.993   2.810   2.205 -0.2545 -0.0994 -0.0298
 1315SOL     OW 5312   2.002   3.076   2.339 -0.1925  0.4940 -0.0255
 1315SOL    HW2 5313   2.076   3.118   2.296 -1.7606  1.8196 -1.4973
 1315SOL    HW3 5314   2.001   2.987   2.303 -0.0248  0.8389 -0.8812
 1315SOL    MW4 5315   2.011   3.070   2.329 -0.3769  0.7145 -0.3326
 1316SOL     OW 5316   1.793   3.231   2.218  0.6268 -0.2073 -0.1496
 1316SOL    HW2 5317   1.856   3.163   2.241  1.1252  0.2441 -0.1847
 1316SOL    HW3 5318   1.708   3.194   2.243  0.9880 -0.4474  0.7380
 1316SOL    MW4 5319   1.790   3.217   2.225  0.7402 -0.1795 -0.0370
 1317SOL     OW 5320   1.784   3.469   2.373 -0.4235 -0.3566  0.6296
 1317SOL    HW2 5321   1.799   3.386   2.328  0.9200  0.9874 -1.4776
 1317SOL    HW3 5322   1.709   3.507   2.327  0.0648  0.3858  0.4467
 1317SOL    MW4 5323   1.776   3.463   2.361 -0.1819 -0.0811  0.3271
 1318SOL     OW 5324   2.017   3.654   2.276  0.1235  0.1865 -0.2374
 1318SOL    HW2 5325   1.950   3.595   2.310  0.5911  0.6670  1.5986
 1318SOL    HW3 5326   2.013   3.643   2.181 -2.4794  0.1254 -0.1652
 1318SOL    MW4 5327   2.008   3.645   2.268 -0.1583  0.2418  0.0145
 1319SOL     OW 5328   2.032   3.907   2.391  0.3342  0.1469  0.4053
 1319SOL    HW2 5329   2.025   3.892   2.485 -1.2403  0.4119  0.3460
 1319SOL    HW3 5330   2.047   3.819   2.354  0.9078  0.0389  0.8882
 1319SOL    MW4 5331   2.033   3.893   2.398  0.2019  0.1676  0.4611
 1320SOL     OW 5332   1.796   4.013   2.266  0.4707  0.3485  0.2408
 1320SOL    HW2 5333   1.864   3.970   2.318  0.2458 -2.8937 -1.9966
 1320SOL    HW3 5334   1.829   4.007   2.176 -1.7079  0.8696 -0.6046
 1320SOL    MW4 5335   1.810   4.007   2.261  0.1537 -0.0110 -0.1657
 1321SOL     OW 5336   1.809   4.278   2.334 -0.2632  0.1792  0.2742
 1321SOL    HW2 5337   1.813   4.185   2.314 -0.6685 -0.2204  1.9519
 1321SOL    HW3 5338   1.722   4.306   2.303  0.0252  0.1130 -0.6176
 1321SOL    MW4 5339   1.798   4.270   2.327 -0.2786  0.1178  0.3784
 1322SOL     OW 5340   2.038   4.417   2.266  0.1940 -1.1551 -0.3921
 1322SOL    HW2 5341   1.956   4.372   2.286  0.6438 -1.5925  0.5049
 1322SOL    HW3 5342   2.047   4.410   2.171 -1.5114  0.1210 -0.6668
 1322SOL    MW4 5343   2.029   4.410   2.256  0.0286 -1.0443 -0.3099
 1323SOL     OW 5344   2.483   0.020   2.345 -0.4158 -0.4248  0.1669
 1323SOL    HW2 5345   2.566   0.059   2.317 -0.2576 -0.8277  0.0694
 1323SOL    HW3 5346   2.483  -0.067   2.306 -1.4265 -0.0023 -0.8312
 1323SOL    MW4 5347   2.494   0.014   2.336 -0.5283 -0.4222  0.0222
 1324SOL     OW 5348   2.264   0.164   2.268  0.0557 -0.3060 -0.0428
 1324SOL    HW2 5349   2.261   0.244   2.320 -2.0398 -0.4667  0.1312
 1324SOL    HW3 5350   2.342   0.117   2.300  1.4620  1.7597 -0.3500
 1324SOL    MW4 5351   2.274   0.168   2.279 -0.0353 -0.0546 -0.0603
 1325SOL     OW 5352   2.287   0.374   2.430 -0.0670 -0.1654 -0.5656
 1325SOL    HW2 5353   2.357   0.415   2.378  0.7507 -1.7973 -0.7998
 1325SOL    HW3 5354   2.206   0.402   2.387  0.5366 -0.0617 -1.6720
 1325SOL    MW4 5355   2.286   0.383   2.417  0.1206 -0.3670 -0.7424
 1326SOL     OW 5356   2.506   0.516   2.265  0.2076 -0.2985  0.4651
 1326SOL    HW2 5357   2.587   0.486   2.306  0.2790 -0.5241  0.1611
 1326SOL    HW3 5358   2.526   0.517   2.171 -0.0956 -0.2211  0.4023
 1326SOL    MW4 5359   2.519   0.512   2.258  0.1767 -0.3181  0.4170
 1327SOL     OW 5360   2.480   0.774   2.380  0.3053 -0.1398  0.4272
 1327SOL    HW2 5361   2.556   0.823   2.351 -0.6752  1.6508  0.8347
 1327SOL    HW3 5362   2.487   0.690   2.334  1.1534  0.9544 -1.4978
 1327SOL    MW4 5363   2.491   0.769   2.370  0.2880  0.2408  0.2270
 1328SOL     OW 5364   2.245   0.855   2.256 -0.5126  0.1280  0.0504
 1328SOL    HW2 5365   2.233   0.949   2.270  0.0023 -0.0126  1.5471
 1328SOL    HW3 5366   2.334   0.837   2.288  0.3040 -0.4561 -2.4539
 1328SOL    MW4 5367   2.255   0.865   2.262 -0.3369  0.0324 -0.0827
 1329SOL     OW 5368   2.245   1.126   2.351 -0.1529 -0.0449 -0.3584
 1329SOL    HW2 5369   2.332   1.167   2.347  0.0423 -0.3853  0.2744
 1329SOL    HW3 5370   2.190   1.182   2.297  0.1191  1.0313  0.4573
 1329SOL    MW4 5371   2.249   1.139   2.343 -0.0913  0.0521 -0.1674
 1330SOL     OW 5372   2.471   1.279   2.235  0.0706  0.1889 -0.1360
 1330SOL    HW2 5373   2.553   1.251   2.275 -1.0991 -0.9517  1.5558
 1330SOL    HW3 5374   2.449   1.360   2.280 -0.7615 -0.5941  0.8973
 1330SOL    MW4 5375   2.479   1.286   2.246 -0.1934 -0.0648  0.2236
 1331SOL     OW 5376   2.435   1.528   2.353 -0.1945  0.3739  0.0764
 1331SOL    HW2 5377   2.451   1.532   2.448  1.2600  1.9668 -0.2039
 1331SOL    HW3 5378   2.512   1.569   2.315 -0.0315 -1.7009 -1.8951
 1331SOL    MW4 5379   2.447   1.534   2.361  0.0188  0.3103 -0.2205
 1332SOL     OW 5380   2.241   1.687   2.269 -0.5494 -0.4026  0.1018
 1332SOL    HW2 5381   2.311   1.640   2.314  0.2398 -0.8755 -1.5799
 1332SOL    HW3 5382   2.164   1.631   2.279 -0.0545 -1.1672 -0.2849
 1332SOL    MW4 5383   2.240   1.673   2.276 -0.3800 -0.5659 -0.1712
 1333SOL     OW 5384   2.217   1.963   2.401  0.3238 -0.1048  0.2181
 1333SOL    HW2 5385   2.305   1.991   2.377  0.8075 -1.3057  0.5560
 1333SOL    HW3 5386   2.209   1.875   2.364  0.0384 -0.8366  1.9593
 1333SOL    MW4 5387   2.228   1.955   2.393  0.3502 -0.3598  0.4928
 1334SOL     OW 5388   2.450   2.082   2.290  0.2029  0.2519  0.0679
 1334SOL    HW2 5389   2.530   2.032   2.305  0.0894  0.2008  0.5238
 1334SOL    HW3 5390   2.443   2.089   2.195  0.1011 -0.7851 -0.0039
 1334SOL    MW4 5391   2.460   2.077   2.280  0.1748  0.1082  0.1187
 1335SOL     OW 5392   2.503   2.331   2.398 -0.1947 -0.2994 -0.1834
 1335SOL    HW2 5393   2.581   2.368   2.357 -0.4272  0.8175  0.3433
 1335SOL    HW3 5394   2.487   2.249   2.350 -0.5668  1.0444 -2.4575
 1335SOL    MW4 5395   2.511   2.325   2.386 -0.2744  0.0253 -0.4141
 1336SOL     OW 5396   2.274   2.455   2.259  0.4823 -0.1805 -0.2480
 1336SOL    HW2 5397   2.252   2.541   2.293 -1.3224 -1.3730  1.6901
 1336SOL    HW3 5398   2.350   2.427   2.310  0.0669 -0.4160  0.2405
 1336SOL    MW4 5399   2.281   2.463   2.270  0.1895 -0.3688  0.0720
 1337SOL     OW 5400   2.212   2.714   2.330 -0.0549  0.1636  0.0331
 1337SOL    HW2 5401   2.224   2.707   2.425 -2.4125 -0.0411  0.3472
 1337SOL    HW3 5402   2.291   2.760   2.300  1.6685 -1.5028  1.8050
 1337SOL    MW4 5403   2.224   2.719   2.339 -0.1385 -0.0832  0.3083
 1338SOL     OW 5404   2.438   2.866   2.277  0.2605  0.0713  0.5202
 1338SOL    HW2 5405   2.500   2.796   2.299  0.5192 -0.5627 -2.0099
 1338SOL    HW3 5406   2.447   2.877   2.182 -1.0874  2.3045  0.6095
 1338SOL    MW4 5407   2.447   2.858   2.267  0.1166  0.2825  0.1981
 1339SOL     OW 5408   2.448   3.141   2.359  0.1495 -0.0807 -0.2803
 1339SOL    HW2 5409   2.530   3.181   2.329  0.3366 -0.9893 -1.0353
 1339SOL    HW3 5410   2.454   3.050   2.329  0.5301 -1.1838  2.9588
 1339SOL    MW4 5411   2.460   3.134   2.351  0.2244 -0.3462  0.0479
 1340SOL     OW 5412   2.215   3.225   2.228  0.6410  0.3610  0.3550
 1340SOL    HW2 5413   2.215   3.316   2.260  1.2992  1.0424 -1.4811
 1340SOL    HW3 5414   2.293   3.186   2.267 -0.2316  0.2343  2.0346
 1340SOL    MW4 5415   2.225   3.232   2.237  0.6130  0.4342  0.3345
 1341SOL     OW 5416   2.260   3.478   2.339  0.0671 -0.0807  0.5749
 1341SOL    HW2 5417   2.248   3.501   2.431 -0.9708 -0.3280  0.5081
 1341SOL    HW3 5418   2.197   3.533   2.292  0.3950 -0.1579  0.0407
 1341SOL    MW4 5419   2.250   3.488   2.345 -0.0265 -0.1235  0.4957
 1342SOL     OW 5420   2.486   3.611   2.257  0.2797  0.4130 -0.0140
 1342SOL    HW2 5421   2.474   3.703   2.281  1.9047  0.7620 -0.5294
 1342SOL    HW3 5422   2.413   3.566   2.300  0.4204  1.6990  1.6087
 1342SOL    MW4 5423   2.475   3.617   2.266  0.5128  0.6287  0.1321
 1343SOL     OW 5424   2.484   3.896   2.369 -0.0498 -0.1105 -0.3913
 1343SOL    HW2 5425   2.491   3.896   2.465 -0.1509 -0.5208 -0.3857
 1343SOL    HW3 5426   2.398   3.934   2.351  0.0167  0.0716 -0.3219
 1343SOL    MW4 5427   2.473   3.901   2.379 -0.0544 -0.1407 -0.3815
 1344SOL     OW 5428   2.253   4.048   2.295 -0.1563 -0.2906  0.0503
 1344SOL    HW2 5429   2.278   4.117   2.355 -2.5687  0.7911 -0.1138
 1344SOL    HW3 5430   2.173   4.011   2.333 -0.0271 -1.6039 -0.9227
 1344SOL    MW4 5431   2.246   4.052   2.308 -0.4578 -0.3214 -0.0999
 1345SOL     OW 5432   2.276   4.330   2.365 -0.2652 -0.1674 -0.0473
 1345SOL    HW2 5433   2.277   4.335   2.460  0.1563 -1.7579  0.0451
 1345SOL    HW3 5434   2.184   4.337   2.341 -0.5851 -1.8093  0.6158
 1345SOL    MW4 5435   2.264   4.331   2.374 -0.2520 -0.5946  0.0522
 1346SOL     OW 5436   2.500   4.420   2.241  0.1694  0.0714  0.0531
 1346SOL    HW2 5437   2.571   4.374   2.284  1.2475  2.1679  0.6061
 1346SOL    HW3 5438   2.420   4.386   2.282  0.9594 -0.8592  0.8369
 1346SOL    MW4 5439   2.499   4.410   2.252  0.4160  0.2260  0.2294
 1347SOL     OW 5440   2.900   0.029   2.405 -0.0185  0.3130 -0.2340
 1347SOL    HW2 5441   2.963   0.095   2.375  0.3637  0.1862  0.2809
 1347SOL    HW3 5442   2.919  -0.049   2.352  0.5238  0.1504  0.2014
 1347SOL    MW4 5443   2.911   0.027   2.394  0.1035  0.2747 -0.1087
 1348SOL     OW 5444   2.720   0.161   2.236 -0.5071 -0.1426  0.0595
 1348SOL    HW2 5445   2.723   0.249   2.274 -0.4366 -0.5743  1.0593
 1348SOL    HW3 5446   2.775   0.108   2.293 -1.5910 -1.1163  0.2112
 1348SOL    MW4 5447   2.727   0.166   2.249 -0.6409 -0.3280  0.2115
 1349SOL     OW 5448   2.742   0.396   2.358  0.3836 -0.2170  0.0875
 1349SOL    HW2 5449   2.754   0.397   2.453 -1.2619  2.0007  0.3104
 1349SOL    HW3 5450   2.823   0.435   2.324  0.2102  0.7080  0.6962
 1349SOL    MW4 5451   2.754   0.401   2.366  0.1433  0.1977  0.1974
 1350SOL     OW 5452   2.972   0.521   2.249  0.3749  0.4457  0.5184
 1350SOL    HW2 5453   2.968   0.613   2.276 -0.1563  0.4953  0.2726
 1350SOL    HW3 5454   2.941   0.521   2.158 -0.8970 -0.1536  0.9347
 1350SOL    MW4 5455   2.968   0.533   2.240  0.1371  0.3732  0.5407
 1351SOL     OW 5456   2.931   0.778   2.337 -0.0880  0.0124  0.1658
 1351SOL    HW2 5457   2.926   0.795   2.431  0.2293  0.8013  0.0431
 1351SOL    HW3 5458   2.848   0.811   2.303 -0.2314 -0.3357  0.1804
 1351SOL    MW4 5459   2.919   0.785   2.345 -0.0651  0.0706  0.1516
 1352SOL     OW 5460   2.691   0.904   2.257 -0.1764 -0.3738 -0.8295
 1352SOL    HW2 5461   2.676   0.995   2.282  1.7346  0.0178 -1.0196
 1352SOL    HW3 5462   2.694   0.905   2.162 -2.1867 -0.9926 -0.9210
 1352SOL    MW4 5463   2.690   0.916   2.248 -0.1895 -0.4038 -0.8667
 1353SOL     OW 5464   2.695   1.166   2.337 -0.0101 -0.1014  0.2520
 1353SOL    HW2 5465   2.691   1.175   2.432 -0.1242  0.8572  0.1703
 1353SOL    HW3 5466   2.771   1.218   2.312 -0.0453 -0.2623 -0.1821
 1353SOL    MW4 5467   2.704   1.174   2.346 -0.0300  0.0039  0.1843
 1354SOL     OW 5468   2.913   1.322   2.285 -0.2789  0.7012 -0.5667
 1354SOL    HW2 5469   2.994   1.277   2.311 -1.5344 -0.4382  1.5756
 1354SOL    HW3 5470   2.907   1.307   2.191 -0.5357 -3.5821 -0.0032
 1354SOL    MW4 5471   2.923   1.314   2.276 -0.4785 -0.0143 -0.2093
 1355SOL     OW 5472   2.878   1.574   2.357 -0.9025 -0.0121 -0.0277
 1355SOL    HW2 5473   2.882   1.567   2.452 -1.1343  0.8515  0.0521
 1355SOL    HW3 5474   2.896   1.486   2.325 -2.8222 -0.7392  0.8669
 1355SOL    MW4 5475   2.881   1.562   2.365 -1.1864  0.0060  0.1011
 1356SOL     OW 5476   2.641   1.646   2.234  0.2911 -0.0770  0.0304
 1356SOL    HW2 5477   2.727   1.628   2.270  0.3102 -0.9486 -0.4366
 1356SOL    HW3 5478   2.655   1.652   2.139 -0.2741 -0.9773 -0.1215
 1356SOL    MW4 5479   2.654   1.645   2.226  0.2189 -0.3108 -0.0513
 1357SOL     OW 5480   2.679   1.913   2.332 -0.0230 -0.1137  0.0261
 1357SOL    HW2 5481   2.677   1.915   2.427  0.4185  1.0465  0.0204
 1357SOL    HW3 5482   2.681   1.820   2.309  2.5828 -0.3601  1.1986
 1357SOL    MW4 5483   2.679   1.901   2.341  0.3791  0.0069  0.1798
 1358SOL     OW 5484   2.884   2.053   2.227  0.0374  0.1064  0.2549
 1358SOL    HW2 5485   2.960   2.003   2.258  0.3158  0.9656  0.9818
 1358SOL    HW3 5486   2.809   2.010   2.268  0.2510  0.0904  0.6339
 1358SOL    MW4 5487   2.884   2.041   2.237  0.1023  0.2177  0.4008
 1359SOL     OW 5488   2.951   2.272   2.391  0.3812 -0.8622  0.3758
 1359SOL    HW2 5489   2.930   2.288   2.483  0.5183 -0.7921  0.3943
 1359SOL    HW3 5490   2.953   2.176   2.384 -0.5765 -0.8802  0.2325
 1359SOL    MW4 5491   2.948   2.261   2.402  0.2732 -0.8554  0.3593
 1360SOL     OW 5492   2.737   2.430   2.281  0.1510  0.8282  0.0881
 1360SOL    HW2 5493   2.814   2.379   2.306 -1.1792 -0.8279  0.8833
 1360SOL    HW3 5494   2.734   2.423   2.186  0.7238  0.5121  0.0889
 1360SOL    MW4 5495   2.747   2.422   2.272  0.0513  0.5679  0.1929
 1361SOL     OW 5496   2.700   2.711   2.334 -0.3679 -0.5562 -0.0655
 1361SOL    HW2 5497   2.784   2.748   2.306  0.2006 -1.0694  0.9601
 1361SOL    HW3 5498   2.704   2.619   2.307  0.0720 -0.9882  1.4197
 1361SOL    MW4 5499   2.712   2.704   2.327 -0.2348 -0.6812  0.2656
 1362SOL     OW 5500   2.961   2.808   2.247  0.5160 -0.0936  0.0700
 1362SOL    HW2 5501   2.948   2.901   2.267  3.2909  0.2888  0.3126
 1362SOL    HW3 5502   2.955   2.803   2.152  1.1984  0.5029 -0.0136
 1362SOL    MW4 5503   2.959   2.820   2.237  0.9720  0.0353  0.0911
 1363SOL     OW 5504   2.880   3.068   2.324 -0.3194  0.2980  0.7638
 1363SOL    HW2 5505   2.964   3.113   2.311 -0.5686  0.7281  0.6391
 1363SOL    HW3 5506   2.816   3.122   2.278 -0.4541 -0.7720 -0.3301
 1363SOL    MW4 5507   2.883   3.081   2.316 -0.3700  0.2134  0.6030
 1364SOL     OW 5508   2.682   3.238   2.258 -0.0540 -0.1819  0.1819
 1364SOL    HW2 5509   2.697   3.324   2.296 -1.3606 -0.5041  1.4454
 1364SOL    HW3 5510   2.699   3.250   2.164  3.0208  0.6432  0.7977
 1364SOL    MW4 5511   2.686   3.251   2.251  0.1791 -0.1154  0.4299
 1365SOL     OW 5512   2.701   3.502   2.385 -0.3419 -0.2365 -0.2847
 1365SOL    HW2 5513   2.781   3.541   2.350  0.1771 -1.0984 -0.0595
 1365SOL    HW3 5514   2.632   3.531   2.325 -0.1457  1.9556  0.4926
 1365SOL    MW4 5515   2.702   3.511   2.372 -0.2477 -0.0610 -0.1523
 1366SOL     OW 5516   2.943   3.586   2.269 -0.2097  0.2555 -0.4043
 1366SOL    HW2 5517   3.018   3.541   2.307  0.6026 -0.5669 -2.8672
 1366SOL    HW3 5518   2.958   3.679   2.287  0.0036 -0.1146  1.4345
 1366SOL    MW4 5519   2.955   3.593   2.276 -0.0746  0.0980 -0.4866
 1367SOL     OW 5520   2.919   3.875   2.359 -0.1627 -0.1202  0.2158
 1367SOL    HW2 5521   2.930   3.869   2.454 -1.6881  1.1286  0.4882
 1367SOL    HW3 5522   2.842   3.929   2.347  0.7267  0.7684 -1.7752
 1367SOL    MW4 5523   2.911   3.882   2.370 -0.2465  0.1619 -0.0110
 1368SOL     OW 5524   2.706   4.033   2.277  0.3561 -0.1556 -0.0860
 1368SOL    HW2 5525   2.623   3.999   2.309  0.4778 -0.4057 -0.0380
 1368SOL    HW3 5526   2.699   4.028   2.181  0.0483  0.4603 -0.0972
 1368SOL    MW4 5527   2.695   4.028   2.268  0.3314 -0.1073 -0.0811
 1369SOL     OW 5528   2.730   4.305   2.341 -0.1674  0.3948  0.0730
 1369SOL    HW2 5529   2.729   4.311   2.437 -0.5309 -0.1027  0.1020
 1369SOL    HW3 5530   2.725   4.211   2.323 -2.0791  0.5865 -0.4590
 1369SOL    MW4 5531   2.730   4.293   2.351 -0.4675  0.3543  0.0067
 1370SOL     OW 5532   2.936   4.464   2.250 -0.2306 -0.2697  0.7260
 1370SOL    HW2 5533   3.009   4.413   2.284 -1.0863 -1.2418  1.1047
 1370SOL    HW3 5534   2.858   4.412   2.270 -1.0760  0.9854  0.7596
 1370SOL    MW4 5535   2.935   4.451   2.257 -0.4554 -0.2322  0.7801
 1371SOL     OW 5536   3.352   0.012   2.361 -0.0668  0.0709  0.2572
 1371SOL    HW2 5537   3.383   0.003   2.451  0.3866 -0.7982  0.0158
 1371SOL    HW3 5538   3.425   0.050   2.314 -0.5763  1.2700  0.4129
 1371SOL    MW4 5539   3.365   0.016   2.367 -0.0744  0.1140  0.2460
 1372SOL     OW 5540   3.102   0.145   2.250 -0.2623  0.4686  0.2274
 1372SOL    HW2 5541   3.138   0.228   2.282  0.0578  0.8174 -1.0172
 1372SOL    HW3 5542   3.167   0.079   2.276  0.3036  0.8314 -0.2642
 1372SOL    MW4 5543   3.116   0.147   2.258 -0.1454  0.5625 -0.0017
 1373SOL     OW 5544   3.178   0.393   2.341  0.4398  0.1645 -0.2208
 1373SOL    HW2 5545   3.252   0.446   2.313  0.0087 -0.4301 -2.6215
 1373SOL    HW3 5546   3.101   0.445   2.316  0.0219 -0.0900  0.5115
 1373SOL    MW4 5547   3.177   0.407   2.334  0.3281  0.0525 -0.4411
 1374SOL     OW 5548   3.392   0.553   2.271 -0.2065  0.2109 -0.1777
 1374SOL    HW2 5549   3.460   0.492   2.300 -1.1540 -1.0156 -0.4740
 1374SOL    HW3 5550   3.392   0.543   2.176 -0.6491  0.3756 -0.1916
 1374SOL    MW4 5551   3.401   0.543   2.262 -0.3901  0.0708 -0.2186
 1375SOL     OW 5552   3.370   0.805   2.384  0.1184 -0.3447 -0.3319
 1375SOL    HW2 5553   3.459   0.835   2.370 -0.3670  1.5835  0.4694
 1375SOL    HW3 5554   3.368   0.716   2.348  1.9639  0.1072 -1.6127
 1375SOL    MW4 5555   3.381   0.797   2.378  0.2978 -0.0306 -0.3948
 1376SOL     OW 5556   3.151   0.922   2.270  0.2861  0.6188  0.2859
 1376SOL    HW2 5557   3.220   0.893   2.329 -0.0092 -0.2048  0.2345
 1376SOL    HW3 5558   3.073   0.874   2.298  0.4370 -0.8098 -1.6023
 1376SOL    MW4 5559   3.150   0.911   2.281  0.2670  0.3216  0.0298
 1377SOL     OW 5560   3.125   1.159   2.389 -0.3352  0.0732 -0.7602
 1377SOL    HW2 5561   3.214   1.186   2.366  0.2130 -0.6146  0.5102
 1377SOL    HW3 5562   3.116   1.071   2.352  0.4078 -0.8724  1.2889
 1377SOL    MW4 5563   3.135   1.151   2.381 -0.1650 -0.1422 -0.3221
 1378SOL     OW 5564   3.362   1.264   2.291 -0.4835 -0.5000 -0.1165
 1378SOL    HW2 5565   3.433   1.217   2.334  0.9988 -0.1863 -2.1286
 1378SOL    HW3 5566   3.362   1.351   2.330  0.4058 -0.4243 -0.2818
 1378SOL    MW4 5567   3.371   1.269   2.302 -0.1705 -0.4486 -0.4039
 1379SOL     OW 5568   3.352   1.525   2.381 -0.4513  0.0169  0.6153
 1379SOL    HW2 5569   3.350   1.539   2.476 -0.3815  2.2524  0.3272
 1379SOL    HW3 5570   3.265   1.550   2.351  0.9789  4.1420 -0.4454
 1379SOL    MW4 5571   3.341   1.530   2.390 -0.2532  0.8563  0.4375
 1380SOL     OW 5572   3.122   1.677   2.267  0.2991 -0.0006  0.1889
 1380SOL    HW2 5573   3.128   1.764   2.306  0.4701 -0.4844  1.2347
 1380SOL    HW3 5574   3.054   1.632   2.317 -0.4054 -0.1822 -0.9135
 1380SOL    MW4 5575   3.114   1.682   2.278  0.2286 -0.0883  0.1814
 1381SOL     OW 5576   3.111   1.931   2.346  0.1495 -0.3340 -0.3271
 1381SOL    HW2 5577   3.114   1.938   2.442 -0.8112  0.6436 -0.3552
 1381SOL    HW3 5578   3.198   1.955   2.317  0.1751  0.2738  0.2466
 1381SOL    MW4 5579   3.123   1.935   2.355  0.0262 -0.1249 -0.2549
 1382SOL     OW 5580   3.349   2.047   2.258  0.3450  0.0444  0.1014
 1382SOL    HW2 5581   3.417   1.982   2.277  1.0220  0.7460  0.1252
 1382SOL    HW3 5582   3.343   2.047   2.163 -1.2088 -1.6124  0.1789
 1382SOL    MW4 5583   3.357   2.039   2.248  0.2296 -0.0818  0.1149
 1383SOL     OW 5584   3.371   2.299   2.358  0.2389 -0.1941  0.1545
 1383SOL    HW2 5585   3.285   2.324   2.323  0.5143  1.9875  0.9364
 1383SOL    HW3 5586   3.377   2.205   2.341 -0.4777  0.3796 -3.7385
 1383SOL    MW4 5587   3.360   2.290   2.351  0.1807  0.1695 -0.2561
 1384SOL     OW 5588   3.146   2.410   2.248 -0.2183 -0.2957  0.1535
 1384SOL    HW2 5589   3.163   2.498   2.280 -2.0553 -0.2536  1.0644
 1384SOL    HW3 5590   3.087   2.372   2.313 -1.4362 -1.3198 -1.5250
 1384SOL    MW4 5591   3.141   2.416   2.261 -0.6213 -0.4253  0.0525
 1385SOL     OW 5592   3.159   2.653   2.380 -0.0695  0.3012 -0.5769
 1385SOL    HW2 5593   3.145   2.676   2.472  0.2345  0.1236 -0.4864
 1385SOL    HW3 5594   3.091   2.701   2.333 -0.7308 -0.2447 -0.1803
 1385SOL    MW4 5595   3.148   2.663   2.386 -0.1166  0.2058 -0.5128
 1386SOL     OW 5596   3.395   2.791   2.270 -0.1988 -0.3635 -0.3086
 1386SOL    HW2 5597   3.372   2.878   2.304 -1.9233 -0.3690 -1.3660
 1386SOL    HW3 5598   3.326   2.734   2.304 -0.1083 -0.9632 -1.1233
 1386SOL    MW4 5599   3.383   2.795   2.279 -0.4144 -0.4435 -0.5555
 1387SOL     OW 5600   3.361   3.065   2.345 -0.4227 -0.2561 -0.4113
 1387SOL    HW2 5601   3.439   3.118   2.331 -0.1185 -0.0153  1.9378
 1387SOL    HW3 5602   3.292   3.110   2.296  0.5663  0.4554 -1.1564
 1387SOL    MW4 5603   3.362   3.078   2.337 -0.2520 -0.1304 -0.1998
 1388SOL     OW 5604   3.127   3.200   2.264  0.8059 -0.1317  0.5512
 1388SOL    HW2 5605   3.156   3.281   2.307  1.4994 -0.1288  0.0959
 1388SOL    HW3 5606   3.144   3.215   2.171 -0.7544 -0.1117  0.2575
 1388SOL    MW4 5607   3.133   3.213   2.257  0.6914 -0.1287  0.4520
 1389SOL     OW 5608   3.166   3.452   2.367 -0.0698  0.2049 -0.6545
 1389SOL    HW2 5609   3.153   3.468   2.460 -2.0512 -0.9986 -0.7219
 1389SOL    HW3 5610   3.238   3.511   2.343  0.8204  0.1349  1.7285
 1389SOL    MW4 5611   3.174   3.462   2.376 -0.2136  0.0367 -0.3493
 1390SOL     OW 5612   3.367   3.643   2.271  0.3662  0.0593 -0.1132
 1390SOL    HW2 5613   3.433   3.582   2.305 -1.2761 -1.9338 -0.4307
 1390SOL    HW3 5614   3.366   3.626   2.176 -0.0404  0.6545 -0.2142
 1390SOL    MW4 5615   3.376   3.633   2.263  0.0958 -0.1249 -0.1683
 1391SOL     OW 5616   3.369   3.922   2.340 -0.0253 -0.0180 -0.3947
 1391SOL    HW2 5617   3.452   3.961   2.311  0.0627  0.2054  0.1612
 1391SOL    HW3 5618   3.374   3.831   2.311  0.6353 -0.1382  0.0863
 1391SOL    MW4 5619   3.381   3.915   2.332  0.0737 -0.0043 -0.2577
 1392SOL     OW 5620   3.120   4.033   2.253 -0.1399 -0.8736  0.2387
 1392SOL    HW2 5621   3.206   4.007   2.287 -0.2329 -1.4133  0.0528
 1392SOL    HW3 5622   3.058   3.974   2.296 -0.4033 -0.6177  0.2167
 1392SOL    MW4 5623   3.123   4.022   2.263 -0.1869 -0.9117  0.2112
 1393SOL     OW 5624   3.119   4.292   2.364 -0.2723 -0.4174  0.2697
 1393SOL    HW2 5625   3.202   4.326   2.330  0.2571 -0.2089  1.7225
 1393SOL    HW3 5626   3.115   4.202   2.331  0.5838 -0.4701  0.2837
 1393SOL    MW4 5627   3.130   4.285   2.355 -0.0894 -0.3967  0.4632
 1394SOL     OW 5628   3.366   4.424   2.245 -0.6016  0.7063  0.3044
 1394SOL    HW2 5629   3.348   4.510   2.282 -1.9517  0.2684  0.7066
 1394SOL    HW3 5630   3.350   4.434   2.151  1.2299  1.4018  0.0479
 1394SOL    MW4 5631   3.361   4.437   2.237 -0.5381  0.7405  0.3238
 1395SOL     OW 5632   3.812   4.637   2.366 -0.1738  0.1166  0.0345
 1395SOL    HW2 5633   3.822   4.629   2.461  1.4552 -1.3636 -0.2458
 1395SOL    HW3 5634   3.885   4.692   2.338 -0.4418  0.2528 -0.4098
 1395SOL    MW4 5635   3.823   4.643   2.375  0.0057 -0.0601 -0.0610
 1396SOL     OW 5636   3.586   0.103   2.248 -0.3465  0.1008  0.0286
 1396SOL    HW2 5637   3.604   0.193   2.277  1.3502 -0.1713 -0.1450
 1396SOL    HW3 5638   3.650   0.049   2.294 -0.4042 -0.8497 -0.9806
 1396SOL    MW4 5639   3.597   0.108   2.258 -0.1302 -0.0605 -0.1273
 1397SOL     OW 5640   3.594   0.372   2.366  0.2090  0.4513  0.1969
 1397SOL    HW2 5641   3.597   0.368   2.462 -0.0995  1.5204  0.2569
 1397SOL    HW3 5642   3.678   0.412   2.341 -0.2259  1.3247  0.1008
 1397SOL    MW4 5643   3.606   0.377   2.375  0.1109  0.7076  0.1922
 1398SOL     OW 5644   3.827   0.492   2.245 -0.6579  0.0147  0.3787
 1398SOL    HW2 5645   3.840   0.580   2.281  0.5426 -0.1071  0.2572
 1398SOL    HW3 5646   3.841   0.501   2.151 -0.4874 -0.3120  0.3708
 1398SOL    MW4 5647   3.831   0.505   2.238 -0.4771 -0.0445  0.3617
 1399SOL     OW 5648   3.867   0.746   2.340 -0.2214  0.2096  0.1176
 1399SOL    HW2 5649   3.877   0.780   2.430  0.6987 -0.8082  0.4172
 1399SOL    HW3 5650   3.940   0.786   2.292 -0.2196  0.0918  0.0237
 1399SOL    MW4 5651   3.878   0.756   2.346 -0.0997  0.0598  0.1447
 1400SOL     OW 5652   3.636   0.889   2.321  0.2567 -0.1797  0.0621
 1400SOL    HW2 5653   3.711   0.837   2.351  0.1325  0.4133  1.4495
 1400SOL    HW3 5654   3.642   0.887   2.225  2.5811  0.6150  0.1520
 1400SOL    MW4 5655   3.647   0.882   2.312  0.5469  0.0034  0.2570
 1401SOL     OW 5656   3.563   1.141   2.422  0.0740  0.0083  0.4226
 1401SOL    HW2 5657   3.575   1.114   2.513  2.0321  0.8751  0.4440
 1401SOL    HW3 5658   3.589   1.064   2.371 -1.1152 -0.5100  0.5882
 1401SOL    MW4 5659   3.568   1.127   2.428  0.1755  0.0541  0.4473
 1402SOL     OW 5660   3.794   1.251   2.303 -0.4189  0.4113 -0.5857
 1402SOL    HW2 5661   3.788   1.342   2.332  0.5295  0.3322 -0.1147
 1402SOL    HW3 5662   3.717   1.209   2.341 -0.5727  0.9007 -0.3464
 1402SOL    MW4 5663   3.783   1.257   2.312 -0.3142  0.4654 -0.4919
 1403SOL     OW 5664   3.794   1.516   2.354 -0.1123 -0.2345 -0.1722
 1403SOL    HW2 5665   3.788   1.519   2.449  0.4721 -0.0497 -0.1377
 1403SOL    HW3 5666   3.712   1.554   2.323  1.1885  3.1174  0.2773
 1403SOL    MW4 5667   3.782   1.521   2.362  0.1364  0.2320 -0.1085
 1404SOL     OW 5668   3.567   1.643   2.247  0.0757  0.4851 -0.1494
 1404SOL    HW2 5669   3.486   1.610   2.285 -0.0852  0.2122 -0.7242
 1404SOL    HW3 5670   3.558   1.629   2.153  0.6466  0.7650 -0.2537
 1404SOL    MW4 5671   3.555   1.637   2.240  0.1297  0.4860 -0.2389
 1405SOL     OW 5672   3.566   1.895   2.349 -0.0472 -0.0111 -0.3697
 1405SOL    HW2 5673   3.649   1.935   2.326  0.0483 -0.4875 -0.8586
 1405SOL    HW3 5674   3.570   1.807   2.311 -0.4535 -0.3110  0.2636
 1405SOL    MW4 5675   3.577   1.889   2.341 -0.0882 -0.1135 -0.3507
 1406SOL     OW 5676   3.800   1.997   2.284 -0.0521  0.0893 -0.4538
 1406SOL    HW2 5677   3.883   1.956   2.309 -0.1278  0.2138  0.0024
 1406SOL    HW3 5678   3.808   2.011   2.190  0.4308  0.0725 -0.4157
 1406SOL    MW4 5679   3.812   1.993   2.275  0.0017  0.1036 -0.3884
 1407SOL     OW 5680   3.820   2.273   2.399 -0.2426 -0.2935 -0.0624
 1407SOL    HW2 5681   3.736   2.301   2.364  0.4105  0.6987 -0.8705
 1407SOL    HW3 5682   3.834   2.187   2.361 -1.1993 -0.7498  0.6061
 1407SOL    MW4 5683   3.811   2.266   2.389 -0.2825 -0.2224 -0.0806
 1408SOL     OW 5684   3.609   2.434   2.290 -0.2462  0.3083  0.4849
 1408SOL    HW2 5685   3.529   2.391   2.319 -0.1094  0.2502  0.7770
 1408SOL    HW3 5686   3.605   2.430   2.194 -0.1180 -0.5848  0.5083
 1408SOL    MW4 5687   3.598   2.427   2.281 -0.2112  0.1829  0.5264
 1409SOL     OW 5688   3.627   2.697   2.374  0.0941 -0.1687  0.1823
 1409SOL    HW2 5689   3.623   2.607   2.341 -1.2808 -0.0732  0.0819
 1409SOL    HW3 5690   3.554   2.741   2.331  0.8313  1.0356  0.1445
 1409SOL    MW4 5691   3.617   2.691   2.364  0.0100  0.0029  0.1643
 1410SOL     OW 5692   3.842   2.832   2.262  0.0550 -0.0957  0.3450
 1410SOL    HW2 5693   3.841   2.923   2.291 -1.2238 -0.1462  0.4578
 1410SOL    HW3 5694   3.770   2.791   2.309 -1.4030 -0.4139 -2.0870
 1410SOL    MW4 5695   3.833   2.839   2.272 -0.3059 -0.1445  0.0391
 1411SOL     OW 5696   3.828   3.095   2.346  0.2566 -0.2377 -0.0741
 1411SOL    HW2 5697   3.824   3.101   2.441  0.8275  1.2507 -0.1360
 1411SOL    HW3 5698   3.891   3.163   2.320 -0.9029  0.2757 -1.5962
 1411SOL    MW4 5699   3.836   3.105   2.355  0.1788  0.0267 -0.2828
 1412SOL     OW 5700   3.584   3.208   2.288  0.5244  0.1114 -0.5406
 1412SOL    HW2 5701   3.591   3.301   2.308 -1.2298  0.3264 -0.9274
 1412SOL    HW3 5702   3.670   3.173   2.312  0.9070  1.6591  0.4579
 1412SOL    MW4 5703   3.596   3.216   2.294  0.3433  0.3440 -0.4597
 1413SOL     OW 5704   3.568   3.492   2.343 -0.1121  0.0752 -0.0796
 1413SOL    HW2 5705   3.579   3.492   2.439 -0.2616  0.4456 -0.0624
 1413SOL    HW3 5706   3.653   3.521   2.309  0.0932 -0.5227 -0.0756
 1413SOL    MW4 5707   3.581   3.496   2.352 -0.1047  0.0451 -0.0765
 1414SOL     OW 5708   3.821   3.595   2.242  0.0184 -0.2882  0.4012
 1414SOL    HW2 5709   3.814   3.680   2.285  0.1817 -0.1920  0.2408
 1414SOL    HW3 5710   3.812   3.614   2.148  1.0938 -0.3098  0.2819
 1414SOL    MW4 5711   3.819   3.609   2.235  0.1819 -0.2785  0.3641
 1415SOL     OW 5712   3.814   3.854   2.347 -0.0815  0.1458 -0.1918
 1415SOL    HW2 5713   3.818   3.850   2.442  0.2618 -0.2585 -0.2234
 1415SOL    HW3 5714   3.886   3.912   2.322 -2.7676  3.7814  0.0394
 1415SOL    MW4 5715   3.824   3.861   2.356 -0.3905  0.5722 -0.1657
 1416SOL     OW 5716   3.606   4.014   2.228 -0.1240 -0.1397  0.1519
 1416SOL    HW2 5717   3.602   4.101   2.268 -0.4671  0.1606 -0.5348
 1416SOL    HW3 5718   3.682   3.972   2.269  1.0765  1.1179 -0.7750
 1416SOL    MW4 5719   3.616   4.020   2.239 -0.0107  0.0658 -0.0610
 1417SOL     OW 5720   3.562   4.266   2.354  0.5270 -0.1603  0.0804
 1417SOL    HW2 5721   3.641   4.315   2.332 -0.3664  0.3144 -2.2304
 1417SOL    HW3 5722   3.491   4.314   2.311 -0.6980 -1.9472  0.0446
 1417SOL    MW4 5723   3.563   4.278   2.346  0.2477 -0.3324 -0.2291
 1418SOL     OW 5724   3.781   4.383   2.255 -0.0532  0.5017 -0.5153
 1418SOL    HW2 5725   3.860   4.347   2.296 -0.5070 -0.2743 -0.3305
 1418SOL    HW3 5726   3.787   4.477   2.272  0.4428  0.3480  0.1721
 1418SOL    MW4 5727   3.792   4.391   2.263 -0.0474  0.3786 -0.4003
 1419SOL     OW 5728   4.250   4.645   2.373  0.2979  0.0873 -0.3694
 1419SOL    HW2 5729   4.254   4.641   2.469 -0.9532  1.7640 -0.2216
 1419SOL    HW3 5730   4.331   4.688   2.347  0.1906  0.5041 -0.0052
 1419SOL    MW4 5731   4.261   4.650   2.382  0.1187  0.3638 -0.3016
 1420SOL     OW 5732   4.047   0.103   2.239  0.1564  0.1903  0.3239
 1420SOL    HW2 5733   4.028   0.188   2.279 -1.6754  0.6936 -1.5068
 1420SOL    HW3 5734   4.122   0.070   2.288  0.4136  2.5044  1.5960
 1420SOL    MW4 5735   4.054   0.110   2.251 -0.0515  0.5620  0.2503
 1421SOL     OW 5736   4.051   0.359   2.357  0.2257 -0.2001 -0.4718
 1421SOL    HW2 5737   4.124   0.414   2.329 -0.5127  0.4958 -1.0431
 1421SOL    HW3 5738   3.975   0.394   2.311 -0.7994  0.2097  1.4712
 1421SOL    MW4 5739   4.051   0.371   2.347 -0.0072 -0.0542 -0.2906
 1422SOL     OW 5740   4.272   0.512   2.274  0.1477  0.0394 -0.5205
 1422SOL    HW2 5741   4.279   0.602   2.305  0.1296  0.0426 -0.5262
 1422SOL    HW3 5742   4.333   0.463   2.329 -0.0684  0.0020 -0.3206
 1422SOL    MW4 5743   4.281   0.517   2.285  0.1173  0.0349 -0.4950
 1423SOL     OW 5744   4.292   0.769   2.388  0.0657 -0.2412  0.1229
 1423SOL    HW2 5745   4.211   0.800   2.349 -0.1069 -1.0756 -0.2016
 1423SOL    HW3 5746   4.361   0.819   2.343 -0.2754  0.6382  0.5724
 1423SOL    MW4 5747   4.291   0.780   2.377 -0.0019 -0.2353  0.1397
 1424SOL     OW 5748   4.078   0.871   2.240  0.1438  0.1124  0.0174
 1424SOL    HW2 5749   4.063   0.953   2.288  1.0195  0.0367  0.4447
 1424SOL    HW3 5750   4.077   0.897   2.148 -0.5172  0.4416  0.1122
 1424SOL    MW4 5751   4.076   0.885   2.234  0.1726  0.1457  0.0865
 1425SOL     OW 5752   4.034   1.111   2.375  0.0872 -0.2480  0.2507
 1425SOL    HW2 5753   4.044   1.123   2.469  1.5619 -0.8430  0.1891
 1425SOL    HW3 5754   3.955   1.160   2.352  0.4645  1.0067  1.5885
 1425SOL    MW4 5755   4.025   1.119   2.384  0.3314 -0.1609  0.4191
 1426SOL     OW 5756   4.248   1.224   2.252  0.1697  0.1917  0.1881
 1426SOL    HW2 5757   4.172   1.185   2.295  0.2161 -0.1510 -0.0356
 1426SOL    HW3 5758   4.323   1.177   2.289  0.2721  0.5187  0.3976
 1426SOL    MW4 5759   4.248   1.213   2.263  0.1893  0.1897  0.1862
 1427SOL     OW 5760   4.252   1.472   2.374 -0.6220 -0.5474 -0.2024
 1427SOL    HW2 5761   4.251   1.389   2.325  2.2844 -0.7419  0.0255
 1427SOL    HW3 5762   4.321   1.523   2.333 -0.7785  0.8297  1.2151
 1427SOL    MW4 5763   4.261   1.468   2.362 -0.2589 -0.3914  0.0145
 1428SOL     OW 5764   4.056   1.630   2.263  0.0732 -0.0885 -0.1369
 1428SOL    HW2 5765   4.121   1.568   2.298  0.0345 -0.3966 -0.6095
 1428SOL    HW3 5766   3.974   1.582   2.266  0.1686 -0.3155 -1.1961
 1428SOL    MW4 5767   4.054   1.615   2.268  0.0811 -0.1591 -0.3390
 1429SOL     OW 5768   4.042   1.880   2.375 -0.2048  0.2032  0.4010
 1429SOL    HW2 5769   4.039   1.862   2.469  1.0900 -0.2781  0.3494
 1429SOL    HW3 5770   4.046   1.794   2.334  2.1392  0.4823  0.0153
 1429SOL    MW4 5771   4.042   1.866   2.382  0.2756  0.1765  0.3433
 1430SOL     OW 5772   4.251   2.037   2.259 -0.1565 -0.4664  0.2762
 1430SOL    HW2 5773   4.248   2.118   2.310 -0.3561  0.7095 -1.5564
 1430SOL    HW3 5774   4.189   1.979   2.303 -0.5968  0.6458  1.1489
 1430SOL    MW4 5775   4.242   2.040   2.271 -0.2403 -0.1643  0.1493
 1431SOL     OW 5776   4.281   2.295   2.349  0.0351 -0.0912 -0.1217
 1431SOL    HW2 5777   4.203   2.339   2.318 -0.4680 -0.8583  0.0308
 1431SOL    HW3 5778   4.354   2.349   2.318 -0.5739  1.0543  0.4192
 1431SOL    MW4 5779   4.280   2.308   2.341 -0.1111 -0.0412 -0.0303
 1432SOL     OW 5780   4.029   2.428   2.281  0.4686  0.4623 -0.0239
 1432SOL    HW2 5781   4.049   2.516   2.312  0.2656  0.1568  0.9798
 1432SOL    HW3 5782   3.942   2.409   2.315  0.7954 -0.4023  0.3610
 1432SOL    MW4 5783   4.020   2.437   2.289  0.4845  0.3083  0.1595
 1433SOL     OW 5784   4.064   2.677   2.400 -0.1963  0.0050 -0.0197
 1433SOL    HW2 5785   4.050   2.694   2.493 -0.0803  1.9487 -0.3435
 1433SOL    HW3 5786   3.993   2.723   2.356  0.2653 -0.1618 -0.9547
 1433SOL    MW4 5787   4.053   2.685   2.406 -0.1202  0.2394 -0.1860
 1434SOL     OW 5788   4.279   2.818   2.262  0.1936  0.2777 -0.1360
 1434SOL    HW2 5789   4.202   2.766   2.286  1.1496 -1.8149 -1.4705
 1434SOL    HW3 5790   4.348   2.788   2.323  0.2465  1.3754  0.3523
 1434SOL    MW4 5791   4.278   2.807   2.273  0.3266  0.1462 -0.2477
 1435SOL     OW 5792   4.242   3.096   2.351  0.3953  0.4325  0.0144
 1435SOL    HW2 5793   4.247   3.004   2.326  0.7669  1.1491 -2.6240
 1435SOL    HW3 5794   4.329   3.132   2.332 -0.2615  1.7340 -0.6004
 1435SOL    MW4 5795   4.254   3.089   2.345  0.3581  0.6988 -0.4146
 1436SOL     OW 5796   4.034   3.250   2.255  0.7195 -0.1554  0.3643
 1436SOL    HW2 5797   4.054   3.334   2.297  1.1397  0.2291 -0.5855
 1436SOL    HW3 5798   4.110   3.196   2.271  0.9504  0.0475 -0.0441
 1436SOL    MW4 5799   4.046   3.254   2.262  0.8049 -0.0780  0.1850
 1437SOL     OW 5800   4.039   3.497   2.380 -0.3120  0.1370 -0.2018
 1437SOL    HW2 5801   4.121   3.539   2.352 -0.5162  0.4577 -0.3183
 1437SOL    HW3 5802   3.972   3.533   2.322 -0.7517  0.8732  0.7387
 1437SOL    MW4 5803   4.041   3.507   2.369 -0.3972  0.2766 -0.0930
 1438SOL     OW 5804   4.240   3.638   2.258 -0.0714 -0.5868  0.7565
 1438SOL    HW2 5805   4.235   3.733   2.268  0.9158 -0.4967  0.5011
 1438SOL    HW3 5806   4.224   3.623   2.165 -0.9567 -0.7346  0.9293
 1438SOL    MW4 5807   4.238   3.648   2.247 -0.0582 -0.5941  0.7458
 1439SOL     OW 5808   4.239   3.898   2.337 -0.2015 -0.1715  0.2578
 1439SOL    HW2 5809   4.254   3.862   2.425 -0.7853  2.0513  1.3255
 1439SOL    HW3 5810   4.322   3.939   2.314 -0.5547  0.7220  0.5298
 1439SOL    MW4 5811   4.252   3.899   2.346 -0.3252  0.2396  0.4346
 1440SOL     OW 5812   4.011   4.050   2.267  0.0892  0.2358  0.4236
 1440SOL    HW2 5813   4.092   4.005   2.291  0.2243 -0.3117 -0.9781
 1440SOL    HW3 5814   4.013   4.052   2.171 -0.7491  1.6988  0.4183
 1440SOL    MW4 5815   4.022   4.045   2.257 -0.0033  0.3572  0.2379
 1441SOL     OW 5816   4.002   4.307   2.393  0.2086  0.4660 -0.1991
 1441SOL    HW2 5817   4.068   4.357   2.346 -0.8747  0.3076 -1.9244
 1441SOL    HW3 5818   4.009   4.218   2.358  0.9510 -0.2097  1.6112
 1441SOL    MW4 5819   4.012   4.302   2.383  0.1636  0.3557 -0.1876
 1442SOL     OW 5820   4.242   4.389   2.282  0.2814 -0.0636 -0.1514
 1442SOL    HW2 5821   4.261   4.472   2.325 -0.2151 -0.0319  0.0164
 1442SOL    HW3 5822   4.312   4.330   2.310  0.5707  0.2687 -0.1828
 1442SOL    MW4 5823   4.253   4.392   2.291  0.2542 -0.0157 -0.1333
 1443SOL     OW 5824   0.205   4.665   2.637  0.0711 -0.0970 -0.0411
 1443SOL    HW2 5825   0.208   4.581   2.683  1.1382  0.4832  0.9579
 1443SOL    HW3 5826   0.134   4.713   2.678  0.0988 -0.1293  0.0438
 1443SOL    MW4 5827   0.196   4.660   2.648  0.2155 -0.0248  0.1018
 1444SOL     OW 5828   4.485   0.130   2.764 -0.1282  0.1544  0.5237
 1444SOL    HW2 5829   4.528   0.137   2.849  0.7364 -2.4350  0.3582
 1444SOL    HW3 5830   4.460   0.219   2.742  0.8616  1.0466  2.8644
 1444SOL    MW4 5831   4.487   0.142   2.772  0.1165 -0.0695  0.8106
 1445SOL     OW 5832   4.467   0.383   2.674  0.5574 -0.2343  0.2517
 1445SOL    HW2 5833   4.549   0.426   2.695 -0.0530  0.7490  0.6803
 1445SOL    HW3 5834   4.465   0.380   2.578  1.0500 -0.1871  0.2387
 1445SOL    MW4 5835   4.477   0.388   2.664  0.5417 -0.0983  0.3066
 1446SOL     OW 5836   0.208   0.522   2.745  0.2222  0.2971  0.1398
 1446SOL    HW2 5837   0.216   0.524   2.840 -0.0419  0.2722  0.1634
 1446SOL    HW3 5838   0.280   0.466   2.716 -1.0905 -1.6440  0.4875
 1446SOL    MW4 5839   0.218   0.515   2.754  0.0141  0.0377  0.1888
 1447SOL     OW 5840   0.214   0.790   2.650  0.1561 -0.3520  0.1452
 1447SOL    HW2 5841   0.286   0.835   2.695  0.5377 -0.4958 -0.3237
 1447SOL    HW3 5842   0.224   0.698   2.676  0.1872 -0.3851  0.0122
 1447SOL    MW4 5843   0.225   0.783   2.660  0.2106 -0.3753  0.0658
 1448SOL     OW 5844   0.008   0.895   2.802  0.1581  0.4957 -0.0357
 1448SOL    HW2 5845  -0.067   0.871   2.748 -0.5724 -0.7530  1.5117
 1448SOL    HW3 5846   0.083   0.856   2.757 -0.3346  0.1657 -0.5869
 1448SOL    MW4 5847   0.008   0.887   2.789 -0.0033  0.2874  0.0958
 1449SOL     OW 5848   0.011   1.125   2.645  0.2352 -0.1423 -0.3228
 1449SOL    HW2 5849   0.089   1.177   2.664  0.1925 -0.1629 -0.0855
 1449SOL    HW3 5850   0.018   1.049   2.704  0.0341 -0.1423 -0.2987
 1449SOL    MW4 5851   0.022   1.122   2.656  0.2031 -0.1451 -0.2882
 1450SOL     OW 5852   0.225   1.270   2.745  0.0292 -0.2345  0.1132
 1450SOL    HW2 5853   0.303   1.219   2.722  0.4811  0.1341  0.8172
 1450SOL    HW3 5854   0.236   1.353   2.697 -2.0606 -1.8197 -3.2622
 1450SOL    MW4 5855   0.237   1.274   2.735 -0.1869 -0.3949 -0.2391
 1451SOL     OW 5856   0.249   1.550   2.637  0.0569 -0.3390 -0.0072
 1451SOL    HW2 5857   0.331   1.590   2.668  0.0894 -1.8923  1.9870
 1451SOL    HW3 5858   0.180   1.601   2.679  0.0287 -0.4301  0.0555
 1451SOL    MW4 5859   0.251   1.562   2.646  0.0574 -0.5559  0.2642
 1452SOL     OW 5860   0.017   1.658   2.760 -0.0558 -0.0420 -0.4841
 1452SOL    HW2 5861   0.023   1.655   2.855 -0.5199  0.0345 -0.4547
 1452SOL    HW3 5862   0.001   1.750   2.739 -0.1344 -0.0879 -0.6275
 1452SOL    MW4 5863   0.016   1.670   2.770 -0.1274 -0.0380 -0.4992
 1453SOL     OW 5864   4.438   1.910   2.649  0.2010 -0.3059  0.2325
 1453SOL    HW2 5865   4.513   1.963   2.676 -0.4217 -0.0603  1.4966
 1453SOL    HW3 5866   4.440   1.913   2.553  1.2296  0.5091  0.2712
 1453SOL    MW4 5867   4.448   1.917   2.640  0.2542 -0.1659  0.4041
 1454SOL     OW 5868   0.169   2.043   2.767 -0.0230 -0.1094 -0.2605
 1454SOL    HW2 5869   0.256   2.005   2.754 -0.0735 -0.4491  0.3584
 1454SOL    HW3 5870   0.174   2.129   2.725  1.3759  0.8940  1.8675
 1454SOL    MW4 5871   0.181   2.049   2.760  0.1549 -0.0217  0.1018
 1455SOL     OW 5872   0.212   2.297   2.647  0.0818 -0.6524  0.0225
 1455SOL    HW2 5873   0.284   2.319   2.706 -0.0354 -0.5157  0.1170
 1455SOL    HW3 5874   0.142   2.358   2.672  0.2690 -0.1282 -0.7204
 1455SOL    MW4 5875   0.212   2.308   2.658  0.0911 -0.5655 -0.0634
 1456SOL     OW 5876   0.001   2.454   2.747 -0.5319 -0.3300  0.1900
 1456SOL    HW2 5877  -0.006   2.436   2.841 -0.9910  0.7881  0.3766
 1456SOL    HW3 5878  -0.082   2.422   2.711 -0.1239 -1.2691  0.0797
 1456SOL    MW4 5879  -0.011   2.447   2.755 -0.5388 -0.3061  0.2003
 1457SOL     OW 5880   0.010   2.726   2.669 -0.0411 -0.3797 -0.1715
 1457SOL    HW2 5881  -0.076   2.762   2.692 -0.2423 -0.6544 -0.5015
 1457SOL    HW3 5882   0.010   2.637   2.705  0.8484  0.2948  1.5660
 1457SOL    MW4 5883  -0.001   2.719   2.677  0.0497 -0.3271  0.0143
 1458SOL     OW 5884   0.248   2.823   2.775 -0.0881 -0.0941  0.1437
 1458SOL    HW2 5885   0.245   2.916   2.753 -0.4040  0.2529  1.5734
 1458SOL    HW3 5886   0.167   2.787   2.741 -1.2676  0.7307  1.9844
 1458SOL    MW4 5887   0.237   2.830   2.768 -0.2854  0.0603  0.5751
 1459SOL     OW 5888   0.247   3.088   2.656  0.3607 -0.2379  0.3544
 1459SOL    HW2 5889   0.321   3.143   2.680  0.5086 -1.3648  2.6338
 1459SOL    HW3 5890   0.240   3.097   2.561  2.0809  1.5345  0.3630
 1459SOL    MW4 5891   0.256   3.097   2.647  0.6072 -0.1526  0.6561
 1460SOL     OW 5892   0.015   3.235   2.769 -0.6602  0.4261 -0.3732
 1460SOL    HW2 5893  -0.057   3.195   2.721 -0.5344  0.1347 -0.3221
 1460SOL    HW3 5894   0.092   3.184   2.743 -0.6770 -0.0783  0.5517
 1460SOL    MW4 5895   0.016   3.223   2.759 -0.6461  0.3211 -0.2446
 1461SOL     OW 5896   4.483   3.476   2.633 -0.1227 -0.0610  0.0237
 1461SOL    HW2 5897   4.547   3.537   2.670 -0.3371  1.6899 -2.3066
 1461SOL    HW3 5898   4.496   3.395   2.681  2.1831  0.9780  1.2515
 1461SOL    MW4 5899   4.493   3.474   2.644  0.1531  0.3071 -0.1223
 1462SOL     OW 5900   0.195   3.595   2.763  0.0650  0.0062  0.2972
 1462SOL    HW2 5901   0.194   3.616   2.856  1.7284 -0.1084  0.3513
 1462SOL    HW3 5902   0.286   3.569   2.744  0.2756  2.1011 -1.8141
 1462SOL    MW4 5903   0.207   3.594   2.773  0.3123  0.2675  0.0257
 1463SOL     OW 5904   0.256   3.842   2.653 -0.1317  0.6395 -0.2307
 1463SOL    HW2 5905   0.218   3.756   2.675 -0.6638  0.9244 -0.0153
 1463SOL    HW3 5906   0.263   3.841   2.557  0.3375  0.1611 -0.1948
 1463SOL    MW4 5907   0.252   3.830   2.643 -0.1400  0.6142 -0.1976
 1464SOL     OW 5908   0.013   3.970   2.733 -0.2180  0.1202 -0.1355
 1464SOL    HW2 5909   0.011   4.057   2.694 -0.6897 -0.1604 -0.7597
 1464SOL    HW3 5910   0.089   3.927   2.694 -1.1424 -0.4327 -1.3804
 1464SOL    MW4 5911   0.023   3.976   2.722 -0.4022  0.0105 -0.3822
 1465SOL     OW 5912   0.016   4.239   2.644 -0.1039 -0.2651 -0.1473
 1465SOL    HW2 5913  -0.052   4.293   2.684  0.7786  1.1345 -0.4899
 1465SOL    HW3 5914   0.098   4.277   2.675  0.6216  0.9811 -3.3971
 1465SOL    MW4 5915   0.018   4.251   2.653  0.1083  0.0844 -0.6213
 1466SOL     OW 5916   0.221   4.401   2.738  0.0050  0.6553 -0.5699
 1466SOL    HW2 5917   0.228   4.401   2.833 -3.0746 -0.1655 -0.3011
 1466SOL    HW3 5918   0.306   4.368   2.708  1.4727  2.1110  1.8009
 1466SOL    MW4 5919   0.233   4.397   2.746 -0.2077  0.7391 -0.2215
 1467SOL     OW 5920   0.666   4.638   2.618  0.1314 -0.2167 -0.3521
 1467SOL    HW2 5921   0.741   4.670   2.668 -0.3162  1.2996 -0.6006
 1467SOL    HW3 5922   0.592   4.687   2.653 -0.6187 -1.1444 -0.6340
 1467SOL    MW4 5923   0.666   4.649   2.629 -0.0266 -0.1388 -0.4220
 1468SOL     OW 5924   0.459   0.104   2.731  0.4499  0.2022  0.1240
 1468SOL    HW2 5925   0.452   0.075   2.821 -0.5415 -0.6436 -0.2148
 1468SOL    HW3 5926   0.376   0.077   2.690  0.3141  1.7416 -0.6989
 1468SOL    MW4 5927   0.447   0.097   2.737  0.3012  0.2937 -0.0296
 1469SOL     OW 5928   0.442   0.381   2.674 -0.2970 -0.1087 -0.4312
 1469SOL    HW2 5929   0.522   0.428   2.698  0.4270 -1.4466 -0.1959
 1469SOL    HW3 5930   0.448   0.297   2.720 -1.0870 -0.8413 -1.6337
 1469SOL    MW4 5931   0.453   0.376   2.683 -0.3057 -0.3819 -0.5589
 1470SOL     OW 5932   0.653   0.517   2.776 -0.0866 -0.0575 -0.0335
 1470SOL    HW2 5933   0.647   0.513   2.871 -0.7524  2.1566  0.0280
 1470SOL    HW3 5934   0.737   0.476   2.756 -0.9129 -2.5226  1.3296
 1470SOL    MW4 5935   0.663   0.511   2.786 -0.2834 -0.0905  0.1547
 1471SOL     OW 5936   0.642   0.770   2.652 -0.2733  0.2222 -0.2019
 1471SOL    HW2 5937   0.725   0.810   2.680  0.1132 -1.2848  0.8971
 1471SOL    HW3 5938   0.654   0.677   2.670 -1.2186 -0.3821 -2.5296
 1471SOL    MW4 5939   0.655   0.763   2.658 -0.3470 -0.0564 -0.3641
 1472SOL     OW 5940   0.427   0.914   2.790 -0.1298 -0.0248  0.0048
 1472SOL    HW2 5941   0.440   1.006   2.767 -0.8602 -0.4116 -2.1352
 1472SOL    HW3 5942   0.492   0.867   2.737  0.6685 -0.7095  1.5570
 1472SOL    MW4 5943   0.438   0.920   2.780 -0.1208 -0.1662 -0.0730
 1473SOL     OW 5944   0.458   1.149   2.673 -0.0879 -0.1979  0.5253
 1473SOL    HW2 5945   0.527   1.212   2.693 -0.5923  0.2145  0.9616
 1473SOL    HW3 5946   0.467   1.133   2.579 -0.4549  1.1267  0.2510
 1473SOL    MW4 5947   0.468   1.155   2.663 -0.2029  0.0312  0.5469
 1474SOL     OW 5948   0.682   1.284   2.746 -1.0351  0.3353 -0.3547
 1474SOL    HW2 5949   0.692   1.285   2.842 -1.1677 -1.3333 -0.2959
 1474SOL    HW3 5950   0.752   1.226   2.716 -0.9212  0.9573 -1.2898
 1474SOL    MW4 5951   0.693   1.276   2.755 -1.0375  0.1972 -0.4704
 1475SOL     OW 5952   0.693   1.542   2.639  0.0381 -0.0941  0.1580
 1475SOL    HW2 5953   0.622   1.596   2.675 -0.5808 -0.3608 -0.6306
 1475SOL    HW3 5954   0.688   1.460   2.687 -0.1393 -0.0840  0.1582
 1475SOL    MW4 5955   0.683   1.539   2.650 -0.0669 -0.1279  0.0541
 1476SOL     OW 5956   0.470   1.672   2.750  0.6713 -0.1047 -0.1717
 1476SOL    HW2 5957   0.461   1.673   2.846  0.3264  0.8045 -0.2109
 1476SOL    HW3 5958   0.445   1.760   2.723  1.8137 -0.0333 -1.0174
 1476SOL    MW4 5959   0.465   1.684   2.759  0.7765  0.0247 -0.2882
 1477SOL     OW 5960   0.419   1.922   2.653  0.5429 -0.3027  0.1197
 1477SOL    HW2 5961   0.505   1.959   2.674  0.1032  0.5709  0.4079
 1477SOL    HW3 5962   0.414   1.926   2.557  0.0921  1.3425  0.1974
 1477SOL    MW4 5963   0.430   1.928   2.643  0.4254  0.0296  0.1678
 1478SOL     OW 5964   0.659   2.027   2.757 -0.1525 -0.0482  0.4542
 1478SOL    HW2 5965   0.662   2.017   2.852  0.5834  2.1859  0.7024
 1478SOL    HW3 5966   0.736   1.981   2.725  0.8693  1.1487  1.1545
 1478SOL    MW4 5967   0.670   2.020   2.765  0.0794  0.4041  0.5794
 1479SOL     OW 5968   0.662   2.281   2.665 -0.2187 -0.0816  0.1125
 1479SOL    HW2 5969   0.738   2.330   2.697 -0.3501  0.3759 -0.2687
 1479SOL    HW3 5970   0.674   2.193   2.699  0.4269  0.0205  0.1489
 1479SOL    MW4 5971   0.674   2.276   2.674 -0.1509 -0.0076  0.0670
 1480SOL     OW 5972   0.428   2.396   2.775 -0.4315  0.2606  0.3190
 1480SOL    HW2 5973   0.428   2.486   2.743 -2.8040 -0.0281 -0.5628
 1480SOL    HW3 5974   0.503   2.355   2.732 -0.5357  1.2634 -0.8320
 1480SOL    MW4 5975   0.438   2.403   2.765 -0.7583  0.3548  0.0510
 1481SOL     OW 5976   0.455   2.662   2.668  0.0313 -0.1445 -0.2824
 1481SOL    HW2 5977   0.532   2.718   2.681 -0.1094  0.4867 -2.1250
 1481SOL    HW3 5978   0.382   2.714   2.700  0.0505  0.2546 -0.8875
 1481SOL    MW4 5979   0.456   2.676   2.674  0.0152 -0.0086 -0.6053
 1482SOL     OW 5980   0.688   2.809   2.767  0.1837 -0.1892  0.0042
 1482SOL    HW2 5981   0.677   2.831   2.860  1.1569  1.9105 -0.3478
 1482SOL    HW3 5982   0.685   2.893   2.722  0.3263 -1.1350 -1.8178
 1482SOL    MW4 5983   0.686   2.823   2.773  0.3310 -0.0370 -0.2825
 1483SOL     OW 5984   0.677   3.066   2.659 -0.1583 -0.0358  0.4564
 1483SOL    HW2 5985   0.759   3.107   2.683  0.0163 -1.2433  2.0315
 1483SOL    HW3 5986   0.676   3.068   2.563  1.2737  0.7923  0.4470
 1483SOL    MW4 5987   0.687   3.071   2.650  0.0537 -0.0858  0.6630
 1484SOL     OW 5988   0.472   3.224   2.765  0.0708  0.3491  0.3574
 1484SOL    HW2 5989   0.463   3.207   2.859  1.6618  1.1645  0.6725
 1484SOL    HW3 5990   0.551   3.177   2.739 -0.9294 -0.7457 -0.8227
 1484SOL    MW4 5991   0.481   3.215   2.774  0.1487  0.3123  0.2432
 1485SOL     OW 5992   0.436   3.485   2.678  0.5846 -0.0268  0.5424
 1485SOL    HW2 5993   0.458   3.400   2.715  0.9469 -0.6840 -1.1335
 1485SOL    HW3 5994   0.445   3.473   2.584  0.2075  1.7502  0.2636
 1485SOL    MW4 5995   0.440   3.472   2.671  0.5826  0.1211  0.2847
 1486SOL     OW 5996   0.684   3.604   2.728  0.1872  0.4022  0.1483
 1486SOL    HW2 5997   0.691   3.611   2.823  0.4926 -1.9190  0.3471
 1486SOL    HW3 5998   0.596   3.569   2.713  0.4830 -0.1590 -0.3353
 1486SOL    MW4 5999   0.674   3.600   2.738  0.2666  0.0222  0.1106
 1487SOL     OW 6000   0.681   3.888   2.629  0.0446 -0.6688  0.1762
 1487SOL    HW2 6001   0.607   3.928   2.675 -0.7164 -1.4363 -0.3589
 1487SOL    HW3 6002   0.679   3.796   2.656 -0.8652 -1.3107 -1.9248
 1487SOL    MW4 6003   0.671   3.881   2.639 -0.1758 -0.8547 -0.1717
 1488SOL     OW 6004   0.465   4.011   2.749  0.3149  0.2314  0.1053
 1488SOL    HW2 6005   0.440   4.092   2.704 -1.7712 -0.1638  0.5328
 1488SOL    HW3 6006   0.401   3.946   2.721  2.0568 -1.3605 -0.3503
 1488SOL    MW4 6007   0.453   4.013   2.740  0.2695 -0.0305  0.1013
 1489SOL     OW 6008   0.445   4.265   2.677 -0.0344  0.2026 -0.0128
 1489SOL    HW2 6009   0.535   4.290   2.698  0.5711 -1.6631 -0.2388
 1489SOL    HW3 6010   0.443   4.261   2.582  0.2114 -1.6652  0.0427
 1489SOL    MW4 6011   0.457   4.267   2.667  0.0779 -0.2899 -0.0355
 1490SOL     OW 6012   0.673   4.407   2.784  0.2276 -0.1307 -0.8756
 1490SOL    HW2 6013   0.756   4.378   2.745 -0.1609  0.9306 -2.5702
 1490SOL    HW3 6014   0.655   4.491   2.741 -1.7866 -0.4068 -0.6183
 1490SOL    MW4 6015   0.682   4.415   2.773 -0.0895 -0.0277 -1.0655
 1491SOL     OW 6016   1.149   4.619   2.633 -0.2141 -0.5646  0.2559
 1491SOL    HW2 6017   1.218   4.673   2.672  0.3020 -1.3455  0.4265
 1491SOL    HW3 6018   1.174   4.529   2.653 -1.1934 -0.8641  0.1686
 1491SOL    MW4 6019   1.161   4.614   2.640 -0.2753 -0.7071  0.2670
 1492SOL     OW 6020   0.896   0.044   2.741  0.0848  0.0128 -0.6637
 1492SOL    HW2 6021   0.913   0.072   2.831 -1.7062 -2.1021  0.4032
 1492SOL    HW3 6022   0.982   0.019   2.707  0.8045  0.9815  0.4165
 1492SOL    MW4 6023   0.910   0.044   2.749 -0.0565 -0.1385 -0.3803
 1493SOL     OW 6024   0.885   0.364   2.691  0.1081 -0.4316 -0.1358
 1493SOL    HW2 6025   0.890   0.269   2.706  1.0977 -0.2938  0.4958
 1493SOL    HW3 6026   0.913   0.375   2.600  0.4295 -0.7133 -0.0743
 1493SOL    MW4 6027   0.889   0.353   2.681  0.2810 -0.4506 -0.0446
 1494SOL     OW 6028   1.133   0.510   2.729 -0.1915 -0.5097 -0.4993
 1494SOL    HW2 6029   1.125   0.600   2.697 -0.6103 -0.7601 -1.1183
 1494SOL    HW3 6030   1.044   0.474   2.720 -0.1664 -0.7898  0.3390
 1494SOL    MW4 6031   1.120   0.517   2.723 -0.2434 -0.5797 -0.4702
 1495SOL     OW 6032   1.101   0.777   2.633  0.1006 -0.1704  0.2976
 1495SOL    HW2 6033   1.182   0.816   2.665  0.2982 -0.6453  0.3874
 1495SOL    HW3 6034   1.101   0.794   2.539 -0.1307  0.6047  0.4367
 1495SOL    MW4 6035   1.112   0.784   2.625  0.0961 -0.1308  0.3278
 1496SOL     OW 6036   0.870   0.891   2.752 -0.3482  0.4141 -0.3500
 1496SOL    HW2 6037   0.867   0.885   2.848 -1.1890 -0.1097 -0.4040
 1496SOL    HW3 6038   0.954   0.855   2.728 -1.5584 -2.7286 -0.0398
 1496SOL    MW4 6039   0.880   0.886   2.762 -0.6187 -0.0697 -0.3159
 1497SOL     OW 6040   0.885   1.164   2.632  0.5990  0.1254  0.0519
 1497SOL    HW2 6041   0.891   1.072   2.660  1.0147 -0.1207 -0.8376
 1497SOL    HW3 6042   0.890   1.160   2.536  0.8209  1.0973  0.0268
 1497SOL    MW4 6043   0.886   1.151   2.623  0.6831  0.2213 -0.0689
 1498SOL     OW 6044   1.114   1.278   2.730  0.5333 -0.4923  0.2950
 1498SOL    HW2 6045   1.115   1.368   2.697 -0.0112 -0.5298  0.1705
 1498SOL    HW3 6046   1.038   1.238   2.687  1.6381 -1.4489 -0.7948
 1498SOL    MW4 6047   1.104   1.285   2.720  0.6073 -0.6236  0.1347
 1499SOL     OW 6048   1.123   1.530   2.613 -0.0935  0.1049  0.3953
 1499SOL    HW2 6049   1.059   1.594   2.644 -0.0256  0.4269 -0.1176
 1499SOL    HW3 6050   1.132   1.548   2.520 -0.9953 -1.4763 -0.0081
 1499SOL    MW4 6051   1.116   1.541   2.605 -0.2035 -0.0613  0.2742
 1500SOL     OW 6052   0.911   1.682   2.727 -0.3230  0.4679  0.0912
 1500SOL    HW2 6053   0.923   1.677   2.822  1.6247 -0.0892 -0.1795
 1500SOL    HW3 6054   0.827   1.637   2.712  0.6172 -1.7505  1.2815
 1500SOL    MW4 6055   0.901   1.675   2.738  0.0580  0.1014  0.2127
 1501SOL     OW 6056   0.891   1.944   2.601 -0.5605 -0.4746 -0.1773
 1501SOL    HW2 6057   0.967   1.997   2.626  1.0986 -1.6801 -2.5030
 1501SOL    HW3 6058   0.907   1.859   2.641 -1.8080 -0.0861  1.1745
 1501SOL    MW4 6059   0.903   1.940   2.610 -0.5062 -0.5825 -0.3059
 1502SOL     OW 6060   1.137   2.035   2.751  0.2720 -0.1303  0.0888
 1502SOL    HW2 6061   1.213   1.995   2.709 -0.5047 -1.9805  0.4175
 1502SOL    HW3 6062   1.143   2.128   2.727  2.5407 -0.2734  0.0019
 1502SOL    MW4 6063   1.148   2.042   2.742  0.4687 -0.3934  0.1209
 1503SOL     OW 6064   1.128   2.307   2.660 -0.5514 -0.3348 -0.1791
 1503SOL    HW2 6065   1.190   2.365   2.704  0.1763 -0.2651 -1.2947
 1503SOL    HW3 6066   1.158   2.302   2.570 -2.2149 -0.2519 -0.7553
 1503SOL    MW4 6067   1.140   2.314   2.654 -0.6748 -0.3147 -0.4025
 1504SOL     OW 6068   0.886   2.416   2.717 -0.4657 -0.4283  0.3012
 1504SOL    HW2 6069   0.899   2.509   2.696  0.6480 -0.5535  0.3857
 1504SOL    HW3 6070   0.966   2.374   2.687 -0.5196 -1.2044  1.2162
 1504SOL    MW4 6071   0.898   2.423   2.711 -0.3259 -0.5474  0.4332
 1505SOL     OW 6072   0.897   2.709   2.633 -0.4743 -0.2554  0.6703
 1505SOL    HW2 6073   0.967   2.764   2.665 -0.8173  1.3664 -1.2357
 1505SOL    HW3 6074   0.820   2.737   2.682 -0.2853 -0.2467  0.9585
 1505SOL    MW4 6075   0.896   2.720   2.644 -0.4946 -0.0405  0.4568
 1506SOL     OW 6076   1.100   2.850   2.724  0.1983 -0.0823 -0.0543
 1506SOL    HW2 6077   1.101   2.844   2.820  0.5288  0.1345 -0.0426
 1506SOL    HW3 6078   1.179   2.803   2.696  0.0973 -0.1534 -0.2228
 1506SOL    MW4 6079   1.111   2.843   2.733  0.2285 -0.0629 -0.0751
 1507SOL     OW 6080   1.148   3.096   2.635  0.0000  0.0000  0.0119
 1507SOL    HW2 6081   1.122   3.007   2.658  0.0000  0.0000  0.0140
 1507SOL    HW3 6082   1.136   3.101   2.540  0.0000  0.0000  0.0120
 1507SOL    MW4 6083   1.143   3.085   2.625  0.0000  0.0000  0.0122
 1508SOL     OW 6084   0.919   3.208   2.741  0.0000  0.0000  0.0112
 1508SOL    HW2 6085   0.903   3.287   2.689  0.0000  0.0000 -0.0107
 1508SOL    HW3 6086   1.006   3.179   2.713  0.0000  0.0000  0.0377
 1508SOL    MW4 6087   0.928   3.215   2.730  0.0000  0.0000  0.0114
 1509SOL     OW 6088   0.887   3.462   2.621  0.0000  0.0000 -0.3879
 1509SOL    HW2 6089   0.961   3.509   2.661  0.0000  0.0000 -0.3680
 1509SOL    HW3 6090   0.810   3.512   2.650  0.0000  0.0000 -0.3888
 1509SOL    MW4 6091   0.887   3.475   2.630  0.0000  0.0000 -0.3855
 1510SOL     OW 6092   1.102   3.599   2.734  0.0000  0.0000 -0.0240
 1510SOL    HW2 6093   1.101   3.626   2.826  0.0000  0.0000 -0.0245
 1510SOL    HW3 6094   1.100   3.681   2.685  0.0000  0.0000 -0.0254
 1510SOL    MW4 6095   1.102   3.613   2.740  0.0000  0.0000 -0.0241
 1511SOL     OW 6096   1.098   3.851   2.637  0.0000  0.0000 -0.4447
 1511SOL    HW2 6097   1.178   3.889   2.675  0.0000  0.0000 -0.4445
 1511SOL    HW3 6098   1.110   3.859   2.542  0.0000  0.0000 -0.4446
 1511SOL    MW4 6099   1.110   3.857   2.630  0.0000  0.0000 -0.4447
 1512SOL     OW 6100   0.893   4.008   2.773  0.0000  0.0000 -0.1917
 1512SOL    HW2 6101   0.957   3.963   2.718  0.0000  0.0000 -0.2057
 1512SOL    HW3 6102   0.809   3.969   2.747  0.0000  0.0000 -0.1591
 1512SOL    MW4 6103   0.890   3.997   2.762  0.0000  0.0000 -0.1891
 1513SOL     OW 6104   0.888   4.266   2.678  0.0000  0.0000  0.0244
 1513SOL    HW2 6105   0.892   4.173   2.703  0.0000  0.0000  0.0329
 1513SOL    HW3 6106   0.884   4.265   2.583  0.0000  0.0000  0.0246
 1513SOL    MW4 6107   0.888   4.254   2.669  0.0000  0.0000  0.0257
 1514SOL     OW 6108   1.144   4.351   2.728  0.0000  0.0000 -0.3582
 1514SOL    HW2 6109   1.137   4.378   2.820  0.0000  0.0000 -0.3584
 1514SOL    HW3 6110   1.055   4.327   2.703  0.0000  0.0000 -0.3515
 1514SOL    MW4 6111   1.131   4.351   2.737  0.0000  0.0000 -0.3572
 1515SOL     OW 6112   1.593   4.643   2.643  0.0000  0.0000  0.0390
 1515SOL    HW2 6113   1.588   4.549   2.660  0.0000  0.0000  0.0353
 1515SOL    HW3 6114   1.581   4.652   2.549  0.0000  0.0000  0.0394
 1515SOL    MW4 6115   1.591   4.632   2.633  0.0000  0.0000  0.0384
 1516SOL     OW 6116   1.351   0.115   2.736 -0.4800 -0.1496  0.0636
 1516SOL    HW2 6117   1.350   0.200   2.692 -1.5761  0.1326  0.6064
 1516SOL    HW3 6118   1.435   0.077   2.713  0.9110  1.9555  1.4493
 1516SOL    MW4 6119   1.362   0.121   2.727 -0.4410  0.1654  0.3183
 1517SOL     OW 6120   1.350   0.381   2.629  0.5372 -0.2429 -0.3094
 1517SOL    HW2 6121   1.423   0.404   2.688  1.1947 -0.5304 -1.0029
 1517SOL    HW3 6122   1.273   0.419   2.671  1.0864  0.0697  0.4364
 1517SOL    MW4 6123   1.350   0.389   2.643  0.6964 -0.2396 -0.3026
 1518SOL     OW 6124   1.558   0.479   2.779  0.1219  0.4459  0.3675
 1518SOL    HW2 6125   1.633   0.427   2.751  0.1744  0.1022  1.1275
 1518SOL    HW3 6126   1.560   0.556   2.722 -0.7622 -1.0153 -1.7023
 1518SOL    MW4 6127   1.568   0.483   2.768  0.0122  0.2078  0.1948
 1519SOL     OW 6128   1.564   0.736   2.665 -0.0887  0.5237 -0.0873
 1519SOL    HW2 6129   1.480   0.776   2.690  0.2041  0.5751  0.8484
 1519SOL    HW3 6130   1.567   0.744   2.570 -2.2738 -1.6327 -0.3951
 1519SOL    MW4 6131   1.553   0.742   2.656 -0.3383  0.2459 -0.0045
 1520SOL     OW 6132   1.338   0.871   2.716  0.7805 -0.1603 -0.3181
 1520SOL    HW2 6133   1.343   0.880   2.811 -0.8975 -2.1946 -0.0011
 1520SOL    HW3 6134   1.356   0.959   2.683 -1.2800  1.1926  1.9868
 1520SOL    MW4 6135   1.341   0.884   2.724  0.2873 -0.2502  0.0279
 1521SOL     OW 6136   1.344   1.132   2.624 -0.1816  0.0926 -0.2632
 1521SOL    HW2 6137   1.420   1.166   2.671  1.0412 -1.2824 -1.2066
 1521SOL    HW3 6138   1.270   1.179   2.662  1.0357  0.7981  1.3096
 1521SOL    MW4 6139   1.344   1.143   2.635  0.1403  0.0043 -0.1802
 1522SOL     OW 6140   1.571   1.259   2.716 -0.0522  0.0901  0.3030
 1522SOL    HW2 6141   1.584   1.257   2.811 -1.1205 -0.2978  0.4470
 1522SOL    HW3 6142   1.650   1.219   2.680 -0.2176 -0.9616  1.0923
 1522SOL    MW4 6143   1.583   1.254   2.724 -0.2149 -0.0998  0.4263
 1523SOL     OW 6144   1.565   1.518   2.645 -0.1267 -0.1371 -0.1909
 1523SOL    HW2 6145   1.560   1.426   2.672 -1.9407 -0.1397 -0.4573
 1523SOL    HW3 6146   1.572   1.515   2.549  0.6019 -0.0126 -0.1427
 1523SOL    MW4 6147   1.566   1.505   2.636 -0.2698 -0.1211 -0.2196
 1524SOL     OW 6148   1.336   1.636   2.735 -0.5803 -0.2096  0.3735
 1524SOL    HW2 6149   1.414   1.583   2.716 -0.6148  0.0888 -0.6512
 1524SOL    HW3 6150   1.264   1.590   2.693 -0.9351 -0.3911  1.1719
 1524SOL    MW4 6151   1.337   1.623   2.727 -0.6317 -0.1941  0.3436
 1525SOL     OW 6152   1.383   1.927   2.629  0.6177  0.2031 -0.0732
 1525SOL    HW2 6153   1.375   1.833   2.647 -2.9226  0.4801  0.1464
 1525SOL    HW3 6154   1.355   1.936   2.538 -0.9018  1.2569  0.4868
 1525SOL    MW4 6155   1.378   1.915   2.620 -0.0499  0.3786  0.0296
 1526SOL     OW 6156   1.612   2.066   2.684  0.0676  0.4186  0.6475
 1526SOL    HW2 6157   1.683   2.010   2.653  0.2218  1.2875 -0.5739
 1526SOL    HW3 6158   1.532   2.018   2.661  0.2034  0.5879 -0.1871
 1526SOL    MW4 6159   1.611   2.052   2.677  0.1057  0.5555  0.3762
 1527SOL     OW 6160   1.563   2.325   2.606 -0.3287  0.2834 -0.0450
 1527SOL    HW2 6161   1.642   2.372   2.634 -0.4812  1.1216 -1.0296
 1527SOL    HW3 6162   1.586   2.233   2.619  0.5553  0.5483  0.3639
 1527SOL    MW4 6163   1.577   2.319   2.611 -0.2322  0.4289 -0.1209
 1528SOL     OW 6164   1.352   2.459   2.731  0.0361 -0.2977  0.1314
 1528SOL    HW2 6165   1.331   2.539   2.683 -0.2830 -0.7966 -0.5882
 1528SOL    HW3 6166   1.439   2.435   2.700 -0.5575 -1.1293 -0.9097
 1528SOL    MW4 6167   1.361   2.466   2.720 -0.0842 -0.4733 -0.1009
 1529SOL     OW 6168   1.292   2.684   2.599  0.0609 -0.0871  0.2995
 1529SOL    HW2 6169   1.370   2.730   2.630  0.0146  0.0346  0.2344
 1529SOL    HW3 6170   1.291   2.698   2.505  0.6557 -1.1491  0.1270
 1529SOL    MW4 6171   1.302   2.692   2.591  0.1333 -0.2112  0.2682
 1530SOL     OW 6172   1.502   2.812   2.705  0.5535 -0.1786  0.0997
 1530SOL    HW2 6173   1.494   2.831   2.798  0.4116 -0.3301  0.1197
 1530SOL    HW3 6174   1.590   2.776   2.695  0.8233  0.4927  0.0579
 1530SOL    MW4 6175   1.512   2.810   2.716  0.5703 -0.1101  0.0968
 1531SOL     OW 6176   1.562   3.098   2.594  0.0682 -0.1881  0.3065
 1531SOL    HW2 6177   1.642   3.117   2.643  0.1767 -0.0654  0.0841
 1531SOL    HW3 6178   1.538   3.009   2.620  1.0595 -0.7477 -0.6933
 1531SOL    MW4 6179   1.569   3.089   2.604  0.2133 -0.2456  0.1452
 1532SOL     OW 6180   1.370   3.212   2.752 -0.1740  0.1704  0.0033
 1532SOL    HW2 6181   1.450   3.186   2.706  0.1183  0.7979  0.1504
 1532SOL    HW3 6182   1.301   3.159   2.712  0.4670 -1.0838  0.5460
 1532SOL    MW4 6183   1.371   3.202   2.741 -0.0508  0.0875  0.0944
 1533SOL     OW 6184   1.332   3.466   2.638  0.4320  0.7458  0.4125
 1533SOL    HW2 6185   1.369   3.390   2.681  0.3711 -0.1527 -1.1020
 1533SOL    HW3 6186   1.248   3.479   2.682  0.6329  0.2040  0.9659
 1533SOL    MW4 6187   1.326   3.458   2.650  0.4503  0.5560  0.2856
 1534SOL     OW 6188   1.512   3.638   2.756 -0.0183  0.1519 -0.2454
 1534SOL    HW2 6189   1.589   3.584   2.738  0.5485  1.1581 -0.9310
 1534SOL    HW3 6190   1.439   3.591   2.716  0.3338 -0.4991 -0.1294
 1534SOL    MW4 6191   1.512   3.625   2.749  0.1030  0.1988 -0.3204
 1535SOL     OW 6192   1.575   3.877   2.617  0.6313 -0.1048  0.2875
 1535SOL    HW2 6193   1.499   3.925   2.649 -0.5349 -0.9168 -1.2052
 1535SOL    HW3 6194   1.569   3.791   2.659  0.7353 -0.1510  0.2086
 1535SOL    MW4 6195   1.564   3.872   2.627  0.4911 -0.2177  0.0801
 1536SOL     OW 6196   1.331   3.958   2.716  0.0485  0.1180  0.1054
 1536SOL    HW2 6197   1.332   3.960   2.812 -0.3432 -0.0629  0.1152
 1536SOL    HW3 6198   1.335   4.050   2.690  0.8111  0.1388  0.2850
 1536SOL    MW4 6199   1.331   3.970   2.725  0.0975  0.0968  0.1304
 1537SOL     OW 6200   1.353   4.226   2.627 -0.2482  0.0456  0.2111
 1537SOL    HW2 6201   1.273   4.273   2.648 -0.2658 -0.1240  0.5310
 1537SOL    HW3 6202   1.353   4.220   2.531 -1.1279 -0.8212  0.2532
 1537SOL    MW4 6203   1.342   4.231   2.617 -0.3666 -0.0906  0.2589
 1538SOL     OW 6204   1.576   4.379   2.726 -0.6922 -0.1862  0.0691
 1538SOL    HW2 6205   1.559   4.383   2.820 -0.7792 -0.9540  0.0834
 1538SOL    HW3 6206   1.500   4.336   2.689  0.3926 -2.0318 -0.0637
 1538SOL    MW4 6207   1.564   4.374   2.734 -0.5605 -0.5307  0.0534
 1539SOL     OW 6208   1.996   4.663   2.586 -0.1097 -0.1155  0.2847
 1539SOL    HW2 6209   2.069   4.716   2.618  0.0833 -0.7272  0.8837
 1539SOL    HW3 6210   2.007   4.662   2.491  0.9101 -0.5422  0.3967
 1539SOL    MW4 6211   2.007   4.670   2.578  0.0501 -0.2525  0.3786
 1540SOL     OW 6212   1.817   0.076   2.777  0.2228  0.6721  0.1307
 1540SOL    HW2 6213   1.885   0.047   2.716  1.1081  1.7074  0.6120
 1540SOL    HW3 6214   1.736   0.035   2.744  1.2030 -1.2382  0.0330
 1540SOL    MW4 6215   1.815   0.067   2.764  0.4689  0.5567  0.1814
 1541SOL     OW 6216   1.787   0.355   2.678  0.1774 -0.2175 -0.3732
 1541SOL    HW2 6217   1.870   0.389   2.712 -0.4588  0.2750  0.7520
 1541SOL    HW3 6218   1.796   0.260   2.683  0.5521 -0.1623  0.0797
 1541SOL    MW4 6219   1.799   0.347   2.683  0.1429 -0.1452 -0.1650
 1542SOL     OW 6220   2.015   0.486   2.769  0.2972 -0.4261  0.4895
 1542SOL    HW2 6221   2.099   0.454   2.734  0.4388  0.4645 -0.0058
 1542SOL    HW3 6222   2.002   0.570   2.725 -0.5110 -0.2313  1.1016
 1542SOL    MW4 6223   2.025   0.493   2.759  0.2093 -0.2829  0.5052
 1543SOL     OW 6224   2.010   0.743   2.643 -0.2386 -0.1872  0.3699
 1543SOL    HW2 6225   1.940   0.806   2.658  0.0706  0.7674 -1.9238
 1543SOL    HW3 6226   2.028   0.750   2.549  1.1398 -2.2974  0.4502
 1543SOL    MW4 6227   2.003   0.752   2.632 -0.0162 -0.3397  0.0777
 1544SOL     OW 6228   1.789   0.881   2.711 -0.6017 -0.6246  0.2703
 1544SOL    HW2 6229   1.776   0.969   2.676  0.4786 -0.2136  0.8875
 1544SOL    HW3 6230   1.702   0.840   2.705 -0.9300  0.1975 -0.7733
 1544SOL    MW4 6231   1.776   0.887   2.705 -0.5026 -0.4619  0.2139
 1545SOL     OW 6232   1.794   1.127   2.591 -0.7282  0.6266  0.2363
 1545SOL    HW2 6233   1.859   1.184   2.631 -0.0411 -0.2175  0.3353
 1545SOL    HW3 6234   1.801   1.144   2.497  1.4560 -1.3185  0.0028
 1545SOL    MW4 6235   1.803   1.137   2.584 -0.3494  0.2586  0.2186
 1546SOL     OW 6236   1.948   1.290   2.739 -0.2559 -0.0157  0.4191
 1546SOL    HW2 6237   1.944   1.294   2.835  2.1930  1.1558  0.4973
 1546SOL    HW3 6238   2.030   1.245   2.720  0.0809  1.1974 -1.1292
 1546SOL    MW4 6239   1.958   1.285   2.749  0.1117  0.2990  0.2251
 1547SOL     OW 6240   2.015   1.535   2.626 -0.2175 -0.6586  0.0754
 1547SOL    HW2 6241   1.941   1.595   2.638  0.1811 -0.2571  0.5266
 1547SOL    HW3 6242   1.982   1.451   2.658 -1.1473 -0.9527 -1.5956
 1547SOL    MW4 6243   2.001   1.532   2.632 -0.2875 -0.6446 -0.0854
 1548SOL     OW 6244   1.786   1.678   2.688  0.1159 -0.1083  0.1127
 1548SOL    HW2 6245   1.807   1.667   2.780  2.9077  1.3543 -0.2838
 1548SOL    HW3 6246   1.706   1.627   2.675  0.9196 -2.1721  2.8039
 1548SOL    MW4 6247   1.779   1.670   2.698  0.5902 -0.1875  0.4153
 1549SOL     OW 6248   1.812   1.919   2.578 -0.0027  0.2251 -0.0897
 1549SOL    HW2 6249   1.863   1.970   2.641 -0.4135  0.0214  0.4072
 1549SOL    HW3 6250   1.798   1.834   2.621  1.4914 -0.6572 -1.2893
 1549SOL    MW4 6251   1.817   1.914   2.592  0.1403  0.0818 -0.1826
 1550SOL     OW 6252   1.999   2.068   2.734  0.3007  0.3783 -0.4459
 1550SOL    HW2 6253   1.993   2.070   2.830 -1.5491  0.2452 -0.5408
 1550SOL    HW3 6254   2.023   2.157   2.710  2.4975 -0.0068  0.2292
 1550SOL    MW4 6255   2.001   2.080   2.744  0.3467  0.3097 -0.3695
 1551SOL     OW 6256   2.042   2.331   2.661 -0.1331  0.6812 -0.0084
 1551SOL    HW2 6257   2.112   2.387   2.696  1.3236 -1.2777  0.2859
 1551SOL    HW3 6258   2.043   2.349   2.567  0.6157  0.8442  0.0236
 1551SOL    MW4 6259   2.051   2.341   2.653  0.1576  0.4442  0.0346
 1552SOL     OW 6260   1.792   2.448   2.714 -0.3954 -0.2225  0.1575
 1552SOL    HW2 6261   1.780   2.446   2.809 -1.5654 -0.9050 -0.0031
 1552SOL    HW3 6262   1.881   2.415   2.701 -0.4478 -0.7141  0.9790
 1552SOL    MW4 6263   1.802   2.443   2.725 -0.5568 -0.3774  0.2449
 1553SOL     OW 6264   1.778   2.715   2.623 -0.4936  0.0575  0.6562
 1553SOL    HW2 6265   1.790   2.624   2.647  0.7565 -0.1210 -0.5681
 1553SOL    HW3 6266   1.790   2.717   2.528 -1.5370  1.3286  0.5366
 1553SOL    MW4 6267   1.781   2.704   2.614 -0.4665  0.2019  0.4792
 1554SOL     OW 6268   2.026   2.845   2.722  0.3583  0.0510 -0.6191
 1554SOL    HW2 6269   2.104   2.804   2.685  0.6886  0.3531 -0.2592
 1554SOL    HW3 6270   1.954   2.787   2.696  0.6655 -0.0868 -1.1757
 1554SOL    MW4 6271   2.026   2.832   2.714  0.4425  0.0725 -0.6449
 1555SOL     OW 6272   2.004   3.115   2.617  0.0475  0.0558 -0.8422
 1555SOL    HW2 6273   2.012   3.028   2.655  2.2356  0.4561 -0.3598
 1555SOL    HW3 6274   1.992   3.099   2.523 -1.5761 -0.7979 -0.5189
 1555SOL    MW4 6275   2.003   3.101   2.610  0.1221 -0.0041 -0.7358
 1556SOL     OW 6276   1.793   3.209   2.752 -0.2149 -0.8742  0.0855
 1556SOL    HW2 6277   1.757   3.292   2.719  0.4480 -0.5764  0.0986
 1556SOL    HW3 6278   1.865   3.188   2.692  0.4153 -0.7985  0.8011
 1556SOL    MW4 6279   1.798   3.217   2.740 -0.0443 -0.8252  0.1817
 1557SOL     OW 6280   1.749   3.480   2.647 -0.4174  0.1890  0.8588
 1557SOL    HW2 6281   1.824   3.532   2.675 -0.1346 -0.3808  1.1784
 1557SOL    HW3 6282   1.752   3.482   2.552 -0.3187  0.6300  0.8725
 1557SOL    MW4 6283   1.759   3.487   2.638 -0.3670  0.1724  0.9029
 1558SOL     OW 6284   1.996   3.623   2.722 -0.3211 -0.1054 -0.1184
 1558SOL    HW2 6285   2.007   3.616   2.817  0.5187  1.1973 -0.1066
 1558SOL    HW3 6286   2.080   3.595   2.686 -0.1174  0.8864 -0.4154
 1558SOL    MW4 6287   2.008   3.618   2.730 -0.1833  0.1974 -0.1559
 1559SOL     OW 6288   2.056   3.904   2.664 -0.6585 -0.2531  0.9297
 1559SOL    HW2 6289   1.978   3.953   2.688 -0.9214 -0.5085  0.6102
 1559SOL    HW3 6290   2.033   3.812   2.680 -1.2927 -0.5506 -1.4373
 1559SOL    MW4 6291   2.043   3.898   2.669 -0.7770 -0.3262  0.5751
 1560SOL     OW 6292   1.808   4.018   2.722 -0.2284  0.1203  0.1993
 1560SOL    HW2 6293   1.797   4.106   2.687 -1.0222 -0.1713 -0.3104
 1560SOL    HW3 6294   1.736   3.968   2.683 -1.0668 -0.2485  2.1424
 1560SOL    MW4 6295   1.797   4.023   2.712 -0.4438  0.0329  0.3884
 1561SOL     OW 6296   1.822   4.268   2.611 -0.0941  0.3413 -0.2214
 1561SOL    HW2 6297   1.737   4.306   2.634 -0.1373  0.0794  0.0564
 1561SOL    HW3 6298   1.820   4.261   2.516 -0.6132 -0.1827 -0.1792
 1561SOL    MW4 6299   1.810   4.272   2.602 -0.1683  0.2375 -0.1791
 1562SOL     OW 6300   2.039   4.400   2.726  0.0655 -0.1014  0.3468
 1562SOL    HW2 6301   1.973   4.339   2.693  1.0934  0.0439 -2.0119
 1562SOL    HW3 6302   2.021   4.482   2.681  0.2675  0.6546  1.6288
 1562SOL    MW4 6303   2.028   4.403   2.716  0.2279  0.0176  0.2048
 1563SOL     OW 6304   2.480   0.001   2.645 -0.0961  0.1189  0.3022
 1563SOL    HW2 6305   2.565   0.044   2.661 -0.9434  1.5179  1.1752
 1563SOL    HW3 6306   2.477  -0.011   2.550  2.2032 -2.3511  0.4787
 1563SOL    MW4 6307   2.491   0.005   2.634  0.0956 -0.0224  0.4408
 1564SOL     OW 6308   2.229   0.103   2.723 -0.1440  0.4923  0.0175
 1564SOL    HW2 6309   2.227   0.104   2.819  0.3204  1.5244  0.0162
 1564SOL    HW3 6310   2.316   0.069   2.701 -0.4439 -0.2549 -0.0471
 1564SOL    MW4 6311   2.240   0.098   2.733 -0.1223  0.5299  0.0086
 1565SOL     OW 6312   2.259   0.389   2.699  0.1040 -0.3246  0.3436
 1565SOL    HW2 6313   2.245   0.295   2.710  3.3524 -0.9796 -0.7056
 1565SOL    HW3 6314   2.275   0.400   2.605 -0.6381  1.3406  0.3912
 1565SOL    MW4 6315   2.259   0.378   2.688  0.4346 -0.1914  0.2112
 1566SOL     OW 6316   2.515   0.504   2.780 -0.1644  0.0557  0.4713
 1566SOL    HW2 6317   2.488   0.589   2.745 -0.5150  0.4223  1.6094
 1566SOL    HW3 6318   2.439   0.447   2.763 -0.2050  0.1480  0.3389
 1566SOL    MW4 6319   2.501   0.508   2.773 -0.2160  0.1162  0.6039
 1567SOL     OW 6320   2.474   0.749   2.645 -0.2008 -0.0198  0.2188
 1567SOL    HW2 6321   2.390   0.794   2.661 -0.5900 -0.6084 -0.1722
 1567SOL    HW3 6322   2.479   0.743   2.549 -0.9465 -2.3011  0.2908
 1567SOL    MW4 6323   2.463   0.754   2.634 -0.3502 -0.3985  0.1767
 1568SOL     OW 6324   2.229   0.878   2.705  0.0915  0.2842  0.0682
 1568SOL    HW2 6325   2.247   0.872   2.799 -0.4255  0.1461  0.1583
 1568SOL    HW3 6326   2.149   0.827   2.692 -1.0631  2.0520 -0.0935
 1568SOL    MW4 6327   2.221   0.871   2.716 -0.1287  0.4992  0.0584
 1569SOL     OW 6328   2.164   1.134   2.623  0.2599 -0.1623  0.0465
 1569SOL    HW2 6329   2.184   1.044   2.651 -1.4275 -0.6341 -0.1832
 1569SOL    HW3 6330   2.176   1.133   2.528 -0.0243 -0.2350  0.0089
 1569SOL    MW4 6331   2.168   1.122   2.614  0.0000 -0.2341  0.0112
 1570SOL     OW 6332   2.406   1.264   2.681  1.0331 -0.1872  0.0768
 1570SOL    HW2 6333   2.476   1.205   2.652  0.0117 -0.8123 -1.1477
 1570SOL    HW3 6334   2.325   1.221   2.654  0.2494  1.4403 -0.2446
 1570SOL    MW4 6335   2.405   1.251   2.673  0.7949 -0.0550 -0.1271
 1571SOL     OW 6336   2.451   1.543   2.611  0.2719  0.4027 -0.1035
 1571SOL    HW2 6337   2.383   1.598   2.650 -0.6549 -0.0892 -0.9984
 1571SOL    HW3 6338   2.426   1.454   2.636  1.8463  0.3871  1.4625
 1571SOL    MW4 6339   2.438   1.539   2.620  0.3572  0.3356 -0.0148
 1572SOL     OW 6340   2.252   1.658   2.750 -0.3294 -0.3985 -0.0951
 1572SOL    HW2 6341   2.234   1.749   2.724 -0.7956 -0.8664 -1.4228
 1572SOL    HW3 6342   2.178   1.608   2.716 -0.5259 -1.1551  1.4083
 1572SOL    MW4 6343   2.240   1.664   2.742 -0.4168 -0.5600 -0.0720
 1573SOL     OW 6344   2.220   1.924   2.671  0.1287  0.7267 -0.1937
 1573SOL    HW2 6345   2.138   1.961   2.705 -0.7908 -0.4193 -1.1228
 1573SOL    HW3 6346   2.225   1.955   2.581  1.9814  2.8027  0.5622
 1573SOL    MW4 6347   2.210   1.933   2.664  0.2515  0.8495 -0.2167
 1574SOL     OW 6348   2.466   2.050   2.754 -0.1423 -0.3581 -0.1349
 1574SOL    HW2 6349   2.447   2.135   2.714 -0.2094 -0.8873 -1.2466
 1574SOL    HW3 6350   2.385   2.000   2.745 -0.9296  0.2880  2.7647
 1574SOL    MW4 6351   2.453   2.055   2.748 -0.2549 -0.3426  0.1009
 1575SOL     OW 6352   2.430   2.307   2.652  0.1160 -0.2835 -0.4943
 1575SOL    HW2 6353   2.514   2.351   2.668 -0.1329  0.0221 -0.0435
 1575SOL    HW3 6354   2.424   2.303   2.556  0.0839  0.7784 -0.5488
 1575SOL    MW4 6355   2.441   2.312   2.641  0.0794 -0.1032 -0.4423
 1576SOL     OW 6356   2.242   2.497   2.737  0.1212 -0.2527 -0.6299
 1576SOL    HW2 6357   2.232   2.490   2.832 -0.4857  0.7048 -0.6193
 1576SOL    HW3 6358   2.298   2.423   2.714  0.0849 -0.6306  0.4423
 1576SOL    MW4 6359   2.248   2.486   2.747  0.0365 -0.1762 -0.4873
 1577SOL     OW 6360   2.255   2.724   2.607  0.0160  0.2527  0.5018
 1577SOL    HW2 6361   2.323   2.765   2.659 -0.8176  0.8780  1.1055
 1577SOL    HW3 6362   2.249   2.635   2.640  1.1341 -0.0730 -0.1400
 1577SOL    MW4 6363   2.263   2.718   2.618  0.0536  0.2921  0.4969
 1578SOL     OW 6364   2.457   2.837   2.751 -0.1797 -0.2042 -0.1029
 1578SOL    HW2 6365   2.536   2.803   2.710  0.9189  0.2378  1.6074
 1578SOL    HW3 6366   2.452   2.929   2.722  0.8043  0.2172  1.0652
 1578SOL    MW4 6367   2.466   2.845   2.741  0.0949 -0.0906  0.2770
 1579SOL     OW 6368   2.438   3.096   2.643  0.3679  0.0024  0.1417
 1579SOL    HW2 6369   2.355   3.138   2.667  0.2157  0.0215 -0.4110
 1579SOL    HW3 6370   2.442   3.104   2.548  0.8000 -0.3830  0.1267
 1579SOL    MW4 6371   2.428   3.103   2.634  0.4048 -0.0455  0.0668
 1580SOL     OW 6372   2.220   3.274   2.677 -0.3056  0.3726 -0.3669
 1580SOL    HW2 6373   2.223   3.268   2.773 -1.5476  2.2515 -0.1993
 1580SOL    HW3 6374   2.148   3.216   2.652 -0.9788  1.0589 -0.0427
 1580SOL    MW4 6375   2.211   3.265   2.686 -0.5584  0.7107 -0.3018
 1581SOL     OW 6376   2.227   3.550   2.604 -0.1531 -0.1391  0.1513
 1581SOL    HW2 6377   2.308   3.568   2.652 -0.2835 -0.1587  0.3764
 1581SOL    HW3 6378   2.214   3.456   2.616 -0.0369 -0.1957 -0.1529
 1581SOL    MW4 6379   2.236   3.540   2.612 -0.1550 -0.1493  0.1409
 1582SOL     OW 6380   2.462   3.643   2.701  0.1291 -0.2071  0.1217
 1582SOL    HW2 6381   2.451   3.636   2.796 -0.9510  0.8200  0.0889
 1582SOL    HW3 6382   2.482   3.735   2.686 -0.5881 -0.1816 -0.7198
 1582SOL    MW4 6383   2.463   3.654   2.711 -0.1082 -0.0682  0.0064
 1583SOL     OW 6384   2.493   3.908   2.651  0.7068  0.1420  0.5398
 1583SOL    HW2 6385   2.567   3.962   2.680  0.7493  1.2797 -1.6074
 1583SOL    HW3 6386   2.418   3.943   2.698  1.1947  0.2817  1.2223
 1583SOL    MW4 6387   2.493   3.920   2.661  0.7770  0.3102  0.3467
 1584SOL     OW 6388   2.271   4.046   2.760  0.0325 -0.6972  0.3914
 1584SOL    HW2 6389   2.271   4.049   2.856  1.1416 -1.7589  0.4319
 1584SOL    HW3 6390   2.196   3.990   2.738 -0.8833  0.4465  0.6061
 1584SOL    MW4 6391   2.261   4.039   2.770  0.0582 -0.6866  0.4251
 1585SOL     OW 6392   2.275   4.301   2.641 -0.2157  0.0717 -0.0486
 1585SOL    HW2 6393   2.271   4.210   2.669 -0.1919  0.6809  2.0522
 1585SOL    HW3 6394   2.190   4.338   2.668 -0.0720  0.7576 -0.5278
 1585SOL    MW4 6395   2.263   4.294   2.648 -0.1934  0.2422  0.1655
 1586SOL     OW 6396   2.510   4.419   2.756  0.7444  0.2802  0.2031
 1586SOL    HW2 6397   2.428   4.384   2.719 -0.7474  1.0204  2.6861
 1586SOL    HW3 6398   2.509   4.512   2.733  0.4338  0.4814  1.0301
 1586SOL    MW4 6399   2.499   4.427   2.748  0.5064  0.4044  0.6399
 1587SOL     OW 6400   2.952   0.011   2.666 -0.3883  0.2918 -0.0161
 1587SOL    HW2 6401   3.040   0.048   2.672  0.4105 -1.3481 -1.1560
 1587SOL    HW3 6402   2.929   0.018   2.574 -0.7249 -0.8855 -0.0331
 1587SOL    MW4 6403   2.961   0.016   2.655 -0.3273 -0.0799 -0.1688
 1588SOL     OW 6404   2.702   0.144   2.718  0.2136  0.0905 -0.1399
 1588SOL    HW2 6405   2.715   0.133   2.813  0.7991  0.3719 -0.1853
 1588SOL    HW3 6406   2.783   0.112   2.679 -0.1515 -0.3070 -0.5635
 1588SOL    MW4 6407   2.714   0.139   2.726  0.2427  0.0752 -0.2019
 1589SOL     OW 6408   2.749   0.408   2.646 -0.3032 -0.1705 -0.3184
 1589SOL    HW2 6409   2.733   0.316   2.668 -0.0926 -0.3313 -0.8166
 1589SOL    HW3 6410   2.672   0.454   2.677 -0.9661 -0.6894 -1.1672
 1589SOL    MW4 6411   2.737   0.402   2.653 -0.3629 -0.2601 -0.4964
 1590SOL     OW 6412   2.977   0.524   2.718 -0.5824 -0.3406 -0.0992
 1590SOL    HW2 6413   2.967   0.619   2.714 -0.3971 -0.2982  0.4109
 1590SOL    HW3 6414   2.897   0.490   2.678 -0.8711  0.0225  0.1635
 1590SOL    MW4 6415   2.965   0.532   2.712 -0.5960 -0.2870  0.0029
 1591SOL     OW 6416   2.937   0.785   2.621 -0.4248  0.6790 -0.3157
 1591SOL    HW2 6417   3.003   0.835   2.670  0.2495 -0.4975 -0.0188
 1591SOL    HW3 6418   2.853   0.812   2.660 -0.0340  1.2264  0.1580
 1591SOL    MW4 6419   2.934   0.795   2.633 -0.2844  0.5960 -0.2143
 1592SOL     OW 6420   2.707   0.877   2.706  0.0495 -0.0709  0.1060
 1592SOL    HW2 6421   2.706   0.906   2.797 -0.8143  2.4541 -0.6538
 1592SOL    HW3 6422   2.625   0.829   2.695  0.0545 -0.1963  0.5934
 1592SOL    MW4 6423   2.696   0.875   2.717 -0.0637  0.2457  0.0701
 1593SOL     OW 6424   2.648   1.156   2.608 -0.2897 -0.0546 -0.5352
 1593SOL    HW2 6425   2.708   1.212   2.657 -1.3827  2.3571 -1.8371
 1593SOL    HW3 6426   2.670   1.067   2.635  1.9062  0.9562  1.1586
 1593SOL    MW4 6427   2.659   1.152   2.618 -0.1442  0.3968 -0.4835
 1594SOL     OW 6428   2.842   1.316   2.735  0.0783  0.3574 -0.0222
 1594SOL    HW2 6429   2.871   1.323   2.826 -0.4962  0.1854  0.1803
 1594SOL    HW3 6430   2.905   1.255   2.695  0.4212  0.5482  0.2205
 1594SOL    MW4 6431   2.854   1.309   2.742  0.0474  0.3599  0.0365
 1595SOL     OW 6432   2.909   1.593   2.621 -0.9664 -0.5266 -0.3383
 1595SOL    HW2 6433   2.831   1.633   2.659 -0.7439 -0.2769 -0.1404
 1595SOL    HW3 6434   2.908   1.503   2.651 -1.3193 -0.5937 -0.5481
 1595SOL    MW4 6435   2.898   1.586   2.630 -0.9835 -0.5026 -0.3397
 1596SOL     OW 6436   2.666   1.685   2.712 -0.2340 -0.5094  0.2549
 1596SOL    HW2 6437   2.673   1.662   2.805  0.0828 -0.3750  0.2663
 1596SOL    HW3 6438   2.584   1.646   2.684 -0.0001 -1.1218  0.4262
 1596SOL    MW4 6439   2.656   1.677   2.721 -0.1614 -0.5724  0.2792
 1597SOL     OW 6440   2.691   1.935   2.624  0.3411 -0.1922  0.2761
 1597SOL    HW2 6441   2.683   1.851   2.669 -1.0224 -1.3179 -1.9708
 1597SOL    HW3 6442   2.616   1.986   2.654 -0.8846 -1.1488 -1.1344
 1597SOL    MW4 6443   2.680   1.931   2.634 -0.0007 -0.4669 -0.2065
 1598SOL     OW 6444   2.911   2.053   2.733  0.0014  0.9871  0.1957
 1598SOL    HW2 6445   2.902   2.144   2.707 -0.6428  1.2142  1.1922
 1598SOL    HW3 6446   2.833   2.010   2.699  0.4870  0.7199 -0.6023
 1598SOL    MW4 6447   2.900   2.059   2.725 -0.0196  0.9816  0.2222
 1599SOL     OW 6448   2.892   2.309   2.663 -0.2509 -0.3334 -0.0218
 1599SOL    HW2 6449   2.960   2.366   2.700  0.3809 -0.7875 -0.4825
 1599SOL    HW3 6450   2.812   2.362   2.666  0.2072  0.3497  0.1464
 1599SOL    MW4 6451   2.890   2.324   2.668 -0.1070 -0.3030 -0.0606
 1600SOL     OW 6452   2.656   2.455   2.714  0.0012  0.3655 -0.0046
 1600SOL    HW2 6453   2.676   2.479   2.805 -0.3941  0.1405  0.1471
 1600SOL    HW3 6454   2.680   2.532   2.663  1.9121 -0.1479  0.0831
 1600SOL    MW4 6455   2.662   2.468   2.719  0.2012  0.2680  0.0272
 1601SOL     OW 6456   2.660   2.725   2.610 -0.1441 -0.0195  0.0310
 1601SOL    HW2 6457   2.745   2.760   2.636 -0.4947  0.3457  0.7174
 1601SOL    HW3 6458   2.662   2.724   2.514  1.0421 -1.0679  0.0638
 1601SOL    MW4 6459   2.671   2.730   2.601 -0.0339 -0.1094  0.1259
 1602SOL     OW 6460   2.903   2.822   2.735 -0.2701 -0.0553  0.5106
 1602SOL    HW2 6461   2.885   2.847   2.825 -0.6394  0.0002  0.4214
 1602SOL    HW3 6462   2.898   2.905   2.686 -3.2431 -0.5463 -0.0668
 1602SOL    MW4 6463   2.900   2.837   2.740 -0.7110 -0.1128  0.4225
 1603SOL     OW 6464   2.854   3.053   2.604 -0.0716  0.5229 -0.2856
 1603SOL    HW2 6465   2.788   3.113   2.639 -1.5713 -1.0861 -0.2667
 1603SOL    HW3 6466   2.845   3.061   2.509 -0.4177  0.1826 -0.2831
 1603SOL    MW4 6467   2.844   3.062   2.596 -0.3150  0.2658 -0.2828
 1604SOL     OW 6468   2.677   3.217   2.718  0.6168  0.2223  0.0413
 1604SOL    HW2 6469   2.668   3.303   2.675 -1.1568  1.2041  2.2872
 1604SOL    HW3 6470   2.590   3.178   2.713  0.3621  0.3847  2.7569
 1604SOL    MW4 6471   2.665   3.223   2.712  0.3493  0.3734  0.6959
 1605SOL     OW 6472   2.698   3.507   2.665 -0.3502  0.0736  0.1661
 1605SOL    HW2 6473   2.614   3.552   2.675 -0.2661  0.4822 -0.8943
 1605SOL    HW3 6474   2.707   3.494   2.571  0.5463 -0.4064  0.3153
 1605SOL    MW4 6475   2.688   3.512   2.654 -0.2208  0.0641  0.0460
 1606SOL     OW 6476   2.921   3.645   2.750 -0.0206  0.3692 -0.1765
 1606SOL    HW2 6477   2.925   3.636   2.845  0.2811 -0.3838 -0.2630
 1606SOL    HW3 6478   2.836   3.608   2.726  0.5552 -0.8513 -0.3609
 1606SOL    MW4 6479   2.910   3.639   2.759  0.0951  0.1090 -0.2122
 1607SOL     OW 6480   2.926   3.926   2.644  0.3027 -0.1761 -0.9229
 1607SOL    HW2 6481   3.008   3.957   2.681  0.0608 -0.4588 -0.1396
 1607SOL    HW3 6482   2.917   3.836   2.675 -0.6403  0.0809 -0.3980
 1607SOL    MW4 6483   2.935   3.919   2.653  0.1466 -0.1793 -0.7503
 1608SOL     OW 6484   2.700   4.052   2.759  0.0413  0.3333 -0.0094
 1608SOL    HW2 6485   2.702   4.139   2.718 -0.7250  0.0084 -0.7476
 1608SOL    HW3 6486   2.766   4.002   2.711  0.3722  0.4593  0.3126
 1608SOL    MW4 6487   2.709   4.057   2.747 -0.0162  0.3076 -0.0644
 1609SOL     OW 6488   2.723   4.292   2.626  0.2454  0.2774 -0.1942
 1609SOL    HW2 6489   2.802   4.328   2.666 -0.1936 -0.6148  1.4899
 1609SOL    HW3 6490   2.651   4.337   2.671 -0.2379 -0.0035 -0.6854
 1609SOL    MW4 6491   2.724   4.303   2.637  0.1235  0.1225 -0.0370
 1610SOL     OW 6492   2.943   4.416   2.737 -0.1368  0.2201  0.4905
 1610SOL    HW2 6493   2.936   4.402   2.831 -2.6685  0.2018  0.3594
 1610SOL    HW3 6494   2.943   4.511   2.726 -1.7102  0.2335  0.4459
 1610SOL    MW4 6495   2.942   4.427   2.748 -0.6783  0.2193  0.4671
 1611SOL     OW 6496   3.422   4.627   2.629 -0.0035 -0.1353 -0.0287
 1611SOL    HW2 6497   3.416   4.541   2.669 -0.5848 -0.4826 -0.8439
 1611SOL    HW3 6498   3.340   4.671   2.655  0.8718  0.6401  1.4557
 1611SOL    MW4 6499   3.410   4.622   2.638  0.0355 -0.0787  0.0594
 1612SOL     OW 6500   3.207   0.134   2.747 -0.4175 -0.4658 -0.2877
 1612SOL    HW2 6501   3.188   0.132   2.841  1.4783 -1.9765  0.0782
 1612SOL    HW3 6502   3.216   0.228   2.727 -2.6349 -0.0213  0.6305
 1612SOL    MW4 6503   3.206   0.146   2.757 -0.4599 -0.6064 -0.1183
 1613SOL     OW 6504   3.213   0.423   2.615 -0.6101 -0.5033 -0.0475
 1613SOL    HW2 6505   3.136   0.468   2.650 -0.3270  0.5025 -0.7036
 1613SOL    HW3 6506   3.202   0.426   2.520  0.3476 -0.1715 -0.1506
 1613SOL    MW4 6507   3.201   0.429   2.607 -0.4463 -0.3268 -0.1478
 1614SOL     OW 6508   3.398   0.560   2.751  0.2439 -0.5036 -0.2330
 1614SOL    HW2 6509   3.380   0.647   2.715  0.1143 -0.6460 -0.5251
 1614SOL    HW3 6510   3.341   0.502   2.700 -0.8132 -0.5654  1.0077
 1614SOL    MW4 6511   3.388   0.563   2.739  0.0875 -0.5305 -0.1078
 1615SOL     OW 6512   3.348   0.821   2.662 -0.0303  0.1855  0.0107
 1615SOL    HW2 6513   3.437   0.843   2.689  0.1692 -0.3453 -0.2171
 1615SOL    HW3 6514   3.350   0.823   2.566 -0.1964 -0.0877  0.0000
 1615SOL    MW4 6515   3.360   0.824   2.653 -0.0260  0.0795 -0.0210
 1616SOL     OW 6516   3.123   0.911   2.772  0.2852 -0.0369 -0.2585
 1616SOL    HW2 6517   3.118   0.899   2.866 -0.1375  1.9747 -0.0037
 1616SOL    HW3 6518   3.208   0.873   2.747  0.4250 -0.5162  0.9273
 1616SOL    MW4 6519   3.134   0.904   2.781  0.2480  0.1653 -0.0684
 1617SOL     OW 6520   3.046   1.156   2.652 -0.4350 -0.4407 -0.1359
 1617SOL    HW2 6521   3.076   1.074   2.691 -0.6573 -0.5139 -0.1192
 1617SOL    HW3 6522   3.078   1.153   2.562 -0.5189 -0.5869 -0.1611
 1617SOL    MW4 6523   3.054   1.145   2.645 -0.4754 -0.4696 -0.1371
 1618SOL     OW 6524   3.329   1.270   2.737 -0.0088  0.4580  0.1439
 1618SOL    HW2 6525   3.344   1.256   2.830  1.4483  0.0700 -0.1480
 1618SOL    HW3 6526   3.247   1.224   2.719  1.2963 -2.0994  0.5888
 1618SOL    MW4 6527   3.320   1.262   2.747  0.3555  0.0693  0.1640
 1619SOL     OW 6528   3.350   1.522   2.656 -0.1284 -0.0382 -0.1307
 1619SOL    HW2 6529   3.270   1.568   2.683 -0.7939 -0.9361 -0.5503
 1619SOL    HW3 6530   3.340   1.433   2.692  1.5420  0.3529  1.4302
 1619SOL    MW4 6531   3.338   1.516   2.665  0.0045 -0.1049  0.0200
 1620SOL     OW 6532   3.146   1.695   2.732 -0.5887  0.3142  0.0647
 1620SOL    HW2 6533   3.150   1.782   2.693  0.2381  0.2039 -0.1124
 1620SOL    HW3 6534   3.062   1.659   2.705 -0.8016  0.9446 -0.1045
 1620SOL    MW4 6535   3.136   1.701   2.723 -0.5078  0.3829  0.0191
 1621SOL     OW 6536   3.126   1.931   2.614  0.2912  0.3270  0.4622
 1621SOL    HW2 6537   3.194   1.968   2.670  0.6700  1.2789 -0.5969
 1621SOL    HW3 6538   3.044   1.967   2.649  0.3199 -0.7898  1.7121
 1621SOL    MW4 6539   3.124   1.941   2.626  0.3450  0.3053  0.4873
 1622SOL     OW 6540   3.340   2.041   2.749  0.0356  0.0264 -0.0307
 1622SOL    HW2 6541   3.355   2.050   2.843 -1.2753 -0.8858  0.2846
 1622SOL    HW3 6542   3.340   2.131   2.716 -0.8112  0.4477  1.0729
 1622SOL    MW4 6543   3.342   2.054   2.757 -0.2489 -0.0381  0.1566
 1623SOL     OW 6544   3.363   2.294   2.638  0.0924 -0.2483  0.1996
 1623SOL    HW2 6545   3.445   2.331   2.672 -0.0574  0.1218  0.1567
 1623SOL    HW3 6546   3.372   2.300   2.543 -0.4994  0.9121  0.2122
 1623SOL    MW4 6547   3.375   2.300   2.630 -0.0052 -0.0465  0.1955
 1624SOL     OW 6548   3.125   2.420   2.768 -0.4298 -0.1726  0.0372
 1624SOL    HW2 6549   3.138   2.506   2.730 -0.9121 -0.8208 -1.6357
 1624SOL    HW3 6550   3.189   2.364   2.724 -0.9430 -0.9190  0.2248
 1624SOL    MW4 6551   3.135   2.424   2.757 -0.5610 -0.3567 -0.1588
 1625SOL     OW 6552   3.140   2.667   2.645 -0.1834  0.1089  0.2943
 1625SOL    HW2 6553   3.216   2.707   2.687  0.3774 -0.7647  0.1366
 1625SOL    HW3 6554   3.068   2.727   2.663  1.3723  3.2316 -3.2817
 1625SOL    MW4 6555   3.140   2.680   2.653  0.0958  0.4055 -0.1984
 1626SOL     OW 6556   3.353   2.823   2.744  0.5916  0.2054 -0.5740
 1626SOL    HW2 6557   3.337   2.835   2.838 -0.1192  1.8429 -0.8748
 1626SOL    HW3 6558   3.434   2.772   2.739  0.0498 -0.8238  0.9294
 1626SOL    MW4 6559   3.361   2.818   2.756  0.4263  0.2854 -0.4153
 1627SOL     OW 6560   3.358   3.089   2.627  0.0607 -0.7307 -0.2356
 1627SOL    HW2 6561   3.354   3.004   2.671  0.3183 -0.8893 -0.5181
 1627SOL    HW3 6562   3.367   3.068   2.535 -0.3224 -0.3951 -0.3541
 1627SOL    MW4 6563   3.358   3.075   2.621  0.0439 -0.7074 -0.2887
 1628SOL     OW 6564   3.104   3.204   2.700  0.1262 -0.0468  0.3300
 1628SOL    HW2 6565   3.174   3.155   2.657  0.1468 -0.4951  0.8642
 1628SOL    HW3 6566   3.023   3.171   2.661  0.2515  1.2039 -1.0309
 1628SOL    MW4 6567   3.102   3.193   2.689  0.1454  0.0589  0.2208
 1629SOL     OW 6568   3.106   3.480   2.628  0.1247  0.0702 -0.0171
 1629SOL    HW2 6569   3.102   3.391   2.663  0.6495 -0.0563 -0.2793
 1629SOL    HW3 6570   3.024   3.521   2.658  0.3702 -0.1628  0.9966
 1629SOL    MW4 6571   3.095   3.474   2.637  0.2263  0.0229  0.0820
 1630SOL     OW 6572   3.338   3.622   2.719  0.0019  0.4301 -0.2900
 1630SOL    HW2 6573   3.352   3.637   2.812  1.4365 -0.9262 -0.2669
 1630SOL    HW3 6574   3.253   3.578   2.714 -1.3195  2.8145  0.1216
 1630SOL    MW4 6575   3.329   3.618   2.730  0.0169  0.5658 -0.2325
 1631SOL     OW 6576   3.373   3.878   2.624 -0.0705  0.2618 -0.2067
 1631SOL    HW2 6577   3.350   3.789   2.650  0.2873  0.3116  0.2948
 1631SOL    HW3 6578   3.389   3.872   2.529 -0.5626 -0.0951 -0.2682
 1631SOL    MW4 6579   3.372   3.865   2.615 -0.0882  0.2215 -0.1488
 1632SOL     OW 6580   3.156   4.014   2.773 -0.5009  0.4724 -0.0418
 1632SOL    HW2 6581   3.163   4.094   2.721 -0.6655  0.4259 -0.1346
 1632SOL    HW3 6582   3.231   3.961   2.745  0.1774  1.0084  0.7406
 1632SOL    MW4 6583   3.167   4.017   2.762 -0.4330  0.5374  0.0491
 1633SOL     OW 6584   3.157   4.276   2.640  0.4746  0.2544 -0.3480
 1633SOL    HW2 6585   3.073   4.314   2.664  0.8947  0.4487  0.8382
 1633SOL    HW3 6586   3.163   4.288   2.545 -1.1573 -0.4332 -0.5446
 1633SOL    MW4 6587   3.147   4.283   2.631  0.3145  0.1888 -0.2174
 1634SOL     OW 6588   3.409   4.351   2.738  0.3905  0.1638 -0.2324
 1634SOL    HW2 6589   3.393   4.342   2.831 -0.9470  1.2608 -0.3443
 1634SOL    HW3 6590   3.331   4.316   2.695  0.7701  0.1483 -0.9299
 1634SOL    MW4 6591   3.397   4.346   2.745  0.2642  0.3071 -0.3393
 1635SOL     OW 6592   3.807   4.622   2.656  0.0837 -0.1187 -0.0130
 1635SOL    HW2 6593   3.812   4.531   2.685  2.0708  0.2988  1.0415
 1635SOL    HW3 6594   3.729   4.656   2.699  0.2937 -0.8525  0.9757
 1635SOL    MW4 6595   3.798   4.614   2.666  0.3736 -0.1602  0.2565
 1636SOL     OW 6596   3.612   0.127   2.757 -0.2732  0.0561 -0.3056
 1636SOL    HW2 6597   3.619   0.219   2.734 -1.5062  0.3601  0.4933
 1636SOL    HW3 6598   3.546   0.092   2.697  0.6740 -0.4613 -1.0519
 1636SOL    MW4 6599   3.604   0.134   2.746 -0.3109  0.0280 -0.2985
 1637SOL     OW 6600   3.608   0.402   2.651  0.2479 -0.0868  0.2615
 1637SOL    HW2 6601   3.685   0.455   2.668  0.2519  0.9284 -2.5863
 1637SOL    HW3 6602   3.536   0.449   2.695  0.6495  0.9609 -0.1941
 1637SOL    MW4 6603   3.608   0.415   2.659  0.3016  0.1854 -0.1743
 1638SOL     OW 6604   3.841   0.531   2.716 -0.1863  0.4057 -0.1202
 1638SOL    HW2 6605   3.839   0.527   2.811  0.2682  0.2766 -0.1121
 1638SOL    HW3 6606   3.899   0.459   2.690 -0.2666  0.4701 -0.4909
 1638SOL    MW4 6607   3.849   0.521   2.725 -0.1369  0.3971 -0.1681
 1639SOL     OW 6608   3.824   0.786   2.633 -0.2379  0.1092 -0.1227
 1639SOL    HW2 6609   3.742   0.804   2.679 -0.4493 -0.3167 -0.3236
 1639SOL    HW3 6610   3.842   0.694   2.651 -0.4435 -0.1201 -1.0668
 1639SOL    MW4 6611   3.816   0.776   2.641 -0.2928  0.0228 -0.2737
 1640SOL     OW 6612   3.601   0.866   2.750 -0.0582  0.0761  0.3155
 1640SOL    HW2 6613   3.612   0.848   2.843  2.2683  0.8712  0.2303
 1640SOL    HW3 6614   3.596   0.961   2.744  0.2257  0.0532 -0.4009
 1640SOL    MW4 6615   3.602   0.876   2.761  0.2866  0.1779  0.2096
 1641SOL     OW 6616   3.587   1.138   2.703 -0.1666 -0.5375 -0.6842
 1641SOL    HW2 6617   3.655   1.203   2.723 -0.0103 -0.4399 -1.5089
 1641SOL    HW3 6618   3.505   1.185   2.718 -0.0556 -0.5249 -0.1003
 1641SOL    MW4 6619   3.585   1.153   2.708 -0.1311 -0.5230 -0.7160
 1642SOL     OW 6620   3.824   1.282   2.769  0.6506  0.3700 -0.6309
 1642SOL    HW2 6621   3.908   1.246   2.743  1.0910  1.9432 -1.4842
 1642SOL    HW3 6622   3.822   1.370   2.729 -0.7815  0.9044  0.5563
 1642SOL    MW4 6623   3.835   1.289   2.760  0.5200  0.6481 -0.5867
 1643SOL     OW 6624   3.802   1.548   2.643 -0.3135 -0.6693 -0.0755
 1643SOL    HW2 6625   3.885   1.570   2.686 -0.3171 -0.1343 -0.3350
 1643SOL    HW3 6626   3.735   1.583   2.701 -0.3016  0.5781 -0.8006
 1643SOL    MW4 6627   3.804   1.555   2.656 -0.3126 -0.4342 -0.2053
 1644SOL     OW 6628   3.566   1.680   2.763 -0.3613 -0.2925  0.0405
 1644SOL    HW2 6629   3.548   1.749   2.699 -1.5727 -1.1287 -0.5349
 1644SOL    HW3 6630   3.496   1.616   2.750  0.6417 -1.5428  0.6842
 1644SOL    MW4 6631   3.555   1.680   2.752 -0.3886 -0.5678  0.0496
 1645SOL     OW 6632   3.549   1.908   2.614 -0.2096 -0.0342 -0.6812
 1645SOL    HW2 6633   3.466   1.948   2.640  0.4281  1.2326 -0.5333
 1645SOL    HW3 6634   3.556   1.924   2.520  0.0092  0.1426 -0.6370
 1645SOL    MW4 6635   3.539   1.916   2.605 -0.0966  0.1563 -0.6559
 1646SOL     OW 6636   3.796   2.019   2.741  0.2370 -0.1703  0.0212
 1646SOL    HW2 6637   3.868   1.966   2.707  0.0492  0.6101 -1.6565
 1646SOL    HW3 6638   3.718   1.986   2.697 -0.1899  0.0574  0.6031
 1646SOL    MW4 6639   3.795   2.008   2.731  0.1562 -0.0374 -0.1235
 1647SOL     OW 6640   3.795   2.291   2.669  0.2647 -0.0077 -0.3121
 1647SOL    HW2 6641   3.788   2.200   2.697  1.1861  0.0401  0.0923
 1647SOL    HW3 6642   3.798   2.288   2.574  0.3059 -0.3989 -0.2958
 1647SOL    MW4 6643   3.794   2.279   2.660  0.3917 -0.0532 -0.2565
 1648SOL     OW 6644   3.575   2.427   2.763  0.2887  0.5104 -0.2134
 1648SOL    HW2 6645   3.584   2.444   2.856 -0.0496 -1.5700  0.2418
 1648SOL    HW3 6646   3.658   2.386   2.738 -0.1868 -0.3009 -0.4856
 1648SOL    MW4 6647   3.587   2.424   2.772  0.1812  0.1287 -0.1893
 1649SOL     OW 6648   3.596   2.678   2.652  0.2973 -0.1948 -0.0476
 1649SOL    HW2 6649   3.587   2.584   2.669 -0.5480 -0.2609 -0.8470
 1649SOL    HW3 6650   3.601   2.685   2.557  1.7994  0.4534  0.0724
 1649SOL    MW4 6651   3.595   2.667   2.642  0.3841 -0.1180 -0.1373
 1650SOL     OW 6652   3.774   2.868   2.741 -0.3333  0.7515  0.6417
 1650SOL    HW2 6653   3.845   2.810   2.712  0.7770  2.0108  0.7990
 1650SOL    HW3 6654   3.694   2.819   2.721  0.5844 -1.1513  1.4344
 1650SOL    MW4 6655   3.773   2.854   2.734 -0.0658  0.6666  0.7672
 1651SOL     OW 6656   3.786   3.116   2.610  0.0452  0.0996 -0.5818
 1651SOL    HW2 6657   3.723   3.177   2.649  0.1841 -0.3390  0.3290
 1651SOL    HW3 6658   3.771   3.033   2.656  0.2588 -0.4038 -1.4103
 1651SOL    MW4 6659   3.776   3.113   2.621  0.0916 -0.0248 -0.5710
 1652SOL     OW 6660   3.592   3.271   2.744  0.0021  0.1345  0.0045
 1652SOL    HW2 6661   3.585   3.355   2.701 -0.4686  0.0214 -0.1409
 1652SOL    HW3 6662   3.510   3.226   2.723 -0.2876  0.1231  1.1026
 1652SOL    MW4 6663   3.580   3.276   2.736 -0.0982  0.1183  0.1302
 1653SOL     OW 6664   3.579   3.523   2.618  0.3356 -0.0625  0.2540
 1653SOL    HW2 6665   3.653   3.558   2.668  0.0027 -0.1592  0.8165
 1653SOL    HW3 6666   3.502   3.566   2.656 -0.1849 -2.0724  1.5799
 1653SOL    MW4 6667   3.578   3.533   2.630  0.2232 -0.3402  0.5031
 1654SOL     OW 6668   3.822   3.599   2.742 -0.0748 -0.5884 -0.0381
 1654SOL    HW2 6669   3.889   3.539   2.710  1.7227  0.9947  0.6136
 1654SOL    HW3 6670   3.840   3.681   2.696 -1.5824 -0.1315  0.1584
 1654SOL    MW4 6671   3.833   3.602   2.732 -0.0367 -0.3192  0.0734
 1655SOL     OW 6672   3.837   3.858   2.630 -0.2292  0.4911 -0.5753
 1655SOL    HW2 6673   3.915   3.901   2.667  0.0564  1.5299 -2.3124
 1655SOL    HW3 6674   3.765   3.918   2.650 -0.2007  0.6543 -0.9426
 1655SOL    MW4 6675   3.838   3.872   2.637 -0.1879  0.6497 -0.8531
 1656SOL     OW 6676   3.605   4.004   2.705 -0.2787 -0.1979  0.3623
 1656SOL    HW2 6677   3.616   4.093   2.671 -1.2514 -0.2311 -0.0663
 1656SOL    HW3 6678   3.522   3.975   2.668  0.8383 -1.9251 -0.8970
 1656SOL    MW4 6679   3.596   4.012   2.695 -0.2599 -0.4301  0.1397
 1657SOL     OW 6680   3.628   4.262   2.614  0.4152  0.2916 -0.2758
 1657SOL    HW2 6681   3.549   4.288   2.663  1.0049 -1.0465  1.4503
 1657SOL    HW3 6682   3.599   4.257   2.523 -0.7356  2.7484 -0.0943
 1657SOL    MW4 6683   3.613   4.265   2.608  0.3409  0.4392 -0.0241
 1658SOL     OW 6684   3.822   4.377   2.783  0.2847 -0.5708  0.3222
 1658SOL    HW2 6685   3.903   4.330   2.762  0.3157 -0.2026 -0.3908
 1658SOL    HW3 6686   3.758   4.344   2.720  0.4230  0.6627 -0.4861
 1658SOL    MW4 6687   3.824   4.366   2.772  0.3068 -0.3595  0.1216
 1659SOL     OW 6688   4.274   4.638   2.653  0.0532  0.2881  0.2260
 1659SOL    HW2 6689   4.194   4.677   2.687 -0.2356  0.6945 -0.9006
 1659SOL    HW3 6690   4.344   4.685   2.699 -0.3239  0.8959  0.1812
 1659SOL    MW4 6691   4.273   4.649   2.664 -0.0343  0.4215  0.0713
 1660SOL     OW 6692   4.045   0.096   2.736  0.4927 -0.1970 -0.2332
 1660SOL    HW2 6693   4.047   0.116   2.829  0.9073  0.0823 -0.3005
 1660SOL    HW3 6694   3.953   0.077   2.717  0.6709 -2.0179  0.6070
 1660SOL    MW4 6695   4.033   0.096   2.745  0.5708 -0.4004 -0.1311
 1661SOL     OW 6696   4.042   0.357   2.638 -0.1162  0.2803  0.5263
 1661SOL    HW2 6697   4.049   0.268   2.673 -1.1440 -0.0173  0.0237
 1661SOL    HW3 6698   4.053   0.346   2.544 -0.7612  0.6057  0.4068
 1661SOL    MW4 6699   4.044   0.344   2.630 -0.3371  0.2840  0.4442
 1662SOL     OW 6700   4.237   0.534   2.740 -0.4928  0.2354  1.0539
 1662SOL    HW2 6701   4.164   0.486   2.700 -0.1719  0.8143 -0.2552
 1662SOL    HW3 6702   4.311   0.474   2.732 -0.4291  0.3510  0.7951
 1662SOL    MW4 6703   4.237   0.519   2.734 -0.4425  0.3271  0.8471
 1663SOL     OW 6704   4.249   0.805   2.660  0.3964  0.4182 -0.3217
 1663SOL    HW2 6705   4.239   0.714   2.688 -2.0451  0.8312  0.2965
 1663SOL    HW3 6706   4.268   0.799   2.566  0.7074 -0.7300 -0.1921
 1663SOL    MW4 6707   4.250   0.792   2.651  0.1144  0.3212 -0.2234
 1664SOL     OW 6708   4.026   0.919   2.770  0.2941 -0.2461 -0.1076
 1664SOL    HW2 6709   4.098   0.876   2.725 -0.3208 -1.2461 -0.1458
 1664SOL    HW3 6710   3.948   0.871   2.742 -0.2262 -0.1022  1.0727
 1664SOL    MW4 6711   4.025   0.907   2.760  0.1445 -0.3591  0.0429
 1665SOL     OW 6712   4.061   1.171   2.650  0.8319 -0.5082 -0.0058
 1665SOL    HW2 6713   4.146   1.196   2.686  2.3185 -3.3114 -1.3573
 1665SOL    HW3 6714   4.042   1.086   2.690 -1.6011  0.2819  0.6293
 1665SOL    MW4 6715   4.069   1.163   2.660  0.7067 -0.7738 -0.1006
 1666SOL     OW 6716   4.310   1.270   2.785  0.0505 -0.4730  0.1606
 1666SOL    HW2 6717   4.304   1.359   2.751 -0.1552 -0.5517 -0.0110
 1666SOL    HW3 6718   4.380   1.229   2.734  1.6302  0.2502  1.7202
 1666SOL    MW4 6719   4.318   1.276   2.774  0.2322 -0.3880  0.3436
 1667SOL     OW 6720   4.274   1.509   2.659 -0.1142 -0.0241  0.3361
 1667SOL    HW2 6721   4.346   1.564   2.689 -0.0047 -0.6912  1.3176
 1667SOL    HW3 6722   4.283   1.507   2.564  1.0558  0.0476  0.4458
 1667SOL    MW4 6723   4.285   1.516   2.650  0.0544 -0.1028  0.4802
 1668SOL     OW 6724   4.044   1.621   2.766 -0.4486 -0.5171  0.1032
 1668SOL    HW2 6725   4.058   1.623   2.861  0.8587  1.6343 -0.0896
 1668SOL    HW3 6726   4.124   1.580   2.732 -1.2927 -2.0954 -0.0493
 1668SOL    MW4 6727   4.057   1.616   2.774 -0.3872 -0.4414  0.0579
 1669SOL     OW 6728   4.004   1.859   2.649 -0.2931  0.2439 -0.1079
 1669SOL    HW2 6729   4.066   1.917   2.693  0.1233 -0.1706 -0.1477
 1669SOL    HW3 6730   4.023   1.772   2.684  1.0351 -0.3258 -2.1683
 1669SOL    MW4 6731   4.014   1.855   2.660 -0.0629  0.1140 -0.3850
 1670SOL     OW 6732   4.212   2.054   2.716 -0.1305  0.6448 -0.0618
 1670SOL    HW2 6733   4.248   2.140   2.693  0.7823  0.2516 -0.1435
 1670SOL    HW3 6734   4.284   1.993   2.699 -0.5376 -0.0531  0.6737
 1670SOL    MW4 6735   4.227   2.057   2.711 -0.0639  0.5007  0.0243
 1671SOL     OW 6736   4.271   2.326   2.626  0.0497 -0.5651  0.6018
 1671SOL    HW2 6737   4.182   2.348   2.654 -0.9112 -1.8716 -1.3547
 1671SOL    HW3 6738   4.266   2.321   2.530  1.8822 -2.1698  0.5555
 1671SOL    MW4 6739   4.259   2.329   2.617  0.1645 -0.9491  0.3376
 1672SOL     OW 6740   4.019   2.435   2.728 -0.0961  0.0990  0.1010
 1672SOL    HW2 6741   4.025   2.411   2.820  1.0566 -3.1175 -0.7567
 1672SOL    HW3 6742   3.944   2.385   2.695  0.9503 -0.6496 -1.2189
 1672SOL    MW4 6743   4.010   2.425   2.736  0.1936 -0.4241 -0.1864
 1673SOL     OW 6744   4.000   2.704   2.659 -0.0723  0.1124 -0.5492
 1673SOL    HW2 6745   4.076   2.750   2.696 -0.7058  0.5787  0.2098
 1673SOL    HW3 6746   4.007   2.615   2.693  0.3976  0.0312 -0.8661
 1673SOL    MW4 6747   4.011   2.699   2.669 -0.0944  0.1631 -0.4911
 1674SOL     OW 6748   4.251   2.805   2.742 -0.2475  0.3817 -0.2373
 1674SOL    HW2 6749   4.229   2.819   2.834 -0.3596 -1.4574  0.0332
 1674SOL    HW3 6750   4.273   2.892   2.709 -0.7188  1.1352  1.3898
 1674SOL    MW4 6751   4.251   2.819   2.750 -0.3242  0.2387  0.0129
 1675SOL     OW 6752   4.286   3.080   2.641 -0.2724 -0.1307 -0.2122
 1675SOL    HW2 6753   4.201   3.107   2.675 -0.5307 -0.1941 -0.7985
 1675SOL    HW3 6754   4.280   3.096   2.547  0.2355 -0.4813 -0.3063
 1675SOL    MW4 6755   4.274   3.086   2.633 -0.2398 -0.1853 -0.3018
 1676SOL     OW 6756   4.049   3.176   2.747 -0.0336  0.1458 -0.1826
 1676SOL    HW2 6757   4.059   3.265   2.712 -1.7848  1.1214  1.7299
 1676SOL    HW3 6758   3.967   3.144   2.709 -1.7802  1.0918  2.6510
 1676SOL    MW4 6759   4.040   3.184   2.737 -0.4954  0.3994  0.4435
 1677SOL     OW 6760   4.043   3.444   2.661  0.4545  0.2312 -0.6243
 1677SOL    HW2 6761   4.110   3.497   2.706  0.2322  0.7237 -0.8730
 1677SOL    HW3 6762   4.053   3.466   2.569 -1.9270  2.4812 -0.4032
 1677SOL    MW4 6763   4.053   3.454   2.655  0.1111  0.5932 -0.6280
 1678SOL     OW 6764   4.259   3.582   2.745  0.4863  0.4650  0.4038
 1678SOL    HW2 6765   4.273   3.584   2.839  1.1457 -1.4341  0.3522
 1678SOL    HW3 6766   4.342   3.554   2.708 -0.1800 -0.1813 -0.6492
 1678SOL    MW4 6767   4.271   3.579   2.752  0.4859  0.1290  0.2580
 1679SOL     OW 6768   4.263   3.832   2.627  0.0444 -0.3537 -0.1894
 1679SOL    HW2 6769   4.261   3.746   2.671  0.4077  0.2042  0.9479
 1679SOL    HW3 6770   4.340   3.875   2.664 -0.0763  0.4192 -0.8462
 1679SOL    MW4 6771   4.273   3.826   2.638  0.0763 -0.1781 -0.1264
 1680SOL     OW 6772   4.065   3.992   2.752  0.2682  0.7784  0.0239
 1680SOL    HW2 6773   4.079   4.001   2.846 -0.3652  0.0896  0.1989
 1680SOL    HW3 6774   4.141   3.943   2.721 -0.1230 -0.0895  0.4012
 1680SOL    MW4 6775   4.077   3.987   2.760  0.1335  0.5729  0.0968
 1681SOL     OW 6776   4.067   4.272   2.679  0.4557  0.2547 -0.1919
 1681SOL    HW2 6777   4.073   4.177   2.678  0.0809  0.2293 -0.6173
 1681SOL    HW3 6778   4.041   4.295   2.589  0.1335  0.7257  0.0198
 1681SOL    MW4 6779   4.064   4.263   2.667  0.3638  0.3138 -0.2198
 1682SOL     OW 6780   4.301   4.380   2.764  0.1297 -0.0849  0.4177
 1682SOL    HW2 6781   4.223   4.331   2.739  0.7028 -0.5837 -0.4467
 1682SOL    HW3 6782   4.287   4.468   2.728 -0.0526 -0.1610  0.3016
 1682SOL    MW4 6783   4.289   4.385   2.756  0.1812 -0.1607  0.2882
 1683SOL     OW 6784   0.234   4.627   3.173  0.3882  0.1113  0.1797
 1683SOL    HW2 6785   0.219   4.617   3.267 -0.0853  1.8595  0.3118
 1683SOL    HW3 6786   0.174   4.697   3.147  0.8664 -0.0274 -1.3375
 1683SOL    MW4 6787   0.224   4.635   3.182  0.3889  0.3233 -0.0029
 1684SOL     OW 6788   0.068   0.131   3.040 -0.6196  0.2754 -0.0971
 1684SOL    HW2 6789  -0.015   0.085   3.055  0.0087 -0.8898 -0.1118
 1684SOL    HW3 6790   0.049   0.222   3.064 -1.2785 -0.3993  2.1568
 1684SOL    MW4 6791   0.054   0.137   3.045 -0.6236  0.0326  0.1984
 1685SOL     OW 6792   0.004   0.379   3.153  0.4541  0.3680 -0.0638
 1685SOL    HW2 6793   0.004   0.373   3.248 -0.6798  0.2689 -0.0667
 1685SOL    HW3 6794  -0.078   0.424   3.131  0.7125  0.4128 -0.9917
 1685SOL    MW4 6795  -0.007   0.384   3.162  0.3381  0.3608 -0.1867
 1686SOL     OW 6796   0.220   0.490   3.039  0.1509 -0.0864  0.5309
 1686SOL    HW2 6797   0.289   0.434   3.075 -0.0149 -1.0385 -0.6085
 1686SOL    HW3 6798   0.140   0.458   3.081  0.2151  0.0976  0.7958
 1686SOL    MW4 6799   0.219   0.478   3.049  0.1375 -0.1878  0.4156
 1687SOL     OW 6800   0.278   0.730   3.170  0.0423 -0.4500  0.1474
 1687SOL    HW2 6801   0.241   0.724   3.258 -1.2533  1.2852 -0.2278
 1687SOL    HW3 6802   0.266   0.643   3.132 -1.1140 -0.6851  1.0361
 1687SOL    MW4 6803   0.271   0.718   3.176 -0.2812 -0.2521  0.2151
 1688SOL     OW 6804   0.049   0.873   3.081  0.2408 -0.4225  0.0339
 1688SOL    HW2 6805   0.128   0.819   3.084  0.6407  0.0283 -1.9641
 1688SOL    HW3 6806   0.021   0.870   2.990 -1.2207  0.6269  0.4347
 1688SOL    MW4 6807   0.056   0.865   3.069  0.1008 -0.2246 -0.1769
 1689SOL     OW 6808   0.058   1.133   3.154  0.2305  0.1659 -0.5154
 1689SOL    HW2 6809  -0.030   1.162   3.130 -0.0551 -0.2040  0.0703
 1689SOL    HW3 6810   0.058   1.039   3.135  0.1087 -0.0695  0.5886
 1689SOL    MW4 6811   0.046   1.124   3.148  0.1767  0.0861 -0.2923
 1690SOL     OW 6812   0.277   1.278   3.013  0.0792 -0.0633 -0.2056
 1690SOL    HW2 6813   0.205   1.232   3.057 -1.3501  2.3046  0.0253
 1690SOL    HW3 6814   0.252   1.276   2.920  0.1842 -0.0175 -0.2341
 1690SOL    MW4 6815   0.264   1.271   3.006 -0.0955  0.2551 -0.1788
 1691SOL     OW 6816   0.251   1.536   3.121 -0.2002  0.1258  0.4317
 1691SOL    HW2 6817   0.173   1.582   3.090  0.4171  0.0176 -1.3760
 1691SOL    HW3 6818   0.242   1.448   3.086  0.9024  0.2177 -0.1160
 1691SOL    MW4 6819   0.240   1.531   3.112  0.0267  0.1237  0.1211
 1692SOL     OW 6820   0.039   1.690   3.034 -0.3492  0.2328 -0.3166
 1692SOL    HW2 6821  -0.040   1.648   3.068 -0.2112  0.4116  0.2349
 1692SOL    HW3 6822   0.031   1.781   3.062  0.3617  0.1069  0.2817
 1692SOL    MW4 6823   0.027   1.697   3.042 -0.2375  0.2397 -0.1650
 1693SOL     OW 6824   4.488   1.929   3.152  0.2013 -0.3583 -0.0710
 1693SOL    HW2 6825   4.410   1.960   3.105 -0.0955 -1.3101 -0.2292
 1693SOL    HW3 6826   4.556   1.993   3.130 -0.4419  0.2816 -0.2276
 1693SOL    MW4 6827   4.487   1.942   3.143  0.0773 -0.3995 -0.1125
 1694SOL     OW 6828   0.191   2.074   3.042  0.1689 -0.5644  0.2211
 1694SOL    HW2 6829   0.205   2.166   3.064  2.2555 -0.6330 -0.6093
 1694SOL    HW3 6830   0.179   2.074   2.947 -2.5135 -0.8965  0.5279
 1694SOL    MW4 6831   0.191   2.086   3.032  0.0903 -0.6173  0.1521
 1695SOL     OW 6832   0.235   2.333   3.123  0.3670  0.2338 -0.0124
 1695SOL    HW2 6833   0.231   2.346   3.217 -0.5576  0.0789 -0.0253
 1695SOL    HW3 6834   0.317   2.375   3.096 -0.3632  2.0955  0.5703
 1695SOL    MW4 6835   0.246   2.340   3.132  0.1486  0.4590  0.0625
 1696SOL     OW 6836   4.479   2.409   3.033 -0.0344  0.2053 -0.2754
 1696SOL    HW2 6837   4.470   2.494   3.075  0.9167  0.8378 -1.2845
 1696SOL    HW3 6838   4.556   2.369   3.075 -0.1883  0.0589 -0.1358
 1696SOL    MW4 6839   4.488   2.415   3.044  0.0701  0.2694 -0.3903
 1697SOL     OW 6840   4.475   2.679   3.121  0.6082  0.2837  0.3008
 1697SOL    HW2 6841   4.465   2.688   3.216 -1.7549  0.9423  0.0237
 1697SOL    HW3 6842   4.552   2.732   3.100  1.2535 -0.0165  1.8714
 1697SOL    MW4 6843   4.484   2.687   3.131  0.3815  0.3312  0.4714
 1698SOL     OW 6844   0.213   2.858   3.068 -0.3406  0.1508  0.3243
 1698SOL    HW2 6845   0.281   2.801   3.105 -1.0349 -0.6121  0.4240
 1698SOL    HW3 6846   0.226   2.852   2.973  0.0310  0.3803  0.3582
 1698SOL    MW4 6847   0.224   2.850   3.060 -0.3832  0.0806  0.3417
 1699SOL     OW 6848   0.224   3.121   3.158 -0.6106 -0.3984 -0.1587
 1699SOL    HW2 6849   0.149   3.164   3.116  0.5343  0.0070 -1.8244
 1699SOL    HW3 6850   0.228   3.035   3.117  0.1923 -0.2053 -0.4829
 1699SOL    MW4 6851   0.214   3.116   3.147 -0.3536 -0.3197 -0.4210
 1700SOL     OW 6852   4.489   3.225   3.054 -0.0278  0.1812  0.1248
 1700SOL    HW2 6853   4.411   3.173   3.077  0.2542 -0.4318 -0.2835
 1700SOL    HW3 6854   4.486   3.231   2.959 -0.2910  1.2991  0.1940
 1700SOL    MW4 6855   4.478   3.219   3.045 -0.0253  0.2477  0.0801
 1701SOL     OW 6856   0.022   3.488   3.140  0.3140  0.2918  0.2018
 1701SOL    HW2 6857  -0.047   3.529   3.088  2.1101  2.0344 -0.8500
 1701SOL    HW3 6858   0.018   3.395   3.115 -1.7313  0.3312  0.2866
 1701SOL    MW4 6859   0.012   3.481   3.129  0.2813  0.5269  0.0741
 1702SOL     OW 6860   0.230   3.653   3.043  0.4212 -0.2579  0.1309
 1702SOL    HW2 6861   0.237   3.736   3.091 -0.3692  0.7931 -1.5518
 1702SOL    HW3 6862   0.159   3.607   3.086 -0.6803  0.9360 -0.3828
 1702SOL    MW4 6863   0.222   3.658   3.055  0.1716  0.0381 -0.1590
 1703SOL     OW 6864   0.246   3.902   3.163  0.2678  0.2241 -0.2787
 1703SOL    HW2 6865   0.266   3.903   3.257  0.1729 -1.1329 -0.2321
 1703SOL    HW3 6866   0.308   3.965   3.125 -0.3255  1.4820  0.7970
 1703SOL    MW4 6867   0.257   3.910   3.170  0.1770  0.2110 -0.1304
 1704SOL     OW 6868   0.014   3.960   3.008 -0.0604  0.4999  0.0305
 1704SOL    HW2 6869   0.094   3.941   3.056  0.3836  1.5882 -0.2704
 1704SOL    HW3 6870   0.036   3.942   2.916 -0.1102  0.9406 -0.0705
 1704SOL    MW4 6871   0.028   3.955   3.002 -0.0084  0.7017 -0.0222
 1705SOL     OW 6872   0.017   4.244   3.119 -0.0214  0.2791  0.2443
 1705SOL    HW2 6873   0.000   4.219   3.210  1.1694 -0.7141  0.2107
 1705SOL    HW3 6874   0.006   4.163   3.070 -0.3439  0.7442 -0.4561
 1705SOL    MW4 6875   0.013   4.230   3.125  0.0932  0.2093  0.1473
 1706SOL     OW 6876   0.218   4.405   3.007  0.3176 -0.0769  0.0785
 1706SOL    HW2 6877   0.140   4.361   3.042  0.4301 -0.5957 -0.3106
 1706SOL    HW3 6878   0.222   4.488   3.053 -1.1752  0.4926 -0.7870
 1706SOL    MW4 6879   0.208   4.410   3.017  0.1355 -0.0706 -0.0870
 1707SOL     OW 6880   0.684   0.015   3.143 -0.6466  0.2171  0.0191
 1707SOL    HW2 6881   0.673  -0.072   3.104 -2.3044  0.7381 -0.6874
 1707SOL    HW3 6882   0.616   0.068   3.104  1.1084  2.1729 -0.4493
 1707SOL    MW4 6883   0.674   0.010   3.133 -0.6338  0.5438 -0.1357
 1708SOL     OW 6884   0.430   0.083   3.017  0.9510 -0.1837 -0.4409
 1708SOL    HW2 6885   0.412   0.162   3.067  1.1914  0.0223 -0.6771
 1708SOL    HW3 6886   0.363   0.021   3.045  0.2772  0.3620 -0.8327
 1708SOL    MW4 6887   0.419   0.085   3.027  0.8938 -0.0845 -0.5236
 1709SOL     OW 6888   0.429   0.338   3.145 -0.0600  0.0091 -0.4402
 1709SOL    HW2 6889   0.417   0.360   3.237 -0.1070 -1.9671  0.0343
 1709SOL    HW3 6890   0.495   0.400   3.114 -0.1114  0.7452  0.8974
 1709SOL    MW4 6891   0.436   0.349   3.153 -0.0730 -0.1545 -0.2010
 1710SOL     OW 6892   0.629   0.508   3.043  0.0401  0.0149 -0.3173
 1710SOL    HW2 6893   0.712   0.469   3.069  1.1609  1.2912 -1.8872
 1710SOL    HW3 6894   0.643   0.602   3.049 -0.9293  0.2588 -1.6401
 1710SOL    MW4 6895   0.642   0.515   3.047  0.0601  0.2155 -0.6990
 1711SOL     OW 6896   0.687   0.765   3.142 -0.2440  0.3068  0.3977
 1711SOL    HW2 6897   0.674   0.759   3.237  0.1238 -0.4901  0.4039
 1711SOL    HW3 6898   0.632   0.838   3.115  1.4779  2.0743  1.5641
 1711SOL    MW4 6899   0.678   0.773   3.151  0.0318  0.4349  0.5524
 1712SOL     OW 6900   0.489   0.934   3.066  0.2844 -0.0190  0.2891
 1712SOL    HW2 6901   0.420   0.891   3.117  0.8452  0.2179  1.2668
 1712SOL    HW3 6902   0.459   0.929   2.975 -1.2283  0.4355  0.7414
 1712SOL    MW4 6903   0.476   0.928   3.061  0.1588  0.0722  0.4778
 1713SOL     OW 6904   0.488   1.204   3.153  0.0859 -0.4623  0.3766
 1713SOL    HW2 6905   0.487   1.111   3.127  2.8537 -0.4239  0.0111
 1713SOL    HW3 6906   0.419   1.244   3.099 -1.0691 -2.2595  0.4607
 1713SOL    MW4 6907   0.479   1.197   3.142  0.2987 -0.6943  0.3393
 1714SOL     OW 6908   0.712   1.305   3.024 -0.6827  0.2357  0.1489
 1714SOL    HW2 6909   0.793   1.267   3.059 -1.0792 -0.3936  0.3916
 1714SOL    HW3 6910   0.644   1.271   3.082 -1.1197  0.7658 -0.0586
 1714SOL    MW4 6911   0.714   1.295   3.036 -0.7927  0.2226  0.1533
 1715SOL     OW 6912   0.697   1.583   3.086  0.1369  0.6399  0.6756
 1715SOL    HW2 6913   0.664   1.584   3.175 -1.2660  0.7854  0.1653
 1715SOL    HW3 6914   0.698   1.491   3.061  1.4423  0.5105  1.1594
 1715SOL    MW4 6915   0.693   1.571   3.094  0.1241  0.6421  0.6719
 1716SOL     OW 6916   0.458   1.692   3.012  0.4700 -0.2629  0.4025
 1716SOL    HW2 6917   0.542   1.653   3.036  0.2638 -0.8278  0.2115
 1716SOL    HW3 6918   0.393   1.635   3.054  0.1818  0.1028  0.4504
 1716SOL    MW4 6919   0.461   1.679   3.021  0.4048 -0.2893  0.3834
 1717SOL     OW 6920   0.426   1.953   3.148  0.0191 -0.0449  0.2652
 1717SOL    HW2 6921   0.439   1.869   3.105  0.7439  0.4939 -0.5756
 1717SOL    HW3 6922   0.349   1.990   3.106 -0.4807 -0.4124  0.8434
 1717SOL    MW4 6923   0.417   1.947   3.137  0.0488 -0.0223  0.2306
 1718SOL     OW 6924   0.668   2.062   3.030 -0.2130 -0.0800 -0.0148
 1718SOL    HW2 6925   0.746   2.014   3.058 -0.1358 -0.6607 -1.1634
 1718SOL    HW3 6926   0.602   2.043   3.097  0.3127 -0.4667  0.3961
 1718SOL    MW4 6927   0.669   2.053   3.042 -0.1335 -0.2079 -0.1123
 1719SOL     OW 6928   0.730   2.330   3.099  0.1283  0.2794  0.5606
 1719SOL    HW2 6929   0.708   2.342   3.191 -2.7575 -0.4591  0.0063
 1719SOL    HW3 6930   0.715   2.237   3.082 -0.8950  0.7181 -1.0334
 1719SOL    MW4 6931   0.725   2.319   3.108 -0.3875  0.2401  0.2773
 1720SOL     OW 6932   0.488   2.437   3.043  0.4219 -0.6807 -0.5406
 1720SOL    HW2 6933   0.576   2.402   3.056 -0.0259 -1.4067  0.5726
 1720SOL    HW3 6934   0.470   2.421   2.950  1.7455  0.1515 -0.9491
 1720SOL    MW4 6935   0.497   2.430   3.032  0.5375 -0.6671 -0.4475
 1721SOL     OW 6936   0.449   2.693   3.149 -0.3320 -0.0405  0.4123
 1721SOL    HW2 6937   0.516   2.741   3.100 -1.3417  0.9426 -0.0411
 1721SOL    HW3 6938   0.453   2.604   3.113 -0.2482  0.3741 -0.6431
 1721SOL    MW4 6939   0.458   2.687   3.137 -0.4541  0.1440  0.2131
 1722SOL     OW 6940   0.647   2.854   3.042  0.1416  0.1296  0.0663
 1722SOL    HW2 6941   0.734   2.815   3.052 -0.2592 -0.2192  2.4256
 1722SOL    HW3 6942   0.659   2.946   3.062 -0.0578  0.0702  0.4520
 1722SOL    MW4 6943   0.660   2.861   3.046  0.0625  0.0756  0.4284
 1723SOL     OW 6944   0.684   3.117   3.093  0.2095  0.3236 -0.3167
 1723SOL    HW2 6945   0.697   3.114   3.188 -2.0390 -0.7208 -0.0089
 1723SOL    HW3 6946   0.602   3.163   3.081 -1.6879 -3.1649 -1.4742
 1723SOL    MW4 6947   0.675   3.123   3.104 -0.3375 -0.2744 -0.4287
 1724SOL     OW 6948   0.454   3.248   3.057 -0.0404  0.2805  0.1601
 1724SOL    HW2 6949   0.443   3.342   3.069  0.7260  0.1589  1.8671
 1724SOL    HW3 6950   0.369   3.211   3.079 -0.5008  0.5997 -1.0248
 1724SOL    MW4 6951   0.441   3.255   3.061 -0.0001  0.3066  0.2291
 1725SOL     OW 6952   0.442   3.502   3.122  0.2223  0.0470 -0.5644
 1725SOL    HW2 6953   0.438   3.493   3.218  1.0385 -1.1669 -0.6304
 1725SOL    HW3 6954   0.362   3.548   3.099 -1.4506 -2.3042  0.3992
 1725SOL    MW4 6955   0.431   3.507   3.132  0.1093 -0.4232 -0.4461
 1726SOL     OW 6956   0.675   3.616   2.995 -0.1155 -0.1969 -0.3909
 1726SOL    HW2 6957   0.742   3.576   3.051 -0.6495 -0.0517  0.3488
 1726SOL    HW3 6958   0.595   3.566   3.013 -0.7030  0.9784  0.2823
 1726SOL    MW4 6959   0.674   3.604   3.004 -0.2635 -0.0226 -0.2048
 1727SOL     OW 6960   0.660   3.859   3.113 -0.0750  0.9004 -0.3649
 1727SOL    HW2 6961   0.659   3.861   3.209  1.1818  0.4081 -0.3281
 1727SOL    HW3 6962   0.663   3.765   3.091  0.3240  1.0278 -0.8674
 1727SOL    MW4 6963   0.660   3.847   3.123  0.1435  0.8523 -0.4263
 1728SOL     OW 6964   0.443   4.021   3.014 -0.0081  0.5323  0.3462
 1728SOL    HW2 6965   0.521   3.975   3.044 -0.4992 -0.3486  0.2898
 1728SOL    HW3 6966   0.445   4.013   2.919 -0.8009 -0.5661  0.4056
 1728SOL    MW4 6967   0.453   4.014   3.005 -0.1775  0.2713  0.3467
 1729SOL     OW 6968   0.455   4.324   3.121 -0.0409  0.2075  0.2026
 1729SOL    HW2 6969   0.468   4.243   3.072  0.9538  0.9980 -0.8532
 1729SOL    HW3 6970   0.375   4.361   3.085  1.6457  1.6983 -2.1337
 1729SOL    MW4 6971   0.446   4.318   3.110  0.3129  0.5083 -0.2449
 1730SOL     OW 6972   0.717   4.412   3.059 -0.1596 -0.5611 -0.0745
 1730SOL    HW2 6973   0.636   4.377   3.095 -0.1476 -0.9927 -0.4613
 1730SOL    HW3 6974   0.698   4.425   2.966 -0.2366  0.6727  0.1033
 1730SOL    MW4 6975   0.704   4.409   3.051 -0.1683 -0.4554 -0.1023
 1731SOL     OW 6976   1.128   4.661   3.126  0.0643  0.4267 -0.2727
 1731SOL    HW2 6977   1.207   4.704   3.093 -0.2619 -0.8481 -2.8299
 1731SOL    HW3 6978   1.056   4.710   3.086 -0.4046  0.1686  0.2452
 1731SOL    MW4 6979   1.129   4.673   3.116 -0.0405  0.2246 -0.5419
 1732SOL     OW 6980   0.906   0.113   3.011 -0.1754  0.4136  0.1046
 1732SOL    HW2 6981   0.894   0.205   3.031 -2.1382  0.5161 -1.4264
 1732SOL    HW3 6982   0.832   0.069   3.054  1.0249 -0.5364  1.2636
 1732SOL    MW4 6983   0.895   0.119   3.020 -0.2760  0.3018  0.0556
 1733SOL     OW 6984   0.896   0.394   3.105 -0.3218 -0.0813 -0.3191
 1733SOL    HW2 6985   0.906   0.391   3.200  0.5795  0.2907 -0.3937
 1733SOL    HW3 6986   0.985   0.406   3.072 -0.5096 -1.1611 -1.2574
 1733SOL    MW4 6987   0.909   0.395   3.113 -0.2277 -0.1747 -0.4528
 1734SOL     OW 6988   1.144   0.456   3.000  0.7675  0.0668 -0.2238
 1734SOL    HW2 6989   1.228   0.432   3.039  1.4556 -0.7954 -2.1758
 1734SOL    HW3 6990   1.165   0.479   2.910 -0.6362  3.0520  0.1416
 1734SOL    MW4 6991   1.158   0.456   2.993  0.6732  0.3469 -0.4332
 1735SOL     OW 6992   1.147   0.704   3.101 -0.8060 -0.2787  0.0046
 1735SOL    HW2 6993   1.148   0.703   3.197 -2.3156 -0.6007  0.0351
 1735SOL    HW3 6994   1.127   0.614   3.076 -0.2471 -0.2308 -0.6278
 1735SOL    MW4 6995   1.144   0.692   3.110 -0.9315 -0.3148 -0.0746
 1736SOL     OW 6996   0.923   0.873   3.029  0.4387  0.5531 -0.0289
 1736SOL    HW2 6997   1.000   0.826   3.060 -1.4371 -1.7033  1.3611
 1736SOL    HW3 6998   0.849   0.831   3.073 -1.4971  3.6412 -0.1533
 1736SOL    MW4 6999   0.923   0.861   3.039 -0.0643  0.6627  0.1380
 1737SOL     OW 7000   0.926   1.157   3.142  0.1304  0.5301  0.1109
 1737SOL    HW2 7001   1.009   1.191   3.108 -0.0294 -0.0741 -0.8988
 1737SOL    HW3 7002   0.924   1.066   3.113 -0.2412  0.1429  1.3288
 1737SOL    MW4 7003   0.937   1.150   3.133  0.0603  0.3992  0.1383
 1738SOL     OW 7004   1.137   1.291   3.013 -0.0375 -0.1912  0.5666
 1738SOL    HW2 7005   1.221   1.253   3.038 -0.3824  0.0015  2.0481
 1738SOL    HW3 7006   1.138   1.290   2.917  1.8262  0.1959  0.5551
 1738SOL    MW4 7007   1.148   1.286   3.003  0.1628 -0.1146  0.7608
 1739SOL     OW 7008   1.163   1.548   3.122 -0.1524 -0.0012  0.3274
 1739SOL    HW2 7009   1.238   1.587   3.076  1.1484 -0.6718  1.8202
 1739SOL    HW3 7010   1.149   1.464   3.078  0.2387 -0.0538  0.3037
 1739SOL    MW4 7011   1.171   1.542   3.110  0.0709 -0.0967  0.5212
 1740SOL     OW 7012   0.960   1.687   2.988 -0.3506  0.0916  0.1455
 1740SOL    HW2 7013   1.030   1.632   3.024 -0.8010 -0.5159  0.1089
 1740SOL    HW3 7014   0.882   1.662   3.039 -0.8712 -0.3696 -0.8628
 1740SOL    MW4 7015   0.959   1.676   3.000 -0.4787 -0.0494  0.0076
 1741SOL     OW 7016   0.918   1.939   3.109 -0.2418  0.3615  0.3083
 1741SOL    HW2 7017   0.898   1.927   3.201  1.0669 -0.4523  0.5074
 1741SOL    HW3 7018   0.935   1.850   3.076  0.4405  0.7566 -0.4320
 1741SOL    MW4 7019   0.918   1.925   3.117  0.0209  0.3062  0.2367
 1742SOL     OW 7020   1.150   2.054   3.008  0.3490 -0.2400  0.0515
 1742SOL    HW2 7021   1.071   2.006   3.033  1.0216 -1.6564 -0.4613
 1742SOL    HW3 7022   1.154   2.046   2.912  1.1207 -0.1912  0.0759
 1742SOL    MW4 7023   1.140   2.047   2.998  0.5395 -0.4203 -0.0131
 1743SOL     OW 7024   1.146   2.329   3.091  0.1775  0.2705 -0.5527
 1743SOL    HW2 7025   1.073   2.375   3.051 -0.4298  0.9005  1.2201
 1743SOL    HW3 7026   1.138   2.239   3.061 -0.8033  0.5354 -1.0737
 1743SOL    MW4 7027   1.136   2.323   3.082 -0.0318  0.3889 -0.3877
 1744SOL     OW 7028   0.938   2.471   2.988 -0.4705 -0.0912 -0.3767
 1744SOL    HW2 7029   0.870   2.422   3.034  0.6002 -1.4701 -0.2089
 1744SOL    HW3 7030   0.923   2.451   2.895 -1.0580  0.6044 -0.4274
 1744SOL    MW4 7031   0.927   2.462   2.982 -0.4067 -0.1814 -0.3614
 1745SOL     OW 7032   0.888   2.729   3.093 -0.2092  0.1940  0.1284
 1745SOL    HW2 7033   0.873   2.717   3.187 -0.2272 -0.0419  0.0967
 1745SOL    HW3 7034   0.909   2.641   3.061  3.3464  0.8034  0.5417
 1745SOL    MW4 7035   0.889   2.716   3.101  0.2576  0.2432  0.1786
 1746SOL     OW 7036   1.109   2.871   2.995  0.2563  0.4290  0.0220
 1746SOL    HW2 7037   1.125   2.947   3.051  0.1634 -0.3233  1.0934
 1746SOL    HW3 7038   1.031   2.830   3.032  0.5480 -0.4219 -0.2915
 1746SOL    MW4 7039   1.101   2.876   3.007  0.2825  0.2174  0.1223
 1747SOL     OW 7040   1.123   3.088   3.136 -0.3732 -0.1336  0.3220
 1747SOL    HW2 7041   1.195   3.133   3.092  0.0381 -2.3756 -1.3847
 1747SOL    HW3 7042   1.044   3.129   3.099 -0.0060  0.7649  0.5125
 1747SOL    MW4 7043   1.122   3.100   3.125 -0.2706 -0.3111  0.1218
 1748SOL     OW 7044   0.925   3.232   3.022  0.0430  0.1464  0.3956
 1748SOL    HW2 7045   0.840   3.204   3.054 -0.6694  1.7337 -0.0857
 1748SOL    HW3 7046   0.924   3.211   2.928 -0.5463  1.8178  0.0014
 1748SOL    MW4 7047   0.914   3.226   3.014 -0.1288  0.5765  0.2801
 1749SOL     OW 7048   0.887   3.478   3.134 -0.1249 -0.0481 -0.1274
 1749SOL    HW2 7049   0.952   3.543   3.105 -0.8618  0.8112  0.1116
 1749SOL    HW3 7050   0.915   3.396   3.094  2.2872 -0.1409  1.6024
 1749SOL    MW4 7051   0.900   3.476   3.125  0.0961  0.0529  0.1323
 1750SOL     OW 7052   1.077   3.634   3.009 -0.2745 -0.0569  0.3117
 1750SOL    HW2 7053   1.132   3.569   3.053 -0.1749  0.4374  0.9149
 1750SOL    HW3 7054   1.097   3.716   3.053  0.6639  0.6454 -1.3927
 1750SOL    MW4 7055   1.087   3.636   3.020 -0.1376  0.1011  0.1662
 1751SOL     OW 7056   1.129   3.877   3.152 -0.1350  0.5124  0.2907
 1751SOL    HW2 7057   1.131   3.865   3.247  0.4296 -0.8143  0.1225
 1751SOL    HW3 7058   1.040   3.908   3.134 -0.1034  1.2220  1.2980
 1751SOL    MW4 7059   1.117   3.880   3.163 -0.0563  0.4311  0.4013
 1752SOL     OW 7060   0.900   3.959   3.056 -0.0949 -0.2430  0.3385
 1752SOL    HW2 7061   0.819   3.914   3.082  0.6703 -2.2820 -0.6457
 1752SOL    HW3 7062   0.889   3.975   2.962  0.7616 -0.8298  0.1304
 1752SOL    MW4 7063   0.888   3.955   3.047  0.1190 -0.5896  0.1812
 1753SOL     OW 7064   0.922   4.235   3.137 -0.1732  0.5134  0.4413
 1753SOL    HW2 7065   0.913   4.163   3.074  1.9331  1.1971 -0.6703
 1753SOL    HW3 7066   0.850   4.294   3.115 -0.7118 -0.2632  0.0559
 1753SOL    MW4 7067   0.911   4.233   3.126  0.0336  0.5012  0.2434
 1754SOL     OW 7068   1.154   4.393   3.021  0.1821  0.4720  0.2511
 1754SOL    HW2 7069   1.075   4.354   3.060 -0.4521  0.6646 -0.8104
 1754SOL    HW3 7070   1.154   4.483   3.053  0.5209  0.1838  1.0598
 1754SOL    MW4 7071   1.144   4.400   3.030  0.1431  0.4587  0.2177
 1755SOL     OW 7072   1.563   4.631   3.138 -0.1915 -0.8505 -0.1065
 1755SOL    HW2 7073   1.550   4.637   3.232  0.9645 -1.9712  0.1454
 1755SOL    HW3 7074   1.491   4.681   3.100  0.8247  1.9319  1.4271
 1755SOL    MW4 7075   1.552   4.638   3.145  0.0950 -0.6313  0.1290
 1756SOL     OW 7076   1.354   0.110   3.014 -0.0197  0.1799 -0.0027
 1756SOL    HW2 7077   1.348   0.203   3.038  0.8258 -0.2715  2.1197
 1756SOL    HW3 7078   1.343   0.109   2.919  1.2953  2.6089 -0.2423
 1756SOL    MW4 7079   1.352   0.122   3.005  0.2652  0.4409  0.2456
 1757SOL     OW 7080   1.363   0.364   3.117  0.1896  0.1072 -0.4239
 1757SOL    HW2 7081   1.360   0.361   3.213  1.3108  1.1137 -0.3458
 1757SOL    HW3 7082   1.443   0.413   3.097  0.6632 -1.1967 -1.8845
 1757SOL    MW4 7083   1.373   0.370   3.127  0.4001  0.0680 -0.6061
 1758SOL     OW 7084   1.579   0.525   3.051  0.8313 -0.1354  0.4353
 1758SOL    HW2 7085   1.603   0.616   3.068  1.1601 -0.2431  0.5510
 1758SOL    HW3 7086   1.566   0.521   2.957 -0.6007  0.3709  0.6003
 1758SOL    MW4 7087   1.580   0.537   3.041  0.6857 -0.0829  0.4723
 1759SOL     OW 7088   1.611   0.812   3.102  0.3381  0.1569 -0.2297
 1759SOL    HW2 7089   1.610   0.795   3.196 -1.4589 -2.4684 -0.6587
 1759SOL    HW3 7090   1.524   0.847   3.083  0.4796  0.1008 -1.0017
 1759SOL    MW4 7091   1.599   0.814   3.112  0.1197 -0.1969 -0.3881
 1760SOL     OW 7092   1.358   0.879   2.992  0.0514 -0.5496  0.0048
 1760SOL    HW2 7093   1.335   0.965   3.026  1.7140 -0.1277  0.0834
 1760SOL    HW3 7094   1.289   0.821   3.025 -0.5330  0.5726  0.7645
 1760SOL    MW4 7095   1.346   0.883   3.001  0.1937 -0.3459  0.1156
 1761SOL     OW 7096   1.362   1.148   3.061 -0.2085  0.0498 -0.0402
 1761SOL    HW2 7097   1.375   1.156   3.155 -0.9788  0.7479  0.0149
 1761SOL    HW3 7098   1.445   1.177   3.022  0.5641 -1.4826  0.4536
 1761SOL    MW4 7099   1.374   1.153   3.068 -0.2083 -0.0603  0.0322
 1762SOL     OW 7100   1.607   1.254   2.991 -0.5418  0.4628  0.2123
 1762SOL    HW2 7101   1.662   1.200   3.047 -2.2830 -0.7160  0.7967
 1762SOL    HW3 7102   1.609   1.341   3.032 -1.0088 -0.1496  1.5433
 1762SOL    MW4 7103   1.615   1.258   3.004 -0.8332  0.2264  0.4649
 1763SOL     OW 7104   1.619   1.502   3.098  0.0829 -0.3217  0.0674
 1763SOL    HW2 7105   1.704   1.539   3.078 -0.4081  0.8947  0.2187
 1763SOL    HW3 7106   1.557   1.555   3.048 -0.4312 -2.4310 -1.6117
 1763SOL    MW4 7107   1.622   1.514   3.088 -0.0497 -0.4395 -0.1342
 1764SOL     OW 7108   1.407   1.672   3.003  0.3514  0.2417  0.2090
 1764SOL    HW2 7109   1.397   1.767   3.014 -0.7478  0.1119  0.3850
 1764SOL    HW3 7110   1.389   1.656   2.911  1.7063  0.3443 -0.0811
 1764SOL    MW4 7111   1.404   1.683   2.992  0.3853  0.2382  0.1941
 1765SOL     OW 7112   1.384   1.926   3.112  0.0269 -0.3273 -0.4067
 1765SOL    HW2 7113   1.386   1.896   3.204 -0.4348 -0.9892 -0.6053
 1765SOL    HW3 7114   1.298   1.967   3.102  0.3883  0.4521 -0.3287
 1765SOL    MW4 7115   1.373   1.927   3.123  0.0136 -0.3119 -0.4225
 1766SOL     OW 7116   1.554   2.088   2.973 -0.2733  0.0414 -0.2855
 1766SOL    HW2 7117   1.484   2.032   3.006  0.3599 -1.5968 -1.6481
 1766SOL    HW3 7118   1.556   2.073   2.879  0.7590  1.4014 -0.5132
 1766SOL    MW4 7119   1.545   2.079   2.965 -0.0535  0.0048 -0.4954
 1767SOL     OW 7120   1.590   2.323   3.128 -0.2288 -0.3685  0.1600
 1767SOL    HW2 7121   1.510   2.373   3.111 -0.5480 -0.9835 -0.1604
 1767SOL    HW3 7122   1.575   2.239   3.084 -0.1187 -1.1224  1.5682
 1767SOL    MW4 7123   1.577   2.319   3.120 -0.2565 -0.5493  0.3035
 1768SOL     OW 7124   1.365   2.457   3.021  0.3985 -0.3034 -0.3673
 1768SOL    HW2 7125   1.287   2.404   3.040 -0.0115  0.7278  0.8746
 1768SOL    HW3 7126   1.371   2.456   2.925 -1.0477 -0.5396 -0.4769
 1768SOL    MW4 7127   1.355   2.450   3.011  0.1535 -0.1986 -0.2179
 1769SOL     OW 7128   1.321   2.716   3.129  0.0808  0.0254  0.1072
 1769SOL    HW2 7129   1.324   2.628   3.092  0.3982 -0.2662  0.8345
 1769SOL    HW3 7130   1.249   2.758   3.082  0.2951 -0.4315 -0.6486
 1769SOL    MW4 7131   1.312   2.710   3.118  0.1510 -0.0734  0.1035
 1770SOL     OW 7132   1.524   2.854   2.996 -0.2640 -0.4474 -0.2193
 1770SOL    HW2 7133   1.605   2.808   3.020 -0.9025 -0.4974  2.0009
 1770SOL    HW3 7134   1.454   2.803   3.038 -1.1874  1.2026  0.3066
 1770SOL    MW4 7135   1.525   2.841   3.005 -0.4700 -0.2365  0.1431
 1771SOL     OW 7136   1.587   3.110   3.113 -0.2551  0.1624  0.1982
 1771SOL    HW2 7137   1.592   3.108   3.209 -0.0410  0.0868  0.1869
 1771SOL    HW3 7138   1.553   3.024   3.089 -0.9057  0.4084  0.2377
 1771SOL    MW4 7139   1.583   3.099   3.123 -0.3127  0.1850  0.2017
 1772SOL     OW 7140   1.338   3.233   3.033  0.1079  0.3093  0.1362
 1772SOL    HW2 7141   1.431   3.221   3.052  0.1287  1.0458  0.5007
 1772SOL    HW3 7142   1.332   3.227   2.937  0.5832  0.6180  0.0865
 1772SOL    MW4 7143   1.350   3.230   3.023  0.1733  0.4473  0.1779
 1773SOL     OW 7144   1.292   3.487   3.124  0.0725 -1.0951  0.2583
 1773SOL    HW2 7145   1.317   3.480   3.216  0.7150 -1.0339  0.0924
 1773SOL    HW3 7146   1.293   3.397   3.092  2.2995 -0.9082 -0.3112
 1773SOL    MW4 7147   1.296   3.475   3.132  0.4510 -1.0624  0.1609
 1774SOL     OW 7148   1.550   3.595   3.027 -0.2110 -0.0420  0.0994
 1774SOL    HW2 7149   1.466   3.566   3.064  0.3286 -1.2639  0.3866
 1774SOL    HW3 7150   1.531   3.611   2.935 -1.1710  1.3829  0.5213
 1774SOL    MW4 7151   1.536   3.593   3.020 -0.2666 -0.0150  0.1931
 1775SOL     OW 7152   1.553   3.859   3.124  0.3257 -0.7814 -0.2650
 1775SOL    HW2 7153   1.630   3.906   3.092 -0.2496  0.2218 -0.1786
 1775SOL    HW3 7154   1.554   3.776   3.075  1.0944 -0.4980 -0.7428
 1775SOL    MW4 7155   1.563   3.854   3.113  0.3513 -0.6115 -0.3166
 1776SOL     OW 7156   1.348   3.984   3.001  0.1364  0.1496 -0.0059
 1776SOL    HW2 7157   1.426   3.947   3.044  0.3755  0.8161  0.1504
 1776SOL    HW3 7158   1.274   3.947   3.049  0.3522 -0.5979 -0.2415
 1776SOL    MW4 7159   1.349   3.974   3.013  0.1963  0.1390 -0.0165
 1777SOL     OW 7160   1.362   4.239   3.120  0.2310 -0.4254  0.6252
 1777SOL    HW2 7161   1.365   4.159   3.067  0.2191 -0.1812  0.2563
 1777SOL    HW3 7162   1.303   4.297   3.073  1.0714  0.2013  0.3235
 1777SOL    MW4 7163   1.355   4.236   3.107  0.3402 -0.3114  0.5367
 1778SOL     OW 7164   1.554   4.396   3.004  0.1762 -0.0856 -0.3320
 1778SOL    HW2 7165   1.492   4.338   3.048 -0.2555  0.1756 -0.6002
 1778SOL    HW3 7166   1.549   4.478   3.052  1.9543 -0.7535  1.0478
 1778SOL    MW4 7167   1.545   4.399   3.016  0.3539 -0.1388 -0.1853
 1779SOL     OW 7168   2.026   0.001   3.112 -0.1206 -0.2761  0.1652
 1779SOL    HW2 7169   2.019   0.001   3.207 -0.2318  1.2231  0.1610
 1779SOL    HW3 7170   1.938   0.023   3.081 -0.8717 -3.7249 -0.3781
 1779SOL    MW4 7171   2.013   0.004   3.121 -0.2344 -0.5334  0.0927
 1780SOL     OW 7172   1.789   0.111   3.048  0.5385 -0.3199  0.0218
 1780SOL    HW2 7173   1.712   0.058   3.071  0.9911 -1.0312 -0.0856
 1780SOL    HW3 7174   1.802   0.095   2.954 -0.0613  0.9549 -0.2827
 1780SOL    MW4 7175   1.781   0.102   3.039  0.5192 -0.2455 -0.0327
 1781SOL     OW 7176   1.808   0.381   3.148 -0.6507 -0.3528 -0.1259
 1781SOL    HW2 7177   1.791   0.294   3.112 -0.2813  0.7842 -3.1683
 1781SOL    HW3 7178   1.730   0.432   3.125 -0.2099  0.5310  0.3204
 1781SOL    MW4 7179   1.795   0.376   3.140 -0.5438 -0.0862 -0.4683
 1782SOL     OW 7180   2.034   0.484   3.038 -0.4349  0.0386  0.2421
 1782SOL    HW2 7181   1.958   0.438   3.074  0.4614 -1.6637  0.0095
 1782SOL    HW3 7182   2.018   0.488   2.944  0.3579 -1.4659  0.0369
 1782SOL    MW4 7183   2.022   0.478   3.031 -0.2120 -0.3845  0.1843
 1783SOL     OW 7184   2.060   0.755   3.123 -0.4141 -0.3783 -0.2585
 1783SOL    HW2 7185   1.986   0.806   3.091 -1.1404 -1.3399 -0.1121
 1783SOL    HW3 7186   2.049   0.668   3.083  1.3714 -0.1429 -1.3424
 1783SOL    MW4 7187   2.049   0.750   3.113 -0.2744 -0.4742 -0.3822
 1784SOL     OW 7188   1.843   0.873   2.989 -0.5150 -0.3826  0.5486
 1784SOL    HW2 7189   1.758   0.847   3.026 -0.4462  0.0948  1.0465
 1784SOL    HW3 7190   1.828   0.875   2.894 -0.8316 -1.1130  0.5796
 1784SOL    MW4 7191   1.830   0.870   2.981 -0.5476 -0.4160  0.6180
 1785SOL     OW 7192   1.807   1.123   3.102 -1.0953  0.2583  0.0854
 1785SOL    HW2 7193   1.786   1.115   3.195  1.5552 -1.5943  0.5823
 1785SOL    HW3 7194   1.816   1.032   3.072 -1.1899  0.8608 -1.7978
 1785SOL    MW4 7195   1.806   1.110   3.111 -0.7581  0.0932 -0.0973
 1786SOL     OW 7196   1.979   1.328   3.026 -0.1939  0.0958 -0.0188
 1786SOL    HW2 7197   2.067   1.292   3.018 -0.6782 -0.9495 -0.7521
 1786SOL    HW3 7198   1.929   1.260   3.070 -1.2580 -0.4010 -1.9212
 1786SOL    MW4 7199   1.984   1.314   3.031 -0.3982 -0.1076 -0.3667
 1787SOL     OW 7200   2.030   1.568   3.139  0.4402  0.2464  0.9268
 1787SOL    HW2 7201   2.008   1.562   3.232 -2.8314 -1.6698  0.1211
 1787SOL    HW3 7202   2.021   1.479   3.106 -0.3295  1.1942 -1.5881
 1787SOL    MW4 7203   2.026   1.556   3.147 -0.0927  0.1187  0.4885
 1788SOL     OW 7204   1.829   1.659   2.972  0.0074  0.3206  0.2725
 1788SOL    HW2 7205   1.802   1.743   3.010 -0.5636 -0.4365  1.5925
 1788SOL    HW3 7206   1.912   1.639   3.015  0.7168  0.7453 -0.8832
 1788SOL    MW4 7207   1.836   1.668   2.983  0.0257  0.2768  0.2940
 1789SOL     OW 7208   1.759   1.922   3.066 -0.1597 -0.0800  0.1963
 1789SOL    HW2 7209   1.842   1.969   3.058  0.3125 -0.3425  2.9544
 1789SOL    HW3 7210   1.695   1.977   3.021  1.2484  0.8317 -0.7128
 1789SOL    MW4 7211   1.761   1.935   3.059  0.0886  0.0056  0.4401
 1790SOL     OW 7212   1.998   2.054   3.024  0.5902 -0.6319  0.6132
 1790SOL    HW2 7213   2.081   2.011   3.048 -0.1274 -1.0232  2.5014
 1790SOL    HW3 7214   2.014   2.147   3.039  1.1104 -0.5705 -0.3122
 1790SOL    MW4 7215   2.011   2.060   3.029  0.5641 -0.6754  0.7403
 1791SOL     OW 7216   2.032   2.323   3.089  0.2619 -0.3425  0.1435
 1791SOL    HW2 7217   2.104   2.380   3.062  0.7307 -0.9581  0.0864
 1791SOL    HW3 7218   1.953   2.368   3.059  0.6716 -0.1006 -0.5795
 1791SOL    MW4 7219   2.031   2.337   3.081  0.3779 -0.3920  0.0403
 1792SOL     OW 7220   1.811   2.450   2.983  0.4937 -0.1185  0.2187
 1792SOL    HW2 7221   1.794   2.544   2.992  0.9281 -0.2343  2.5489
 1792SOL    HW3 7222   1.734   2.409   3.022  0.0334 -0.7402 -1.3430
 1792SOL    MW4 7223   1.798   2.457   2.989  0.4903 -0.2158  0.3197
 1793SOL     OW 7224   1.750   2.725   3.044 -0.0297 -0.2770 -0.0781
 1793SOL    HW2 7225   1.752   2.740   3.139  1.8102 -0.9963  0.0132
 1793SOL    HW3 7226   1.833   2.761   3.012  0.0464 -1.4267 -1.1983
 1793SOL    MW4 7227   1.761   2.732   3.052  0.2230 -0.5236 -0.2139
 1794SOL     OW 7228   1.998   2.839   2.988 -0.3957  0.3752  0.2261
 1794SOL    HW2 7229   2.015   2.930   3.014  1.6265  0.1746 -0.2494
 1794SOL    HW3 7230   2.016   2.837   2.894 -0.7189 -0.4448  0.1794
 1794SOL    MW4 7231   2.003   2.850   2.979 -0.1717  0.2406  0.1576
 1795SOL     OW 7232   2.038   3.089   3.096 -0.0303  0.0028 -0.3987
 1795SOL    HW2 7233   2.041   3.091   3.191 -1.0005 -0.7823 -0.3535
 1795SOL    HW3 7234   1.957   3.134   3.073 -0.2551 -0.6075 -0.8208
 1795SOL    MW4 7235   2.028   3.095   3.105 -0.1879 -0.1817 -0.4485
 1796SOL     OW 7236   1.818   3.218   3.017 -0.2150 -0.5435 -0.4519
 1796SOL    HW2 7237   1.740   3.168   3.044 -0.3730 -0.1145 -0.1013
 1796SOL    HW3 7238   1.816   3.215   2.921 -0.6173 -0.6081 -0.4452
 1796SOL    MW4 7239   1.807   3.211   3.008 -0.2890 -0.4952 -0.4048
 1797SOL     OW 7240   1.789   3.483   3.133  0.0122  0.0847  0.0253
 1797SOL    HW2 7241   1.784   3.390   3.110  0.1225  0.0057  0.3186
 1797SOL    HW3 7242   1.706   3.520   3.102  0.0231 -0.0852 -0.2098
 1797SOL    MW4 7243   1.777   3.476   3.126  0.0281  0.0517  0.0331
 1798SOL     OW 7244   1.993   3.626   3.009 -0.4034 -0.2732  0.4803
 1798SOL    HW2 7245   1.991   3.717   3.040  0.9290  0.6173 -1.8798
 1798SOL    HW3 7246   1.923   3.582   3.057  0.0724  1.5886  2.9320
 1798SOL    MW4 7247   1.983   3.632   3.019 -0.1647  0.0901  0.4926
 1799SOL     OW 7248   2.009   3.883   3.116  0.0924 -0.1818 -0.3770
 1799SOL    HW2 7249   2.009   3.866   3.210  0.1978 -1.4802 -0.5919
 1799SOL    HW3 7250   1.930   3.934   3.101 -0.5565 -0.9717  0.2659
 1799SOL    MW4 7251   1.998   3.887   3.126  0.0207 -0.4575 -0.3204
 1800SOL     OW 7252   1.758   4.014   3.003  0.4436 -0.3006  0.2305
 1800SOL    HW2 7253   1.774   4.107   3.021 -0.7475 -0.1078  0.3263
 1800SOL    HW3 7254   1.773   4.005   2.909  0.1914  0.0769  0.1510
 1800SOL    MW4 7255   1.762   4.025   2.993  0.2533 -0.2255  0.2327
 1801SOL     OW 7256   1.797   4.279   3.079 -0.5507  0.0933 -0.2746
 1801SOL    HW2 7257   1.878   4.318   3.047 -0.5068  1.2182  1.1372
 1801SOL    HW3 7258   1.728   4.336   3.045 -0.6422  0.0807 -0.1077
 1801SOL    MW4 7259   1.798   4.291   3.070 -0.5569  0.2398 -0.0663
 1802SOL     OW 7260   2.059   4.404   3.008 -0.3136 -0.4861 -0.2822
 1802SOL    HW2 7261   2.053   4.490   3.048  1.4081 -0.9933  1.1167
 1802SOL    HW3 7262   2.064   4.422   2.914  1.4995  1.0260  0.0766
 1802SOL    MW4 7263   2.059   4.418   3.001  0.1526 -0.3538 -0.0505
 1803SOL     OW 7264   2.501   0.045   3.127  0.1655  0.0265  0.1468
 1803SOL    HW2 7265   2.514  -0.039   3.084  0.8904  1.5655 -2.8106
 1803SOL    HW3 7266   2.426   0.083   3.081 -0.1060  1.0265  1.4020
 1803SOL    MW4 7267   2.492   0.039   3.115  0.2251  0.3615 -0.0777
 1804SOL     OW 7268   2.251   0.121   3.004  0.1359 -0.6252 -0.2040
 1804SOL    HW2 7269   2.247   0.209   3.040  1.4412  0.0137 -1.5741
 1804SOL    HW3 7270   2.180   0.074   3.048 -0.3168  0.9818  0.8300
 1804SOL    MW4 7271   2.241   0.126   3.015  0.2482 -0.3289 -0.2482
 1805SOL     OW 7272   2.269   0.371   3.134  0.5486  0.1415 -0.3256
 1805SOL    HW2 7273   2.270   0.390   3.228 -1.1407 -1.6903  0.0921
 1805SOL    HW3 7274   2.190   0.416   3.102  0.1548 -0.6907 -0.5334
 1805SOL    MW4 7275   2.259   0.380   3.142  0.2737 -0.2100 -0.2978
 1806SOL     OW 7276   2.513   0.513   3.056 -0.2838 -0.0349 -0.8523
 1806SOL    HW2 7277   2.424   0.482   3.073 -0.1802 -0.4158 -1.0209
 1806SOL    HW3 7278   2.521   0.512   2.961  0.0592 -0.4319 -0.8171
 1806SOL    MW4 7279   2.502   0.509   3.046 -0.2246 -0.1375 -0.8700
 1807SOL     OW 7280   2.495   0.806   3.121  0.0410 -0.0592  0.0878
 1807SOL    HW2 7281   2.563   0.853   3.073 -0.9711  2.3632  0.9286
 1807SOL    HW3 7282   2.512   0.714   3.102  1.7785  0.6413 -2.0610
 1807SOL    MW4 7283   2.506   0.800   3.112  0.1366  0.3528 -0.0849
 1808SOL     OW 7284   2.257   0.900   2.981  0.2588 -0.0083  0.1700
 1808SOL    HW2 7285   2.339   0.874   3.021  0.1728  0.1348  0.4369
 1808SOL    HW3 7286   2.189   0.867   3.040  0.1394  0.4084  0.2692
 1808SOL    MW4 7287   2.259   0.892   2.994  0.2317  0.0655  0.2184
 1809SOL     OW 7288   2.213   1.161   3.047 -0.1599 -0.0771 -0.2314
 1809SOL    HW2 7289   2.223   1.160   3.142  0.3738 -0.6887 -0.2922
 1809SOL    HW3 7290   2.212   1.069   3.021 -0.6902  0.0815 -0.7804
 1809SOL    MW4 7291   2.214   1.149   3.056 -0.1595 -0.1370 -0.3119
 1810SOL     OW 7292   2.447   1.296   2.956  0.3389 -0.1194 -0.0308
 1810SOL    HW2 7293   2.376   1.241   2.989 -2.1666  2.4413 -0.8902
 1810SOL    HW3 7294   2.435   1.298   2.861  2.6102 -1.0057 -0.3543
 1810SOL    MW4 7295   2.436   1.289   2.948  0.3080  0.1016 -0.1869
 1811SOL     OW 7296   2.474   1.530   3.114  0.2598  0.2003 -0.3042
 1811SOL    HW2 7297   2.398   1.581   3.085 -0.8624 -0.7274  0.9196
 1811SOL    HW3 7298   2.467   1.447   3.066 -0.3502 -0.4606  0.8909
 1811SOL    MW4 7299   2.463   1.526   3.104  0.0315 -0.0093  0.0148
 1812SOL     OW 7300   2.258   1.672   3.032 -0.5015  0.2689 -0.3185
 1812SOL    HW2 7301   2.175   1.630   3.055 -0.4301 -0.0160 -0.5803
 1812SOL    HW3 7302   2.255   1.679   2.937 -0.3493  0.5193 -0.3031
 1812SOL    MW4 7303   2.246   1.667   3.022 -0.4723  0.2644 -0.3507
 1813SOL     OW 7304   2.253   1.955   3.092 -0.3942 -0.0507 -0.2741
 1813SOL    HW2 7305   2.341   1.993   3.083 -0.9124  0.9153 -1.3215
 1813SOL    HW3 7306   2.267   1.861   3.085  0.5971  0.0817 -0.1521
 1813SOL    MW4 7307   2.267   1.948   3.090 -0.3316  0.0942 -0.3960
 1814SOL     OW 7308   2.522   2.049   3.022  0.2567 -0.0134 -0.0687
 1814SOL    HW2 7309   2.591   1.988   3.050 -0.5318 -0.6359  0.5719
 1814SOL    HW3 7310   2.520   2.042   2.927  0.4210 -0.7278 -0.0235
 1814SOL    MW4 7311   2.531   2.040   3.013  0.1743 -0.1898  0.0217
 1815SOL     OW 7312   2.503   2.332   3.064  0.5411 -0.0774  0.0307
 1815SOL    HW2 7313   2.502   2.343   3.159  2.1174 -0.0326  0.0574
 1815SOL    HW3 7314   2.510   2.238   3.051  0.3164 -0.0839 -0.0385
 1815SOL    MW4 7315   2.504   2.321   3.075  0.7195 -0.0725  0.0253
 1816SOL     OW 7316   2.255   2.460   3.001  0.0015 -0.0047 -0.1979
 1816SOL    HW2 7317   2.267   2.549   3.035 -0.8679  0.1796 -0.3553
 1816SOL    HW3 7318   2.341   2.419   3.009  0.0997  0.4273  1.1003
 1816SOL    MW4 7319   2.268   2.466   3.007 -0.1004  0.0768 -0.0474
 1817SOL     OW 7320   2.222   2.718   3.094  0.0330 -0.0730  0.4649
 1817SOL    HW2 7321   2.287   2.783   3.066 -0.0359 -0.2712 -0.1533
 1817SOL    HW3 7322   2.138   2.752   3.062  0.4199 -2.3180 -3.2004
 1817SOL    MW4 7323   2.219   2.731   3.086  0.0749 -0.3951 -0.1006
 1818SOL     OW 7324   2.450   2.852   3.023 -0.3488 -0.0530 -0.2757
 1818SOL    HW2 7325   2.458   2.947   3.030  2.4983 -0.3167  0.8946
 1818SOL    HW3 7326   2.461   2.834   2.929 -0.0758  0.7354 -0.3968
 1818SOL    MW4 7327   2.453   2.862   3.011  0.0627  0.0162 -0.1371
 1819SOL     OW 7328   2.463   3.122   3.073  0.0701 -0.0348  0.4272
 1819SOL    HW2 7329   2.550   3.155   3.050  0.2358 -0.4749  0.4073
 1819SOL    HW3 7330   2.402   3.184   3.034  0.3672 -0.1715 -0.2495
 1819SOL    MW4 7331   2.466   3.135   3.065  0.1311 -0.1111  0.3352
 1820SOL     OW 7332   2.235   3.254   2.973 -0.3220 -0.3152  0.1645
 1820SOL    HW2 7333   2.237   3.336   3.022  0.7912 -0.1422 -0.1474
 1820SOL    HW3 7334   2.164   3.204   3.013 -0.5658  0.5238  0.8045
 1820SOL    MW4 7335   2.226   3.258   2.985 -0.2074 -0.1819  0.2077
 1821SOL     OW 7336   2.224   3.514   3.106 -0.0828 -0.1445 -0.1521
 1821SOL    HW2 7337   2.297   3.532   3.046  0.3905 -2.0567 -0.2058
 1821SOL    HW3 7338   2.149   3.558   3.066  0.3713 -0.8062 -1.8041
 1821SOL    MW4 7339   2.224   3.522   3.092  0.0398 -0.4840 -0.3774
 1822SOL     OW 7340   2.453   3.590   2.973  0.0122 -0.4912  0.2470
 1822SOL    HW2 7341   2.529   3.546   3.012  0.3801 -0.1875 -0.1109
 1822SOL    HW3 7342   2.452   3.676   3.013  0.2940 -0.2374 -0.2804
 1822SOL    MW4 7343   2.463   3.595   2.983  0.0980 -0.4177  0.1299
 1823SOL     OW 7344   2.430   3.833   3.109 -0.0110 -0.0230  0.0331
 1823SOL    HW2 7345   2.431   3.832   3.205  1.2820  0.3229  0.0298
 1823SOL    HW3 7346   2.516   3.866   3.084  0.0202 -1.0642 -1.2756
 1823SOL    MW4 7347   2.441   3.837   3.119  0.1638 -0.1149 -0.1397
 1824SOL     OW 7348   2.249   4.037   3.049 -0.5936  0.1603  0.4553
 1824SOL    HW2 7349   2.318   3.984   3.088  0.0294 -0.1307 -0.9984
 1824SOL    HW3 7350   2.169   3.986   3.063  0.0287 -1.3257 -1.1274
 1824SOL    MW4 7351   2.247   4.023   3.056 -0.4294 -0.0739  0.0548
 1825SOL     OW 7352   2.265   4.306   3.131 -0.1960  0.0601  0.0511
 1825SOL    HW2 7353   2.267   4.215   3.103  2.2021  0.3029 -0.6764
 1825SOL    HW3 7354   2.189   4.343   3.086 -0.5652 -1.3102 -0.4842
 1825SOL    MW4 7355   2.255   4.299   3.121  0.0718 -0.0887 -0.1156
 1826SOL     OW 7356   2.504   4.449   3.043 -0.5015  0.2487 -0.2223
 1826SOL    HW2 7357   2.414   4.427   3.068 -0.5845  0.7093 -0.0983
 1826SOL    HW3 7358   2.508   4.432   2.949 -0.2363 -1.3524  0.0728
 1826SOL    MW4 7359   2.492   4.444   3.034 -0.4776  0.0978 -0.1671
 1827SOL     OW 7360   2.924   4.651   3.146  0.1501  0.0781  0.1749
 1827SOL    HW2 7361   2.992   4.698   3.099 -0.3673 -0.0229 -0.6937
 1827SOL    HW3 7362   2.918   4.567   3.102 -0.0861 -0.1608  0.6572
 1827SOL    MW4 7363   2.932   4.646   3.134  0.0505  0.0332  0.1242
 1828SOL     OW 7364   2.741   0.142   3.007 -0.2128 -0.3435  0.1653
 1828SOL    HW2 7365   2.805   0.090   3.055 -0.7010 -0.9447  0.1819
 1828SOL    HW3 7366   2.656   0.110   3.038 -0.5644 -1.7682 -2.1293
 1828SOL    MW4 7367   2.738   0.131   3.018 -0.3238 -0.6108 -0.1352
 1829SOL     OW 7368   2.763   0.409   3.118 -0.2835 -0.3258 -0.0721
 1829SOL    HW2 7369   2.771   0.321   3.083 -1.5497 -0.9524  1.1601
 1829SOL    HW3 7370   2.679   0.441   3.085  0.8574  1.0258 -1.7712
 1829SOL    MW4 7371   2.753   0.402   3.109 -0.2999 -0.2301 -0.1338
 1830SOL     OW 7372   2.973   0.540   3.003 -0.6593  0.1007 -0.3321
 1830SOL    HW2 7373   2.907   0.482   3.040 -0.6651  0.1039 -0.3381
 1830SOL    HW3 7374   2.956   0.539   2.909  0.3487 -1.1630 -0.5154
 1830SOL    MW4 7375   2.962   0.532   2.995 -0.5274 -0.0656 -0.3572
 1831SOL     OW 7376   2.889   0.766   3.110  0.0882 -0.0668 -0.0257
 1831SOL    HW2 7377   2.887   0.739   3.202  1.8148 -1.6114 -0.4002
 1831SOL    HW3 7378   2.915   0.687   3.063 -0.0756  0.8979 -1.7752
 1831SOL    MW4 7379   2.892   0.752   3.116  0.2944 -0.1433 -0.3061
 1832SOL     OW 7380   2.698   0.925   2.986 -0.1189  0.0684 -0.1236
 1832SOL    HW2 7381   2.695   1.006   3.036 -0.9659  0.2610 -0.4666
 1832SOL    HW3 7382   2.775   0.879   3.019  0.5545  1.1545 -0.1576
 1832SOL    MW4 7383   2.708   0.930   2.997 -0.1416  0.2370 -0.1733
 1833SOL     OW 7384   2.684   1.179   3.096 -0.1130  0.3425 -0.0268
 1833SOL    HW2 7385   2.769   1.216   3.073 -0.6297  0.8271 -1.2466
 1833SOL    HW3 7386   2.623   1.219   3.033 -1.0626 -0.8140  0.1336
 1833SOL    MW4 7387   2.687   1.189   3.084 -0.3061  0.2538 -0.1669
 1834SOL     OW 7388   2.912   1.304   2.996 -0.1904 -0.0597  0.2629
 1834SOL    HW2 7389   2.979   1.248   3.034  0.8773  0.3053 -1.0540
 1834SOL    HW3 7390   2.926   1.389   3.036  0.1547  0.0235 -0.0338
 1834SOL    MW4 7391   2.922   1.308   3.006 -0.0041 -0.0005  0.0498
 1835SOL     OW 7392   2.939   1.550   3.128  0.1148  0.1039 -0.0483
 1835SOL    HW2 7393   2.932   1.559   3.223 -0.7461  1.1044 -0.1967
 1835SOL    HW3 7394   3.020   1.596   3.105  0.8021 -0.9207  0.2963
 1835SOL    MW4 7395   2.949   1.557   3.138  0.0918  0.1007 -0.0222
 1836SOL     OW 7396   2.694   1.622   2.977 -0.2889 -0.0805  0.0431
 1836SOL    HW2 7397   2.768   1.583   3.024 -0.0321  0.2393 -0.0937
 1836SOL    HW3 7398   2.617   1.586   3.020 -0.0675 -2.0330 -1.1291
 1836SOL    MW4 7399   2.694   1.612   2.989 -0.2255 -0.2960 -0.1297
 1837SOL     OW 7400   2.740   1.886   3.113  0.9021 -0.0843 -0.6984
 1837SOL    HW2 7401   2.815   1.930   3.072  1.8900 -2.1104 -1.1300
 1837SOL    HW3 7402   2.734   1.802   3.068  0.2985 -1.2305  1.4413
 1837SOL    MW4 7403   2.749   1.881   3.102  0.9530 -0.5028 -0.4730
 1838SOL     OW 7404   2.920   2.047   2.994  0.1261 -0.1404  0.0429
 1838SOL    HW2 7405   2.899   2.135   3.024  1.2511 -0.3443  1.4491
 1838SOL    HW3 7406   2.920   2.054   2.898  0.7748  1.5137  0.1541
 1838SOL    MW4 7407   2.917   2.059   2.985  0.3603  0.0513  0.2429
 1839SOL     OW 7408   2.885   2.293   3.107 -0.2790  0.4236 -0.2406
 1839SOL    HW2 7409   2.969   2.335   3.090  0.2268 -0.6089 -0.2764
 1839SOL    HW3 7410   2.820   2.361   3.088  0.4512  0.5710 -2.2406
 1839SOL    MW4 7411   2.887   2.308   3.102 -0.1159  0.3068 -0.5093
 1840SOL     OW 7412   2.695   2.493   2.980  0.1565 -0.1656  0.4444
 1840SOL    HW2 7413   2.695   2.572   3.035 -0.1496  1.1051 -1.3423
 1840SOL    HW3 7414   2.620   2.443   3.011  0.0589  0.4729  1.2637
 1840SOL    MW4 7415   2.685   2.497   2.992  0.1032  0.0863  0.3166
 1841SOL     OW 7416   2.685   2.731   3.121  0.5335  0.2321  0.5150
 1841SOL    HW2 7417   2.679   2.751   3.214 -1.0558 -2.4545  1.0482
 1841SOL    HW3 7418   2.609   2.775   3.083  0.3755  0.1267  0.7087
 1841SOL    MW4 7419   2.674   2.740   3.128  0.3028 -0.1359  0.6111
 1842SOL     OW 7420   2.902   2.853   3.009  0.9429 -0.2513  0.4048
 1842SOL    HW2 7421   2.977   2.815   3.055  0.6984  0.1223  1.1119
 1842SOL    HW3 7422   2.826   2.812   3.049  0.6887  0.7928  1.0040
 1842SOL    MW4 7423   2.902   2.843   3.020  0.8771 -0.0644  0.5770
 1843SOL     OW 7424   2.889   3.133   3.117 -0.3032  0.2595  0.1975
 1843SOL    HW2 7425   2.823   3.182   3.067 -1.3942 -1.0839  0.2980
 1843SOL    HW3 7426   2.889   3.046   3.078  1.2118  0.1590  0.3995
 1843SOL    MW4 7427   2.880   3.128   3.105 -0.2475  0.0691  0.2375
 1844SOL     OW 7428   2.681   3.268   2.988  0.0162 -0.0259  0.0196
 1844SOL    HW2 7429   2.674   3.361   3.010 -0.8035  0.0532 -0.5538
 1844SOL    HW3 7430   2.706   3.267   2.895 -1.4615 -0.3828 -0.3859
 1844SOL    MW4 7431   2.683   3.280   2.978 -0.2868 -0.0627 -0.1097
 1845SOL     OW 7432   2.687   3.518   3.112 -0.3343 -0.3939  0.2703
 1845SOL    HW2 7433   2.681   3.507   3.207 -1.3214 -3.0287 -0.0678
 1845SOL    HW3 7434   2.769   3.567   3.099  0.0707 -0.4493  2.4189
 1845SOL    MW4 7435   2.697   3.523   3.123 -0.4110 -0.7486  0.5093
 1846SOL     OW 7436   2.933   3.618   3.029 -0.4373  0.0563 -0.1471
 1846SOL    HW2 7437   3.008   3.569   3.063  0.7154  0.7337 -1.6776
 1846SOL    HW3 7438   2.942   3.705   3.068  0.0089  0.3738 -0.9706
 1846SOL    MW4 7439   2.944   3.623   3.039 -0.2263  0.1874 -0.4575
 1847SOL     OW 7440   2.894   3.875   3.107  0.2166 -0.3422  0.3922
 1847SOL    HW2 7441   2.904   3.915   3.193  0.5407 -0.4304  0.3964
 1847SOL    HW3 7442   2.813   3.913   3.071  0.5256  0.3097  0.3937
 1847SOL    MW4 7443   2.884   3.885   3.113  0.2999 -0.2677  0.3929
 1848SOL     OW 7444   2.643   3.995   3.030  0.0413  0.2550  0.2464
 1848SOL    HW2 7445   2.650   4.082   3.070 -1.0778  0.5386 -0.1372
 1848SOL    HW3 7446   2.661   4.010   2.937  0.4644 -0.0278  0.2837
 1848SOL    MW4 7447   2.646   4.009   3.023 -0.0505  0.2551  0.2007
 1849SOL     OW 7448   2.682   4.264   3.117 -0.0175 -0.4226 -0.0673
 1849SOL    HW2 7449   2.676   4.260   3.212 -0.3942 -1.6307 -0.1411
 1849SOL    HW3 7450   2.625   4.337   3.093  0.9375  0.6037  0.7002
 1849SOL    MW4 7451   2.674   4.273   3.126  0.0587 -0.4468  0.0238
 1850SOL     OW 7452   2.923   4.406   3.015  0.2771 -0.7120  0.0902
 1850SOL    HW2 7453   2.988   4.351   3.057  0.1374 -1.1598 -0.2765
 1850SOL    HW3 7454   2.840   4.362   3.032  0.0833 -0.2198  0.4347
 1850SOL    MW4 7455   2.920   4.393   3.022  0.2332 -0.7062  0.0870
 1851SOL     OW 7456   3.364   4.629   3.097  0.1335 -0.0830  0.6171
 1851SOL    HW2 7457   3.442   4.675   3.067  0.3873 -0.7496  0.2360
 1851SOL    HW3 7458   3.374   4.540   3.063  0.0401 -0.6466  2.0180
 1851SOL    MW4 7459   3.376   4.623   3.089  0.1547 -0.2451  0.7517
 1852SOL     OW 7460   3.152   0.114   3.021  0.3391  0.3854  0.1469
 1852SOL    HW2 7461   3.175   0.203   3.050  0.1497  0.2303  0.7737
 1852SOL    HW3 7462   3.228   0.061   3.044 -0.1083  0.1221  1.0361
 1852SOL    MW4 7463   3.165   0.119   3.028  0.2549  0.3302  0.3469
 1853SOL     OW 7464   3.181   0.384   3.088 -0.1813 -0.2840  0.3238
 1853SOL    HW2 7465   3.263   0.431   3.076 -1.0469  1.5200  1.3400
 1853SOL    HW3 7466   3.115   0.440   3.048 -1.1786 -0.7688  1.2613
 1853SOL    MW4 7467   3.183   0.397   3.081 -0.4270 -0.1100  0.5815
 1854SOL     OW 7468   3.408   0.525   3.044  0.6407  0.4272  0.2226
 1854SOL    HW2 7469   3.485   0.470   3.056 -0.4006 -1.0176  0.3133
 1854SOL    HW3 7470   3.402   0.538   2.949 -0.2702 -1.3014  0.0323
 1854SOL    MW4 7471   3.417   0.520   3.033  0.3831  0.0085  0.2093
 1855SOL     OW 7472   3.344   0.773   3.124  0.5417  0.2542  0.2762
 1855SOL    HW2 7473   3.339   0.765   3.219 -1.2863  0.4868  0.2126
 1855SOL    HW3 7474   3.360   0.684   3.093  0.3305  0.0427  0.7630
 1855SOL    MW4 7475   3.345   0.761   3.133  0.2728  0.2571  0.3319
 1856SOL     OW 7476   3.111   0.910   3.050 -0.3474  0.4256 -0.2989
 1856SOL    HW2 7477   3.195   0.875   3.078 -0.0960 -0.9741 -2.6472
 1856SOL    HW3 7478   3.046   0.861   3.100  0.2106  1.0592  1.0516
 1856SOL    MW4 7479   3.114   0.899   3.060 -0.2406  0.3245 -0.4306
 1857SOL     OW 7480   3.118   1.180   3.115  0.0012 -0.2896 -0.4575
 1857SOL    HW2 7481   3.186   1.209   3.055 -0.8340  0.0584 -1.2551
 1857SOL    HW3 7482   3.112   1.085   3.100  1.7713 -0.6835  1.1555
 1857SOL    MW4 7483   3.126   1.171   3.105  0.1249 -0.2956 -0.3500
 1858SOL     OW 7484   3.370   1.249   3.004 -0.1562  0.2368 -0.2295
 1858SOL    HW2 7485   3.442   1.208   3.052 -0.4318  1.1782  1.0139
 1858SOL    HW3 7486   3.367   1.339   3.036 -1.6713  0.3054 -0.4934
 1858SOL    MW4 7487   3.379   1.255   3.015 -0.3924  0.3701 -0.1004
 1859SOL     OW 7488   3.336   1.549   3.102 -0.2166 -0.0087 -0.1272
 1859SOL    HW2 7489   3.346   1.533   3.196 -1.0267  1.0618  0.1565
 1859SOL    HW3 7490   3.422   1.580   3.073 -0.1710  0.3696  0.4121
 1859SOL    MW4 7491   3.349   1.551   3.111 -0.3176  0.1824 -0.0186
 1860SOL     OW 7492   3.130   1.694   3.007 -0.0528  0.1643 -0.4144
 1860SOL    HW2 7493   3.205   1.644   3.040  0.1559  0.3502 -0.6065
 1860SOL    HW3 7494   3.139   1.690   2.912 -0.0406  0.5612 -0.4304
 1860SOL    MW4 7495   3.141   1.687   2.999 -0.0241  0.2410 -0.4416
 1861SOL     OW 7496   3.139   1.943   3.128 -0.3330  0.6378  0.1810
 1861SOL    HW2 7497   3.151   1.856   3.090  0.5995  0.4702  0.8394
 1861SOL    HW3 7498   3.053   1.971   3.097 -0.3308 -0.2201 -0.6158
 1861SOL    MW4 7499   3.129   1.935   3.119 -0.2098  0.5025  0.1631
 1862SOL     OW 7500   3.355   2.070   3.023 -0.2529 -0.0251 -0.3696
 1862SOL    HW2 7501   3.418   2.007   3.059  0.4968  0.2106 -1.2511
 1862SOL    HW3 7502   3.271   2.041   3.057  0.2659 -0.6484  0.4130
 1862SOL    MW4 7503   3.352   2.058   3.032 -0.0854 -0.0763 -0.3827
 1863SOL     OW 7504   3.358   2.336   3.147  0.2843  0.0583 -0.5010
 1863SOL    HW2 7505   3.359   2.322   3.242  1.1968 -0.2029 -0.5456
 1863SOL    HW3 7506   3.380   2.251   3.109  0.3323  0.2597 -0.9322
 1863SOL    MW4 7507   3.361   2.323   3.154  0.4110  0.0505 -0.5634
 1864SOL     OW 7508   3.129   2.441   3.039 -0.0838  0.4540 -0.5220
 1864SOL    HW2 7509   3.220   2.428   3.064 -0.4955 -1.7013  0.0143
 1864SOL    HW3 7510   3.131   2.447   2.943  0.6083  0.1899 -0.5289
 1864SOL    MW4 7511   3.141   2.440   3.030 -0.0470  0.1347 -0.4520
 1865SOL     OW 7512   3.124   2.705   3.141 -0.2758  0.0703  0.0225
 1865SOL    HW2 7513   3.105   2.702   3.235  0.3711 -1.4266  0.1147
 1865SOL    HW3 7514   3.125   2.613   3.114 -0.4548  0.4911 -1.4572
 1865SOL    MW4 7515   3.121   2.692   3.149 -0.2141 -0.0718 -0.1607
 1866SOL     OW 7516   3.333   2.828   3.016  0.3658  0.5579 -0.3883
 1866SOL    HW2 7517   3.339   2.912   3.061 -0.4897  1.1903 -1.4441
 1866SOL    HW3 7518   3.251   2.790   3.047  0.1307  0.6728 -0.8713
 1866SOL    MW4 7519   3.323   2.834   3.026  0.2220  0.6564 -0.5915
 1867SOL     OW 7520   3.354   3.103   3.092 -0.2275 -0.3150  0.3872
 1867SOL    HW2 7521   3.354   3.114   3.187  1.0250 -0.7159  0.4480
 1867SOL    HW3 7522   3.267   3.132   3.064  0.0784  1.6638  1.4346
 1867SOL    MW4 7523   3.343   3.108   3.101 -0.0219 -0.1070  0.5336
 1868SOL     OW 7524   3.107   3.214   2.978  0.2957 -0.1737 -0.1360
 1868SOL    HW2 7525   3.026   3.190   3.023  0.7641  0.3063  0.9790
 1868SOL    HW3 7526   3.089   3.197   2.886 -0.7080 -1.0798  0.2185
 1868SOL    MW4 7527   3.094   3.209   2.972  0.2251 -0.2301  0.0579
 1869SOL     OW 7528   3.165   3.478   3.129  0.6289  0.1021 -0.1650
 1869SOL    HW2 7529   3.236   3.529   3.089 -0.3901  0.5383 -1.4590
 1869SOL    HW3 7530   3.165   3.395   3.081  0.8008 -0.2343  0.4050
 1869SOL    MW4 7531   3.175   3.474   3.117  0.5174  0.1152 -0.2606
 1870SOL     OW 7532   3.380   3.634   2.990  1.1834 -0.5033  0.1014
 1870SOL    HW2 7533   3.450   3.592   3.040  0.4570 -0.4518  1.1934
 1870SOL    HW3 7534   3.364   3.716   3.038  0.1461 -0.6792  0.0632
 1870SOL    MW4 7535   3.387   3.640   3.003  0.9508 -0.5200  0.2406
 1871SOL     OW 7536   3.351   3.848   3.156 -0.3001  0.2590 -0.2132
 1871SOL    HW2 7537   3.362   3.862   3.250 -0.5669  0.0408 -0.1474
 1871SOL    HW3 7538   3.265   3.887   3.137  0.5706  1.9742 -0.7186
 1871SOL    MW4 7539   3.341   3.855   3.166 -0.2201  0.4566 -0.2713
 1872SOL     OW 7540   3.130   3.989   3.043 -0.1543 -0.1883  0.4272
 1872SOL    HW2 7541   3.048   3.943   3.061  0.7033 -1.5608  0.8573
 1872SOL    HW3 7542   3.135   3.992   2.948 -0.6678 -0.1609  0.3982
 1872SOL    MW4 7543   3.120   3.984   3.033 -0.1090 -0.3662  0.4802
 1873SOL     OW 7544   3.118   4.260   3.121  0.1345 -0.1009 -0.1856
 1873SOL    HW2 7545   3.133   4.259   3.216  1.5304 -0.7681 -0.3922
 1873SOL    HW3 7546   3.106   4.168   3.098 -0.9115  0.1256 -0.5581
 1873SOL    MW4 7547   3.118   4.248   3.130  0.1810 -0.1593 -0.2620
 1874SOL     OW 7548   3.354   4.348   3.014 -0.1844  0.2933 -0.3141
 1874SOL    HW2 7549   3.419   4.312   3.075 -0.0755 -0.3544 -0.8033
 1874SOL    HW3 7550   3.270   4.319   3.048 -0.1698  0.4671 -0.1243
 1874SOL    MW4 7551   3.352   4.340   3.026 -0.1678  0.2308 -0.3538
 1875SOL     OW 7552   3.812   4.648   3.108  0.4619  0.1416  0.0523
 1875SOL    HW2 7553   3.805   4.556   3.082  0.4416  0.1338  0.0857
 1875SOL    HW3 7554   3.727   4.686   3.084 -0.1020 -0.2028  1.4331
 1875SOL    MW4 7555   3.800   4.641   3.102  0.3848  0.0954  0.2391
 1876SOL     OW 7556   3.582   0.115   3.031 -0.2543 -0.0459 -0.2725
 1876SOL    HW2 7557   3.600   0.206   3.055  2.1352 -0.3205 -0.9124
 1876SOL    HW3 7558   3.573   0.117   2.935 -0.1765 -0.4945 -0.2913
 1876SOL    MW4 7559   3.583   0.127   3.021  0.0715 -0.1413 -0.3591
 1877SOL     OW 7560   3.631   0.363   3.110  0.1124  0.3108  0.4568
 1877SOL    HW2 7561   3.624   0.371   3.206 -1.3404  0.0507  0.3898
 1877SOL    HW3 7562   3.693   0.431   3.084  0.6708  0.2539  1.6091
 1877SOL    MW4 7563   3.638   0.373   3.120 -0.0057  0.2689  0.6001
 1878SOL     OW 7564   3.828   0.531   3.003 -0.3586  0.1991 -0.2091
 1878SOL    HW2 7565   3.903   0.482   3.036  0.2876  1.1729 -0.1974
 1878SOL    HW3 7566   3.839   0.619   3.039 -1.4103  0.4033 -0.3579
 1878SOL    MW4 7567   3.839   0.537   3.012 -0.4122  0.3545 -0.2275
 1879SOL     OW 7568   3.855   0.782   3.127 -0.2806  0.1819 -0.1540
 1879SOL    HW2 7569   3.863   0.772   3.222 -0.5862 -0.1630 -0.1603
 1879SOL    HW3 7570   3.927   0.839   3.102  0.4899 -0.6576  0.1306
 1879SOL    MW4 7571   3.865   0.788   3.136 -0.2193  0.0256 -0.1175
 1880SOL     OW 7572   3.609   0.879   3.027  0.6083  0.2570 -0.3905
 1880SOL    HW2 7573   3.686   0.838   3.067  1.2373 -0.2299 -2.0503
 1880SOL    HW3 7574   3.535   0.845   3.076  1.4321  0.5769  1.1033
 1880SOL    MW4 7575   3.609   0.869   3.039  0.8001  0.2350 -0.4125
 1881SOL     OW 7576   3.556   1.133   3.144  0.5898  0.0016 -0.2900
 1881SOL    HW2 7577   3.631   1.191   3.128  0.6617 -0.3663 -1.3559
 1881SOL    HW3 7578   3.585   1.047   3.112 -0.2758 -0.1430 -0.6911
 1881SOL    MW4 7579   3.570   1.129   3.138  0.4852 -0.0662 -0.4835
 1882SOL     OW 7580   3.799   1.257   3.044  0.0624 -0.0032 -0.0357
 1882SOL    HW2 7581   3.814   1.347   3.072  3.9869 -0.4920 -0.3646
 1882SOL    HW3 7582   3.792   1.262   2.949 -1.2407  0.1090  0.0526
 1882SOL    MW4 7583   3.800   1.269   3.035  0.4084 -0.0528 -0.0675
 1883SOL     OW 7584   3.835   1.516   3.143 -0.2465 -0.5129 -0.0159
 1883SOL    HW2 7585   3.807   1.506   3.234 -1.1053  0.5484 -0.1600
 1883SOL    HW3 7586   3.769   1.573   3.103 -0.4751 -1.8243 -1.5825
 1883SOL    MW4 7587   3.822   1.522   3.149 -0.3898 -0.5460 -0.2415
 1884SOL     OW 7588   3.602   1.666   3.031  0.3780 -0.1315  0.4781
 1884SOL    HW2 7589   3.587   1.755   3.064  1.4025  0.4126 -0.4752
 1884SOL    HW3 7590   3.588   1.673   2.937  0.3210 -1.0091  0.4231
 1884SOL    MW4 7591   3.598   1.679   3.023  0.5059 -0.1754  0.3450
 1885SOL     OW 7592   3.591   1.926   3.102  0.1095  0.3665  0.4497
 1885SOL    HW2 7593   3.589   1.924   3.198  0.5630 -2.3377  0.4424
 1885SOL    HW3 7594   3.680   1.954   3.080  0.0606  0.8136  0.8073
 1885SOL    MW4 7595   3.602   1.930   3.112  0.1626  0.0687  0.4957
 1886SOL     OW 7596   3.837   2.000   3.019  0.1671  0.1610 -0.5403
 1886SOL    HW2 7597   3.820   2.092   3.043  0.7084  0.6152 -1.8567
 1886SOL    HW3 7598   3.814   1.996   2.926 -1.6634 -1.5036 -0.0537
 1886SOL    MW4 7599   3.832   2.012   3.010 -0.0026  0.0012 -0.6497
 1887SOL     OW 7600   3.808   2.268   3.110  0.1260  0.1286 -0.0070
 1887SOL    HW2 7601   3.801   2.273   3.206 -1.1244 -1.2329 -0.0138
 1887SOL    HW3 7602   3.742   2.330   3.079 -0.3752 -0.3859  0.0176
 1887SOL    MW4 7603   3.798   2.277   3.119 -0.1051 -0.1192 -0.0043
 1888SOL     OW 7604   3.594   2.438   3.043  0.0409 -0.3923 -0.0895
 1888SOL    HW2 7605   3.584   2.533   3.053 -0.7062 -0.6601  2.1092
 1888SOL    HW3 7606   3.514   2.402   3.082 -0.4662 -1.8879 -2.4177
 1888SOL    MW4 7607   3.582   2.446   3.049 -0.1245 -0.6249 -0.1068
 1889SOL     OW 7608   3.577   2.712   3.112 -0.3671  0.1789 -0.2397
 1889SOL    HW2 7609   3.649   2.760   3.070 -0.0766  0.1556  0.2188
 1889SOL    HW3 7610   3.498   2.744   3.070 -0.0498 -0.1818 -1.1235
 1889SOL    MW4 7611   3.576   2.722   3.101 -0.2868  0.1280 -0.2959
 1890SOL     OW 7612   3.809   2.832   3.025 -0.1969 -0.0669  0.2016
 1890SOL    HW2 7613   3.797   2.920   3.062  4.8223  1.1030 -0.6331
 1890SOL    HW3 7614   3.807   2.847   2.930 -2.0372 -1.3664  0.0034
 1890SOL    MW4 7615   3.807   2.846   3.017  0.2227 -0.0842  0.0653
 1891SOL     OW 7616   3.806   3.108   3.127  0.0561 -0.1733  0.3904
 1891SOL    HW2 7617   3.879   3.154   3.085 -0.8320  0.6541 -0.2727
 1891SOL    HW3 7618   3.728   3.157   3.100 -0.8679 -1.7681  0.0923
 1891SOL    MW4 7619   3.805   3.121   3.118 -0.1831 -0.2744  0.2637
 1892SOL     OW 7620   3.589   3.262   3.025 -0.1991 -0.1101  0.0444
 1892SOL    HW2 7621   3.501   3.226   3.039 -0.6572  1.2253  0.6200
 1892SOL    HW3 7622   3.599   3.263   2.929 -1.0103  0.2047 -0.0401
 1892SOL    MW4 7623   3.579   3.257   3.014 -0.3664  0.1075  0.1092
 1893SOL     OW 7624   3.588   3.520   3.134  0.0041  0.0077 -0.2255
 1893SOL    HW2 7625   3.672   3.560   3.111 -0.5843  1.6775  0.4865
 1893SOL    HW3 7626   3.598   3.428   3.108  1.2753  0.6613 -2.1513
 1893SOL    MW4 7627   3.600   3.513   3.127  0.0939  0.3145 -0.3855
 1894SOL     OW 7628   3.848   3.606   3.027  0.0749  0.1095  0.7892
 1894SOL    HW2 7629   3.851   3.695   3.063 -0.4528  0.5123 -0.1406
 1894SOL    HW3 7630   3.842   3.620   2.932  0.7939 -0.9260  0.5870
 1894SOL    MW4 7631   3.848   3.620   3.019  0.1001  0.0262  0.6399
 1895SOL     OW 7632   3.832   3.880   3.116 -0.3419  0.2665  0.2905
 1895SOL    HW2 7633   3.825   3.889   3.211 -2.5973  0.4286  0.1327
 1895SOL    HW3 7634   3.747   3.907   3.083  0.5019  0.4726 -1.8162
 1895SOL    MW4 7635   3.820   3.885   3.125 -0.5283  0.3152 -0.0079
 1896SOL     OW 7636   3.583   3.976   3.018 -0.0525  0.1871 -0.3310
 1896SOL    HW2 7637   3.517   3.923   3.064 -0.1896 -0.2379 -1.0139
 1896SOL    HW3 7638   3.561   3.967   2.925  0.4601  0.7288 -0.5084
 1896SOL    MW4 7639   3.571   3.968   3.012 -0.0031  0.2027 -0.4444
 1897SOL     OW 7640   3.577   4.226   3.141  0.3147 -0.2727  0.5850
 1897SOL    HW2 7641   3.651   4.272   3.102 -0.3118 -0.1627 -0.5061
 1897SOL    HW3 7642   3.585   4.136   3.110  0.8426 -0.6148  1.7071
 1897SOL    MW4 7643   3.588   4.221   3.132  0.3016 -0.3033  0.5891
 1898SOL     OW 7644   3.804   4.374   3.054 -0.1648 -0.3297 -0.0507
 1898SOL    HW2 7645   3.892   4.344   3.076 -0.5927 -0.5492  1.4288
 1898SOL    HW3 7646   3.805   4.385   2.959  1.6162  0.2055  0.0275
 1898SOL    MW4 7647   3.815   4.371   3.044  0.0138 -0.2875  0.1547
 1899SOL     OW 7648   4.299   0.025   3.096 -0.7551  0.1632 -0.5487
 1899SOL    HW2 7649   4.301   0.025   3.191  1.7307  1.0049 -0.5841
 1899SOL    HW3 7650   4.294  -0.068   3.072  1.7486 -0.2304  0.3588
 1899SOL    MW4 7651   4.298   0.012   3.105 -0.0968  0.2227 -0.4337
 1900SOL     OW 7652   4.031   0.123   3.000  0.4271 -0.0870 -0.1240
 1900SOL    HW2 7653   4.110   0.086   3.040  0.5769 -1.7785 -1.9333
 1900SOL    HW3 7654   3.961   0.067   3.031 -0.0505  1.1509  1.1220
 1900SOL    MW4 7655   4.032   0.111   3.009  0.3834 -0.1468 -0.1981
 1901SOL     OW 7656   4.016   0.386   3.125 -0.0373 -0.3831 -0.3914
 1901SOL    HW2 7657   4.099   0.428   3.103  0.0116 -0.9106 -1.2263
 1901SOL    HW3 7658   4.020   0.300   3.083 -0.6306 -0.7671  0.3204
 1901SOL    MW4 7659   4.027   0.380   3.116 -0.1097 -0.5033 -0.4077
 1902SOL     OW 7660   4.259   0.500   3.021 -0.2631 -0.3641 -0.0777
 1902SOL    HW2 7661   4.266   0.591   3.052  1.0040 -0.1088 -1.0587
 1902SOL    HW3 7662   4.252   0.509   2.926  1.4640 -1.3773 -0.3011
 1902SOL    MW4 7663   4.259   0.513   3.012  0.1316 -0.4641 -0.2367
 1903SOL     OW 7664   4.283   0.762   3.119 -0.0827 -0.0661 -0.3499
 1903SOL    HW2 7665   4.214   0.806   3.069  1.1780  0.8960 -1.2923
 1903SOL    HW3 7666   4.358   0.823   3.115  1.4793 -1.9854 -1.0664
 1903SOL    MW4 7667   4.284   0.776   3.112  0.2899 -0.1925 -0.5686
 1904SOL     OW 7668   4.073   0.922   3.034 -0.0945  0.1236 -0.1925
 1904SOL    HW2 7669   4.071   1.015   3.055 -1.9066  0.2877 -1.0349
 1904SOL    HW3 7670   4.068   0.918   2.939  0.8188 -0.8274 -0.2165
 1904SOL    MW4 7671   4.072   0.933   3.024 -0.2131  0.0197 -0.3068
 1905SOL     OW 7672   4.058   1.185   3.116  0.4741 -0.1986 -0.3098
 1905SOL    HW2 7673   4.055   1.169   3.210  1.7325 -1.0949 -0.3947
 1905SOL    HW3 7674   3.967   1.196   3.090  0.1620  0.5664  1.0968
 1905SOL    MW4 7675   4.046   1.184   3.125  0.5989 -0.2159 -0.1354
 1906SOL     OW 7676   4.325   1.269   3.064 -0.3928 -0.2209  0.0230
 1906SOL    HW2 7677   4.235   1.242   3.079 -0.1083 -1.4007 -0.2935
 1906SOL    HW3 7678   4.333   1.279   2.969  0.0125 -0.9076 -0.0222
 1906SOL    MW4 7679   4.314   1.267   3.054 -0.3018 -0.4672 -0.0248
 1907SOL     OW 7680   4.315   1.545   3.145  0.3598  0.3515 -0.6245
 1907SOL    HW2 7681   4.231   1.582   3.120 -0.5899  0.1458  2.1060
 1907SOL    HW3 7682   4.309   1.452   3.121 -0.0552  0.4137 -0.7515
 1907SOL    MW4 7683   4.303   1.537   3.138  0.1798  0.3327 -0.2813
 1908SOL     OW 7684   4.058   1.652   3.053 -0.0306  0.2225 -0.1061
 1908SOL    HW2 7685   4.065   1.740   3.090  1.7096 -0.3438  0.9460
 1908SOL    HW3 7686   3.976   1.617   3.088 -0.5736  1.2942 -0.2814
 1908SOL    MW4 7687   4.048   1.659   3.062  0.1273  0.2893  0.0095
 1909SOL     OW 7688   4.068   1.893   3.160 -0.1777 -0.2894  0.0258
 1909SOL    HW2 7689   4.155   1.906   3.124 -0.1931 -1.2793 -0.3920
 1909SOL    HW3 7690   4.015   1.962   3.122  0.2979 -0.0297 -0.1616
 1909SOL    MW4 7691   4.072   1.904   3.150 -0.1178 -0.3859 -0.0541
 1910SOL     OW 7692   4.277   2.003   2.983 -0.0472 -0.0150 -0.1949
 1910SOL    HW2 7693   4.278   2.091   3.021  0.5818  0.4255 -1.2152
 1910SOL    HW3 7694   4.260   2.016   2.890  0.7062 -0.9246 -0.4762
 1910SOL    MW4 7695   4.275   2.016   2.976  0.1349 -0.0772 -0.3667
 1911SOL     OW 7696   4.263   2.262   3.077  0.2515  0.0660  0.1063
 1911SOL    HW2 7697   4.186   2.316   3.059 -0.1515 -0.7594 -0.7201
 1911SOL    HW3 7698   4.337   2.320   3.060 -0.1800  0.5610 -0.1186
 1911SOL    MW4 7699   4.263   2.277   3.073  0.1407  0.0224 -0.0324
 1912SOL     OW 7700   4.025   2.411   3.011  0.3988 -0.1458 -0.4932
 1912SOL    HW2 7701   4.013   2.503   3.038  0.9921 -0.1232 -0.2988
 1912SOL    HW3 7702   3.941   2.370   3.031  0.5274  0.0813  0.5627
 1912SOL    MW4 7703   4.012   2.418   3.017  0.4950 -0.1130 -0.3283
 1913SOL     OW 7704   4.027   2.681   3.094 -0.3826 -0.0840  0.2051
 1913SOL    HW2 7705   4.035   2.680   3.190 -0.1423 -0.3217  0.1848
 1913SOL    HW3 7706   3.949   2.733   3.077 -0.7935 -0.5697  0.5605
 1913SOL    MW4 7707   4.018   2.688   3.105 -0.4053 -0.1793  0.2491
 1914SOL     OW 7708   4.247   2.831   3.018 -0.0189  0.4066 -0.1539
 1914SOL    HW2 7709   4.164   2.785   3.031  0.4525 -0.6881 -0.9409
 1914SOL    HW3 7710   4.314   2.773   3.054  0.4701  0.9966 -0.0889
 1914SOL    MW4 7711   4.245   2.817   3.024  0.1082  0.3402 -0.2491
 1915SOL     OW 7712   4.265   3.068   3.154  0.1759  0.6866 -0.0850
 1915SOL    HW2 7713   4.191   3.118   3.118 -1.2359 -0.7062  0.7920
 1915SOL    HW3 7714   4.254   2.980   3.117  0.5594  0.0868  1.2092
 1915SOL    MW4 7715   4.254   3.063   3.145  0.0396  0.4234  0.2017
 1916SOL     OW 7716   4.040   3.187   3.015  0.4217  0.2993 -0.1648
 1916SOL    HW2 7717   4.056   3.281   3.027  1.4739  0.0815  0.1159
 1916SOL    HW3 7718   4.047   3.173   2.921 -0.5136  0.6393 -0.2940
 1916SOL    MW4 7719   4.043   3.198   3.004  0.4368  0.3154 -0.1452
 1917SOL     OW 7720   4.060   3.448   3.102 -0.2732  0.1278  0.0859
 1917SOL    HW2 7721   4.060   3.462   3.197  0.4109  0.3005  0.0623
 1917SOL    HW3 7722   4.001   3.516   3.068 -0.3983  0.1631  0.3700
 1917SOL    MW4 7723   4.052   3.459   3.110 -0.1993  0.1554  0.1202
 1918SOL     OW 7724   4.284   3.597   3.029 -0.5486 -0.0432  0.0657
 1918SOL    HW2 7725   4.285   3.681   3.074 -1.2368 -0.5704  1.0793
 1918SOL    HW3 7726   4.213   3.548   3.070 -1.4702 -0.3934 -1.8789
 1918SOL    MW4 7727   4.275   3.601   3.040 -0.7610 -0.1590 -0.0572
 1919SOL     OW 7728   4.278   3.844   3.151  0.2152 -0.0368  0.0446
 1919SOL    HW2 7729   4.199   3.892   3.126  0.1094 -0.6306 -0.7874
 1919SOL    HW3 7730   4.348   3.885   3.100  0.2667 -0.1998 -0.0172
 1919SOL    MW4 7731   4.277   3.855   3.141  0.2079 -0.1371 -0.0732
 1920SOL     OW 7732   4.073   4.000   3.026 -0.6573 -0.6031 -0.2005
 1920SOL    HW2 7733   4.061   4.092   3.045  0.4987 -0.2116 -1.2790
 1920SOL    HW3 7734   3.988   3.960   3.043 -1.3006  0.7508 -0.2165
 1920SOL    MW4 7735   4.060   4.007   3.030 -0.5898 -0.3729 -0.3450
 1921SOL     OW 7736   4.056   4.265   3.109  0.0367  0.3627  0.4279
 1921SOL    HW2 7737   4.057   4.242   3.202  0.2526 -2.9386 -0.3352
 1921SOL    HW3 7738   4.140   4.308   3.094  0.0754  0.7529  1.7115
 1921SOL    MW4 7739   4.067   4.268   3.119  0.0696 -0.0219  0.4964
 1922SOL     OW 7740   4.302   4.396   3.044 -0.0202  0.5608 -0.0823
 1922SOL    HW2 7741   4.378   4.347   3.077  0.0062 -0.2021 -1.2459
 1922SOL    HW3 7742   4.308   4.387   2.949 -1.3324  0.8685 -0.1952
 1922SOL    MW4 7743   4.313   4.388   3.036 -0.1903  0.5007 -0.2506
 1923SOL     OW 7744   0.202   4.648   3.470 -0.1506 -0.3678  0.2753
 1923SOL    HW2 7745   0.287   4.687   3.488 -0.1854  0.5126 -1.3142
 1923SOL    HW3 7746   0.216   4.554   3.479  1.0105 -0.2333 -0.0249
 1923SOL    MW4 7747   0.215   4.641   3.473 -0.0020 -0.2341  0.0260
 1924SOL     OW 7748   4.473   0.125   3.581  0.1659 -0.3205 -0.0238
 1924SOL    HW2 7749   4.464   0.216   3.551 -0.6081 -0.1567  0.6870
 1924SOL    HW3 7750   4.542   0.089   3.526 -0.3823  0.3340 -1.1714
 1924SOL    MW4 7751   4.481   0.132   3.570 -0.0085 -0.2125 -0.0813
 1925SOL     OW 7752   4.470   0.378   3.430  0.4285  0.0295 -0.1649
 1925SOL    HW2 7753   4.400   0.425   3.474 -0.7052  0.3008 -2.2093
 1925SOL    HW3 7754   4.550   0.404   3.477 -0.6460  0.7971  1.2780
 1925SOL    MW4 7755   4.472   0.387   3.442  0.1373  0.1666 -0.2439
 1926SOL     OW 7756   0.213   0.462   3.572  0.0548 -0.3684  0.2353
 1926SOL    HW2 7757   0.286   0.409   3.539  0.4241  0.0014  0.4577
 1926SOL    HW3 7758   0.221   0.545   3.525 -0.4207 -0.4470  0.0168
 1926SOL    MW4 7759   0.224   0.466   3.561  0.0408 -0.3300  0.2356
 1927SOL     OW 7760   0.204   0.706   3.439 -0.4368  0.0175 -0.1743
 1927SOL    HW2 7761   0.281   0.757   3.466 -0.5462  0.6442 -1.0412
 1927SOL    HW3 7762   0.130   0.763   3.459 -0.6540 -0.4230  0.2799
 1927SOL    MW4 7763   0.204   0.720   3.445 -0.4799  0.0421 -0.2289
 1928SOL     OW 7764   0.027   0.908   3.527  0.3343 -0.2133 -0.5870
 1928SOL    HW2 7765   0.034   0.928   3.621  0.4096 -0.3856 -0.5546
 1928SOL    HW3 7766   0.024   0.993   3.484  1.0840 -0.1302 -0.4817
 1928SOL    MW4 7767   0.028   0.921   3.534  0.4431 -0.2250 -0.5689
 1929SOL     OW 7768   0.040   1.166   3.440  0.0303  0.1602 -0.1063
 1929SOL    HW2 7769   0.107   1.214   3.489  0.0428  0.2149 -0.1778
 1929SOL    HW3 7770   0.075   1.159   3.352 -0.9025  1.8826 -0.6461
 1929SOL    MW4 7771   0.053   1.171   3.435 -0.0911  0.3947 -0.1869
 1930SOL     OW 7772   0.242   1.331   3.529  0.6963  0.3600 -0.2005
 1930SOL    HW2 7773   0.294   1.277   3.469  1.2216  1.8450 -1.0923
 1930SOL    HW3 7774   0.256   1.421   3.500 -0.7767  0.9411  0.8111
 1930SOL    MW4 7775   0.251   1.335   3.517  0.5713  0.6326 -0.1850
 1931SOL     OW 7776   0.227   1.584   3.398 -0.1786 -0.3571  0.0896
 1931SOL    HW2 7777   0.313   1.618   3.422  0.0197 -0.9519  0.2402
 1931SOL    HW3 7778   0.232   1.568   3.304  0.2267 -1.3723  0.2766
 1931SOL    MW4 7779   0.239   1.586   3.389 -0.0990 -0.5695  0.1342
 1932SOL     OW 7780   0.007   1.703   3.507  0.3461 -0.2339  0.1838
 1932SOL    HW2 7781  -0.065   1.641   3.500 -0.0083  0.0659  1.1720
 1932SOL    HW3 7782   0.080   1.661   3.462 -0.3699 -0.6442 -0.6056
 1932SOL    MW4 7783   0.007   1.689   3.500  0.2049 -0.2484  0.2100
 1933SOL     OW 7784   0.063   1.969   3.429  0.2850 -0.4217  0.5675
 1933SOL    HW2 7785   0.045   1.883   3.467 -2.5248 -0.0128  0.2615
 1933SOL    HW3 7786   0.052   1.957   3.335 -1.2261  0.5111  0.6153
 1933SOL    MW4 7787   0.060   1.956   3.422 -0.2851 -0.2447  0.5333
 1934SOL     OW 7788   0.303   2.088   3.507  0.0388  0.0270  0.3333
 1934SOL    HW2 7789   0.284   2.080   3.600  0.0734 -0.2162  0.3204
 1934SOL    HW3 7790   0.230   2.044   3.464  0.1282 -0.0456  0.2536
 1934SOL    MW4 7791   0.291   2.081   3.513  0.0552 -0.0148  0.3211
 1935SOL     OW 7792   0.269   2.341   3.417 -0.3263  0.0399 -0.0512
 1935SOL    HW2 7793   0.188   2.358   3.464 -0.9234 -1.2038 -0.6189
 1935SOL    HW3 7794   0.288   2.249   3.434 -0.2440 -0.2673 -1.7911
 1935SOL    MW4 7795   0.261   2.331   3.426 -0.3943 -0.1647 -0.3557
 1936SOL     OW 7796   0.013   2.431   3.501 -0.2624 -0.3738 -0.0629
 1936SOL    HW2 7797   0.009   2.441   3.597 -0.8645  0.0936 -0.1314
 1936SOL    HW3 7798  -0.065   2.380   3.480 -0.4620  0.0596 -0.3719
 1936SOL    MW4 7799   0.002   2.426   3.511 -0.3681 -0.2549 -0.1128
 1937SOL     OW 7800   4.466   2.686   3.395 -0.1565 -0.0553  0.0513
 1937SOL    HW2 7801   4.549   2.728   3.415 -1.1714  1.7860  0.4739
 1937SOL    HW3 7802   4.478   2.594   3.421  0.9821  0.6792  2.2154
 1937SOL    MW4 7803   4.478   2.679   3.401 -0.1402  0.2844  0.3927
 1938SOL     OW 7804   0.203   2.813   3.499 -0.1320  0.2718 -0.6104
 1938SOL    HW2 7805   0.289   2.788   3.464 -0.4023 -2.1336  0.3350
 1938SOL    HW3 7806   0.193   2.905   3.474  2.2143  0.2719 -1.7283
 1938SOL    MW4 7807   0.213   2.822   3.491  0.1419 -0.0455 -0.6332
 1939SOL     OW 7808   0.242   3.087   3.431  0.0988 -0.4069 -0.0411
 1939SOL    HW2 7809   0.183   3.150   3.473  1.5482  1.1843 -0.3743
 1939SOL    HW3 7810   0.246   3.116   3.340  2.3687  0.2472  0.2471
 1939SOL    MW4 7811   0.234   3.099   3.425  0.5895 -0.1109 -0.0472
 1940SOL     OW 7812   0.017   3.250   3.524  0.7922 -0.5718 -0.2156
 1940SOL    HW2 7813  -0.058   3.217   3.474 -0.1363  0.7574  0.2664
 1940SOL    HW3 7814   0.030   3.339   3.491  0.4426  0.1698  1.5957
 1940SOL    MW4 7815   0.009   3.258   3.513  0.6237 -0.2985  0.0870
 1941SOL     OW 7816   0.028   3.509   3.402  0.7294  0.4764 -0.1563
 1941SOL    HW2 7817  -0.051   3.556   3.428  0.1715 -0.3585 -0.3443
 1941SOL    HW3 7818   0.023   3.505   3.307  0.9488  0.3392 -0.1629
 1941SOL    MW4 7819   0.017   3.515   3.393  0.6847  0.3481 -0.1822
 1942SOL     OW 7820   0.260   3.596   3.544 -0.0141  0.2793  0.1498
 1942SOL    HW2 7821   0.247   3.583   3.638  1.5301 -0.7336  0.2352
 1942SOL    HW3 7822   0.173   3.581   3.506 -0.4828 -0.0821  1.3297
 1942SOL    MW4 7823   0.247   3.592   3.552  0.1278  0.0980  0.3166
 1943SOL     OW 7824   0.268   3.847   3.431 -0.3876 -0.4404 -0.3780
 1943SOL    HW2 7825   0.190   3.879   3.476 -0.8877 -0.2887 -1.3185
 1943SOL    HW3 7826   0.283   3.760   3.468  0.2315  0.3489  1.2826
 1943SOL    MW4 7827   0.260   3.839   3.442 -0.3719 -0.3164 -0.2830
 1944SOL     OW 7828   0.022   3.952   3.531 -0.2119  0.0919  0.1865
 1944SOL    HW2 7829   0.016   3.980   3.622 -0.7307  0.2273  0.1097
 1944SOL    HW3 7830   0.035   4.033   3.481  3.1733 -0.2550  0.4275
 1944SOL    MW4 7831   0.023   3.967   3.536  0.1663  0.0641  0.2081
 1945SOL     OW 7832   0.019   4.197   3.400 -0.1127  0.2036 -0.3927
 1945SOL    HW2 7833  -0.046   4.263   3.425  0.5910  0.1195  1.8256
 1945SOL    HW3 7834   0.103   4.241   3.409  0.2333 -0.1813 -1.6279
 1945SOL    MW4 7835   0.021   4.211   3.405  0.0259  0.1421 -0.2627
 1946SOL     OW 7836   0.235   4.375   3.485  0.0711  0.1946  0.3778
 1946SOL    HW2 7837   0.232   4.371   3.580 -0.1044 -0.7742  0.3403
 1946SOL    HW3 7838   0.317   4.331   3.462 -0.0689  0.0986  0.0615
 1946SOL    MW4 7839   0.246   4.369   3.494  0.0295  0.0544  0.3309
 1947SOL     OW 7840   0.710   4.627   3.448 -0.0458 -0.5737  0.4270
 1947SOL    HW2 7841   0.782   4.691   3.451 -1.5111  1.2139 -1.0547
 1947SOL    HW3 7842   0.699   4.608   3.355 -1.3468 -0.9819  0.6583
 1947SOL    MW4 7843   0.718   4.633   3.437 -0.4107 -0.3915  0.2620
 1948SOL     OW 7844   0.448   0.086   3.527  0.0920  0.4856 -0.3126
 1948SOL    HW2 7845   0.458   0.100   3.621  0.7144 -0.0022 -0.3054
 1948SOL    HW3 7846   0.528   0.041   3.500 -1.3852 -2.1194 -0.5077
 1948SOL    MW4 7847   0.460   0.082   3.536 -0.0208  0.0775 -0.3371
 1949SOL     OW 7848   0.421   0.355   3.415  0.2286 -0.0436 -0.0800
 1949SOL    HW2 7849   0.491   0.395   3.466 -0.3363 -0.7889  1.3252
 1949SOL    HW3 7850   0.431   0.261   3.431 -0.9218 -0.1723 -0.0837
 1949SOL    MW4 7851   0.431   0.348   3.424  0.0023 -0.1589  0.1049
 1950SOL     OW 7852   0.663   0.488   3.514  0.5748 -0.0274 -0.2309
 1950SOL    HW2 7853   0.664   0.502   3.609  0.8991 -0.1713 -0.2145
 1950SOL    HW3 7854   0.746   0.446   3.495  0.7767  0.5633 -0.6692
 1950SOL    MW4 7855   0.674   0.485   3.524  0.6442  0.0316 -0.2866
 1951SOL     OW 7856   0.662   0.746   3.402 -0.2497 -0.0453 -0.4437
 1951SOL    HW2 7857   0.574   0.776   3.424 -0.6117 -0.7621 -0.8981
 1951SOL    HW3 7858   0.665   0.656   3.435 -0.1260 -0.4582 -1.5506
 1951SOL    MW4 7859   0.651   0.738   3.410 -0.2812 -0.1943 -0.6499
 1952SOL     OW 7860   0.427   0.863   3.492 -0.1041 -0.4212  0.1735
 1952SOL    HW2 7861   0.452   0.861   3.585  1.8237 -0.3701 -0.3292
 1952SOL    HW3 7862   0.423   0.956   3.470  0.4714 -0.4533 -0.0657
 1952SOL    MW4 7863   0.430   0.875   3.502  0.2262 -0.4187  0.0758
 1953SOL     OW 7864   0.419   1.145   3.410  0.1813  0.2106 -0.1975
 1953SOL    HW2 7865   0.491   1.185   3.458  0.4033  0.0341 -0.3816
 1953SOL    HW3 7866   0.434   1.170   3.319 -0.0663  0.2875 -0.2164
 1953SOL    MW4 7867   0.431   1.154   3.404  0.1779  0.1974 -0.2244
 1954SOL     OW 7868   0.658   1.279   3.485 -0.5198  0.1577 -0.1185
 1954SOL    HW2 7869   0.736   1.237   3.449 -0.5833  0.1453 -0.2426
 1954SOL    HW3 7870   0.657   1.366   3.443 -0.1433  0.4504  0.4736
 1954SOL    MW4 7871   0.668   1.285   3.474 -0.4785  0.1947 -0.0567
 1955SOL     OW 7872   0.650   1.520   3.351  0.2848 -0.0806 -0.5804
 1955SOL    HW2 7873   0.736   1.542   3.386  1.0071  1.0861 -2.9860
 1955SOL    HW3 7874   0.588   1.559   3.413  1.4919  0.2219  0.4502
 1955SOL    MW4 7875   0.653   1.528   3.364  0.5394  0.1131 -0.7617
 1956SOL     OW 7876   0.472   1.643   3.512 -0.9171  0.4686  0.3575
 1956SOL    HW2 7877   0.463   1.650   3.607 -1.9025  0.7477  0.2494
 1956SOL    HW3 7878   0.469   1.733   3.480  0.6599  0.4588  0.1616
 1956SOL    MW4 7879   0.470   1.656   3.520 -0.8390  0.5040  0.3173
 1957SOL     OW 7880   0.463   1.893   3.413 -0.2046  0.1447 -0.1560
 1957SOL    HW2 7881   0.411   1.961   3.455  1.1456  0.3916  1.1584
 1957SOL    HW3 7882   0.464   1.917   3.320 -1.1463  0.9688  0.0481
 1957SOL    MW4 7883   0.456   1.905   3.406 -0.1507  0.2861  0.0441
 1958SOL     OW 7884   0.688   2.061   3.492 -0.2991  0.4011 -0.1123
 1958SOL    HW2 7885   0.677   2.041   3.585 -0.3882  1.7804  0.1713
 1958SOL    HW3 7886   0.625   2.003   3.448  0.7994 -1.3589  0.5562
 1958SOL    MW4 7887   0.678   2.050   3.499 -0.1659  0.3510  0.0134
 1959SOL     OW 7888   0.669   2.334   3.435 -0.0365  0.2927  0.2817
 1959SOL    HW2 7889   0.750   2.384   3.441  0.2360 -0.2852  1.5658
 1959SOL    HW3 7890   0.694   2.244   3.458 -0.9587  0.0391  0.3261
 1959SOL    MW4 7891   0.683   2.328   3.439 -0.1222  0.1831  0.4573
 1960SOL     OW 7892   0.469   2.475   3.564  0.0005  0.8335 -0.3155
 1960SOL    HW2 7893   0.544   2.429   3.527  0.1654  2.1491 -1.6919
 1960SOL    HW3 7894   0.392   2.437   3.521 -0.0264  0.3505  0.1609
 1960SOL    MW4 7895   0.469   2.464   3.554  0.0187  0.9432 -0.4342
 1961SOL     OW 7896   0.454   2.731   3.417 -0.1252  0.0209  0.0267
 1961SOL    HW2 7897   0.468   2.652   3.469  0.1192 -1.2545 -1.9361
 1961SOL    HW3 7898   0.457   2.701   3.326 -1.1690  2.1025 -0.7292
 1961SOL    MW4 7899   0.456   2.717   3.412 -0.2306  0.1273 -0.3319
 1962SOL     OW 7900   0.682   2.852   3.512  0.1637  0.1845  0.5834
 1962SOL    HW2 7901   0.750   2.800   3.471 -0.0576 -1.2526  1.9979
 1962SOL    HW3 7902   0.600   2.819   3.474  0.1479  0.8561  0.0246
 1962SOL    MW4 7903   0.680   2.841   3.501  0.1324  0.0834  0.6962
 1963SOL     OW 7904   0.691   3.104   3.374  0.2927  0.5822  0.3619
 1963SOL    HW2 7905   0.618   3.154   3.411  1.6473  1.9317  1.2651
 1963SOL    HW3 7906   0.690   3.021   3.422 -1.2995  0.1423 -0.3846
 1963SOL    MW4 7907   0.681   3.100   3.385  0.2612  0.7024  0.3824
 1964SOL     OW 7908   0.475   3.223   3.500 -0.3675 -0.3634 -0.1555
 1964SOL    HW2 7909   0.476   3.225   3.596  0.3565  1.9714 -0.1902
 1964SOL    HW3 7910   0.405   3.161   3.478 -0.4790 -0.9851  1.8737
 1964SOL    MW4 7911   0.466   3.215   3.510 -0.2868 -0.1376  0.1078
 1965SOL     OW 7912   0.464   3.483   3.426 -0.1551  0.0848 -0.5293
 1965SOL    HW2 7913   0.454   3.393   3.458  2.9542  0.2758  1.1629
 1965SOL    HW3 7914   0.396   3.532   3.472 -0.0136 -0.8758  0.7298
 1965SOL    MW4 7915   0.454   3.477   3.436  0.2738 -0.0169 -0.1400
 1966SOL     OW 7916   0.692   3.614   3.512 -0.3806  0.1932 -0.0473
 1966SOL    HW2 7917   0.766   3.559   3.487 -0.4903 -1.2015  2.5020
 1966SOL    HW3 7918   0.615   3.567   3.479 -0.3225  0.1033 -0.0528
 1966SOL    MW4 7919   0.691   3.600   3.504 -0.3874 -0.0024  0.2885
 1967SOL     OW 7920   0.689   3.847   3.376  0.1537  0.2851  0.2013
 1967SOL    HW2 7921   0.627   3.900   3.426 -0.5547 -0.2373 -0.1291
 1967SOL    HW3 7922   0.701   3.767   3.428  0.4227  0.3056  0.1753
 1967SOL    MW4 7923   0.683   3.844   3.389  0.0958  0.2191  0.1543
 1968SOL     OW 7924   0.498   3.989   3.509  0.0299  0.2377 -0.2907
 1968SOL    HW2 7925   0.503   4.072   3.461 -0.3859 -0.1131 -0.9455
 1968SOL    HW3 7926   0.415   3.951   3.483  0.2920 -0.4612 -0.1083
 1968SOL    MW4 7927   0.488   3.995   3.499  0.0095  0.0997 -0.3533
 1969SOL     OW 7928   0.465   4.243   3.390  0.2869 -0.3462  0.2155
 1969SOL    HW2 7929   0.531   4.300   3.428 -0.3027  0.6028 -0.1460
 1969SOL    HW3 7930   0.451   4.278   3.302 -0.3062 -0.8611  0.0995
 1969SOL    MW4 7931   0.472   4.255   3.383  0.1308 -0.2890  0.1526
 1970SOL     OW 7932   0.706   4.351   3.498  0.4442  0.0584 -0.1109
 1970SOL    HW2 7933   0.789   4.307   3.479  1.2194  1.0202  0.9555
 1970SOL    HW3 7934   0.724   4.444   3.482 -0.7042  0.1814 -0.7680
 1970SOL    MW4 7935   0.720   4.358   3.493  0.3949  0.2012 -0.0570
 1971SOL     OW 7936   1.103   4.619   3.417  0.1352  0.3905  0.1850
 1971SOL    HW2 7937   1.181   4.668   3.444  0.7135 -0.3183 -0.1967
 1971SOL    HW3 7938   1.116   4.602   3.324 -0.5271  0.3572  0.0940
 1971SOL    MW4 7939   1.115   4.623   3.408  0.1241  0.2928  0.1228
 1972SOL     OW 7940   0.913   0.136   3.503  0.4348  0.2335 -0.4855
 1972SOL    HW2 7941   0.920   0.125   3.598 -2.2718 -1.5868 -0.4468
 1972SOL    HW3 7942   0.975   0.073   3.466 -0.2714 -0.7680  0.0380
 1972SOL    MW4 7943   0.922   0.126   3.511 -0.0156 -0.1388 -0.4113
 1973SOL     OW 7944   0.900   0.399   3.408 -0.0282 -0.4780  0.2217
 1973SOL    HW2 7945   0.983   0.421   3.449 -0.1156 -0.2297  0.2694
 1973SOL    HW3 7946   0.888   0.306   3.425  0.7448 -0.7465 -0.6980
 1973SOL    MW4 7947   0.909   0.390   3.416  0.0622 -0.4807  0.1068
 1974SOL     OW 7948   1.156   0.454   3.541  0.0154 -0.0077 -0.5132
 1974SOL    HW2 7949   1.142   0.456   3.635  4.0375  0.3950  0.2053
 1974SOL    HW3 7950   1.148   0.546   3.514 -4.3028 -0.5153 -1.1906
 1974SOL    MW4 7951   1.153   0.467   3.550 -0.0238 -0.0215 -0.5078
 1975SOL     OW 7952   1.161   0.702   3.389 -0.2374 -0.0704 -0.2101
 1975SOL    HW2 7953   1.234   0.764   3.394  0.6928 -1.1059 -0.6811
 1975SOL    HW3 7954   1.084   0.755   3.405  0.6951  0.8758  1.2795
 1975SOL    MW4 7955   1.161   0.717   3.392  0.0085 -0.0822 -0.0758
 1976SOL     OW 7956   0.944   0.866   3.438  0.2394  0.3935 -0.0390
 1976SOL    HW2 7957   0.928   0.959   3.422 -0.5541  0.2136 -0.2920
 1976SOL    HW3 7958   0.858   0.825   3.431  0.7219 -0.5057 -0.8936
 1976SOL    MW4 7959   0.930   0.873   3.435  0.1984  0.2511 -0.1853
 1977SOL     OW 7960   0.871   1.130   3.412 -0.3449 -0.4540  0.0364
 1977SOL    HW2 7961   0.947   1.171   3.453 -0.6258 -0.8646  0.9735
 1977SOL    HW3 7962   0.893   1.127   3.319 -0.2895  1.7669 -0.0585
 1977SOL    MW4 7963   0.884   1.135   3.405 -0.3747 -0.2152  0.1473
 1978SOL     OW 7964   1.122   1.226   3.477 -0.5848 -0.1698  0.0383
 1978SOL    HW2 7965   1.138   1.224   3.571  1.9966 -0.1641 -0.3757
 1978SOL    HW3 7966   1.139   1.316   3.451  1.9268 -0.8610 -0.9170
 1978SOL    MW4 7967   1.126   1.237   3.486  0.0871 -0.2604 -0.1426
 1979SOL     OW 7968   1.136   1.507   3.414 -0.2929  0.0577  0.1204
 1979SOL    HW2 7969   1.209   1.556   3.452  0.8145 -1.5752  0.1263
 1979SOL    HW3 7970   1.144   1.522   3.320  0.6152 -0.8721  0.0412
 1979SOL    MW4 7971   1.147   1.516   3.406 -0.0269 -0.2805  0.1109
 1980SOL     OW 7972   0.885   1.618   3.481  0.0236 -0.1119  0.0427
 1980SOL    HW2 7973   0.880   1.708   3.452 -1.5705  0.2053  1.2233
 1980SOL    HW3 7974   0.973   1.590   3.458 -0.2564  0.9873 -2.4612
 1980SOL    MW4 7975   0.896   1.626   3.474 -0.2236  0.0750 -0.1318
 1981SOL     OW 7976   0.901   1.878   3.378  0.1813  0.1351  0.2120
 1981SOL    HW2 7977   0.988   1.917   3.388 -0.1289  1.4214 -1.8737
 1981SOL    HW3 7978   0.846   1.926   3.440  0.9632 -0.7671  1.6280
 1981SOL    MW4 7979   0.905   1.890   3.388  0.2435  0.1860  0.1235
 1982SOL     OW 7980   1.119   2.036   3.483 -0.5147 -0.3849  0.0371
 1982SOL    HW2 7981   1.199   1.985   3.467 -0.5005 -0.2555 -0.3117
 1982SOL    HW3 7982   1.137   2.121   3.441 -1.1022 -0.5874 -0.6187
 1982SOL    MW4 7983   1.132   2.041   3.475 -0.5903 -0.3948 -0.0954
 1983SOL     OW 7984   1.140   2.289   3.368 -0.1196  0.1258 -0.3681
 1983SOL    HW2 7985   1.215   2.339   3.399 -0.5616  0.6519 -0.1219
 1983SOL    HW3 7986   1.131   2.312   3.276  0.4953 -0.5418 -0.5926
 1983SOL    MW4 7987   1.149   2.298   3.360 -0.0968  0.1070 -0.3650
 1984SOL     OW 7988   0.923   2.438   3.472  0.4084  0.5980 -0.2878
 1984SOL    HW2 7989   0.934   2.435   3.567  1.2250 -0.3270 -0.4003
 1984SOL    HW3 7990   0.994   2.383   3.438 -0.7071 -0.1882 -1.3756
 1984SOL    MW4 7991   0.934   2.431   3.480  0.3689  0.3722 -0.4461
 1985SOL     OW 7992   0.874   2.706   3.367  0.4923 -0.1395 -0.3304
 1985SOL    HW2 7993   0.950   2.754   3.398  0.9406 -0.6717 -0.5830
 1985SOL    HW3 7994   0.886   2.617   3.401 -0.6043  0.0660  0.5924
 1985SOL    MW4 7995   0.886   2.700   3.375  0.4067 -0.1826 -0.2420
 1986SOL     OW 7996   1.111   2.829   3.514  0.5828  0.3823 -0.1839
 1986SOL    HW2 7997   1.120   2.839   3.609  0.3844  1.5724 -0.2808
 1986SOL    HW3 7998   1.186   2.775   3.489  0.6444  0.0685  0.6455
 1986SOL    MW4 7999   1.122   2.823   3.523  0.5648  0.4983 -0.0873
 1987SOL     OW 8000   1.118   3.083   3.439  0.2314 -0.2350 -0.2277
 1987SOL    HW2 8001   1.111   2.993   3.472 -1.4427 -0.2123 -0.4744
 1987SOL    HW3 8002   1.139   3.073   3.346 -0.2894 -0.3763 -0.3311
 1987SOL    MW4 8003   1.120   3.070   3.431 -0.0581 -0.2506 -0.2742
 1988SOL     OW 8004   0.888   3.212   3.551  0.1582  0.2852  0.2046
 1988SOL    HW2 8005   0.970   3.181   3.512  0.3862  0.4972  0.5035
 1988SOL    HW3 8006   0.819   3.162   3.507  0.4428  0.1775 -0.1205
 1988SOL    MW4 8007   0.890   3.202   3.540  0.2258  0.2990  0.2010
 1989SOL     OW 8008   0.904   3.459   3.421  0.0312 -0.3779  0.2364
 1989SOL    HW2 8009   0.894   3.367   3.447  2.5681 -0.6014  0.6354
 1989SOL    HW3 8010   0.896   3.459   3.326 -0.5505 -0.9363  0.2881
 1989SOL    MW4 8011   0.902   3.447   3.412  0.2892 -0.4809  0.2959
 1990SOL     OW 8012   1.145   3.566   3.509  0.3978 -0.1640 -0.1117
 1990SOL    HW2 8013   1.130   3.572   3.604 -0.0171 -0.7555 -0.1348
 1990SOL    HW3 8014   1.068   3.520   3.476 -0.5514  2.0337 -1.0539
 1990SOL    MW4 8015   1.133   3.561   3.517  0.2177  0.0479 -0.2389
 1991SOL     OW 8016   1.115   3.829   3.405  0.0260  0.0480  0.5225
 1991SOL    HW2 8017   1.204   3.861   3.423  0.4453 -1.4546  1.2392
 1991SOL    HW3 8018   1.115   3.740   3.440 -1.3542 -0.4410 -0.7058
 1991SOL    MW4 8019   1.127   3.822   3.412 -0.1009 -0.2148  0.4551
 1992SOL     OW 8020   0.899   3.972   3.504 -0.2816  0.3093 -0.2863
 1992SOL    HW2 8021   0.967   3.921   3.461 -0.6733  1.0045 -1.7382
 1992SOL    HW3 8022   0.818   3.925   3.484 -0.2731 -0.5142  1.4315
 1992SOL    MW4 8023   0.897   3.959   3.496 -0.3322  0.2923 -0.2511
 1993SOL     OW 8024   0.921   4.220   3.401  0.4574 -0.0525  0.2587
 1993SOL    HW2 8025   0.899   4.132   3.432 -1.7420  0.0990 -0.8007
 1993SOL    HW3 8026   0.930   4.211   3.306  0.9393  0.7278  0.2268
 1993SOL    MW4 8027   0.919   4.207   3.393  0.2308  0.0706  0.1149
 1994SOL     OW 8028   1.150   4.353   3.517  0.3637  0.5718  0.3682
 1994SOL    HW2 8029   1.079   4.302   3.477  0.2379  0.8276  0.2636
 1994SOL    HW3 8030   1.131   4.444   3.492  0.3566  0.7149  0.9042
 1994SOL    MW4 8031   1.138   4.358   3.508  0.3459  0.6247  0.4249
 1995SOL     OW 8032   1.571   4.651   3.422 -0.3341 -0.1557 -0.0259
 1995SOL    HW2 8033   1.576   4.566   3.467 -0.0737 -0.2868 -0.3042
 1995SOL    HW3 8034   1.487   4.687   3.449 -0.5786 -0.6372 -0.1467
 1995SOL    MW4 8035   1.561   4.644   3.432 -0.3320 -0.2365 -0.0787
 1996SOL     OW 8036   1.331   0.105   3.487 -0.4613 -0.0139 -0.0042
 1996SOL    HW2 8037   1.319   0.116   3.581 -1.8083  0.3575 -0.2200
 1996SOL    HW3 8038   1.352   0.193   3.455 -0.5332 -0.0451 -0.1375
 1996SOL    MW4 8039   1.332   0.118   3.495 -0.6485  0.0310 -0.0503
 1997SOL     OW 8040   1.375   0.349   3.385 -0.0406 -0.1718 -0.3353
 1997SOL    HW2 8041   1.450   0.390   3.428 -0.1791  1.7518 -1.8656
 1997SOL    HW3 8042   1.299   0.380   3.435  0.0079 -0.2024 -0.2426
 1997SOL    MW4 8043   1.375   0.359   3.398 -0.0525  0.0779 -0.5248
 1998SOL     OW 8044   1.578   0.492   3.495 -0.1216 -0.3702 -0.0816
 1998SOL    HW2 8045   1.577   0.509   3.590  0.2422  0.0741 -0.1557
 1998SOL    HW3 8046   1.657   0.441   3.481 -0.6914 -1.2936 -0.0078
 1998SOL    MW4 8047   1.588   0.488   3.506 -0.1489 -0.4334 -0.0818
 1999SOL     OW 8048   1.584   0.759   3.392  0.1654  0.4416 -0.1161
 1999SOL    HW2 8049   1.498   0.799   3.401 -0.6509 -0.7610 -2.1920
 1999SOL    HW3 8050   1.574   0.672   3.430 -0.0490 -0.3496 -1.9463
 1999SOL    MW4 8051   1.572   0.753   3.398  0.0293  0.1785 -0.6313
 2000SOL     OW 8052   1.341   0.904   3.446 -0.0330 -0.1163  0.1718
 2000SOL    HW2 8053   1.354   0.910   3.541 -2.7477  0.0714  0.5882
 2000SOL    HW3 8054   1.341   0.995   3.416  2.1111 -0.2288 -0.2347
 2000SOL    MW4 8055   1.343   0.917   3.455 -0.1084 -0.1064  0.1731
 2001SOL     OW 8056   1.360   1.174   3.349  0.0214 -0.0247  0.3922
 2001SOL    HW2 8057   1.412   1.202   3.424  0.1403  0.3035  0.1902
 2001SOL    HW3 8058   1.269   1.186   3.377  0.0629 -0.0804  0.5500
 2001SOL    MW4 8059   1.355   1.179   3.363  0.0426  0.0111  0.3865
 2002SOL     OW 8060   1.578   1.252   3.510 -0.2225  0.0030  0.0738
 2002SOL    HW2 8061   1.587   1.252   3.605 -1.5286  0.1284  0.2139
 2002SOL    HW3 8062   1.641   1.187   3.479  0.3237  0.0864  1.0123
 2002SOL    MW4 8063   1.587   1.244   3.518 -0.3227  0.0305  0.2160
 2003SOL     OW 8064   1.581   1.499   3.385 -0.3118  0.2111  0.0986
 2003SOL    HW2 8065   1.600   1.415   3.427  2.0390  0.5884 -0.1431
 2003SOL    HW3 8066   1.581   1.479   3.291 -0.1929  0.4087  0.0577
 2003SOL    MW4 8067   1.583   1.485   3.378  0.0142  0.2868  0.0615
 2004SOL     OW 8068   1.373   1.616   3.500 -0.0409 -0.1060  0.4117
 2004SOL    HW2 8069   1.398   1.615   3.593  0.8024  1.3790  0.2140
 2004SOL    HW3 8070   1.443   1.570   3.455  1.3363  2.1979  0.1165
 2004SOL    MW4 8071   1.385   1.610   3.507  0.2520  0.3937  0.3467
 2005SOL     OW 8072   1.361   1.873   3.374 -0.1864  0.0516 -0.1339
 2005SOL    HW2 8073   1.446   1.898   3.410 -1.8088  2.0861  2.5403
 2005SOL    HW3 8074   1.345   1.785   3.408  1.0988 -0.5847 -1.1529
 2005SOL    MW4 8075   1.370   1.865   3.384 -0.2308  0.2362  0.0846
 2006SOL     OW 8076   1.594   2.008   3.468 -0.2383 -0.4479  0.0114
 2006SOL    HW2 8077   1.674   1.971   3.430 -1.8228 -2.3680 -1.5475
 2006SOL    HW3 8078   1.599   2.102   3.448  0.4963 -0.9271 -2.2142
 2006SOL    MW4 8079   1.605   2.016   3.460 -0.3504 -0.7644 -0.4878
 2007SOL     OW 8080   1.578   2.283   3.399 -0.4178  0.0677  0.2421
 2007SOL    HW2 8081   1.499   2.332   3.424 -0.5117 -0.0141  0.1052
 2007SOL    HW3 8082   1.588   2.300   3.306  0.5272  1.2128  0.5465
 2007SOL    MW4 8083   1.569   2.292   3.390 -0.3055  0.2079  0.2639
 2008SOL     OW 8084   1.347   2.420   3.481  0.7000 -0.3145  0.1596
 2008SOL    HW2 8085   1.336   2.416   3.576 -1.3361 -0.2495 -0.0455
 2008SOL    HW3 8086   1.331   2.511   3.458 -1.1506 -0.7849 -0.4941
 2008SOL    MW4 8087   1.344   2.431   3.490  0.1873 -0.3676  0.0465
 2009SOL     OW 8088   1.319   2.669   3.393  0.3280 -0.2158  0.0477
 2009SOL    HW2 8089   1.408   2.691   3.420  0.3301 -0.7071  0.4487
 2009SOL    HW3 8090   1.317   2.684   3.299  0.5594  0.7292  0.1906
 2009SOL    MW4 8091   1.330   2.674   3.385  0.3587 -0.1559  0.1197
 2010SOL     OW 8092   1.553   2.793   3.489 -0.3799 -0.0602  0.1757
 2010SOL    HW2 8093   1.632   2.760   3.447 -0.7035 -1.7893  0.8826
 2010SOL    HW3 8094   1.543   2.882   3.455  2.4478  0.5782  0.9095
 2010SOL    MW4 8095   1.562   2.800   3.479 -0.0495 -0.2043  0.3657
 2011SOL     OW 8096   1.580   3.069   3.391  0.3772  0.1914  0.1694
 2011SOL    HW2 8097   1.651   3.107   3.442  0.2591 -1.3533  1.5291
 2011SOL    HW3 8098   1.500   3.102   3.431  0.3012 -0.1867  0.3365
 2011SOL    MW4 8099   1.579   3.078   3.403  0.3515 -0.0625  0.3712
 2012SOL     OW 8100   1.355   3.204   3.497  0.1746  0.4776 -0.2319
 2012SOL    HW2 8101   1.359   3.219   3.592  1.1639 -0.5848 -0.0901
 2012SOL    HW3 8102   1.268   3.166   3.482 -0.2826  1.3642  0.1332
 2012SOL    MW4 8103   1.344   3.201   3.508  0.2446  0.4544 -0.1650
 2013SOL     OW 8104   1.376   3.451   3.388  0.2636  0.1953 -0.3611
 2013SOL    HW2 8105   1.389   3.364   3.425  1.4888  0.3145 -0.4881
 2013SOL    HW3 8106   1.306   3.490   3.441  0.3480 -0.5256  0.2808
 2013SOL    MW4 8107   1.368   3.445   3.399  0.4364  0.1161 -0.2930
 2014SOL     OW 8108   1.586   3.626   3.480 -0.3437  0.1742  0.2331
 2014SOL    HW2 8109   1.588   3.623   3.576 -1.2379  0.5844  0.2719
 2014SOL    HW3 8110   1.514   3.567   3.456  0.3539 -0.5011 -0.2249
 2014SOL    MW4 8111   1.577   3.618   3.490 -0.3695  0.1392  0.1779
 2015SOL     OW 8112   1.587   3.887   3.410 -0.9132  0.2581 -0.3839
 2015SOL    HW2 8113   1.583   3.799   3.447  3.1170  0.5585  0.9708
 2015SOL    HW3 8114   1.575   3.874   3.316  1.1010 -1.9256 -0.3751
 2015SOL    MW4 8115   1.585   3.874   3.402 -0.1158  0.0095 -0.2041
 2016SOL     OW 8116   1.351   3.994   3.492  0.4179 -0.4520  0.0807
 2016SOL    HW2 8117   1.358   4.085   3.466  0.7748 -0.1796  1.0838
 2016SOL    HW3 8118   1.436   3.955   3.469  0.0915 -0.6584 -0.7959
 2016SOL    MW4 8119   1.363   4.001   3.486  0.4219 -0.4435  0.0973
 2017SOL     OW 8120   1.376   4.248   3.403 -0.0465 -0.7186 -0.1531
 2017SOL    HW2 8121   1.294   4.278   3.443 -0.2545 -0.1146 -1.0180
 2017SOL    HW3 8122   1.358   4.249   3.309  0.6061 -1.6392 -0.2890
 2017SOL    MW4 8123   1.362   4.252   3.396  0.0122 -0.7606 -0.2851
 2018SOL     OW 8124   1.605   4.370   3.505  0.1999  0.1565  0.5909
 2018SOL    HW2 8125   1.683   4.348   3.454  1.1538  1.2646  1.5434
 2018SOL    HW3 8126   1.537   4.312   3.470  1.1477 -0.0280 -1.0363
 2018SOL    MW4 8127   1.606   4.359   3.493  0.4507  0.2785  0.5019
 2019SOL     OW 8128   2.045   0.019   3.378  0.2836 -0.3551  0.4587
 2019SOL    HW2 8129   2.129   0.056   3.406  0.3283  0.7102 -0.9714
 2019SOL    HW3 8130   1.981   0.056   3.439  0.6640  0.0412  0.6200
 2019SOL    MW4 8131   2.047   0.029   3.390  0.3400 -0.1622  0.2913
 2020SOL     OW 8132   1.793   0.131   3.495  0.0431 -0.2592 -0.1369
 2020SOL    HW2 8133   1.786   0.123   3.590  0.7141  0.1611 -0.0475
 2020SOL    HW3 8134   1.716   0.085   3.461 -1.0642  0.9708  0.6524
 2020SOL    MW4 8135   1.782   0.124   3.503 -0.0144 -0.0415 -0.0210
 2021SOL     OW 8136   1.831   0.400   3.417  0.3288  0.2791 -0.3162
 2021SOL    HW2 8137   1.824   0.307   3.438  0.8031 -0.0193 -1.4308
 2021SOL    HW3 8138   1.832   0.403   3.321  1.0194  1.3760 -0.2849
 2021SOL    MW4 8139   1.830   0.388   3.407  0.4826  0.3844 -0.4590
 2022SOL     OW 8140   2.060   0.523   3.524 -0.5482 -0.6635  0.9286
 2022SOL    HW2 8141   2.064   0.616   3.502  0.3570 -1.2993 -1.9031
 2022SOL    HW3 8142   1.991   0.488   3.468  0.7758 -2.1149  0.1458
 2022SOL    MW4 8143   2.051   0.531   3.514 -0.2539 -0.9388  0.4518
 2023SOL     OW 8144   2.034   0.791   3.409  0.4763  0.2739  0.3749
 2023SOL    HW2 8145   2.114   0.838   3.430  0.3458  0.3435  0.7203
 2023SOL    HW3 8146   2.034   0.785   3.313 -0.2117  2.2341  0.2298
 2023SOL    MW4 8147   2.044   0.796   3.399  0.3684  0.5416  0.4015
 2024SOL     OW 8148   1.794   0.859   3.534  0.1201 -0.1854  0.4466
 2024SOL    HW2 8149   1.871   0.813   3.502  0.3514  0.7988 -0.4353
 2024SOL    HW3 8150   1.720   0.807   3.502  0.3930 -0.6141  0.5057
 2024SOL    MW4 8151   1.794   0.846   3.526  0.1867 -0.1122  0.3381
 2025SOL     OW 8152   1.813   1.106   3.390 -0.0285 -0.4993 -0.4794
 2025SOL    HW2 8153   1.890   1.157   3.415 -0.4649 -0.6177  1.2107
 2025SOL    HW3 8154   1.838   1.015   3.407 -0.0974 -0.6477 -1.1583
 2025SOL    MW4 8155   1.827   1.100   3.396 -0.0950 -0.5345 -0.3459
 2026SOL     OW 8156   2.024   1.277   3.480  0.0129 -0.2290 -0.4133
 2026SOL    HW2 8157   2.021   1.274   3.576  0.1140 -2.1388 -0.4522
 2026SOL    HW3 8158   2.032   1.370   3.459 -1.5993  0.3512  1.3878
 2026SOL    MW4 8159   2.025   1.289   3.490 -0.1864 -0.4044 -0.1807
 2027SOL     OW 8160   2.025   1.548   3.413 -0.0032  0.0391  0.5177
 2027SOL    HW2 8161   2.101   1.606   3.424 -0.0159  0.0633  0.4774
 2027SOL    HW3 8162   1.951   1.602   3.440 -0.2413  0.6746 -1.3108
 2027SOL    MW4 8163   2.026   1.563   3.418 -0.0362  0.1261  0.2711
 2028SOL     OW 8164   1.772   1.648   3.514  0.3796 -0.0349  0.1567
 2028SOL    HW2 8165   1.784   1.732   3.470 -0.3633  0.2233  0.4337
 2028SOL    HW3 8166   1.703   1.604   3.464 -0.7824  0.4443  1.2802
 2028SOL    MW4 8167   1.764   1.653   3.502  0.1283  0.0623  0.3417
 2029SOL     OW 8168   1.816   1.872   3.369  0.1530 -0.3997 -0.2236
 2029SOL    HW2 8169   1.879   1.941   3.388  0.5530 -0.7332 -0.3236
 2029SOL    HW3 8170   1.800   1.878   3.275 -0.1322 -0.1730 -0.1597
 2029SOL    MW4 8171   1.823   1.882   3.359  0.1681 -0.4138 -0.2282
 2030SOL     OW 8172   2.007   2.073   3.476 -0.1134  0.0722 -0.2128
 2030SOL    HW2 8173   2.084   2.027   3.442  0.6492  0.9432  0.3320
 2030SOL    HW3 8174   2.024   2.165   3.458  0.3470  0.5753  2.5742
 2030SOL    MW4 8175   2.019   2.079   3.469  0.0482  0.2534  0.2267
 2031SOL     OW 8176   2.041   2.343   3.400  0.2491 -0.1903  0.7323
 2031SOL    HW2 8177   2.119   2.394   3.422  0.1628 -0.3365  1.3971
 2031SOL    HW3 8178   2.035   2.347   3.305 -0.2955  1.8450  0.8413
 2031SOL    MW4 8179   2.050   2.350   3.391  0.1659  0.0594  0.8342
 2032SOL     OW 8180   1.773   2.441   3.496 -0.1254  0.3900 -0.1793
 2032SOL    HW2 8181   1.853   2.397   3.468 -0.2169 -0.1922  0.4825
 2032SOL    HW3 8182   1.702   2.385   3.464 -0.2761  0.9463 -0.8376
 2032SOL    MW4 8183   1.774   2.428   3.488 -0.1574  0.3867 -0.1791
 2033SOL     OW 8184   1.778   2.693   3.365 -0.3702 -0.3475 -0.5655
 2033SOL    HW2 8185   1.858   2.735   3.398 -1.0359  0.1849  0.4146
 2033SOL    HW3 8186   1.783   2.603   3.397  0.3108 -0.5915 -1.3464
 2033SOL    MW4 8187   1.789   2.687   3.374 -0.3681 -0.3097 -0.5391
 2034SOL     OW 8188   1.997   2.806   3.482 -0.4537 -0.1453  0.5605
 2034SOL    HW2 8189   1.985   2.803   3.577 -1.8918 -0.0936  0.3930
 2034SOL    HW3 8190   1.994   2.900   3.460  0.5305 -0.1116  0.5320
 2034SOL    MW4 8191   1.995   2.818   3.491 -0.5137 -0.1340  0.5348
 2035SOL     OW 8192   2.022   3.058   3.371  0.1204 -0.4126  0.3813
 2035SOL    HW2 8193   2.096   3.101   3.415  1.2500 -0.0965 -1.7898
 2035SOL    HW3 8194   1.946   3.106   3.403  1.0087  0.5423  1.1490
 2035SOL    MW4 8195   2.022   3.070   3.381  0.3867 -0.2449  0.1957
 2036SOL     OW 8196   1.792   3.213   3.489 -0.3222  0.0312 -0.3102
 2036SOL    HW2 8197   1.797   3.222   3.584 -1.1117  0.5180 -0.3162
 2036SOL    HW3 8198   1.796   3.303   3.456 -0.2399 -0.1237 -0.7293
 2036SOL    MW4 8199   1.794   3.226   3.497 -0.4154  0.0753 -0.3662
 2037SOL     OW 8200   1.810   3.479   3.413 -0.4860  0.1537  0.1371
 2037SOL    HW2 8201   1.737   3.533   3.445 -1.2911 -0.7055 -0.2390
 2037SOL    HW3 8202   1.811   3.493   3.319 -0.4836 -0.2245  0.0794
 2037SOL    MW4 8203   1.800   3.488   3.405 -0.5919 -0.0098  0.0801
 2038SOL     OW 8204   2.023   3.621   3.504 -0.1777  0.2237  0.1226
 2038SOL    HW2 8205   2.083   3.571   3.447  0.5084  0.8883  0.2541
 2038SOL    HW3 8206   1.937   3.583   3.486  0.2086 -0.4174 -0.4354
 2038SOL    MW4 8207   2.020   3.609   3.494 -0.0360  0.2267  0.0663
 2039SOL     OW 8208   2.043   3.857   3.381 -0.1197  0.4814 -0.0011
 2039SOL    HW2 8209   1.958   3.897   3.401 -0.1172  0.0777  0.8362
 2039SOL    HW3 8210   2.039   3.771   3.424  0.5373  0.2751 -0.3517
 2039SOL    MW4 8211   2.031   3.851   3.389 -0.0327  0.4008  0.0629
 2040SOL     OW 8212   1.833   4.018   3.456 -0.1802  0.3474  0.0127
 2040SOL    HW2 8213   1.837   4.023   3.552 -0.8846 -0.2266  0.0825
 2040SOL    HW3 8214   1.746   3.981   3.438  0.8232 -1.7255 -0.7613
 2040SOL    MW4 8215   1.822   4.014   3.466 -0.1408 -0.0024 -0.0803
 2041SOL     OW 8216   1.836   4.286   3.369  0.0401  0.3890  0.1741
 2041SOL    HW2 8217   1.846   4.196   3.400 -0.4464  0.7110  1.3168
 2041SOL    HW3 8218   1.817   4.278   3.276  0.1067 -0.6917  0.2491
 2041SOL    MW4 8219   1.835   4.273   3.361 -0.0151  0.2894  0.3347
 2042SOL     OW 8220   2.034   4.427   3.487 -0.1287 -0.0298 -0.4484
 2042SOL    HW2 8221   1.967   4.366   3.455 -1.1115  0.2974  0.9529
 2042SOL    HW3 8222   2.006   4.512   3.455  0.2255 -0.0532 -0.8160
 2042SOL    MW4 8223   2.021   4.430   3.479 -0.2115  0.0100 -0.3119
 2043SOL     OW 8224   2.508   0.012   3.411  0.1425 -0.0952  0.3047
 2043SOL    HW2 8225   2.502  -0.081   3.434  0.0032 -0.2229 -0.2544
 2043SOL    HW3 8226   2.520   0.013   3.316  1.8519  0.4011  0.5111
 2043SOL    MW4 8227   2.509  -0.000   3.402  0.3498 -0.0465  0.2582
 2044SOL     OW 8228   2.268   0.133   3.496 -0.0897 -0.0066 -0.0600
 2044SOL    HW2 8229   2.297   0.219   3.465 -0.6921 -0.7672 -2.7907
 2044SOL    HW3 8230   2.341   0.074   3.477  0.1200 -0.2263  1.3423
 2044SOL    MW4 8231   2.282   0.137   3.490 -0.1414 -0.1359 -0.2353
 2045SOL     OW 8232   2.291   0.395   3.406 -0.0521 -0.3463  0.1498
 2045SOL    HW2 8233   2.362   0.417   3.467  0.5016 -1.0274 -0.2459
 2045SOL    HW3 8234   2.216   0.444   3.439  0.2148 -0.7756  1.4383
 2045SOL    MW4 8235   2.291   0.405   3.419  0.0563 -0.4928  0.2675
 2046SOL     OW 8236   2.506   0.532   3.522  0.2763  0.0048  0.1468
 2046SOL    HW2 8237   2.564   0.478   3.468  1.1803  0.8005  0.3071
 2046SOL    HW3 8238   2.490   0.610   3.470 -0.4240 -0.0853  0.2274
 2046SOL    MW4 8239   2.512   0.535   3.508  0.3030  0.0979  0.1786
 2047SOL     OW 8240   2.464   0.773   3.391 -0.2565  0.1639  0.3200
 2047SOL    HW2 8241   2.529   0.836   3.421  0.8996  0.0812 -1.9071
 2047SOL    HW3 8242   2.471   0.775   3.296 -2.1064 -1.3443  0.1236
 2047SOL    MW4 8243   2.473   0.781   3.383 -0.3481 -0.0460  0.0000
 2048SOL     OW 8244   2.248   0.927   3.485  0.0282 -0.3005 -0.3952
 2048SOL    HW2 8245   2.236   1.009   3.436 -0.4782  0.6988  1.3247
 2048SOL    HW3 8246   2.307   0.875   3.432 -0.1658  0.9314 -1.8408
 2048SOL    MW4 8247   2.254   0.931   3.472 -0.0641 -0.0061 -0.3591
 2049SOL     OW 8248   2.238   1.167   3.312  0.4600 -0.0559  0.4697
 2049SOL    HW2 8249   2.307   1.211   3.361 -0.7105  0.0500  2.0487
 2049SOL    HW3 8250   2.157   1.192   3.356 -0.5021 -1.1320 -0.6416
 2049SOL    MW4 8251   2.236   1.176   3.324  0.1786 -0.1839  0.5312
 2050SOL     OW 8252   2.447   1.257   3.473 -0.3432  0.1548  0.2120
 2050SOL    HW2 8253   2.468   1.260   3.566 -0.6744 -0.0541  0.2964
 2050SOL    HW3 8254   2.529   1.232   3.430 -0.3865 -0.5210  0.5235
 2050SOL    MW4 8255   2.460   1.254   3.479 -0.3924  0.0381  0.2642
 2051SOL     OW 8256   2.433   1.525   3.394  0.4333 -0.1444 -0.2171
 2051SOL    HW2 8257   2.439   1.434   3.422 -0.9308 -0.4400 -0.8298
 2051SOL    HW3 8258   2.451   1.523   3.300 -0.0565  0.1406 -0.3210
 2051SOL    MW4 8259   2.436   1.513   3.385  0.1888 -0.1458 -0.3116
 2052SOL     OW 8260   2.243   1.704   3.453 -0.5283  0.6931  0.7239
 2052SOL    HW2 8261   2.235   1.708   3.548  0.2744 -0.1473  0.8377
 2052SOL    HW3 8262   2.308   1.636   3.438  0.6072  1.9846 -0.3614
 2052SOL    MW4 8263   2.251   1.696   3.464 -0.2728  0.7526  0.5958
 2053SOL     OW 8264   2.240   1.967   3.355 -0.2900 -0.6231 -0.5791
 2053SOL    HW2 8265   2.245   1.875   3.381  3.9720 -0.1115  0.7457
 2053SOL    HW3 8266   2.236   1.965   3.259  0.1781 -2.1960 -0.5822
 2053SOL    MW4 8267   2.240   1.955   3.346  0.3340 -0.7632 -0.4046
 2054SOL     OW 8268   2.503   2.096   3.429 -0.5175  0.1659  0.3103
 2054SOL    HW2 8269   2.507   2.079   3.523  0.0011 -2.5658 -0.1485
 2054SOL    HW3 8270   2.417   2.065   3.402  0.2055 -1.2587 -0.4581
 2054SOL    MW4 8271   2.492   2.090   3.438 -0.3538 -0.3824  0.1485
 2055SOL     OW 8272   2.487   2.363   3.347 -0.3181 -0.0757 -0.0418
 2055SOL    HW2 8273   2.570   2.408   3.360 -1.0528  0.2616  3.9760
 2055SOL    HW3 8274   2.503   2.273   3.375 -1.2740 -0.0144  0.7341
 2055SOL    MW4 8275   2.500   2.357   3.352 -0.5410 -0.0229  0.5906
 2056SOL     OW 8276   2.280   2.468   3.501  0.0024 -0.3120  0.1783
 2056SOL    HW2 8277   2.284   2.552   3.455 -0.0456  0.0237  0.7862
 2056SOL    HW3 8278   2.323   2.406   3.441 -0.5507  0.0087 -0.5624
 2056SOL    MW4 8279   2.286   2.470   3.487 -0.0770 -0.2251  0.1609
 2057SOL     OW 8280   2.255   2.715   3.361 -0.1895 -0.3095 -0.2199
 2057SOL    HW2 8281   2.180   2.768   3.390 -1.2384 -1.8035 -0.1861
 2057SOL    HW3 8282   2.244   2.708   3.266  0.6764  0.6163 -0.4018
 2057SOL    MW4 8283   2.244   2.721   3.352 -0.2139 -0.3846 -0.2394
 2058SOL     OW 8284   2.470   2.855   3.495  0.3552  0.1543 -0.5026
 2058SOL    HW2 8285   2.462   2.940   3.452  1.3644  0.6985  0.3438
 2058SOL    HW3 8286   2.406   2.800   3.451 -2.2148  2.0530  0.7001
 2058SOL    MW4 8287   2.461   2.859   3.484  0.1490  0.4766 -0.2320
 2059SOL     OW 8288   2.453   3.116   3.359  0.1857 -0.9196 -0.6452
 2059SOL    HW2 8289   2.534   3.159   3.383  0.0624 -0.5490 -0.8937
 2059SOL    HW3 8290   2.448   3.125   3.264 -0.8369  0.2948 -0.4910
 2059SOL    MW4 8291   2.463   3.123   3.349  0.0341 -0.7105 -0.6576
 2060SOL     OW 8292   2.226   3.246   3.447 -0.5383  0.1160 -0.2789
 2060SOL    HW2 8293   2.234   3.231   3.541 -1.5544  1.0734 -0.0294
 2060SOL    HW3 8294   2.307   3.210   3.410 -0.9953 -2.0025  0.7348
 2060SOL    MW4 8295   2.238   3.239   3.454 -0.7327 -0.0374 -0.1125
 2061SOL     OW 8296   2.260   3.510   3.380 -0.1763 -0.2882 -0.1702
 2061SOL    HW2 8297   2.251   3.419   3.409  1.1170 -0.8330 -1.4461
 2061SOL    HW3 8298   2.238   3.507   3.287 -1.1793  0.9005  0.0195
 2061SOL    MW4 8299   2.256   3.497   3.372 -0.1380 -0.2034 -0.3135
 2062SOL     OW 8300   2.445   3.637   3.513  0.1040 -0.0268  0.1955
 2062SOL    HW2 8301   2.460   3.716   3.462 -0.4887 -0.4145 -0.5985
 2062SOL    HW3 8302   2.379   3.588   3.463  1.1437 -1.4596  0.1912
 2062SOL    MW4 8303   2.438   3.641   3.500  0.1631 -0.2670  0.0904
 2063SOL     OW 8304   2.479   3.884   3.381 -0.3946 -0.0595  0.5023
 2063SOL    HW2 8305   2.539   3.947   3.421 -0.8680  0.5504  0.2671
 2063SOL    HW3 8306   2.392   3.910   3.414 -0.5901 -0.5888  0.4087
 2063SOL    MW4 8307   2.475   3.896   3.391 -0.4830 -0.0489  0.4592
 2064SOL     OW 8308   2.260   3.981   3.503 -0.1314  0.0722 -0.3171
 2064SOL    HW2 8309   2.252   4.073   3.479 -2.0569  0.3745  1.3357
 2064SOL    HW3 8310   2.187   3.938   3.458  0.6947 -0.6334 -0.9931
 2064SOL    MW4 8311   2.249   3.987   3.494 -0.2766  0.0188 -0.1881
 2065SOL     OW 8312   2.232   4.255   3.398 -0.1335  0.7750  0.2020
 2065SOL    HW2 8313   2.165   4.316   3.431  0.4122  1.2806  0.3787
 2065SOL    HW3 8314   2.229   4.266   3.303 -0.9523  0.1091  0.1435
 2065SOL    MW4 8315   2.223   4.265   3.390 -0.1695  0.7529  0.2174
 2066SOL     OW 8316   2.454   4.415   3.482 -0.8683  0.1248 -0.1286
 2066SOL    HW2 8317   2.459   4.419   3.578  0.1247 -2.8516  0.0080
 2066SOL    HW3 8318   2.369   4.376   3.464 -0.7604  0.0232 -0.4187
 2066SOL    MW4 8319   2.443   4.410   3.492 -0.7229 -0.2809 -0.1485
 2067SOL     OW 8320   2.952   0.003   3.434  0.1472 -0.8490  0.1789
 2067SOL    HW2 8321   2.874   0.050   3.464 -0.0244 -1.0147 -0.0058
 2067SOL    HW3 8322   2.938  -0.009   3.340  0.5296 -0.6258  0.0924
 2067SOL    MW4 8323   2.940   0.008   3.426  0.1748 -0.8416  0.1431
 2068SOL     OW 8324   2.717   0.132   3.515 -0.7218  0.3826  0.2251
 2068SOL    HW2 8325   2.711   0.215   3.469 -1.4423 -0.2545 -0.8367
 2068SOL    HW3 8326   2.642   0.082   3.485 -1.2684 -0.0163  2.1660
 2068SOL    MW4 8327   2.706   0.136   3.505 -0.8888  0.2459  0.3409
 2069SOL     OW 8328   2.711   0.371   3.384 -0.0833  0.2532 -0.0379
 2069SOL    HW2 8329   2.789   0.415   3.416 -1.2529  2.6105 -0.2934
 2069SOL    HW3 8330   2.720   0.372   3.289  0.1788 -0.6276 -0.0236
 2069SOL    MW4 8331   2.722   0.377   3.376 -0.2029  0.4480 -0.0696
 2070SOL     OW 8332   2.929   0.492   3.483 -0.2681  0.1374  0.3867
 2070SOL    HW2 8333   2.922   0.491   3.578  0.1820  1.2402  0.4350
 2070SOL    HW3 8334   2.917   0.584   3.458  1.7375  0.2028 -0.4473
 2070SOL    MW4 8335   2.926   0.504   3.492  0.0560  0.2915  0.2828
 2071SOL     OW 8336   2.871   0.750   3.393  0.0447  0.1802 -0.6498
 2071SOL    HW2 8337   2.952   0.794   3.416  1.0041 -1.0615 -1.6131
 2071SOL    HW3 8338   2.802   0.803   3.433  1.4322  0.1637  1.8353
 2071SOL    MW4 8339   2.872   0.763   3.401  0.3541  0.0142 -0.4489
 2072SOL     OW 8340   2.666   0.939   3.476 -0.0135 -0.0922 -0.3763
 2072SOL    HW2 8341   2.681   0.924   3.570  0.1487 -2.7273 -0.7886
 2072SOL    HW3 8342   2.680   1.033   3.464  1.7590 -0.0296  1.9222
 2072SOL    MW4 8343   2.670   0.949   3.487  0.2420 -0.4317 -0.1276
 2073SOL     OW 8344   2.678   1.201   3.369 -0.0526 -0.2018 -0.1344
 2073SOL    HW2 8345   2.766   1.229   3.391 -0.6370  1.1521  0.5795
 2073SOL    HW3 8346   2.677   1.196   3.273  0.9319 -0.7234 -0.1226
 2073SOL    MW4 8347   2.689   1.204   3.359  0.0002 -0.0918 -0.0386
 2074SOL     OW 8348   2.937   1.277   3.459  0.1698 -0.1306 -0.0232
 2074SOL    HW2 8349   2.935   1.268   3.554  1.0009  0.8268  0.0907
 2074SOL    HW3 8350   3.012   1.224   3.431 -0.6025 -1.1398 -0.2474
 2074SOL    MW4 8351   2.947   1.269   3.468  0.1779 -0.1373 -0.0377
 2075SOL     OW 8352   2.923   1.545   3.414  0.3145  0.2012 -0.6518
 2075SOL    HW2 8353   2.832   1.561   3.439 -0.1992 -1.1971 -1.5546
 2075SOL    HW3 8354   2.934   1.451   3.425  1.4155  0.2461 -1.3359
 2075SOL    MW4 8355   2.912   1.535   3.418  0.3920  0.0225 -0.8614
 2076SOL     OW 8356   2.660   1.649   3.466  0.1290 -0.3631 -0.1159
 2076SOL    HW2 8357   2.656   1.740   3.436  0.5433  0.2135  1.5319
 2076SOL    HW3 8358   2.582   1.608   3.428 -0.4483  0.8613 -0.2678
 2076SOL    MW4 8359   2.649   1.656   3.457  0.1073 -0.1255  0.0813
 2077SOL     OW 8360   2.736   1.926   3.383  0.4157  0.3502 -0.0811
 2077SOL    HW2 8361   2.668   1.994   3.377  0.7409  0.6070 -0.8444
 2077SOL    HW3 8362   2.751   1.898   3.293  1.5402  0.5071  0.0507
 2077SOL    MW4 8363   2.729   1.932   3.371  0.6068  0.4047 -0.1647
 2078SOL     OW 8364   2.955   2.025   3.509 -0.2264 -0.2115 -0.9565
 2078SOL    HW2 8365   2.927   2.044   3.599  1.8026 -1.0602 -0.1039
 2078SOL    HW3 8366   2.876   1.993   3.466 -1.2477  0.2622  0.5072
 2078SOL    MW4 8367   2.941   2.023   3.515 -0.0937 -0.2613 -0.6509
 2079SOL     OW 8368   2.908   2.275   3.398  0.1720 -0.0009  0.1622
 2079SOL    HW2 8369   2.920   2.185   3.428  1.0055  0.3312  0.8669
 2079SOL    HW3 8370   2.917   2.271   3.303 -1.7181 -0.9582  0.0077
 2079SOL    MW4 8371   2.911   2.263   3.390  0.0329 -0.0834  0.2348
 2080SOL     OW 8372   2.720   2.479   3.458  0.5475 -0.1603 -0.3424
 2080SOL    HW2 8373   2.695   2.463   3.549 -1.8779 -1.7740 -1.2435
 2080SOL    HW3 8374   2.788   2.415   3.439  1.9271  0.9830  0.6782
 2080SOL    MW4 8375   2.726   2.469   3.467  0.4096 -0.2224 -0.3269
 2081SOL     OW 8376   2.702   2.730   3.393  0.0572  0.4719  0.1102
 2081SOL    HW2 8377   2.709   2.635   3.405 -1.5373  0.2984 -0.2374
 2081SOL    HW3 8378   2.626   2.755   3.446 -0.0834  1.4253 -0.5340
 2081SOL    MW4 8379   2.693   2.721   3.402 -0.1714  0.5748 -0.0207
 2082SOL     OW 8380   2.928   2.898   3.477  0.0780 -0.0242 -0.0497
 2082SOL    HW2 8381   2.928   2.906   3.572  1.3742 -0.0486 -0.0441
 2082SOL    HW3 8382   2.850   2.845   3.458 -1.0801  1.3097  0.8627
 2082SOL    MW4 8383   2.918   2.892   3.487  0.0961  0.1485  0.0715
 2083SOL     OW 8384   2.926   3.163   3.380  0.3065  0.5450  0.2669
 2083SOL    HW2 8385   2.903   3.078   3.419  1.2771  0.4476  0.6552
 2083SOL    HW3 8386   2.928   3.146   3.286  0.9612  0.0101  0.3692
 2083SOL    MW4 8387   2.923   3.149   3.373  0.5207  0.4616  0.3314
 2084SOL     OW 8388   2.668   3.237   3.445 -0.0305 -0.4948 -0.1312
 2084SOL    HW2 8389   2.683   3.255   3.538 -0.1098  1.1134 -0.3986
 2084SOL    HW3 8390   2.755   3.226   3.408  0.2068  1.7811 -0.3734
 2084SOL    MW4 8391   2.681   3.238   3.452 -0.0095  0.0179 -0.1986
 2085SOL     OW 8392   2.663   3.514   3.406  0.0128 -0.4682  0.1794
 2085SOL    HW2 8393   2.671   3.420   3.427 -0.5652 -0.5387  0.0993
 2085SOL    HW3 8394   2.583   3.541   3.450 -0.2724 -0.2061 -0.4915
 2085SOL    MW4 8395   2.654   3.505   3.414 -0.1011 -0.4430  0.0803
 2086SOL     OW 8396   2.894   3.664   3.469 -0.5019 -0.2943 -0.0044
 2086SOL    HW2 8397   2.885   3.746   3.421  1.0645 -1.2133 -1.9053
 2086SOL    HW3 8398   2.813   3.617   3.452 -0.3501 -0.2056 -0.9907
 2086SOL    MW4 8399   2.882   3.669   3.461 -0.2754 -0.4041 -0.3850
 2087SOL     OW 8400   2.911   3.930   3.389  0.1899 -0.1039  0.3666
 2087SOL    HW2 8401   2.987   3.970   3.431 -0.4269 -1.8372  3.2223
 2087SOL    HW3 8402   2.836   3.977   3.425 -0.2127  0.7968 -1.5577
 2087SOL    MW4 8403   2.911   3.942   3.399  0.0553 -0.2139  0.4895
 2088SOL     OW 8404   2.687   4.013   3.530  0.2394 -0.1054 -0.2382
 2088SOL    HW2 8405   2.708   3.988   3.620  3.2980  0.3296 -0.7939
 2088SOL    HW3 8406   2.705   4.107   3.526 -2.1116  0.3542 -0.7052
 2088SOL    MW4 8407   2.692   4.022   3.541  0.3326  0.0124 -0.3734
 2089SOL     OW 8408   2.711   4.276   3.393  0.4325  0.1508  0.2872
 2089SOL    HW2 8409   2.775   4.343   3.416 -0.0026  0.6946 -0.0790
 2089SOL    HW3 8410   2.626   4.315   3.414  0.2762 -1.1397  2.2715
 2089SOL    MW4 8411   2.708   4.290   3.399  0.3543  0.0525  0.5007
 2090SOL     OW 8412   2.939   4.404   3.507  0.2412  0.4720  0.2157
 2090SOL    HW2 8413   2.938   4.403   3.603  3.1475  2.3233  0.3360
 2090SOL    HW3 8414   2.938   4.496   3.483  0.3221  0.0499 -1.4947
 2090SOL    MW4 8415   2.939   4.416   3.517  0.6354  0.6614  0.0060
 2091SOL     OW 8416   3.438   0.011   3.364  0.1979 -0.4517 -0.3443
 2091SOL    HW2 8417   3.358   0.032   3.411  0.3858  2.0264 -1.0586
 2091SOL    HW3 8418   3.412   0.003   3.273  0.6215 -0.4228 -0.4722
 2091SOL    MW4 8419   3.424   0.013   3.358  0.2785 -0.1211 -0.4556
 2092SOL     OW 8420   3.205   0.112   3.492  0.3282  0.1790 -0.5432
 2092SOL    HW2 8421   3.209   0.200   3.454 -0.0445  0.6903  0.5715
 2092SOL    HW3 8422   3.114   0.084   3.477  0.0224  0.6111  0.4491
 2092SOL    MW4 8423   3.193   0.120   3.485  0.2387  0.3034 -0.2654
 2093SOL     OW 8424   3.164   0.363   3.360 -0.2282 -0.0842  0.0923
 2093SOL    HW2 8425   3.087   0.411   3.390 -0.2851  0.2930 -0.6391
 2093SOL    HW3 8426   3.159   0.366   3.265 -1.0285 -2.8505  0.0036
 2093SOL    MW4 8427   3.153   0.370   3.352 -0.3409 -0.3994 -0.0160
 2094SOL     OW 8428   3.377   0.501   3.484  0.5655 -0.2152 -0.3990
 2094SOL    HW2 8429   3.364   0.508   3.579 -0.5386 -0.5811 -0.5215
 2094SOL    HW3 8430   3.297   0.461   3.451  0.2707  1.3657 -1.6867
 2094SOL    MW4 8431   3.365   0.497   3.492  0.3810 -0.0549 -0.5853
 2095SOL     OW 8432   3.360   0.757   3.403  0.4014  0.0630 -0.1800
 2095SOL    HW2 8433   3.436   0.802   3.440  0.8940 -0.0888 -1.0154
 2095SOL    HW3 8434   3.372   0.665   3.426  0.9401 -0.1022 -1.1002
 2095SOL    MW4 8435   3.372   0.751   3.411  0.5374  0.0212 -0.4115
 2096SOL     OW 8436   3.121   0.865   3.444  0.0647  0.1590  0.0395
 2096SOL    HW2 8437   3.129   0.957   3.419 -1.2863  0.0149 -0.9921
 2096SOL    HW3 8438   3.210   0.830   3.434  0.7272  1.4913  1.0942
 2096SOL    MW4 8439   3.134   0.873   3.439 -0.0257  0.3158  0.0424
 2097SOL     OW 8440   3.162   1.123   3.382 -0.2137 -0.1165 -0.2713
 2097SOL    HW2 8441   3.239   1.164   3.422 -1.7077  1.4045  1.0976
 2097SOL    HW3 8442   3.169   1.146   3.289  1.9786 -1.6095 -0.5215
 2097SOL    MW4 8443   3.173   1.132   3.375 -0.1216 -0.1128 -0.1235
 2098SOL     OW 8444   3.360   1.274   3.492  0.1590 -0.2952 -0.2241
 2098SOL    HW2 8445   3.446   1.238   3.468 -1.0352 -1.5826 -2.7689
 2098SOL    HW3 8446   3.364   1.365   3.464  0.8061 -0.2632 -0.0361
 2098SOL    MW4 8447   3.372   1.281   3.485  0.0865 -0.4609 -0.5350
 2099SOL     OW 8448   3.393   1.531   3.361 -0.3469 -0.2934 -0.4360
 2099SOL    HW2 8449   3.466   1.579   3.400 -1.0766  1.4365 -1.1412
 2099SOL    HW3 8450   3.314   1.573   3.396 -0.9978 -0.6782 -1.3996
 2099SOL    MW4 8451   3.392   1.543   3.371 -0.5291 -0.1158 -0.6559
 2100SOL     OW 8452   3.160   1.648   3.490 -0.0407 -0.0330  0.5405
 2100SOL    HW2 8453   3.153   1.740   3.462  2.0033 -0.2121 -0.6656
 2100SOL    HW3 8454   3.076   1.609   3.465 -0.9578  1.5104  1.1285
 2100SOL    MW4 8455   3.148   1.655   3.483  0.1078  0.1470  0.4590
 2101SOL     OW 8456   3.174   1.920   3.413  0.0847 -0.2427  0.5234
 2101SOL    HW2 8457   3.095   1.950   3.459 -0.6638 -2.1253  0.4959
 2101SOL    HW3 8458   3.155   1.934   3.321 -0.0574 -0.3401  0.5385
 2101SOL    MW4 8459   3.161   1.926   3.407 -0.0329 -0.5040  0.5217
 2102SOL     OW 8460   3.404   2.035   3.513 -0.4010  0.5313  0.3005
 2102SOL    HW2 8461   3.404   2.127   3.486 -0.8070  0.2467 -0.6900
 2102SOL    HW3 8462   3.321   2.000   3.480 -0.6733  0.0461  1.4866
 2102SOL    MW4 8463   3.393   2.042   3.505 -0.4907  0.4299  0.3264
 2103SOL     OW 8464   3.384   2.291   3.420  0.0957  0.1291  0.0421
 2103SOL    HW2 8465   3.439   2.362   3.454 -0.5971  1.1418 -0.9046
 2103SOL    HW3 8466   3.295   2.320   3.440 -0.2357 -0.0488 -1.1363
 2103SOL    MW4 8467   3.379   2.304   3.427 -0.0391  0.2391 -0.2382
 2104SOL     OW 8468   3.125   2.433   3.530 -0.3050  0.2634  0.0786
 2104SOL    HW2 8469   3.104   2.525   3.510 -1.5394 -0.0739 -0.2131
 2104SOL    HW3 8470   3.055   2.383   3.488  0.6857 -0.8557 -0.2724
 2104SOL    MW4 8471   3.113   2.439   3.522 -0.3374  0.0713 -0.0062
 2105SOL     OW 8472   3.115   2.708   3.440  0.1541  0.1326 -0.7056
 2105SOL    HW2 8473   3.202   2.748   3.442  0.3366 -0.3112  3.1066
 2105SOL    HW3 8474   3.056   2.779   3.463 -0.1233 -0.3936  0.2068
 2105SOL    MW4 8475   3.119   2.723   3.443  0.1416  0.0045 -0.0825
 2106SOL     OW 8476   3.357   2.841   3.442  0.1582 -0.6108 -0.1121
 2106SOL    HW2 8477   3.442   2.801   3.421  0.4600  0.5577 -1.1898
 2106SOL    HW3 8478   3.370   2.935   3.426 -1.1825 -0.3573  0.2316
 2106SOL    MW4 8479   3.370   2.848   3.437  0.0210 -0.4234 -0.2089
 2107SOL     OW 8480   3.375   3.106   3.386  0.0393 -0.6491  0.2188
 2107SOL    HW2 8481   3.448   3.151   3.429  0.3988  0.5698 -1.6282
 2107SOL    HW3 8482   3.298   3.156   3.411  0.2438  0.0295 -0.4797
 2107SOL    MW4 8483   3.374   3.118   3.395  0.1137 -0.3986 -0.1173
 2108SOL     OW 8484   3.171   3.270   3.448  0.5835  0.5309  0.0528
 2108SOL    HW2 8485   3.157   3.364   3.437  1.2922  0.5688 -0.5227
 2108SOL    HW3 8486   3.086   3.231   3.427 -0.1333  1.1399  1.7620
 2108SOL    MW4 8487   3.158   3.277   3.444  0.5825  0.6163  0.2024
 2109SOL     OW 8488   3.125   3.539   3.396  0.4658 -0.2692 -0.3620
 2109SOL    HW2 8489   3.047   3.595   3.403 -0.5926 -1.7574  0.0183
 2109SOL    HW3 8490   3.130   3.517   3.303  1.1065  0.7486 -0.5770
 2109SOL    MW4 8491   3.115   3.543   3.385  0.4106 -0.3314 -0.3402
 2110SOL     OW 8492   3.376   3.623   3.531 -0.1799  0.0700  0.3401
 2110SOL    HW2 8493   3.381   3.709   3.491  0.6995 -0.3277 -0.4242
 2110SOL    HW3 8494   3.295   3.585   3.496  0.2036  0.0109 -0.4887
 2110SOL    MW4 8495   3.366   3.629   3.521 -0.0136  0.0098  0.1299
 2111SOL     OW 8496   3.370   3.880   3.427  0.4029 -0.2276 -0.1386
 2111SOL    HW2 8497   3.442   3.933   3.461  1.2539 -1.4279 -0.0785
 2111SOL    HW3 8498   3.291   3.927   3.456  1.1389  1.6476 -1.0842
 2111SOL    MW4 8499   3.369   3.893   3.435  0.6125 -0.1385 -0.2551
 2112SOL     OW 8500   3.143   4.044   3.514  0.0217 -0.0061 -0.5730
 2112SOL    HW2 8501   3.159   4.046   3.609  0.2754  0.0587 -0.6148
 2112SOL    HW3 8502   3.161   4.134   3.485 -0.3871  0.0568 -0.6300
 2112SOL    MW4 8503   3.148   4.056   3.523  0.0012  0.0110 -0.5860
 2113SOL     OW 8504   3.163   4.299   3.393  0.5733 -0.1669  0.2329
 2113SOL    HW2 8505   3.240   4.350   3.416  0.6154 -0.5996  1.0736
 2113SOL    HW3 8506   3.090   4.346   3.436  0.7104 -1.2398  1.6570
 2113SOL    MW4 8507   3.163   4.312   3.402  0.5972 -0.3653  0.5319
 2114SOL     OW 8508   3.409   4.399   3.480 -0.0337 -0.0146 -0.1221
 2114SOL    HW2 8509   3.400   4.401   3.575  0.0115 -0.2996 -0.1125
 2114SOL    HW3 8510   3.415   4.491   3.455 -2.8570  0.2230 -0.1207
 2114SOL    MW4 8511   3.409   4.412   3.489 -0.4003 -0.0210 -0.1209
 2115SOL     OW 8512   3.853   4.665   3.386  0.1264 -0.2344 -0.6512
 2115SOL    HW2 8513   3.782   4.709   3.434 -0.7379 -0.7574 -1.4427
 2115SOL    HW3 8514   3.821   4.659   3.296  2.1979  1.7133 -1.5673
 2115SOL    MW4 8515   3.839   4.670   3.381  0.2859 -0.0464 -0.8764
 2116SOL     OW 8516   3.640   0.148   3.523  0.0477  0.1081  0.4088
 2116SOL    HW2 8517   3.646   0.237   3.489  0.7792  0.2146  0.7957
 2116SOL    HW3 8518   3.580   0.104   3.464  1.4827  0.2298 -1.1854
 2116SOL    MW4 8519   3.633   0.154   3.511  0.3335  0.1382  0.2496
 2117SOL     OW 8520   3.609   0.398   3.409 -0.0280  0.0588  0.3136
 2117SOL    HW2 8521   3.678   0.451   3.451  0.5999 -0.0092 -0.6317
 2117SOL    HW3 8522   3.527   0.434   3.444  0.3897  1.6341 -0.2709
 2117SOL    MW4 8523   3.607   0.410   3.420  0.1097  0.2576  0.1116
 2118SOL     OW 8524   3.860   0.492   3.483  0.1638 -0.2641 -0.0701
 2118SOL    HW2 8525   3.858   0.506   3.578 -0.0581  0.6973 -0.2068
 2118SOL    HW3 8526   3.939   0.440   3.468  1.0854  0.9458  0.4750
 2118SOL    MW4 8527   3.870   0.487   3.493  0.2561  0.0224 -0.0162
 2119SOL     OW 8528   3.862   0.778   3.422 -0.1358 -0.2055  0.0209
 2119SOL    HW2 8529   3.925   0.821   3.479 -0.2928  0.1776 -0.0970
 2119SOL    HW3 8530   3.874   0.684   3.439 -0.7617 -0.0637  1.3033
 2119SOL    MW4 8531   3.872   0.771   3.431 -0.2391 -0.1363  0.1745
 2120SOL     OW 8532   3.584   0.854   3.512 -0.0798  0.4401 -0.0374
 2120SOL    HW2 8533   3.597   0.859   3.606 -1.1860 -1.1600  0.1978
 2120SOL    HW3 8534   3.671   0.831   3.477  0.3169  0.9961  0.5695
 2120SOL    MW4 8535   3.597   0.852   3.520 -0.1736  0.3023  0.0737
 2121SOL     OW 8536   3.578   1.121   3.417 -0.3211 -0.1765  0.1306
 2121SOL    HW2 8537   3.564   1.030   3.443  0.2327 -0.5565 -0.8602
 2121SOL    HW3 8538   3.565   1.121   3.322 -0.4703  0.8117  0.1459
 2121SOL    MW4 8539   3.574   1.109   3.408 -0.2677 -0.0963  0.0017
 2122SOL     OW 8540   3.811   1.237   3.540  0.1425 -0.0959  0.0347
 2122SOL    HW2 8541   3.791   1.253   3.632  0.5416  1.6030 -0.1549
 2122SOL    HW3 8542   3.739   1.183   3.509 -0.6817  0.4254  1.0153
 2122SOL    MW4 8543   3.799   1.232   3.548  0.0863  0.1969  0.1390
 2123SOL     OW 8544   3.769   1.481   3.425 -0.1845  0.0105 -0.1307
 2123SOL    HW2 8545   3.845   1.532   3.455 -0.7999  0.5454  0.5299
 2123SOL    HW3 8546   3.771   1.401   3.477  0.6849 -0.5769 -1.0476
 2123SOL    MW4 8547   3.779   1.477   3.436 -0.1512  0.0036 -0.1647
 2124SOL     OW 8548   3.603   1.656   3.529  0.2084  0.1901 -0.2145
 2124SOL    HW2 8549   3.621   1.737   3.481  0.8169  0.8528  1.1085
 2124SOL    HW3 8550   3.656   1.590   3.484  0.8552  0.8284 -0.3979
 2124SOL    MW4 8551   3.613   1.658   3.516  0.3741  0.3619 -0.0641
 2125SOL     OW 8552   3.606   1.900   3.382 -0.3850  0.1850 -0.1767
 2125SOL    HW2 8553   3.672   1.930   3.444 -0.5876 -1.4765  0.8623
 2125SOL    HW3 8554   3.525   1.943   3.411 -0.7459 -1.5825  1.5175
 2125SOL    MW4 8555   3.604   1.910   3.394 -0.4594 -0.2675  0.1841
 2126SOL     OW 8556   3.856   2.064   3.513  0.3840  0.2134  0.1056
 2126SOL    HW2 8557   3.861   2.068   3.609  0.7281  1.1213  0.0563
 2126SOL    HW3 8558   3.935   2.017   3.487  0.3488  0.0647  0.2695
 2126SOL    MW4 8559   3.867   2.059   3.522  0.4249  0.3133  0.1206
 2127SOL     OW 8560   3.805   2.306   3.380 -0.0050  0.0507  0.6328
 2127SOL    HW2 8561   3.883   2.348   3.417 -0.2953  0.2415  1.0442
 2127SOL    HW3 8562   3.810   2.216   3.410  0.5778 -0.1918 -0.1819
 2127SOL    MW4 8563   3.816   2.300   3.389  0.0339  0.0436  0.5796
 2128SOL     OW 8564   3.612   2.462   3.504 -0.7299 -0.2304 -0.1477
 2128SOL    HW2 8565   3.633   2.551   3.477 -0.7906 -0.2634 -0.3052
 2128SOL    HW3 8566   3.688   2.410   3.477 -0.5212 -0.1578  0.3064
 2128SOL    MW4 8567   3.625   2.467   3.497 -0.7105 -0.2253 -0.1085
 2129SOL     OW 8568   3.605   2.699   3.398 -0.4573  0.2711 -0.1242
 2129SOL    HW2 8569   3.688   2.746   3.402  0.3657 -1.1964  0.4745
 2129SOL    HW3 8570   3.587   2.688   3.304 -0.0737  0.7738 -0.2529
 2129SOL    MW4 8571   3.614   2.703   3.386 -0.2980  0.1438 -0.0620
 2130SOL     OW 8572   3.818   2.847   3.423  0.1805  0.1298  0.3056
 2130SOL    HW2 8573   3.815   2.836   3.518 -2.5686  0.1067  0.2731
 2130SOL    HW3 8574   3.808   2.941   3.409  0.6098  0.1375  0.0448
 2130SOL    MW4 8575   3.816   2.858   3.433 -0.1256  0.1278  0.2666
 2131SOL     OW 8576   3.805   3.116   3.392  0.0868 -0.1833  0.4411
 2131SOL    HW2 8577   3.888   3.155   3.420 -0.0704  0.4139  0.0973
 2131SOL    HW3 8578   3.815   3.105   3.297 -0.8909  1.5593  0.1114
 2131SOL    MW4 8579   3.817   3.120   3.383 -0.0627  0.1254  0.3521
 2132SOL     OW 8580   3.584   3.241   3.497 -0.0488  0.1517  0.2959
 2132SOL    HW2 8581   3.594   3.330   3.463  0.6390  0.4384  1.2300
 2132SOL    HW3 8582   3.656   3.192   3.456 -0.8298 -0.1431 -0.7443
 2132SOL    MW4 8583   3.595   3.246   3.487 -0.0610  0.1507  0.2820
 2133SOL     OW 8584   3.589   3.500   3.410 -0.5985  0.5796  0.3589
 2133SOL    HW2 8585   3.512   3.543   3.447 -0.6081  0.5240  0.4034
 2133SOL    HW3 8586   3.580   3.511   3.316 -2.1446 -1.9540  0.1555
 2133SOL    MW4 8587   3.578   3.507   3.403 -0.8039  0.2379  0.3378
 2134SOL     OW 8588   3.842   3.605   3.491  0.1780 -0.1596 -0.1015
 2134SOL    HW2 8589   3.836   3.605   3.587  0.2998 -0.7537 -0.0915
 2134SOL    HW3 8590   3.771   3.549   3.462  0.4289 -0.3584 -0.3389
 2134SOL    MW4 8591   3.832   3.598   3.500  0.2272 -0.2644 -0.1318
 2135SOL     OW 8592   3.822   3.888   3.394  0.1464  0.1687  0.0053
 2135SOL    HW2 8593   3.751   3.935   3.439 -1.1518 -0.6501 -1.1188
 2135SOL    HW3 8594   3.812   3.797   3.423  0.5173 -0.0079 -0.4152
 2135SOL    MW4 8595   3.811   3.882   3.404  0.0243  0.0377 -0.1984
 2136SOL     OW 8596   3.594   4.025   3.497  0.2349 -0.1414 -0.1210
 2136SOL    HW2 8597   3.597   4.028   3.593 -0.1077 -0.0736 -0.1114
 2136SOL    HW3 8598   3.602   4.117   3.471  3.1033 -0.3703 -0.2511
 2136SOL    MW4 8599   3.596   4.038   3.507  0.5679 -0.1626 -0.1369
 2137SOL     OW 8600   3.643   4.279   3.411 -0.4847  0.2520  0.2895
 2137SOL    HW2 8601   3.565   4.326   3.443 -0.7378  0.8088 -1.1128
 2137SOL    HW3 8602   3.620   4.254   3.321  1.4017  1.4240 -0.5286
 2137SOL    MW4 8603   3.629   4.282   3.403 -0.2692  0.4797 -0.0036
 2138SOL     OW 8604   3.854   4.415   3.493  0.1358 -0.5039  0.3298
 2138SOL    HW2 8605   3.789   4.362   3.447 -0.4929 -0.3286  1.0027
 2138SOL    HW3 8606   3.861   4.495   3.442 -0.7623 -0.1955  0.6846
 2138SOL    MW4 8607   3.846   4.418   3.480 -0.0656 -0.4406  0.4654
 2139SOL     OW 8608   4.336   4.640   3.385 -0.1213  0.3100  0.1407
 2139SOL    HW2 8609   4.332   4.555   3.429  0.2632 -0.1460 -0.7045
 2139SOL    HW3 8610   4.395   4.692   3.440 -0.5214  0.1043  0.7743
 2139SOL    MW4 8611   4.343   4.636   3.398 -0.1235  0.2227  0.1125
 2140SOL     OW 8612   4.090   0.091   3.517 -0.6788 -0.0083 -0.1465
 2140SOL    HW2 8613   4.160   0.040   3.476 -1.7369 -0.7280 -1.0940
 2140SOL    HW3 8614   4.010   0.060   3.475 -1.4447  1.7622 -0.0463
 2140SOL    MW4 8615   4.089   0.080   3.506 -0.9193  0.1304 -0.2582
 2141SOL     OW 8616   4.094   0.351   3.384 -0.2734  0.0025  0.7152
 2141SOL    HW2 8617   4.087   0.258   3.407  0.2536 -0.5079 -1.1114
 2141SOL    HW3 8618   4.050   0.358   3.300  1.8556  0.9418 -0.3596
 2141SOL    MW4 8619   4.087   0.339   3.376  0.0763  0.0591  0.3324
 2142SOL     OW 8620   4.264   0.501   3.545  0.2922 -0.3383 -0.6906
 2142SOL    HW2 8621   4.263   0.582   3.495  1.3459  0.0531 -0.1162
 2142SOL    HW3 8622   4.207   0.441   3.497 -0.7420  0.8460 -0.9428
 2142SOL    MW4 8623   4.257   0.504   3.532  0.2947 -0.1304 -0.6483
 2143SOL     OW 8624   4.291   0.756   3.414 -0.0328 -0.1411  0.0004
 2143SOL    HW2 8625   4.374   0.789   3.449 -0.2589 -0.6619  1.0353
 2143SOL    HW3 8626   4.296   0.775   3.320  0.6724  1.0647  0.2606
 2143SOL    MW4 8627   4.303   0.763   3.406  0.0305 -0.0507  0.1712
 2144SOL     OW 8628   4.078   0.903   3.519 -0.4390  0.1286 -0.6358
 2144SOL    HW2 8629   4.076   0.984   3.467 -0.3324  1.0094  0.7136
 2144SOL    HW3 8630   4.157   0.858   3.489 -0.0563  0.9148 -0.8267
 2144SOL    MW4 8631   4.089   0.908   3.508 -0.3748  0.3484 -0.4828
 2145SOL     OW 8632   4.049   1.139   3.375  0.2923  0.0692  0.4455
 2145SOL    HW2 8633   4.122   1.184   3.418  0.6307  1.4521 -1.4678
 2145SOL    HW3 8634   3.970   1.181   3.410  0.4643 -0.5389  1.5590
 2145SOL    MW4 8635   4.048   1.151   3.385  0.3586  0.1713  0.3400
 2146SOL     OW 8636   4.271   1.260   3.521 -0.4891  0.1161  0.0159
 2146SOL    HW2 8637   4.275   1.353   3.496 -0.3484  0.0040 -0.3826
 2146SOL    HW3 8638   4.353   1.223   3.489  0.1239  0.1621  1.4706
 2146SOL    MW4 8639   4.282   1.268   3.514 -0.3896  0.1072  0.1552
 2147SOL     OW 8640   4.259   1.530   3.430 -0.4858  0.1653 -0.3581
 2147SOL    HW2 8641   4.174   1.574   3.440 -0.4245  0.1564  0.2237
 2147SOL    HW3 8642   4.275   1.530   3.336 -1.9970 -1.4365 -0.6528
 2147SOL    MW4 8643   4.250   1.535   3.419 -0.6766 -0.0472 -0.3202
 2148SOL     OW 8644   3.985   1.624   3.515  0.4278 -0.7462  0.0195
 2148SOL    HW2 8645   3.998   1.636   3.609 -0.3040  0.3920 -0.0219
 2148SOL    HW3 8646   3.996   1.711   3.477 -1.6747 -0.7499 -0.6570
 2148SOL    MW4 8647   3.988   1.637   3.522  0.0534 -0.5965 -0.0756
 2149SOL     OW 8648   4.053   1.881   3.426  0.2653  0.2697  0.3950
 2149SOL    HW2 8649   4.126   1.927   3.468  0.2721  0.0143  0.6695
 2149SOL    HW3 8650   4.074   1.883   3.333  0.5880  0.2683  0.4645
 2149SOL    MW4 8651   4.066   1.887   3.419  0.3090  0.2357  0.4404
 2150SOL     OW 8652   4.277   2.026   3.505  0.2035 -0.1441 -0.0332
 2150SOL    HW2 8653   4.276   2.120   3.486 -1.2005 -0.3010 -0.8393
 2150SOL    HW3 8654   4.364   1.997   3.476  0.0146  0.6010 -1.4199
 2150SOL    MW4 8655   4.288   2.035   3.498 -0.0072 -0.0663 -0.3223
 2151SOL     OW 8656   4.289   2.294   3.386  0.0075  0.1706 -0.0736
 2151SOL    HW2 8657   4.211   2.342   3.413 -0.2404 -0.4371  0.2949
 2151SOL    HW3 8658   4.277   2.278   3.293 -0.5809 -0.4322  0.1057
 2151SOL    MW4 8659   4.277   2.298   3.377 -0.1025  0.0107 -0.0014
 2152SOL     OW 8660   4.059   2.423   3.482  0.6593 -0.3213 -0.0245
 2152SOL    HW2 8661   4.065   2.428   3.577  0.2038 -0.2777  0.0047
 2152SOL    HW3 8662   4.064   2.514   3.452 -0.0600 -0.2606  0.0178
 2152SOL    MW4 8663   4.060   2.436   3.490  0.5040 -0.3076 -0.0150
 2153SOL     OW 8664   4.051   2.677   3.369 -0.3716 -0.4724  0.4505
 2153SOL    HW2 8665   4.124   2.731   3.399 -0.6329  0.0418  0.1688
 2153SOL    HW3 8666   3.974   2.733   3.378 -0.5524 -0.5490 -0.4869
 2153SOL    MW4 8667   4.051   2.691   3.374 -0.4301 -0.4148  0.2894
 2154SOL     OW 8668   4.273   2.834   3.493 -0.0454 -0.1560  0.4103
 2154SOL    HW2 8669   4.285   2.856   3.585 -1.4616  0.3095  0.4984
 2154SOL    HW3 8670   4.340   2.769   3.474  2.0128  1.7401  1.0554
 2154SOL    MW4 8671   4.283   2.828   3.502  0.0391  0.1554  0.5071
 2155SOL     OW 8672   4.318   3.098   3.412  0.4455 -0.1306 -0.5452
 2155SOL    HW2 8673   4.318   3.006   3.440  0.8634 -0.1257 -0.5215
 2155SOL    HW3 8674   4.311   3.094   3.317 -0.7189 -0.1560 -0.4566
 2155SOL    MW4 8675   4.317   3.085   3.403  0.3476 -0.1333 -0.5302
 2156SOL     OW 8676   4.067   3.206   3.481 -0.6390  0.4181  0.3301
 2156SOL    HW2 8677   4.079   3.286   3.430  1.5390 -0.4037 -0.5013
 2156SOL    HW3 8678   4.144   3.153   3.461 -2.4397 -2.2646  0.1878
 2156SOL    MW4 8679   4.079   3.209   3.471 -0.5884 -0.0441  0.2015
 2157SOL     OW 8680   4.054   3.481   3.372  0.0510 -0.1261  0.1954
 2157SOL    HW2 8681   4.128   3.519   3.420  0.2136  0.9670 -0.9091
 2157SOL    HW3 8682   3.978   3.529   3.403  0.1498  0.5476 -0.5907
 2157SOL    MW4 8683   4.054   3.492   3.383  0.0854  0.1068 -0.0539
 2158SOL     OW 8684   4.266   3.606   3.506 -0.3944 -0.5679  0.0892
 2158SOL    HW2 8685   4.259   3.599   3.601  2.0452  0.8349  0.4144
 2158SOL    HW3 8686   4.267   3.700   3.489  0.0500 -0.8053 -1.2354
 2158SOL    MW4 8687   4.265   3.617   3.516 -0.0134 -0.4141 -0.0427
 2159SOL     OW 8688   4.265   3.869   3.429  0.1248  0.4774 -0.5991
 2159SOL    HW2 8689   4.351   3.894   3.464  0.9377 -1.9713 -0.7827
 2159SOL    HW3 8690   4.272   3.887   3.335 -0.1592  1.8229 -0.3817
 2159SOL    MW4 8691   4.277   3.875   3.421  0.1950  0.3319 -0.5949
 2160SOL     OW 8692   4.044   3.997   3.514  0.1521  0.2088  0.4465
 2160SOL    HW2 8693   4.116   3.941   3.482 -0.6231 -1.3727  1.3772
 2160SOL    HW3 8694   3.966   3.961   3.472 -0.5694 -0.4680  2.3084
 2160SOL    MW4 8695   4.043   3.985   3.504 -0.0458 -0.0894  0.8149
 2161SOL     OW 8696   4.062   4.248   3.400  0.1849  0.4751 -0.5349
 2161SOL    HW2 8697   4.049   4.177   3.462 -0.0790 -0.0228 -1.1562
 2161SOL    HW3 8698   3.988   4.307   3.415  0.0809  0.3172 -0.4313
 2161SOL    MW4 8699   4.050   4.246   3.410  0.1364  0.3886 -0.6032
 2162SOL     OW 8700   4.325   4.383   3.473  0.4205 -0.3678  0.3132
 2162SOL    HW2 8701   4.315   4.374   3.568 -0.6816  0.8610  0.3412
 2162SOL    HW3 8702   4.237   4.370   3.439  0.3373  1.5888 -0.3106
 2162SOL    MW4 8703   4.312   4.380   3.481  0.2642  0.0525  0.2344
 2163SOL     OW 8704   0.240   4.608   3.920  0.3031 -0.2116 -0.4993
 2163SOL    HW2 8705   0.230   4.605   4.016 -1.5491 -1.4018 -0.7043
 2163SOL    HW3 8706   0.178   4.675   3.892  3.4788  2.8669 -0.6208
 2163SOL    MW4 8707   0.231   4.617   3.929  0.4777  0.0375 -0.5424
 2164SOL     OW 8708   0.041   0.143   3.860  0.1879  0.1228 -0.1639
 2164SOL    HW2 8709   0.018   0.232   3.885 -1.4143  0.1003 -1.4116
 2164SOL    HW3 8710   0.016   0.138   3.767  0.0790 -1.6706 -0.0503
 2164SOL    MW4 8711   0.034   0.154   3.851 -0.0381 -0.1168 -0.3135
 2165SOL     OW 8712   4.464   0.424   3.909  0.0985 -0.3359 -0.1829
 2165SOL    HW2 8713   4.407   0.487   3.866 -0.8695 -0.9342  0.1968
 2165SOL    HW3 8714   4.552   0.453   3.888 -0.3221  1.4940  0.5064
 2165SOL    MW4 8715   4.468   0.436   3.900 -0.0849 -0.1734 -0.0417
 2166SOL     OW 8716   0.226   0.496   3.834 -0.4147  0.2356  0.2606
 2166SOL    HW2 8717   0.245   0.585   3.864  0.5045  0.4206 -0.8525
 2166SOL    HW3 8718   0.213   0.505   3.740  0.4264 -0.9251  0.0241
 2166SOL    MW4 8719   0.227   0.509   3.825 -0.1825  0.1069  0.0825
 2167SOL     OW 8720   0.248   0.787   3.868 -0.2317 -0.1065 -0.0705
 2167SOL    HW2 8721   0.240   0.783   3.963 -0.4425 -0.8551 -0.1198
 2167SOL    HW3 8722   0.168   0.830   3.838  0.9229  2.3601  0.2689
 2167SOL    MW4 8723   0.237   0.792   3.877 -0.1072  0.1202 -0.0324
 2168SOL     OW 8724   0.002   0.921   3.815 -0.4095  0.2742 -0.0558
 2168SOL    HW2 8725  -0.084   0.883   3.838 -1.3875  1.6128 -1.4105
 2168SOL    HW3 8726   0.017   0.989   3.881 -0.8027  0.6289 -0.3297
 2168SOL    MW4 8727  -0.008   0.925   3.827 -0.5904  0.4976 -0.2708
 2169SOL     OW 8728   0.028   1.176   3.934 -0.2783 -0.3927  0.2793
 2169SOL    HW2 8729  -0.055   1.195   3.890  0.3733 -0.7404 -1.1342
 2169SOL    HW3 8730   0.095   1.213   3.876  0.6541 -1.7460  0.4669
 2169SOL    MW4 8731   0.026   1.183   3.920 -0.0693 -0.6171  0.1180
 2170SOL     OW 8732   0.226   1.299   3.798  0.0817 -0.3035 -0.1645
 2170SOL    HW2 8733   0.219   1.386   3.838  1.8479  0.3444 -1.2039
 2170SOL    HW3 8734   0.230   1.317   3.704  2.7259 -1.3537 -0.2764
 2170SOL    MW4 8735   0.226   1.313   3.791  0.6636 -0.3566 -0.3164
 2171SOL     OW 8736   0.208   1.553   3.910 -0.0650 -0.2192  0.0354
 2171SOL    HW2 8737   0.199   1.547   4.005  0.4099 -0.4077  0.0715
 2171SOL    HW3 8738   0.123   1.584   3.880  0.2908  1.4158  0.6648
 2171SOL    MW4 8739   0.196   1.556   3.919  0.0446 -0.0283  0.1235
 2172SOL     OW 8740   4.481   1.667   3.778  0.0639  0.1301  0.2925
 2172SOL    HW2 8741   4.495   1.751   3.823  1.1602 -0.2318  0.6441
 2172SOL    HW3 8742   4.518   1.680   3.691  0.7766 -0.1743  0.5458
 2172SOL    MW4 8743   4.488   1.680   3.773  0.3026  0.0422  0.3722
 2173SOL     OW 8744   0.048   1.906   3.884  0.3312  0.1753  0.3476
 2173SOL    HW2 8745   0.053   1.909   3.980  0.8194 -0.7394  0.3536
 2173SOL    HW3 8746  -0.040   1.940   3.864  0.0790  0.0082  1.1387
 2173SOL    MW4 8747   0.037   1.911   3.894  0.3624  0.0325  0.4530
 2174SOL     OW 8748   0.254   2.058   3.786 -0.0014 -0.0412  0.2012
 2174SOL    HW2 8749   0.267   2.139   3.834 -1.8561  0.5180 -0.2104
 2174SOL    HW3 8750   0.172   2.022   3.821  0.1992 -1.1313 -0.4253
 2174SOL    MW4 8751   0.245   2.064   3.797 -0.2196 -0.1109  0.0639
 2175SOL     OW 8752   0.236   2.294   3.920 -0.3552 -0.0277 -0.1827
 2175SOL    HW2 8753   0.227   2.308   4.014  0.7574  0.3026 -0.1184
 2175SOL    HW3 8754   0.152   2.321   3.883 -0.5387  0.5198  0.6404
 2175SOL    MW4 8755   0.224   2.299   3.927 -0.2326  0.0880 -0.0653
 2176SOL     OW 8756   4.480   2.418   3.782  0.0805 -0.3899  0.3112
 2176SOL    HW2 8757   4.402   2.370   3.806 -0.2954 -0.6074 -1.2892
 2176SOL    HW3 8758   4.474   2.501   3.830 -2.0276  0.3366 -1.1699
 2176SOL    MW4 8759   4.469   2.423   3.791 -0.2472 -0.3228 -0.0954
 2177SOL     OW 8760   4.462   2.676   3.897 -0.0337 -0.1363 -0.1814
 2177SOL    HW2 8761   4.543   2.719   3.871 -0.0544  1.2787  1.9185
 2177SOL    HW3 8762   4.463   2.680   3.993 -1.3318 -2.4587 -0.0427
 2177SOL    MW4 8763   4.473   2.683   3.907 -0.2079 -0.2561  0.1142
 2178SOL     OW 8764   0.200   2.807   3.798  0.0710 -0.0017 -0.4073
 2178SOL    HW2 8765   0.284   2.770   3.826  0.7537  1.1773 -0.8434
 2178SOL    HW3 8766   0.198   2.792   3.704  0.2672  0.9058 -0.5562
 2178SOL    MW4 8767   0.211   2.800   3.789  0.1869  0.2737 -0.4845
 2179SOL     OW 8768   0.241   3.086   3.878 -0.2597 -0.4859  0.2236
 2179SOL    HW2 8769   0.250   3.074   3.972 -1.0395 -0.0601  0.3540
 2179SOL    HW3 8770   0.222   2.999   3.844 -1.6743 -0.3607  0.6685
 2179SOL    MW4 8771   0.240   3.073   3.886 -0.5492 -0.4134  0.2995
 2180SOL     OW 8772   4.472   3.172   3.803 -0.6714  0.4569 -0.1764
 2180SOL    HW2 8773   4.560   3.145   3.831 -1.0751 -1.4279 -0.7124
 2180SOL    HW3 8774   4.485   3.203   3.714 -0.7402 -0.8657 -0.6485
 2180SOL    MW4 8775   4.486   3.173   3.795 -0.7339  0.0339 -0.3090
 2181SOL     OW 8776   4.478   3.450   3.888 -0.0836 -0.1732 -0.0685
 2181SOL    HW2 8777   4.559   3.483   3.849 -0.7153 -0.2817 -1.5007
 2181SOL    HW3 8778   4.478   3.357   3.868 -0.2872 -0.2822  0.4343
 2181SOL    MW4 8779   4.489   3.442   3.881 -0.1945 -0.2019 -0.1912
 2182SOL     OW 8780   0.236   3.559   3.812  0.1371  0.0861  0.2123
 2182SOL    HW2 8781   0.308   3.524   3.863  1.0710  0.9650 -0.4848
 2182SOL    HW3 8782   0.225   3.648   3.843  0.8899  0.7210 -1.2692
 2182SOL    MW4 8783   0.244   3.566   3.823  0.3597  0.2861 -0.0751
 2183SOL     OW 8784   0.209   3.826   3.893 -0.0288  0.0781  0.8501
 2183SOL    HW2 8785   0.230   3.839   3.986  0.3119 -0.1295  0.8006
 2183SOL    HW3 8786   0.275   3.876   3.846  0.1839 -0.3488  0.7019
 2183SOL    MW4 8787   0.220   3.834   3.899  0.0442 -0.0055  0.8240
 2184SOL     OW 8788   0.027   4.015   3.807 -0.0826 -0.4118  0.0372
 2184SOL    HW2 8789  -0.061   3.980   3.825  0.7394 -3.0524 -0.7406
 2184SOL    HW3 8790   0.086   3.959   3.858  1.1060  2.2616  1.7262
 2184SOL    MW4 8791   0.023   4.003   3.816  0.1827 -0.4067  0.1571
 2185SOL     OW 8792   0.033   4.289   3.878 -0.1303  0.3673  0.2253
 2185SOL    HW2 8793   0.113   4.327   3.841 -0.7546 -0.2739 -1.8508
 2185SOL    HW3 8794   0.040   4.196   3.859 -0.8709  0.1527  0.9841
 2185SOL    MW4 8795   0.044   4.282   3.870 -0.3104  0.2542  0.0515
 2186SOL     OW 8796   0.267   4.387   3.756  0.2507 -0.7077 -0.5860
 2186SOL    HW2 8797   0.318   4.323   3.806  1.3970 -0.3125 -1.2360
 2186SOL    HW3 8798   0.255   4.460   3.817  1.9799 -0.0645 -1.0106
 2186SOL    MW4 8799   0.272   4.388   3.771  0.6301 -0.5708 -0.7277
 2187SOL     OW 8800   0.682   4.602   3.858 -0.3699  0.4573  0.0599
 2187SOL    HW2 8801   0.667   4.518   3.815  1.4733  0.7271 -1.1548
 2187SOL    HW3 8802   0.602   4.652   3.841 -0.0377  0.2287 -2.3101
 2187SOL    MW4 8803   0.669   4.597   3.850 -0.0829  0.4625 -0.4132
 2188SOL     OW 8804   0.456   0.086   3.810  0.0613  0.2877 -0.2918
 2188SOL    HW2 8805   0.453   0.174   3.850  0.5323  0.2820 -0.2402
 2188SOL    HW3 8806   0.376   0.043   3.842  0.5476  0.2009  0.8519
 2188SOL    MW4 8807   0.445   0.092   3.820  0.1876  0.2755 -0.1340
 2189SOL     OW 8808   0.453   0.354   3.903 -0.3890  0.3820 -0.3217
 2189SOL    HW2 8809   0.505   0.425   3.865  0.5209  0.1460  0.4803
 2189SOL    HW3 8810   0.362   0.380   3.888 -0.0467  0.9926 -1.3607
 2189SOL    MW4 8811   0.448   0.367   3.896 -0.2238  0.4314 -0.3529
 2190SOL     OW 8812   0.670   0.537   3.786  0.0204 -0.1509  0.2607
 2190SOL    HW2 8813   0.746   0.483   3.807  0.8508 -1.0988 -4.5836
 2190SOL    HW3 8814   0.687   0.620   3.829  2.2733 -1.3982  1.8649
 2190SOL    MW4 8815   0.683   0.541   3.794  0.4272 -0.4405 -0.1669
 2191SOL     OW 8816   0.725   0.787   3.901 -0.1756 -0.4900  0.3016
 2191SOL    HW2 8817   0.798   0.825   3.853 -0.3319 -0.4338  0.1060
 2191SOL    HW3 8818   0.647   0.828   3.863 -0.1978  1.1198  2.0243
 2191SOL    MW4 8819   0.724   0.797   3.890 -0.1992 -0.2703  0.5031
 2192SOL     OW 8820   0.500   0.881   3.765  0.3972  0.1473 -0.1184
 2192SOL    HW2 8821   0.488   0.975   3.781  2.4868  0.7225 -1.8018
 2192SOL    HW3 8822   0.418   0.842   3.795  0.0543  2.3263  1.9934
 2192SOL    MW4 8823   0.487   0.888   3.771  0.6276  0.5106 -0.0618
 2193SOL     OW 8824   0.428   1.129   3.875  0.2906 -0.2793  0.5526
 2193SOL    HW2 8825   0.517   1.164   3.864  0.4082 -0.5331  0.7057
 2193SOL    HW3 8826   0.373   1.188   3.822  0.7264 -0.9036 -0.6121
 2193SOL    MW4 8827   0.432   1.142   3.867  0.3636 -0.3951  0.4191
 2194SOL     OW 8828   0.656   1.247   3.777  0.0665 -0.1193 -0.3514
 2194SOL    HW2 8829   0.734   1.222   3.826 -0.5089  0.1227  0.6962
 2194SOL    HW3 8830   0.682   1.241   3.685  1.0138 -1.0249 -0.0267
 2194SOL    MW4 8831   0.669   1.243   3.771  0.1156 -0.2068 -0.1702
 2195SOL     OW 8832   0.653   1.484   3.897 -0.0608 -0.1476 -0.2436
 2195SOL    HW2 8833   0.725   1.522   3.846  0.3849 -0.8095 -0.1194
 2195SOL    HW3 8834   0.647   1.394   3.865 -1.9784  0.3891 -1.4701
 2195SOL    MW4 8835   0.662   1.477   3.886 -0.2550 -0.1640 -0.3889
 2196SOL     OW 8836   0.450   1.620   3.785 -0.8631 -0.4015 -0.0995
 2196SOL    HW2 8837   0.527   1.571   3.815 -0.3256 -0.5623 -1.7231
 2196SOL    HW3 8838   0.376   1.575   3.827 -0.0753 -0.0508  1.7272
 2196SOL    MW4 8839   0.450   1.607   3.794 -0.6882 -0.3765 -0.0725
 2197SOL     OW 8840   0.459   1.895   3.869 -0.0019  0.1874 -0.3381
 2197SOL    HW2 8841   0.443   1.806   3.838 -0.1404  0.2386 -0.4154
 2197SOL    HW3 8842   0.384   1.945   3.838  0.9044  0.6959 -1.7894
 2197SOL    MW4 8843   0.447   1.890   3.861  0.0994  0.2611 -0.5398
 2198SOL     OW 8844   0.691   2.011   3.772  0.2975  0.0978 -0.0673
 2198SOL    HW2 8845   0.693   2.101   3.804  1.0232  0.2878 -0.6224
 2198SOL    HW3 8846   0.611   1.974   3.809  0.3463  0.7637  0.7217
 2198SOL    MW4 8847   0.681   2.018   3.781  0.3998  0.2108 -0.0367
 2199SOL     OW 8848   0.727   2.279   3.876 -0.0391  0.0886  0.4329
 2199SOL    HW2 8849   0.790   2.331   3.826 -0.0998 -2.0803 -2.0529
 2199SOL    HW3 8850   0.647   2.331   3.876  0.7346  1.2952  0.5702
 2199SOL    MW4 8851   0.724   2.293   3.869  0.0550 -0.0384  0.1230
 2200SOL     OW 8852   0.498   2.421   3.840 -0.1753  0.4107  0.2368
 2200SOL    HW2 8853   0.430   2.383   3.895 -1.3122  1.3421 -0.4942
 2200SOL    HW3 8854   0.467   2.405   3.750  0.3290  1.2556 -0.0934
 2200SOL    MW4 8855   0.485   2.414   3.835 -0.2587  0.6449  0.0968
 2201SOL     OW 8856   0.456   2.684   3.866 -0.1527  0.3957  0.6180
 2201SOL    HW2 8857   0.524   2.740   3.826 -1.9350  0.6496 -2.2300
 2201SOL    HW3 8858   0.491   2.595   3.857  0.3190  0.6168  0.1903
 2201SOL    MW4 8859   0.470   2.680   3.859 -0.3256  0.4582  0.1857
 2202SOL     OW 8860   0.694   2.818   3.808  0.6706 -0.0864 -0.0629
 2202SOL    HW2 8861   0.773   2.766   3.824  0.4394 -0.9224 -1.5752
 2202SOL    HW3 8862   0.705   2.852   3.719 -0.5832 -0.0640 -0.2170
 2202SOL    MW4 8863   0.706   2.815   3.798  0.4747 -0.1938 -0.2828
 2203SOL     OW 8864   0.674   3.053   3.927  0.3353 -0.2153  0.3472
 2203SOL    HW2 8865   0.677   3.042   4.022  0.3742 -0.2040  0.3473
 2203SOL    HW3 8866   0.688   2.965   3.892 -0.1961 -0.3087  0.3584
 2203SOL    MW4 8867   0.676   3.040   3.935  0.2702 -0.2263  0.3486
 2204SOL     OW 8868   0.480   3.190   3.780  0.1862 -0.0549 -0.1660
 2204SOL    HW2 8869   0.557   3.161   3.828  0.8042 -0.5637 -1.4507
 2204SOL    HW3 8870   0.406   3.147   3.824  0.8087 -1.0625 -0.0973
 2204SOL    MW4 8871   0.480   3.181   3.792  0.3499 -0.2549 -0.3266
 2205SOL     OW 8872   0.466   3.441   3.916 -0.0765  0.3231  0.3573
 2205SOL    HW2 8873   0.543   3.491   3.889  0.2394 -0.3251  0.0326
 2205SOL    HW3 8874   0.475   3.357   3.870 -0.5468 -0.0664  0.9665
 2205SOL    MW4 8875   0.477   3.436   3.906 -0.0969  0.1862  0.3948
 2206SOL     OW 8876   0.691   3.583   3.791 -0.2486 -0.3476  0.4040
 2206SOL    HW2 8877   0.700   3.668   3.834  2.0856 -0.9172  1.0944
 2206SOL    HW3 8878   0.690   3.604   3.697  1.1522  0.3825  0.5436
 2206SOL    MW4 8879   0.692   3.597   3.784  0.2442 -0.3266  0.5136
 2207SOL     OW 8880   0.674   3.842   3.919 -0.3982 -1.0915 -0.0427
 2207SOL    HW2 8881   0.695   3.853   4.012 -0.9316  0.9990 -0.1492
 2207SOL    HW3 8882   0.741   3.893   3.873  0.8757 -3.4735 -0.9107
 2207SOL    MW4 8883   0.686   3.850   3.925 -0.3004 -1.1299 -0.1714
 2208SOL     OW 8884   0.435   3.956   3.765  0.8633 -0.2273 -0.1591
 2208SOL    HW2 8885   0.511   3.913   3.804  1.0232 -1.2881 -1.5878
 2208SOL    HW3 8886   0.463   3.980   3.677 -0.7120 -1.4782 -1.0389
 2208SOL    MW4 8887   0.448   3.953   3.758  0.6766 -0.5322 -0.4637
 2209SOL     OW 8888   0.448   4.222   3.858  0.4974  0.3558 -0.3760
 2209SOL    HW2 8889   0.524   4.268   3.821 -1.0887  2.5674 -0.9258
 2209SOL    HW3 8890   0.462   4.130   3.832  1.7776  1.1019 -2.5089
 2209SOL    MW4 8891   0.460   4.216   3.849  0.4570  0.7458 -0.7298
 2210SOL     OW 8892   0.674   4.346   3.765  0.0615 -0.0600 -0.3003
 2210SOL    HW2 8893   0.759   4.331   3.807  0.3674  2.5149  0.0680
 2210SOL    HW3 8894   0.695   4.355   3.672  0.2560  1.0418 -0.1514
 2210SOL    MW4 8895   0.688   4.345   3.758  0.1275  0.4249 -0.2320
 2211SOL     OW 8896   1.134   4.634   3.884  0.5490 -0.2573  0.5243
 2211SOL    HW2 8897   1.200   4.685   3.838  1.6731 -1.7093  0.4951
 2211SOL    HW3 8898   1.146   4.544   3.852 -1.1515 -0.6233  0.8374
 2211SOL    MW4 8899   1.144   4.629   3.873  0.4730 -0.4969  0.5620
 2212SOL     OW 8900   0.904   0.073   3.788  0.3453 -0.3441  0.3282
 2212SOL    HW2 8901   0.979   0.039   3.837  0.6562 -0.3267 -0.1298
 2212SOL    HW3 8902   0.829   0.027   3.824  0.2204  1.5642  2.6466
 2212SOL    MW4 8903   0.904   0.062   3.799  0.3698 -0.0900  0.5736
 2213SOL     OW 8904   0.886   0.359   3.872  0.0733 -0.3592 -0.1427
 2213SOL    HW2 8905   0.877   0.350   3.967 -0.0557 -0.4879 -0.1664
 2213SOL    HW3 8906   0.896   0.269   3.841  1.5892 -0.2165 -0.1029
 2213SOL    MW4 8907   0.886   0.346   3.881  0.2563 -0.3573 -0.1407
 2214SOL     OW 8908   1.114   0.522   3.832 -0.4986 -0.3594 -0.3473
 2214SOL    HW2 8909   1.183   0.475   3.878  0.8987  0.3724 -1.6419
 2214SOL    HW3 8910   1.034   0.473   3.852  0.3388 -1.0806  1.3725
 2214SOL    MW4 8911   1.112   0.509   3.841 -0.2036 -0.3580 -0.2911
 2215SOL     OW 8912   1.147   0.795   3.878  0.0905  0.0229  0.1536
 2215SOL    HW2 8913   1.165   0.788   3.971  1.2426 -0.3404 -0.0930
 2215SOL    HW3 8914   1.139   0.704   3.848 -1.3466  0.1515  0.0907
 2215SOL    MW4 8915   1.148   0.782   3.886  0.0529 -0.0080  0.1128
 2216SOL     OW 8916   0.934   0.907   3.753 -0.2013  0.3849  0.3046
 2216SOL    HW2 8917   1.014   0.878   3.796 -0.6378 -1.2168  0.0681
 2216SOL    HW3 8918   0.952   0.897   3.659 -1.2257 -1.5612  0.2862
 2216SOL    MW4 8919   0.947   0.902   3.746 -0.3941 -0.0832  0.2711
 2217SOL     OW 8920   0.910   1.148   3.909  0.3880  0.1382  0.0183
 2217SOL    HW2 8921   0.939   1.140   4.000  3.1937  0.3372 -0.8082
 2217SOL    HW3 8922   0.922   1.060   3.873 -0.4739  0.1235 -0.2316
 2217SOL    MW4 8923   0.915   1.136   3.916  0.6444  0.1624 -0.1237
 2218SOL     OW 8924   1.122   1.240   3.767 -0.2868 -0.2286 -0.0563
 2218SOL    HW2 8925   1.149   1.326   3.801  0.3635 -1.1485  1.8832
 2218SOL    HW3 8926   1.047   1.216   3.822  0.4861 -1.5537  0.4212
 2218SOL    MW4 8927   1.116   1.248   3.779 -0.0991 -0.5248  0.2625
 2219SOL     OW 8928   1.127   1.507   3.848 -0.6073 -0.1377 -0.0563
 2219SOL    HW2 8929   1.118   1.518   3.942  1.7364 -1.2997  0.3450
 2219SOL    HW3 8930   1.201   1.561   3.824 -0.6236 -0.5510 -1.0815
 2219SOL    MW4 8931   1.135   1.515   3.857 -0.3003 -0.3455 -0.1385
 2220SOL     OW 8932   0.875   1.601   3.778 -0.4788 -0.1221  0.2091
 2220SOL    HW2 8933   0.960   1.571   3.809  0.1858  0.3890 -1.1053
 2220SOL    HW3 8934   0.889   1.625   3.687 -1.4898  2.1980  0.6192
 2220SOL    MW4 8935   0.888   1.600   3.770 -0.5246  0.2514  0.0899
 2221SOL     OW 8936   0.898   1.859   3.876 -0.1673  0.2548  0.2446
 2221SOL    HW2 8937   0.889   1.769   3.843  0.2642  0.1932  0.2851
 2221SOL    HW3 8938   0.820   1.904   3.844  0.5497  0.3609 -1.4039
 2221SOL    MW4 8939   0.887   1.853   3.868 -0.0157  0.2607  0.0327
 2222SOL     OW 8940   1.112   2.004   3.760 -0.2605 -0.0977  0.1265
 2222SOL    HW2 8941   1.043   1.951   3.800 -0.8943  0.7748  0.1924
 2222SOL    HW3 8942   1.090   2.005   3.667 -0.4243  0.3052  0.1681
 2222SOL    MW4 8943   1.100   1.997   3.753 -0.3659  0.0706  0.1407
 2223SOL     OW 8944   1.119   2.269   3.861 -0.1422 -0.6583  0.3561
 2223SOL    HW2 8945   1.110   2.266   3.957 -0.3042 -1.7040  0.3129
 2223SOL    HW3 8946   1.113   2.177   3.834  0.4395 -0.4078 -0.6120
 2223SOL    MW4 8947   1.117   2.256   3.870 -0.0868 -0.7634  0.2227
 2224SOL     OW 8948   0.928   2.439   3.752  0.0264  0.3343  0.0436
 2224SOL    HW2 8949   0.924   2.524   3.796  0.3058  0.2344  0.2691
 2224SOL    HW3 8950   1.005   2.396   3.790  0.1974  0.1966 -0.4582
 2224SOL    MW4 8951   0.938   2.444   3.763  0.0859  0.3030  0.0074
 2225SOL     OW 8952   0.915   2.686   3.876 -0.3611 -0.0979 -0.6081
 2225SOL    HW2 8953   0.921   2.668   3.970  0.0313 -0.3885 -0.6881
 2225SOL    HW3 8954   0.985   2.749   3.859  0.9569 -1.6560 -1.0954
 2225SOL    MW4 8955   0.925   2.692   3.886 -0.1354 -0.3417 -0.6828
 2226SOL     OW 8956   1.142   2.831   3.785  0.3356 -0.1816  0.1170
 2226SOL    HW2 8957   1.220   2.778   3.803 -0.4612 -1.1557  0.7437
 2226SOL    HW3 8958   1.155   2.912   3.834  1.7503  0.3923 -1.1672
 2226SOL    MW4 8959   1.154   2.835   3.794  0.4171 -0.2346  0.0300
 2227SOL     OW 8960   1.124   3.093   3.891 -0.0055  0.0449 -0.2203
 2227SOL    HW2 8961   1.196   3.146   3.856  1.0274 -0.6673  0.7742
 2227SOL    HW3 8962   1.045   3.143   3.871  0.9188  1.8623  0.5022
 2227SOL    MW4 8963   1.123   3.107   3.884  0.2527  0.1907  0.0062
 2228SOL     OW 8964   0.871   3.202   3.833  0.1960 -0.0231  0.0617
 2228SOL    HW2 8965   0.803   3.143   3.864  0.2141 -0.7350 -1.2039
 2228SOL    HW3 8966   0.864   3.198   3.737  2.5737 -0.7768 -0.1124
 2228SOL    MW4 8967   0.861   3.194   3.824  0.5121 -0.2165 -0.1285
 2229SOL     OW 8968   0.902   3.460   3.894  0.0147  0.1370  0.3649
 2229SOL    HW2 8969   0.890   3.367   3.875 -0.2767 -0.1384  1.8166
 2229SOL    HW3 8970   0.824   3.502   3.859  1.7684  0.3534 -3.5472
 2229SOL    MW4 8971   0.890   3.453   3.887  0.2077  0.1292  0.0405
 2230SOL     OW 8972   1.107   3.603   3.772 -0.0880 -0.1416  0.3663
 2230SOL    HW2 8973   1.108   3.691   3.809 -0.6497 -0.1492  0.3953
 2230SOL    HW3 8974   1.036   3.558   3.817  0.7521 -0.8818  0.9758
 2230SOL    MW4 8975   1.098   3.608   3.783 -0.0511 -0.2401  0.4504
 2231SOL     OW 8976   1.128   3.861   3.848 -0.3545  0.4292  0.3568
 2231SOL    HW2 8977   1.133   3.877   3.943  1.2323 -0.7065  0.4771
 2231SOL    HW3 8978   1.211   3.895   3.814  0.0873 -1.2629 -0.2944
 2231SOL    MW4 8979   1.140   3.868   3.856 -0.0869  0.0560  0.2868
 2232SOL     OW 8980   0.898   3.986   3.778 -0.1043  0.0869 -0.0398
 2232SOL    HW2 8981   0.979   3.942   3.806 -0.3365 -0.1916  0.2031
 2232SOL    HW3 8982   0.901   3.982   3.682  0.2109  0.1517 -0.0338
 2232SOL    MW4 8983   0.909   3.979   3.769 -0.0933  0.0584 -0.0069
 2233SOL     OW 8984   0.910   4.235   3.877 -0.2594  0.1471 -0.5594
 2233SOL    HW2 8985   0.901   4.219   3.971  0.0884 -0.0292 -0.5547
 2233SOL    HW3 8986   0.916   4.148   3.839 -0.6529  0.2136 -0.7695
 2233SOL    MW4 8987   0.910   4.221   3.884 -0.2654  0.1321 -0.5867
 2234SOL     OW 8988   1.140   4.368   3.801  0.0035 -0.5277  0.0742
 2234SOL    HW2 8989   1.057   4.334   3.833  0.9640 -2.1565  0.8745
 2234SOL    HW3 8990   1.136   4.355   3.706 -0.6466 -0.6064  0.1085
 2234SOL    MW4 8991   1.128   4.362   3.793  0.0446 -0.7529  0.1843
 2235SOL     OW 8992   1.561   4.657   3.852 -0.0547 -0.2846  0.4350
 2235SOL    HW2 8993   1.546   4.656   3.947 -0.3593 -0.3418  0.3871
 2235SOL    HW3 8994   1.550   4.566   3.826  0.6205 -0.3675  0.4349
 2235SOL    MW4 8995   1.558   4.645   3.861 -0.0057 -0.3028  0.4289
 2236SOL     OW 8996   1.335   0.124   3.768 -0.4500  0.0006 -0.0301
 2236SOL    HW2 8997   1.334   0.213   3.804 -0.4969  0.1632 -0.4382
 2236SOL    HW3 8998   1.419   0.088   3.797 -0.1352  0.4103 -0.4359
 2236SOL    MW4 8999   1.346   0.131   3.777 -0.4146  0.0761 -0.1376
 2237SOL     OW 9000   1.342   0.373   3.898 -0.0054 -0.1512  0.2297
 2237SOL    HW2 9001   1.370   0.381   3.989 -0.4955  0.3198  0.3403
 2237SOL    HW3 9002   1.409   0.422   3.849  1.0004 -1.5229  0.1914
 2237SOL    MW4 9003   1.355   0.381   3.904  0.0625 -0.2700  0.2389
 2238SOL     OW 9004   1.552   0.517   3.766  0.0496 -0.4886 -0.2203
 2238SOL    HW2 9005   1.639   0.486   3.792  0.1574 -0.4442 -0.5233
 2238SOL    HW3 9006   1.541   0.601   3.811 -0.1296 -0.8307  0.3829
 2238SOL    MW4 9007   1.562   0.524   3.775  0.0401 -0.5279 -0.1807
 2239SOL     OW 9008   1.537   0.777   3.914  0.8635 -0.2263 -0.7494
 2239SOL    HW2 9009   1.618   0.809   3.874  0.4896  2.5586  0.6220
 2239SOL    HW3 9010   1.469   0.796   3.850  0.6801  1.4883 -0.0480
 2239SOL    MW4 9011   1.539   0.783   3.900  0.7900  0.3673 -0.4756
 2240SOL     OW 9012   1.357   0.878   3.735  0.2892  0.0528 -0.3457
 2240SOL    HW2 9013   1.369   0.959   3.785 -0.2268 -0.8399  1.2224
 2240SOL    HW3 9014   1.284   0.834   3.777  1.7940 -2.1637  0.0210
 2240SOL    MW4 9015   1.349   0.883   3.747  0.4197 -0.3574 -0.0904
 2241SOL     OW 9016   1.344   1.123   3.905  0.1371 -0.2061 -0.3282
 2241SOL    HW2 9017   1.420   1.159   3.858  0.2430 -0.1288 -0.0970
 2241SOL    HW3 9018   1.268   1.156   3.856  0.1836  1.6715  0.8142
 2241SOL    MW4 9019   1.344   1.132   3.892  0.1571  0.0519 -0.1471
 2242SOL     OW 9020   1.597   1.265   3.792 -0.2774  0.5248  0.1050
 2242SOL    HW2 9021   1.677   1.222   3.823 -0.4998 -0.9113 -1.2385
 2242SOL    HW3 9022   1.593   1.347   3.841 -0.2605 -1.3516  3.4096
 2242SOL    MW4 9023   1.607   1.270   3.803 -0.3045  0.0877  0.3638
 2243SOL     OW 9024   1.594   1.533   3.896 -0.4626  0.0540 -0.3497
 2243SOL    HW2 9025   1.595   1.547   3.990 -0.8957 -0.5832 -0.2493
 2243SOL    HW3 9026   1.683   1.555   3.867 -0.5103  0.8658  0.1138
 2243SOL    MW4 9027   1.606   1.538   3.904 -0.5260  0.0770 -0.2751
 2244SOL     OW 9028   1.367   1.664   3.781 -0.3013  0.1407 -0.0148
 2244SOL    HW2 9029   1.357   1.754   3.812  0.7506 -0.5639  2.5036
 2244SOL    HW3 9030   1.441   1.629   3.832  0.8683 -1.4031 -2.6813
 2244SOL    MW4 9031   1.375   1.671   3.792 -0.0082 -0.1559 -0.0341
 2245SOL     OW 9032   1.355   1.922   3.861  0.4148 -0.3321  0.6495
 2245SOL    HW2 9033   1.341   1.920   3.956 -1.1453 -2.0381  0.4054
 2245SOL    HW3 9034   1.272   1.955   3.826 -0.2177 -2.8687 -0.3125
 2245SOL    MW4 9035   1.342   1.926   3.869  0.1255 -0.8918  0.4904
 2246SOL     OW 9036   1.590   2.002   3.743  0.0909  0.2357  0.2067
 2246SOL    HW2 9037   1.511   1.964   3.781 -1.2129  1.4421 -1.2843
 2246SOL    HW3 9038   1.586   1.980   3.650  0.4296  2.1068 -0.2728
 2246SOL    MW4 9039   1.579   1.994   3.736 -0.0364  0.6418 -0.0529
 2247SOL     OW 9040   1.580   2.257   3.863 -0.1743  0.0623 -0.3742
 2247SOL    HW2 9041   1.650   2.312   3.830  0.6519 -1.4903 -1.2800
 2247SOL    HW3 9042   1.593   2.173   3.820 -2.3506 -0.3793 -0.2335
 2247SOL    MW4 9043   1.591   2.253   3.853 -0.3524 -0.2010 -0.4752
 2248SOL     OW 9044   1.354   2.391   3.779 -0.5398  0.0495  0.3393
 2248SOL    HW2 9045   1.427   2.343   3.819 -0.5447 -0.3410 -0.1279
 2248SOL    HW3 9046   1.276   2.350   3.814 -0.5718 -1.5537 -1.5431
 2248SOL    MW4 9047   1.354   2.380   3.789 -0.5448 -0.2136  0.0296
 2249SOL     OW 9048   1.355   2.669   3.843  0.1121  0.3823  0.2593
 2249SOL    HW2 9049   1.352   2.675   3.939  1.0421 -0.4113  0.3499
 2249SOL    HW3 9050   1.348   2.575   3.825  0.5600  0.4823 -0.4217
 2249SOL    MW4 9051   1.354   2.657   3.854  0.2939  0.2909  0.1814
 2250SOL     OW 9052   1.558   2.823   3.751  0.1553  0.1851  0.2751
 2250SOL    HW2 9053   1.476   2.781   3.775  0.0595 -0.1053 -0.5402
 2250SOL    HW3 9054   1.566   2.808   3.657  1.1008  0.2848  0.3333
 2250SOL    MW4 9055   1.549   2.816   3.742  0.2675  0.1600  0.1750
 2251SOL     OW 9056   1.554   3.090   3.847  0.1453 -0.5181 -0.4471
 2251SOL    HW2 9057   1.562   3.090   3.942 -2.0765 -1.2918 -0.2421
 2251SOL    HW3 9058   1.553   2.998   3.823  1.1243 -0.3246 -1.2756
 2251SOL    MW4 9059   1.555   3.078   3.856 -0.0186 -0.5949 -0.5293
 2252SOL     OW 9060   1.326   3.230   3.762  0.3589  0.3706 -0.1048
 2252SOL    HW2 9061   1.346   3.316   3.799  0.3429  0.2977  0.0773
 2252SOL    HW3 9062   1.392   3.172   3.801  0.4488  0.3245 -0.3268
 2252SOL    MW4 9063   1.338   3.234   3.772  0.3685  0.3550 -0.1099
 2253SOL     OW 9064   1.359   3.509   3.861  0.2469 -0.0535 -0.0018
 2253SOL    HW2 9065   1.428   3.549   3.808  1.2302 -1.6159  0.0719
 2253SOL    HW3 9066   1.277   3.543   3.825  1.0159  1.0272 -0.7456
 2253SOL    MW4 9067   1.357   3.519   3.850  0.4780 -0.1173 -0.0906
 2254SOL     OW 9068   1.580   3.619   3.757  0.4520  0.1016  0.0467
 2254SOL    HW2 9069   1.658   3.566   3.776 -0.8138 -0.8438  2.9344
 2254SOL    HW3 9070   1.595   3.701   3.805 -0.2471 -0.0226  0.4793
 2254SOL    MW4 9071   1.592   3.623   3.766  0.1928 -0.0396  0.4847
 2255SOL     OW 9072   1.605   3.864   3.858 -0.0828 -0.0700 -0.0753
 2255SOL    HW2 9073   1.608   3.843   3.951 -0.8303 -0.2455 -0.0827
 2255SOL    HW3 9074   1.512   3.879   3.840  0.0565 -0.0352 -0.7892
 2255SOL    MW4 9075   1.593   3.863   3.868 -0.1631 -0.0885 -0.1705
 2256SOL     OW 9076   1.375   3.968   3.781 -0.3943 -0.2356 -0.5176
 2256SOL    HW2 9077   1.386   4.051   3.826  0.5293 -0.7040  0.1411
 2256SOL    HW3 9078   1.367   3.991   3.688 -0.7324  0.6192 -0.2753
 2256SOL    MW4 9079   1.376   3.982   3.774 -0.3169 -0.1843 -0.3989
 2257SOL     OW 9080   1.371   4.230   3.879 -0.1764 -0.0244  0.0411
 2257SOL    HW2 9081   1.444   4.281   3.845 -0.6400  0.9903  0.5580
 2257SOL    HW3 9082   1.293   4.278   3.851 -0.5709  0.9588  2.7034
 2257SOL    MW4 9083   1.370   4.243   3.871 -0.2897  0.2394  0.4606
 2258SOL     OW 9084   1.575   4.368   3.782  0.5167  0.5905 -0.6729
 2258SOL    HW2 9085   1.651   4.339   3.831  0.5656  0.1565 -1.0001
 2258SOL    HW3 9086   1.602   4.363   3.690  0.3727  1.2390 -0.7514
 2258SOL    MW4 9087   1.588   4.363   3.776  0.5041  0.6185 -0.7262
 2259SOL     OW 9088   2.009   0.000   3.904  0.2169  0.0598 -0.2261
 2259SOL    HW2 9089   2.096   0.006   3.864 -0.2473 -2.1144 -1.6189
 2259SOL    HW3 9090   1.978  -0.088   3.882 -2.0379  0.5394  0.8944
 2259SOL    MW4 9091   2.016  -0.011   3.896 -0.1421 -0.1636 -0.2620
 2260SOL     OW 9092   1.818   0.116   3.760 -0.6730 -0.1799  0.0508
 2260SOL    HW2 9093   1.900   0.099   3.806 -1.3581  1.1642  1.8033
 2260SOL    HW3 9094   1.751   0.071   3.812 -1.5424  1.8877  0.7711
 2260SOL    MW4 9095   1.820   0.107   3.773 -0.8782  0.2702  0.3769
 2261SOL     OW 9096   1.770   0.379   3.830  0.0267 -0.0575  0.1030
 2261SOL    HW2 9097   1.766   0.372   3.926  2.7926 -0.0423  0.2706
 2261SOL    HW3 9098   1.781   0.289   3.799 -1.6813 -0.1461 -0.2676
 2261SOL    MW4 9099   1.771   0.367   3.839  0.1663 -0.0672  0.0763
 2262SOL     OW 9100   2.010   0.486   3.784  0.2601  0.0161 -0.1958
 2262SOL    HW2 9101   1.925   0.448   3.805 -0.5645  2.4996  1.2187
 2262SOL    HW3 9102   2.014   0.488   3.688 -1.4863  0.3079 -0.2678
 2262SOL    MW4 9103   2.000   0.481   3.774 -0.0790  0.3823 -0.0186
 2263SOL     OW 9104   2.067   0.753   3.827  0.3815  0.1140 -0.3172
 2263SOL    HW2 9105   2.049   0.757   3.921  0.6751  1.3453 -0.3053
 2263SOL    HW3 9106   2.052   0.661   3.804 -0.7347  0.0228  0.7177
 2263SOL    MW4 9107   2.063   0.741   3.837  0.2730  0.2643 -0.1791
 2264SOL     OW 9108   1.784   0.862   3.807 -0.3639  0.0406  0.0910
 2264SOL    HW2 9109   1.869   0.820   3.815 -1.0055 -1.6054 -1.2170
 2264SOL    HW3 9110   1.773   0.877   3.713 -1.5189  0.1854  0.2337
 2264SOL    MW4 9111   1.794   0.858   3.796 -0.6009 -0.1575 -0.0627
 2265SOL     OW 9112   1.831   1.138   3.875 -0.4962  1.1455 -0.0631
 2265SOL    HW2 9113   1.793   1.147   3.963 -1.6090  0.2925 -0.4400
 2265SOL    HW3 9114   1.832   1.044   3.859  1.1057  1.2059 -0.3714
 2265SOL    MW4 9115   1.826   1.127   3.884 -0.4317  1.0408 -0.1538
 2266SOL     OW 9116   2.035   1.279   3.757  0.2888  0.1249  0.1226
 2266SOL    HW2 9117   2.117   1.234   3.779  0.7731  1.5770  1.3912
 2266SOL    HW3 9118   1.968   1.229   3.804  0.7751  0.4626  1.2034
 2266SOL    MW4 9119   2.037   1.266   3.766  0.4168  0.3611  0.4325
 2267SOL     OW 9120   2.053   1.541   3.845 -0.4343  0.2001  0.1922
 2267SOL    HW2 9121   1.972   1.583   3.818  0.1342  1.6197  0.6541
 2267SOL    HW3 9122   2.047   1.451   3.812 -1.1759  0.9604 -1.7361
 2267SOL    MW4 9123   2.042   1.534   3.837 -0.4573  0.4878 -0.0014
 2268SOL     OW 9124   1.813   1.649   3.785 -0.0280 -0.0948 -0.3321
 2268SOL    HW2 9125   1.801   1.743   3.795 -0.7616 -0.1556 -0.6104
 2268SOL    HW3 9126   1.786   1.630   3.695  1.8875 -0.2988 -0.8795
 2268SOL    MW4 9127   1.808   1.659   3.775  0.1280 -0.1296 -0.4413
 2269SOL     OW 9128   1.818   1.906   3.866  0.4341 -0.3457  0.0359
 2269SOL    HW2 9129   1.806   1.898   3.961  0.6283  0.6485  0.1468
 2269SOL    HW3 9130   1.736   1.944   3.834 -0.2520 -2.1538 -0.4103
 2269SOL    MW4 9131   1.805   1.910   3.874  0.3692 -0.4531 -0.0083
 2270SOL     OW 9132   2.009   2.078   3.769  0.1934 -0.0163 -0.4046
 2270SOL    HW2 9133   1.941   2.025   3.811  2.3801 -1.5030  1.3622
 2270SOL    HW3 9134   1.991   2.070   3.676 -2.4419  0.1918  0.0377
 2270SOL    MW4 9135   1.997   2.070   3.762  0.1343 -0.1850 -0.1135
 2271SOL     OW 9136   2.059   2.335   3.867 -0.1980  0.0287  0.2610
 2271SOL    HW2 9137   2.055   2.245   3.834  0.5250  0.3582 -0.7773
 2271SOL    HW3 9138   1.977   2.375   3.839  0.8834  0.6371 -2.2250
 2271SOL    MW4 9139   2.048   2.328   3.859  0.0398  0.1528 -0.2041
 2272SOL     OW 9140   1.794   2.424   3.786 -0.0527 -0.0012 -0.1466
 2272SOL    HW2 9141   1.794   2.514   3.819  1.1411  0.2177 -0.7287
 2272SOL    HW3 9142   1.778   2.433   3.692  1.4630 -0.3003 -0.4403
 2272SOL    MW4 9143   1.792   2.437   3.778  0.3047 -0.0122 -0.2620
 2273SOL     OW 9144   1.769   2.691   3.840  0.2118 -0.3284  0.5433
 2273SOL    HW2 9145   1.760   2.706   3.934  0.0315  0.8784  0.3458
 2273SOL    HW3 9146   1.687   2.725   3.803  0.2136 -0.9530 -0.0330
 2273SOL    MW4 9147   1.757   2.697   3.848  0.1884 -0.2518  0.4411
 2274SOL     OW 9148   1.989   2.852   3.757 -0.4127  0.5858  0.1699
 2274SOL    HW2 9149   2.067   2.813   3.796 -0.5818 -0.0529 -0.1224
 2274SOL    HW3 9150   1.918   2.791   3.777 -0.7221  0.8464 -0.1038
 2274SOL    MW4 9151   1.990   2.839   3.764 -0.4759  0.5362  0.0949
 2275SOL     OW 9152   2.037   3.111   3.879  0.3148  0.2102 -0.4929
 2275SOL    HW2 9153   2.103   3.153   3.823  1.5106 -0.9174  0.0485
 2275SOL    HW3 9154   2.027   3.023   3.843  0.7573 -0.3734  0.7803
 2275SOL    MW4 9155   2.044   3.105   3.867  0.5310 -0.0155 -0.2534
 2276SOL     OW 9156   1.787   3.244   3.770 -0.2599  0.3881  0.6509
 2276SOL    HW2 9157   1.869   3.204   3.800 -0.2917  0.9629  1.5321
 2276SOL    HW3 9158   1.718   3.188   3.807 -0.2895  0.8379  1.2928
 2276SOL    MW4 9159   1.789   3.231   3.779 -0.2680  0.5236  0.8516
 2277SOL     OW 9160   1.815   3.524   3.853 -0.1240  0.3864  0.1611
 2277SOL    HW2 9161   1.902   3.562   3.839 -0.2230  0.6042  0.1328
 2277SOL    HW3 9162   1.825   3.432   3.828  0.1553  0.3569  0.3740
 2277SOL    MW4 9163   1.828   3.517   3.848 -0.1001  0.4110  0.1855
 2278SOL     OW 9164   2.044   3.649   3.793 -0.0897 -0.3621 -0.2189
 2278SOL    HW2 9165   2.109   3.583   3.816  0.0521 -0.2360 -0.2529
 2278SOL    HW3 9166   2.046   3.653   3.697 -1.9488 -2.1431 -0.3518
 2278SOL    MW4 9167   2.053   3.641   3.783 -0.3161 -0.5803 -0.2410
 2279SOL     OW 9168   2.024   3.923   3.817  0.0266  0.2241 -0.0178
 2279SOL    HW2 9169   2.109   3.958   3.789 -0.2141  1.3400  0.5895
 2279SOL    HW3 9170   2.035   3.828   3.815  0.9907  0.3439 -0.8544
 2279SOL    MW4 9171   2.037   3.915   3.813  0.1218  0.3872 -0.0482
 2280SOL     OW 9172   1.797   4.039   3.738  0.5310  0.0497 -0.2044
 2280SOL    HW2 9173   1.879   4.001   3.770  0.5274 -0.8608 -1.2060
 2280SOL    HW3 9174   1.730   3.974   3.760  0.2501  0.2826 -0.3675
 2280SOL    MW4 9175   1.799   4.025   3.745  0.4935 -0.0396 -0.3581
 2281SOL     OW 9176   1.806   4.272   3.891 -0.3583  0.3582  0.3336
 2281SOL    HW2 9177   1.882   4.315   3.850 -0.6112  0.1753 -0.3299
 2281SOL    HW3 9178   1.801   4.186   3.848 -1.0750  0.4570  0.2156
 2281SOL    MW4 9179   1.816   4.266   3.880 -0.4863  0.3471  0.2306
 2282SOL     OW 9180   2.019   4.423   3.795 -0.0632  0.0767  0.2111
 2282SOL    HW2 9181   2.098   4.386   3.834 -0.7332 -1.1212  0.4466
 2282SOL    HW3 9182   2.040   4.433   3.702  0.6221  0.4808  0.4053
 2282SOL    MW4 9183   2.032   4.419   3.788 -0.0610 -0.0281  0.2680
 2283SOL     OW 9184   2.498   4.652   3.877 -0.2565 -0.1903  0.1018
 2283SOL    HW2 9185   2.507   4.652   3.972 -1.4647 -1.0009  0.2219
 2283SOL    HW3 9186   2.565   4.713   3.847 -0.0142  0.2415  1.4805
 2283SOL    MW4 9187   2.508   4.660   3.886 -0.3836 -0.2398  0.2997
 2284SOL     OW 9188   2.253   0.092   3.793 -0.4201 -0.0716 -0.1482
 2284SOL    HW2 9189   2.335   0.049   3.816 -0.2179  0.6001  0.3987
 2284SOL    HW3 9190   2.255   0.100   3.698 -0.4366 -1.2190 -0.2557
 2284SOL    MW4 9191   2.264   0.088   3.783 -0.3953 -0.1344 -0.0901
 2285SOL     OW 9192   2.265   0.361   3.844 -0.2106  0.0885 -0.1549
 2285SOL    HW2 9193   2.261   0.266   3.839  1.6462  0.0907 -2.1991
 2285SOL    HW3 9194   2.178   0.390   3.816 -0.4164 -0.9690 -0.6127
 2285SOL    MW4 9195   2.253   0.353   3.840  0.0072 -0.0508 -0.4852
 2286SOL     OW 9196   2.489   0.528   3.786  0.0983 -0.4477  0.4856
 2286SOL    HW2 9197   2.415   0.468   3.794 -0.5900  0.0565 -1.8003
 2286SOL    HW3 9198   2.501   0.539   3.692  1.6578  1.2435  0.8583
 2286SOL    MW4 9199   2.481   0.521   3.775  0.2134 -0.1580  0.2332
 2287SOL     OW 9200   2.488   0.780   3.863  0.0580  0.3688 -0.2726
 2287SOL    HW2 9201   2.416   0.832   3.828  0.9996  0.9343 -1.4517
 2287SOL    HW3 9202   2.462   0.689   3.848 -0.1024  0.5822 -1.3410
 2287SOL    MW4 9203   2.475   0.775   3.856  0.1609  0.4715 -0.5693
 2288SOL     OW 9204   2.274   0.919   3.753 -0.1481  0.2040 -0.1492
 2288SOL    HW2 9205   2.199   0.865   3.780 -0.8205  1.1591 -0.0908
 2288SOL    HW3 9206   2.262   0.930   3.659 -0.0576  0.3278 -0.1452
 2288SOL    MW4 9207   2.262   0.913   3.744 -0.2248  0.3464 -0.1411
 2289SOL     OW 9208   2.276   1.174   3.845  0.1711  0.2295  0.1781
 2289SOL    HW2 9209   2.281   1.177   3.940  0.5871  0.1632  0.1587
 2289SOL    HW3 9210   2.265   1.081   3.824  1.0999  0.1338  0.1129
 2289SOL    MW4 9211   2.275   1.162   3.854  0.3486  0.2079  0.1669
 2290SOL     OW 9212   2.496   1.318   3.740  0.1264  0.2248  0.0611
 2290SOL    HW2 9213   2.512   1.406   3.772  0.9254 -0.0954  0.5438
 2290SOL    HW3 9214   2.426   1.285   3.796  0.5993  0.1494  0.6074
 2290SOL    MW4 9215   2.489   1.325   3.751  0.2942  0.1726  0.1967
 2291SOL     OW 9216   2.491   1.578   3.848 -0.1104  0.4011 -0.3767
 2291SOL    HW2 9217   2.560   1.629   3.804  0.6750  1.0840  1.6066
 2291SOL    HW3 9218   2.409   1.613   3.811  0.5061  1.4805 -0.7545
 2291SOL    MW4 9219   2.489   1.589   3.837  0.0744  0.6336 -0.1647
 2292SOL     OW 9220   2.253   1.707   3.744 -0.3930  0.4674 -0.5060
 2292SOL    HW2 9221   2.257   1.793   3.786  1.1194  0.2805 -0.2143
 2292SOL    HW3 9222   2.181   1.662   3.788 -1.5873  1.7887 -1.0722
 2292SOL    MW4 9223   2.244   1.712   3.755 -0.3512  0.6170 -0.5419
 2293SOL     OW 9224   2.242   1.958   3.847 -0.0467 -0.0431 -0.1238
 2293SOL    HW2 9225   2.244   1.954   3.943 -0.0641  1.1923 -0.0632
 2293SOL    HW3 9226   2.155   1.993   3.827 -0.7847 -2.1099 -0.6748
 2293SOL    MW4 9227   2.231   1.962   3.857 -0.1469 -0.1528 -0.1884
 2294SOL     OW 9228   2.452   2.073   3.745  0.0081 -0.2719 -0.1114
 2294SOL    HW2 9229   2.438   2.168   3.752  2.3862  0.1345 -0.4083
 2294SOL    HW3 9230   2.380   2.034   3.794 -0.3775  1.7246  0.9416
 2294SOL    MW4 9231   2.441   2.080   3.752  0.2708  0.0453 -0.0117
 2295SOL     OW 9232   2.447   2.330   3.874 -0.0207  0.4781  0.3705
 2295SOL    HW2 9233   2.518   2.365   3.819  0.4269  1.8553  1.7809
 2295SOL    HW3 9234   2.374   2.390   3.858  0.6628  1.9953  2.5852
 2295SOL    MW4 9235   2.447   2.343   3.865  0.1283  0.8600  0.8488
 2296SOL     OW 9236   2.262   2.506   3.779 -0.0946  0.0372  0.3021
 2296SOL    HW2 9237   2.186   2.454   3.804 -0.3006  0.4357  0.5267
 2296SOL    HW3 9238   2.284   2.478   3.691 -0.4712 -0.1183  0.2603
 2296SOL    MW4 9239   2.255   2.496   3.771 -0.1714  0.0691  0.3264
 2297SOL     OW 9240   2.214   2.760   3.881  0.2805  0.0029 -0.2794
 2297SOL    HW2 9241   2.198   2.737   3.973 -0.6886  1.5296 -0.0425
 2297SOL    HW3 9242   2.235   2.677   3.839  2.4902 -0.4714  1.6764
 2297SOL    MW4 9243   2.214   2.746   3.888  0.4439  0.1414  0.0098
 2298SOL     OW 9244   2.442   2.873   3.772  0.0901 -0.1287 -0.1752
 2298SOL    HW2 9245   2.356   2.851   3.809 -0.7562  0.1126 -1.9394
 2298SOL    HW3 9246   2.433   2.855   3.678  1.7064  0.6725 -0.4991
 2298SOL    MW4 9247   2.429   2.868   3.764  0.1917  0.0086 -0.4506
 2299SOL     OW 9248   2.497   3.149   3.856 -0.1105  0.1087 -0.0228
 2299SOL    HW2 9249   2.523   3.143   3.948 -0.9081  1.0822  0.2826
 2299SOL    HW3 9250   2.508   3.061   3.822 -0.6358 -0.4674  1.2469
 2299SOL    MW4 9251   2.502   3.137   3.864 -0.2849  0.1612  0.1848
 2300SOL     OW 9252   2.241   3.227   3.744 -0.2418 -0.1891 -0.0566
 2300SOL    HW2 9253   2.249   3.301   3.803 -2.3884 -0.5301  0.6733
 2300SOL    HW3 9254   2.316   3.171   3.767 -0.0049  0.5586  1.0465
 2300SOL    MW4 9255   2.252   3.229   3.755 -0.4938 -0.1352  0.1853
 2301SOL     OW 9256   2.221   3.461   3.883 -0.1722  0.3859  0.3415
 2301SOL    HW2 9257   2.216   3.475   3.977  0.4019  0.4114  0.3692
 2301SOL    HW3 9258   2.310   3.489   3.859 -0.0897 -0.2425 -0.1015
 2301SOL    MW4 9259   2.232   3.467   3.892 -0.0858  0.3064  0.2866
 2302SOL     OW 9260   2.441   3.588   3.783 -0.1813  0.1112 -0.0191
 2302SOL    HW2 9261   2.531   3.557   3.793 -0.4875 -1.0683 -0.8331
 2302SOL    HW3 9262   2.438   3.627   3.695 -0.4003  0.3803  0.1057
 2302SOL    MW4 9263   2.452   3.589   3.773 -0.2511 -0.0091 -0.1101
 2303SOL     OW 9264   2.463   3.842   3.877 -0.6642 -0.3074  0.1458
 2303SOL    HW2 9265   2.539   3.870   3.826  0.6796 -1.2956  1.5631
 2303SOL    HW3 9266   2.453   3.749   3.856 -1.4887 -0.1843 -0.0237
 2303SOL    MW4 9267   2.471   3.834   3.867 -0.5956 -0.4218  0.3104
 2304SOL     OW 9268   2.281   4.034   3.779 -0.0314 -0.0321 -0.1726
 2304SOL    HW2 9269   2.341   3.973   3.821 -1.1968 -1.5566 -0.6352
 2304SOL    HW3 9270   2.288   4.014   3.685 -1.1584 -0.1785 -0.2411
 2304SOL    MW4 9271   2.290   4.023   3.772 -0.3340 -0.2522 -0.2425
 2305SOL     OW 9272   2.249   4.293   3.875  0.0526 -0.3296 -0.3444
 2305SOL    HW2 9273   2.258   4.288   3.970 -1.1642 -1.4294 -0.2728
 2305SOL    HW3 9274   2.274   4.206   3.844  0.1503 -0.0673 -1.0174
 2305SOL    MW4 9275   2.254   4.281   3.883 -0.0949 -0.4406 -0.4237
 2306SOL     OW 9276   2.490   4.391   3.757 -0.0011  0.3738  0.2324
 2306SOL    HW2 9277   2.407   4.368   3.799 -0.1643  0.2829 -0.1308
 2306SOL    HW3 9278   2.510   4.479   3.789 -0.4633  0.5711 -0.0183
 2306SOL    MW4 9279   2.482   4.399   3.767 -0.0837  0.3881  0.1516
 2307SOL     OW 9280   2.931   4.666   3.846 -0.1722 -0.0487 -0.4554
 2307SOL    HW2 9281   2.950   4.691   3.936 -0.0862  0.5711 -0.6386
 2307SOL    HW3 9282   3.004   4.702   3.795 -0.2380 -0.3625 -0.7736
 2307SOL    MW4 9283   2.943   4.674   3.851 -0.1693 -0.0081 -0.5214
 2308SOL     OW 9284   2.712   0.164   3.798 -0.0148  0.1815  0.1683
 2308SOL    HW2 9285   2.774   0.098   3.828  1.5166  1.1676 -0.7656
 2308SOL    HW3 9286   2.721   0.163   3.703 -1.9812 -0.1704 -0.0366
 2308SOL    MW4 9287   2.721   0.155   3.789 -0.0720  0.2652  0.0181
 2309SOL     OW 9288   2.674   0.413   3.926  0.3135 -0.2193 -0.0501
 2309SOL    HW2 9289   2.686   0.327   3.886  1.6931 -0.0308 -0.0540
 2309SOL    HW3 9290   2.608   0.456   3.871  0.5486 -0.8067 -0.8013
 2309SOL    MW4 9291   2.667   0.408   3.913  0.5264 -0.2719 -0.1500
 2310SOL     OW 9292   2.874   0.516   3.744 -0.0780 -0.2036  0.4247
 2310SOL    HW2 9293   2.951   0.475   3.783 -0.9244 -0.7293  1.5551
 2310SOL    HW3 9294   2.799   0.469   3.781 -1.0263  1.5737  0.8742
 2310SOL    MW4 9295   2.874   0.505   3.754 -0.3147 -0.0384  0.6332
 2311SOL     OW 9296   2.920   0.774   3.854 -0.5735 -0.6547  0.0961
 2311SOL    HW2 9297   2.990   0.814   3.803  0.6286 -0.9252  1.5365
 2311SOL    HW3 9298   2.903   0.691   3.809  0.6043 -0.9791  0.2424
 2311SOL    MW4 9299   2.927   0.768   3.841 -0.2596 -0.7333  0.3057
 2312SOL     OW 9300   2.713   0.912   3.758  0.4015  0.1287  0.2517
 2312SOL    HW2 9301   2.791   0.867   3.789  0.1931  0.2159  0.9083
 2312SOL    HW3 9302   2.640   0.862   3.793  0.1619  0.2051 -0.1323
 2312SOL    MW4 9303   2.713   0.900   3.767  0.3421  0.1503  0.2878
 2313SOL     OW 9304   2.703   1.178   3.844 -0.4112 -0.3233 -0.0390
 2313SOL    HW2 9305   2.688   1.086   3.820 -0.8707  0.1275 -1.5291
 2313SOL    HW3 9306   2.646   1.227   3.785 -0.5560  0.8997  1.1077
 2313SOL    MW4 9307   2.693   1.172   3.833 -0.4909 -0.1024 -0.0842
 2314SOL     OW 9308   2.920   1.278   3.729  0.0000 -0.3673  0.4939
 2314SOL    HW2 9309   2.903   1.370   3.748 -0.4279 -0.4132  0.3382
 2314SOL    HW3 9310   2.846   1.231   3.767 -1.4644 -0.3680 -2.2232
 2314SOL    MW4 9311   2.908   1.284   3.736 -0.2496 -0.3734  0.1149
 2315SOL     OW 9312   2.902   1.540   3.827 -0.0682  0.0782 -0.0547
 2315SOL    HW2 9313   2.906   1.542   3.922  0.9400  0.1642 -0.0918
 2315SOL    HW3 9314   2.977   1.593   3.798 -1.4917  1.7007 -0.8913
 2315SOL    MW4 9315   2.912   1.548   3.835 -0.1230  0.3036 -0.1698
 2316SOL     OW 9316   2.701   1.714   3.742 -0.4040  0.5728 -0.0473
 2316SOL    HW2 9317   2.761   1.643   3.766  1.0020  1.9250  0.5810
 2316SOL    HW3 9318   2.686   1.703   3.649  0.4067 -0.1174 -0.1051
 2316SOL    MW4 9319   2.707   1.703   3.733 -0.1113  0.6602  0.0279
 2317SOL     OW 9320   2.650   1.959   3.906  0.2855  0.1149  0.0990
 2317SOL    HW2 9321   2.648   1.881   3.849 -0.2624  0.8945 -0.9627
 2317SOL    HW3 9322   2.579   2.014   3.874  0.9060  1.2287  0.6033
 2317SOL    MW4 9323   2.640   1.956   3.894  0.2952  0.3645  0.0253
 2318SOL     OW 9324   2.857   2.060   3.769 -0.0149  0.1652  0.0139
 2318SOL    HW2 9325   2.859   2.149   3.803 -0.2608  0.7836 -1.5388
 2318SOL    HW3 9326   2.781   2.019   3.811  1.4315 -0.0512  2.4715
 2318SOL    MW4 9327   2.847   2.066   3.779  0.1435  0.2179  0.1330
 2319SOL     OW 9328   2.870   2.321   3.849 -0.4520 -0.2617  0.6721
 2319SOL    HW2 9329   2.835   2.336   3.937 -0.4859  0.3631  0.5529
 2319SOL    HW3 9330   2.958   2.359   3.851 -0.5093 -0.1134  0.3948
 2319SOL    MW4 9331   2.877   2.328   3.861 -0.4640 -0.1600  0.6199
 2320SOL     OW 9332   2.654   2.477   3.741 -0.1836  0.3517 -0.0980
 2320SOL    HW2 9333   2.655   2.567   3.774 -1.3342  0.8908 -1.4295
 2320SOL    HW3 9334   2.736   2.438   3.771 -0.2536  1.4602  1.5479
 2320SOL    MW4 9335   2.665   2.484   3.749 -0.3448  0.5689 -0.0565
 2321SOL     OW 9336   2.662   2.719   3.862 -0.1091  0.2512  0.4381
 2321SOL    HW2 9337   2.674   2.721   3.957 -0.9625  0.8802  0.5419
 2321SOL    HW3 9338   2.583   2.771   3.847  0.0179  0.1494 -0.6169
 2321SOL    MW4 9339   2.653   2.726   3.873 -0.2050  0.3204  0.3126
 2322SOL     OW 9340   2.912   2.869   3.754  0.2250  0.6957  0.6269
 2322SOL    HW2 9341   2.916   2.951   3.803 -2.1443  0.5097  1.2110
 2322SOL    HW3 9342   2.832   2.826   3.786  0.0661 -0.6491 -1.4841
 2322SOL    MW4 9343   2.902   2.874   3.765 -0.1082  0.4938  0.4256
 2323SOL     OW 9344   2.914   3.133   3.882 -0.3997 -0.0567  0.1920
 2323SOL    HW2 9345   2.977   3.177   3.825 -0.1301 -1.6196 -0.7669
 2323SOL    HW3 9346   2.830   3.144   3.837 -0.2018 -1.2071 -0.4834
 2323SOL    MW4 9347   2.911   3.140   3.868 -0.3378 -0.4148 -0.0234
 2324SOL     OW 9348   2.719   3.239   3.718  0.0050 -0.6860  0.0931
 2324SOL    HW2 9349   2.730   3.327   3.754 -0.8761  0.4444 -2.3160
 2324SOL    HW3 9350   2.640   3.205   3.761 -1.4638  0.9328 -1.2524
 2324SOL    MW4 9351   2.710   3.246   3.729 -0.3052 -0.3235 -0.4022
 2325SOL     OW 9352   2.698   3.486   3.830 -0.1428  0.5714  0.2889
 2325SOL    HW2 9353   2.672   3.499   3.921 -0.9544  1.6438 -0.0889
 2325SOL    HW3 9354   2.777   3.539   3.820 -0.0996  0.5168  0.3425
 2325SOL    MW4 9355   2.705   3.495   3.841 -0.2444  0.7052  0.2463
 2326SOL     OW 9356   2.906   3.663   3.749 -0.1991 -0.0200  0.1429
 2326SOL    HW2 9357   2.979   3.612   3.785  0.1721  0.4413  0.0509
 2326SOL    HW3 9358   2.912   3.648   3.654 -0.7711 -0.6988  0.2084
 2326SOL    MW4 9359   2.917   3.654   3.741 -0.2258 -0.0486  0.1392
 2327SOL     OW 9360   2.948   3.915   3.856  0.0092  0.0705  0.1502
 2327SOL    HW2 9361   2.938   3.890   3.947  1.3064 -0.8168  0.0622
 2327SOL    HW3 9362   2.933   3.834   3.807 -0.1271  0.4166 -0.3853
 2327SOL    MW4 9363   2.945   3.901   3.861  0.1621 -0.0007  0.0679
 2328SOL     OW 9364   2.695   3.995   3.810 -0.0571 -0.0382  0.3278
 2328SOL    HW2 9365   2.687   4.086   3.837 -0.9262 -0.0522  0.1482
 2328SOL    HW3 9366   2.785   3.971   3.831 -0.1549  0.5241  1.4263
 2328SOL    MW4 9367   2.706   4.004   3.817 -0.1848  0.0343  0.4487
 2329SOL     OW 9368   2.687   4.255   3.882  0.2251  0.5167  0.3988
 2329SOL    HW2 9369   2.768   4.300   3.858 -0.2216  1.9138  1.4225
 2329SOL    HW3 9370   2.620   4.295   3.826  0.6363 -2.5437 -2.4224
 2329SOL    MW4 9371   2.689   4.266   3.872  0.2201  0.2975  0.1614
 2330SOL     OW 9372   2.911   4.395   3.788 -0.4077 -0.2921  0.0304
 2330SOL    HW2 9373   3.001   4.365   3.802 -0.3239  0.5873  1.5120
 2330SOL    HW3 9374   2.915   4.490   3.803 -1.7730 -0.3878  1.1283
 2330SOL    MW4 9375   2.924   4.404   3.792 -0.5770 -0.1888  0.3705
 2331SOL     OW 9376   3.423   0.027   3.867 -0.1242 -0.0023 -0.1639
 2331SOL    HW2 9377   3.429   0.012   3.961  2.0905 -1.4821 -0.5109
 2331SOL    HW3 9378   3.500   0.079   3.845 -0.1755 -0.3764 -1.2922
 2331SOL    MW4 9379   3.434   0.032   3.876  0.1614 -0.2475 -0.3586
 2332SOL     OW 9380   3.171   0.092   3.758 -0.1112  0.0361  0.1242
 2332SOL    HW2 9381   3.261   0.085   3.790  0.2661  1.2282 -0.6099
 2332SOL    HW3 9382   3.180   0.101   3.663 -0.9203  1.3984  0.1544
 2332SOL    MW4 9383   3.184   0.092   3.750 -0.1681  0.3731  0.0315
 2333SOL     OW 9384   3.093   0.340   3.826  0.3493  0.1816  0.4432
 2333SOL    HW2 9385   3.102   0.331   3.921  1.3483 -3.0238  0.1198
 2333SOL    HW3 9386   3.125   0.257   3.791  1.0341  1.7103 -2.7877
 2333SOL    MW4 9387   3.098   0.328   3.834  0.5715 -0.0397 -0.0257
 2334SOL     OW 9388   3.331   0.500   3.778 -0.0859  0.6013  0.6638
 2334SOL    HW2 9389   3.416   0.479   3.816  0.4714 -1.5196 -1.5704
 2334SOL    HW3 9390   3.273   0.430   3.808 -0.3085  0.4414 -0.1107
 2334SOL    MW4 9391   3.335   0.488   3.787 -0.0420  0.3004  0.2668
 2335SOL     OW 9392   3.326   0.774   3.852 -0.0564 -0.3591 -0.2763
 2335SOL    HW2 9393   3.321   0.773   3.947 -2.0104  0.9443 -0.3386
 2335SOL    HW3 9394   3.313   0.683   3.826  1.7501 -0.9210  0.7376
 2335SOL    MW4 9395   3.324   0.762   3.861 -0.0758 -0.2613 -0.1509
 2336SOL     OW 9396   3.113   0.909   3.723 -0.4090 -0.3884  0.0524
 2336SOL    HW2 9397   3.189   0.863   3.758  0.2058 -0.4199 -1.3071
 2336SOL    HW3 9398   3.122   0.902   3.628  0.0428  3.0844 -0.2198
 2336SOL    MW4 9399   3.124   0.902   3.715 -0.2682  0.0656 -0.1628
 2337SOL     OW 9400   3.135   1.165   3.851  0.2067  0.7837 -0.1245
 2337SOL    HW2 9401   3.131   1.077   3.813  1.3054  0.2447  0.9423
 2337SOL    HW3 9402   3.067   1.214   3.806 -1.9846 -1.2423  0.8564
 2337SOL    MW4 9403   3.125   1.159   3.840  0.0627  0.4452  0.1454
 2338SOL     OW 9404   3.360   1.313   3.769  0.2182 -0.0050 -0.5799
 2338SOL    HW2 9405   3.282   1.269   3.800  0.0656  0.2917 -0.5376
 2338SOL    HW3 9406   3.362   1.296   3.675  0.6642 -0.8767 -0.4166
 2338SOL    MW4 9407   3.350   1.305   3.760  0.2568 -0.0808 -0.5529
 2339SOL     OW 9408   3.349   1.573   3.870 -0.0483  0.2239 -0.0523
 2339SOL    HW2 9409   3.274   1.621   3.835  0.9801  1.0385 -1.1746
 2339SOL    HW3 9410   3.357   1.496   3.815 -0.5720 -0.2973  0.5961
 2339SOL    MW4 9411   3.340   1.569   3.858  0.0184  0.2626 -0.1147
 2340SOL     OW 9412   3.126   1.687   3.768 -0.2288  0.6745  0.1896
 2340SOL    HW2 9413   3.094   1.773   3.792 -0.8464  0.1928  1.1164
 2340SOL    HW3 9414   3.140   1.691   3.673 -4.1310  0.5391 -0.4451
 2340SOL    MW4 9415   3.124   1.699   3.759 -0.8252  0.5929  0.2282
 2341SOL     OW 9416   3.118   1.966   3.884  0.4369 -0.4189 -0.1785
 2341SOL    HW2 9417   3.115   1.981   3.978  2.2721  1.4121 -0.3811
 2341SOL    HW3 9418   3.036   2.002   3.851  0.2596 -0.1307  0.5772
 2341SOL    MW4 9419   3.107   1.972   3.892  0.6554 -0.1391 -0.1054
 2342SOL     OW 9420   3.384   2.076   3.792 -0.2532  0.2132 -0.0908
 2342SOL    HW2 9421   3.305   2.037   3.830  0.0202 -0.0154  0.2386
 2342SOL    HW3 9422   3.380   2.051   3.699 -0.5954  0.2454 -0.0844
 2342SOL    MW4 9423   3.373   2.068   3.785 -0.2625  0.1872 -0.0465
 2343SOL     OW 9424   3.402   2.351   3.861  0.1443  0.2158  0.1019
 2343SOL    HW2 9425   3.322   2.387   3.824  0.7590  0.5563 -0.8875
 2343SOL    HW3 9426   3.401   2.259   3.836 -1.1331 -0.3708  2.1393
 2343SOL    MW4 9427   3.392   2.343   3.853  0.0572  0.1831  0.2401
 2344SOL     OW 9428   3.153   2.415   3.796  0.1559 -0.6414  0.0622
 2344SOL    HW2 9429   3.150   2.510   3.805  0.9631 -0.6148  0.0821
 2344SOL    HW3 9430   3.156   2.400   3.701  1.3546 -0.5964  0.0839
 2344SOL    MW4 9431   3.153   2.425   3.785  0.4203 -0.6318  0.0679
 2345SOL     OW 9432   3.106   2.695   3.836 -0.1635  0.4424  0.3291
 2345SOL    HW2 9433   3.100   2.684   3.931 -0.7966  0.2839  0.2733
 2345SOL    HW3 9434   3.031   2.751   3.813  1.2488  2.3174  0.2044
 2345SOL    MW4 9435   3.095   2.701   3.845 -0.0606  0.6688  0.3052
 2346SOL     OW 9436   3.349   2.819   3.719  0.4480  0.6000 -0.5287
 2346SOL    HW2 9437   3.260   2.790   3.740  0.4598 -0.2569 -1.6010
 2346SOL    HW3 9438   3.354   2.816   3.623  1.7691  0.2079 -0.4665
 2346SOL    MW4 9439   3.338   2.815   3.709  0.6237  0.4351 -0.6621
 2347SOL     OW 9440   3.368   3.093   3.778  0.4555 -0.1101  0.1047
 2347SOL    HW2 9441   3.451   3.138   3.763 -0.0783  0.6610 -0.5832
 2347SOL    HW3 9442   3.377   3.009   3.735  0.8728 -0.0195  0.0157
 2347SOL    MW4 9443   3.380   3.088   3.771  0.4401  0.0036  0.0021
 2348SOL     OW 9444   3.129   3.244   3.734  0.0867  0.0455  0.1176
 2348SOL    HW2 9445   3.208   3.202   3.769  0.4283  1.3792  0.9750
 2348SOL    HW3 9446   3.148   3.258   3.641 -1.4239 -4.9489 -1.0992
 2348SOL    MW4 9447   3.142   3.240   3.726 -0.0675 -0.4375  0.0701
 2349SOL     OW 9448   3.119   3.505   3.857  0.1190 -0.3868  0.0195
 2349SOL    HW2 9449   3.200   3.544   3.823  0.4934 -0.4873  0.7813
 2349SOL    HW3 9450   3.110   3.423   3.808 -0.7820  0.7245 -1.7372
 2349SOL    MW4 9451   3.128   3.500   3.846  0.0496 -0.2534 -0.1116
 2350SOL     OW 9452   3.350   3.617   3.792 -0.1954  0.5441 -0.3324
 2350SOL    HW2 9453   3.352   3.707   3.824  0.6210  0.7267 -0.8941
 2350SOL    HW3 9454   3.373   3.624   3.700 -0.7313 -0.1778 -0.5243
 2350SOL    MW4 9455   3.353   3.630   3.784 -0.1583  0.4730 -0.4318
 2351SOL     OW 9456   3.393   3.875   3.882  0.2363 -0.3866 -0.1092
 2351SOL    HW2 9457   3.459   3.912   3.824 -0.3716 -1.8379 -1.7715
 2351SOL    HW3 9458   3.315   3.929   3.868  0.3451 -0.1956  0.0184
 2351SOL    MW4 9459   3.391   3.887   3.872  0.1705 -0.5527 -0.3119
 2352SOL     OW 9460   3.185   4.031   3.778 -0.1631  0.0418  0.2069
 2352SOL    HW2 9461   3.192   4.123   3.805  0.1479 -0.6018  2.4642
 2352SOL    HW3 9462   3.101   4.002   3.814 -0.2221 -0.5770 -0.4332
 2352SOL    MW4 9463   3.175   4.040   3.787 -0.1297 -0.1249  0.4201
 2353SOL     OW 9464   3.156   4.289   3.846  0.1323  0.6466  0.0719
 2353SOL    HW2 9465   3.149   4.295   3.942  0.9426 -0.1262  0.1898
 2353SOL    HW3 9466   3.232   4.342   3.824 -0.7055  1.7316 -0.2729
 2353SOL    MW4 9467   3.165   4.297   3.856  0.1285  0.6876  0.0424
 2354SOL     OW 9468   3.407   4.424   3.771  0.2268  0.1710  0.0099
 2354SOL    HW2 9469   3.470   4.371   3.820 -1.1222 -1.1127  0.4131
 2354SOL    HW3 9470   3.419   4.513   3.804 -0.4156 -0.6066  2.4698
 2354SOL    MW4 9471   3.416   4.429   3.782 -0.0360 -0.1006  0.3874
 2355SOL     OW 9472   3.840   4.653   3.905  0.1063  0.1027  0.4243
 2355SOL    HW2 9473   3.923   4.691   3.878  0.4718 -1.3322 -0.5301
 2355SOL    HW3 9474   3.839   4.566   3.865 -2.0680  0.2830  0.0259
 2355SOL    MW4 9475   3.851   4.646   3.896 -0.1326 -0.0629  0.2460
 2356SOL     OW 9476   3.646   0.175   3.809 -0.3524  0.5548 -0.1145
 2356SOL    HW2 9477   3.712   0.123   3.854 -0.7741  0.3045  0.2214
 2356SOL    HW3 9478   3.660   0.155   3.716 -1.1722 -0.9703  0.0644
 2356SOL    MW4 9479   3.657   0.165   3.803 -0.5164  0.3206 -0.0465
 2357SOL     OW 9480   3.608   0.436   3.866 -0.5311  0.0791 -0.0960
 2357SOL    HW2 9481   3.687   0.463   3.819 -0.3422 -0.4816 -0.1022
 2357SOL    HW3 9482   3.605   0.341   3.855 -0.8138  0.0163  0.5152
 2357SOL    MW4 9483   3.618   0.427   3.858 -0.5438 -0.0031 -0.0165
 2358SOL     OW 9484   3.847   0.500   3.764 -0.4298 -0.0358  0.0505
 2358SOL    HW2 9485   3.921   0.453   3.802 -1.3034 -0.9863  0.5806
 2358SOL    HW3 9486   3.858   0.590   3.793  0.2587 -0.2685  0.5204
 2358SOL    MW4 9487   3.858   0.506   3.773 -0.4539 -0.1920  0.1826
 2359SOL     OW 9488   3.819   0.769   3.883  0.2866 -0.2281 -0.0686
 2359SOL    HW2 9489   3.894   0.825   3.864  0.1068 -0.5226 -1.7188
 2359SOL    HW3 9490   3.745   0.814   3.843 -0.2506 -0.4751  0.6367
 2359SOL    MW4 9491   3.819   0.783   3.875  0.1919 -0.2995 -0.1931
 2360SOL     OW 9492   3.581   0.912   3.791  0.1412 -0.1782 -0.2469
 2360SOL    HW2 9493   3.560   0.998   3.828  1.2416  0.0968 -0.2646
 2360SOL    HW3 9494   3.497   0.865   3.793 -0.1929  0.4388  0.9560
 2360SOL    MW4 9495   3.567   0.917   3.796  0.2422 -0.0605 -0.0904
 2361SOL     OW 9496   3.556   1.173   3.914  0.1406  0.5323 -0.2722
 2361SOL    HW2 9497   3.633   1.212   3.874  0.7348 -0.2764  0.0568
 2361SOL    HW3 9498   3.483   1.226   3.883  0.7804  1.0248 -0.9544
 2361SOL    MW4 9499   3.557   1.185   3.905  0.3033  0.4905 -0.3188
 2362SOL     OW 9500   3.770   1.293   3.803  0.4705  0.1624 -0.2009
 2362SOL    HW2 9501   3.836   1.239   3.846 -0.0071 -0.5779 -0.3937
 2362SOL    HW3 9502   3.778   1.378   3.846  1.9788  0.2751 -0.6483
 2362SOL    MW4 9503   3.780   1.297   3.815  0.6063  0.0795 -0.2854
 2363SOL     OW 9504   3.794   1.540   3.893  0.1052  0.2714  0.1026
 2363SOL    HW2 9505   3.794   1.535   3.989 -0.4667  1.1606  0.1621
 2363SOL    HW3 9506   3.712   1.586   3.872  0.1215 -0.1102 -0.8217
 2363SOL    MW4 9507   3.783   1.546   3.903  0.0319  0.3383 -0.0112
 2364SOL     OW 9508   3.573   1.698   3.788  0.4627 -0.0069  0.2912
 2364SOL    HW2 9509   3.498   1.656   3.829 -0.3400  1.2013  0.0612
 2364SOL    HW3 9510   3.574   1.665   3.699  1.0112 -1.0594  0.6721
 2364SOL    MW4 9511   3.563   1.688   3.782  0.4292  0.0136  0.3111
 2365SOL     OW 9512   3.592   1.945   3.896  0.1500 -0.2015  0.1949
 2365SOL    HW2 9513   3.593   1.857   3.860  0.9806  0.4398 -1.4110
 2365SOL    HW3 9514   3.515   1.986   3.859  0.7559  0.3146 -0.5173
 2365SOL    MW4 9515   3.582   1.939   3.886  0.3393 -0.0488 -0.1113
 2366SOL     OW 9516   3.813   2.086   3.796 -0.0796  0.1241  0.6084
 2366SOL    HW2 9517   3.879   2.032   3.840 -0.7050 -1.1142  0.0472
 2366SOL    HW3 9518   3.729   2.044   3.817 -0.5307  0.5466 -0.3066
 2366SOL    MW4 9519   3.810   2.073   3.805 -0.2217  0.0165  0.4134
 2367SOL     OW 9520   3.838   2.350   3.881 -0.1479  0.3225  0.0321
 2367SOL    HW2 9521   3.771   2.402   3.836 -0.8982 -0.2443  0.4976
 2367SOL    HW3 9522   3.814   2.259   3.863 -0.1936  0.1003  1.2178
 2367SOL    MW4 9523   3.826   2.345   3.873 -0.2530  0.2184  0.2503
 2368SOL     OW 9524   3.615   2.479   3.771 -0.3264  0.0546 -0.2898
 2368SOL    HW2 9525   3.543   2.421   3.799 -0.8150  0.0477 -1.5552
 2368SOL    HW3 9526   3.619   2.469   3.676  0.5123  1.0339 -0.3675
 2368SOL    MW4 9527   3.606   2.470   3.763 -0.2806  0.1829 -0.4671
 2369SOL     OW 9528   3.585   2.737   3.828 -0.0089  0.4199  0.2343
 2369SOL    HW2 9529   3.583   2.644   3.805  0.7596  0.3327  0.5140
 2369SOL    HW3 9530   3.506   2.773   3.787 -0.0940 -0.2694 -0.2219
 2369SOL    MW4 9531   3.574   2.729   3.820  0.0813  0.3176  0.2112
 2370SOL     OW 9532   3.812   2.812   3.692 -0.3423 -0.4756 -0.1226
 2370SOL    HW2 9533   3.886   2.776   3.741 -0.3856  0.5772  0.7296
 2370SOL    HW3 9534   3.737   2.800   3.749 -0.6804 -0.7385 -0.6221
 2370SOL    MW4 9535   3.812   2.805   3.706 -0.3929 -0.3717 -0.0758
 2371SOL     OW 9536   3.839   3.078   3.840  0.1808 -0.3352 -0.0672
 2371SOL    HW2 9537   3.768   3.136   3.814 -0.0500 -0.0107  1.2387
 2371SOL    HW3 9538   3.833   3.003   3.780 -1.2069 -0.2707 -0.0289
 2371SOL    MW4 9539   3.829   3.075   3.829 -0.0329 -0.2842  0.1099
 2372SOL     OW 9540   3.626   3.222   3.754 -0.3741 -0.0100  0.3903
 2372SOL    HW2 9541   3.597   3.308   3.782 -0.9002 -0.4037  1.0602
 2372SOL    HW3 9542   3.625   3.226   3.659  0.1073  0.8931  0.4187
 2372SOL    MW4 9543   3.622   3.234   3.745 -0.3798  0.0570  0.4826
 2373SOL     OW 9544   3.555   3.464   3.875 -0.0296 -0.5118 -0.0501
 2373SOL    HW2 9545   3.560   3.476   3.970  0.4166  0.3867 -0.1840
 2373SOL    HW3 9546   3.482   3.520   3.848 -0.6836 -1.4021 -0.1336
 2373SOL    MW4 9547   3.546   3.473   3.884 -0.0572 -0.5107 -0.0789
 2374SOL     OW 9548   3.797   3.605   3.783 -0.2963  0.2365 -0.3215
 2374SOL    HW2 9549   3.789   3.689   3.827 -0.0585  0.2802 -0.3609
 2374SOL    HW3 9550   3.710   3.566   3.790 -0.2081  0.1503  0.3754
 2374SOL    MW4 9551   3.785   3.611   3.790 -0.2534  0.2308 -0.2351
 2375SOL     OW 9552   3.802   3.870   3.896  0.2179  0.0890  0.6716
 2375SOL    HW2 9553   3.799   3.889   3.989 -0.5402  1.1439  0.4457
 2375SOL    HW3 9554   3.888   3.901   3.868  0.8664 -1.1776  1.1971
 2375SOL    MW4 9555   3.813   3.876   3.904  0.2036  0.0610  0.7112
 2376SOL     OW 9556   3.631   4.018   3.751  0.1617  0.0746  0.3140
 2376SOL    HW2 9557   3.623   4.097   3.804 -0.0884 -0.5305  1.1893
 2376SOL    HW3 9558   3.697   3.965   3.796 -0.3359 -0.6209  0.2342
 2376SOL    MW4 9559   3.639   4.022   3.764  0.0632 -0.0978  0.4189
 2377SOL     OW 9560   3.613   4.263   3.861  0.0764  0.6269 -0.5286
 2377SOL    HW2 9561   3.629   4.241   3.953  1.3591  3.1172 -0.0994
 2377SOL    HW3 9562   3.697   4.299   3.830 -0.3209 -0.2214 -2.6931
 2377SOL    MW4 9563   3.626   4.265   3.869  0.1934  0.8435 -0.7577
 2378SOL     OW 9564   3.842   4.403   3.786 -0.3538  0.2453 -0.6214
 2378SOL    HW2 9565   3.915   4.348   3.813  0.1014  1.1979  0.1220
 2378SOL    HW3 9566   3.848   4.406   3.690  1.3772  1.3763 -0.4991
 2378SOL    MW4 9567   3.852   4.396   3.777 -0.0653  0.5202 -0.5076
 2379SOL     OW 9568   4.300   4.628   3.921 -0.0936 -0.1951 -0.4431
 2379SOL    HW2 9569   4.267   4.642   4.009 -0.9879  0.8186 -0.9379
 2379SOL    HW3 9570   4.386   4.671   3.920  0.3207 -0.9821  0.1855
 2379SOL    MW4 9571   4.307   4.635   3.932 -0.1569 -0.1650 -0.4253
 2380SOL     OW 9572   4.083   0.095   3.796  0.0352  0.0893  0.0767
 2380SOL    HW2 9573   4.168   0.059   3.823  0.2110  0.8629  0.5845
 2380SOL    HW3 9574   4.084   0.090   3.701  0.7378  0.2734  0.0687
 2380SOL    MW4 9575   4.094   0.090   3.787  0.1507  0.2157  0.1423
 2381SOL     OW 9576   4.065   0.358   3.906  0.0416  0.1797 -0.0779
 2381SOL    HW2 9577   4.038   0.375   3.996 -1.5328  0.0218 -0.5187
 2381SOL    HW3 9578   4.070   0.262   3.900 -0.1026  0.1823 -0.2324
 2381SOL    MW4 9579   4.062   0.347   3.917 -0.1850  0.1592 -0.1566
 2382SOL     OW 9580   4.231   0.549   3.810  0.4887  0.1998 -0.1147
 2382SOL    HW2 9581   4.177   0.477   3.842  1.1066 -0.2120 -0.0040
 2382SOL    HW3 9582   4.243   0.530   3.717  1.4192 -0.3292  0.1089
 2382SOL    MW4 9583   4.225   0.537   3.802  0.6928  0.0757 -0.0703
 2383SOL     OW 9584   4.237   0.809   3.905 -0.0809 -0.2878 -0.1417
 2383SOL    HW2 9585   4.162   0.854   3.867 -0.0872 -1.4015 -1.5107
 2383SOL    HW3 9586   4.226   0.717   3.879  1.5110 -0.5448  0.0081
 2383SOL    MW4 9587   4.226   0.803   3.896  0.1278 -0.4687 -0.3026
 2384SOL     OW 9588   4.021   0.922   3.775  0.3173 -0.0828  0.1031
 2384SOL    HW2 9589   4.026   1.012   3.809  0.9497 -0.6870  1.6520
 2384SOL    HW3 9590   4.044   0.930   3.683  0.9216  1.2675  0.3557
 2384SOL    MW4 9591   4.025   0.935   3.768  0.4802  0.0156  0.3407
 2385SOL     OW 9592   4.008   1.163   3.895 -0.3078 -0.3750 -0.5534
 2385SOL    HW2 9593   4.016   1.160   3.990 -1.5647  0.6921 -0.3996
 2385SOL    HW3 9594   4.097   1.181   3.864 -0.0714  0.2998  0.4792
 2385SOL    MW4 9595   4.021   1.165   3.903 -0.4430 -0.1452 -0.3970
 2386SOL     OW 9596   4.277   1.223   3.790 -0.4325 -0.5714  0.1101
 2386SOL    HW2 9597   4.260   1.312   3.819 -0.6021 -0.4087 -0.4862
 2386SOL    HW3 9598   4.263   1.225   3.696 -1.0192 -1.3712  0.1777
 2386SOL    MW4 9599   4.273   1.235   3.782 -0.5326 -0.6554  0.0403
 2387SOL     OW 9600   4.243   1.488   3.866 -0.5844  0.0523  0.2855
 2387SOL    HW2 9601   4.163   1.537   3.850  0.1095  1.7487  1.7787
 2387SOL    HW3 9602   4.311   1.538   3.820 -0.3165 -1.1510 -0.6413
 2387SOL    MW4 9603   4.242   1.501   3.858 -0.4578  0.1173  0.3600
 2388SOL     OW 9604   4.035   1.642   3.795  0.4966 -0.0311 -0.6305
 2388SOL    HW2 9605   4.046   1.734   3.815  1.1629 -0.0669 -0.8110
 2388SOL    HW3 9606   3.949   1.619   3.830  0.5460  0.5315 -0.1476
 2388SOL    MW4 9607   4.025   1.651   3.802  0.5913  0.0384 -0.5906
 2389SOL     OW 9608   4.026   1.909   3.886 -0.1594  0.0507 -0.2825
 2389SOL    HW2 9609   4.023   1.928   3.980  0.0856  0.9213 -0.4519
 2389SOL    HW3 9610   4.110   1.945   3.857 -0.1666 -0.3533 -0.8077
 2389SOL    MW4 9611   4.037   1.916   3.895 -0.1278  0.1123 -0.3741
 2390SOL     OW 9612   4.275   2.008   3.784  0.0901 -0.2030 -0.1252
 2390SOL    HW2 9613   4.263   2.103   3.793 -0.9644 -0.3501  0.0845
 2390SOL    HW3 9614   4.287   1.994   3.690 -1.4681 -0.0321 -0.3727
 2390SOL    MW4 9615   4.275   2.019   3.773 -0.2546 -0.1998 -0.1304
 2391SOL     OW 9616   4.273   2.260   3.864 -0.1889 -0.1218  0.4977
 2391SOL    HW2 9617   4.289   2.274   3.957 -1.8585 -0.8467  0.9291
 2391SOL    HW3 9618   4.202   2.321   3.842  1.9420  1.8836 -0.9381
 2391SOL    MW4 9619   4.266   2.270   3.874 -0.1283  0.0470  0.3655
 2392SOL     OW 9620   4.085   2.421   3.761  0.4102  0.0701  0.8396
 2392SOL    HW2 9621   4.079   2.511   3.793  0.4077  0.5289 -0.4218
 2392SOL    HW3 9622   4.004   2.379   3.791 -0.0811  0.7880  0.5313
 2392SOL    MW4 9623   4.073   2.427   3.769  0.3448  0.2251  0.6325
 2393SOL     OW 9624   4.033   2.690   3.836  0.0382  0.0288 -0.1810
 2393SOL    HW2 9625   4.049   2.696   3.930  1.4336 -0.0409 -0.4028
 2393SOL    HW3 9626   4.099   2.747   3.796  0.0117 -0.5965 -1.1525
 2393SOL    MW4 9627   4.044   2.698   3.843  0.2189 -0.0629 -0.3386
 2394SOL     OW 9628   4.270   2.822   3.761  0.1097 -0.3373  0.2799
 2394SOL    HW2 9629   4.259   2.900   3.816 -1.3283 -1.0781  1.0621
 2394SOL    HW3 9630   4.341   2.773   3.802 -0.0926 -0.2486  0.7320
 2394SOL    MW4 9631   4.278   2.826   3.774 -0.1073 -0.4232  0.4427
 2395SOL     OW 9632   4.237   3.058   3.905  0.4668  0.0942  0.0951
 2395SOL    HW2 9633   4.179   3.123   3.866  1.8856  0.6239 -1.2141
 2395SOL    HW3 9634   4.325   3.090   3.886  1.1979 -1.5327  0.5918
 2395SOL    MW4 9635   4.241   3.071   3.897  0.7505 -0.0505 -0.0119
 2396SOL     OW 9636   4.062   3.238   3.773  0.2070 -0.1447 -0.1933
 2396SOL    HW2 9637   3.987   3.178   3.778  0.9744 -1.3360 -2.2018
 2396SOL    HW3 9638   4.086   3.237   3.680  1.1362  2.1988 -0.0065
 2396SOL    MW4 9639   4.055   3.230   3.761  0.4306  0.0074 -0.4337
 2397SOL     OW 9640   4.045   3.483   3.909 -0.4680 -0.4634  0.0325
 2397SOL    HW2 9641   4.063   3.400   3.866 -0.1695 -0.9321  1.0529
 2397SOL    HW3 9642   3.960   3.510   3.875 -0.9318 -1.5703  0.3157
 2397SOL    MW4 9643   4.036   3.476   3.899 -0.4897 -0.6711  0.2043
 2398SOL     OW 9644   4.259   3.604   3.788  0.0360  0.1409 -0.2502
 2398SOL    HW2 9645   4.192   3.568   3.847  0.4338 -1.0845 -0.5289
 2398SOL    HW3 9646   4.337   3.552   3.806  0.7086  1.0826 -0.4532
 2398SOL    MW4 9647   4.260   3.592   3.798  0.1769  0.1037 -0.3140
 2399SOL     OW 9648   4.285   3.891   3.836 -0.1126 -0.0490 -0.2401
 2399SOL    HW2 9649   4.200   3.930   3.817  0.4863  1.3952 -0.0063
 2399SOL    HW3 9650   4.273   3.797   3.820 -1.7903  0.1226 -0.0212
 2399SOL    MW4 9651   4.273   3.884   3.831 -0.2551  0.1643 -0.1807
 2400SOL     OW 9652   4.042   3.986   3.791 -0.3402  0.0866 -0.0885
 2400SOL    HW2 9653   4.059   4.072   3.827 -0.0057 -0.6322  1.5054
 2400SOL    HW3 9654   4.058   3.995   3.697  1.6190  1.2559  0.3471
 2400SOL    MW4 9655   4.046   3.998   3.783 -0.0377  0.1464  0.1793
 2401SOL     OW 9656   4.070   4.254   3.851  0.3154  0.2089 -0.1425
 2401SOL    HW2 9657   4.078   4.251   3.946 -0.8750 -2.5294 -0.0765
 2401SOL    HW3 9658   4.150   4.297   3.821  2.3917 -2.0512  1.9211
 2401SOL    MW4 9659   4.082   4.259   3.860  0.4320 -0.4506  0.1385
 2402SOL     OW 9660   4.293   4.391   3.781  0.0357 -0.2959 -0.0104
 2402SOL    HW2 9661   4.286   4.471   3.833  0.6840  0.2272 -0.7030
 2402SOL    HW3 9662   4.372   4.348   3.813 -0.4276 -0.7655  0.5025
 2402SOL    MW4 9663   4.302   4.396   3.792  0.0596 -0.2890 -0.0341
 2403SOL     OW 9664   0.213   4.651   4.195  0.1052 -0.4684 -0.3884
 2403SOL    HW2 9665   0.234   4.566   4.234 -0.9805 -0.1453  0.9173
 2403SOL    HW3 9666   0.287   4.707   4.217  0.1735 -0.6878 -0.0564
 2403SOL    MW4 9667   0.225   4.647   4.203 -0.0290 -0.4544 -0.1721
 2404SOL     OW 9668   4.448   0.389   4.184  0.2000  0.2113  0.4515
 2404SOL    HW2 9669   4.424   0.390   4.091  0.9980  0.3646  0.2417
 2404SOL    HW3 9670   4.457   0.296   4.206 -0.0324  0.1733  0.3864
 2404SOL    MW4 9671   4.446   0.377   4.174  0.2747  0.2265  0.4153
 2405SOL     OW 9672   1.152   2.898   4.521 -0.2885 -0.2293 -0.2447
 2405SOL    HW2 9673   1.078   2.958   4.517  0.1607  0.4129  0.8823
 2405SOL    HW3 9674   1.120   2.822   4.569 -0.5408 -0.4222 -0.7207
 2405SOL    MW4 9675   1.138   2.896   4.527 -0.2626 -0.1700 -0.1588
 2406SOL     OW 9676   0.435   0.376   4.180  0.0734 -0.2259  0.0668
 2406SOL    HW2 9677   0.357   0.429   4.200  0.2199 -0.3871  1.0961
 2406SOL    HW3 9678   0.446   0.385   4.085 -0.9041  0.2073 -0.0173
 2406SOL    MW4 9679   0.426   0.384   4.170 -0.0363 -0.1900  0.1917
 2407SOL     OW 9680   0.215   0.750   4.145 -0.4427  0.1711  0.2751
 2407SOL    HW2 9681   0.221   0.669   4.195  0.9150 -0.2704 -0.5871
 2407SOL    HW3 9682   0.274   0.810   4.189  1.5273 -0.5325 -1.3638
 2407SOL    MW4 9683   0.223   0.747   4.157 -0.0036  0.0200 -0.0544
 2408SOL     OW 9684   0.191   0.503   4.261 -0.0860  0.0143  0.4165
 2408SOL    HW2 9685   0.176   0.493   4.355  0.0889  0.9975  0.5606
 2408SOL    HW3 9686   0.115   0.463   4.220 -0.1046 -0.5295  0.9702
 2408SOL    MW4 9687   0.179   0.497   4.268 -0.0654  0.0723  0.5083
 2409SOL     OW 9688   0.144   1.261   4.208 -0.6494  0.1142  0.1188
 2409SOL    HW2 9689   0.094   1.246   4.128 -0.3048 -1.8573  0.2420
 2409SOL    HW3 9690   0.095   1.213   4.275  0.4283 -0.3311  0.5905
 2409SOL    MW4 9691   0.131   1.253   4.207 -0.4618 -0.2047  0.1969
 2410SOL     OW 9692   0.765   0.779   4.704  0.0458 -0.1097  0.1364
 2410SOL    HW2 9693   0.723   0.713   4.649 -1.0788  0.2461  0.5291
 2410SOL    HW3 9694   0.765   0.740   4.792  0.6275 -0.1438  0.1191
 2410SOL    MW4 9695   0.759   0.765   4.708 -0.0257 -0.0673  0.1855
 2411SOL     OW 9696   3.375   3.027   4.606 -0.6288  0.6444  0.2156
 2411SOL    HW2 9697   3.347   2.953   4.552  1.9432  0.7172 -1.3018
 2411SOL    HW3 9698   3.336   3.103   4.563  1.1904  0.6780 -1.4587
 2411SOL    MW4 9699   3.366   3.027   4.593 -0.0496  0.6583 -0.2050
 2412SOL     OW 9700   4.446   1.684   4.265 -0.2462  0.2676  0.1637
 2412SOL    HW2 9701   4.414   1.706   4.352 -2.1218  0.5539 -0.5709
 2412SOL    HW3 9702   4.468   1.768   4.226 -0.1600  0.2072  0.0833
 2412SOL    MW4 9703   4.444   1.698   4.271 -0.4821  0.2973  0.0558
 2413SOL     OW 9704   2.515   2.830   4.242  0.1254  0.4423  0.3789
 2413SOL    HW2 9705   2.574   2.759   4.214 -0.1721 -0.2689  1.4964
 2413SOL    HW3 9706   2.552   2.860   4.325  0.0960  1.4235  0.0390
 2413SOL    MW4 9707   2.528   2.824   4.249  0.0820  0.4778  0.4816
 2414SOL     OW 9708   4.154   3.319   4.572  0.2018  0.1061  0.2761
 2414SOL    HW2 9709   4.064   3.319   4.539  0.6624 -0.3039 -1.0071
 2414SOL    HW3 9710   4.145   3.333   4.666 -1.2618 -0.8820  0.2952
 2414SOL    MW4 9711   4.141   3.321   4.580  0.0691 -0.0784  0.1097
 2415SOL     OW 9712   0.225   2.322   4.198 -0.1399  0.1264 -0.5414
 2415SOL    HW2 9713   0.309   2.361   4.223 -0.4436 -0.8027  2.1559
 2415SOL    HW3 9714   0.160   2.378   4.241 -0.7181 -1.2038  0.3486
 2415SOL    MW4 9715   0.227   2.335   4.207 -0.2562 -0.1717 -0.0682
 2416SOL     OW 9716   0.423   2.494   4.540  0.0707 -0.0342 -0.1542
 2416SOL    HW2 9717   0.442   2.475   4.448 -0.3720 -0.3210 -0.1875
 2416SOL    HW3 9718   0.361   2.566   4.538  0.6840  0.4958 -0.0610
 2416SOL    MW4 9719   0.417   2.501   4.528  0.0932 -0.0021 -0.1464
 2417SOL     OW 9720   0.003   2.466   4.284 -0.0723 -0.0492 -0.1951
 2417SOL    HW2 9721  -0.009   2.551   4.243 -0.1429 -0.3088 -0.7266
 2417SOL    HW3 9722  -0.066   2.411   4.247 -0.7403 -0.0365  1.0040
 2417SOL    MW4 9723  -0.008   2.470   4.274 -0.1698 -0.0818 -0.1073
 2418SOL     OW 9724   2.076   1.106   4.683 -0.3478  0.0024  0.7852
 2418SOL    HW2 9725   2.056   1.189   4.639  1.2300 -0.2976 -0.5308
 2418SOL    HW3 9726   2.143   1.065   4.629 -0.3054 -1.6401  2.0264
 2418SOL    MW4 9727   2.082   1.112   4.670 -0.1340 -0.2539  0.7753
 2419SOL     OW 9728   0.218   3.079   4.142  0.4208  0.5206  0.1267
 2419SOL    HW2 9729   0.145   3.116   4.192  0.2677 -0.8227  0.9298
 2419SOL    HW3 9730   0.296   3.103   4.192  0.5737  2.1870 -0.8741
 2419SOL    MW4 9731   0.219   3.087   4.156  0.4208  0.5631  0.1011
 2420SOL     OW 9732   0.014   3.190   4.289  0.3750  0.3826  0.1206
 2420SOL    HW2 9733   0.016   3.279   4.254 -0.2090  0.5146  0.4239
 2420SOL    HW3 9734  -0.076   3.161   4.277  1.0915 -1.0214 -2.0998
 2420SOL    MW4 9735   0.003   3.198   4.283  0.3924  0.2148 -0.1326
 2421SOL     OW 9736   0.019   3.430   4.168 -0.0917  0.5264 -0.1632
 2421SOL    HW2 9737  -0.043   3.497   4.196 -0.1068 -0.2601  1.7584
 2421SOL    HW3 9738  -0.003   3.414   4.076 -2.4124  0.5998  0.3562
 2421SOL    MW4 9739   0.008   3.437   4.160 -0.3998  0.4320  0.1593
 2422SOL     OW 9740   0.236   3.860   4.165 -0.1373  0.5875  0.2784
 2422SOL    HW2 9741   0.248   3.770   4.196 -0.6647  0.3179 -0.2891
 2422SOL    HW3 9742   0.316   3.905   4.192 -0.1312  0.1014  1.1079
 2422SOL    MW4 9743   0.248   3.854   4.172 -0.2061  0.4878  0.3128
 2423SOL     OW 9744   4.076   0.589   4.557  0.2273  1.0801 -0.4729
 2423SOL    HW2 9745   4.107   0.530   4.625 -0.9120 -0.2721 -1.1057
 2423SOL    HW3 9746   4.122   0.562   4.478 -0.7367  0.6107 -0.8932
 2423SOL    MW4 9747   4.086   0.578   4.555 -0.0501  0.8398 -0.6118
 2424SOL     OW 9748   3.762   4.253   4.518 -0.0955 -0.1473  0.2040
 2424SOL    HW2 9749   3.676   4.292   4.535 -0.0217 -0.0201  0.2873
 2424SOL    HW3 9750   3.787   4.286   4.431  0.2167  0.4467  0.5129
 2424SOL    MW4 9751   3.754   4.262   4.509 -0.0446 -0.0520  0.2561
 2425SOL     OW 9752   0.424   4.032   4.503  0.3045 -0.1299 -0.1186
 2425SOL    HW2 9753   0.499   4.079   4.541  0.9192 -1.4606  0.3586
 2425SOL    HW3 9754   0.415   3.953   4.558 -1.1835 -0.1937 -0.4349
 2425SOL    MW4 9755   0.433   4.028   4.515  0.1893 -0.3138 -0.0973
 2426SOL     OW 9756   0.475   3.973   4.223 -0.0607  0.5269 -0.1099
 2426SOL    HW2 9757   0.463   3.974   4.318 -1.0012  0.5614 -0.2238
 2426SOL    HW3 9758   0.479   4.065   4.198  2.5505  0.5303  0.1677
 2426SOL    MW4 9759   0.474   3.985   4.232  0.1597  0.5319 -0.0887
 2427SOL     OW 9760   4.148   3.965   4.530 -0.1892  0.5650  0.0696
 2427SOL    HW2 9761   4.105   4.035   4.579  2.2507  1.0476  1.6023
 2427SOL    HW3 9762   4.122   3.981   4.439 -1.4106  2.1723  0.6740
 2427SOL    MW4 9763   4.139   3.976   4.524 -0.0286  0.8409  0.3514
 2428SOL     OW 9764   0.622   4.629   4.123 -0.1552 -0.3507  0.5671
 2428SOL    HW2 9765   0.624   4.542   4.165 -0.9854 -0.0585  1.2328
 2428SOL    HW3 9766   0.637   4.611   4.030  2.4790 -0.9570  1.0519
 2428SOL    MW4 9767   0.624   4.615   4.117  0.0828 -0.3924  0.7195
 2429SOL     OW 9768   0.661   0.504   4.252 -0.5921 -0.0932  0.6243
 2429SOL    HW2 9769   0.658   0.594   4.218 -0.7450 -0.5882 -0.7136
 2429SOL    HW3 9770   0.574   0.470   4.234 -0.5522 -0.4851  1.1952
 2429SOL    MW4 9771   0.649   0.512   4.245 -0.6070 -0.2102  0.5226
 2430SOL     OW 9772   1.275   1.600   4.498  0.6792  0.5355 -0.0480
 2430SOL    HW2 9773   1.357   1.591   4.548 -0.0281  0.7917  1.1907
 2430SOL    HW3 9774   1.235   1.680   4.534 -0.5142 -0.0563 -0.0618
 2430SOL    MW4 9775   1.281   1.610   4.509  0.4284  0.4913  0.1140
 2431SOL     OW 9776   0.673   0.772   4.172  0.0212  0.1979 -0.0675
 2431SOL    HW2 9777   0.677   0.771   4.077 -0.0645  1.2628 -0.0875
 2431SOL    HW3 9778   0.596   0.826   4.192 -0.7668 -1.1379  0.5852
 2431SOL    MW4 9779   0.663   0.779   4.162 -0.0941  0.1622  0.0157
 2432SOL     OW 9780   1.465   0.936   4.651 -0.2476 -0.2798  0.3575
 2432SOL    HW2 9781   1.470   1.017   4.600 -0.1326 -0.5700 -0.0931
 2432SOL    HW3 9782   1.497   0.868   4.592 -0.3354 -0.6556  0.7376
 2432SOL    MW4 9783   1.470   0.938   4.637 -0.2440 -0.3676  0.3481
 2433SOL     OW 9784   2.956   0.642   4.662 -0.2741 -0.3074 -0.0886
 2433SOL    HW2 9785   2.871   0.659   4.620  0.2216  1.9468 -0.2475
 2433SOL    HW3 9786   3.003   0.725   4.654  0.1613 -0.0143  4.1663
 2433SOL    MW4 9787   2.951   0.655   4.655 -0.1509  0.0286  0.4520
 2434SOL     OW 9788   0.379   1.149   4.165 -0.3703  0.4053 -0.0834
 2434SOL    HW2 9789   0.296   1.187   4.192 -1.2009 -0.2187 -1.7139
 2434SOL    HW3 9790   0.366   1.125   4.073  0.8437 -1.8671  0.3139
 2434SOL    MW4 9791   0.367   1.151   4.156 -0.3197  0.0231 -0.2465
 2435SOL     OW 9792   0.625   1.513   4.195 -0.5444  0.0917  0.0818
 2435SOL    HW2 9793   0.553   1.569   4.223  0.9636  1.6203  1.0247
 2435SOL    HW3 9794   0.634   1.529   4.101 -1.4861 -0.1677 -0.0504
 2435SOL    MW4 9795   0.617   1.523   4.187 -0.4697  0.2593  0.1888
 2436SOL     OW 9796   0.177   1.545   4.183 -0.2262  0.3242  0.1789
 2436SOL    HW2 9797   0.161   1.457   4.218  0.0782  0.6831  1.2223
 2436SOL    HW3 9798   0.101   1.596   4.212 -0.2624  0.4841 -0.1906
 2436SOL    MW4 9799   0.165   1.540   4.191 -0.1908  0.3926  0.2675
 2437SOL     OW 9800   0.445   1.942   4.143  0.1791  0.0871  0.3442
 2437SOL    HW2 9801   0.444   1.857   4.185 -0.6151 -0.0293  0.1024
 2437SOL    HW3 9802   0.441   1.923   4.049  2.6884  0.3189  0.1457
 2437SOL    MW4 9803   0.445   1.928   4.136  0.4054  0.1024  0.2861
 2438SOL     OW 9804   0.604   1.959   4.507  0.5862  0.2949 -0.9183
 2438SOL    HW2 9805   0.557   2.029   4.552 -0.8464 -0.5650 -1.0384
 2438SOL    HW3 9806   0.634   1.999   4.425 -0.1981  0.7772 -0.9742
 2438SOL    MW4 9807   0.602   1.973   4.502  0.2937  0.2452 -0.9413
 2439SOL     OW 9808   0.702   2.322   4.168  0.5641 -0.1006  0.0455
 2439SOL    HW2 9809   0.693   2.232   4.198  1.9640 -0.1586  0.3182
 2439SOL    HW3 9810   0.704   2.315   4.073 -1.1665 -0.1693 -0.0032
 2439SOL    MW4 9811   0.701   2.310   4.160  0.5205 -0.1171  0.0749
 2440SOL     OW 9812   0.474   2.441   4.266 -0.1616 -0.2893 -0.1426
 2440SOL    HW2 9813   0.455   2.518   4.213 -0.3935  0.0542  0.4293
 2440SOL    HW3 9814   0.555   2.406   4.229  0.1752  0.4755 -0.1509
 2440SOL    MW4 9815   0.482   2.447   4.254 -0.1478 -0.1433 -0.0682
 2441SOL     OW 9816   0.444   2.709   4.152 -0.0004 -0.1837  0.4554
 2441SOL    HW2 9817   0.453   2.710   4.057  1.7140  1.7726  0.6057
 2441SOL    HW3 9818   0.531   2.732   4.185 -0.7529 -0.0884  2.4880
 2441SOL    MW4 9819   0.457   2.712   4.144  0.1265  0.0873  0.7434
 2442SOL     OW 9820   0.681   2.757   4.315  0.0189  0.3728 -0.0507
 2442SOL    HW2 9821   0.761   2.727   4.273  0.5817  1.7692  0.0095
 2442SOL    HW3 9822   0.707   2.780   4.404 -0.2974  1.4180 -0.2116
 2442SOL    MW4 9823   0.695   2.756   4.321  0.0514  0.6952 -0.0634
 2443SOL     OW 9824   0.688   3.004   4.201 -0.3155  0.5530 -0.4153
 2443SOL    HW2 9825   0.698   2.926   4.254  0.0918  0.5766 -0.4539
 2443SOL    HW3 9826   0.605   3.043   4.230 -1.0685 -0.4823 -1.1775
 2443SOL    MW4 9827   0.679   2.999   4.212 -0.3611  0.4196 -0.5207
 2444SOL     OW 9828   1.166   2.028   4.509 -0.3253 -0.1601 -0.3184
 2444SOL    HW2 9829   1.236   2.094   4.515 -0.0468 -0.4210 -0.6972
 2444SOL    HW3 9830   1.139   2.029   4.418 -1.5288  0.6604  0.0399
 2444SOL    MW4 9831   1.172   2.037   4.498 -0.4473 -0.0861 -0.3214
 2445SOL     OW 9832   0.457   3.378   4.189 -0.1341  0.0150 -0.2994
 2445SOL    HW2 9833   0.536   3.431   4.206 -1.0692  1.1913  0.5185
 2445SOL    HW3 9834   0.451   3.374   4.093  0.1741  1.0698 -0.3717
 2445SOL    MW4 9835   0.467   3.385   4.179 -0.2168  0.3092 -0.2012
 2446SOL     OW 9836   0.701   3.806   4.180 -0.2401 -0.2564  0.2424
 2446SOL    HW2 9837   0.612   3.842   4.179 -0.5008 -0.9129 -2.3591
 2446SOL    HW3 9838   0.689   3.714   4.202 -0.1651 -0.2850  0.1596
 2446SOL    MW4 9839   0.687   3.799   4.183 -0.2646 -0.3467 -0.1116
 2447SOL     OW 9840   0.655   3.543   4.278 -0.1584  0.1589  0.3543
 2447SOL    HW2 9841   0.641   3.549   4.372 -0.6194 -0.4058  0.3278
 2447SOL    HW3 9842   0.749   3.526   4.269 -0.2578 -0.6188  0.7537
 2447SOL    MW4 9843   0.665   3.541   4.289 -0.2323 -0.0179  0.4034
 2448SOL     OW 9844   3.723   2.045   4.496 -0.1724 -0.5804 -0.5778
 2448SOL    HW2 9845   3.789   2.096   4.542  2.1224 -1.5551 -2.6472
 2448SOL    HW3 9846   3.747   1.954   4.513 -0.1367 -0.9425 -2.4250
 2448SOL    MW4 9847   3.735   2.040   4.504  0.1349 -0.7565 -1.0943
 2449SOL     OW 9848   4.219   4.648   4.655  0.4734  0.0697  0.6349
 2449SOL    HW2 9849   4.179   4.730   4.627  1.3565  0.6193  0.9390
 2449SOL    HW3 9850   4.176   4.628   4.738 -0.0574 -0.0095  0.3414
 2449SOL    MW4 9851   4.208   4.656   4.662  0.5202  0.1316  0.6366
 2450SOL     OW 9852   0.693   4.383   4.252  0.4677  0.0427 -0.1956
 2450SOL    HW2 9853   0.629   4.321   4.217 -0.1514  1.3706 -1.4685
 2450SOL    HW3 9854   0.662   4.401   4.341 -1.1871  1.0075 -0.9500
 2450SOL    MW4 9855   0.680   4.377   4.259  0.1676  0.3452 -0.4635
 2451SOL     OW 9856   1.074   4.641   4.163  0.0443  0.7135  0.2756
 2451SOL    HW2 9857   1.090   4.633   4.068  2.0305 -0.0782  0.6443
 2451SOL    HW3 9858   1.150   4.688   4.196  0.8900 -1.6706  1.8922
 2451SOL    MW4 9859   1.086   4.646   4.155  0.4179  0.2952  0.5374
 2452SOL     OW 9860   0.841   0.087   4.250  0.2781  0.4141  0.3805
 2452SOL    HW2 9861   0.777   0.054   4.186  1.1374  0.7989 -0.7022
 2452SOL    HW3 9862   0.924   0.050   4.221  0.8576  1.5254  0.5972
 2452SOL    MW4 9863   0.843   0.078   4.238  0.4680  0.6115  0.2666
 2453SOL     OW 9864   0.872   0.351   4.153  0.2666 -0.0299  0.2106
 2453SOL    HW2 9865   0.862   0.260   4.183  2.2415  0.6598  3.1374
 2453SOL    HW3 9866   0.798   0.397   4.192  0.6137  0.0902  0.7267
 2453SOL    MW4 9867   0.861   0.345   4.162  0.5730  0.0770  0.6642
 2454SOL     OW 9868   1.110   0.494   4.267 -0.3719  0.1439 -0.2669
 2454SOL    HW2 9869   1.029   0.450   4.240 -0.4540  0.4539 -0.5299
 2454SOL    HW3 9870   1.107   0.578   4.222  0.1226  0.1357 -0.3077
 2454SOL    MW4 9871   1.099   0.499   4.258 -0.3173  0.1838 -0.3066
 2455SOL     OW 9872   1.148   0.747   4.157 -0.3794 -0.1536  0.0625
 2455SOL    HW2 9873   1.217   0.788   4.210 -1.4342  0.6532  0.8277
 2455SOL    HW3 9874   1.070   0.798   4.176 -1.2162 -1.1187 -0.7433
 2455SOL    MW4 9875   1.147   0.759   4.166 -0.6288 -0.1745  0.0567
 2456SOL     OW 9876   0.924   0.873   4.259  0.3505 -0.5265  0.0908
 2456SOL    HW2 9877   0.837   0.838   4.241  0.0594  0.7971 -1.1970
 2456SOL    HW3 9878   0.923   0.896   4.352 -0.5827 -0.7680  0.1409
 2456SOL    MW4 9879   0.912   0.871   4.269  0.1889 -0.3838 -0.0725
 2457SOL     OW 9880   0.889   1.141   4.195  0.4439  0.0523  0.2183
 2457SOL    HW2 9881   0.897   1.048   4.215  0.2508  0.3244  1.6281
 2457SOL    HW3 9882   0.796   1.160   4.210  0.3419  0.3351 -0.7244
 2457SOL    MW4 9883   0.877   1.131   4.199  0.4050  0.1255  0.2799
 2458SOL     OW 9884   1.142   1.276   4.227 -0.1985 -0.1546  0.2712
 2458SOL    HW2 9885   1.161   1.300   4.318 -2.1395  0.8148  0.4436
 2458SOL    HW3 9886   1.054   1.239   4.231 -0.6054  0.6329 -1.3512
 2458SOL    MW4 9887   1.133   1.274   4.240 -0.5083  0.0771  0.0792
 2459SOL     OW 9888   1.086   1.523   4.113 -0.3056 -0.2877  0.4654
 2459SOL    HW2 9889   1.008   1.548   4.162 -0.2048 -1.1269  1.0623
 2459SOL    HW3 9890   1.109   1.436   4.146  0.0678 -0.6446 -0.6901
 2459SOL    MW4 9891   1.079   1.515   4.124 -0.2429 -0.4454  0.3920
 2460SOL     OW 9892   0.872   1.601   4.269  0.9030  0.2994  0.0728
 2460SOL    HW2 9893   0.786   1.573   4.236  0.9842  0.6940 -0.4937
 2460SOL    HW3 9894   0.854   1.634   4.357  0.5543 -0.0895  0.1467
 2460SOL    MW4 9895   0.858   1.602   4.276  0.8677  0.3003  0.0076
 2461SOL     OW 9896   0.673   2.054   4.251 -0.4267  0.1005 -0.0468
 2461SOL    HW2 9897   0.595   2.010   4.219 -0.0990 -1.0363  0.6711
 2461SOL    HW3 9898   0.745   1.995   4.228  0.0308  0.3000  0.8438
 2461SOL    MW4 9899   0.673   2.040   4.244 -0.3232 -0.0229  0.1655
 2462SOL     OW 9900   1.598   2.289   4.153 -0.3656 -0.2279  0.0054
 2462SOL    HW2 9901   1.585   2.209   4.204 -0.0250 -0.6022 -0.4862
 2462SOL    HW3 9902   1.595   2.260   4.062  1.4436  0.0468 -0.1592
 2462SOL    MW4 9903   1.596   2.275   4.148 -0.0820 -0.2410 -0.0811
 2463SOL     OW 9904   1.083   2.028   4.244  0.3044  0.4138 -0.8530
 2463SOL    HW2 9905   1.092   2.114   4.203 -2.4261  1.7282  1.1790
 2463SOL    HW3 9906   1.009   1.987   4.198  1.2486 -0.6670 -1.4439
 2463SOL    MW4 9907   1.075   2.034   4.232  0.0688  0.4447 -0.6633
 2464SOL     OW 9908   2.065   1.920   4.805 -0.1196  0.0640  0.0826
 2464SOL    HW2 9909   2.105   1.992   4.853 -0.8042  0.1779  0.4925
 2464SOL    HW3 9910   1.972   1.923   4.830  0.0117 -1.5290  0.8535
 2464SOL    MW4 9911   2.058   1.930   4.815 -0.1924 -0.1311  0.2384
 2465SOL     OW 9912   0.903   2.668   4.191 -0.1757 -0.8776  0.4403
 2465SOL    HW2 9913   0.912   2.586   4.240  0.4428 -0.3757  1.1821
 2465SOL    HW3 9914   0.981   2.718   4.213 -1.0824  0.3725  0.8952
 2465SOL    MW4 9915   0.914   2.664   4.201 -0.2137 -0.6466  0.5984
 2466SOL     OW 9916   1.135   2.833   4.247  0.7587  0.3596  0.1182
 2466SOL    HW2 9917   1.123   2.923   4.215 -0.1282  0.1236 -0.2454
 2466SOL    HW3 9918   1.156   2.843   4.340  0.2607  0.9316  0.1770
 2466SOL    MW4 9919   1.136   2.846   4.255  0.5759  0.4039  0.0782
 2467SOL     OW 9920   1.121   3.094   4.162 -0.3824  0.6280  0.0009
 2467SOL    HW2 9921   1.195   3.146   4.193 -1.3092  1.2688  1.2021
 2467SOL    HW3 9922   1.131   3.091   4.067  1.1904  0.6872  0.1518
 2467SOL    MW4 9923   1.132   3.100   4.154 -0.2971  0.7203  0.1793
 2468SOL     OW 9924   0.894   3.197   4.259 -0.2317 -0.2470 -0.2809
 2468SOL    HW2 9925   0.826   3.138   4.228 -1.3614  1.8306 -1.9103
 2468SOL    HW3 9926   0.975   3.160   4.226 -0.9478 -0.7368 -1.5263
 2468SOL    MW4 9927   0.896   3.185   4.250 -0.4752 -0.0377 -0.6604
 2469SOL     OW 9928   0.920   3.487   4.186  0.1150  0.2078 -0.4186
 2469SOL    HW2 9929   0.921   3.394   4.207  0.0999 -0.0441 -1.5074
 2469SOL    HW3 9930   0.918   3.490   4.091  0.5465  1.3291 -0.3997
 2469SOL    MW4 9931   0.920   3.475   4.177  0.1700  0.3226 -0.5593
 2470SOL     OW 9932   1.144   3.628   4.252  0.1338  0.1311 -0.1533
 2470SOL    HW2 9933   1.065   3.580   4.226  1.0253 -1.5118  0.0984
 2470SOL    HW3 9934   1.145   3.622   4.347  0.4931  0.2504 -0.1505
 2470SOL    MW4 9935   1.134   3.621   4.261  0.2990 -0.0699 -0.1197
 2471SOL     OW 9936   1.120   3.859   4.124  0.5347  0.3310  0.2970
 2471SOL    HW2 9937   1.048   3.893   4.178  0.0707 -0.2122  0.0176
 2471SOL    HW3 9938   1.138   3.772   4.160 -0.3347 -0.3730 -0.9482
 2471SOL    MW4 9939   1.113   3.852   4.136  0.3587  0.1664  0.0954
 2472SOL     OW 9940   1.604   3.576   4.555 -0.0802 -0.3163  0.1191
 2472SOL    HW2 9941   1.599   3.481   4.565  1.4870 -0.3414  0.8151
 2472SOL    HW3 9942   1.623   3.590   4.463  0.4202 -0.7212  0.1557
 2472SOL    MW4 9943   1.606   3.566   4.544  0.1928 -0.3729  0.2151
 2473SOL     OW 9944   1.132   4.386   4.265  0.2937 -0.3618  0.0440
 2473SOL    HW2 9945   1.213   4.360   4.220  0.2768 -0.2947 -0.0263
 2473SOL    HW3 9946   1.116   4.476   4.235  0.8754  0.0827  1.0130
 2473SOL    MW4 9947   1.141   4.395   4.255  0.3682 -0.2947  0.1626
 2474SOL     OW 9948   0.919   4.228   4.152  0.3565 -0.3508  0.1198
 2474SOL    HW2 9949   0.852   4.285   4.191 -0.5259 -1.2046 -0.1073
 2474SOL    HW3 9950   1.002   4.260   4.187 -0.0543  1.6025 -0.6667
 2474SOL    MW4 9951   0.921   4.239   4.162  0.1859 -0.2055 -0.0138
 2475SOL     OW 9952   2.982   3.085   4.648  0.1107 -0.3411  0.5222
 2475SOL    HW2 9953   3.035   3.141   4.592 -1.9318  0.0171 -1.1171
 2475SOL    HW3 9954   2.986   2.999   4.608  0.4758 -0.6031  1.1122
 2475SOL    MW4 9955   2.989   3.081   4.636 -0.1106 -0.3283  0.3839
 2476SOL     OW 9956   0.887   2.450   4.589  0.1415 -0.4565  0.3179
 2476SOL    HW2 9957   0.800   2.471   4.623 -0.1383 -1.3226  0.1458
 2476SOL    HW3 9958   0.919   2.380   4.646  0.1526 -1.0961 -0.4616
 2476SOL    MW4 9959   0.879   2.444   4.601  0.1061 -0.6552  0.1926
 2477SOL     OW 9960   2.050   4.094   4.609  0.0771  0.1625 -0.0480
 2477SOL    HW2 9961   2.000   4.123   4.685  1.0822  0.3506  0.5514
 2477SOL    HW3 9962   2.064   4.174   4.558  2.6876  0.7517  1.5104
 2477SOL    MW4 9963   2.045   4.109   4.613  0.5538  0.2651  0.2370
 2478SOL     OW 9964   4.066   1.366   4.541 -0.3101  0.1302  0.4588
 2478SOL    HW2 9965   4.094   1.293   4.596  0.5076  0.3927  0.4007
 2478SOL    HW3 9966   3.971   1.369   4.551 -0.4968 -1.7543 -0.5218
 2478SOL    MW4 9967   4.057   1.357   4.549 -0.2265 -0.0837  0.3214
 2479SOL     OW 9968   1.574   0.733   4.191 -0.0551 -0.3891 -0.5184
 2479SOL    HW2 9969   1.648   0.786   4.220 -1.9348  1.6462  0.7568
 2479SOL    HW3 9970   1.554   0.764   4.103 -0.9268  0.8013  0.0898
 2479SOL    MW4 9971   1.581   0.744   4.183 -0.4181  0.0364 -0.2699
 2480SOL     OW 9972   1.357   0.842   4.312  0.0585 -0.2026 -0.2215
 2480SOL    HW2 9973   1.437   0.797   4.287  0.1372  0.1284 -0.5592
 2480SOL    HW3 9974   1.365   0.930   4.275 -0.8526 -0.4424 -1.0274
 2480SOL    MW4 9975   1.369   0.848   4.304 -0.0514 -0.1904 -0.3724
 2481SOL     OW 9976   1.318   1.072   4.175  0.6265  0.3396 -0.0497
 2481SOL    HW2 9977   1.258   1.144   4.198 -0.1751 -0.3788  0.1180
 2481SOL    HW3 9978   1.312   1.066   4.080  1.0108  0.7650 -0.1043
 2481SOL    MW4 9979   1.309   1.081   4.165  0.5714  0.3009 -0.0353
 2482SOL     OW 9980   1.524   1.254   4.248 -0.3781  0.4738  0.3651
 2482SOL    HW2 9981   1.506   1.246   4.342 -0.4188 -1.4311  0.2162
 2482SOL    HW3 9982   1.462   1.194   4.207  0.2586  0.6251 -0.8227
 2482SOL    MW4 9983   1.513   1.245   4.255 -0.2995  0.2426  0.1884
 2483SOL     OW 9984   1.803   1.676   4.532  0.7720  0.0661 -0.0082
 2483SOL    HW2 9985   1.896   1.698   4.542  0.4827  1.7694 -0.9269
 2483SOL    HW3 9986   1.760   1.716   4.607  0.4471  1.4080 -0.8989
 2483SOL    MW4 9987   1.810   1.684   4.543  0.6909  0.4678 -0.2470
 2484SOL     OW 9988   1.806   1.665   4.251 -0.0127 -0.5984  0.0655
 2484SOL    HW2 9989   1.816   1.670   4.346 -0.2040  0.1632  0.0545
 2484SOL    HW3 9990   1.733   1.604   4.237 -0.4216 -0.1950  0.4363
 2484SOL    MW4 9991   1.797   1.658   4.261 -0.0919 -0.4448  0.1125
 2485SOL     OW 9992   1.327   1.934   4.147 -0.4761  0.1411  0.1562
 2485SOL    HW2 9993   1.239   1.954   4.179 -0.9618 -0.4997 -0.7382
 2485SOL    HW3 9994   1.335   1.839   4.156  0.3405  0.2645  0.7654
 2485SOL    MW4 9995   1.317   1.924   4.152 -0.4325  0.0728  0.1183
 2486SOL     OW 9996   1.220   0.833   4.560  0.0177 -0.5076  0.2082
 2486SOL    HW2 9997   1.289   0.863   4.620 -0.6785 -0.4553  0.9961
 2486SOL    HW3 9998   1.261   0.836   4.474  0.5262  1.0079  0.4731
 2486SOL    MW4 9999   1.235   0.838   4.557 -0.0072 -0.3007  0.3471
 2487SOL     OW10000   1.830   2.453   4.234 -0.5388 -0.4084  0.4083
 2487SOL    HW210001   1.767   2.394   4.191 -1.9927  0.9929  0.5692
 2487SOL    HW310002   1.794   2.465   4.322  0.6358 -0.5748  0.9134
 2487SOL    MW410003   1.817   2.447   4.240 -0.5757 -0.2456  0.4964
 2488SOL     OW10004   1.357   2.410   4.209 -0.2242  0.0621  0.4591
 2488SOL    HW210005   1.431   2.362   4.172 -0.4267  0.7216 -0.8476
 2488SOL    HW310006   1.367   2.499   4.175 -2.6738 -0.2757 -1.3589
 2488SOL    MW410007   1.368   2.416   4.199 -0.5741  0.1047  0.0463
 2489SOL     OW10008   1.349   2.683   4.117 -0.1271  0.0389 -0.0148
 2489SOL    HW210009   1.425   2.736   4.141  0.0634  0.1419 -0.8214
 2489SOL    HW310010   1.276   2.722   4.166  0.4322 -0.4222  1.2099
 2489SOL    MW410011   1.349   2.695   4.127 -0.0283 -0.0083  0.0401
 2490SOL     OW10012   1.799   2.719   4.122 -0.0358  0.3690  0.1067
 2490SOL    HW210013   1.873   2.771   4.153  0.2122 -0.1061  0.3141
 2490SOL    HW310014   1.815   2.631   4.156  0.1206 -0.0999 -1.1551
 2490SOL    MW410015   1.811   2.714   4.130  0.0176  0.2446 -0.0319
 2491SOL     OW10016   1.547   3.097   4.126  0.2866  0.1489 -0.6121
 2491SOL    HW210017   1.622   3.129   4.176  0.4096 -2.9371  1.3463
 2491SOL    HW310018   1.473   3.150   4.156  1.3353  1.9706 -1.1921
 2491SOL    MW410019   1.547   3.108   4.137  0.4413 -0.0179 -0.4306
 2492SOL     OW10020   1.353   3.238   4.226 -0.2354 -0.7946  0.0147
 2492SOL    HW210021   1.360   3.330   4.201  0.3218 -1.0693 -0.8670
 2492SOL    HW310022   1.386   3.235   4.316 -1.3164  0.0445  0.4415
 2492SOL    MW410023   1.358   3.250   4.234 -0.3046 -0.7203 -0.0453
 2493SOL     OW10024   1.608   3.859   4.139 -0.1140  0.2070  0.1919
 2493SOL    HW210025   1.523   3.899   4.158 -0.1398  0.0283  0.4518
 2493SOL    HW310026   1.605   3.775   4.184  1.2907  1.3714  2.5970
 2493SOL    MW410027   1.597   3.854   4.148  0.0679  0.3369  0.5436
 2494SOL     OW10028   4.327   0.842   4.659 -0.3135 -0.2620 -0.4744
 2494SOL    HW210029   4.396   0.909   4.660 -0.2604 -0.3284  0.5094
 2494SOL    HW310030   4.255   0.882   4.610 -1.1588  1.3929  2.0224
 2494SOL    MW410031   4.327   0.856   4.652 -0.4187 -0.0525 -0.0148
 2495SOL     OW10032   1.356   3.970   4.215  0.5970  0.6266 -0.3594
 2495SOL    HW210033   1.359   4.063   4.195  2.9022  0.1405 -2.5925
 2495SOL    HW310034   1.279   3.937   4.169 -0.1423  1.4039  0.3226
 2495SOL    MW410035   1.347   3.978   4.206  0.8034  0.6649 -0.5641
 2496SOL     OW10036   1.303   3.948   4.492  0.0091 -0.2771  0.7326
 2496SOL    HW210037   1.313   3.964   4.398 -0.5491 -0.1668  0.6906
 2496SOL    HW310038   1.210   3.961   4.509  0.1854  0.1920  1.3936
 2496SOL    MW410039   1.292   3.952   4.482 -0.0412 -0.2007  0.8149
 2497SOL     OW10040   1.347   4.249   4.156  0.1860 -0.4255  0.4636
 2497SOL    HW210041   1.364   4.237   4.062 -1.4793  0.5512  0.0209
 2497SOL    HW310042   1.424   4.297   4.188  0.7493 -0.7334 -0.4105
 2497SOL    MW410043   1.360   4.254   4.148  0.0405 -0.3366  0.2894
 2498SOL     OW10044   1.524   4.660   4.135 -0.7236  0.0557  0.3730
 2498SOL    HW210045   1.611   4.698   4.138 -0.3101 -0.4972 -2.7339
 2498SOL    HW310046   1.527   4.586   4.195  0.7390  0.4448  0.7786
 2498SOL    MW410047   1.536   4.655   4.143 -0.4760  0.0343  0.0167
 2499SOL     OW10048   2.020   4.657   4.172  0.3208  0.3104  0.1131
 2499SOL    HW210049   2.028   4.666   4.077 -0.2627 -0.2528  0.0072
 2499SOL    HW310050   1.933   4.691   4.192  0.0624 -0.4659  0.3254
 2499SOL    MW410051   2.010   4.663   4.162  0.2098  0.1340  0.1273
 2500SOL     OW10052   1.871   0.920   4.764  0.0883 -0.4547  0.4758
 2500SOL    HW210053   1.795   0.969   4.795 -0.3602 -0.8633  0.0410
 2500SOL    HW310054   1.939   0.986   4.753 -0.3276 -0.0210  0.4665
 2500SOL    MW410055   1.870   0.935   4.767 -0.0259 -0.4514  0.4177
 2501SOL     OW10056   1.340   0.361   4.203 -0.1254  0.0938 -0.1944
 2501SOL    HW210057   1.407   0.419   4.238 -1.5006  0.6334  1.6092
 2501SOL    HW310058   1.258   0.406   4.220 -0.9897 -0.7284 -2.0520
 2501SOL    MW410059   1.338   0.375   4.210 -0.4208  0.0565 -0.2012
 2502SOL     OW10060   1.779   0.372   4.102 -0.4673 -0.6763  0.0865
 2502SOL    HW210061   1.852   0.430   4.122 -1.4476  0.4798  0.3541
 2502SOL    HW310062   1.706   0.405   4.154 -1.4311 -1.2604 -0.8590
 2502SOL    MW410063   1.779   0.384   4.111 -0.7237 -0.6008 -0.0029
 2503SOL     OW10064   2.028   0.771   4.107  0.6959 -0.1033 -0.4197
 2503SOL    HW210065   2.091   0.820   4.159  1.1697 -1.2544  0.0983
 2503SOL    HW310066   2.028   0.684   4.145  1.0649 -0.9675 -2.3598
 2503SOL    MW410067   2.036   0.766   4.119  0.8073 -0.3692 -0.6075
 2504SOL     OW10068   1.801   0.889   4.228  0.2011  0.0387  0.0702
 2504SOL    HW210069   1.820   0.876   4.322 -0.0863 -0.8407  0.0138
 2504SOL    HW310070   1.878   0.854   4.184  0.2324  0.2386 -0.0330
 2504SOL    MW410071   1.814   0.882   4.235  0.1673 -0.0509  0.0496
 2505SOL     OW10072   1.765   1.153   4.152  0.2033  0.5217  0.0190
 2505SOL    HW210073   1.684   1.185   4.193 -1.5517  0.9770 -3.6074
 2505SOL    HW310074   1.770   1.061   4.178 -2.7468 -0.1426 -1.4900
 2505SOL    MW410075   1.755   1.145   4.161 -0.4174  0.4941 -0.6585
 2506SOL     OW10076   1.072   2.653   4.630  0.3462  0.3921  0.2855
 2506SOL    HW210077   1.014   2.578   4.617  1.0205  0.0006 -0.5159
 2506SOL    HW310078   1.151   2.616   4.669  0.5593  0.7247  0.1734
 2506SOL    MW410079   1.075   2.639   4.633  0.4631  0.3843  0.1655
 2507SOL     OW10080   2.038   1.569   4.142 -0.3842  0.2960 -0.3839
 2507SOL    HW210081   1.954   1.610   4.165 -1.7326 -1.9742 -1.0701
 2507SOL    HW310082   2.036   1.563   4.046  0.0359 -0.8656 -0.3169
 2507SOL    MW410083   2.026   1.574   4.132 -0.5064 -0.1569 -0.4659
 2508SOL     OW10084   4.048   3.698   4.577 -0.6210 -0.0837 -0.0490
 2508SOL    HW210085   4.125   3.646   4.553 -0.9693  0.0161 -1.3897
 2508SOL    HW310086   4.075   3.789   4.565 -1.2584 -0.0773 -1.4712
 2508SOL    MW410087   4.062   3.703   4.572 -0.7515 -0.0696 -0.4134
 2509SOL     OW10088   1.781   2.018   4.836  0.0494 -0.0399  0.2150
 2509SOL    HW210089   1.814   2.058   4.755 -0.1988 -1.3297 -0.5369
 2509SOL    HW310090   1.715   1.955   4.807 -0.6521  0.0797  1.4881
 2509SOL    MW410091   1.777   2.015   4.822 -0.0758 -0.1941  0.2837
 2510SOL     OW10092   3.289   2.811   4.455  0.1525 -0.0567  0.0423
 2510SOL    HW210093   3.304   2.837   4.364  1.6892  0.5425  0.4504
 2510SOL    HW310094   3.258   2.720   4.449  2.1363 -0.6970 -0.9925
 2510SOL    MW410095   3.287   2.802   4.442  0.6168 -0.0620 -0.0405
 2511SOL     OW10096   2.243   1.249   4.854  0.0150  0.1253 -0.4034
 2511SOL    HW210097   2.172   1.197   4.816  0.5308  0.1893 -1.4627
 2511SOL    HW310098   2.198   1.321   4.899 -0.7664 -1.9389  2.2161
 2511SOL    MW410099   2.228   1.252   4.855 -0.0198 -0.1388 -0.1979
 2512SOL     OW10100   3.062   0.416   4.529 -0.3164 -0.3480  0.0507
 2512SOL    HW210101   3.019   0.490   4.570 -1.4935  0.0292 -1.7673
 2512SOL    HW310102   3.022   0.339   4.569 -1.3927  0.0124 -0.3134
 2512SOL    MW410103   3.051   0.415   4.539 -0.6132 -0.2507 -0.2375
 2513SOL     OW10104   1.568   2.824   4.216 -0.3674  0.0222 -0.2970
 2513SOL    HW210105   1.558   2.915   4.188 -1.3411  0.1901  0.5712
 2513SOL    HW310106   1.650   2.795   4.176 -0.2220  1.1805 -0.8434
 2513SOL    MW410107   1.577   2.832   4.207 -0.4766  0.1969 -0.2551
 2514SOL     OW10108   2.458   2.068   4.280 -0.3458  0.0927  0.2296
 2514SOL    HW210109   2.457   2.157   4.247  0.1778  0.3097  0.7817
 2514SOL    HW310110   2.407   2.071   4.361 -0.4763 -0.1471  0.1578
 2514SOL    MW410111   2.451   2.080   4.286 -0.2940  0.0896  0.2933
 2515SOL     OW10112   2.025   3.125   4.173  0.0569 -0.2115  0.0558
 2515SOL    HW210113   2.089   3.194   4.191  0.5201 -0.6105 -0.0420
 2515SOL    HW310114   2.040   3.103   4.080 -0.8057  0.2920 -0.2037
 2515SOL    MW410115   2.036   3.132   4.163  0.0041 -0.1979  0.0091
 2516SOL     OW10116   1.774   3.205   4.235  0.0121 -0.4059 -0.1748
 2516SOL    HW210117   1.777   3.290   4.192  1.7487 -0.4704 -0.2128
 2516SOL    HW310118   1.862   3.169   4.224 -0.3943 -1.7432  0.7718
 2516SOL    MW410119   1.786   3.211   4.228  0.1875 -0.5908 -0.0553
 2517SOL     OW10120   1.812   3.462   4.128  0.5810  0.6558 -0.4040
 2517SOL    HW210121   1.872   3.524   4.170  0.3555  0.5142  0.1363
 2517SOL    HW310122   1.826   3.475   4.034 -0.2580  2.3118 -0.3229
 2517SOL    MW410123   1.822   3.472   4.121  0.4406  0.8557 -0.3223
 2518SOL     OW10124   1.130   0.541   4.557 -0.2370 -0.1016 -0.0251
 2518SOL    HW210125   1.142   0.635   4.570  1.3356 -0.1716 -0.8455
 2518SOL    HW310126   1.130   0.530   4.462 -0.8296 -0.8808  0.0636
 2518SOL    MW410127   1.132   0.552   4.546 -0.1079 -0.2137 -0.1216
 2519SOL     OW10128   2.002   3.649   4.232 -0.4137  0.7350 -0.1704
 2519SOL    HW210129   2.021   3.736   4.196 -1.2888  0.4677 -1.2754
 2519SOL    HW310130   2.031   3.655   4.324 -0.3717  2.1596 -0.2635
 2519SOL    MW410131   2.008   3.662   4.240 -0.5236  0.8876 -0.3285
 2520SOL     OW10132   1.842   4.015   4.233  0.2462  0.4298  0.1935
 2520SOL    HW210133   1.816   4.107   4.222 -1.1920 -0.0064 -0.2209
 2520SOL    HW310134   1.771   3.966   4.192 -0.0284 -0.9348  2.2045
 2520SOL    MW410135   1.829   4.021   4.226  0.0203  0.1922  0.4039
 2521SOL     OW10136   1.783   4.278   4.169  0.0697  0.1613 -0.2434
 2521SOL    HW210137   1.857   4.325   4.207 -0.1025  0.4420 -0.2542
 2521SOL    HW310138   1.795   4.287   4.075  0.5346 -0.5944 -0.2674
 2521SOL    MW410139   1.794   4.285   4.162  0.1084  0.0987 -0.2475
 2522SOL     OW10140   2.025   4.393   4.264  0.0562 -0.0243 -0.1412
 2522SOL    HW210141   2.107   4.353   4.237 -0.4317  0.2779 -2.1193
 2522SOL    HW310142   2.031   4.484   4.235 -1.0153 -0.0293 -0.4100
 2522SOL    MW410143   2.036   4.400   4.257 -0.1495  0.0148 -0.4373
 2523SOL     OW10144   4.359   1.729   4.520 -0.3078 -0.3403  0.2435
 2523SOL    HW210145   4.446   1.713   4.557 -0.1327 -0.0653 -0.0430
 2523SOL    HW310146   4.354   1.824   4.512 -0.3624 -0.3951 -0.3923
 2523SOL    MW410147   4.370   1.739   4.524 -0.2923 -0.3113  0.1216
 2524SOL     OW10148   0.281   4.260   4.490 -0.1794 -0.5128  0.3743
 2524SOL    HW210149   0.194   4.252   4.528 -0.1777 -1.2642  0.2208
 2524SOL    HW310150   0.319   4.172   4.497  0.0874 -0.4917 -0.6968
 2524SOL    MW410151   0.274   4.247   4.496 -0.1440 -0.6094  0.2127
 2525SOL     OW10152   2.283   0.412   4.114  0.0462  0.1451 -0.2211
 2525SOL    HW210153   2.272   0.329   4.160 -1.2772  0.2673 -0.3113
 2525SOL    HW310154   2.288   0.388   4.022 -0.7866  0.1963 -0.2841
 2525SOL    MW410155   2.282   0.398   4.108 -0.2384  0.1680 -0.2418
 2526SOL     OW10156   2.231   0.925   4.213  0.2459 -0.1684  0.5301
 2526SOL    HW210157   2.234   0.935   4.308 -1.5928 -0.9736  0.6838
 2526SOL    HW310158   2.232   1.015   4.179  1.2252  0.1144  1.2849
 2526SOL    MW410159   2.232   0.938   4.221  0.1328 -0.2373  0.6504
 2527SOL     OW10160   2.494   0.790   4.146  0.0799 -0.1896 -0.1185
 2527SOL    HW210161   2.500   0.792   4.051  1.3225 -1.2925 -0.0675
 2527SOL    HW310162   2.407   0.826   4.165 -0.8217 -1.4635 -1.7234
 2527SOL    MW410163   2.483   0.795   4.136  0.1245 -0.5032 -0.3238
 2528SOL     OW10164   3.474   0.896   4.522 -0.2927  0.0290 -0.6298
 2528SOL    HW210165   3.486   0.900   4.427 -2.9067  2.8791 -0.9019
 2528SOL    HW310166   3.404   0.833   4.535  0.6347 -0.9985 -0.4837
 2528SOL    MW410167   3.467   0.888   4.511 -0.5152  0.2694 -0.6461
 2529SOL     OW10168   2.298   1.460   4.649 -0.3902 -0.1114  0.0564
 2529SOL    HW210169   2.304   1.400   4.723  0.5057 -0.8345 -0.6056
 2529SOL    HW310170   2.270   1.543   4.689  0.3882 -0.4088  1.2486
 2529SOL    MW410171   2.295   1.463   4.664 -0.1693 -0.2460  0.1264
 2530SOL     OW10172   2.240   1.197   4.114 -0.0950 -0.1407  0.1164
 2530SOL    HW210173   2.165   1.239   4.156  0.7415  1.2137  0.2669
 2530SOL    HW310174   2.317   1.236   4.156  0.7136 -0.3766 -1.1215
 2530SOL    MW410175   2.240   1.208   4.125  0.1218  0.0069 -0.0272
 2531SOL     OW10176   2.238   1.968   4.135  0.3630  0.2411 -0.2145
 2531SOL    HW210177   2.241   1.886   4.185  0.7072 -0.7418 -1.7895
 2531SOL    HW310178   2.318   2.015   4.161 -0.0006  0.2412  0.9422
 2531SOL    MW410179   2.249   1.963   4.145  0.3605  0.1113 -0.2699
 2532SOL     OW10180   2.465   1.595   4.121 -0.5190 -0.0779 -0.1149
 2532SOL    HW210181   2.482   1.589   4.027 -1.7108 -0.7010 -0.2949
 2532SOL    HW310182   2.544   1.635   4.157  0.1948 -0.4016 -1.3023
 2532SOL    MW410183   2.478   1.599   4.113 -0.5820 -0.2028 -0.2952
 2533SOL     OW10184   2.067   2.047   4.511  0.0983 -0.1701  0.3318
 2533SOL    HW210185   2.008   2.041   4.436  0.9120  0.8300 -0.3974
 2533SOL    HW310186   2.086   1.956   4.534 -0.1501 -0.4805 -0.6891
 2533SOL    MW410187   2.062   2.034   4.504  0.1729 -0.0794  0.1006
 2534SOL     OW10188   1.462   1.556   4.697  0.4298 -0.2919 -0.0721
 2534SOL    HW210189   1.406   1.575   4.772 -0.0360 -0.5643 -0.3543
 2534SOL    HW310190   1.500   1.470   4.718  1.2839  0.1942  0.4408
 2534SOL    MW410191   1.460   1.547   4.710  0.4810 -0.2637 -0.0415
 2535SOL     OW10192   2.279   2.476   4.243 -0.1260  0.1361 -0.2065
 2535SOL    HW210193   2.261   2.566   4.217 -0.5364  0.5158  1.3672
 2535SOL    HW310194   2.210   2.425   4.199 -0.9130  0.7926  0.2481
 2535SOL    MW410195   2.267   2.481   4.234 -0.2840  0.2728  0.0610
 2536SOL     OW10196   2.717   0.969   4.508 -0.2991 -0.0828  0.3993
 2536SOL    HW210197   2.704   0.977   4.414  1.1597  1.0310  0.2815
 2536SOL    HW310198   2.636   1.000   4.547 -1.5799 -2.1793 -0.5139
 2536SOL    MW410199   2.705   0.974   4.501 -0.2751 -0.2125  0.2637
 2537SOL     OW10200   0.614   1.551   4.651  0.1589  0.5568 -0.0822
 2537SOL    HW210201   0.615   1.535   4.745 -2.0329 -1.5117 -0.3723
 2537SOL    HW310202   0.632   1.465   4.612 -1.3127  0.9045 -1.5788
 2537SOL    MW410203   0.617   1.537   4.658 -0.3244  0.3299 -0.3181
 2538SOL     OW10204   1.260   2.265   4.822 -0.4781  0.2564 -0.1024
 2538SOL    HW210205   1.291   2.237   4.909 -0.1798  2.2648  0.4768
 2538SOL    HW310206   1.313   2.215   4.761  0.4810  0.0251  0.8896
 2538SOL    MW410207   1.271   2.255   4.826 -0.3122  0.4907  0.1044
 2539SOL     OW10208   2.385   3.342   4.644 -0.1306 -0.4430 -0.1919
 2539SOL    HW210209   2.341   3.286   4.580  1.0402 -0.7769 -0.7207
 2539SOL    HW310210   2.400   3.285   4.720 -3.3573  0.4993  1.2206
 2539SOL    MW410211   2.381   3.327   4.646 -0.4020 -0.3626 -0.0749
 2540SOL     OW10212   2.284   3.218   4.215 -0.0423  0.2593  0.1451
 2540SOL    HW210213   2.285   3.310   4.188  2.1617  1.0448  2.6777
 2540SOL    HW310214   2.273   3.221   4.310  0.6090 -2.0779  0.3186
 2540SOL    MW410215   2.283   3.230   4.224  0.3345  0.0544  0.5021
 2541SOL     OW10216   2.240   3.501   4.168 -0.0174 -0.2229 -0.1379
 2541SOL    HW210217   2.313   3.560   4.191 -0.4418  0.6441 -0.9658
 2541SOL    HW310218   2.163   3.542   4.207 -0.3118 -0.2372 -0.6985
 2541SOL    MW410219   2.240   3.514   4.176 -0.1123 -0.1104 -0.3209
 2542SOL     OW10220   0.639   3.609   4.552 -0.0018  0.0743 -0.1808
 2542SOL    HW210221   0.621   3.539   4.615 -1.1889  0.6186  0.0990
 2542SOL    HW310222   0.721   3.647   4.580 -0.2425 -0.0565  0.7065
 2542SOL    MW410223   0.647   3.604   4.564 -0.1902  0.1290 -0.0267
 2543SOL     OW10224   2.501   3.896   4.149  0.3062  0.0353 -0.2794
 2543SOL    HW210225   2.424   3.946   4.176 -0.0649 -0.7562  0.1524
 2543SOL    HW310226   2.487   3.877   4.057 -0.7813 -1.4634  0.1820
 2543SOL    MW410227   2.489   3.900   4.141  0.1135 -0.2668 -0.1616
 2544SOL     OW10228   3.319   3.703   4.503  0.1748  0.0574 -0.0305
 2544SOL    HW210229   3.334   3.677   4.412  0.4912  1.6628 -0.4555
 2544SOL    HW310230   3.274   3.787   4.497  1.2819  0.7701  1.2879
 2544SOL    MW410231   3.315   3.710   4.490  0.3626  0.3631  0.0873
 2545SOL     OW10232   2.272   4.034   4.252  0.2616 -0.1565  0.4203
 2545SOL    HW210233   2.208   3.993   4.195 -0.2739 -0.8380  1.5000
 2545SOL    HW310234   2.256   3.996   4.338 -0.4925  2.5579  1.5361
 2545SOL    MW410235   2.262   4.024   4.256  0.0913  0.1121  0.7095
 2546SOL     OW10236   2.275   4.309   4.152  0.2128  0.7257  0.1211
 2546SOL    HW210237   2.275   4.226   4.201 -2.3417  1.7447  1.9952
 2546SOL    HW310238   2.347   4.359   4.188  0.2528  0.2546  0.7039
 2546SOL    MW410239   2.284   4.304   4.163 -0.1187  0.7982  0.4458
 2547SOL     OW10240   1.569   2.049   4.267 -0.5052  0.0568 -0.4563
 2547SOL    HW210241   1.490   2.014   4.227 -0.1986 -0.9085 -0.2176
 2547SOL    HW310242   1.641   2.009   4.218 -0.1574  1.5039 -1.1720
 2547SOL    MW410243   1.568   2.039   4.255 -0.4188  0.1204 -0.5188
 2548SOL     OW10244   2.719   0.077   4.267 -0.4047 -0.1058 -0.3659
 2548SOL    HW210245   2.791   0.049   4.211 -0.3572 -0.2785 -0.2192
 2548SOL    HW310246   2.719   0.172   4.262 -0.5496 -0.1330 -0.8469
 2548SOL    MW410247   2.728   0.086   4.259 -0.4175 -0.1322 -0.4096
 2549SOL     OW10248   2.494   0.528   4.240 -0.0044 -0.0930  0.3437
 2549SOL    HW210249   2.432   0.484   4.182  0.8400 -0.6084 -0.1758
 2549SOL    HW310250   2.495   0.619   4.210  0.9237 -0.5028 -0.8727
 2549SOL    MW410251   2.486   0.534   4.229  0.2296 -0.2151  0.1144
 2550SOL     OW10252   0.634   4.210   4.595  0.4030 -0.0695 -0.2573
 2550SOL    HW210253   0.581   4.287   4.573 -0.2551 -0.1084  1.1360
 2550SOL    HW310254   0.630   4.204   4.690  1.6548 -0.9877 -0.2437
 2550SOL    MW410255   0.626   4.219   4.604  0.4814 -0.1960 -0.0720
 2551SOL     OW10256   2.903   0.778   4.134 -0.1180 -0.2324  0.3651
 2551SOL    HW210257   2.915   0.769   4.039 -0.6758 -1.6705  0.4208
 2551SOL    HW310258   2.915   0.689   4.168 -1.8965 -0.0840  1.4230
 2551SOL    MW410259   2.906   0.765   4.126 -0.4263 -0.4025  0.5116
 2552SOL     OW10260   2.710   0.956   4.231  0.3138  0.5752 -0.3275
 2552SOL    HW210261   2.790   0.907   4.213 -0.0296 -0.4086  0.7717
 2552SOL    HW310262   2.639   0.898   4.202 -0.0564  0.8988 -0.0822
 2552SOL    MW410263   2.711   0.942   4.225  0.2198  0.4880 -0.1502
 2553SOL     OW10264   2.684   1.220   4.123 -0.3527  0.1865 -0.1265
 2553SOL    HW210265   2.684   1.211   4.027 -2.3793  0.1385 -0.1365
 2553SOL    HW310266   2.700   1.132   4.156 -0.2461  0.0952 -0.4244
 2553SOL    MW410267   2.686   1.207   4.114 -0.6061  0.1681 -0.1674
 2554SOL     OW10268   3.271   0.673   4.512 -0.0507 -0.1737  0.1476
 2554SOL    HW210269   3.310   0.586   4.511 -0.8214 -0.5572  1.6660
 2554SOL    HW310270   3.180   0.657   4.538 -1.0136  0.7824 -2.4714
 2554SOL    MW410271   3.264   0.659   4.515 -0.2794 -0.0982  0.0024
 2555SOL     OW10272   2.919   1.580   4.111 -0.1780 -0.7036 -0.2026
 2555SOL    HW210273   2.851   1.643   4.136 -0.4094 -0.5126 -1.2830
 2555SOL    HW310274   2.911   1.509   4.174 -1.0852 -0.4700 -0.0526
 2555SOL    MW410275   2.909   1.579   4.122 -0.3283 -0.6475 -0.3252
 2556SOL     OW10276   1.700   2.528   4.473  0.6803  0.1751 -0.4990
 2556SOL    HW210277   1.735   2.504   4.559 -1.2640 -0.6316  0.0907
 2556SOL    HW310278   1.684   2.622   4.478  1.3109  0.2733 -0.2606
 2556SOL    MW410279   1.703   2.537   4.485  0.5069  0.0818 -0.3901
 2557SOL     OW10280   3.125   1.741   4.226 -0.0670  0.4421 -0.0360
 2557SOL    HW210281   3.116   1.736   4.321  0.1978 -1.4809 -0.0870
 2557SOL    HW310282   3.062   1.676   4.193  1.2300 -0.3087 -1.0814
 2557SOL    MW410283   3.115   1.731   4.234  0.1388  0.0894 -0.1807
 2558SOL     OW10284   2.007   0.168   4.611  0.0339 -0.1075  0.1509
 2558SOL    HW210285   2.089   0.158   4.563 -0.0090 -0.5494  0.1701
 2558SOL    HW310286   1.998   0.088   4.663 -0.8300 -0.4391 -0.4921
 2558SOL    MW410287   2.016   0.156   4.612 -0.0858 -0.2096  0.0691
 2559SOL     OW10288   2.729   4.033   4.530  0.8456  0.1765  0.0841
 2559SOL    HW210289   2.649   3.987   4.554  1.2206 -0.3394  0.3582
 2559SOL    HW310290   2.732   4.028   4.435  0.9095 -0.4142  0.1147
 2559SOL    MW410291   2.719   4.027   4.521  0.9034  0.0310  0.1240
 2560SOL     OW10292   3.348   2.075   4.240  0.5857  0.0978 -0.6321
 2560SOL    HW210293   3.374   2.162   4.210  0.4248 -0.6298 -2.9924
 2560SOL    HW310294   3.417   2.017   4.208 -0.4879 -0.9367 -1.1196
 2560SOL    MW410295   3.360   2.079   4.231  0.4227 -0.1347 -1.0076
 2561SOL     OW10296   2.753   2.353   4.120  0.0003 -0.1969 -0.0249
 2561SOL    HW210297   2.662   2.327   4.135  0.3550 -0.8413  1.0954
 2561SOL    HW310298   2.804   2.299   4.180  1.0059  1.2098  0.4244
 2561SOL    MW410299   2.748   2.342   4.130  0.1798 -0.0961  0.1822
 2562SOL     OW10300   2.533   3.094   4.131 -0.5185 -0.2127  0.4976
 2562SOL    HW210301   2.540   3.005   4.164  0.7613  0.3420  1.7761
 2562SOL    HW310302   2.447   3.124   4.162 -1.8080 -1.6190 -1.5829
 2562SOL    MW410303   2.522   3.087   4.139 -0.5200 -0.3252  0.3920
 2563SOL     OW10304   2.701   2.654   4.126  0.3698  0.1232 -0.1838
 2563SOL    HW210305   2.778   2.681   4.175  0.2710  0.3992 -0.1801
 2563SOL    HW310306   2.699   2.559   4.135  0.0219  0.2289  0.8287
 2563SOL    MW410307   2.711   2.645   4.133  0.3107  0.1733 -0.0501
 2564SOL     OW10308   2.907   3.083   4.174  0.4558  0.4917  0.3999
 2564SOL    HW210309   2.842   3.140   4.217  0.3123  0.0346  0.7877
 2564SOL    HW310310   2.902   3.108   4.081  0.6053  1.3199  0.6057
 2564SOL    MW410311   2.897   3.094   4.167  0.4566  0.5405  0.4778
 2565SOL     OW10312   2.711   3.273   4.243  0.7195 -0.4687 -0.1607
 2565SOL    HW210313   2.647   3.207   4.217  2.9430 -2.0331 -1.8331
 2565SOL    HW310314   2.700   3.344   4.180  0.7013 -0.7829 -0.5125
 2565SOL    MW410315   2.701   3.273   4.231  1.0104 -0.7167 -0.4277
 2566SOL     OW10316   2.242   3.179   4.479 -0.0479  0.2638 -1.0386
 2566SOL    HW210317   2.269   3.092   4.508  0.7849  0.7525 -0.3265
 2566SOL    HW310318   2.150   3.185   4.504  0.3890  0.2884  0.6379
 2566SOL    MW410319   2.233   3.168   4.486  0.1197  0.3314 -0.7234
 2567SOL     OW10320   2.915   3.852   4.123  0.0157  0.3759 -0.2927
 2567SOL    HW210321   2.840   3.898   4.162  0.1784  1.6435 -1.4453
 2567SOL    HW310322   2.917   3.768   4.168 -2.0119  0.3835 -0.1446
 2567SOL    MW410323   2.906   3.847   4.134 -0.2306  0.5438 -0.4253
 2568SOL     OW10324   2.949   3.861   4.598  0.2015  0.1521 -0.0480
 2568SOL    HW210325   2.867   3.903   4.573 -0.1661 -0.3428  0.3265
 2568SOL    HW310326   2.937   3.769   4.576  0.7899  0.1358 -0.3208
 2568SOL    MW410327   2.937   3.854   4.591  0.2308  0.0846 -0.0348
 2569SOL     OW10328   2.483   4.438   4.271 -0.1670 -0.3423 -0.1979
 2569SOL    HW210329   2.563   4.395   4.241  1.2299  0.6772  1.9055
 2569SOL    HW310330   2.500   4.457   4.364 -2.0315  1.7420 -0.2374
 2569SOL    MW410331   2.496   4.435   4.279 -0.2286  0.0672  0.0744
 2570SOL     OW10332   4.440   0.608   4.507 -0.7297 -0.1584  0.2840
 2570SOL    HW210333   4.476   0.654   4.431 -0.4193 -0.9715 -0.0634
 2570SOL    HW310334   4.408   0.678   4.564  0.3178  0.5207  0.0544
 2570SOL    MW410335   4.441   0.623   4.504 -0.5503 -0.1761  0.2079
 2571SOL     OW10336   2.483   0.240   4.595 -0.2859  0.2216 -0.3381
 2571SOL    HW210337   2.561   0.185   4.601 -0.8021 -0.4184  0.7504
 2571SOL    HW310338   2.516   0.328   4.578  0.6761 -0.0349  0.2058
 2571SOL    MW410339   2.497   0.245   4.594 -0.2275  0.1033 -0.1230
 2572SOL     OW10340   1.436   2.918   4.616  0.2712 -0.0196 -0.2425
 2572SOL    HW210341   1.464   2.858   4.685 -1.1921 -0.0454  0.3386
 2572SOL    HW310342   1.344   2.896   4.600  0.0647  1.2472 -0.8698
 2572SOL    MW410343   1.428   2.907   4.623  0.0509  0.1440 -0.2484
 2573SOL     OW10344   2.059   3.712   4.515 -0.1055 -0.1197 -0.1488
 2573SOL    HW210345   2.096   3.644   4.570 -0.1776  0.8058  1.0656
 2573SOL    HW310346   1.970   3.724   4.546 -0.7662 -0.8755 -1.6940
 2573SOL    MW410347   2.052   3.705   4.526 -0.2022 -0.0975 -0.1922
 2574SOL     OW10348   3.817   3.623   4.227  0.4043  0.5474  0.1495
 2574SOL    HW210349   3.897   3.574   4.210  0.7855  0.6377  1.5555
 2574SOL    HW310350   3.814   3.630   4.323 -1.4468  0.2680  0.1306
 2574SOL    MW410351   3.827   3.618   4.238  0.2100  0.5226  0.3324
 2575SOL     OW10352   1.567   4.119   4.536 -0.3293 -0.8457 -0.2637
 2575SOL    HW210353   1.490   4.063   4.532 -0.5643 -0.4186 -2.4348
 2575SOL    HW310354   1.641   4.058   4.532 -0.5769 -1.1300 -0.5477
 2575SOL    MW410355   1.567   4.103   4.535 -0.3930 -0.8264 -0.5875
 2576SOL     OW10356   3.180   3.976   4.500  0.0480  0.0310  0.2389
 2576SOL    HW210357   3.160   3.999   4.410 -0.1730 -2.0997 -0.2818
 2576SOL    HW310358   3.096   3.945   4.536  0.2186  0.4990  1.0616
 2576SOL    MW410359   3.166   3.975   4.493  0.0415 -0.1884  0.2780
 2577SOL     OW10360   3.118   1.175   4.137 -0.1069 -0.4415  0.5338
 2577SOL    HW210361   3.184   1.240   4.161  0.6023 -0.5546 -1.0588
 2577SOL    HW310362   3.120   1.174   4.041 -1.8063 -1.0817  0.5028
 2577SOL    MW410363   3.127   1.184   4.128 -0.2375 -0.5409  0.3200
 2578SOL     OW10364   3.330   1.363   4.251  0.1323  0.2684 -0.1153
 2578SOL    HW210365   3.295   1.382   4.338 -1.6727  0.1009 -0.7835
 2578SOL    HW310366   3.334   1.448   4.208  0.4677  0.2727 -0.0786
 2578SOL    MW410367   3.326   1.377   4.257 -0.0618  0.2469 -0.1988
 2579SOL     OW10368   3.359   1.612   4.144  0.0677 -0.0211 -0.4108
 2579SOL    HW210369   3.278   1.654   4.173  0.0266 -0.0923 -0.4215
 2579SOL    HW310370   3.353   1.611   4.049  0.5971  0.9766 -0.4523
 2579SOL    MW410371   3.347   1.617   4.135  0.1321  0.1011 -0.4177
 2580SOL     OW10372   0.259   2.707   4.525  0.1945 -0.0628  0.2200
 2580SOL    HW210373   0.264   2.745   4.438 -0.6569  0.0686  0.2289
 2580SOL    HW310374   0.167   2.687   4.538  0.0700  1.2946  1.6613
 2580SOL    MW410375   0.248   2.709   4.516  0.0657  0.1335  0.4110
 2581SOL     OW10376   3.344   0.410   4.456  0.0913  0.5487  0.0806
 2581SOL    HW210377   3.343   0.444   4.366  1.2139 -1.3492 -0.6838
 2581SOL    HW310378   3.252   0.403   4.481 -0.2467  0.4589 -1.1737
 2581SOL    MW410379   3.332   0.414   4.447  0.1950  0.2864 -0.1855
 2582SOL     OW10380   3.787   2.066   4.230  0.4972 -0.1705 -0.3960
 2582SOL    HW210381   3.711   2.016   4.202 -0.8120  1.4652  0.1872
 2582SOL    HW310382   3.778   2.074   4.325  0.2026  1.9246 -0.5687
 2582SOL    MW410383   3.776   2.061   4.239  0.2854  0.3216 -0.3419
 2583SOL     OW10384   2.955   2.216   4.296 -0.1360 -0.3689 -0.5919
 2583SOL    HW210385   2.988   2.138   4.251 -0.4772  0.0721 -1.6153
 2583SOL    HW310386   3.009   2.287   4.264  0.2445 -0.1841  0.4270
 2583SOL    MW410387   2.967   2.215   4.286 -0.1307 -0.2861 -0.5927
 2584SOL     OW10388   3.083   2.704   4.113 -0.4869  0.2915 -0.1917
 2584SOL    HW210389   3.096   2.615   4.144  0.8377  0.5444 -0.0130
 2584SOL    HW310390   3.012   2.739   4.167  2.3745  1.0549  3.2820
 2584SOL    MW410391   3.075   2.697   4.124  0.0656  0.4253  0.2899
 2585SOL     OW10392   2.897   2.815   4.301  0.0280  0.3150 -0.4079
 2585SOL    HW210393   2.950   2.821   4.381  0.9336 -0.9245 -0.8982
 2585SOL    HW310394   2.896   2.904   4.266  0.8605  0.5709  0.2028
 2585SOL    MW410395   2.904   2.828   4.307  0.2573  0.1853 -0.3920
 2586SOL     OW10396   0.706   2.251   4.777 -0.3755  0.2235 -0.2031
 2586SOL    HW210397   0.636   2.197   4.740 -0.8074  0.6774 -0.0542
 2586SOL    HW310398   0.786   2.214   4.740 -0.5401 -1.4295  1.0247
 2586SOL    MW410399   0.707   2.239   4.767 -0.4541  0.0653 -0.0219
 2587SOL     OW10400   3.373   3.085   4.055 -0.0726 -0.5159 -0.8170
 2587SOL    HW210401   3.377   3.074   3.960  1.3889 -1.5966 -0.6395
 2587SOL    HW310402   3.362   2.997   4.089 -0.8784 -0.1019  0.0121
 2587SOL    MW410403   3.372   3.072   4.047  0.0141 -0.6042 -0.6838
 2588SOL     OW10404   3.146   3.204   4.201  0.3871  0.0883  0.0790
 2588SOL    HW210405   3.214   3.172   4.142 -0.0819  1.6795 -1.3343
 2588SOL    HW310406   3.070   3.149   4.183  0.5208 -0.0168 -0.1663
 2588SOL    MW410407   3.145   3.193   4.191  0.3426  0.2844 -0.1397
 2589SOL     OW10408   3.134   3.484   4.141  0.0681  0.0987 -0.0422
 2589SOL    HW210409   3.152   3.392   4.157 -0.6281 -0.3329 -1.5815
 2589SOL    HW310410   3.150   3.496   4.047  0.7537  1.6902  0.2467
 2589SOL    MW410411   3.138   3.474   4.130  0.0668  0.2520 -0.2069
 2590SOL     OW10412   2.904   3.608   4.237 -0.3693 -0.5067 -0.1971
 2590SOL    HW210413   2.976   3.552   4.209 -0.9023 -1.2514 -0.0954
 2590SOL    HW310414   2.913   3.612   4.332  0.0043  0.0464 -0.2537
 2590SOL    MW410415   2.915   3.601   4.246 -0.3903 -0.5319 -0.1912
 2591SOL     OW10416   3.374   3.907   4.153  0.2719  0.7401  0.3401
 2591SOL    HW210417   3.387   3.904   4.059 -1.7402  0.0007  0.0623
 2591SOL    HW310418   3.358   3.817   4.179  0.9623  0.9106  1.4229
 2591SOL    MW410419   3.374   3.895   4.144  0.0975  0.6652  0.4463
 2592SOL     OW10420   0.243   4.369   4.229 -0.2007 -0.2779  0.1288
 2592SOL    HW210421   0.166   4.327   4.190 -0.0899  0.1610 -0.5746
 2592SOL    HW310422   0.251   4.329   4.315 -1.3891 -0.1365  0.3202
 2592SOL    MW410423   0.234   4.358   4.235 -0.3429 -0.2012  0.0610
 2593SOL     OW10424   1.360   0.377   4.586  0.2796  0.6904 -0.2041
 2593SOL    HW210425   1.331   0.286   4.591  1.2181  0.4705  1.3361
 2593SOL    HW310426   1.280   0.428   4.596 -0.2460  0.0435 -1.0141
 2593SOL    MW410427   1.345   0.371   4.588  0.3341  0.5760 -0.1078
 2594SOL     OW10428   3.122   4.022   4.219  0.4175  0.3319  0.1332
 2594SOL    HW210429   3.194   3.974   4.179  0.1568  0.8481 -0.9726
 2594SOL    HW310430   3.043   3.982   4.183  0.1921  2.5062 -2.0014
 2594SOL    MW410431   3.121   4.011   4.209  0.3533  0.6876 -0.2947
 2595SOL     OW10432   3.832   4.634   4.189 -0.0016  0.2052  0.2046
 2595SOL    HW210433   3.758   4.684   4.224 -0.8356 -0.0247 -1.1735
 2595SOL    HW310434   3.822   4.640   4.094  1.4421 -0.2982  0.0101
 2595SOL    MW410435   3.821   4.641   4.181  0.0787  0.1087 -0.0029
 2596SOL     OW10436   3.441   0.010   4.137  0.2673  0.4496  0.1164
 2596SOL    HW210437   3.501   0.054   4.197  1.1338 -0.5311 -0.0227
 2596SOL    HW310438   3.444  -0.082   4.163 -0.9924  0.3537 -0.0501
 2596SOL    MW410439   3.449   0.004   4.149  0.2153  0.3080  0.0763
 2597SOL     OW10440   3.566   0.364   4.161 -0.4739 -0.4561  0.1829
 2597SOL    HW210441   3.640   0.409   4.202  0.1017 -0.8392 -0.4386
 2597SOL    HW310442   3.568   0.391   4.069 -2.1741  0.9454  0.5179
 2597SOL    MW410443   3.576   0.374   4.154 -0.6225 -0.3217  0.1450
 2598SOL     OW10444   0.356   0.924   4.509 -0.1433  0.4540  0.1333
 2598SOL    HW210445   0.379   0.848   4.562  1.9348  2.1893  1.8485
 2598SOL    HW310446   0.270   0.950   4.541 -0.5787 -0.7688 -0.0174
 2598SOL    MW410447   0.348   0.918   4.520  0.0734  0.5216  0.3400
 2599SOL     OW10448   3.538   0.931   4.262  0.1414  0.0677  0.4301
 2599SOL    HW210449   3.465   0.897   4.210 -0.4281  2.6927 -0.5438
 2599SOL    HW310450   3.530   1.026   4.256  2.3809  0.4050  2.1137
 2599SOL    MW410451   3.527   0.939   4.255  0.3617  0.4586  0.5236
 2600SOL     OW10452   3.088   0.909   4.277  0.0044  0.1207 -0.3656
 2600SOL    HW210453   3.105   0.999   4.246 -0.4771  0.1042 -0.6842
 2600SOL    HW310454   3.021   0.876   4.217 -1.0715  0.1454  0.8068
 2600SOL    MW410455   3.082   0.917   4.265 -0.2012  0.1218 -0.2527
 2601SOL     OW10456   3.550   1.198   4.197  0.1979 -0.3988  0.6167
 2601SOL    HW210457   3.472   1.250   4.216  1.3559  1.0990  1.3761
 2601SOL    HW310458   3.555   1.197   4.101 -0.6199 -0.3088  0.5678
 2601SOL    MW410459   3.540   1.205   4.187  0.2427 -0.1893  0.7110
 2602SOL     OW10460   3.819   1.276   4.256  0.3247 -0.0099  0.0526
 2602SOL    HW210461   3.726   1.253   4.253  0.0664  0.9319  0.7463
 2602SOL    HW310462   3.824   1.362   4.216  0.7045  0.5430  1.2710
 2602SOL    MW410463   3.807   1.284   4.250  0.3409  0.1874  0.3052
 2603SOL     OW10464   3.765   1.356   4.533  0.0392 -0.3992 -0.1015
 2603SOL    HW210465   3.793   1.337   4.443  0.1978 -0.3720 -0.0591
 2603SOL    HW310466   3.724   1.275   4.563  2.1790 -1.2350  0.6459
 2603SOL    MW410467   3.763   1.343   4.525  0.3424 -0.5058  0.0029
 2604SOL     OW10468   1.639   1.046   4.835 -0.3848 -0.1542 -0.2554
 2604SOL    HW210469   1.602   0.992   4.765  1.6176 -2.2912  0.2905
 2604SOL    HW310470   1.577   1.037   4.908 -1.2489  0.1867 -0.9359
 2604SOL    MW410471   1.626   1.038   4.836 -0.2347 -0.3912 -0.2732
 2605SOL     OW10472   3.547   1.930   4.168 -0.3235  0.3812  0.0314
 2605SOL    HW210473   3.561   1.841   4.202  1.3458  0.8724  0.7011
 2605SOL    HW310474   3.560   1.921   4.073 -0.4446 -0.1358  0.0578
 2605SOL    MW410475   3.551   1.917   4.160 -0.1192  0.3778  0.1235
 2606SOL     OW10476   4.138   2.453   4.552  0.3842 -0.5322 -0.0485
 2606SOL    HW210477   4.115   2.442   4.460 -0.4586 -0.0275  0.0897
 2606SOL    HW310478   4.233   2.464   4.552  0.4962 -1.4489 -0.7636
 2606SOL    MW410479   4.147   2.453   4.540  0.2880 -0.5863 -0.1249
 2607SOL     OW10480   3.802   2.364   4.195 -0.2369 -0.1752  0.2710
 2607SOL    HW210481   3.795   2.268   4.201 -1.2245 -0.2127 -1.4395
 2607SOL    HW310482   3.836   2.380   4.107  1.8893  0.9712  1.2614
 2607SOL    MW410483   3.806   2.353   4.184 -0.0865 -0.0288  0.1760
 2608SOL     OW10484   4.282   3.594   4.227  0.0621  0.0399  0.0246
 2608SOL    HW210485   4.199   3.548   4.216  0.1387 -0.1277  0.1444
 2608SOL    HW310486   4.271   3.676   4.178  0.3840 -0.6788 -1.2731
 2608SOL    MW410487   4.270   3.599   4.219  0.1149 -0.0770 -0.1307
 2609SOL     OW10488   3.566   2.719   4.120  0.2583 -0.4056 -0.0234
 2609SOL    HW210489   3.553   2.634   4.160  2.2209 -1.5075 -1.5929
 2609SOL    HW310490   3.572   2.701   4.026  2.3384  1.2057 -0.2569
 2609SOL    MW410491   3.565   2.706   4.113  0.7915 -0.3383 -0.2608
 2610SOL     OW10492   3.702   2.459   4.803 -0.4331  0.2837  0.3609
 2610SOL    HW210493   3.610   2.486   4.806 -0.2532  0.7815  1.9634
 2610SOL    HW310494   3.732   2.468   4.894  0.9453 -0.7516  0.0162
 2610SOL    MW410495   3.694   2.464   4.816 -0.2272  0.2127  0.5269
 2611SOL     OW10496   3.798   3.090   4.124  0.2531 -0.4458  0.1426
 2611SOL    HW210497   3.780   2.999   4.145 -0.8268 -0.1373  0.5471
 2611SOL    HW310498   3.807   3.091   4.028  0.1933 -0.9600  0.1327
 2611SOL    MW410499   3.797   3.078   4.114  0.1025 -0.4730  0.1941
 2612SOL     OW10500   3.576   3.208   4.225 -0.1096 -0.0330 -0.0094
 2612SOL    HW210501   3.500   3.213   4.167  0.4161  1.4260 -0.5984
 2612SOL    HW310502   3.645   3.169   4.171  0.3974  1.3800 -0.4157
 2612SOL    MW410503   3.575   3.204   4.210  0.0265  0.3459 -0.1402
 2613SOL     OW10504   4.419   2.464   4.553  0.0819  0.4515 -0.0749
 2613SOL    HW210505   4.427   2.444   4.459  0.3227  0.9477 -0.1665
 2613SOL    HW310506   4.452   2.554   4.560  0.5760  0.2246  0.5672
 2613SOL    MW410507   4.425   2.473   4.541  0.1788  0.4866 -0.0019
 2614SOL     OW10508   3.166   3.484   4.589 -0.0248  0.1785 -0.0969
 2614SOL    HW210509   3.203   3.560   4.544  0.0863 -0.1389 -0.5403
 2614SOL    HW310510   3.202   3.489   4.678  0.4530  0.3064 -0.3010
 2614SOL    MW410511   3.175   3.495   4.595  0.0527  0.1535 -0.1822
 2615SOL     OW10512   3.598   3.739   4.554  0.2707 -0.0210 -0.1654
 2615SOL    HW210513   3.504   3.728   4.539  0.3416  0.8689 -1.3182
 2615SOL    HW310514   3.611   3.834   4.556  1.2591 -0.1341 -0.8135
 2615SOL    MW410515   3.587   3.750   4.552  0.4106  0.0815 -0.4029
 2616SOL     OW10516   4.066   4.024   4.268  0.2521 -0.6283  0.0404
 2616SOL    HW210517   4.124   3.962   4.223 -1.0011  0.1003 -2.6686
 2616SOL    HW310518   3.978   3.989   4.253 -0.2793  0.3498  0.8418
 2616SOL    MW410519   4.062   4.011   4.260  0.0167 -0.4034 -0.2112
 2617SOL     OW10520   3.417   4.394   4.220  0.2726 -0.0935  0.1288
 2617SOL    HW210521   3.478   4.333   4.180 -1.1126 -0.8592 -0.8707
 2617SOL    HW310522   3.446   4.402   4.311  1.1023 -1.3903 -0.0178
 2617SOL    MW410523   3.429   4.387   4.227  0.1988 -0.3657 -0.0224
 2618SOL     OW10524   3.841   4.362   4.240 -0.2395 -0.1369  0.0103
 2618SOL    HW210525   3.929   4.351   4.204  0.7743  0.8471  2.0585
 2618SOL    HW310526   3.823   4.456   4.229 -1.0979 -0.3610 -0.5258
 2618SOL    MW410527   3.851   4.373   4.234 -0.2191 -0.0372  0.2098
 2619SOL     OW10528   0.414   3.782   4.623  0.1933 -0.0552  0.2545
 2619SOL    HW210529   0.341   3.731   4.587  0.5284 -0.2243 -0.2024
 2619SOL    HW310530   0.492   3.730   4.602  0.3515 -0.4062  1.7112
 2619SOL    MW410531   0.415   3.768   4.615  0.2584 -0.1237  0.3862
 2620SOL     OW10532   4.005   0.406   4.168  0.4018 -0.1140  0.0754
 2620SOL    HW210533   4.071   0.468   4.200  1.1953 -1.4073  0.9783
 2620SOL    HW310534   3.922   0.445   4.194  0.9582 -0.2136  2.1128
 2620SOL    MW410535   4.003   0.419   4.175  0.5798 -0.2978  0.4635
 2621SOL     OW10536   4.195   0.537   4.312 -0.1349 -0.0548 -0.0395
 2621SOL    HW210537   4.216   0.626   4.284  0.9851 -0.8834 -2.0196
 2621SOL    HW310538   4.258   0.482   4.264 -1.6952 -2.0135  0.0934
 2621SOL    MW410539   4.206   0.541   4.302 -0.1931 -0.4225 -0.2832
 2622SOL     OW10540   3.509   4.365   4.493  0.4869 -0.5133 -0.3171
 2622SOL    HW210541   3.486   4.457   4.508  1.3519 -0.3914  0.2429
 2622SOL    HW310542   3.448   4.316   4.549  2.1621 -0.1515  1.8662
 2622SOL    MW410543   3.498   4.371   4.502  0.8223 -0.4497  0.0448
 2623SOL     OW10544   4.262   0.803   4.192  0.2719  0.1388  0.1958
 2623SOL    HW210545   4.172   0.829   4.213  0.6564  1.0570  0.6867
 2623SOL    HW310546   4.265   0.803   4.096 -0.5972 -1.0940  0.1437
 2623SOL    MW410547   4.250   0.806   4.182  0.2084  0.0973  0.2537
 2624SOL     OW10548   4.010   0.877   4.280 -0.1631  0.2614 -0.0623
 2624SOL    HW210549   4.011   0.968   4.249  0.8774 -0.7041 -2.9824
 2624SOL    HW310550   3.926   0.842   4.250 -0.6134  0.2571  1.1595
 2624SOL    MW410551   3.999   0.885   4.272 -0.0851  0.1335 -0.2866
 2625SOL     OW10552   4.041   1.126   4.176 -0.1398 -0.1205 -0.1697
 2625SOL    HW210553   4.110   1.177   4.218 -0.0694 -0.0559 -0.3631
 2625SOL    HW310554   3.960   1.167   4.206 -0.1478 -1.2107  1.3591
 2625SOL    MW410555   4.040   1.138   4.186 -0.1321 -0.2559  0.0062
 2626SOL     OW10556   4.227   1.292   4.303 -0.0748  0.0396 -0.0288
 2626SOL    HW210557   4.221   1.372   4.250  0.7011  0.4616  0.5298
 2626SOL    HW310558   4.164   1.305   4.374  0.5917  0.4655  0.4813
 2626SOL    MW410559   4.218   1.304   4.305  0.1154  0.1514  0.1121
 2627SOL     OW10560   4.246   1.532   4.152 -0.6280 -0.4561  0.0165
 2627SOL    HW210561   4.316   1.587   4.187 -1.7012  0.2710  1.0775
 2627SOL    HW310562   4.266   1.524   4.059  1.3998 -1.0937  0.4892
 2627SOL    MW410563   4.258   1.538   4.144 -0.5021 -0.4443  0.2193
 2628SOL     OW10564   4.216   3.040   4.509  0.1875 -0.0654 -0.1917
 2628SOL    HW210565   4.129   3.016   4.542 -0.2148 -0.4315 -1.4760
 2628SOL    HW310566   4.221   3.135   4.518 -0.9126  0.1199 -1.4118
 2628SOL    MW410567   4.205   3.049   4.514 -0.0100 -0.0892 -0.5217
 2629SOL     OW10568   4.266   2.022   4.257  0.7735  0.3067  0.1138
 2629SOL    HW210569   4.175   1.992   4.249  0.7141  0.6298 -0.4768
 2629SOL    HW310570   4.278   2.037   4.351  0.4920 -0.5749  0.2956
 2629SOL    MW410571   4.255   2.020   4.269  0.7281  0.2332  0.0601
 2630SOL     OW10572   0.043   1.926   4.151  0.2740 -0.4305 -0.3639
 2630SOL    HW210573  -0.031   1.974   4.189  0.4926  0.6019 -1.2198
 2630SOL    HW310574   0.119   1.961   4.197  0.4301  0.0214 -0.9624
 2630SOL    MW410575   0.043   1.937   4.162  0.3234 -0.2347 -0.5555
 2631SOL     OW10576   4.291   2.319   4.134  0.4838  0.2771  0.2094
 2631SOL    HW210577   4.273   2.227   4.153 -0.0981  0.3966  0.2396
 2631SOL    HW310578   4.216   2.366   4.171  0.8011  0.7638  0.2262
 2631SOL    MW410579   4.278   2.313   4.141  0.4487  0.3574  0.2151
 2632SOL     OW10580   0.430   0.904   4.253  0.5683  0.0139 -0.0424
 2632SOL    HW210581   0.407   0.992   4.225 -0.1197 -0.1344  0.0450
 2632SOL    HW310582   0.418   0.904   4.348 -0.4789 -0.4686 -0.1606
 2632SOL    MW410583   0.425   0.915   4.262  0.3394 -0.0693 -0.0467
 2633SOL     OW10584   4.058   2.703   4.137 -0.0171  0.1631 -0.7102
 2633SOL    HW210585   4.120   2.749   4.194 -0.7878  0.3416 -0.0109
 2633SOL    HW310586   3.976   2.752   4.144 -0.8509 -1.2930  0.0302
 2633SOL    MW410587   4.055   2.715   4.145 -0.2284 -0.0052 -0.5198
 2634SOL     OW10588   3.364   4.161   4.623 -0.4848 -0.2846  0.3155
 2634SOL    HW210589   3.307   4.104   4.572  1.4778 -2.8334  0.9015
 2634SOL    HW310590   3.321   4.166   4.709 -0.0427 -1.9223  0.6533
 2634SOL    MW410591   3.351   4.154   4.628 -0.1676 -0.8368  0.4368
 2635SOL     OW10592   4.257   2.823   4.306 -0.2351 -0.4154  0.1061
 2635SOL    HW210593   4.278   2.907   4.265 -1.4322 -0.3775 -0.4518
 2635SOL    HW310594   4.238   2.845   4.398 -0.1007 -0.1391  0.0674
 2635SOL    MW410595   4.257   2.837   4.313 -0.3753 -0.3741  0.0277
 2636SOL     OW10596   4.275   3.074   4.186  0.2413 -0.2707 -0.3079
 2636SOL    HW210597   4.255   3.070   4.092 -0.1000  0.0035 -0.2464
 2636SOL    HW310598   4.198   3.115   4.225  1.1168  1.2315 -0.1287
 2636SOL    MW410599   4.262   3.079   4.179  0.3119 -0.0365 -0.2761
 2637SOL     OW10600   4.010   3.181   4.276  0.2594  0.4356  0.2680
 2637SOL    HW210601   3.953   3.191   4.352 -0.4745 -0.5035 -0.1507
 2637SOL    HW310602   3.959   3.129   4.213  1.6163 -0.5664 -0.0475
 2637SOL    MW410603   3.996   3.175   4.277  0.3417  0.1798  0.1717
 2638SOL     OW10604   4.049   3.440   4.189  0.1125 -0.2892  0.3417
 2638SOL    HW210605   4.046   3.350   4.220 -2.1846 -0.3522  0.0066
 2638SOL    HW310606   4.044   3.433   4.094  1.0486  0.1586  0.2521
 2638SOL    MW410607   4.048   3.428   4.181 -0.0672 -0.2389  0.2851
 2639SOL     OW10608   3.775   0.527   4.269 -0.2223  0.0147  0.1239
 2639SOL    HW210609   3.778   0.611   4.224  0.5193 -0.0185  0.1045
 2639SOL    HW310610   3.763   0.549   4.361 -0.9423  0.1057  0.0149
 2639SOL    MW410611   3.774   0.541   4.275 -0.2191  0.0223  0.1063
 2640SOL     OW10612   0.760   0.126   4.517  0.4562 -0.3886  0.3974
 2640SOL    HW210613   0.761   0.108   4.423 -1.0858 -0.6200  0.4078
 2640SOL    HW310614   0.815   0.203   4.528 -1.5963  1.3420 -1.0755
 2640SOL    MW410615   0.768   0.134   4.506 -0.0181 -0.1908  0.2046
 2641SOL     OW10616   3.849   1.070   4.631  0.3848 -0.0683 -0.2110
 2641SOL    HW210617   3.859   1.050   4.538 -1.6711  0.5157 -0.5709
 2641SOL    HW310618   3.935   1.103   4.657  0.4280  1.6703 -2.3985
 2641SOL    MW410619   3.862   1.072   4.622  0.1194  0.2382 -0.5474
 2642SOL     OW10620   0.427   0.119   4.280  0.2502 -0.5293  0.5063
 2642SOL    HW210621   0.494   0.077   4.226 -0.0747  0.8582 -1.0250
 2642SOL    HW310622   0.430   0.211   4.254 -1.8976 -0.3560  0.7882
 2642SOL    MW410623   0.437   0.125   4.269 -0.0761 -0.3234  0.3409
 2643SOL     OW10624   2.683   4.268   4.154 -0.7375  0.2195  0.3382
 2643SOL    HW210625   2.668   4.264   4.060 -1.3794 -1.0296  0.4840
 2643SOL    HW310626   2.753   4.332   4.164 -1.0352  0.7631 -0.9407
 2643SOL    MW410627   2.690   4.276   4.143 -0.8614  0.1268  0.1884
 2644SOL     OW10628   4.257   3.849   4.115  0.3235 -0.4562  0.4919
 2644SOL    HW210629   4.253   3.860   4.020  0.2818  0.8503  0.6355
 2644SOL    HW310630   4.340   3.888   4.140 -0.2808  0.4387  1.1456
 2644SOL    MW410631   4.267   3.856   4.106  0.2384 -0.1657  0.5970
 2645SOL     OW10632   0.031   1.058   4.673  0.2120  0.1345  0.1609
 2645SOL    HW210633   0.050   1.126   4.738 -0.0355  0.0502  0.3202
 2645SOL    HW310634   0.008   1.106   4.593  1.4403  0.2459 -0.1404
 2645SOL    MW410635   0.031   1.073   4.671  0.3414  0.1380  0.1421
 2646SOL     OW10636   1.772   0.199   4.459 -0.3376 -0.2303  0.6526
 2646SOL    HW210637   1.859   0.179   4.492 -0.0835  0.5469  0.4584
 2646SOL    HW310638   1.715   0.132   4.499  0.2124 -0.2296  1.4415
 2646SOL    MW410639   1.776   0.187   4.469 -0.2314 -0.1276  0.7310
 2647SOL     OW10640   1.827   3.705   4.656 -0.1769 -0.3500 -0.4952
 2647SOL    HW210641   1.750   3.651   4.636  0.5724 -1.4839 -0.3690
 2647SOL    HW310642   1.807   3.790   4.618 -1.5668 -0.5917 -0.3341
 2647SOL    MW410643   1.814   3.709   4.648 -0.2614 -0.5317 -0.4573
 2648SOL     OW10644   0.956   0.931   4.524  0.0412  0.2633 -0.0003
 2648SOL    HW210645   1.044   0.898   4.542  0.1368  0.5787  0.1150
 2648SOL    HW310646   0.901   0.887   4.589  0.5477  2.2219  1.8199
 2648SOL    MW410647   0.960   0.921   4.535  0.1206  0.5634  0.2551
 2649SOL     OW10648   2.929   3.578   4.519 -0.0502  0.1316 -0.0573
 2649SOL    HW210649   3.006   3.530   4.551  0.8044  0.9068 -0.9152
 2649SOL    HW310650   2.856   3.517   4.532  0.2973  0.3071  3.0533
 2649SOL    MW410651   2.929   3.564   4.525  0.1087  0.2570  0.2398
 2650SOL     OW10652   3.342   3.631   4.242 -0.1608 -0.4814  0.2024
 2650SOL    HW210653   3.419   3.580   4.215  0.1341  0.2090 -0.2676
 2650SOL    HW310654   3.267   3.576   4.216  0.1032  0.2477 -2.2980
 2650SOL    MW410655   3.342   3.617   4.235 -0.0870 -0.2940 -0.1893
 2651SOL     OW10656   1.996   2.055   4.226  0.0443  0.2455  0.0623
 2651SOL    HW210657   2.077   2.031   4.181 -1.0568  1.5309 -2.7093
 2651SOL    HW310658   1.993   2.150   4.221 -1.1980  0.2666  0.9710
 2651SOL    MW410659   2.006   2.064   4.220 -0.2646  0.4179 -0.1831
 2652SOL     OW10660   3.972   2.932   4.612  0.1165 -0.1985 -0.0348
 2652SOL    HW210661   3.908   2.899   4.549 -0.4326 -1.2158  1.0494
 2652SOL    HW310662   3.921   2.981   4.676  0.5477 -0.0676  0.2143
 2652SOL    MW410663   3.957   2.934   4.612  0.1013 -0.3154  0.1411
 2653SOL     OW10664   0.912   3.957   4.255  0.2790 -0.3329 -0.5792
 2653SOL    HW210665   0.840   3.905   4.220 -0.0342 -0.1299 -0.2406
 2653SOL    HW310666   0.907   4.040   4.207 -0.9279  0.4208  0.8199
 2653SOL    MW410667   0.902   3.961   4.244  0.0785 -0.2067 -0.3505
 2654SOL     OW10668   0.419   1.684   4.237  0.0625  0.2534 -0.2376
 2654SOL    HW210669   0.400   1.698   4.329 -1.6999  0.8173 -0.6732
 2654SOL    HW310670   0.342   1.640   4.202  0.6990  0.0710 -1.4532
 2654SOL    MW410671   0.406   1.680   4.244 -0.0860  0.3037 -0.4554
 2655SOL     OW10672   0.192   0.471   4.538  0.2645 -0.3087  0.1142
 2655SOL    HW210673   0.172   0.379   4.557  0.3886 -0.6174 -1.1836
 2655SOL    HW310674   0.110   0.517   4.553 -0.2325 -0.8855 -0.8138
 2655SOL    MW410675   0.179   0.465   4.543  0.2153 -0.4255 -0.1798
 2656SOL     OW10676   0.595   1.048   4.624  0.4171  0.3652  0.1198
 2656SOL    HW210677   0.503   1.024   4.620 -0.1278  2.4243 -0.0427
 2656SOL    HW310678   0.641   0.965   4.638 -1.6698 -0.3653  2.9939
 2656SOL    MW410679   0.589   1.034   4.625  0.0699  0.5405  0.4773
 2657SOL     OW10680   0.666   0.533   4.534 -0.1771 -0.3200 -0.0086
 2657SOL    HW210681   0.614   0.458   4.562 -0.3632 -0.0046  0.4971
 2657SOL    HW310682   0.671   0.524   4.439  0.0578 -1.1371  0.0788
 2657SOL    MW410683   0.659   0.522   4.525 -0.1706 -0.3863  0.0696
 2658SOL     OW10684   3.808   0.590   4.547 -0.3425  0.1992  0.2897
 2658SOL    HW210685   3.904   0.591   4.553 -0.2076 -0.1536 -1.4124
 2658SOL    HW310686   3.780   0.671   4.590  0.6741 -0.0075  1.3602
 2658SOL    MW410687   3.817   0.601   4.553 -0.1905  0.1253  0.2065
 2659SOL     OW10688   3.803   1.536   4.173  0.3669 -0.3894 -0.1658
 2659SOL    HW210689   3.881   1.589   4.189  0.4232 -0.2448 -0.9079
 2659SOL    HW310690   3.732   1.584   4.216  0.8145 -0.9421  1.2233
 2659SOL    MW410691   3.804   1.550   4.181  0.4334 -0.4431 -0.0806
 2660SOL     OW10692   4.476   2.711   4.172  0.4193  0.9443 -0.5163
 2660SOL    HW210693   4.397   2.744   4.214  0.2500 -1.2087  0.9422
 2660SOL    HW310694   4.547   2.764   4.209 -0.0028  0.7538  0.5814
 2660SOL    MW410695   4.475   2.722   4.182  0.3414  0.6351 -0.1788
 2661SOL     OW10696   2.273   0.968   4.512  0.4535 -0.3982  0.4662
 2661SOL    HW210697   2.352   1.013   4.543  1.5342 -2.0254  0.1364
 2661SOL    HW310698   2.295   0.875   4.519 -0.7574 -0.8342 -1.3954
 2661SOL    MW410699   2.287   0.961   4.517  0.4363 -0.6704  0.1774
 2662SOL     OW10700   3.112   0.048   4.481 -0.2049  0.4035  0.1589
 2662SOL    HW210701   3.070  -0.037   4.492  1.6527 -0.5383  0.0821
 2662SOL    HW310702   3.048   0.111   4.515 -1.4048 -1.0458  0.6286
 2662SOL    MW410703   3.098   0.045   4.487 -0.1180  0.0880  0.2103
 2663SOL     OW10704   2.171   2.098   4.990 -0.0561  0.0188  0.3294
 2663SOL    HW210705   2.137   2.179   5.029 -0.1854  1.0179 -1.7775
 2663SOL    HW310706   2.265   2.100   5.009 -0.4633 -0.7223  2.6268
 2663SOL    MW410707   2.179   2.109   4.998 -0.1268  0.0529  0.3548
 2664SOL     OW10708   3.004   0.905   4.546 -0.0873 -0.1381 -0.2672
 2664SOL    HW210709   3.029   0.916   4.454  0.3087 -0.9386 -0.2620
 2664SOL    HW310710   2.923   0.954   4.555 -0.6407 -0.8436 -1.2908
 2664SOL    MW410711   2.997   0.913   4.535 -0.1082 -0.3369 -0.4015
 2665SOL     OW10712   2.249   1.721   4.263 -0.1876 -0.1191 -0.2275
 2665SOL    HW210713   2.323   1.684   4.215  0.3410 -0.5665  0.9122
 2665SOL    HW310714   2.174   1.667   4.239 -0.0518  0.0582 -1.0401
 2665SOL    MW410715   2.249   1.709   4.254 -0.1001 -0.1547 -0.1845
 2666SOL     OW10716   2.091   1.757   4.513 -0.2956  0.2813 -0.0869
 2666SOL    HW210717   2.156   1.740   4.445 -0.0137  0.6332  0.0943
 2666SOL    HW310718   2.135   1.735   4.595 -0.1155  1.3552  0.1060
 2666SOL    MW410719   2.105   1.752   4.515 -0.2348  0.4693 -0.0381
 2667SOL     OW10720   3.064   1.744   4.486  0.4900 -0.0121  0.2799
 2667SOL    HW210721   3.031   1.658   4.512  0.9933 -0.1833  0.3542
 2667SOL    HW310722   2.987   1.801   4.488  0.4828 -0.0473  2.0150
 2667SOL    MW410723   3.049   1.740   4.490  0.5558 -0.0393  0.5188
 2668SOL     OW10724   3.623   4.213   4.133  0.1513  0.2461 -0.5205
 2668SOL    HW210725   3.696   4.258   4.175  0.9251 -1.6897  0.2709
 2668SOL    HW310726   3.607   4.136   4.187 -2.5716  0.6713 -0.6286
 2668SOL    MW410727   3.630   4.209   4.146 -0.1059  0.0467 -0.4306
 2669SOL     OW10728   2.457   0.024   4.158 -0.2083 -0.4978  0.6510
 2669SOL    HW210729   2.458  -0.071   4.171 -0.5455 -0.5469  0.3274
 2669SOL    HW310730   2.544   0.052   4.185  0.3390 -1.0701 -0.4626
 2669SOL    MW410731   2.469   0.015   4.164 -0.1805 -0.5798  0.4616
 2670SOL     OW10732   2.471   2.181   4.932  0.3886 -0.3114 -0.4696
 2670SOL    HW210733   2.455   2.268   4.969 -1.0069 -0.4175 -0.8053
 2670SOL    HW310734   2.567   2.174   4.929  0.5616 -0.0029  2.3937
 2670SOL    MW410735   2.482   2.191   4.937  0.2272 -0.2849 -0.1359
 2671SOL     OW10736   2.037   0.621   4.434  0.5757  0.1160  0.3738
 2671SOL    HW210737   2.126   0.632   4.469  0.1374 -0.2993  1.6749
 2671SOL    HW310738   1.997   0.557   4.493 -0.6686  0.5072 -0.0416
 2671SOL    MW410739   2.043   0.614   4.447  0.3538  0.1128  0.4907
 2672SOL     OW10740   4.077   2.457   4.269 -0.2806  0.2476  0.0242
 2672SOL    HW210741   3.989   2.420   4.259 -0.6043  0.6122  1.5327
 2672SOL    HW310742   4.076   2.535   4.214 -0.4933 -0.4168 -0.9349
 2672SOL    MW410743   4.065   2.462   4.260 -0.3510  0.2079  0.0968
 2673SOL     OW10744   1.346   3.667   4.483  0.0283  0.0908 -0.0011
 2673SOL    HW210745   1.331   3.761   4.496 -0.5145  0.0650 -0.4195
 2673SOL    HW310746   1.422   3.647   4.538 -2.0040  0.0646  2.9068
 2673SOL    MW410747   1.354   3.677   4.492 -0.3114  0.0837  0.3266
 2674SOL     OW10748   1.920   0.442   4.620  0.2661 -0.0191 -0.4751
 2674SOL    HW210749   1.825   0.437   4.609  0.0917  0.4263  0.7584
 2674SOL    HW310750   1.946   0.353   4.643 -0.0297  0.1375  0.4833
 2674SOL    MW410751   1.911   0.430   4.621  0.2041  0.0603 -0.1864
 2675SOL     OW10752   0.451   3.398   4.658  0.1346  0.5946 -0.2874
 2675SOL    HW210753   0.397   3.474   4.637 -0.5876  0.3778  0.7616
 2675SOL    HW310754   0.409   3.359   4.734  0.2648 -1.0982 -1.0590
 2675SOL    MW410755   0.439   3.403   4.665  0.0565  0.3428 -0.2508
 2676SOL     OW10756   0.785   1.745   4.524  0.1126 -0.2143 -0.2181
 2676SOL    HW210757   0.742   1.674   4.571 -0.0009 -0.3504 -0.5217
 2676SOL    HW310758   0.720   1.815   4.522  0.2107 -0.1182  0.0495
 2676SOL    MW410759   0.771   1.745   4.530  0.1106 -0.2196 -0.2227
 2677SOL     OW10760   1.326   1.647   4.223 -0.0267 -0.1228 -0.6449
 2677SOL    HW210761   1.248   1.614   4.178  0.2690  0.7376 -1.8176
 2677SOL    HW310762   1.308   1.632   4.315 -2.1517  1.1921 -0.7974
 2677SOL    MW410763   1.313   1.641   4.229 -0.2681  0.1640 -0.8197
 2678SOL     OW10764   2.234   3.922   4.508  0.4040 -0.2207  0.6690
 2678SOL    HW210765   2.177   3.991   4.542  0.9006  0.5398 -0.0028
 2678SOL    HW310766   2.178   3.845   4.502 -0.5297  0.4831  0.1500
 2678SOL    MW410767   2.219   3.921   4.512  0.3462 -0.0274  0.5121
 2679SOL     OW10768   2.529   3.589   4.512  0.1713  0.5180 -0.0370
 2679SOL    HW210769   2.598   3.526   4.489 -0.7146 -0.1261 -0.9915
 2679SOL    HW310770   2.478   3.545   4.580  0.5794  0.9215  0.5374
 2679SOL    MW410771   2.531   3.575   4.518  0.1080  0.4861 -0.0873
 2680SOL     OW10772   2.419   1.956   4.763  0.0109 -0.7273  0.3683
 2680SOL    HW210773   2.424   2.015   4.838 -0.5013 -0.9981  0.6182
 2680SOL    HW310774   2.505   1.914   4.760 -0.1550 -1.1348  1.1516
 2680SOL    MW410775   2.431   1.958   4.772 -0.0784 -0.8167  0.5045
 2681SOL     OW10776   4.038   4.217   4.661  0.5301 -0.1089 -0.0473
 2681SOL    HW210777   4.014   4.221   4.753  1.4698  2.4562  0.1343
 2681SOL    HW310778   3.961   4.250   4.614 -0.0151 -1.5855 -0.2085
 2681SOL    MW410779   4.025   4.222   4.667  0.5822  0.0343 -0.0443
 2682SOL     OW10780   0.747   3.042   4.658 -0.1028 -0.3485  0.3951
 2682SOL    HW210781   0.665   3.079   4.625  0.2793 -0.7136 -0.9947
 2682SOL    HW310782   0.743   2.950   4.635  0.3281 -0.5448  1.0799
 2682SOL    MW410783   0.736   3.035   4.651  0.0045 -0.4225  0.3018
 2683SOL     OW10784   4.477   4.277   4.154  0.0094  0.5805 -0.2858
 2683SOL    HW210785   4.468   4.283   4.059  0.1998 -0.1132 -0.3516
 2683SOL    HW310786   4.471   4.183   4.172  0.0268  0.7088  0.3811
 2683SOL    MW410787   4.475   4.265   4.144  0.0369  0.5064 -0.2069
 2684SOL     OW10788   2.061   2.320   4.175 -0.1489 -0.4753  0.2513
 2684SOL    HW210789   2.063   2.311   4.080  0.0633  1.7551  0.0187
 2684SOL    HW310790   1.985   2.376   4.193  0.6156  0.2737  1.2680
 2684SOL    MW410791   2.051   2.326   4.165 -0.0200 -0.0823  0.3548
 2685SOL     OW10792   3.093   2.831   5.004 -0.3274  0.3369 -0.4631
 2685SOL    HW210793   3.124   2.746   4.972 -0.1620  0.0167  0.5303
 2685SOL    HW310794   3.136   2.895   4.947 -0.6180 -0.2533 -1.3532
 2685SOL    MW410795   3.103   2.828   4.993 -0.3440  0.2167 -0.4501
 2686SOL     OW10796   0.889   3.689   4.600 -0.5976 -0.0243 -0.2156
 2686SOL    HW210797   0.965   3.631   4.599 -1.1754 -0.7769 -0.6871
 2686SOL    HW310798   0.926   3.776   4.583  0.3948 -0.0804  1.5288
 2686SOL    MW410799   0.904   3.693   4.598 -0.5428 -0.1309 -0.0472
 2687SOL     OW10800   2.033   3.642   4.852 -0.0484  0.6205 -0.3639
 2687SOL    HW210801   1.977   3.696   4.797 -0.0052  0.4140 -0.6150
 2687SOL    HW310802   1.975   3.609   4.921 -0.0920  0.9174 -0.2603
 2687SOL    MW410803   2.018   3.645   4.854 -0.0484  0.6325 -0.3829
 2688SOL     OW10804   4.473   0.123   4.283 -0.2487 -0.4639 -0.1687
 2688SOL    HW210805   4.395   0.086   4.243  0.6041 -0.9543 -1.3981
 2688SOL    HW310806   4.545   0.091   4.230  0.7565  0.4124  0.6413
 2688SOL    MW410807   4.472   0.114   4.271 -0.0038 -0.4130 -0.2236
 2689SOL     OW10808   4.270   4.389   4.530 -0.1603  0.1908 -0.4969
 2689SOL    HW210809   4.215   4.318   4.562  0.6830 -0.1524  0.1961
 2689SOL    HW310810   4.255   4.461   4.591  1.1637 -0.3413  0.4731
 2689SOL    MW410811   4.261   4.389   4.542  0.1254  0.0749 -0.2775
 2690SOL     OW10812   1.001   2.193   4.671  0.2178  0.1140 -0.3394
 2690SOL    HW210813   1.068   2.217   4.736 -0.5406  2.0211 -0.2452
 2690SOL    HW310814   1.049   2.145   4.604  1.1332 -1.3424  1.3116
 2690SOL    MW410815   1.016   2.190   4.671  0.2385  0.1736 -0.1092
 2691SOL     OW10816   0.979   3.120   4.506  0.1738 -0.3069  0.2118
 2691SOL    HW210817   0.898   3.102   4.554  0.6504  1.1595  1.5901
 2691SOL    HW310818   0.949   3.149   4.420 -0.7389 -0.7624  0.3600
 2691SOL    MW410819   0.964   3.121   4.501  0.1163 -0.1733  0.4134
 2692SOL     OW10820   1.377   3.520   4.157  0.0585  0.0087 -0.4218
 2692SOL    HW210821   1.367   3.523   4.062  0.8381 -0.1709 -0.5151
 2692SOL    HW310822   1.295   3.556   4.191 -0.6217 -0.8261 -1.1443
 2692SOL    MW410823   1.365   3.525   4.149  0.0716 -0.1252 -0.5293
 2693SOL     OW10824   2.589   4.449   4.564 -0.2899 -0.4857 -0.0992
 2693SOL    HW210825   2.497   4.475   4.570 -0.2124 -0.4067  0.8619
 2693SOL    HW310826   2.595   4.373   4.622  0.2629 -0.4638 -0.1320
 2693SOL    MW410827   2.577   4.442   4.573 -0.2067 -0.4725  0.0234
 2694SOL     OW10828   1.860   1.438   4.702 -0.3562  0.3362  0.0865
 2694SOL    HW210829   1.824   1.513   4.656  1.9401  1.2305 -0.2990
 2694SOL    HW310830   1.914   1.393   4.636  0.8652  0.1758  1.1765
 2694SOL    MW410831   1.862   1.442   4.687  0.1079  0.4331  0.1788
 2695SOL     OW10832   1.540   4.408   4.248  0.1268  0.0628 -0.0260
 2695SOL    HW210833   1.623   4.362   4.234  0.3463  0.4553 -0.0237
 2695SOL    HW310834   1.519   4.393   4.340 -0.4587 -1.1082 -0.3337
 2695SOL    MW410835   1.548   4.400   4.258  0.0786 -0.0396 -0.0663
 2696SOL     OW10836   3.435   2.523   4.756  0.0378  0.0703 -0.0997
 2696SOL    HW210837   3.395   2.449   4.709  0.1571 -0.3612  0.4812
 2696SOL    HW310838   3.361   2.567   4.797 -0.1097  0.6534 -0.9684
 2696SOL    MW410839   3.420   2.519   4.755  0.0341  0.0906 -0.1373
 2697SOL     OW10840   1.841   2.190   4.590  0.0317 -0.4274  0.1918
 2697SOL    HW210841   1.930   2.161   4.571  0.1310  0.1800 -0.2922
 2697SOL    HW310842   1.850   2.284   4.609 -0.4650 -0.4238  0.4181
 2697SOL    MW410843   1.854   2.199   4.590 -0.0207 -0.3467  0.1574
 2698SOL     OW10844   2.082   4.360   4.538  0.0246  0.0458 -0.2326
 2698SOL    HW210845   2.017   4.416   4.581 -1.2114 -1.1396 -0.5055
 2698SOL    HW310846   2.072   4.378   4.445 -0.1643 -0.3930 -0.3002
 2698SOL    MW410847   2.072   4.369   4.532 -0.1633 -0.1683 -0.2780
 2699SOL     OW10848   0.880   1.872   4.151  0.2116  0.7284 -0.0887
 2699SOL    HW210849   0.876   1.785   4.190  0.7829  0.5651 -0.3997
 2699SOL    HW310850   0.896   1.856   4.058  1.4927  1.2009  0.0451
 2699SOL    MW410851   0.881   1.859   4.144  0.4560  0.7691 -0.1121
 2700SOL     OW10852   2.936   0.203   4.659 -0.0072  0.2355 -0.3585
 2700SOL    HW210853   2.873   0.133   4.645  0.2559 -0.2876  0.9987
 2700SOL    HW310854   2.889   0.265   4.716  0.2997  0.3974 -0.2826
 2700SOL    MW410855   2.921   0.202   4.665  0.0679  0.1879 -0.1698
 2701SOL     OW10856   2.733   2.175   4.871 -0.3404  0.1838  0.0959
 2701SOL    HW210857   2.714   2.175   4.777 -1.3287 -0.4673  0.2955
 2701SOL    HW310858   2.801   2.242   4.881 -1.8063  1.8417 -0.7739
 2701SOL    MW410859   2.739   2.184   4.860 -0.6642  0.3166  0.0072
 2702SOL     OW10860   2.352   2.056   4.535  0.1605 -0.0412 -0.4103
 2702SOL    HW210861   2.258   2.053   4.517 -0.2622  0.6760  1.6436
 2702SOL    HW310862   2.363   2.002   4.613  1.3904  0.3841 -0.2844
 2702SOL    MW410863   2.341   2.048   4.543  0.2673  0.1094 -0.1230
 2703SOL     OW10864   3.199   0.085   4.207  0.0862 -0.0837 -0.6133
 2703SOL    HW210865   3.284   0.057   4.172  0.3803  0.5433 -0.4038
 2703SOL    HW310866   3.210   0.082   4.302 -0.0935  0.0930 -0.5865
 2703SOL    MW410867   3.211   0.081   4.215  0.1013  0.0223 -0.5822
 2704SOL     OW10868   0.292   3.005   4.643 -0.2739 -0.0246  0.3281
 2704SOL    HW210869   0.276   2.916   4.613 -0.1189 -0.3182  1.0853
 2704SOL    HW310870   0.205   3.044   4.651 -0.4157 -0.4669  1.0301
 2704SOL    MW410871   0.278   2.999   4.640 -0.2722 -0.1218  0.5202
 2705SOL     OW10872   4.327   2.000   4.540  0.2763  0.0090 -0.4494
 2705SOL    HW210873   4.246   2.024   4.583  0.4522 -1.2255  0.6090
 2705SOL    HW310874   4.396   2.027   4.600  0.5924 -0.1832 -0.7189
 2705SOL    MW410875   4.326   2.007   4.553  0.3414 -0.1793 -0.3452
 2706SOL     OW10876   0.648   1.317   4.515 -0.1232  0.3956  0.1273
 2706SOL    HW210877   0.643   1.302   4.420  0.0774 -0.1929  0.2051
 2706SOL    HW310878   0.633   1.230   4.553  0.2261  0.5558  0.6264
 2706SOL    MW410879   0.645   1.303   4.507 -0.0506  0.3389  0.2031
 2707SOL     OW10880   1.651   2.798   4.477  0.0212  0.0775 -0.2412
 2707SOL    HW210881   1.617   2.817   4.390 -0.3014  0.9785  0.0700
 2707SOL    HW310882   1.579   2.822   4.536  1.1593  2.0066  0.4283
 2707SOL    MW410883   1.637   2.804   4.473  0.1287  0.4511 -0.1121
 2708SOL     OW10884   2.907   4.259   4.615  0.2170  0.2817  0.2407
 2708SOL    HW210885   2.976   4.212   4.662 -0.0844 -2.1660 -1.6192
 2708SOL    HW310886   2.843   4.191   4.594  0.3107  1.2764 -3.5729
 2708SOL    MW410887   2.908   4.243   4.618  0.1895  0.0901 -0.5078
 2709SOL     OW10888   1.482   1.232   4.521  0.0839  0.4079  0.0991
 2709SOL    HW210889   1.389   1.253   4.510  0.1803 -0.2354 -2.0755
 2709SOL    HW310890   1.514   1.298   4.583 -1.1563  2.4831 -1.4035
 2709SOL    MW410891   1.474   1.243   4.528 -0.0671  0.5968 -0.3862
 2710SOL     OW10892   1.969   3.022   4.728  0.4155  0.0623  0.0349
 2710SOL    HW210893   2.063   3.025   4.742  0.4843  0.9687 -0.5816
 2710SOL    HW310894   1.945   3.112   4.706 -0.1757 -0.6444 -2.4309
 2710SOL    MW410895   1.978   3.034   4.727  0.3465  0.0885 -0.3719
 2711SOL     OW10896   0.918   4.566   4.534 -0.4121  0.1439 -0.0365
 2711SOL    HW210897   0.889   4.658   4.535  0.2549  0.3643  0.9097
 2711SOL    HW310898   0.934   4.547   4.442 -2.7897  0.2484 -0.5024
 2711SOL    MW410899   0.917   4.576   4.522 -0.6378  0.1869  0.0262
 2712SOL     OW10900   3.393   4.626   4.503 -0.0603  0.3314 -0.0893
 2712SOL    HW210901   3.298   4.639   4.505 -0.1681 -0.4881  1.7946
 2712SOL    HW310902   3.429   4.714   4.515 -0.5717  0.6420 -0.7701
 2712SOL    MW410903   3.385   4.639   4.505 -0.1421  0.2651  0.0696
 2713SOL     OW10904   4.483   2.726   4.565  0.1485  0.0467 -0.3266
 2713SOL    HW210905   4.389   2.723   4.580 -0.0172 -0.8958 -1.4488
 2713SOL    HW310906   4.504   2.819   4.558 -0.6588  0.2652  0.1403
 2713SOL    MW410907   4.474   2.738   4.566  0.0200 -0.0486 -0.4139
 2714SOL     OW10908   1.771   2.533   4.883 -0.0199 -0.3187  0.5634
 2714SOL    HW210909   1.822   2.531   4.802  0.0445 -0.1311  0.6009
 2714SOL    HW310910   1.752   2.441   4.901 -2.1417 -0.2427 -1.0247
 2714SOL    MW410911   1.775   2.521   4.874 -0.2913 -0.2840  0.3595
 2715SOL     OW10912   3.086   4.091   4.775  0.3362 -0.1989  0.1058
 2715SOL    HW210913   3.054   4.084   4.864  3.6668 -0.1660  1.3698
 2715SOL    HW310914   3.040   4.021   4.727 -1.7223  0.0191  1.7205
 2715SOL    MW410915   3.076   4.081   4.780  0.5040 -0.1655  0.4859
 2716SOL     OW10916   0.212   0.215   4.626  0.1306 -0.3352 -0.1674
 2716SOL    HW210917   0.285   0.156   4.612  0.5021  0.0030  0.3078
 2716SOL    HW310918   0.136   0.169   4.590  0.8271 -0.0255 -2.0819
 2716SOL    MW410919   0.211   0.201   4.620  0.2715 -0.2497 -0.3572
 2717SOL     OW10920   0.005   2.224   4.678  0.7656 -0.0463  0.6854
 2717SOL    HW210921  -0.018   2.217   4.771 -0.8603 -0.3797  0.2799
 2717SOL    HW310922  -0.038   2.305   4.649  1.9824  0.5081  0.4228
 2717SOL    MW410923  -0.004   2.234   4.687  0.7114 -0.0174  0.5975
 2718SOL     OW10924   2.575   2.913   4.513 -0.1413  0.2470 -0.4334
 2718SOL    HW210925   2.489   2.951   4.531  0.3826  0.9425  0.6834
 2718SOL    HW310926   2.570   2.824   4.548  0.2515  0.9712  1.5403
 2718SOL    MW410927   2.563   2.906   4.520 -0.0205  0.4342 -0.0253
 2719SOL     OW10928   1.581   0.472   4.262 -0.3439 -0.2905 -0.0986
 2719SOL    HW210929   1.582   0.564   4.235 -1.3758 -0.2884 -0.1273
 2719SOL    HW310930   1.595   0.475   4.356 -1.7242 -0.0242  0.1059
 2719SOL    MW410931   1.583   0.485   4.271 -0.6622 -0.2550 -0.0758
 2720SOL     OW10932   2.841   1.926   4.475 -0.1531 -0.5071 -0.1874
 2720SOL    HW210933   2.810   1.969   4.395  1.2795  1.7689  0.4372
 2720SOL    HW310934   2.786   1.962   4.545  0.0450 -0.8695  0.1592
 2720SOL    MW410935   2.829   1.936   4.474  0.0620 -0.2546 -0.0596
 2721SOL     OW10936   3.842   1.807   4.607 -0.3889  0.2490  0.4597
 2721SOL    HW210937   3.765   1.751   4.609 -0.3388  0.1414 -0.4458
 2721SOL    HW310938   3.915   1.749   4.585 -0.3319  0.6558 -0.4403
 2721SOL    MW410939   3.842   1.792   4.604 -0.3748  0.2884  0.2213
 2722SOL     OW10940   3.440   2.055   4.519 -0.3583  0.0574 -0.1058
 2722SOL    HW210941   3.536   2.049   4.514 -0.1044  2.2656  1.4252
 2722SOL    HW310942   3.411   2.043   4.428  1.3537 -0.5170 -0.6069
 2722SOL    MW410943   3.449   2.052   4.506 -0.0992  0.2730  0.0300
 2723SOL     OW10944   2.454   1.339   4.232  0.0400 -0.5358 -0.0626
 2723SOL    HW210945   2.535   1.293   4.209  0.3915 -0.1693  0.4369
 2723SOL    HW310946   2.468   1.429   4.202 -0.1881 -0.4706  0.0215
 2723SOL    MW410947   2.466   1.345   4.225  0.0563 -0.4787  0.0138
 2724SOL     OW10948   3.328   2.829   4.167 -0.2961  0.7335 -0.3626
 2724SOL    HW210949   3.258   2.769   4.140 -0.0558 -0.0211  0.6670
 2724SOL    HW310950   3.408   2.779   4.157 -0.2270  0.2909  2.0770
 2724SOL    MW410951   3.329   2.815   4.162 -0.2553  0.5758  0.0949
 2725SOL     OW10952   1.124   3.543   4.552 -0.5331  0.0625  0.1890
 2725SOL    HW210953   1.135   3.448   4.551 -0.9862  0.0058  0.2053
 2725SOL    HW310954   1.210   3.578   4.531 -0.3617 -0.3527  0.1982
 2725SOL    MW410955   1.136   3.535   4.549 -0.5703  0.0005  0.1926
 2726SOL     OW10956   1.620   0.443   4.546 -0.2294 -0.0019 -0.1310
 2726SOL    HW210957   1.644   0.354   4.522 -1.0685  0.0718 -1.2738
 2726SOL    HW310958   1.529   0.438   4.573  0.4511  0.0706  2.3194
 2726SOL    MW410959   1.611   0.431   4.546 -0.2503  0.0173  0.0420
 2727SOL     OW10960   1.854   4.489   4.640  0.1821 -0.7098  0.1024
 2727SOL    HW210961   1.824   4.548   4.571  1.3191 -1.9640 -1.5123
 2727SOL    HW310962   1.775   4.446   4.671 -0.1705 -1.2951 -1.5405
 2727SOL    MW410963   1.840   4.491   4.635  0.2856 -0.9522 -0.3281
 2728SOL     OW10964   0.923   2.417   4.309  0.1940 -0.6996 -0.0360
 2728SOL    HW210965   0.914   2.415   4.404 -0.8019  0.5190 -0.0925
 2728SOL    HW310966   0.837   2.388   4.277  0.9264 -2.3510 -0.5713
 2728SOL    MW410967   0.910   2.413   4.317  0.1592 -0.7567 -0.1140
 2729SOL     OW10968   1.431   2.459   4.474  0.2512 -0.3936  0.2435
 2729SOL    HW210969   1.525   2.481   4.470  0.1797 -0.0093  0.6446
 2729SOL    HW310970   1.407   2.443   4.383  0.5977 -0.0109  0.0800
 2729SOL    MW410971   1.441   2.460   4.462  0.2875 -0.2923  0.2747
 2730SOL     OW10972   1.433   3.186   4.502 -0.0860 -0.0263 -0.0060
 2730SOL    HW210973   1.437   3.095   4.532  1.2731 -0.0063 -0.1069
 2730SOL    HW310974   1.352   3.220   4.540  0.6770 -0.5486  2.1492
 2730SOL    MW410975   1.423   3.179   4.511  0.1942 -0.0925  0.2651
 2731SOL     OW10976   0.016   4.251   4.593 -0.1857 -0.0294  0.3140
 2731SOL    HW210977  -0.055   4.313   4.577 -0.1252 -0.4721 -1.7066
 2731SOL    HW310978  -0.020   4.166   4.568  0.3026 -0.5881  1.4726
 2731SOL    MW410979   0.002   4.248   4.588 -0.1133 -0.1612  0.2007
 2732SOL     OW10980   1.870   0.841   4.487  0.2180  0.5608  0.1162
 2732SOL    HW210981   1.887   0.872   4.576  0.4843  0.7044  0.0174
 2732SOL    HW310982   1.930   0.767   4.476 -0.6278 -0.1724  0.4552
 2732SOL    MW410983   1.880   0.835   4.498  0.1416  0.4830  0.1473
 2733SOL     OW10984   4.419   4.002   4.496 -0.3648  0.1389 -0.1761
 2733SOL    HW210985   4.460   3.915   4.495 -1.9525 -0.6233 -0.4798
 2733SOL    HW310986   4.329   3.985   4.523 -0.4253  1.8283  0.7151
 2733SOL    MW410987   4.413   3.988   4.500 -0.5827  0.2615 -0.0987
 2734SOL     OW10988   4.195   2.735   4.608  0.1753 -0.2435 -0.2551
 2734SOL    HW210989   4.120   2.770   4.656  0.1003 -0.1164 -0.4657
 2734SOL    HW310990   4.164   2.653   4.571  0.7866 -1.2904  1.4818
 2734SOL    MW410991   4.181   2.729   4.609  0.2456 -0.3650 -0.0534
 2735SOL     OW10992   2.732   3.388   4.497  0.0914 -0.0756 -0.0665
 2735SOL    HW210993   2.711   3.323   4.563  0.2274 -0.4162 -0.3584
 2735SOL    HW310994   2.719   3.343   4.413 -0.3724  0.4414 -0.2746
 2735SOL    MW410995   2.728   3.374   4.494  0.0482 -0.0522 -0.1321
 2736SOL     OW10996   3.377   2.333   4.142 -0.5678 -0.1130 -0.1748
 2736SOL    HW210997   3.412   2.349   4.054  0.1108 -2.9897 -0.4686
 2736SOL    HW310998   3.431   2.386   4.200  1.5177 -1.1770 -1.0974
 2736SOL    MW410999   3.389   2.342   4.138 -0.2031 -0.6328 -0.3352
 2737SOL     OW11000   3.129   2.295   4.911  0.6338 -0.2087  0.3649
 2737SOL    HW211001   3.056   2.321   4.855  0.3476 -0.9745  0.3832
 2737SOL    HW311002   3.131   2.200   4.905  1.8756 -0.1760  0.0475
 2737SOL    MW411003   3.120   2.286   4.903  0.7596 -0.3054  0.3252
 2738SOL     OW11004   0.647   2.508   4.703  0.8307 -0.0117 -0.3533
 2738SOL    HW211005   0.561   2.505   4.661  0.7471 -0.0146 -0.1792
 2738SOL    HW311006   0.659   2.420   4.740  0.6884  0.1439  0.0667
 2738SOL    MW411007   0.637   2.496   4.702  0.8008  0.0086 -0.2751
 2739SOL     OW11008   1.066   1.776   4.582  0.0557  0.3563 -0.1640
 2739SOL    HW211009   0.971   1.770   4.570 -0.1763 -0.5716  1.9163
 2739SOL    HW311010   1.089   1.865   4.557 -1.1839  0.2563 -1.7437
 2739SOL    MW411011   1.057   1.787   4.577 -0.1385  0.2207 -0.0982
 2740SOL     OW11012   1.317   2.540   4.725 -0.1869  0.0782 -0.0275
 2740SOL    HW211013   1.351   2.511   4.640  0.3557 -0.0125  0.2183
 2740SOL    HW311014   1.293   2.459   4.770 -1.3766  0.1822 -0.4702
 2740SOL    MW411015   1.319   2.526   4.720 -0.2722  0.0801 -0.0534
 2741SOL     OW11016   2.062   3.904   4.107 -0.1267 -0.1866  0.3789
 2741SOL    HW211017   1.985   3.945   4.147 -0.7844 -1.1091  0.0632
 2741SOL    HW311018   2.048   3.912   4.013  0.9510  1.0840  0.2921
 2741SOL    MW411019   2.050   3.911   4.100 -0.0713 -0.1407  0.3262
 2742SOL     OW11020   0.454   0.058   4.547  0.1205  0.0750  0.4069
 2742SOL    HW211021   0.549   0.060   4.559  0.0180  0.4109  1.2399
 2742SOL    HW311022   0.441   0.076   4.454  0.8563  0.6167  0.4001
 2742SOL    MW411023   0.465   0.061   4.536  0.2041  0.1908  0.5155
 2743SOL     OW11024   2.009   0.499   4.180 -0.1115  0.1104  0.5574
 2743SOL    HW211025   2.087   0.457   4.144 -0.4228 -0.6249  0.7321
 2743SOL    HW311026   2.033   0.523   4.269  0.0350  0.2052  0.4917
 2743SOL    MW411027   2.023   0.497   4.187 -0.1335  0.0258  0.5717
 2744SOL     OW11028   2.231   0.162   4.223 -0.5561  0.3332 -0.5977
 2744SOL    HW211029   2.304   0.114   4.184  1.3633  2.1061  0.7132
 2744SOL    HW311030   2.153   0.117   4.190  1.0735 -0.8949 -2.9662
 2744SOL    MW411031   2.231   0.150   4.213 -0.0877  0.4050 -0.7367
 2745SOL     OW11032   2.317   4.506   4.550 -0.3665 -0.1870 -0.1398
 2745SOL    HW211033   2.236   4.457   4.557 -0.0931 -0.8175 -1.2689
 2745SOL    HW311034   2.290   4.596   4.533 -0.8563 -0.0248  1.4377
 2745SOL    MW411035   2.303   4.512   4.548 -0.3948 -0.2489 -0.0801
 2746SOL     OW11036   1.796   2.275   4.961 -0.1201 -0.3478  0.1122
 2746SOL    HW211037   1.788   2.185   4.930  0.4458 -0.0738 -0.8454
 2746SOL    HW311038   1.878   2.277   5.010 -0.3679 -0.4718  0.5275
 2746SOL    MW411039   1.806   2.263   4.963 -0.0781 -0.3283  0.0405
 2747SOL     OW11040   0.458   3.125   4.268  0.0053  0.6930 -0.1432
 2747SOL    HW211041   0.472   3.118   4.362  0.7014 -1.0498 -0.3673
 2747SOL    HW311042   0.470   3.218   4.249  1.4891  0.7969  1.2285
 2747SOL    MW411043   0.461   3.137   4.278  0.2929  0.4771  0.0081
 2748SOL     OW11044   2.803   0.406   4.797  0.6088  0.4847 -0.4013
 2748SOL    HW211045   2.860   0.475   4.764  1.5711 -0.6807 -1.2120
 2748SOL    HW311046   2.804   0.417   4.892  0.2903  1.9367 -0.5486
 2748SOL    MW411047   2.810   0.417   4.805  0.6938  0.5226 -0.5274
 2749SOL     OW11048   2.927   1.332   4.252  0.2881 -0.5348 -0.2519
 2749SOL    HW211049   2.984   1.281   4.195 -1.2141 -0.5536 -1.8028
 2749SOL    HW311050   2.839   1.300   4.233 -0.4971  1.2565  0.1920
 2749SOL    MW411051   2.923   1.321   4.242 -0.0136 -0.3009 -0.3977
 2750SOL     OW11052   1.191   1.339   4.487 -0.1161 -0.0334 -0.1068
 2750SOL    HW211053   1.191   1.432   4.506  0.3791 -0.1250  0.3589
 2750SOL    HW311054   1.114   1.305   4.532  0.9687 -0.2260  1.6881
 2750SOL    MW411055   1.181   1.347   4.496  0.0924 -0.0708  0.1912
 2751SOL     OW11056   0.483   4.239   4.132 -0.7092 -0.4400  0.3923
 2751SOL    HW211057   0.475   4.229   4.037 -0.7703 -0.8420  0.4380
 2751SOL    HW311058   0.408   4.292   4.157  0.5704  1.6542 -0.0903
 2751SOL    MW411059   0.472   4.245   4.123 -0.5484 -0.2165  0.3347
 2752SOL     OW11060   1.997   2.854   4.265 -0.0786 -0.4631  0.6021
 2752SOL    HW211061   1.972   2.840   4.357 -0.6975 -0.2432  0.4705
 2752SOL    HW311062   2.016   2.947   4.260 -0.8597 -0.3217  0.3106
 2752SOL    MW411063   1.996   2.864   4.277 -0.2633 -0.4156  0.5460
 2753SOL     OW11064   3.231   1.083   4.610 -0.1605  0.2014 -0.0483
 2753SOL    HW211065   3.151   1.037   4.587 -0.4935  0.4053  0.6629
 2753SOL    HW311066   3.301   1.019   4.597 -0.3255  0.3130 -1.5831
 2753SOL    MW411067   3.230   1.069   4.606 -0.2263  0.2431 -0.1569
 2754SOL     OW11068   0.499   4.439   4.504  0.1198 -0.2232  0.4928
 2754SOL    HW211069   0.413   4.397   4.506 -0.0245 -0.1282 -2.1306
 2754SOL    HW311070   0.480   4.533   4.513 -0.2534 -0.0329 -1.8256
 2754SOL    MW411071   0.485   4.446   4.505  0.0515 -0.1855 -0.1593
 2755SOL     OW11072   2.307   2.943   4.561 -0.2456  0.2336 -0.2722
 2755SOL    HW211073   2.285   2.934   4.653  1.7526 -0.6778  0.1412
 2755SOL    HW311074   2.295   2.855   4.525  0.9879  0.1017 -0.4000
 2755SOL    MW411075   2.303   2.930   4.568  0.1807  0.0961 -0.2341
 2756SOL     OW11076   3.356   1.597   4.715  0.0664  0.0325  0.0246
 2756SOL    HW211077   3.325   1.570   4.802 -1.2803 -1.4286 -0.8682
 2756SOL    HW311078   3.314   1.681   4.699 -0.7491 -0.3247  0.2533
 2756SOL    MW411079   3.347   1.604   4.724 -0.2189 -0.2074 -0.0634
 2757SOL     OW11080   4.024   0.148   4.293 -0.4169 -0.2601 -0.2299
 2757SOL    HW211081   3.955   0.089   4.262 -0.6031  0.2944 -0.9024
 2757SOL    HW311082   4.010   0.229   4.243 -0.9963  0.8182  1.6510
 2757SOL    MW411083   4.013   0.151   4.282 -0.5178 -0.0447 -0.0710
 2758SOL     OW11084   3.814   3.569   4.510  0.2608 -0.5348 -0.4293
 2758SOL    HW211085   3.747   3.628   4.545  0.5511  0.1364 -1.0033
 2758SOL    HW311086   3.897   3.614   4.529  0.4586 -0.5505 -1.2581
 2758SOL    MW411087   3.816   3.583   4.517  0.3250 -0.4485 -0.6142
 2759SOL     OW11088   4.120   1.115   4.672  0.0185 -0.4703 -0.1766
 2759SOL    HW211089   4.107   1.033   4.624 -0.4765  0.0467 -0.9403
 2759SOL    HW311090   4.189   1.095   4.736  1.0298 -1.0540 -1.4220
 2759SOL    MW411091   4.127   1.102   4.674  0.0868 -0.4791 -0.4416
 2760SOL     OW11092   1.197   4.366   4.537  0.0752  0.1826 -0.4822
 2760SOL    HW211093   1.177   4.383   4.445  0.5637  0.3279 -0.5646
 2760SOL    HW311094   1.121   4.319   4.570  0.5577 -1.2923 -1.3825
 2760SOL    MW411095   1.185   4.362   4.529  0.2033  0.0072 -0.6118
 2761SOL     OW11096   2.535   0.518   4.514  0.2609 -0.2037  0.5974
 2761SOL    HW211097   2.510   0.528   4.422  0.3200 -1.7996  0.3929
 2761SOL    HW311098   2.609   0.576   4.525 -0.4898  0.8967 -0.0596
 2761SOL    MW411099   2.541   0.527   4.503  0.1695 -0.2691  0.4835
 2762SOL     OW11100   3.793   0.320   4.612 -0.0604 -0.5291 -0.3391
 2762SOL    HW211101   3.796   0.408   4.575  0.9497  0.0351  1.0301
 2762SOL    HW311102   3.885   0.294   4.619 -0.3889 -2.1309 -1.7133
 2762SOL    MW411103   3.806   0.329   4.608  0.0298 -0.6660 -0.3400
 2763SOL     OW11104   4.093   4.268   4.128  0.2987 -0.2286  0.0777
 2763SOL    HW211105   4.161   4.319   4.172  1.0459 -0.6445 -0.5921
 2763SOL    HW311106   4.095   4.183   4.171 -0.2918 -0.0100  0.5430
 2763SOL    MW411107   4.102   4.263   4.139  0.3195 -0.2546  0.0505
 2764SOL     OW11108   3.335   2.327   4.555  0.1281  0.1445  0.2173
 2764SOL    HW211109   3.396   2.255   4.539 -0.2444  0.0162 -0.6363
 2764SOL    HW311110   3.253   2.284   4.579 -0.3025  0.2573 -1.0150
 2764SOL    MW411111   3.332   2.312   4.556  0.0222  0.1423 -0.0577
 2765SOL     OW11112   0.898   0.381   4.546 -0.2237  0.5062 -0.2593
 2765SOL    HW211113   0.970   0.435   4.578  0.1949  0.2327 -0.7275
 2765SOL    HW311114   0.821   0.437   4.552  0.1796  1.1024 -0.5894
 2765SOL    MW411115   0.898   0.396   4.551 -0.1152  0.5488 -0.3643
 2766SOL     OW11116   4.044   2.059   4.605  0.2973  0.4115 -0.0624
 2766SOL    HW211117   3.998   2.140   4.627  0.3710  0.4049  0.1112
 2766SOL    HW311118   3.998   1.991   4.655 -0.1489  0.2565 -0.6720
 2766SOL    MW411119   4.032   2.061   4.615  0.2480  0.3903 -0.1202
 2767SOL     OW11120   1.775   1.917   4.139 -0.2359  0.6662 -0.0719
 2767SOL    HW211121   1.853   1.962   4.171  0.7639 -0.7622 -0.4298
 2767SOL    HW311122   1.772   1.836   4.190 -0.8041  0.1729 -0.8801
 2767SOL    MW411123   1.785   1.912   4.150 -0.1789  0.4127 -0.2255
 2768SOL     OW11124   3.538   0.191   4.518  0.0457 -0.0775  0.2272
 2768SOL    HW211125   3.613   0.230   4.562  0.4367  0.3683 -0.8039
 2768SOL    HW311126   3.467   0.255   4.530  0.5488  0.7467 -1.0229
 2768SOL    MW411127   3.539   0.205   4.525  0.1636  0.0901 -0.0739
 2769SOL     OW11128   2.715   1.967   4.196 -0.1968  0.2246  0.1338
 2769SOL    HW211129   2.696   1.964   4.102 -0.3222 -0.6824  0.1830
 2769SOL    HW311130   2.635   2.004   4.235 -0.6924 -0.6917  0.0165
 2769SOL    MW411131   2.702   1.971   4.189 -0.2787 -0.0160  0.1245
 2770SOL     OW11132   1.358   0.099   4.530 -0.6638  0.2359 -0.1449
 2770SOL    HW211133   1.294   0.039   4.568 -0.1023 -0.6439 -0.5806
 2770SOL    HW311134   1.342   0.094   4.435  0.6476 -0.6698 -0.3217
 2770SOL    MW411135   1.347   0.091   4.522 -0.4166  0.0003 -0.2255
 2771SOL     OW11136   1.120   2.277   4.155  0.0920 -0.1937  0.2610
 2771SOL    HW211137   1.047   2.309   4.209 -0.2016 -2.0275  0.9621
 2771SOL    HW311138   1.194   2.331   4.181 -0.7246  0.8858  0.4005
 2771SOL    MW411139   1.120   2.289   4.165 -0.0545 -0.2933  0.3715
 2772SOL     OW11140   1.604   4.639   4.544 -0.1969  0.0486  0.1304
 2772SOL    HW211141   1.577   4.548   4.527  0.5952 -0.1135 -0.2736
 2772SOL    HW311142   1.522   4.685   4.559 -0.6826 -0.5361 -0.6486
 2772SOL    MW411143   1.589   4.633   4.544 -0.1565 -0.0491 -0.0257
 2773SOL     OW11144   3.716   0.835   4.639  0.4410 -0.3484  0.1947
 2773SOL    HW211145   3.627   0.852   4.607  0.2923 -1.8417 -0.2262
 2773SOL    HW311146   3.754   0.922   4.649  0.0280  0.2303 -2.7814
 2773SOL    MW411147   3.709   0.848   4.636  0.3667 -0.4691 -0.2532
 2774SOL     OW11148   2.070   1.451   4.886 -0.1420 -0.0545 -0.5820
 2774SOL    HW211149   2.053   1.541   4.913  0.0720 -0.2193  0.0878
 2774SOL    HW311150   1.998   1.431   4.825 -0.1222  0.6038 -0.8283
 2774SOL    MW411151   2.058   1.460   4.881 -0.1113  0.0107 -0.5260
 2775SOL     OW11152   1.613   3.619   4.261 -0.1333 -0.0469 -0.0672
 2775SOL    HW211153   1.523   3.592   4.241  0.4578 -1.5162 -0.7750
 2775SOL    HW311154   1.668   3.558   4.212  1.2552  1.2043 -0.1053
 2775SOL    MW411155   1.608   3.608   4.252  0.1279 -0.0758 -0.1659
 2776SOL     OW11156   3.189   2.557   4.463  0.1822  0.0413  0.0168
 2776SOL    HW211157   3.230   2.471   4.471  2.0086  1.1757  4.0923
 2776SOL    HW311158   3.118   2.556   4.527 -0.3657  1.2526 -0.5568
 2776SOL    MW411159   3.185   2.546   4.472  0.3507  0.3510  0.4787
 2777SOL     OW11160   4.480   3.713   4.579  0.1844 -0.2151 -0.4836
 2777SOL    HW211161   4.489   3.705   4.673  1.4310  0.5476 -0.5280
 2777SOL    HW311162   4.402   3.661   4.557  0.2532 -0.8867  0.8703
 2777SOL    MW411163   4.471   3.705   4.588  0.3581 -0.2029 -0.3109
 2778SOL     OW11164   3.073   2.218   4.586  0.1448  0.1404  0.3577
 2778SOL    HW211165   3.003   2.262   4.635 -0.7498 -1.5687  0.6445
 2778SOL    HW311166   3.031   2.193   4.504  0.4761 -0.7385  0.4607
 2778SOL    MW411167   3.058   2.221   4.582  0.0703 -0.2012  0.4086
 2779SOL     OW11168   3.759   2.846   4.472 -0.0591  0.2375  0.2223
 2779SOL    HW211169   3.715   2.926   4.500 -2.0731 -0.6222 -0.4094
 2779SOL    HW311170   3.703   2.775   4.504  0.5639 -0.8677 -1.0816
 2779SOL    MW411171   3.746   2.847   4.480 -0.2427 -0.0215 -0.0324
 2780SOL     OW11172   2.159   3.488   4.655  0.0710 -0.4233 -0.1351
 2780SOL    HW211173   2.238   3.434   4.656 -0.7777 -1.6901  0.5357
 2780SOL    HW311174   2.139   3.503   4.747 -0.1224  0.4124 -0.3112
 2780SOL    MW411175   2.167   3.483   4.667 -0.0665 -0.4804 -0.0696
 2781SOL     OW11176   2.728   4.008   4.253  0.2351 -0.1468 -0.0335
 2781SOL    HW211177   2.705   4.095   4.219 -1.3483 -0.3565  0.4626
 2781SOL    HW311178   2.649   3.956   4.239  1.1717 -1.5063 -0.2893
 2781SOL    MW411179   2.715   4.013   4.247  0.1497 -0.3533 -0.0019
 2782SOL     OW11180   4.481   4.005   4.187  0.0932 -0.4873  0.8795
 2782SOL    HW211181   4.450   3.989   4.276 -0.1034 -2.4742  0.4686
 2782SOL    HW311182   4.570   3.970   4.185 -0.0546 -0.8293  0.1706
 2782SOL    MW411183   4.488   3.998   4.198  0.0478 -0.7942  0.7324
 2783SOL     OW11184   2.529   1.366   4.499  0.3479 -0.0292  0.0887
 2783SOL    HW211185   2.457   1.409   4.546  0.5359 -0.4359  0.7430
 2783SOL    HW311186   2.497   1.359   4.409 -0.4028 -0.1383  0.3621
 2783SOL    MW411187   2.515   1.371   4.493  0.2739 -0.0972  0.2112
 2784SOL     OW11188   1.939   2.819   4.543 -0.4106 -0.1040 -0.1753
 2784SOL    HW211189   1.952   2.890   4.606 -1.2564 -0.1978  0.1055
 2784SOL    HW311190   1.845   2.819   4.526 -0.4490 -1.3404  0.0278
 2784SOL    MW411191   1.929   2.829   4.549 -0.5273 -0.2797 -0.1116
 2785SOL     OW11192   1.604   1.316   4.758 -0.0831  0.5036  0.4557
 2785SOL    HW211193   1.693   1.348   4.739 -0.4004  1.3934  0.4586
 2785SOL    HW311194   1.617   1.226   4.789  0.6231 -0.3518 -2.1305
 2785SOL    MW411195   1.618   1.308   4.760 -0.0318  0.5082  0.1149
 2786SOL     OW11196   1.019   3.995   4.504 -0.1732 -0.1137 -0.5747
 2786SOL    HW211197   0.997   4.081   4.539 -0.1900  0.1292 -1.1784
 2786SOL    HW311198   0.973   3.990   4.420 -0.8682 -1.0498 -0.1503
 2786SOL    MW411199   1.010   4.006   4.498 -0.2671 -0.2050 -0.5980
 2787SOL     OW11200   1.525   2.699   4.782 -0.5206  0.3354 -0.1449
 2787SOL    HW211201   1.450   2.642   4.766  0.1445 -0.6174  0.1075
 2787SOL    HW311202   1.587   2.645   4.832  1.0457  0.5781 -1.7638
 2787SOL    MW411203   1.524   2.684   4.787 -0.2263  0.2418 -0.3252
 2788SOL     OW11204   1.964   3.280   4.607  0.1702  0.1474  0.2436
 2788SOL    HW211205   2.002   3.364   4.632  0.7231 -0.1812  0.5118
 2788SOL    HW311206   1.873   3.300   4.586  0.1559  0.7233  0.8422
 2788SOL    MW411207   1.957   3.293   4.608  0.2413  0.1800  0.3581
 2789SOL     OW11208   3.090   2.012   4.164 -0.2617  0.3420  0.2646
 2789SOL    HW211209   3.182   2.038   4.172 -0.4174  0.0989  3.5870
 2789SOL    HW311210   3.090   1.919   4.186 -1.2865  0.2642 -0.0579
 2789SOL    MW411211   3.102   2.003   4.168 -0.4175  0.2997  0.6599
 2790SOL     OW11212   4.014   1.928   4.162 -0.2384 -0.3102  0.2025
 2790SOL    HW211213   3.941   1.980   4.195 -0.0895 -0.7813  1.2980
 2790SOL    HW311214   4.006   1.844   4.208  2.3071  0.3954  2.0854
 2790SOL    MW411215   4.004   1.924   4.173  0.1173 -0.2793  0.5956
 2791SOL     OW11216   4.062   0.225   4.594  0.0680 -0.0097 -0.3567
 2791SOL    HW211217   4.030   0.215   4.505 -1.3959 -0.1281  0.1576
 2791SOL    HW311218   4.134   0.288   4.588 -0.1110  0.0773 -1.5945
 2791SOL    MW411219   4.067   0.232   4.582 -0.1488 -0.0138 -0.4520
 2792SOL     OW11220   3.313   0.802   4.141 -0.2026 -0.2504  0.2043
 2792SOL    HW211221   3.245   0.836   4.199  1.0024  1.4631  0.6762
 2792SOL    HW311222   3.340   0.720   4.182  1.2191  1.3375  2.6009
 2792SOL    MW411223   3.308   0.796   4.154  0.1442  0.1852  0.5822
 2793SOL     OW11224   3.636   0.123   4.280 -0.4798 -0.3991 -0.4550
 2793SOL    HW211225   3.600   0.140   4.367  1.0407 -0.4980  0.2154
 2793SOL    HW311226   3.627   0.206   4.233 -1.4316 -0.3853 -0.2505
 2793SOL    MW411227   3.630   0.136   4.285 -0.4048 -0.4103 -0.3390
 2794SOL     OW11228   0.478   0.359   4.606  0.2159  0.3040  0.2047
 2794SOL    HW211229   0.384   0.374   4.617  0.3042 -1.1518  3.3986
 2794SOL    HW311230   0.486   0.264   4.594  1.3074  0.4131  0.0402
 2794SOL    MW411231   0.467   0.349   4.605  0.3716  0.1263  0.6046
 2795SOL     OW11232   3.807   2.818   4.195 -0.4681 -0.0170 -0.2935
 2795SOL    HW211233   3.728   2.769   4.173 -0.8903  0.9637 -1.0479
 2795SOL    HW311234   3.812   2.815   4.290 -1.0144 -0.6999 -0.2843
 2795SOL    MW411235   3.798   2.811   4.204 -0.5958  0.0222 -0.3915
 2796SOL     OW11236   0.933   1.240   4.553 -0.0144 -0.0000  0.1879
 2796SOL    HW211237   0.924   1.144   4.550  0.4612 -0.0389  0.0279
 2796SOL    HW311238   0.846   1.272   4.528 -0.0271 -0.3898 -0.2889
 2796SOL    MW411239   0.920   1.231   4.549  0.0467 -0.0566  0.1035
 2797SOL     OW11240   3.549   2.494   4.282 -0.2212  0.0539  0.0567
 2797SOL    HW211241   3.636   2.455   4.278  0.8872  2.6123 -2.9718
 2797SOL    HW311242   3.545   2.535   4.368  1.7322  0.2022  0.1020
 2797SOL    MW411243   3.560   2.494   4.293  0.1829  0.4110 -0.3371
 2798SOL     OW11244   0.424   1.722   4.505 -0.0348 -0.5002 -0.2841
 2798SOL    HW211245   0.471   1.654   4.554 -0.5655 -1.0228 -0.4822
 2798SOL    HW311246   0.475   1.801   4.518 -0.9783 -0.2756  2.4229
 2798SOL    MW411247   0.437   1.723   4.514 -0.2293 -0.5395  0.0467
 2799SOL     OW11248   3.601   1.683   4.293 -0.2942  0.0290 -0.1105
 2799SOL    HW211249   3.586   1.692   4.387  0.0625 -0.3198 -0.0224
 2799SOL    HW311250   3.514   1.663   4.257 -0.3745 -0.1498  0.1806
 2799SOL    MW411251   3.587   1.681   4.300 -0.2575 -0.0407 -0.0606
 2800SOL     OW11252   0.505   3.137   4.546 -0.5343  0.2653 -0.1283
 2800SOL    HW211253   0.500   3.226   4.579 -0.1342  0.1306  0.3028
 2800SOL    HW311254   0.432   3.091   4.588 -0.1916  0.1633  0.3640
 2800SOL    MW411255   0.495   3.142   4.556 -0.4363  0.2341 -0.0067
 2801SOL     OW11256   3.183   3.211   4.489  0.0103 -0.2731 -0.2347
 2801SOL    HW211257   3.165   3.213   4.395 -0.8780 -0.5494 -0.0799
 2801SOL    HW311258   3.175   3.302   4.517  0.0465 -0.2239 -0.3874
 2801SOL    MW411259   3.179   3.223   4.481 -0.1023 -0.3030 -0.2341
 2802SOL     OW11260   1.187   3.269   4.606  0.1876 -0.0741 -0.0626
 2802SOL    HW211261   1.185   3.263   4.702  1.7733  0.2212  0.0037
 2802SOL    HW311262   1.114   3.214   4.578  0.1771 -0.8000  1.3011
 2802SOL    MW411263   1.177   3.261   4.615  0.3953 -0.1307  0.1264
 2803SOL     OW11264   4.239   0.015   4.183  0.0784  0.1271  0.0743
 2803SOL    HW211265   4.168   0.049   4.237  0.7902 -0.1249  1.1814
 2803SOL    HW311266   4.254  -0.074   4.215  0.1143 -0.2367 -0.9312
 2803SOL    MW411267   4.232   0.008   4.194  0.1769  0.0458  0.0873
 2804SOL     OW11268   2.493   1.104   4.607  0.1845  0.1043 -0.4832
 2804SOL    HW211269   2.514   1.192   4.573 -0.7000  0.3690 -0.3553
 2804SOL    HW311270   2.463   1.120   4.696  1.1618 -0.4564 -0.0464
 2804SOL    MW411271   2.492   1.118   4.614  0.1969  0.0652 -0.4086
 2805SOL     OW11272   0.623   1.242   4.248 -0.1396 -0.5024 -0.3705
 2805SOL    HW211273   0.537   1.210   4.223  0.3376 -1.1535 -1.1929
 2805SOL    HW311274   0.624   1.334   4.221 -0.9224 -0.2256  0.5276
 2805SOL    MW411275   0.612   1.250   4.241 -0.1800 -0.5518 -0.3600
 2806SOL     OW11276   1.305   0.104   4.270 -0.2053 -0.4123 -0.3358
 2806SOL    HW211277   1.371   0.055   4.221  1.1055  0.7166  0.2713
 2806SOL    HW311278   1.313   0.194   4.238 -2.2204 -0.4589 -1.0471
 2806SOL    MW411279   1.315   0.109   4.260 -0.2981 -0.2695 -0.3500
 2807SOL     OW11280   1.696   3.296   4.502 -0.1914  0.0979 -0.8426
 2807SOL    HW211281   1.611   3.253   4.517 -0.2314  0.4892  0.0630
 2807SOL    HW311282   1.726   3.259   4.419 -0.5950 -1.0919 -0.4757
 2807SOL    MW411283   1.689   3.285   4.493 -0.2500 -0.0074 -0.6742
 2808SOL     OW11284   2.238   2.735   4.170 -0.3649 -0.4086  0.2900
 2808SOL    HW211285   2.165   2.777   4.216  0.3784 -1.0550  2.0870
 2808SOL    HW311286   2.316   2.780   4.202  0.2338 -1.5046  0.4017
 2808SOL    MW411287   2.239   2.746   4.180 -0.1879 -0.6382  0.5422
 2809SOL     OW11288   2.931   4.491   4.473  0.1874 -0.2867  0.4143
 2809SOL    HW211289   2.864   4.551   4.505  0.9215  1.0459 -0.4628
 2809SOL    HW311290   2.919   4.411   4.524 -1.7283  0.1057  0.6178
 2809SOL    MW411291   2.921   4.488   4.484  0.0312 -0.0596  0.3257
 2810SOL     OW11292   3.127   0.359   4.106 -0.3190 -0.0529  0.0697
 2810SOL    HW211293   3.058   0.407   4.150  0.6264 -0.2545  1.8265
 2810SOL    HW311294   3.138   0.280   4.158  1.2087 -0.0256 -0.1832
 2810SOL    MW411295   3.120   0.355   4.118  0.0072 -0.0759  0.2680
 2811SOL     OW11296   1.606   0.754   4.503 -0.3596 -0.3207  0.2438
 2811SOL    HW211297   1.611   0.665   4.538  0.2927 -0.0197  0.9457
 2811SOL    HW311298   1.697   0.781   4.494 -0.5445  0.9367  1.7943
 2811SOL    MW411299   1.619   0.746   4.507 -0.2979 -0.1152  0.5407
 2812SOL     OW11300   2.251   0.118   4.509 -0.0169 -0.3424 -0.0846
 2812SOL    HW211301   2.327   0.155   4.553 -0.2245  0.9271 -0.7484
 2812SOL    HW311302   2.265   0.137   4.416 -1.0184 -0.3137 -0.2396
 2812SOL    MW411303   2.263   0.126   4.502 -0.1764 -0.1711 -0.1926
 2813SOL     OW11304   2.694   1.604   4.493  0.6166 -0.4707 -0.7301
 2813SOL    HW211305   2.643   1.524   4.503  0.7571 -0.6083 -1.1326
 2813SOL    HW311306   2.785   1.577   4.506  0.4764  0.0634  1.7154
 2813SOL    MW411307   2.699   1.590   4.496  0.6163 -0.4184 -0.4606
 2814SOL     OW11308   2.073   0.669   4.759 -0.1764 -0.3418  0.0291
 2814SOL    HW211309   2.014   0.609   4.714  0.0027 -0.7208  0.2942
 2814SOL    HW311310   2.018   0.744   4.783 -1.1881 -1.8442  2.6133
 2814SOL    MW411311   2.058   0.671   4.756 -0.2863 -0.5901  0.4053
 2815SOL     OW11312   0.166   1.764   4.606 -0.0986  0.1963  0.0605
 2815SOL    HW211313   0.250   1.719   4.595  0.4494  1.1026  0.4946
 2815SOL    HW311314   0.187   1.857   4.598 -0.9336  0.4715  0.9660
 2815SOL    MW411315   0.179   1.770   4.604 -0.1364  0.3523  0.2370
 2816SOL     OW11316   0.266   3.585   4.260 -0.2937 -0.1505 -0.2681
 2816SOL    HW211317   0.201   3.523   4.228  0.8698 -2.3321  1.4480
 2816SOL    HW311318   0.350   3.540   4.248  0.5088  0.6755  1.8902
 2816SOL    MW411319   0.269   3.571   4.254 -0.0343 -0.3295  0.2432
 2817SOL     OW11320   2.653   1.815   4.677  0.3189  0.1703  0.6316
 2817SOL    HW211321   2.733   1.827   4.729  0.6368 -0.2880  0.2396
 2817SOL    HW311322   2.672   1.741   4.620 -0.1224  0.5245  0.0220
 2817SOL    MW411323   2.666   1.807   4.677  0.3028  0.1566  0.4992
 2818SOL     OW11324   1.770   0.107   4.194 -0.0775  0.1313 -0.0798
 2818SOL    HW211325   1.779   0.194   4.155  2.1934  0.1270  0.3983
 2818SOL    HW311326   1.765   0.123   4.288 -0.5468 -0.1964 -0.0479
 2818SOL    MW411327   1.770   0.120   4.201  0.1600  0.0875 -0.0124
 2819SOL     OW11328   2.680   1.706   4.241  0.5513  0.7357 -0.6996
 2819SOL    HW211329   2.670   1.678   4.332 -0.1530  0.7574 -0.7688
 2819SOL    HW311330   2.691   1.801   4.246 -1.6230  1.0208 -0.7730
 2819SOL    MW411331   2.680   1.715   4.254  0.1719  0.7761 -0.7181
 2820SOL     OW11332   4.089   1.651   4.517  0.2285  0.1460  0.1779
 2820SOL    HW211333   4.096   1.556   4.518 -0.1632  0.1267  0.7197
 2820SOL    HW311334   4.177   1.682   4.539  1.0887 -0.0632 -2.6571
 2820SOL    MW411335   4.102   1.643   4.520  0.2899  0.1159 -0.1245
 2821SOL     OW11336   1.488   4.379   4.517  0.1712 -0.3810 -0.1240
 2821SOL    HW211337   1.515   4.289   4.536  0.1165 -0.2456  0.6011
 2821SOL    HW311338   1.393   4.378   4.528  0.0209 -0.5378 -1.3653
 2821SOL    MW411339   1.479   4.367   4.521  0.1442 -0.3839 -0.1922
 2822SOL     OW11340   2.002   1.285   4.235  0.4478  0.0976 -0.2231
 2822SOL    HW211341   1.919   1.250   4.202 -0.2898  0.4821  1.1918
 2822SOL    HW311342   2.001   1.377   4.208 -0.4310  0.5647  1.3656
 2822SOL    MW411343   1.991   1.293   4.227  0.2345  0.2100  0.1736
 2823SOL     OW11344   3.016   2.837   4.561 -0.8348  0.2951 -0.1088
 2823SOL    HW211345   3.017   2.751   4.603 -1.1251  1.1210  1.6211
 2823SOL    HW311346   3.104   2.847   4.524 -0.1133  0.1229  1.5142
 2823SOL    MW411347   3.028   2.827   4.562 -0.7780  0.3812  0.3333
 2824SOL     OW11348   3.183   3.014   4.819 -0.3360  0.2195 -0.1122
 2824SOL    HW211349   3.111   3.022   4.756 -0.6835 -0.0304  0.2448
 2824SOL    HW311350   3.262   3.025   4.767 -0.6546  1.2092 -0.3926
 2824SOL    MW411351   3.184   3.016   4.804 -0.4237  0.3171 -0.1020
 2825SOL     OW11352   0.229   3.587   4.528 -0.3610 -0.2685 -0.3027
 2825SOL    HW211353   0.238   3.577   4.433 -0.0376  0.4679 -0.3554
 2825SOL    HW311354   0.140   3.620   4.540 -0.7409 -1.2690 -0.2713
 2825SOL    MW411355   0.218   3.590   4.517 -0.3684 -0.3030 -0.3052
 2826SOL     OW11356   3.088   2.022   4.776 -0.1118 -0.0133 -0.2406
 2826SOL    HW211357   3.162   1.967   4.750 -0.2704 -0.6562  0.6151
 2826SOL    HW311358   3.076   2.084   4.704  1.3291  0.1680 -0.3331
 2826SOL    MW411359   3.096   2.023   4.763  0.0577 -0.0741 -0.1392
 2827SOL     OW11360   3.338   0.525   4.197 -0.4383  0.2174 -0.2266
 2827SOL    HW211361   3.266   0.483   4.149 -0.1633  0.5525 -0.9453
 2827SOL    HW311362   3.414   0.470   4.178 -0.2033  0.7018 -0.6719
 2827SOL    MW411363   3.338   0.512   4.188 -0.3710  0.3255 -0.3800
 2828SOL     OW11364   3.528   2.653   4.493 -0.1878  0.3761 -0.4218
 2828SOL    HW211365   3.503   2.622   4.580  0.2137 -0.4614 -0.5952
 2828SOL    HW311366   3.459   2.716   4.469 -0.2187  0.7200  0.5560
 2828SOL    MW411367   3.515   2.657   4.501 -0.1390  0.3111 -0.3161
 2829SOL     OW11368   2.306   0.701   4.557  0.1849  0.3617 -0.6136
 2829SOL    HW211369   2.258   0.693   4.640 -0.3665  0.4063 -0.9257
 2829SOL    HW311370   2.370   0.630   4.560  0.2396  0.4307 -0.0998
 2829SOL    MW411371   2.308   0.690   4.568  0.1194  0.3766 -0.5870
 2830SOL     OW11372   2.212   2.994   4.833  0.1310 -0.0813  0.1383
 2830SOL    HW211373   2.204   2.913   4.884  0.1010  0.6260  1.2904
 2830SOL    HW311374   2.298   3.028   4.857  0.1764  0.1784 -0.4055
 2830SOL    MW411375   2.222   2.988   4.843  0.1330  0.0463  0.2184
 2831SOL     OW11376   2.760   0.674   4.471  0.1100  0.4505 -0.3086
 2831SOL    HW211377   2.749   0.769   4.468  0.2929  0.4737 -0.2621
 2831SOL    HW311378   2.824   0.655   4.403  0.4852  0.4220  0.0496
 2831SOL    MW411379   2.767   0.684   4.462  0.1838  0.4498 -0.2551
 2832SOL     OW11380   3.822   3.893   4.188 -0.2184  0.2530 -0.4183
 2832SOL    HW211381   3.736   3.927   4.212  0.3241  0.7366  0.9061
 2832SOL    HW311382   3.813   3.798   4.196 -0.5795  0.3103 -0.0923
 2832SOL    MW411383   3.810   3.885   4.192 -0.1948  0.3245 -0.2007
 2833SOL     OW11384   2.065   1.337   4.524  0.0496  0.0806  0.3816
 2833SOL    HW211385   2.058   1.328   4.429 -0.7054  0.0069  0.4394
 2833SOL    HW311386   2.153   1.371   4.538  0.5330 -0.8788 -0.2770
 2833SOL    MW411387   2.076   1.340   4.513  0.0136 -0.0558  0.3028
 2834SOL     OW11388   2.950   0.016   4.117 -0.1142 -0.0843 -0.5854
 2834SOL    HW211389   2.941  -0.074   4.147 -1.5518  0.4904  0.7338
 2834SOL    HW311390   3.031   0.047   4.158 -0.0579 -0.4967 -0.3762
 2834SOL    MW411391   2.960   0.008   4.126 -0.2964 -0.0629 -0.3834
 2835SOL     OW11392   1.814   3.963   4.507 -0.1069  0.4303 -0.2779
 2835SOL    HW211393   1.808   3.973   4.412  0.9893 -0.0401 -0.4048
 2835SOL    HW311394   1.889   4.018   4.532 -0.9491  1.2731  0.4394
 2835SOL    MW411395   1.823   3.972   4.497 -0.0733  0.4795 -0.2003
 2836SOL     OW11396   2.727   0.375   4.192 -0.5471  0.0307  0.0026
 2836SOL    HW211397   2.719   0.392   4.098 -0.2564  1.0999  0.1584
 2836SOL    HW311398   2.659   0.429   4.232  0.1217  0.5268  0.4909
 2836SOL    MW411399   2.717   0.385   4.185 -0.4206  0.2372  0.0877
 2837SOL     OW11400   3.246   1.388   4.529 -0.2472 -0.1321 -0.0005
 2837SOL    HW211401   3.248   1.299   4.565 -0.2012  0.3022  1.0936
 2837SOL    HW311402   3.285   1.442   4.598  0.0207  0.6907 -0.7928
 2837SOL    MW411403   3.252   1.384   4.543 -0.2060  0.0339  0.0391
 2838SOL     OW11404   3.188   2.581   4.881 -0.0221 -0.0859 -0.2172
 2838SOL    HW211405   3.147   2.588   4.794 -0.2559  0.1029 -0.0947
 2838SOL    HW311406   3.178   2.488   4.904 -0.8395  0.0551  0.0267
 2838SOL    MW411407   3.181   2.569   4.873 -0.1605 -0.0424 -0.1693
 2839SOL     OW11408   0.002   3.013   4.539 -0.1908  0.2697 -0.0525
 2839SOL    HW211409   0.015   3.067   4.461 -0.1901 -1.4106 -1.2309
 2839SOL    HW311410  -0.093   3.002   4.545 -0.2080  0.6457  0.3484
 2839SOL    MW411411  -0.009   3.019   4.529 -0.1930  0.0975 -0.1554
 2840SOL     OW11412   3.118   2.447   4.209 -0.7921 -0.1089  0.1548
 2840SOL    HW211413   3.129   2.483   4.297 -1.0617 -1.8864  0.9287
 2840SOL    HW311414   3.201   2.405   4.190 -0.9786 -0.3320 -0.1572
 2840SOL    MW411415   3.130   2.446   4.218 -0.8521 -0.3729  0.2160
 2841SOL     OW11416   0.924   4.271   4.611 -0.2064  0.0480  0.8798
 2841SOL    HW211417   0.836   4.242   4.584 -0.4890  2.4447 -0.8717
 2841SOL    HW311418   0.915   4.365   4.626  2.0795  0.3271  0.6766
 2841SOL    MW411419   0.911   4.280   4.609  0.0579  0.4005  0.6218
 2842SOL     OW11420   3.599   4.016   4.546  0.5633  0.1199 -0.5425
 2842SOL    HW211421   3.657   4.091   4.539 -0.2304  0.7678 -0.2290
 2842SOL    HW311422   3.520   4.050   4.588  0.6420 -1.1306  0.6669
 2842SOL    MW411423   3.596   4.030   4.551  0.4690  0.0401 -0.3414
 2843SOL     OW11424   4.436   0.147   4.568 -0.1676 -0.2376 -0.9103
 2843SOL    HW211425   4.438   0.136   4.473 -1.0694  0.0323 -0.9619
 2843SOL    HW311426   4.384   0.074   4.600  0.4125 -0.5165 -0.5836
 2843SOL    MW411427   4.430   0.136   4.560 -0.2098 -0.2388 -0.8740
 2844SOL     OW11428   2.673   3.510   4.111  0.3706 -0.1761 -0.0833
 2844SOL    HW211429   2.600   3.556   4.154  0.5140  0.2965 -0.3386
 2844SOL    HW311430   2.751   3.540   4.159  0.5358  0.4008 -0.7099
 2844SOL    MW411431   2.674   3.520   4.123  0.4115 -0.0377 -0.1998
 2845SOL     OW11432   0.220   2.828   4.277 -0.1116 -0.1837  0.2236
 2845SOL    HW211433   0.290   2.787   4.225  0.3353  1.1360 -0.2276
 2845SOL    HW311434   0.208   2.914   4.237 -1.7524 -0.2531  0.5345
 2845SOL    MW411435   0.228   2.834   4.265 -0.2691 -0.0188  0.2055
 2846SOL     OW11436   1.580   1.537   4.178 -0.4282  0.5002 -0.1775
 2846SOL    HW211437   1.547   1.448   4.191 -0.9142  0.9189  1.6342
 2846SOL    HW311438   1.508   1.593   4.208  0.7741  1.4581  0.9930
 2846SOL    MW411439   1.566   1.533   4.184 -0.3337  0.6818  0.2160
 2847SOL     OW11440   2.247   1.732   4.733  0.1931 -0.0583  0.2329
 2847SOL    HW211441   2.178   1.792   4.762  0.9545  0.7079  0.4864
 2847SOL    HW311442   2.328   1.783   4.742  0.7095 -0.6850 -0.8001
 2847SOL    MW411443   2.249   1.747   4.738  0.3617 -0.0398  0.1297
 2848SOL     OW11444   3.778   0.789   4.165 -0.4053 -0.6989  0.3514
 2848SOL    HW211445   3.701   0.844   4.179  0.0558  0.0516 -0.0024
 2848SOL    HW311446   3.794   0.795   4.070  1.9730  1.7290  0.8565
 2848SOL    MW411447   3.770   0.797   4.154 -0.0308 -0.2795  0.3710
 2849SOL     OW11448   0.007   0.860   4.305 -0.0986  0.2555 -0.3300
 2849SOL    HW211449  -0.081   0.841   4.273 -0.1835 -0.4393  0.3101
 2849SOL    HW311450   0.064   0.807   4.249 -0.0863  0.6653 -0.7101
 2849SOL    MW411451   0.003   0.850   4.293 -0.1082  0.2179 -0.2956
 2850SOL     OW11452   2.485   2.321   4.153 -0.0386  0.3228  0.1785
 2850SOL    HW211453   2.425   2.390   4.180  0.4915  1.3788 -1.2603
 2850SOL    HW311454   2.471   2.312   4.058  0.2864 -1.1702  0.2479
 2850SOL    MW411455   2.475   2.329   4.144  0.0741  0.2649 -0.0024
 2851SOL     OW11456   1.615   1.785   4.718  0.0186  0.4269  0.4252
 2851SOL    HW211457   1.581   1.842   4.650  1.5419 -0.3567 -1.0003
 2851SOL    HW311458   1.554   1.711   4.720 -1.0515  1.3023  1.1954
 2851SOL    MW411459   1.602   1.783   4.710  0.0784  0.4389  0.3386
 2852SOL     OW11460   2.984   1.482   4.495 -0.2937  0.1824 -0.0781
 2852SOL    HW211461   3.069   1.453   4.529  0.7164  3.0781  0.0252
 2852SOL    HW311462   2.970   1.427   4.418  0.9402 -1.3760  0.7707
 2852SOL    MW411463   2.993   1.471   4.489  0.0024  0.3588  0.0472
 2853SOL     OW11464   0.212   2.050   4.568  0.9812  0.0561 -0.0141
 2853SOL    HW211465   0.229   2.078   4.479  1.3290  1.1545  0.3930
 2853SOL    HW311466   0.157   2.118   4.606 -0.0422 -0.9269  0.2858
 2853SOL    MW411467   0.207   2.063   4.562  0.8920  0.0715  0.0792
 2854SOL     OW11468   2.851   1.920   4.847 -0.3763 -0.3011 -0.0687
 2854SOL    HW211469   2.803   2.000   4.870 -0.4538 -0.1429 -0.7852
 2854SOL    HW311470   2.943   1.947   4.846 -0.3584 -0.3487  0.2218
 2854SOL    MW411471   2.857   1.934   4.850 -0.3841 -0.2866 -0.1249
 2855SOL     OW11472   3.571   3.475   4.168 -0.1883  0.2778  0.1193
 2855SOL    HW211473   3.577   3.385   4.201  0.6805  0.1787 -0.3037
 2855SOL    HW311474   3.658   3.512   4.183 -0.7976  1.3534  1.1428
 2855SOL    MW411475   3.583   3.468   4.174 -0.1540  0.4065  0.1984
 2856SOL     OW11476   0.770   2.760   4.616 -0.3537  0.6082 -0.2019
 2856SOL    HW211477   0.852   2.725   4.649 -1.0324 -0.1362  0.7503
 2856SOL    HW311478   0.706   2.691   4.636 -1.4590  1.7783  0.3530
 2856SOL    MW411479   0.772   2.746   4.623 -0.5890  0.6645 -0.0029
 2857SOL     OW11480   0.455   2.146   4.640 -0.1737  0.2939  0.6619
 2857SOL    HW211481   0.422   2.235   4.640 -0.7783  0.1008 -1.0836
 2857SOL    HW311482   0.377   2.091   4.633  0.3276 -0.2552 -0.9391
 2857SOL    MW411483   0.441   2.150   4.639 -0.1873  0.1960  0.2208
 2858SOL     OW11484   2.457   3.647   4.254  0.3469  0.0716  0.1282
 2858SOL    HW211485   2.475   3.646   4.348  0.5214 -0.1155  0.0936
 2858SOL    HW311486   2.464   3.739   4.229 -1.2128  0.3297  0.5858
 2858SOL    MW411487   2.460   3.659   4.263  0.1643  0.0811  0.1841
 2859SOL     OW11488   1.378   2.194   4.560 -0.0194  0.1625  0.2816
 2859SOL    HW211489   1.400   2.277   4.517  0.7157 -0.6327 -0.9038
 2859SOL    HW311490   1.457   2.141   4.551 -0.9791 -1.2059 -0.2886
 2859SOL    MW411491   1.391   2.198   4.553 -0.0490 -0.1228  0.0501
 2860SOL     OW11492   2.473   3.118   4.833 -0.1632 -0.8523 -0.4836
 2860SOL    HW211493   2.499   3.100   4.923  0.5798 -0.3436 -0.5851
 2860SOL    HW311494   2.556   3.132   4.786 -0.5633 -0.5238 -1.1116
 2860SOL    MW411495   2.487   3.117   4.838 -0.1178 -0.7420 -0.5798
 2861SOL     OW11496   2.945   0.524   4.285  0.5894  0.1266  0.0888
 2861SOL    HW211497   2.999   0.474   4.346  0.4319 -0.6754 -0.4181
 2861SOL    HW311498   2.874   0.464   4.262  1.0939  0.1124 -1.5001
 2861SOL    MW411499   2.943   0.509   4.290  0.6351  0.0190 -0.1874
 2862SOL     OW11500   1.172   4.624   4.670  0.2105 -0.0802  0.4680
 2862SOL    HW211501   1.178   4.531   4.651 -0.3735 -0.3991  1.7678
 2862SOL    HW311502   1.087   4.651   4.637 -0.4486 -0.4522  1.7973
 2862SOL    MW411503   1.162   4.615   4.663  0.0466 -0.1712  0.8154
 2863SOL     OW11504   3.855   3.299   4.501  0.0060 -0.7695  0.1466
 2863SOL    HW211505   3.770   3.256   4.502 -0.4150  0.0708  0.6818
 2863SOL    HW311506   3.835   3.392   4.497  0.9336 -0.6804 -3.7195
 2863SOL    MW411507   3.841   3.305   4.501  0.0730 -0.6468 -0.2928
 2864SOL     OW11508   2.691   3.118   4.674 -0.1023  0.1626  0.2229
 2864SOL    HW211509   2.656   3.038   4.634  0.8423  0.3287 -0.9881
 2864SOL    HW311510   2.786   3.108   4.668  0.0244  1.5800 -0.3958
 2864SOL    MW411511   2.699   3.106   4.668  0.0389  0.3712 -0.0186
 2865SOL     OW11512   2.511   3.873   4.562  0.2216 -0.4108 -0.1062
 2865SOL    HW211513   2.420   3.899   4.547  0.3594 -0.8812 -1.8707
 2865SOL    HW311514   2.509   3.777   4.561  1.2011 -0.4724 -3.5446
 2865SOL    MW411515   2.499   3.864   4.560  0.3693 -0.4811 -0.7925
 2866SOL     OW11516   1.619   2.026   4.543  0.0271  0.7652  0.2329
 2866SOL    HW211517   1.694   2.085   4.551  1.6279 -1.0880 -0.5074
 2866SOL    HW311518   1.607   2.016   4.448 -0.0189 -0.3107  0.3438
 2866SOL    MW411519   1.627   2.033   4.531  0.2323  0.3788  0.1497
 2867SOL     OW11520   0.253   2.056   4.288 -0.2511 -0.2189 -0.5185
 2867SOL    HW211521   0.258   2.147   4.258 -0.5663 -0.1393 -0.3368
 2867SOL    HW311522   0.327   2.012   4.245 -1.1092 -0.2755 -1.9642
 2867SOL    MW411523   0.264   2.062   4.278 -0.4059 -0.2158 -0.6847
 2868SOL     OW11524   3.648   3.128   4.493  0.5279 -0.5745 -0.3972
 2868SOL    HW211525   3.620   3.166   4.410  0.9740 -1.5466 -1.0031
 2868SOL    HW311526   3.570   3.130   4.549  0.7306  1.8946 -0.1642
 2868SOL    MW411527   3.634   3.133   4.490  0.6137 -0.3772 -0.4468
 2869SOL     OW11528   4.072   0.873   4.546  0.2335  0.3148 -0.0391
 2869SOL    HW211529   4.071   0.784   4.580 -0.8097  0.1733 -0.4012
 2869SOL    HW311530   4.055   0.863   4.452  0.0898  0.8836 -0.0756
 2869SOL    MW411531   4.069   0.860   4.538  0.0768  0.3712 -0.0920
 2870SOL     OW11532   4.029   1.670   4.249 -0.6198 -0.4547 -0.8807
 2870SOL    HW211533   4.105   1.624   4.213 -0.5069  0.4378 -1.8033
 2870SOL    HW311534   4.042   1.667   4.344  0.7386 -0.0482 -1.0407
 2870SOL    MW411535   4.041   1.664   4.257 -0.4263 -0.2831 -1.0233
 2871SOL     OW11536   3.636   1.630   4.587  0.0814  0.6557 -0.2432
 2871SOL    HW211537   3.668   1.541   4.597 -1.0418  0.4306  1.3962
 2871SOL    HW311538   3.550   1.630   4.628  0.1077  2.5211 -0.1420
 2871SOL    MW411539   3.629   1.618   4.593 -0.0637  0.8721 -0.0134
 2872SOL     OW11540   3.908   2.298   4.635  0.4323 -0.0135 -0.0113
 2872SOL    HW211541   3.843   2.346   4.686 -0.3543 -0.0852 -0.9272
 2872SOL    HW311542   3.977   2.362   4.618  0.2281  0.2881  0.2956
 2872SOL    MW411543   3.909   2.313   4.639  0.3014  0.0167 -0.0916
 2873SOL     OW11544   0.424   0.681   4.624  0.1682  0.0869 -0.1344
 2873SOL    HW211545   0.364   0.618   4.584 -0.6375  0.2219  0.8378
 2873SOL    HW311546   0.510   0.639   4.619 -0.4209 -1.2616  0.8604
 2873SOL    MW411547   0.428   0.668   4.618 -0.0158 -0.0732  0.1249
 2874SOL     OW11548   4.278   3.556   4.499  0.4044  0.3824 -0.0386
 2874SOL    HW211549   4.289   3.561   4.404 -2.1164 -0.2785 -0.4026
 2874SOL    HW311550   4.237   3.471   4.513  0.7859  0.4650  1.6694
 2874SOL    MW411551   4.274   3.545   4.488  0.1221  0.3059  0.1383
 2875SOL     OW11552   2.756   0.035   4.548  0.1403  0.4093  0.1063
 2875SOL    HW211553   2.695  -0.036   4.570  1.7950 -1.1544 -0.2791
 2875SOL    HW311554   2.733   0.060   4.459  0.1736 -0.3111 -0.1095
 2875SOL    MW411555   2.745   0.029   4.539  0.3629  0.1079  0.0272
 2876SOL     OW11556   4.470   1.145   4.417  0.3788  0.3139  0.4135
 2876SOL    HW211557   4.402   1.191   4.367  0.1381  1.2501  1.5798
 2876SOL    HW311558   4.483   1.062   4.369  1.0010  1.6761 -1.8566
 2876SOL    MW411559   4.463   1.140   4.404  0.4287  0.6170  0.2680
 2877SOL     OW11560   4.286   0.395   4.619 -0.1956 -0.6336  0.6164
 2877SOL    HW211561   4.327   0.463   4.566 -1.2475 -0.9824 -0.6555
 2877SOL    HW311562   4.353   0.328   4.629  1.1309  0.9047  2.5562
 2877SOL    MW411563   4.300   0.395   4.613 -0.1593 -0.4767  0.7048
 2878SOL     OW11564   3.599   4.000   4.277  0.1398 -0.2800 -0.1487
 2878SOL    HW211565   3.515   3.969   4.243 -0.0824 -0.4820  0.5722
 2878SOL    HW311566   3.589   3.995   4.373  1.5024 -1.7827 -0.0589
 2878SOL    MW411567   3.586   3.995   4.285  0.2904 -0.5047 -0.0415
 2879SOL     OW11568   2.907   4.423   4.197  0.0850 -0.6512  0.3468
 2879SOL    HW211569   2.911   4.436   4.291  0.5141 -1.0724  0.3890
 2879SOL    HW311570   2.993   4.388   4.174  0.1258 -0.1618 -0.2600
 2879SOL    MW411571   2.919   4.420   4.206  0.1471 -0.6423  0.2718
 2880SOL     OW11572   3.275   1.853   4.653 -0.2323 -0.4733 -0.1355
 2880SOL    HW211573   3.202   1.826   4.598  0.5824  0.6363 -1.8178
 2880SOL    HW311574   3.330   1.907   4.595 -0.5486  2.7092  2.3911
 2880SOL    MW411575   3.273   1.857   4.638 -0.1667  0.0930 -0.0238
 2881SOL     OW11576   3.159   4.286   4.133  0.1024  0.1051  0.1793
 2881SOL    HW211577   3.136   4.205   4.177 -1.9576  0.5149 -0.1000
 2881SOL    HW311578   3.240   4.315   4.175 -1.4544  0.1521  3.2180
 2881SOL    MW411579   3.167   4.279   4.144 -0.3748  0.1655  0.5441
 2882SOL     OW11580   4.267   4.424   4.254  0.0249  0.5928 -0.1201
 2882SOL    HW211581   4.352   4.387   4.231 -1.1414 -1.0216 -1.9942
 2882SOL    HW311582   4.264   4.421   4.349  0.7914 -2.2980 -0.1617
 2882SOL    MW411583   4.278   4.419   4.263 -0.0281 -0.0019 -0.3719
 2883NA      NA11584   2.762   3.232   0.486 -0.1672 -0.0297 -0.2205
   4.49070   4.66690  10.00000
