Gromacs Runs On Most of All Computer Systems in water
11584
    1RU5    O5'    1   2.576   2.734   4.623 -0.0079  0.2299  0.3675
    1RU5    H5T    2   2.664   2.724   4.587  0.0287 -0.0306  0.5332
    1RU5    C5'    3   2.566   2.728   4.772 -0.5978  0.3028  0.1406
    1RU5   H5'1    4   2.471   2.775   4.797 -1.5682 -1.8608  0.6712
    1RU5   H5'2    5   2.643   2.780   4.829 -0.7374 -0.1186  0.7216
    1RU5    C4'    6   2.549   2.584   4.826  0.4420 -0.3223 -0.2530
    1RU5    H4'    7   2.563   2.581   4.934  1.3054  0.5437 -0.3303
    1RU5    O4'    8   2.415   2.539   4.800  0.1037  0.5325 -0.0606
    1RU5    C1'    9   2.405   2.396   4.823  0.1640 -0.3541 -0.0684
    1RU5    H1'   10   2.373   2.382   4.926 -1.7635 -0.2461 -0.6251
    1RU5     N1   11   2.316   2.320   4.736  0.0361  0.1493  0.0163
    1RU5     C6   12   2.341   2.288   4.603  0.0219 -0.7347  0.6378
    1RU5     H6   13   2.433   2.321   4.559 -0.3807  0.7891  0.9008
    1RU5     C5   14   2.255   2.218   4.531  0.2527  0.3465  0.7341
    1RU5     H5   15   2.284   2.192   4.431  0.5917 -1.0036  1.1738
    1RU5     C4   16   2.124   2.185   4.583 -0.1081 -0.1745 -0.0399
    1RU5     O4   17   2.030   2.128   4.520  0.4739 -0.2968 -0.1092
    1RU5     N3   18   2.101   2.224   4.709 -0.3314  0.4640  0.0452
    1RU5     H3   19   2.005   2.213   4.739  0.0121  0.5872  1.2101
    1RU5     C2   20   2.185   2.302   4.786 -0.6489 -0.0985  0.1916
    1RU5     O2   21   2.144   2.364   4.888  0.2153  0.1651 -0.3994
    1RU5    C3'   22   2.634   2.474   4.771  0.4701  0.0858  0.0238
    1RU5    H3'   23   2.627   2.476   4.662  0.7884 -1.1245 -0.0355
    1RU5    C2'   24   2.552   2.354   4.820  0.8476 -0.1896 -0.6938
    1RU5   H2'1   25   2.571   2.278   4.744  1.5195 -1.3050  0.5781
    1RU5    O2'   26   2.584   2.311   4.951  0.5632  0.1382  0.4991
    1RU5   HO'2   27   2.679   2.305   4.949  0.4863 -1.1021  0.1310
    1RU5    O3'   28   2.766   2.476   4.824 -0.2024  0.3249  0.0937
    2RG3      P   29   2.886   2.406   4.753 -0.3781  0.1846 -0.0699
    2RG3    O1P   30   3.008   2.455   4.812 -0.5605 -0.2057 -0.6451
    2RG3    O2P   31   2.868   2.419   4.606  0.1368  0.3187 -0.2928
    2RG3    O5'   32   2.870   2.253   4.792 -0.7782 -0.1303 -0.5471
    2RG3    C5'   33   2.937   2.202   4.910 -0.2755 -0.3313 -0.5439
    2RG3   H5'1   34   2.909   2.247   5.005 -0.8312 -1.2505 -0.2712
    2RG3   H5'2   35   3.044   2.215   4.897 -0.2320  0.3471  0.4632
    2RG3    C4'   36   2.911   2.047   4.922  0.1591  0.1672  0.2215
    2RG3    H4'   37   2.974   2.008   5.001  2.4228 -0.0140 -1.6056
    2RG3    O4'   38   2.774   2.017   4.957  0.5372  0.0535 -0.1355
    2RG3    C1'   39   2.740   1.887   4.907  0.0456 -0.1027 -0.7285
    2RG3    H1'   40   2.725   1.814   4.987 -0.2539 -2.2776 -2.7353
    2RG3     N9   41   2.618   1.901   4.821  0.7442  0.0225  0.1412
    2RG3     C8   42   2.594   2.007   4.740 -0.1867 -0.0846  0.1835
    2RG3     H8   43   2.664   2.087   4.723  0.3154 -0.6862 -0.6475
    2RG3     N7   44   2.466   2.008   4.694  0.2233 -0.4123  0.2626
    2RG3     C5   45   2.415   1.881   4.743  0.0777  0.1602  0.4084
    2RG3     C6   46   2.290   1.816   4.727 -0.1216 -0.5567  0.4572
    2RG3     O6   47   2.182   1.859   4.679 -0.3171  0.0265 -0.8170
    2RG3     N1   48   2.287   1.691   4.790 -0.5317 -0.3082  0.3113
    2RG3     H1   49   2.201   1.641   4.776 -0.9699  0.4971  0.0789
    2RG3     C2   50   2.391   1.634   4.848 -0.2213 -0.6172  0.4747
    2RG3     N2   51   2.375   1.517   4.902  0.4109  0.0863  0.3331
    2RG3    H21   52   2.288   1.466   4.907  0.3872  0.2804  2.4813
    2RG3    H22   53   2.460   1.468   4.926 -0.0555 -1.7656 -1.5974
    2RG3     N3   54   2.510   1.688   4.860  0.0674  0.1894  0.1029
    2RG3     C4   55   2.514   1.813   4.812 -0.1999 -0.1224 -0.2188
    2RG3    C3'   56   2.945   1.960   4.797 -0.6318 -0.5112  0.2903
    2RG3    H3'   57   2.920   2.018   4.709 -1.1893  0.4909  1.1007
    2RG3    C2'   58   2.855   1.841   4.818 -0.2314  0.1668 -0.1680
    2RG3   H2'1   59   2.810   1.802   4.727  0.2076 -1.5534  0.3363
    2RG3    O2'   60   2.915   1.737   4.895 -0.1395 -0.4454 -0.0666
    2RG3   HO'2   61   3.006   1.747   4.866  0.3237 -2.7525  0.5130
    2RG3    O3'   62   3.083   1.911   4.797  0.4989 -0.2448 -0.2307
    2RG3    H3T   63   3.141   1.982   4.769  0.8010  0.0847  1.1617
    5SOL     OW   64   0.356   0.273   0.536 -0.1017  0.2791 -0.0536
    5SOL    HW2   65   0.427   0.284   0.474  0.0882  1.9634  0.4452
    5SOL    HW3   66   0.308   0.356   0.534 -1.5361 -0.5192  0.2496
    5SOL    MW4   67   0.359   0.285   0.528 -0.2659  0.3960  0.0522
    6SOL     OW   68   3.983   0.112   0.559 -0.4556  0.4045  0.0764
    6SOL    HW2   69   4.056   0.056   0.531 -0.5777 -0.7573  2.0312
    6SOL    HW3   70   4.001   0.197   0.517  1.5367 -0.1205 -0.1961
    6SOL    MW4   71   3.995   0.116   0.550 -0.2086  0.1820  0.2983
    7SOL     OW   72   4.100   0.148   0.244 -0.1795  0.2038  0.2376
    7SOL    HW2   73   4.140   0.088   0.306  0.6486 -0.2285 -0.7085
    7SOL    HW3   74   4.046   0.093   0.188 -0.8637  0.5827  0.5132
    7SOL    MW4   75   4.098   0.133   0.245 -0.1607  0.1968  0.1491
    8SOL     OW   76   0.033   1.644   0.507 -0.4159  0.2319  0.3738
    8SOL    HW2   77   0.056   1.675   0.594 -1.7405  0.3091  0.7069
    8SOL    HW3   78   0.085   1.564   0.495  0.1183  0.4794  1.0436
    8SOL    MW4   79   0.043   1.637   0.517 -0.5202  0.2747  0.5062
    9SOL     OW   80   1.236   0.945   0.304  0.2583  0.2705 -0.2465
    9SOL    HW2   81   1.240   0.922   0.211  0.5943  1.1464 -0.4506
    9SOL    HW3   82   1.197   0.868   0.346  0.8254 -0.4311 -0.9994
    9SOL    MW4   83   1.231   0.932   0.297  0.3775  0.2934 -0.3727
   10SOL     OW   84   0.228   0.518   0.545  0.2741  0.0608 -0.4651
   10SOL    HW2   85   0.222   0.535   0.639  0.6399  0.6052 -0.5367
   10SOL    HW3   86   0.140   0.536   0.511  0.5192  1.3812 -0.4587
   10SOL    MW4   87   0.215   0.523   0.553  0.3547  0.3068 -0.4736
   11SOL     OW   88   0.366   0.946   0.489  0.5007 -0.0754  0.5196
   11SOL    HW2   89   0.395   0.924   0.577  0.5935  0.1956  0.5553
   11SOL    HW3   90   0.352   0.861   0.447  1.1686 -0.2043  0.5588
   11SOL    MW4   91   0.368   0.932   0.495  0.6011 -0.0566  0.5295
   12SOL     OW   92   0.816   0.811   0.472  0.4623  0.0780  0.1416
   12SOL    HW2   93   0.844   0.844   0.558 -0.7392 -0.3766  0.7205
   12SOL    HW3   94   0.769   0.884   0.432 -1.0021 -0.4518  0.8527
   12SOL    MW4   95   0.814   0.825   0.478  0.1106 -0.0519  0.3119
   13SOL     OW   96   0.637   1.006   0.374 -0.0189 -0.4954  0.5219
   13SOL    HW2   97   0.637   1.037   0.284  0.8113 -0.3218  0.5764
   13SOL    HW3   98   0.545   0.986   0.393 -0.2539 -0.1299 -0.2213
   13SOL    MW4   99   0.625   1.008   0.365  0.0597 -0.4244  0.4310
   14SOL     OW  100   3.957   1.791   0.195 -0.2852  0.2853 -0.2075
   14SOL    HW2  101   3.919   1.813   0.110  1.7180  1.3291 -0.8566
   14SOL    HW3  102   4.049   1.773   0.177 -0.2549 -1.3799  1.4674
   14SOL    MW4  103   3.964   1.791   0.181 -0.0169  0.2034 -0.0722
   15SOL     OW  104   4.029   1.743   0.559  0.1613  0.2500  0.1209
   15SOL    HW2  105   3.959   1.703   0.507  0.9701  0.1018 -0.8692
   15SOL    HW3  106   4.054   1.821   0.510  1.4058 -0.2664 -0.0986
   15SOL    MW4  107   4.023   1.748   0.545  0.4320  0.1622 -0.0387
   16SOL     OW  108   0.067   1.897   0.343  0.4891 -0.3808  0.1376
   16SOL    HW2  109   0.056   1.816   0.393 -0.0902 -1.5600 -1.8502
   16SOL    HW3  110  -0.019   1.939   0.345  0.4744 -0.4121  0.1551
   16SOL    MW4  111   0.055   1.892   0.350  0.4107 -0.5405 -0.1223
   17SOL     OW  112   0.279   2.638   0.399  0.0429 -0.1218  0.1664
   17SOL    HW2  113   0.255   2.549   0.427 -0.2462  0.7529  2.8919
   17SOL    HW3  114   0.367   2.652   0.435 -0.3267  1.0339  0.6609
   17SOL    MW4  115   0.287   2.628   0.408 -0.0440  0.1462  0.5912
   18SOL     OW  116   4.192   2.897   0.543  0.1520  0.5555 -0.2438
   18SOL    HW2  117   4.240   2.842   0.481  0.3837  1.6127 -1.0300
   18SOL    HW3  118   4.186   2.982   0.499 -0.2109  1.1509  0.9386
   18SOL    MW4  119   4.198   2.901   0.529  0.1354  0.7734 -0.1915
   19SOL     OW  120   4.286   3.555   0.560  0.4807  0.2532 -0.3332
   19SOL    HW2  121   4.263   3.604   0.482  0.3836 -0.4312 -0.7312
   19SOL    HW3  122   4.224   3.482   0.563  0.1585  0.5607  0.6544
   19SOL    MW4  123   4.275   3.552   0.550  0.4253  0.2034 -0.2554
   20SOL     OW  124   0.229   3.061   0.363 -0.3018  0.3864  0.1522
   20SOL    HW2  125   0.296   3.111   0.408 -0.1441 -0.5567  0.9730
   20SOL    HW3  126   0.269   3.035   0.280 -0.1459  1.0031  0.0313
   20SOL    MW4  127   0.243   3.065   0.358 -0.2604  0.3433  0.2445
   21SOL     OW  128   0.824   3.578   0.447 -0.2017  0.3854 -0.4065
   21SOL    HW2  129   0.819   3.647   0.381 -0.4262  0.0446 -0.7518
   21SOL    HW3  130   0.735   3.571   0.481 -0.4426 -0.5006 -1.1771
   21SOL    MW4  131   0.812   3.586   0.443 -0.2631  0.2239 -0.5537
   22SOL     OW  132   0.511   3.855   0.351  0.3248  0.1032 -0.0956
   22SOL    HW2  133   0.541   3.937   0.391  1.3147 -0.8670  1.2154
   22SOL    HW3  134   0.588   3.824   0.302 -0.5275  0.7103 -1.8716
   22SOL    MW4  135   0.525   3.862   0.349  0.3430  0.0553 -0.1569
   23SOL     OW  136   3.718   3.358   0.329  0.5430 -0.2810  0.2749
   23SOL    HW2  137   3.765   3.429   0.373 -0.0464 -1.0632  2.2172
   23SOL    HW3  138   3.786   3.297   0.303  0.9747  0.5831 -0.6401
   23SOL    MW4  139   3.733   3.360   0.331  0.5224 -0.2699  0.4104
   24SOL     OW  140   4.194   3.947   0.373  0.3098 -0.1909  0.0040
   24SOL    HW2  141   4.125   3.967   0.437 -0.9990  1.0400 -1.7181
   24SOL    HW3  142   4.257   4.019   0.383 -0.5686  0.7451 -0.9602
   24SOL    MW4  143   4.193   3.959   0.382  0.0215  0.0949 -0.3504
   25SOL     OW  144   0.192   0.132   0.355 -0.2305 -0.1056  0.0464
   25SOL    HW2  145   0.245   0.192   0.406  3.1118 -1.2310 -1.9861
   25SOL    HW3  146   0.214   0.045   0.388 -0.8193 -0.5953 -0.8054
   25SOL    MW4  147   0.202   0.128   0.366  0.1328 -0.3187 -0.3342
   26SOL     OW  148   0.300   4.562   0.418  0.0385  0.0217 -0.0138
   26SOL    HW2  149   0.393   4.580   0.410 -0.0298 -0.0122 -0.9428
   26SOL    HW3  150   0.295   4.471   0.448  0.3162  0.3134  0.9223
   26SOL    MW4  151   0.311   4.553   0.421  0.0661  0.0563 -0.0128
   27SOL     OW  152   0.296   4.298   0.512  0.5001 -0.2067  0.0425
   27SOL    HW2  153   0.226   4.233   0.520  0.3225  0.0502  0.6016
   27SOL    HW3  154   0.374   4.247   0.488 -0.4696 -0.1875 -3.5399
   27SOL    MW4  155   0.297   4.283   0.510  0.3487 -0.1702 -0.3563
   28SOL     OW  156   0.276   3.570   0.549 -0.3123 -0.7055  0.2904
   28SOL    HW2  157   0.370   3.562   0.529 -0.7111 -0.6924 -1.7432
   28SOL    HW3  158   0.249   3.648   0.501 -1.1850 -0.2002  1.5965
   28SOL    MW4  159   0.285   3.579   0.540 -0.4800 -0.6373  0.1944
   29SOL     OW  160   0.737   0.115   0.310 -0.3214  0.2073  0.2842
   29SOL    HW2  161   0.785   0.132   0.229  0.5849 -0.7328  0.6048
   29SOL    HW3  162   0.804   0.085   0.371 -1.0998  0.2960  1.1925
   29SOL    MW4  163   0.752   0.113   0.307 -0.3045  0.0949  0.4463
   30SOL     OW  164   0.124   0.633   0.204 -0.0383  0.5531 -0.1246
   30SOL    HW2  165   0.067   0.652   0.129  0.1226  0.9446 -0.1474
   30SOL    HW3  166   0.166   0.550   0.181  0.5687  1.0409 -0.8050
   30SOL    MW4  167   0.122   0.624   0.191  0.0630  0.6691 -0.2174
   31SOL     OW  168   4.474   0.573   0.434  0.1039  0.3595  0.0595
   31SOL    HW2  169   4.527   0.585   0.356  1.8468  0.4857  1.2341
   31SOL    HW3  170   4.442   0.661   0.455 -1.3458  0.1384 -1.1711
   31SOL    MW4  171   4.477   0.587   0.427  0.1426  0.3469  0.0521
   32SOL     OW  172   1.050   4.438   0.514 -0.0371 -0.6430 -0.4153
   32SOL    HW2  173   0.989   4.366   0.498  0.0923 -1.0669  0.9393
   32SOL    HW3  174   1.081   4.424   0.603 -0.8814  1.7454  0.2963
   32SOL    MW4  175   1.046   4.427   0.524 -0.1314 -0.3834 -0.1427
   33SOL     OW  176   1.075   0.714   0.337 -0.4056 -0.2319 -0.0073
   33SOL    HW2  177   0.987   0.734   0.369 -0.3069  0.0327  0.1026
   33SOL    HW3  178   1.097   0.629   0.377 -0.6974 -0.4029 -0.2117
   33SOL    MW4  179   1.066   0.705   0.347 -0.4312 -0.2196 -0.0198
   34SOL     OW  180   0.266   0.380   0.180 -0.9374  0.1477 -0.0320
   34SOL    HW2  181   0.230   0.294   0.201  0.8664 -0.2955  1.3526
   34SOL    HW3  182   0.358   0.374   0.205 -0.0336  1.4843 -2.8037
   34SOL    MW4  183   0.273   0.368   0.186 -0.5802  0.2656 -0.2150
   35SOL     OW  184   0.111   1.136   0.481 -0.4659  0.1951 -0.2540
   35SOL    HW2  185   0.027   1.093   0.468  0.7276 -2.0591 -0.8422
   35SOL    HW3  186   0.176   1.069   0.458  1.4878  1.8135  0.3810
   35SOL    MW4  187   0.109   1.122   0.476 -0.0507  0.1111 -0.2478
   36SOL     OW  188   0.489   1.702   0.481  0.2973  0.2142 -0.1445
   36SOL    HW2  189   0.576   1.720   0.446  1.2780 -0.8200  1.6814
   36SOL    HW3  190   0.467   1.616   0.447  0.3606  0.1100  0.0754
   36SOL    MW4  191   0.498   1.693   0.472  0.4350  0.0640  0.1254
   37SOL     OW  192   0.466   1.454   0.370 -0.2405 -0.3512 -0.0412
   37SOL    HW2  193   0.515   1.379   0.403  0.3519 -0.4276 -1.0933
   37SOL    HW3  194   0.377   1.421   0.359 -0.3063 -0.4943  0.8772
   37SOL    MW4  195   0.460   1.440   0.373 -0.1711 -0.3800 -0.0588
   38SOL     OW  196   0.205   2.383   0.508  0.0677 -0.1664  0.1633
   38SOL    HW2  197   0.215   2.379   0.603  3.4744  1.8414 -0.0330
   38SOL    HW3  198   0.267   2.319   0.474  0.3044  0.5204 -0.7310
   38SOL    MW4  199   0.214   2.374   0.516  0.5484  0.1891  0.0194
   39SOL     OW  200   4.351   2.748   0.388  0.0307  0.0389  0.1170
   39SOL    HW2  201   4.331   2.771   0.297  0.9515  0.5762  0.0482
   39SOL    HW3  202   4.438   2.784   0.404  0.4679 -1.2654  0.7839
   39SOL    MW4  203   4.360   2.756   0.378  0.2098 -0.0620  0.1959
   40SOL     OW  204   3.625   2.671   0.203 -0.1624 -0.5953  0.3752
   40SOL    HW2  205   3.703   2.660   0.257  0.3195 -0.9741 -0.3785
   40SOL    HW3  206   3.638   2.755   0.160 -0.6082 -0.2320  0.9564
   40SOL    MW4  207   3.637   2.680   0.204 -0.1576 -0.5972  0.3524
   41SOL     OW  208   0.732   2.497   0.497  0.2609  0.4378  0.5037
   41SOL    HW2  209   0.738   2.460   0.586  1.1732 -1.1457 -0.1955
   41SOL    HW3  210   0.812   2.549   0.488 -0.0840  1.0328  0.7733
   41SOL    MW4  211   0.744   2.499   0.508  0.3358  0.3073  0.4470
   42SOL     OW  212   0.513   2.668   0.530  0.3986 -0.1404 -0.4198
   42SOL    HW2  213   0.588   2.615   0.503  1.2234  0.1768  1.1710
   42SOL    HW3  214   0.545   2.758   0.526  0.3227 -0.0448  0.8730
   42SOL    MW4  215   0.527   2.673   0.526  0.4973 -0.0858 -0.0393
   43SOL     OW  216   4.183   3.147   0.396  0.2977 -0.1470  0.2126
   43SOL    HW2  217   4.154   3.214   0.458  1.3733  2.3392 -1.8964
   43SOL    HW3  218   4.275   3.166   0.380  0.6133 -2.1038 -0.4788
   43SOL    MW4  219   4.191   3.158   0.402  0.4816 -0.0770 -0.1569
   44SOL     OW  220   0.109   2.844   0.492 -0.2948 -0.1741 -0.0702
   44SOL    HW2  221   0.149   2.922   0.455 -1.1882 -0.0969 -0.9208
   44SOL    HW3  222   0.162   2.772   0.459  0.8543  0.0969  1.1545
   44SOL    MW4  223   0.121   2.845   0.483 -0.2611 -0.1280 -0.0208
   45SOL     OW  224   0.564   4.550   0.309 -0.0876 -0.5473 -0.3332
   45SOL    HW2  225   0.556   4.499   0.228 -0.2879 -0.6814 -0.2291
   45SOL    HW3  226   0.608   4.630   0.282 -1.2269 -0.0680 -0.8122
   45SOL    MW4  227   0.569   4.554   0.294 -0.2643 -0.5021 -0.3827
   46SOL     OW  228   4.447   3.238   0.339 -0.3337  0.2071 -0.1117
   46SOL    HW2  229   4.473   3.267   0.427 -0.3767  0.3875 -0.1581
   46SOL    HW3  230   4.521   3.185   0.309  0.9909  2.5465 -1.1402
   46SOL    MW4  231   4.461   3.235   0.347 -0.1645  0.5398 -0.2535
   47SOL     OW  232   0.555   3.596   0.515 -0.0182 -0.2824  0.0380
   47SOL    HW2  233   0.535   3.682   0.478  0.7634  0.5737  1.5453
   47SOL    HW3  234   0.585   3.615   0.604 -1.2541 -2.2307  0.8996
   47SOL    MW4  235   0.556   3.610   0.522 -0.0781 -0.4268  0.3505
   48SOL     OW  236   0.796   3.804   0.268 -0.2236 -0.4186  0.1941
   48SOL    HW2  237   0.817   3.800   0.175  1.4717 -1.7957  0.6163
   48SOL    HW3  238   0.859   3.867   0.304 -1.4290  0.7644  0.2871
   48SOL    MW4  239   0.807   3.812   0.261 -0.1590 -0.4442  0.2621
   49SOL     OW  240   4.175   3.685   0.318  0.4470 -0.0980 -0.1896
   49SOL    HW2  241   4.190   3.772   0.356 -0.7905  0.6211 -1.3132
   49SOL    HW3  242   4.233   3.681   0.242  0.4912 -0.2488 -0.1485
   49SOL    MW4  243   4.185   3.696   0.313  0.2899 -0.0231 -0.3324
   50SOL     OW  244   0.026   3.383   0.582  0.3644  0.0902 -0.1223
   50SOL    HW2  245   0.100   3.440   0.560 -0.0665  0.3817 -0.8426
   50SOL    HW3  246  -0.049   3.442   0.586  0.1376 -0.2304  0.4327
   50SOL    MW4  247   0.026   3.398   0.579  0.2776  0.0865 -0.1442
   51SOL     OW  248   0.667   4.380   0.510  0.1580 -0.6226  0.0021
   51SOL    HW2  249   0.616   4.452   0.471  0.9390  0.3348  0.7344
   51SOL    HW3  250   0.658   4.392   0.604  0.7740 -1.1341  0.1291
   51SOL    MW4  251   0.659   4.391   0.517  0.3424 -0.5631  0.1155
   52SOL     OW  252   0.542   0.324   0.333 -0.1951 -0.2974  0.1664
   52SOL    HW2  253   0.610   0.257   0.332 -1.3439 -1.5008  1.0038
   52SOL    HW3  254   0.589   0.407   0.342  1.2267 -1.0003 -0.7487
   52SOL    MW4  255   0.557   0.326   0.334 -0.1591 -0.5490  0.1561
   53SOL     OW  256   0.636   0.583   0.438  0.3387 -0.0643 -0.1775
   53SOL    HW2  257   0.702   0.652   0.441  0.8391 -0.5864  0.7641
   53SOL    HW3  258   0.557   0.628   0.407  0.4906  1.0742  1.0574
   53SOL    MW4  259   0.634   0.598   0.434  0.4247  0.0170  0.1096
   54SOL     OW  260   0.363   0.690   0.365 -0.1271 -0.0557  0.0435
   54SOL    HW2  261   0.323   0.627   0.425  0.4792 -0.4087  0.0792
   54SOL    HW3  262   0.318   0.676   0.282 -0.8638  0.3285  0.3805
   54SOL    MW4  263   0.352   0.680   0.362 -0.1443 -0.0516  0.0927
   55SOL     OW  264   1.457   0.564   0.436  0.0323  0.0807  0.4016
   55SOL    HW2  265   1.476   0.658   0.436  2.0229 -0.2632 -1.4958
   55SOL    HW3  266   1.477   0.536   0.525  0.6231  1.2502  0.6559
   55SOL    MW4  267   1.462   0.573   0.448  0.3729  0.1896  0.1848
   56SOL     OW  268   1.887   0.765   0.357 -0.4699  0.1521 -0.2249
   56SOL    HW2  269   1.839   0.835   0.400  0.4291  0.3603  0.4490
   56SOL    HW3  270   1.823   0.695   0.346 -1.6715  1.4970 -1.9402
   56SOL    MW4  271   1.872   0.765   0.361 -0.5099  0.3570 -0.3623
   57SOL     OW  272   1.494   0.863   0.453  0.0536 -0.2147  0.4020
   57SOL    HW2  273   1.440   0.901   0.383 -0.6199 -0.2720  0.8913
   57SOL    HW3  274   1.447   0.883   0.534  0.7008 -0.3788  0.8221
   57SOL    MW4  275   1.480   0.870   0.454  0.0502 -0.2440  0.5220
   58SOL     OW  276   0.765   1.772   0.404 -0.2966 -0.5427  0.0700
   58SOL    HW2  277   0.773   1.866   0.391 -0.0669 -0.8319 -1.9583
   58SOL    HW3  278   0.790   1.758   0.496  0.7951  1.2151  0.0470
   58SOL    MW4  279   0.769   1.783   0.415 -0.1222 -0.3489 -0.2006
   59SOL     OW  280   0.855   1.422   0.386 -0.3487 -0.1904 -0.0060
   59SOL    HW2  281   0.838   1.512   0.356 -2.1019 -0.2056  0.9124
   59SOL    HW3  282   0.941   1.428   0.428 -0.8185  1.2721  0.8176
   59SOL    MW4  283   0.864   1.435   0.388 -0.6419  0.0004  0.2238
   60SOL     OW  284   1.733   1.291   0.437 -0.3111  0.4794 -0.1784
   60SOL    HW2  285   1.756   1.384   0.433  0.9119  0.2032  0.2990
   60SOL    HW3  286   1.813   1.246   0.408 -0.4615 -0.4713  0.9013
   60SOL    MW4  287   1.747   1.298   0.432 -0.1696  0.3176  0.0270
   61SOL     OW  288   1.117   1.401   0.499  0.0744  0.0877 -0.2072
   61SOL    HW2  289   1.153   1.313   0.505  0.1851  0.2166  1.3100
   61SOL    HW3  290   1.194   1.458   0.489  0.0041  0.0192 -1.1700
   61SOL    MW4  291   1.132   1.397   0.499  0.0799  0.0957 -0.1341
   62SOL     OW  292   0.641   1.260   0.483 -0.2299  0.4260  0.3218
   62SOL    HW2  293   0.659   1.173   0.449 -1.5966  0.4981 -0.6562
   62SOL    HW3  294   0.711   1.315   0.449 -0.8333  0.2219 -1.3038
   62SOL    MW4  295   0.652   1.256   0.474 -0.4898  0.4085 -0.0217
   63SOL     OW  296   0.341   1.947   0.435  0.1936  0.3058  0.0531
   63SOL    HW2  297   0.255   1.943   0.393 -0.3400  1.5565  1.0164
   63SOL    HW3  298   0.368   1.855   0.442 -1.4752 -0.1690  0.5720
   63SOL    MW4  299   0.333   1.934   0.431 -0.0969  0.4082  0.2487
   64SOL     OW  300   0.826   2.053   0.363 -0.2942 -0.0266  0.0354
   64SOL    HW2  301   0.913   2.058   0.405  0.1465 -1.9626 -0.5765
   64SOL    HW3  302   0.845   2.036   0.271 -1.3220  1.5510 -0.4910
   64SOL    MW4  303   0.840   2.051   0.357 -0.3718 -0.0739 -0.1148
   65SOL     OW  304   0.996   2.588   0.549 -0.2227  0.1068  0.3126
   65SOL    HW2  305   1.031   2.504   0.519  0.0295 -0.0766  1.0889
   65SOL    HW3  306   0.957   2.568   0.635 -1.3231  0.5204 -0.0789
   65SOL    MW4  307   0.995   2.574   0.556 -0.3346  0.1373  0.3635
   66SOL     OW  308   0.666   2.221   0.525  0.2884 -0.6373  0.2956
   66SOL    HW2  309   0.709   2.300   0.493 -1.5637  0.2843 -0.0294
   66SOL    HW3  310   0.706   2.149   0.475  0.7007  0.2978 -0.7295
   66SOL    MW4  311   0.677   2.222   0.514  0.0985 -0.3922  0.1174
   67SOL     OW  312   1.087   2.856   0.535 -0.2169  0.5325  0.1680
   67SOL    HW2  313   1.063   2.764   0.542 -0.0020  0.4546 -0.1339
   67SOL    HW3  314   1.007   2.899   0.507  0.1441  0.1874 -1.4221
   67SOL    MW4  315   1.073   2.850   0.532 -0.1409  0.4768 -0.0817
   68SOL     OW  316   0.396   2.196   0.503 -0.3508  0.1222  0.6690
   68SOL    HW2  317   0.390   2.105   0.471 -1.5258  0.9083 -1.4108
   68SOL    HW3  318   0.490   2.215   0.499 -0.2412 -0.5358 -0.2583
   68SOL    MW4  319   0.408   2.186   0.498 -0.4913  0.1392  0.2722
   69SOL     OW  320   0.591   2.939   0.572 -0.5203 -0.1987  0.3933
   69SOL    HW2  321   0.599   2.930   0.667 -1.8459  0.4412  0.5685
   69SOL    HW3  322   0.534   3.014   0.559 -0.2669 -0.2100 -0.9245
   69SOL    MW4  323   0.585   2.948   0.583 -0.6618 -0.1159  0.2426
   70SOL     OW  324   0.894   3.303   0.504 -0.1598 -0.3943 -0.1294
   70SOL    HW2  325   0.885   3.286   0.598  0.0650 -0.0795 -0.0519
   70SOL    HW3  326   0.887   3.398   0.496  0.1388 -0.3927 -0.3952
   70SOL    MW4  327   0.892   3.313   0.515 -0.0908 -0.3526 -0.1542
   71SOL     OW  328   1.355   3.763   0.491 -0.1840 -0.7013  0.2155
   71SOL    HW2  329   1.279   3.704   0.497 -0.6278 -0.2604 -0.9459
   71SOL    HW3  330   1.428   3.705   0.470 -0.8404 -0.7172 -2.1475
   71SOL    MW4  331   1.354   3.747   0.489 -0.3294 -0.6454 -0.2495
   72SOL     OW  332   1.000   4.007   0.311  0.6507 -0.3164  0.9725
   72SOL    HW2  333   1.046   4.031   0.231 -1.5343  0.8596  0.0313
   72SOL    HW3  334   0.961   4.089   0.342 -0.9838 -1.3163  1.6200
   72SOL    MW4  335   1.001   4.021   0.305  0.1467 -0.2937  0.9337
   73SOL     OW  336   0.518   4.140   0.461 -0.3476 -0.4810 -0.1814
   73SOL    HW2  337   0.583   4.211   0.452  0.0430 -0.7887  0.1813
   73SOL    HW3  338   0.523   4.115   0.553 -1.5160 -0.0091  0.0247
   73SOL    MW4  339   0.527   4.146   0.472 -0.4503 -0.4597 -0.1063
   74SOL     OW  340   1.101   4.198   0.116 -0.3541 -0.1358  0.3331
   74SOL    HW2  341   1.124   4.237   0.032  0.8298  1.7781  1.4895
   74SOL    HW3  342   1.137   4.259   0.181 -2.5298 -0.7755  2.2255
   74SOL    MW4  343   1.108   4.211   0.114 -0.4849  0.0324  0.7354
   75SOL     OW  344   1.191   0.468   0.453  0.8399 -0.3256 -0.4449
   75SOL    HW2  345   1.207   0.374   0.444  1.9963 -0.1469 -0.3717
   75SOL    HW3  346   1.276   0.508   0.434  0.5954  0.6427  0.4887
   75SOL    MW4  347   1.204   0.461   0.449  0.9602 -0.1743 -0.3121
   76SOL     OW  348   0.947   0.036   0.505  0.4145  0.3345  0.2983
   76SOL    HW2  349   0.968  -0.057   0.501  1.1735  0.4659  1.0801
   76SOL    HW3  350   0.936   0.055   0.598 -2.1334  0.5145  0.0015
   76SOL    MW4  351   0.948   0.027   0.517  0.1785  0.3756  0.3623
   77SOL     OW  352   1.565   0.147   0.227 -0.3898  0.3290  0.1706
   77SOL    HW2  353   1.651   0.188   0.227 -0.3430  0.4086 -3.4254
   77SOL    HW3  354   1.508   0.211   0.184 -1.6866 -0.7476  0.2566
   77SOL    MW4  355   1.569   0.161   0.221 -0.5547  0.1974 -0.2925
   78SOL     OW  356   1.722   0.548   0.325 -0.0510 -0.0591  0.1499
   78SOL    HW2  357   1.754   0.459   0.308  0.1617  0.2653 -1.2035
   78SOL    HW3  358   1.634   0.536   0.360  0.3258 -0.8388  0.8426
   78SOL    MW4  359   1.715   0.534   0.328  0.0268 -0.1191  0.0627
   79SOL     OW  360   1.217   0.167   0.433 -0.0822  0.4872 -0.3263
   79SOL    HW2  361   1.128   0.134   0.427 -0.1201  0.4667  0.3192
   79SOL    HW3  362   1.271   0.098   0.396 -0.2472  0.0848  0.1757
   79SOL    MW4  363   1.213   0.154   0.428 -0.1090  0.4314 -0.1749
   80SOL     OW  364   2.056   0.656   0.161 -0.0535 -0.3997 -0.4922
   80SOL    HW2  365   2.140   0.674   0.204 -0.5361 -1.5970  0.9973
   80SOL    HW3  366   1.993   0.709   0.210 -0.4909 -1.1851 -0.1960
   80SOL    MW4  367   2.059   0.665   0.173 -0.1748 -0.6613 -0.2566
   81SOL     OW  368   2.284   0.763   0.345 -0.3742 -0.0147  0.7930
   81SOL    HW2  369   2.216   0.722   0.399 -0.4210 -2.2885 -0.9294
   81SOL    HW3  370   2.364   0.715   0.368 -0.0313  0.3007  0.2603
   81SOL    MW4  371   2.286   0.751   0.355 -0.3352 -0.2731  0.4954
   82SOL     OW  372   1.748   0.945   0.486 -0.2172 -0.0891  0.3500
   82SOL    HW2  373   1.754   0.981   0.574 -0.8227  0.5574  0.1296
   82SOL    HW3  374   1.656   0.920   0.476 -0.3607  0.7115 -0.4311
   82SOL    MW4  375   1.736   0.947   0.496 -0.3161  0.1017  0.2179
   83SOL     OW  376   1.280   1.138   0.506 -0.3969 -0.5933  0.1887
   83SOL    HW2  377   1.259   1.103   0.420  0.3119 -1.0400  0.1884
   83SOL    HW3  378   1.272   1.063   0.565 -2.2137  0.0080  0.7388
   83SOL    MW4  379   1.276   1.124   0.503 -0.5430 -0.5729  0.2612
   84SOL     OW  380   1.486   1.318   0.565 -0.0498 -0.1705  0.8131
   84SOL    HW2  381   1.436   1.243   0.535 -0.6792 -0.0171  1.4572
   84SOL    HW3  382   1.570   1.311   0.520 -0.5824 -0.5211 -0.1440
   84SOL    MW4  383   1.491   1.307   0.555 -0.2031 -0.1965  0.7718
   85SOL     OW  384   1.334   1.576   0.513 -0.0552  0.4155 -0.0011
   85SOL    HW2  385   1.321   1.575   0.608  0.6087  1.1298  0.0987
   85SOL    HW3  386   1.392   1.502   0.497 -0.4967  0.0436  0.0991
   85SOL    MW4  387   1.340   1.566   0.524 -0.0259  0.4607  0.0253
   86SOL     OW  388   1.087   2.041   0.475  0.2529 -0.0345  0.1343
   86SOL    HW2  389   1.087   2.048   0.570  1.2216  0.7564  0.0813
   86SOL    HW3  390   1.157   1.979   0.455  1.4531  1.3616 -0.1488
   86SOL    MW4  391   1.096   2.034   0.485  0.5391  0.2539  0.0899
   87SOL     OW  392   1.399   2.422   0.540  0.1680 -0.1131  0.0901
   87SOL    HW2  393   1.431   2.510   0.519 -1.0406  0.2821 -0.1046
   87SOL    HW3  394   1.452   2.363   0.486  0.8850  0.5037  0.1206
   87SOL    MW4  395   1.410   2.426   0.530  0.1032  0.0205  0.0684
   88SOL     OW  396   1.965   1.961   0.497  0.5222  0.6333 -0.1360
   88SOL    HW2  397   1.968   1.978   0.591  0.4091 -1.3856  0.2691
   88SOL    HW3  398   2.053   1.928   0.476  0.9793  2.3651 -1.0209
   88SOL    MW4  399   1.977   1.959   0.507  0.5676  0.5955 -0.1993
   89SOL     OW  400   1.465   2.005   0.451  0.1022  0.2804 -0.1236
   89SOL    HW2  401   1.546   1.955   0.443  0.3895  0.7224 -0.0414
   89SOL    HW3  402   1.396   1.940   0.446  0.5289 -0.4017  2.2016
   89SOL    MW4  403   1.467   1.990   0.450  0.1963  0.2487  0.1941
   90SOL     OW  404   1.111   2.349   0.498 -0.0429  0.1037  0.0930
   90SOL    HW2  405   1.123   2.256   0.478  0.6735  0.0415  0.7694
   90SOL    HW3  406   1.199   2.386   0.493 -0.0972  0.4219  1.4063
   90SOL    MW4  407   1.124   2.342   0.495  0.0443  0.1373  0.3555
   91SOL     OW  408   0.870   3.024   0.460 -0.0037  0.0087  0.3455
   91SOL    HW2  409   0.777   3.004   0.467  0.1003 -0.2205  1.2008
   91SOL    HW3  410   0.875   3.119   0.477  0.1855 -0.4485  3.0871
   91SOL    MW4  411   0.858   3.034   0.463  0.0349 -0.0820  0.8200
   92SOL     OW  412   1.981   2.261   0.421 -0.4517 -0.1191 -0.1865
   92SOL    HW2  413   2.053   2.295   0.474 -1.6896 -0.3690  1.7179
   92SOL    HW3  414   1.980   2.167   0.439  0.9042 -0.6911 -2.9008
   92SOL    MW4  415   1.990   2.253   0.430 -0.4362 -0.2275 -0.2933
   93SOL     OW  416   1.807   4.071   0.486  0.0242  0.0392  0.0911
   93SOL    HW2  417   1.723   4.040   0.452 -0.2215  1.2930 -0.4933
   93SOL    HW3  418   1.866   3.996   0.479 -0.5719 -0.3180 -1.2057
   93SOL    MW4  419   1.804   4.057   0.480 -0.0869  0.1574 -0.1571
   94SOL     OW  420   1.177   4.003   0.521 -0.5130 -0.5666 -0.1960
   94SOL    HW2  421   1.230   3.924   0.514 -1.4170 -1.1837 -0.1302
   94SOL    HW3  422   1.110   3.993   0.454 -0.7419  0.0711 -0.0727
   94SOL    MW4  423   1.175   3.992   0.511 -0.6624 -0.5639 -0.1710
   95SOL     OW  424   1.795   2.645   0.449  0.4842 -0.2868 -0.1476
   95SOL    HW2  425   1.710   2.689   0.449  1.2344  1.2253  1.6788
   95SOL    HW3  426   1.784   2.569   0.506  0.4413  0.0966  0.3573
   95SOL    MW4  427   1.782   2.641   0.456  0.5774 -0.0365  0.1600
   96SOL     OW  428   1.117   3.603   0.492  0.7353 -0.0177 -0.0773
   96SOL    HW2  429   1.144   3.513   0.506  0.4189 -0.2506 -0.8958
   96SOL    HW3  430   1.024   3.597   0.469  0.6943  0.5212 -0.0686
   96SOL    MW4  431   1.108   3.590   0.491  0.6882  0.0224 -0.1841
   97SOL     OW  432   1.208   3.335   0.522 -0.4012  0.1469 -0.1652
   97SOL    HW2  433   1.127   3.285   0.532  0.6532 -1.1726  2.1467
   97SOL    HW3  434   1.255   3.290   0.451 -0.8873 -0.1838 -0.2790
   97SOL    MW4  435   1.203   3.322   0.514 -0.3263 -0.0708  0.1249
   98SOL     OW  436   1.391   3.146   0.326  0.5096  0.0870  0.1334
   98SOL    HW2  437   1.373   3.061   0.367  0.3663  0.3389  0.5921
   98SOL    HW3  438   1.348   3.141   0.241 -0.4730  0.1361  0.6275
   98SOL    MW4  439   1.383   3.134   0.320  0.3610  0.1266  0.2591
   99SOL     OW  440   0.889   4.211   0.472 -0.4609 -0.1056 -0.6068
   99SOL    HW2  441   0.875   4.147   0.542 -0.0762  1.6317  1.0732
   99SOL    HW3  442   0.809   4.264   0.472  0.0107  0.6033 -0.7640
   99SOL    MW4  443   0.877   4.209   0.481 -0.3479  0.2170 -0.4059
  100SOL     OW  444   2.286   4.434   0.427  0.3844  0.6807  0.1658
  100SOL    HW2  445   2.375   4.405   0.447  0.7232  1.9992  0.6337
  100SOL    HW3  446   2.255   4.473   0.509 -1.5412 -1.9608  0.7634
  100SOL    MW4  447   2.294   4.436   0.441  0.1752  0.5059  0.3064
  101SOL     OW  448   1.988   4.573   0.427  0.1983  0.2513 -0.2479
  101SOL    HW2  449   1.918   4.508   0.420  0.2375  0.1295  0.4448
  101SOL    HW3  450   2.068   4.525   0.404  0.4784 -0.4322  2.0151
  101SOL    MW4  451   1.990   4.558   0.423  0.2406  0.1450  0.1420
  102SOL     OW  452   1.936   0.167   0.441  0.0594  0.0666  0.1154
  102SOL    HW2  453   1.895   0.159   0.527 -0.5985 -1.4443 -0.3213
  102SOL    HW3  454   1.959   0.078   0.417  1.9895  0.7014 -0.4454
  102SOL    MW4  455   1.934   0.154   0.449  0.2272 -0.0490 -0.0162
  103SOL     OW  456   1.376   4.631   0.343 -0.2469  0.3687 -0.2596
  103SOL    HW2  457   1.437   4.676   0.285  0.4703 -0.6794 -0.3342
  103SOL    HW3  458   1.426   4.557   0.378 -1.7176 -0.9856 -0.9637
  103SOL    MW4  459   1.391   4.627   0.340 -0.3463  0.0515 -0.3623
  104SOL     OW  460   1.809   0.290   0.235 -0.2636 -0.3522 -0.5319
  104SOL    HW2  461   1.858   0.247   0.305  0.8693  0.1670 -0.9959
  104SOL    HW3  462   1.876   0.320   0.174 -1.1523  0.5945 -1.0508
  104SOL    MW4  463   1.824   0.288   0.236 -0.2313 -0.1588 -0.6616
  105SOL     OW  464   2.368   1.378   0.452  0.4855  0.0716 -0.0805
  105SOL    HW2  465   2.408   1.300   0.413  0.0200 -0.8455  1.2762
  105SOL    HW3  466   2.275   1.356   0.459  0.3728  0.7043  0.3997
  105SOL    MW4  467   2.361   1.365   0.448  0.4089  0.0340  0.1619
  106SOL     OW  468   2.272   1.017   0.474 -0.2073  0.1747  0.5014
  106SOL    HW2  469   2.328   1.071   0.418  0.5275 -0.2473  0.8166
  106SOL    HW3  470   2.265   0.934   0.428  0.5904 -0.2545  1.1277
  106SOL    MW4  471   2.279   1.013   0.460 -0.0050  0.0623  0.6256
  107SOL     OW  472   1.985   1.111   0.416  0.1885 -0.4382 -0.1752
  107SOL    HW2  473   1.911   1.053   0.436  0.2698 -0.3132  0.4875
  107SOL    HW3  474   2.062   1.055   0.426  0.3135 -0.0355  1.1746
  107SOL    MW4  475   1.985   1.096   0.420  0.2158 -0.3685  0.0903
  108SOL     OW  476   2.661   1.384   0.281 -0.0399  0.2572  0.2381
  108SOL    HW2  477   2.651   1.451   0.213 -1.9505  0.7113  0.9313
  108SOL    HW3  478   2.654   1.431   0.363 -1.1744 -0.7620  0.7388
  108SOL    MW4  479   2.659   1.399   0.283 -0.4416  0.1825  0.3957
  109SOL     OW  480   2.098   1.361   0.487  0.5175  0.4092  0.3667
  109SOL    HW2  481   2.053   1.294   0.434 -0.2019 -0.4540  2.0355
  109SOL    HW3  482   2.042   1.438   0.480 -0.0390  0.0295  0.5832
  109SOL    MW4  483   2.085   1.362   0.479  0.3490  0.2452  0.6155
  110SOL     OW  484   1.712   1.845   0.468 -0.4163 -0.1007 -0.0939
  110SOL    HW2  485   1.793   1.895   0.462 -0.7107  0.3932  0.0462
  110SOL    HW3  486   1.717   1.799   0.551  0.0685 -0.6844 -0.4374
  110SOL    MW4  487   1.724   1.846   0.478 -0.3912 -0.1125 -0.1208
  111SOL     OW  488   2.228   2.365   0.508  0.2982  0.6396  0.5456
  111SOL    HW2  489   2.228   2.448   0.460 -0.0587  0.1286 -0.3477
  111SOL    HW3  490   2.241   2.390   0.600  1.6168  1.5751  0.1137
  111SOL    MW4  491   2.229   2.379   0.514  0.4253  0.6957  0.3708
  112SOL     OW  492   1.873   3.214   0.463  0.5226  0.3576 -0.1974
  112SOL    HW2  493   1.897   3.122   0.475 -0.0886  0.6072  3.8383
  112SOL    HW3  494   1.956   3.261   0.467  0.4494  0.3496  3.2788
  112SOL    MW4  495   1.887   3.208   0.465  0.4324  0.3896  0.7937
  113SOL     OW  496   1.490   2.672   0.483  0.1388 -0.3610  0.4606
  113SOL    HW2  497   1.511   2.722   0.562  0.5765  0.0935  0.0608
  113SOL    HW3  498   1.444   2.734   0.426 -0.8903 -0.9103  0.6773
  113SOL    MW4  499   1.487   2.687   0.486  0.0608 -0.3736  0.4364
  114SOL     OW  500   1.343   2.915   0.458 -0.1409 -0.6988  0.2992
  114SOL    HW2  501   1.252   2.888   0.463 -0.5600  0.4908 -0.7914
  114SOL    HW3  502   1.378   2.897   0.546 -1.2946 -1.5478  0.5940
  114SOL    MW4  503   1.336   2.909   0.470 -0.3484 -0.6535  0.1942
  115SOL     OW  504   1.272   1.823   0.394 -0.2712 -0.2749  0.1196
  115SOL    HW2  505   1.306   1.745   0.438  0.5856 -0.3969 -0.7250
  115SOL    HW3  506   1.257   1.794   0.304  1.6553  0.9706 -0.6320
  115SOL    MW4  507   1.275   1.809   0.388  0.0961 -0.1266 -0.0910
  116SOL     OW  508   3.643   2.182   0.392 -0.1871 -0.1896  0.4638
  116SOL    HW2  509   3.576   2.245   0.421  1.0566  1.0958  0.6072
  116SOL    HW3  510   3.603   2.096   0.405 -2.0032  0.5747  0.0594
  116SOL    MW4  511   3.629   2.179   0.398 -0.2625  0.0808  0.4294
  117SOL     OW  512   1.907   2.464   0.235  0.0709 -0.3427  0.6022
  117SOL    HW2  513   1.864   2.528   0.292  1.4342  0.4563  0.7519
  117SOL    HW3  514   1.941   2.397   0.294 -0.9162 -0.9640  0.4851
  117SOL    MW4  515   1.905   2.464   0.250  0.1205 -0.3192  0.6065
  118SOL     OW  516   1.782   2.388   0.561 -0.3142 -0.0446 -0.1424
  118SOL    HW2  517   1.848   2.330   0.522 -0.1595  0.2412 -0.3070
  118SOL    HW3  518   1.703   2.374   0.509 -0.2286  0.0170 -0.2898
  118SOL    MW4  519   1.781   2.379   0.549 -0.2825  0.0014 -0.1835
  119SOL     OW  520   1.596   3.315   0.426 -0.0936  0.2069 -0.1086
  119SOL    HW2  521   1.685   3.278   0.422 -0.3013 -0.3218  0.1576
  119SOL    HW3  522   1.540   3.246   0.390 -0.4271  0.4540 -0.0578
  119SOL    MW4  523   1.601   3.301   0.420 -0.1650  0.1700 -0.0667
  120SOL     OW  524   2.173   2.584   0.310 -0.3103 -0.2606  0.3066
  120SOL    HW2  525   2.088   2.564   0.271  0.6163  0.5481 -2.1997
  120SOL    HW3  526   2.167   2.677   0.334 -0.0485 -0.1276 -0.1346
  120SOL    MW4  527   2.161   2.594   0.308 -0.1535 -0.1364 -0.0823
  121SOL     OW  528   1.810   3.667   0.348  0.2099  0.0341  0.1437
  121SOL    HW2  529   1.845   3.622   0.271 -1.1310 -2.5681  0.9988
  121SOL    HW3  530   1.884   3.716   0.382  1.5393 -0.9482 -1.2560
  121SOL    MW4  531   1.824   3.668   0.342  0.2084 -0.4387  0.0718
  122SOL     OW  532   1.353   4.213   0.421 -0.2069  0.0139 -0.3406
  122SOL    HW2  533   1.302   4.155   0.477  0.0837  1.2090  1.1979
  122SOL    HW3  534   1.288   4.270   0.379 -0.2442  0.8389  0.8090
  122SOL    MW4  535   1.337   4.213   0.423 -0.1734  0.2799  0.0140
  123SOL     OW  536   1.517   4.422   0.441 -0.1961  0.1987  0.7461
  123SOL    HW2  537   1.546   4.433   0.532 -0.2363  0.4526  0.7283
  123SOL    HW3  538   1.469   4.339   0.442 -0.0909  0.1380  0.9309
  123SOL    MW4  539   1.514   4.413   0.453 -0.1875  0.2246  0.7682
  124SOL     OW  540   1.205   4.412   0.264  0.2436  0.2333 -0.0756
  124SOL    HW2  541   1.276   4.476   0.269  1.1723 -0.8397  0.8572
  124SOL    HW3  542   1.144   4.438   0.333  0.7987 -0.0816  0.5432
  124SOL    MW4  543   1.207   4.424   0.274  0.4394  0.0505  0.1291
  125SOL     OW  544   2.383   0.342   0.331 -0.8096  0.2522  0.0337
  125SOL    HW2  545   2.409   0.261   0.286 -1.0878 -0.7688  1.6447
  125SOL    HW3  546   2.289   0.349   0.315 -0.7772  0.2769 -0.1461
  125SOL    MW4  547   2.374   0.332   0.323 -0.8419  0.1207  0.2225
  126SOL     OW  548   2.107   0.362   0.337  0.2598 -0.0107  0.0214
  126SOL    HW2  549   2.060   0.288   0.375 -1.0648  0.0931 -1.3674
  126SOL    HW3  550   2.066   0.375   0.251  1.1559  1.6823 -0.1726
  126SOL    MW4  551   2.095   0.354   0.331  0.2034  0.2263 -0.1875
  127SOL     OW  552   2.646   0.954   0.441 -0.6978 -0.1711 -0.8249
  127SOL    HW2  553   2.679   0.879   0.391 -0.1579 -0.3470 -0.2280
  127SOL    HW3  554   2.714   1.021   0.431 -0.9593  0.0680 -0.9774
  127SOL    MW4  555   2.659   0.953   0.433 -0.6611 -0.1627 -0.7662
  128SOL     OW  556   2.492   0.584   0.415 -0.4736  0.0034  0.5868
  128SOL    HW2  557   2.466   0.501   0.377 -0.7116  0.0437  0.6625
  128SOL    HW3  558   2.577   0.604   0.375 -0.7652  0.0907  0.0180
  128SOL    MW4  559   2.500   0.576   0.405 -0.5436  0.0203  0.5217
  129SOL     OW  560   2.898   0.622   0.626  0.6623  0.4897  0.3537
  129SOL    HW2  561   2.909   0.681   0.701 -0.0337  1.5937 -0.4070
  129SOL    HW3  562   2.910   0.535   0.663  1.8006  1.0975  1.4783
  129SOL    MW4  563   2.901   0.618   0.641  0.7207  0.7156  0.4017
  130SOL     OW  564   3.168   0.904   0.461  0.5590 -0.1003  0.3824
  130SOL    HW2  565   3.261   0.888   0.447  0.3022  0.9054 -2.7723
  130SOL    HW3  566   3.125   0.821   0.439  0.6024 -0.1618  0.5306
  130SOL    MW4  567   3.175   0.891   0.456  0.5310  0.0243 -0.0143
  131SOL     OW  568   2.837   1.185   0.439  0.1704 -0.1051  0.0533
  131SOL    HW2  569   2.787   1.247   0.386  1.0704  0.1494 -0.5047
  131SOL    HW3  570   2.835   1.223   0.527 -0.8381 -0.2343  0.0847
  131SOL    MW4  571   2.831   1.198   0.444  0.1562 -0.0886 -0.0162
  132SOL     OW  572   2.416   1.656   0.411 -0.5369  0.0102  0.2955
  132SOL    HW2  573   2.499   1.628   0.448  0.2891  0.6276 -1.0653
  132SOL    HW3  574   2.367   1.574   0.398  1.2752 -0.7243 -2.2290
  132SOL    MW4  575   2.420   1.641   0.414 -0.1886 -0.0054 -0.2171
  133SOL     OW  576   2.371   0.213   0.597 -0.3715 -0.2160  0.0869
  133SOL    HW2  577   2.448   0.255   0.634  0.2211 -0.9976 -0.2431
  133SOL    HW3  578   2.358   0.257   0.513 -0.4388  0.0954  0.2608
  133SOL    MW4  579   2.379   0.224   0.591 -0.3021 -0.2780  0.0663
  134SOL     OW  580   2.235   1.899   0.478 -0.3902 -0.1451  0.5398
  134SOL    HW2  581   2.285   1.981   0.471  0.2075 -0.5463  0.0403
  134SOL    HW3  582   2.288   1.835   0.430  0.0997 -1.2700  2.5342
  134SOL    MW4  583   2.249   1.901   0.470 -0.2468 -0.3464  0.7370
  135SOL     OW  584   1.869   1.560   0.442  0.4188 -0.7655  0.1552
  135SOL    HW2  585   1.827   1.575   0.527 -1.6048 -0.4342 -0.8826
  135SOL    HW3  586   1.867   1.645   0.399  0.4749 -1.1767 -0.6580
  135SOL    MW4  587   1.863   1.573   0.448  0.1594 -0.7761 -0.0891
  136SOL     OW  588   2.370   2.130   0.506  0.0608  0.6253  0.6274
  136SOL    HW2  589   2.304   2.199   0.495 -0.2150  0.7868  2.9755
  136SOL    HW3  590   2.454   2.174   0.489 -0.2180  1.2107  0.7301
  136SOL    MW4  591   2.372   2.145   0.503 -0.0126  0.7236  0.9508
  137SOL     OW  592   2.636   2.208   0.451  0.3306 -0.1966 -0.8171
  137SOL    HW2  593   2.688   2.182   0.527 -0.4499 -0.2391 -0.2915
  137SOL    HW3  594   2.675   2.161   0.377  0.2020 -1.2748 -0.2037
  137SOL    MW4  595   2.648   2.198   0.451  0.2105 -0.3445 -0.6668
  138SOL     OW  596   2.436   2.904   0.335  0.6136  0.1604  0.3204
  138SOL    HW2  597   2.341   2.907   0.332  0.7132  2.6592 -1.7614
  138SOL    HW3  598   2.461   2.974   0.395  1.2087  1.0903 -1.0026
  138SOL    MW4  599   2.427   2.913   0.343  0.7052  0.6127 -0.1288
  139SOL     OW  600   1.576   2.259   0.405 -0.1852  0.4414 -0.1089
  139SOL    HW2  601   1.611   2.285   0.320 -0.2442 -0.8657 -0.5385
  139SOL    HW3  602   1.537   2.173   0.390 -0.8352  0.5230  1.0756
  139SOL    MW4  603   1.576   2.251   0.392 -0.2788  0.2801 -0.0093
  140SOL     OW  604   1.907   2.911   0.496  0.1735 -0.8818 -0.0857
  140SOL    HW2  605   1.943   2.901   0.584 -0.9480 -0.5044  0.4401
  140SOL    HW3  606   1.873   2.824   0.474  1.3755 -1.2368 -0.5824
  140SOL    MW4  607   1.907   2.898   0.505  0.1841 -0.8793 -0.0818
  141SOL     OW  608   1.983   3.832   0.496  0.0923  0.3804 -0.3731
  141SOL    HW2  609   2.074   3.859   0.489 -0.0560  0.7022 -1.1929
  141SOL    HW3  610   1.974   3.799   0.585  1.2386 -0.5260 -0.5831
  141SOL    MW4  611   1.994   3.831   0.507  0.2241  0.3035 -0.5090
  142SOL     OW  612   2.251   3.951   0.476  0.1363 -0.0297  0.3330
  142SOL    HW2  613   2.328   3.934   0.421  0.3405  0.9263  0.3074
  142SOL    HW3  614   2.227   4.041   0.456 -0.2361  0.0873  1.2748
  142SOL    MW4  615   2.258   3.961   0.466  0.1140  0.1116  0.4539
  143SOL     OW  616   1.575   3.586   0.471  0.1184 -0.1497  0.3192
  143SOL    HW2  617   1.572   3.492   0.454 -1.5093  0.0046 -0.3356
  143SOL    HW3  618   1.654   3.616   0.425 -1.0738 -0.6947 -2.1970
  143SOL    MW4  619   1.585   3.578   0.463 -0.2537 -0.2012 -0.0992
  144SOL     OW  620   2.068   3.421   0.517 -0.2454  0.1752  0.1736
  144SOL    HW2  621   2.027   3.493   0.564 -0.0841 -0.0587  0.6788
  144SOL    HW3  622   2.104   3.365   0.586 -2.5528 -1.6966 -0.0956
  144SOL    MW4  623   2.068   3.423   0.532 -0.5288 -0.1028  0.2048
  145SOL     OW  624   2.118   4.203   0.442 -0.0011  0.3246  0.1057
  145SOL    HW2  625   2.175   4.276   0.420 -0.6627  0.9846  0.5539
  145SOL    HW3  626   2.055   4.240   0.504 -1.1439 -0.2928 -0.6735
  145SOL    MW4  627   2.117   4.218   0.447 -0.2391  0.3304  0.0620
  146SOL     OW  628   1.803   4.350   0.437  0.4708  0.1395  0.0678
  146SOL    HW2  629   1.807   4.258   0.412  0.4638  0.6240 -1.8128
  146SOL    HW3  630   1.710   4.371   0.438  0.5340  0.5229 -1.0973
  146SOL    MW4  631   1.791   4.341   0.434  0.4783  0.2542 -0.3341
  147SOL     OW  632   2.491   4.529   0.194 -0.2582 -0.1079 -0.0976
  147SOL    HW2  633   2.502   4.623   0.181  0.1927 -0.1453 -0.0165
  147SOL    HW3  634   2.407   4.521   0.240 -0.2589  0.2599 -0.0310
  147SOL    MW4  635   2.481   4.540   0.199 -0.1991 -0.0639 -0.0781
  148SOL     OW  636   2.516   3.590   0.491  0.0411 -0.0800  0.1387
  148SOL    HW2  637   2.494   3.672   0.447 -1.4996 -0.9843 -0.8308
  148SOL    HW3  638   2.502   3.608   0.584 -0.7262  0.6367 -0.1064
  148SOL    MW4  639   2.511   3.603   0.498 -0.2632 -0.1047 -0.0215
  149SOL     OW  640   2.481   3.868   0.349 -0.7562 -0.6973 -0.0035
  149SOL    HW2  641   2.510   3.877   0.259 -0.2514 -1.0482  0.1234
  149SOL    HW3  642   2.535   3.929   0.399 -1.7906  0.3154 -0.0902
  149SOL    MW4  643   2.492   3.877   0.344 -0.8261 -0.6099  0.0018
  150SOL     OW  644   2.080   0.625   0.485  0.3222  0.0140 -0.2850
  150SOL    HW2  645   2.006   0.673   0.445 -0.3132 -0.2692  0.5400
  150SOL    HW3  646   2.084   0.543   0.436 -0.5959 -0.4253  0.3476
  150SOL    MW4  647   2.071   0.621   0.473  0.1173 -0.0813 -0.0927
  151SOL     OW  648   2.016   0.396   0.066  0.1675 -0.0428  0.1232
  151SOL    HW2  649   2.017   0.492   0.065  0.5025  0.0099  2.8136
  151SOL    HW3  650   2.035   0.371  -0.024 -1.6220  2.4288 -1.0137
  151SOL    MW4  651   2.018   0.406   0.054 -0.0246  0.2903  0.3281
  152SOL     OW  652   2.968   0.183   0.509  0.2595 -0.3165  0.1142
  152SOL    HW2  653   3.030   0.226   0.451  1.7578 -1.1907  1.0173
  152SOL    HW3  654   3.004   0.095   0.521 -0.5717 -0.4824  1.5088
  152SOL    MW4  655   2.981   0.177   0.503  0.3476 -0.4538  0.4174
  153SOL     OW  656   2.474   1.159   0.312 -0.1585  0.2522  0.5756
  153SOL    HW2  657   2.532   1.217   0.263 -1.0709 -0.2008 -1.0874
  153SOL    HW3  658   2.533   1.099   0.357  0.7291  1.2928  0.8227
  153SOL    MW4  659   2.489   1.159   0.312 -0.1621  0.3296  0.3887
  154SOL     OW  660   3.443   0.849   0.433  0.1827 -0.2741  0.1603
  154SOL    HW2  661   3.470   0.923   0.380 -1.7482 -0.4985 -1.1867
  154SOL    HW3  662   3.481   0.866   0.519  1.0178  1.5052 -0.5427
  154SOL    MW4  663   3.451   0.861   0.438  0.0384 -0.0690 -0.1102
  155SOL     OW  664   3.337   1.586   0.458 -0.3624  0.1185  0.5354
  155SOL    HW2  665   3.358   1.496   0.431  0.3584  1.0631 -2.2098
  155SOL    HW3  666   3.421   1.632   0.454 -1.1141  1.4454 -0.2783
  155SOL    MW4  667   3.351   1.580   0.454 -0.3667  0.4182  0.0659
  156SOL     OW  668   3.115   1.166   0.413 -0.3938  0.3774  0.1105
  156SOL    HW2  669   3.124   1.073   0.434 -0.2471  0.5772  0.9158
  156SOL    HW3  670   3.020   1.181   0.415 -0.4326  0.2060 -0.2267
  156SOL    MW4  671   3.104   1.155   0.416 -0.3793  0.3811  0.1722
  157SOL     OW  672   3.476   1.961   0.466  0.1330 -0.1351  0.2881
  157SOL    HW2  673   3.454   1.968   0.559 -0.3139 -1.2710  0.2760
  157SOL    HW3  674   3.391   1.952   0.423  0.2984  1.0887 -0.3013
  157SOL    MW4  675   3.462   1.961   0.473  0.0958 -0.1234  0.2087
  158SOL     OW  676   2.636   0.007   0.734 -0.1832  0.4954  0.0962
  158SOL    HW2  677   2.555  -0.033   0.766  0.6186 -0.2720  1.2312
  158SOL    HW3  678   2.629   0.099   0.758 -0.0652  0.1326  1.5671
  158SOL    MW4  679   2.624   0.014   0.741 -0.0618  0.3462  0.4400
  159SOL     OW  680   3.058   2.059   0.611  0.6500 -0.1766 -0.5626
  159SOL    HW2  681   2.965   2.077   0.626  0.7735  0.0784 -0.1202
  159SOL    HW3  682   3.091   2.030   0.695  0.8817 -0.6627 -0.8186
  159SOL    MW4  683   3.050   2.057   0.624  0.6969 -0.2072 -0.5379
  160SOL     OW  684   2.650   2.496   0.462 -0.0274  0.3521  0.1733
  160SOL    HW2  685   2.573   2.526   0.414 -1.3395 -1.3670  1.1466
  160SOL    HW3  686   2.661   2.405   0.436  1.2135  0.3615  0.6347
  160SOL    MW4  687   2.641   2.488   0.453 -0.0367  0.1264  0.3626
  161SOL     OW  688   2.639   1.512   0.532 -0.1767 -0.2748 -0.3648
  161SOL    HW2  689   2.612   1.448   0.599 -1.1464  0.5913  0.0746
  161SOL    HW3  690   2.682   1.581   0.582 -0.1152 -0.0506 -0.7316
  161SOL    MW4  691   2.641   1.512   0.548 -0.2964 -0.1310 -0.3552
  162SOL     OW  692   2.447   2.622   0.299 -0.0409 -0.1879  0.1424
  162SOL    HW2  693   2.357   2.601   0.276 -0.1036 -0.4408  0.6166
  162SOL    HW3  694   2.446   2.715   0.319 -0.3401 -0.3446  0.8502
  162SOL    MW4  695   2.435   2.631   0.298 -0.0887 -0.2420  0.2983
  163SOL     OW  696   2.919   3.142   0.487  0.0344 -0.1349 -0.0121
  163SOL    HW2  697   2.976   3.218   0.478  1.0118 -0.7127  1.0080
  163SOL    HW3  698   2.935   3.091   0.407 -0.6384  0.7308 -0.7051
  163SOL    MW4  699   2.929   3.145   0.475  0.0749 -0.0968  0.0311
  164SOL     OW  700   2.722   3.426   0.398 -0.2458 -0.4002 -0.5508
  164SOL    HW2  701   2.662   3.480   0.449  0.1663 -1.1947  0.7957
  164SOL    HW3  702   2.788   3.488   0.366 -1.0330  0.2564 -0.9359
  164SOL    MW4  703   2.723   3.441   0.401 -0.2954 -0.4184 -0.4239
  165SOL     OW  704   3.110   3.351   0.516  0.5843  0.0880 -0.0023
  165SOL    HW2  705   3.176   3.294   0.478 -0.8478 -1.3940 -0.3068
  165SOL    HW3  706   3.103   3.323   0.608  0.4540  0.3124  0.0585
  165SOL    MW4  707   3.118   3.340   0.523  0.3781 -0.0782 -0.0344
  166SOL     OW  708   2.483   3.125   0.505 -0.4167  0.6877  0.3891
  166SOL    HW2  709   2.422   3.191   0.472 -0.2888  0.7601  0.3012
  166SOL    HW3  710   2.449   3.103   0.592 -0.2789  1.0912  0.5427
  166SOL    MW4  711   2.470   3.131   0.512 -0.3815  0.7505  0.3977
  167SOL     OW  712   1.552   4.002   0.423 -0.2790  0.1190 -0.0654
  167SOL    HW2  713   1.495   3.926   0.429 -0.5161  0.3585  0.7055
  167SOL    HW3  714   1.496   4.072   0.390 -0.0697 -0.0267 -0.7406
  167SOL    MW4  715   1.537   4.001   0.419 -0.2826  0.1316 -0.0528
  168SOL     OW  716   3.453   3.427   0.393  0.5964 -0.2911 -0.2103
  168SOL    HW2  717   3.544   3.402   0.375  1.1681  0.0243  2.1198
  168SOL    HW3  718   3.402   3.352   0.362  1.8314 -1.5062  0.6055
  168SOL    MW4  719   3.458   3.414   0.386  0.8347 -0.4098  0.2047
  169SOL     OW  720   2.707   4.449   0.348 -0.1304 -0.2106  0.2242
  169SOL    HW2  721   2.718   4.534   0.390  1.4801  1.0192 -2.5112
  169SOL    HW3  722   2.635   4.461   0.286  0.0925 -0.8240 -0.1694
  169SOL    MW4  723   2.699   4.462   0.345  0.1116 -0.1292 -0.1886
  170SOL     OW  724   2.329   3.352   0.454  0.0417 -0.2910 -0.4534
  170SOL    HW2  725   2.377   3.434   0.468 -0.5854 -0.2452  1.6736
  170SOL    HW3  726   2.237   3.376   0.466 -0.0672 -1.4893  1.3301
  170SOL    MW4  727   2.323   3.366   0.458 -0.0556 -0.4432  0.0625
  171SOL     OW  728   3.547   4.119   0.492  0.4027  0.4141  0.2746
  171SOL    HW2  729   3.470   4.176   0.491  0.6169  0.7173 -1.8256
  171SOL    HW3  730   3.516   4.036   0.456  1.2178  0.8064 -1.4030
  171SOL    MW4  731   3.533   4.115   0.487  0.5383  0.5059 -0.2239
  172SOL     OW  732   2.885   4.229   0.454  0.2139 -0.0372  0.1197
  172SOL    HW2  733   2.900   4.257   0.544  0.3855  1.6019 -0.4095
  172SOL    HW3  734   2.840   4.302   0.413 -1.2307 -1.3790 -0.7435
  172SOL    MW4  735   2.881   4.242   0.461  0.0458  0.0024 -0.0640
  173SOL     OW  736   3.357   4.505   0.491  0.0006  0.2878  0.3017
  173SOL    HW2  737   3.347   4.420   0.450 -0.3728 -0.4223  1.8259
  173SOL    HW3  738   3.271   4.545   0.486  0.3106  0.8430 -0.9348
  173SOL    MW4  739   3.345   4.499   0.485 -0.0076  0.2675  0.3397
  174SOL     OW  740   3.101   4.616   0.561  0.3719 -0.0001  0.5124
  174SOL    HW2  741   3.111   4.643   0.652  0.9731  0.4000  0.3263
  174SOL    HW3  742   3.050   4.535   0.566  1.3166 -0.5573  1.2733
  174SOL    MW4  743   3.096   4.609   0.573  0.5758 -0.0210  0.5882
  175SOL     OW  744   2.673   4.051   0.463  0.0819  1.0742  0.1847
  175SOL    HW2  745   2.618   4.126   0.485  0.6155  2.2297 -2.2591
  175SOL    HW3  746   2.762   4.086   0.459  0.6095 -0.1222  1.0122
  175SOL    MW4  747   2.677   4.065   0.466  0.2220  1.0686 -0.0286
  176SOL     OW  748   2.760   0.663   0.376  0.0403 -0.2041  0.2444
  176SOL    HW2  749   2.837   0.659   0.320  0.2189  1.4719  0.3267
  176SOL    HW3  750   2.795   0.654   0.465  0.1708  0.7017  0.2909
  176SOL    MW4  751   2.775   0.661   0.381  0.0811  0.1366  0.2614
  177SOL     OW  752   3.354   0.572   0.533 -0.1356  0.5649 -0.3906
  177SOL    HW2  753   3.378   0.487   0.494 -0.2847  0.6163 -0.5952
  177SOL    HW3  754   3.419   0.633   0.498  1.6754  0.0441  1.8988
  177SOL    MW4  755   3.366   0.569   0.523  0.0837  0.5029 -0.1156
  178SOL     OW  756   2.727   0.018   0.462 -0.0052 -0.0310  0.1295
  178SOL    HW2  757   2.685   0.022   0.548 -0.9059  0.7792 -0.3376
  178SOL    HW3  758   2.804   0.074   0.470  0.4766 -0.7822  0.7181
  178SOL    MW4  759   2.732   0.026   0.474 -0.0606 -0.0232  0.1456
  179SOL     OW  760   3.629   0.455   0.367  0.1735 -0.3355  0.0268
  179SOL    HW2  761   3.706   0.487   0.415  0.0686 -0.7523  0.4731
  179SOL    HW3  762   3.635   0.498   0.281  1.2861 -0.9119 -0.1907
  179SOL    MW4  763   3.640   0.465   0.362  0.3066 -0.4666  0.0570
  180SOL     OW  764   3.090   0.620   0.431 -0.0043 -0.2510  0.0716
  180SOL    HW2  765   3.018   0.621   0.494  0.1057  0.0932  0.1892
  180SOL    HW3  766   3.169   0.610   0.484  0.0485 -0.4526 -0.0453
  180SOL    MW4  767   3.091   0.619   0.446  0.0172 -0.2322  0.0717
  181SOL     OW  768   3.585   1.719   0.481  0.1786  0.2640  0.2939
  181SOL    HW2  769   3.578   1.695   0.573  0.7848  0.6868  0.4522
  181SOL    HW3  770   3.547   1.807   0.476 -0.4334 -0.0136  0.0263
  181SOL    MW4  771   3.579   1.728   0.492  0.1776  0.2831  0.2795
  182SOL     OW  772   3.224   1.938   0.397  0.0321 -0.5439 -0.3373
  182SOL    HW2  773   3.180   1.969   0.477  0.3354  0.4861 -0.5644
  182SOL    HW3  774   3.184   1.853   0.379 -1.5400  0.1687 -0.2713
  182SOL    MW4  775   3.213   1.931   0.406 -0.1352 -0.3140 -0.3586
  183SOL     OW  776   3.566   1.114   0.353 -0.0453  0.0476  0.0952
  183SOL    HW2  777   3.517   1.196   0.363 -0.2902 -0.0780 -0.1024
  183SOL    HW3  778   3.588   1.110   0.260  0.9880  0.4804  0.3138
  183SOL    MW4  779   3.563   1.124   0.342  0.0589  0.0882  0.0980
  184SOL     OW  780   3.446   2.363   0.481  0.4131 -0.2005  0.5513
  184SOL    HW2  781   3.449   2.393   0.390 -0.0589 -1.9106 -0.0273
  184SOL    HW3  782   3.372   2.303   0.485 -0.1903  0.5991  2.3127
  184SOL    MW4  783   3.437   2.359   0.470  0.2713 -0.3204  0.7074
  185SOL     OW  784   3.179   2.234   0.437  0.5008 -0.4345  0.2508
  185SOL    HW2  785   3.145   2.191   0.516 -2.0794  0.2359 -0.4464
  185SOL    HW3  786   3.192   2.162   0.375  0.8214 -0.7502  0.6746
  185SOL    MW4  787   3.176   2.219   0.439  0.2027 -0.3874  0.2147
  186SOL     OW  788   3.462   2.800   0.484 -0.3875  0.2675 -0.2509
  186SOL    HW2  789   3.509   2.730   0.528 -1.6274 -0.8115 -0.6072
  186SOL    HW3  790   3.395   2.755   0.431 -0.6390  1.6631 -1.1596
  186SOL    MW4  791   3.459   2.785   0.483 -0.5844  0.3097 -0.4178
  187SOL     OW  792   2.156   2.836   0.433  0.3446  0.3952 -0.1369
  187SOL    HW2  793   2.193   2.847   0.520 -0.9794 -0.5508  0.5543
  187SOL    HW3  794   2.071   2.881   0.437  1.2449  2.3336 -1.6286
  187SOL    MW4  795   2.149   2.844   0.445  0.2887  0.5260 -0.2425
  188SOL     OW  796   3.272   2.680   0.313 -0.1029  0.0071  0.3913
  188SOL    HW2  797   3.205   2.636   0.366 -0.1375 -0.5859 -0.1398
  188SOL    HW3  798   3.324   2.608   0.276  0.6239  0.4545  0.5331
  188SOL    MW4  799   3.270   2.664   0.315 -0.0117 -0.0122  0.3399
  189SOL     OW  800   2.871   2.795   0.705 -0.2219 -0.4544 -0.3957
  189SOL    HW2  801   2.898   2.777   0.614  0.2797 -0.7654 -0.1858
  189SOL    HW3  802   2.934   2.747   0.758 -0.9266 -0.8164  0.1088
  189SOL    MW4  803   2.883   2.786   0.700 -0.2487 -0.5436 -0.3015
  190SOL     OW  804   3.096   0.360   0.324  0.2091 -0.1149 -0.2072
  190SOL    HW2  805   3.084   0.452   0.348 -0.3908 -0.2469  0.0095
  190SOL    HW3  806   3.187   0.342   0.344  0.2659  0.3679 -0.0180
  190SOL    MW4  807   3.106   0.370   0.330  0.1376 -0.0686 -0.1537
  191SOL     OW  808   3.147   3.816   0.461  0.0334  0.3899 -0.1168
  191SOL    HW2  809   3.153   3.875   0.536 -0.3176  0.5705 -0.2318
  191SOL    HW3  810   3.209   3.746   0.481  0.0807  0.5373  0.2541
  191SOL    MW4  811   3.156   3.815   0.474 -0.0067  0.4332 -0.0830
  192SOL     OW  812   3.528   3.857   0.396 -0.1628 -0.1098 -0.2636
  192SOL    HW2  813   3.496   3.842   0.307 -0.5564 -1.5333  0.0992
  192SOL    HW3  814   3.475   3.799   0.450 -0.6275  1.5238  1.0391
  192SOL    MW4  815   3.517   3.847   0.391 -0.2763 -0.0820 -0.0439
  193SOL     OW  816   3.548   3.079   0.476  0.4421  0.2879  0.0904
  193SOL    HW2  817   3.641   3.095   0.495  0.2895  0.0431  1.0846
  193SOL    HW3  818   3.535   2.988   0.502 -0.5614  0.9197  1.8781
  193SOL    MW4  819   3.559   3.069   0.482  0.2897  0.3390  0.4574
  194SOL     OW  820   3.314   3.190   0.388 -0.0306  0.1484  0.6872
  194SOL    HW2  821   3.282   3.118   0.332 -0.3530  0.1099  0.9176
  194SOL    HW3  822   3.391   3.155   0.431  0.1741  0.1494  0.3265
  194SOL    MW4  823   3.320   3.176   0.386 -0.0463  0.1435  0.6700
  195SOL     OW  824   3.121   4.081   0.330 -0.1572 -0.2104  0.2201
  195SOL    HW2  825   3.035   4.123   0.324 -0.0122 -0.1025 -1.2982
  195SOL    HW3  826   3.103   3.993   0.364 -0.9362 -0.4276 -0.7410
  195SOL    MW4  827   3.107   4.075   0.334 -0.2408 -0.2246 -0.1070
  196SOL     OW  828   2.699   3.033   0.282  0.4107 -0.2622 -0.2158
  196SOL    HW2  829   2.780   3.001   0.242  0.1861 -1.1410  0.0263
  196SOL    HW3  830   2.635   2.964   0.266 -0.1358  0.1586  0.1268
  196SOL    MW4  831   2.702   3.019   0.275  0.3090 -0.3228 -0.1387
  197SOL     OW  832   4.203   4.642   0.438  0.1019 -0.0595  0.0758
  197SOL    HW2  833   4.288   4.673   0.468 -0.0241  0.4990 -0.1563
  197SOL    HW3  834   4.200   4.551   0.468 -0.2120  0.6149  2.1933
  197SOL    MW4  835   4.214   4.634   0.446  0.0439  0.1025  0.3245
  198SOL     OW  836   3.778   4.648   0.465 -0.2210  0.0665  0.3604
  198SOL    HW2  837   3.848   4.710   0.487 -0.0219 -0.2480  0.6068
  198SOL    HW3  838   3.819   4.562   0.467 -0.5296 -0.0883  0.1432
  198SOL    MW4  839   3.792   4.645   0.468 -0.2353  0.0048  0.3642
  199SOL     OW  840   3.393   0.316   0.410 -0.0953 -0.2007  0.2111
  199SOL    HW2  841   3.408   0.224   0.434 -1.2666  0.0158  1.8807
  199SOL    HW3  842   3.480   0.351   0.393  0.4344 -1.3928  0.4203
  199SOL    MW4  843   3.407   0.308   0.411 -0.1800 -0.3294  0.4590
  200SOL     OW  844   3.851   0.534   0.498  0.6233 -0.2780  0.2980
  200SOL    HW2  845   3.823   0.504   0.585  1.0991  0.6675  0.7794
  200SOL    HW3  846   3.920   0.473   0.473  2.3773  1.0640  1.7681
  200SOL    MW4  847   3.856   0.522   0.507  0.9174  0.0238  0.5555
  201SOL     OW  848   4.036   0.354   0.426 -0.5645  0.1888  0.2954
  201SOL    HW2  849   4.126   0.374   0.452 -0.5336 -0.1753  0.4751
  201SOL    HW3  850   4.046   0.301   0.347 -0.6099 -0.2044  0.5542
  201SOL    MW4  851   4.049   0.349   0.419 -0.5665  0.0889  0.3533
  202SOL     OW  852   4.294   0.779   0.504  0.2459  0.1979 -0.2933
  202SOL    HW2  853   4.210   0.756   0.464  0.4068 -1.2794  0.1994
  202SOL    HW3  854   4.283   0.759   0.597  0.6499  1.4316  0.0351
  202SOL    MW4  855   4.282   0.773   0.511  0.3209  0.1658 -0.1850
  203SOL     OW  856   3.812   1.035   0.451 -0.4270  0.3769  0.4501
  203SOL    HW2  857   3.846   1.123   0.466 -0.6290  1.1620 -3.1955
  203SOL    HW3  858   3.724   1.049   0.415 -0.5087 -1.3296 -0.0524
  203SOL    MW4  859   3.805   1.048   0.448 -0.4642  0.2555 -0.0972
  204SOL     OW  860   4.244   1.598   0.412 -0.2966  0.1872  0.2511
  204SOL    HW2  861   4.329   1.592   0.455 -0.4575  1.8147  0.8430
  204SOL    HW3  862   4.189   1.645   0.474 -1.2769  0.2769 -0.6598
  204SOL    MW4  863   4.248   1.604   0.426 -0.4478  0.4139  0.2090
  205SOL     OW  864   3.879   1.345   0.439 -0.0819 -0.2208 -0.2571
  205SOL    HW2  865   3.974   1.351   0.428  0.0763  0.2568  1.3485
  205SOL    HW3  866   3.848   1.435   0.431 -0.3720 -0.3391 -0.4844
  205SOL    MW4  867   3.887   1.358   0.436 -0.0994 -0.1734 -0.0753
  206SOL     OW  868   3.348   1.286   0.434  0.3292 -0.3101 -0.3770
  206SOL    HW2  869   3.351   1.284   0.529  1.4945  1.4124 -0.3528
  206SOL    HW3  870   3.274   1.230   0.411  0.8896 -1.8842  1.4667
  206SOL    MW4  871   3.339   1.278   0.443  0.5569 -0.2904 -0.1306
  207SOL     OW  872   3.834   1.618   0.409  0.3212  0.3067 -0.0890
  207SOL    HW2  873   3.857   1.671   0.332  2.3193  2.1554  1.6949
  207SOL    HW3  874   3.747   1.648   0.433 -0.6745 -0.8972 -2.1157
  207SOL    MW4  875   3.826   1.629   0.402  0.4537  0.3917 -0.1211
  208SOL     OW  876   3.582   2.577   0.588  0.5022 -0.1499 -0.1803
  208SOL    HW2  877   3.537   2.498   0.558  1.7540 -1.1351  0.4711
  208SOL    HW3  878   3.554   2.587   0.679  0.0532  0.3776 -0.3749
  208SOL    MW4  879   3.572   2.568   0.596  0.6082 -0.2103 -0.1200
  209SOL     OW  880   3.815   2.593   0.443  0.2851  0.5096  0.4748
  209SOL    HW2  881   3.744   2.569   0.502 -0.3688 -0.5705 -0.7216
  209SOL    HW3  882   3.883   2.527   0.459  0.6223  0.9720  0.9362
  209SOL    MW4  883   3.815   2.581   0.453  0.2429  0.4280  0.3778
  210SOL     OW  884   3.073   2.489   0.443 -0.0843 -0.2162  0.3190
  210SOL    HW2  885   3.112   2.499   0.529  1.2682 -0.6063 -0.2484
  210SOL    HW3  886   3.090   2.398   0.418 -0.0762  0.0137 -0.5427
  210SOL    MW4  887   3.080   2.478   0.451  0.0954 -0.2375  0.1305
  211SOL     OW  888   2.979   3.589   0.498 -0.1124  0.0034 -0.1259
  211SOL    HW2  889   3.038   3.513   0.494 -0.6490 -0.4386  0.1866
  211SOL    HW3  890   3.034   3.664   0.476  0.6636 -0.3563  0.5586
  211SOL    MW4  891   2.994   3.589   0.495 -0.0806 -0.1020  0.0056
  212SOL     OW  892   2.983   2.947   0.278 -0.3240 -0.0492 -0.0513
  212SOL    HW2  893   3.065   2.947   0.227 -0.2404  0.0892  0.0850
  212SOL    HW3  894   2.965   2.854   0.292 -0.9936 -0.1388 -1.3742
  212SOL    MW4  895   2.992   2.935   0.273 -0.4015 -0.0427 -0.2079
  213SOL     OW  896   3.913   2.820   0.581  0.5069  0.6646  0.3061
  213SOL    HW2  897   4.008   2.807   0.586  0.4775  0.8586  1.3372
  213SOL    HW3  898   3.883   2.750   0.522  1.1345 -0.1603  0.9479
  213SOL    MW4  899   3.922   2.809   0.574  0.5858  0.5815  0.5268
  214SOL     OW  900   3.283   2.955   0.235 -0.2022 -0.4002  0.1905
  214SOL    HW2  901   3.286   2.864   0.267 -2.4248 -0.4005  0.5209
  214SOL    HW3  902   3.369   2.970   0.198  1.5777 -1.3397  3.7238
  214SOL    MW4  903   3.294   2.945   0.235 -0.2604 -0.5240  0.7003
  215SOL     OW  904   3.980   3.989   0.532  0.0575 -0.1025  0.4021
  215SOL    HW2  905   3.926   4.056   0.490  1.0606  0.1755 -0.4481
  215SOL    HW3  906   3.931   3.907   0.519  0.8964 -0.2104 -2.3413
  215SOL    MW4  907   3.966   3.987   0.525  0.3006 -0.0803 -0.0721
  216SOL     OW  908   3.450   2.466   0.226 -0.4753  0.1452 -0.0725
  216SOL    HW2  909   3.508   2.542   0.221 -0.6295  0.1841 -1.3638
  216SOL    HW3  910   3.475   2.411   0.151 -0.6377 -0.8853  0.6134
  216SOL    MW4  911   3.461   2.469   0.215 -0.5174  0.0145 -0.1524
  217SOL     OW  912   3.371   3.659   0.514  0.4209 -0.3222 -0.1417
  217SOL    HW2  913   3.408   3.582   0.470  1.1637 -0.3360  0.5011
  217SOL    HW3  914   3.394   3.647   0.606 -0.5690  0.0363  0.1508
  217SOL    MW4  915   3.379   3.647   0.520  0.3881 -0.2770 -0.0182
  218SOL     OW  916   4.085   3.352   0.556  0.3296  0.8129  0.1602
  218SOL    HW2  917   4.029   3.425   0.531 -1.5761 -0.8587 -0.6338
  218SOL    HW3  918   4.050   3.322   0.639 -0.0389 -0.3046 -0.3854
  218SOL    MW4  919   4.073   3.357   0.563  0.0296  0.4449 -0.0166
  219SOL     OW  920   3.294   4.218   0.481  0.1045 -0.1449  0.2059
  219SOL    HW2  921   3.276   4.195   0.572  0.8126 -1.4042  0.0374
  219SOL    HW3  922   3.225   4.174   0.430  0.4680 -0.5139  0.0279
  219SOL    MW4  923   3.282   4.209   0.486  0.2458 -0.3595  0.1602
  220SOL     OW  924   3.907   4.406   0.535  0.1173  0.1419  0.2077
  220SOL    HW2  925   3.871   4.326   0.498 -0.2939  0.2451  0.3833
  220SOL    HW3  926   3.868   4.412   0.623  0.5609  0.2509  0.4027
  220SOL    MW4  927   3.897   4.396   0.542  0.1216  0.1698  0.2565
  221SOL     OW  928   4.434   0.118   0.507  0.1627 -0.0133 -0.0118
  221SOL    HW2  929   4.512   0.106   0.454  0.0684  1.7520 -0.5626
  221SOL    HW3  930   4.466   0.130   0.596  0.7116  3.1328 -0.5703
  221SOL    MW4  931   4.448   0.118   0.512  0.2227  0.6347 -0.1581
  222SOL     OW  932   3.991   0.808   0.459  0.6097 -0.4265  0.4713
  222SOL    HW2  933   3.933   0.876   0.423  0.1344 -0.9970  0.1588
  222SOL    HW3  934   3.935   0.732   0.470  0.9716 -0.5432  1.5614
  222SOL    MW4  935   3.976   0.807   0.456  0.5949 -0.5172  0.5739
  223SOL     OW  936   4.234   1.775   0.161  0.5307 -0.0248 -0.0286
  223SOL    HW2  937   4.303   1.841   0.169 -0.2489  0.8956 -0.7773
  223SOL    HW3  938   4.245   1.718   0.237  1.4122  0.7819  0.4441
  223SOL    MW4  939   4.244   1.776   0.172  0.5436  0.2030 -0.0650
  224SOL     OW  940   4.308   0.374   0.511 -0.8274  0.0264  0.0654
  224SOL    HW2  941   4.356   0.292   0.497 -0.1142  0.1769  1.4708
  224SOL    HW3  942   4.372   0.443   0.492 -0.9283  0.2402  0.4856
  224SOL    MW4  943   4.323   0.372   0.507 -0.7467  0.0744  0.3063
  225SOL     OW  944   4.305   1.077   0.518  0.1415  0.2189 -0.3297
  225SOL    HW2  945   4.252   1.152   0.490  0.9244  0.5134 -1.0229
  225SOL    HW3  946   4.251   1.001   0.497 -1.0436  0.6117  1.2067
  225SOL    MW4  947   4.291   1.077   0.511  0.0887  0.3096 -0.2185
  226SOL     OW  948   3.495   0.077   0.529  0.1307  0.0173 -0.0869
  226SOL    HW2  949   3.583   0.068   0.492 -0.9337 -0.4540 -2.6304
  226SOL    HW3  950   3.453  -0.007   0.511 -1.0916  0.4968  0.4536
  226SOL    MW4  951   3.501   0.065   0.522 -0.1709  0.0183 -0.3511
  227SOL     OW  952   4.183   1.334   0.445 -0.2189  0.5284  0.2505
  227SOL    HW2  953   4.187   1.333   0.541 -1.3603  1.7874  0.3101
  227SOL    HW3  954   4.218   1.419   0.420 -1.6148  0.9284 -0.3702
  227SOL    MW4  955   4.188   1.345   0.454 -0.5536  0.7473  0.1765
  228SOL     OW  956   0.130   1.407   0.374  0.0912 -0.5695  0.4069
  228SOL    HW2  957   0.048   1.415   0.326  0.1224 -0.5817  0.3504
  228SOL    HW3  958   0.126   1.321   0.415 -0.9629  0.3947  2.3739
  228SOL    MW4  959   0.119   1.397   0.373 -0.0438 -0.4437  0.6590
  229SOL     OW  960   3.900   2.186   0.476  0.0155  0.0995  0.6532
  229SOL    HW2  961   3.825   2.195   0.417 -0.9546  0.0952  1.8654
  229SOL    HW3  962   3.910   2.274   0.514  0.7784  0.1597  0.3254
  229SOL    MW4  963   3.891   2.199   0.473 -0.0119  0.1070  0.7699
  230SOL     OW  964   4.074   1.963   0.430  0.3069  0.5506  0.1208
  230SOL    HW2  965   4.040   1.935   0.345  1.2522  1.0870 -0.4504
  230SOL    HW3  966   4.022   2.039   0.453 -0.4448 -0.0358  0.3771
  230SOL    MW4  967   4.063   1.969   0.422  0.3328  0.5441  0.0793
  231SOL     OW  968   4.418   2.276   0.485  0.1829  0.0075  0.5772
  231SOL    HW2  969   4.354   2.347   0.488 -1.3380 -1.2004 -1.7950
  231SOL    HW3  970   4.503   2.320   0.481 -0.6670  1.6528  0.4331
  231SOL    MW4  971   4.421   2.291   0.485 -0.1297  0.0653  0.2452
  232SOL     OW  972   4.324   2.058   0.328  0.0279 -0.1692 -0.2462
  232SOL    HW2  973   4.235   2.043   0.359 -0.4093  0.3783 -1.2260
  232SOL    HW3  974   4.352   2.138   0.373  0.0225 -0.3340  0.0514
  232SOL    MW4  975   4.316   2.067   0.338 -0.0300 -0.1185 -0.3362
  233SOL     OW  976   4.263   2.516   0.527  0.0015  0.6266 -0.5534
  233SOL    HW2  977   4.279   2.593   0.471 -1.7516  1.3962 -0.0264
  233SOL    HW3  978   4.325   2.526   0.599  0.6955  0.8521 -1.1767
  233SOL    MW4  979   4.273   2.528   0.529 -0.1383  0.7579 -0.5661
  234SOL     OW  980   3.616   2.972   0.208  0.5772  0.2243  0.4157
  234SOL    HW2  981   3.582   3.017   0.286 -0.8848  1.3367 -0.8175
  234SOL    HW3  982   3.666   3.038   0.161 -0.2239  0.1544 -0.5828
  234SOL    MW4  983   3.618   2.987   0.212  0.2785  0.3617  0.1213
  235SOL     OW  984   4.001   2.420   0.564 -0.3346  0.1118  0.2555
  235SOL    HW2  985   4.002   2.416   0.660 -0.4233  1.5802  0.3372
  235SOL    HW3  986   4.091   2.444   0.541 -0.3766  0.0046 -0.0121
  235SOL    MW4  987   4.013   2.423   0.574 -0.3524  0.2913  0.2310
  236SOL     OW  988   0.220   3.818   0.433  0.4010  0.1168  0.2203
  236SOL    HW2  989   0.168   3.893   0.461  0.8275  0.3109  0.4888
  236SOL    HW3  990   0.305   3.854   0.410 -0.0440  0.0305 -1.7147
  236SOL    MW4  991   0.224   3.832   0.433  0.3986  0.1311  0.0004
  237SOL     OW  992   3.937   3.549   0.410 -0.1994  0.3514  0.1873
  237SOL    HW2  993   3.885   3.625   0.437 -0.2708 -0.1079  1.3728
  237SOL    HW3  994   4.008   3.586   0.356 -0.4645  1.2093  0.4227
  237SOL    MW4  995   3.940   3.564   0.406 -0.2437  0.4041  0.3747
  238SOL     OW  996   0.458   3.189   0.503 -0.3032  0.0732  0.3067
  238SOL    HW2  997   0.425   3.236   0.580  0.8048  1.3476  0.0195
  238SOL    HW3  998   0.503   3.256   0.451 -1.0528 -0.7615 -1.4694
  238SOL    MW4  999   0.459   3.204   0.506 -0.2559  0.1311  0.0345
  239SOL     OW 1000   3.802   3.768   0.497 -0.0600  0.5056  0.3246
  239SOL    HW2 1001   3.711   3.793   0.478 -0.2734 -0.6327 -0.1634
  239SOL    HW3 1002   3.798   3.726   0.583 -0.2532 -1.0077 -0.4189
  239SOL    MW4 1003   3.789   3.766   0.506 -0.1137  0.1557  0.1622
  240SOL     OW 1004   3.900   3.139   0.289 -0.3578  0.2771  0.2347
  240SOL    HW2 1005   3.994   3.135   0.309 -0.3456  0.0383  0.1426
  240SOL    HW3 1006   3.857   3.120   0.372 -0.3170 -0.0882  0.1737
  240SOL    MW4 1007   3.907   3.136   0.302 -0.3510  0.1974  0.2145
  241SOL     OW 1008   0.102   4.069   0.506  0.7927  0.0515  0.5393
  241SOL    HW2 1009   0.022   4.104   0.467  1.2138  0.0865 -0.3091
  241SOL    HW3 1010   0.083   4.065   0.600  0.2983  1.3550  0.5038
  241SOL    MW4 1011   0.089   4.073   0.513  0.7831  0.2275  0.4226
  242SOL     OW 1012   4.369   4.177   0.372  0.1416 -0.2465  0.2380
  242SOL    HW2 1013   4.366   4.186   0.277 -2.6043 -0.3566  0.2717
  242SOL    HW3 1014   4.318   4.251   0.405  0.0578 -0.8810  1.5758
  242SOL    MW4 1015   4.362   4.188   0.364 -0.2317 -0.3448  0.4190
  243SOL     OW 1016   3.818   4.172   0.405  0.2938 -0.8917  0.3049
  243SOL    HW2 1017   3.726   4.168   0.431 -0.1113  0.4527 -0.8642
  243SOL    HW3 1018   3.816   4.181   0.310  1.5978  0.0042  0.3455
  243SOL    MW4 1019   3.806   4.173   0.396  0.4122 -0.5965  0.1560
  244SOL     OW 1020   4.193   4.360   0.507  0.5356 -0.3295  0.0813
  244SOL    HW2 1021   4.222   4.375   0.597 -0.8566 -0.7585  0.6181
  244SOL    HW3 1022   4.098   4.364   0.511  0.3658 -2.2767 -1.0188
  244SOL    MW4 1023   4.184   4.362   0.519  0.3295 -0.6433  0.0070
  245SOL     OW 1024   0.228   0.027   0.879 -0.4141 -0.6230  0.0888
  245SOL    HW2 1025   0.230  -0.056   0.830  0.9145  0.6320 -2.0808
  245SOL    HW3 1026   0.144   0.067   0.856 -0.2560 -0.5273 -0.3221
  245SOL    MW4 1027   0.217   0.021   0.870 -0.2180 -0.4447 -0.2517
  246SOL     OW 1028   4.489   0.148   0.785 -0.3865 -0.1263 -0.6227
  246SOL    HW2 1029   4.421   0.094   0.824 -1.3126  0.5269 -1.3042
  246SOL    HW3 1030   4.489   0.229   0.836 -0.9747  0.3649 -1.3807
  246SOL    MW4 1031   4.480   0.152   0.797 -0.5860  0.0246 -0.8126
  247SOL     OW 1032   4.474   0.414   0.903 -0.0086  0.1445 -0.2742
  247SOL    HW2 1033   4.484   0.429   0.997 -0.8055 -0.6937 -0.0492
  247SOL    HW3 1034   4.550   0.458   0.863 -0.7591  2.2673  0.5762
  247SOL    MW4 1035   4.486   0.422   0.910 -0.2127  0.3140 -0.1323
  248SOL     OW 1036   0.208   0.560   0.815  0.1832 -0.3789  0.1587
  248SOL    HW2 1037   0.285   0.527   0.861 -0.4833  0.1374  1.6805
  248SOL    HW3 1038   0.193   0.647   0.853 -0.6977 -0.1691 -0.6512
  248SOL    MW4 1039   0.216   0.567   0.826 -0.0210 -0.2831  0.2526
  249SOL     OW 1040   0.193   0.844   0.873 -0.2652  0.2038 -0.2169
  249SOL    HW2 1041   0.199   0.876   0.964 -1.8446 -0.5265  0.1686
  249SOL    HW3 1042   0.133   0.906   0.831  0.5213  0.5776 -0.7823
  249SOL    MW4 1043   0.186   0.857   0.880 -0.3698  0.1567 -0.2407
  250SOL     OW 1044   4.446   0.958   0.749  0.7030  0.1201  0.0885
  250SOL    HW2 1045   4.380   0.893   0.774  1.6787 -1.0096 -0.2143
  250SOL    HW3 1046   4.414   0.993   0.666  1.0421 -1.2540 -0.6412
  250SOL    MW4 1047   4.433   0.954   0.741  0.8769 -0.2102 -0.0477
  251SOL     OW 1048   4.438   1.222   0.849 -0.1018 -0.0719  0.1623
  251SOL    HW2 1049   4.420   1.223   0.943  0.8036  0.3513  0.3372
  251SOL    HW3 1050   4.439   1.130   0.826 -2.0929 -0.1340  0.2141
  251SOL    MW4 1051   4.436   1.210   0.858 -0.2451 -0.0242  0.1922
  252SOL     OW 1052   0.186   1.271   0.709  0.0327 -0.2766 -0.8044
  252SOL    HW2 1053   0.107   1.273   0.764  0.0537  0.4252 -0.7963
  252SOL    HW3 1054   0.157   1.232   0.627 -0.0542 -1.1137 -0.3744
  252SOL    MW4 1055   0.172   1.266   0.705  0.0240 -0.2943 -0.7465
  253SOL     OW 1056   0.245   1.513   0.846 -0.0866 -0.2058  0.0794
  253SOL    HW2 1057   0.323   1.565   0.826  0.9097 -1.2277  1.1445
  253SOL    HW3 1058   0.242   1.446   0.777  0.7793 -0.9919  0.7806
  253SOL    MW4 1059   0.255   1.511   0.834  0.1591 -0.4444  0.3124
  254SOL     OW 1060   0.051   1.697   0.768  0.3820  0.3937  0.2767
  254SOL    HW2 1061  -0.028   1.647   0.786  1.1611 -0.7938  0.4415
  254SOL    HW3 1062   0.123   1.642   0.800  1.1638  2.2279  1.8242
  254SOL    MW4 1063   0.050   1.683   0.775  0.5879  0.4791  0.5026
  255SOL     OW 1064   0.002   1.956   0.809 -0.1180  0.6745 -0.2823
  255SOL    HW2 1065   0.086   1.992   0.780  1.2771 -1.7695  0.5378
  255SOL    HW3 1066   0.009   1.862   0.790 -1.2175 -0.1494  3.0465
  255SOL    MW4 1067   0.014   1.948   0.803 -0.0790  0.2434  0.2650
  256SOL     OW 1068   0.227   2.093   0.716 -0.4141 -0.3842 -0.0491
  256SOL    HW2 1069   0.189   2.178   0.737 -0.4628 -0.1691 -1.0033
  256SOL    HW3 1070   0.278   2.109   0.637 -2.1231 -1.7014 -1.4470
  256SOL    MW4 1071   0.229   2.107   0.708 -0.6460 -0.5298 -0.3594
  257SOL     OW 1072   0.178   2.369   0.808 -0.5026 -0.1082 -0.6763
  257SOL    HW2 1073   0.180   2.339   0.899  0.0353 -2.8053 -1.5189
  257SOL    HW3 1074   0.258   2.419   0.797 -0.9298  0.8592  0.5220
  257SOL    MW4 1075   0.189   2.371   0.819 -0.4880 -0.3364 -0.6294
  258SOL     OW 1076   4.434   2.493   0.752 -0.1196 -0.2990  0.1311
  258SOL    HW2 1077   4.375   2.431   0.795 -1.2327 -0.0735 -1.0270
  258SOL    HW3 1078   4.519   2.451   0.753 -0.6124 -1.3010  0.4811
  258SOL    MW4 1079   4.437   2.479   0.758 -0.3319 -0.4015  0.0246
  259SOL     OW 1080   4.477   2.737   0.875 -0.4923 -0.6508  0.4139
  259SOL    HW2 1081   4.469   2.731   0.970 -0.1711  2.0515  0.6546
  259SOL    HW3 1082   4.478   2.646   0.845 -2.1594 -1.5177  2.8435
  259SOL    MW4 1083   4.476   2.724   0.884 -0.6699 -0.4086  0.7662
  260SOL     OW 1084   0.176   2.892   0.756 -0.4243  0.0317  0.1915
  260SOL    HW2 1085   0.123   2.829   0.804 -0.5808 -0.3126 -0.4274
  260SOL    HW3 1086   0.159   2.872   0.664 -0.9900  1.3963 -0.0138
  260SOL    MW4 1087   0.167   2.881   0.750 -0.5196  0.1664  0.0828
  261SOL     OW 1088   0.258   3.104   0.899  0.4680 -0.2977 -0.2387
  261SOL    HW2 1089   0.230   3.072   0.985  0.9406  0.2943  0.1345
  261SOL    HW3 1090   0.233   3.034   0.839  1.5941 -1.4606  0.5928
  261SOL    MW4 1091   0.251   3.090   0.903  0.6789 -0.3729 -0.0798
  262SOL     OW 1092   0.002   3.285   0.868 -0.4351 -0.0471  0.3709
  262SOL    HW2 1093   0.084   3.246   0.898  0.1723  2.2113  1.6884
  262SOL    HW3 1094   0.019   3.306   0.776 -0.0134 -0.8114  0.2638
  262SOL    MW4 1095   0.015   3.282   0.860 -0.2995  0.1502  0.5306
  263SOL     OW 1096   0.010   3.535   0.923  0.3582  0.2696  0.3990
  263SOL    HW2 1097  -0.066   3.585   0.893  1.5760  1.6076 -0.5082
  263SOL    HW3 1098  -0.014   3.443   0.908 -0.9752  0.6864 -0.1086
  263SOL    MW4 1099  -0.003   3.529   0.917  0.3428  0.5012  0.2124
  264SOL     OW 1100   0.218   3.664   0.796  0.6277  0.0185 -0.1506
  264SOL    HW2 1101   0.140   3.620   0.829  1.1514 -0.4488  0.4853
  264SOL    HW3 1102   0.227   3.631   0.706 -1.0266  1.6069 -0.9308
  264SOL    MW4 1103   0.209   3.654   0.788  0.4785  0.1664 -0.1696
  265SOL     OW 1104   0.275   3.917   0.876  0.1558  0.0756 -0.0112
  265SOL    HW2 1105   0.268   3.905   0.971  0.7243  0.3426  0.0713
  265SOL    HW3 1106   0.263   3.830   0.839 -0.7801  0.0844  0.2629
  265SOL    MW4 1107   0.273   3.904   0.884  0.1073  0.1121  0.0358
  266SOL     OW 1108   0.036   4.044   0.777  0.0992  0.1591 -0.3898
  266SOL    HW2 1109  -0.043   3.993   0.795 -0.1640  0.8127  0.2994
  266SOL    HW3 1110   0.108   3.990   0.811 -0.3419  1.1588  2.2722
  266SOL    MW4 1111   0.035   4.030   0.784  0.0063  0.3772  0.0523
  267SOL     OW 1112   0.012   4.291   0.913 -0.2137  0.2794  0.3898
  267SOL    HW2 1113   0.017   4.274   1.007  0.2444 -0.5983  0.2179
  267SOL    HW3 1114   0.014   4.204   0.873  1.5192  0.7176 -0.5131
  267SOL    MW4 1115   0.013   4.277   0.920  0.0753  0.2213  0.2479
  268SOL     OW 1116   0.234   4.428   0.784  0.2531 -0.1186 -0.2947
  268SOL    HW2 1117   0.148   4.394   0.810  0.6636 -1.1004 -0.2112
  268SOL    HW3 1118   0.251   4.390   0.698  1.1195 -0.8539  0.1989
  268SOL    MW4 1119   0.225   4.419   0.776  0.4216 -0.3452 -0.2186
  269SOL     OW 1120   0.682   0.019   0.845 -0.5055  0.1011  0.1559
  269SOL    HW2 1121   0.686   0.030   0.940 -1.8925  0.4163  0.1848
  269SOL    HW3 1122   0.606   0.071   0.818 -1.0223 -1.2011 -0.9349
  269SOL    MW4 1123   0.673   0.027   0.854 -0.7567 -0.0291  0.0159
  270SOL     OW 1124   0.451   0.162   0.775  0.1269 -0.5359 -0.6366
  270SOL    HW2 1125   0.371   0.120   0.805  1.0213 -3.2017 -1.7837
  270SOL    HW3 1126   0.423   0.219   0.704 -0.7734 -1.5663 -1.1351
  270SOL    MW4 1127   0.437   0.164   0.770  0.1261 -1.0236 -0.8537
  271SOL     OW 1128   0.444   0.415   0.908  0.3501 -0.0409 -0.3431
  271SOL    HW2 1129   0.516   0.450   0.856  1.3726  0.1973  1.1950
  271SOL    HW3 1130   0.436   0.324   0.881  1.0843 -0.0001 -0.6990
  271SOL    MW4 1131   0.452   0.407   0.898  0.5819 -0.0041 -0.1872
  272SOL     OW 1132   0.656   0.531   0.731 -0.1661  0.2166 -0.1692
  272SOL    HW2 1133   0.741   0.497   0.758 -1.0296 -2.1568 -0.3932
  272SOL    HW3 1134   0.658   0.524   0.635 -0.7495 -0.1397 -0.1510
  272SOL    MW4 1135   0.668   0.526   0.722 -0.3570 -0.1436 -0.1963
  273SOL     OW 1136   0.646   0.784   0.859  0.1010 -0.2536 -0.2964
  273SOL    HW2 1137   0.573   0.838   0.832 -0.1727 -0.9049 -0.8883
  273SOL    HW3 1138   0.648   0.712   0.795  1.0644 -0.4041 -0.1151
  273SOL    MW4 1139   0.637   0.781   0.847  0.1919 -0.3594 -0.3506
  274SOL     OW 1140   0.434   0.940   0.766  0.1396 -0.6387  0.4289
  274SOL    HW2 1141   0.453   1.022   0.812 -1.0163  0.1872 -0.5157
  274SOL    HW3 1142   0.358   0.904   0.812 -0.0498 -0.5991  0.1519
  274SOL    MW4 1143   0.426   0.946   0.778 -0.0379 -0.5245  0.2677
  275SOL     OW 1144   0.425   1.175   0.903  0.3238  0.0420 -0.0660
  275SOL    HW2 1145   0.497   1.220   0.859  0.3214 -1.3200 -1.5026
  275SOL    HW3 1146   0.346   1.206   0.858 -0.0320  1.7085  1.6570
  275SOL    MW4 1147   0.424   1.185   0.891  0.2765  0.0823 -0.0282
  276SOL     OW 1148   0.656   1.261   0.749 -0.7228  0.2612 -0.2381
  276SOL    HW2 1149   0.681   1.352   0.766  1.0247 -0.0370 -1.1421
  276SOL    HW3 1150   0.648   1.255   0.654 -1.9581 -0.2565 -0.1135
  276SOL    MW4 1151   0.658   1.272   0.739 -0.6552  0.1537 -0.3409
  277SOL     OW 1152   0.660   1.530   0.840 -0.1748  0.4280  0.1498
  277SOL    HW2 1153   0.654   1.555   0.932 -1.0174  1.1880 -0.1102
  277SOL    HW3 1154   0.596   1.585   0.796  0.2363  0.0724 -0.8982
  277SOL    MW4 1155   0.651   1.540   0.846 -0.2317  0.4814 -0.0227
  278SOL     OW 1156   0.450   1.681   0.747  0.3529 -0.1560 -0.2941
  278SOL    HW2 1157   0.433   1.767   0.786 -0.5299 -0.7791  0.7512
  278SOL    HW3 1158   0.456   1.697   0.653  0.2587  1.0544 -0.0963
  278SOL    MW4 1159   0.448   1.694   0.740  0.2240 -0.0786 -0.1301
  279SOL     OW 1160   0.412   1.931   0.854  0.1939  0.5868  0.0945
  279SOL    HW2 1161   0.402   1.926   0.949  0.7531  0.3999  0.1434
  279SOL    HW3 1162   0.339   1.986   0.825 -1.5183 -1.4797  0.3523
  279SOL    MW4 1163   0.401   1.938   0.862  0.0418  0.2894  0.1349
  280SOL     OW 1164   0.629   2.115   0.793 -0.1369 -0.6496  0.1188
  280SOL    HW2 1165   0.555   2.057   0.810  0.1305 -1.0179  0.0073
  280SOL    HW3 1166   0.619   2.140   0.701 -0.0528 -0.7931  0.0715
  280SOL    MW4 1167   0.618   2.111   0.783 -0.0905 -0.7169  0.0979
  281SOL     OW 1168   0.623   2.373   0.876  0.0259  0.4926  0.2897
  281SOL    HW2 1169   0.638   2.374   0.971  0.5626  0.6455  0.2041
  281SOL    HW3 1170   0.635   2.282   0.850  0.5312  0.5651  0.2659
  281SOL    MW4 1171   0.626   2.361   0.885  0.1634  0.5224  0.2754
  282SOL     OW 1172   0.407   2.500   0.750 -0.3693 -0.3632  0.2114
  282SOL    HW2 1173   0.489   2.458   0.775 -0.4750 -1.3177 -0.9629
  282SOL    HW3 1174   0.421   2.529   0.660 -1.2673 -0.4026  0.0495
  282SOL    MW4 1175   0.419   2.498   0.741 -0.5018 -0.4942  0.0352
  283SOL     OW 1176   0.428   2.771   0.890  0.5089  0.3565  0.1699
  283SOL    HW2 1177   0.421   2.682   0.858  0.0468 -0.0977  1.5050
  283SOL    HW3 1178   0.354   2.817   0.850  0.9057  0.2172 -0.7328
  283SOL    MW4 1179   0.417   2.766   0.880  0.5003  0.2782  0.2269
  284SOL     OW 1180   0.670   2.888   0.852 -0.0155 -0.2909 -0.4168
  284SOL    HW2 1181   0.737   2.827   0.882 -0.2352  0.3565  1.4871
  284SOL    HW3 1182   0.588   2.853   0.887 -0.3018  0.4129 -0.3731
  284SOL    MW4 1183   0.668   2.875   0.861 -0.0822 -0.1128 -0.1599
  285SOL     OW 1184   0.661   3.160   0.898  0.2681 -0.2851 -0.1459
  285SOL    HW2 1185   0.575   3.184   0.863  0.0342 -1.5252 -0.4409
  285SOL    HW3 1186   0.662   3.064   0.895  1.4277 -0.2928  0.4191
  285SOL    MW4 1187   0.650   3.150   0.893  0.3903 -0.4497 -0.1103
  286SOL     OW 1188   0.424   3.274   0.756 -0.4155 -0.2456 -0.0092
  286SOL    HW2 1189   0.435   3.358   0.802 -0.3907 -0.2594  0.0101
  286SOL    HW3 1190   0.366   3.223   0.813 -0.9416 -0.0090 -0.3257
  286SOL    MW4 1191   0.418   3.278   0.770 -0.4816 -0.2162 -0.0483
  287SOL     OW 1192   0.442   3.520   0.882 -0.3082  0.2055 -0.3794
  287SOL    HW2 1193   0.452   3.507   0.977  0.9050 -0.2149 -0.5658
  287SOL    HW3 1194   0.356   3.563   0.873 -0.8491 -0.5990  0.8385
  287SOL    MW4 1195   0.432   3.524   0.894 -0.2195  0.0441 -0.2433
  288SOL     OW 1196   0.666   3.664   0.789  0.2724  0.1257  0.1970
  288SOL    HW2 1197   0.583   3.636   0.828 -0.1957  0.1572 -0.7647
  288SOL    HW3 1198   0.666   3.760   0.798 -0.1612  0.1951 -0.5161
  288SOL    MW4 1199   0.655   3.673   0.795  0.1535  0.1390 -0.0240
  289SOL     OW 1200   0.670   3.928   0.872 -0.1948 -0.1912  0.0366
  289SOL    HW2 1201   0.742   3.969   0.824  0.6328 -1.0836  0.5125
  289SOL    HW3 1202   0.593   3.982   0.851  0.4856  0.3945 -0.9621
  289SOL    MW4 1203   0.669   3.941   0.863  0.0041 -0.2317 -0.0324
  290SOL     OW 1204   0.468   4.085   0.737  0.1450 -0.3100 -0.0423
  290SOL    HW2 1205   0.450   4.168   0.782 -1.5235  0.5689 -2.2584
  290SOL    HW3 1206   0.401   4.025   0.770 -0.2711 -0.0347 -0.3845
  290SOL    MW4 1207   0.457   4.088   0.747 -0.1301 -0.1578 -0.3799
  291SOL     OW 1208   0.451   4.312   0.892 -0.4514 -0.2186 -0.0928
  291SOL    HW2 1209   0.452   4.292   0.985 -2.0912 -1.3638 -0.3042
  291SOL    HW3 1210   0.374   4.367   0.880 -0.8281 -0.9292 -0.9425
  291SOL    MW4 1211   0.441   4.317   0.903 -0.7174 -0.4635 -0.2328
  292SOL     OW 1212   0.679   4.411   0.784 -0.4592  0.3047  0.3768
  292SOL    HW2 1213   0.602   4.380   0.833  0.1491 -0.9477  0.5713
  292SOL    HW3 1214   0.687   4.503   0.808 -0.7973 -0.0205  1.8311
  292SOL    MW4 1215   0.670   4.419   0.794 -0.4236  0.0958  0.5943
  293SOL     OW 1216   1.179   0.009   0.849  0.1162 -0.3059 -1.0722
  293SOL    HW2 1217   1.231   0.070   0.796 -0.6471  0.6069 -0.7702
  293SOL    HW3 1218   1.090   0.044   0.847  0.2690  0.2724  1.6175
  293SOL    MW4 1219   1.174   0.021   0.842  0.0355 -0.1091 -0.6775
  294SOL     OW 1220   0.930   0.114   0.766 -0.4271 -0.5979  0.1573
  294SOL    HW2 1221   0.908   0.206   0.782  1.2266 -0.4721  1.8461
  294SOL    HW3 1222   0.850   0.066   0.789 -1.2506  0.3863 -0.5975
  294SOL    MW4 1223   0.916   0.120   0.771 -0.3175 -0.4515  0.2806
  295SOL     OW 1224   0.879   0.393   0.802 -0.3863  0.0319 -0.1099
  295SOL    HW2 1225   0.866   0.396   0.897 -0.3435 -0.5740 -0.0890
  295SOL    HW3 1226   0.961   0.442   0.788  0.1632 -0.7822  0.2626
  295SOL    MW4 1227   0.888   0.400   0.813 -0.3080 -0.1555 -0.0580
  296SOL     OW 1228   1.129   0.503   0.717  0.5984  0.3245 -0.4042
  296SOL    HW2 1229   1.206   0.472   0.764  0.3759 -0.8694 -0.8020
  296SOL    HW3 1230   1.150   0.490   0.625 -0.7749 -1.7545 -0.4624
  296SOL    MW4 1231   1.142   0.497   0.711  0.3879 -0.1073 -0.4644
  297SOL     OW 1232   1.164   0.779   0.785  0.1951  0.3628 -0.3796
  297SOL    HW2 1233   1.148   0.787   0.879 -0.7307 -1.6483 -0.3497
  297SOL    HW3 1234   1.144   0.688   0.765  0.8739  0.6490 -2.4465
  297SOL    MW4 1235   1.160   0.768   0.795  0.1625  0.1352 -0.6484
  298SOL     OW 1236   0.881   0.894   0.732 -0.0669 -0.2007 -0.5969
  298SOL    HW2 1237   0.965   0.852   0.745 -0.0898 -0.3072 -0.7907
  298SOL    HW3 1238   0.825   0.859   0.801 -0.1077 -0.5406 -0.8037
  298SOL    MW4 1239   0.885   0.884   0.742 -0.0753 -0.2596 -0.6497
  299SOL     OW 1240   0.898   1.156   0.806 -0.7288  0.2969  0.2911
  299SOL    HW2 1241   0.899   1.066   0.772 -0.9274  1.4937 -3.0356
  299SOL    HW3 1242   0.816   1.193   0.772  0.7160  2.6092 -0.7338
  299SOL    MW4 1243   0.887   1.149   0.797 -0.5644  0.7597 -0.2831
  300SOL     OW 1244   1.118   1.331   0.782 -0.0761 -0.1494  0.0602
  300SOL    HW2 1245   1.037   1.282   0.792  0.1608 -0.6335 -0.3637
  300SOL    HW3 1246   1.113   1.369   0.694 -0.2996  0.6662  0.4187
  300SOL    MW4 1247   1.107   1.329   0.772 -0.0743 -0.1057  0.0516
  301SOL     OW 1248   1.042   1.569   0.914 -0.0673  0.1794 -0.1775
  301SOL    HW2 1249   0.977   1.614   0.860  0.2462  0.8208 -0.0230
  301SOL    HW3 1250   1.055   1.485   0.870 -0.9230  0.0923 -0.2656
  301SOL    MW4 1251   1.035   1.564   0.901 -0.1389  0.2526 -0.1687
  302SOL     OW 1252   0.857   1.681   0.745 -0.2497 -0.3647 -0.2631
  302SOL    HW2 1253   0.851   1.764   0.794  0.2722 -0.8719  0.6921
  302SOL    HW3 1254   0.787   1.627   0.780 -0.2927 -0.4929 -0.5473
  302SOL    MW4 1255   0.847   1.685   0.756 -0.1866 -0.4485 -0.1746
  303SOL     OW 1256   0.833   1.938   0.834  0.1638 -0.3524  0.3410
  303SOL    HW2 1257   0.838   1.952   0.928  1.6253  2.7799 -0.1529
  303SOL    HW3 1258   0.768   2.001   0.804  0.3367 -0.7331 -0.8519
  303SOL    MW4 1259   0.825   1.948   0.842  0.3794  0.0106  0.1185
  304SOL     OW 1260   1.084   2.053   0.743  0.4019  0.0843  0.4767
  304SOL    HW2 1261   1.072   2.141   0.778 -0.4484  0.4500 -0.6854
  304SOL    HW3 1262   1.006   2.005   0.771 -2.0273  1.3177 -3.6175
  304SOL    MW4 1263   1.072   2.059   0.751 -0.0308  0.2954 -0.2168
  305SOL     OW 1264   1.056   2.308   0.859  0.3222 -0.0367 -0.1000
  305SOL    HW2 1265   1.047   2.307   0.954  0.8058  0.4425 -0.0482
  305SOL    HW3 1266   1.140   2.351   0.842  0.8115 -1.1876 -0.7075
  305SOL    MW4 1267   1.066   2.314   0.869  0.4506 -0.1254 -0.1733
  306SOL     OW 1268   0.850   2.452   0.754  0.0990  0.1011  0.1380
  306SOL    HW2 1269   0.913   2.386   0.783  0.5504  0.4208 -0.1155
  306SOL    HW3 1270   0.768   2.427   0.798 -0.3582 -2.0259 -1.7923
  306SOL    MW4 1271   0.848   2.440   0.764  0.0983 -0.1376 -0.1501
  307SOL     OW 1272   0.880   2.712   0.887  0.1595 -0.0577  0.1644
  307SOL    HW2 1273   0.886   2.713   0.982  0.3622 -0.3617  0.1547
  307SOL    HW3 1274   0.878   2.619   0.864  1.6104 -0.0028 -0.2261
  307SOL    MW4 1275   0.880   2.700   0.896  0.3777 -0.0906  0.1116
  308SOL     OW 1276   1.126   2.817   0.815  0.0951 -0.0312 -0.0866
  308SOL    HW2 1277   1.037   2.791   0.842  0.3260 -0.6518  0.0891
  308SOL    HW3 1278   1.122   2.816   0.719  0.1501 -0.9206 -0.0871
  308SOL    MW4 1279   1.114   2.813   0.806  0.1328 -0.2303 -0.0635
  309SOL     OW 1280   1.132   3.122   0.847 -0.1282  0.2351  0.1682
  309SOL    HW2 1281   1.055   3.176   0.829 -0.7132 -0.5608  0.2459
  309SOL    HW3 1282   1.110   3.036   0.811  0.2144 -0.3459  1.3362
  309SOL    MW4 1283   1.119   3.118   0.840 -0.1601  0.0536  0.3325
  310SOL     OW 1284   0.905   3.275   0.776 -0.1801  0.1415 -0.1988
  310SOL    HW2 1285   0.893   3.366   0.804 -1.4253 -0.3367  0.8824
  310SOL    HW3 1286   0.829   3.229   0.812 -1.0393 -0.8026 -3.0525
  310SOL    MW4 1287   0.893   3.281   0.784 -0.4578 -0.0460 -0.4327
  311SOL     OW 1288   0.899   3.533   0.876 -0.1895 -0.5259 -0.0182
  311SOL    HW2 1289   0.970   3.568   0.822 -1.0080 -2.8059 -2.6782
  311SOL    HW3 1290   0.819   3.573   0.841 -0.5327 -0.3303  0.9583
  311SOL    MW4 1291   0.898   3.543   0.864 -0.3428 -0.8008 -0.2403
  312SOL     OW 1292   1.114   3.651   0.774  0.0500 -0.2329  0.7005
  312SOL    HW2 1293   1.195   3.610   0.805  0.4988  0.0868 -0.0224
  312SOL    HW3 1294   1.119   3.642   0.678 -0.3691  0.5355  0.6105
  312SOL    MW4 1295   1.125   3.644   0.765  0.0540 -0.0894  0.5932
  313SOL     OW 1296   1.067   3.890   0.906 -0.1611  0.5339  0.0374
  313SOL    HW2 1297   1.080   3.874   1.000  2.0691 -0.0541 -0.3386
  313SOL    HW3 1298   1.078   3.804   0.866  0.1150  1.0028 -0.8878
  313SOL    MW4 1299   1.070   3.876   0.913  0.1696  0.5183 -0.1343
  314SOL     OW 1300   0.881   4.038   0.741 -0.2376 -0.0430 -0.4642
  314SOL    HW2 1301   0.888   4.128   0.775 -1.6975 -0.4417  0.9705
  314SOL    HW3 1302   0.954   3.992   0.780 -0.7475  0.0011  0.5681
  314SOL    MW4 1303   0.891   4.044   0.751 -0.4975 -0.0896 -0.1387
  315SOL     OW 1304   0.915   4.292   0.866 -0.8012 -0.0222  0.4246
  315SOL    HW2 1305   0.987   4.349   0.836 -0.1886 -1.3927 -0.7534
  315SOL    HW3 1306   0.836   4.336   0.834 -0.4422  1.0934  1.0553
  315SOL    MW4 1307   0.914   4.306   0.858 -0.6730 -0.0558  0.3524
  316SOL     OW 1308   1.144   4.419   0.778  0.0983  0.4039  0.1789
  316SOL    HW2 1309   1.223   4.373   0.806 -0.1232 -0.0314  0.0993
  316SOL    HW3 1310   1.162   4.511   0.796  0.7736  0.3487 -0.2039
  316SOL    MW4 1311   1.156   4.425   0.784  0.1581  0.3390  0.1180
  317SOL     OW 1312   1.566   4.662   0.798 -0.5431  0.1852 -0.1740
  317SOL    HW2 1313   1.564   4.662   0.894 -1.2522  0.0573 -0.1872
  317SOL    HW3 1314   1.486   4.709   0.772  0.4613  1.6671 -0.6928
  317SOL    MW4 1315   1.555   4.668   0.807 -0.5043  0.3638 -0.2441
  318SOL     OW 1316   1.354   0.161   0.691  0.4552  0.1763 -0.8556
  318SOL    HW2 1317   1.378   0.254   0.699  0.1884  0.0899  1.1625
  318SOL    HW3 1318   1.325   0.152   0.600  0.6542  2.0386 -1.1289
  318SOL    MW4 1319   1.353   0.172   0.680  0.4461  0.4106 -0.6254
  319SOL     OW 1320   1.347   0.407   0.847 -0.4196 -0.0147 -0.4627
  319SOL    HW2 1321   1.363   0.380   0.937 -2.5231 -0.4595 -0.2084
  319SOL    HW3 1322   1.428   0.452   0.821 -0.0322  0.6783  1.8426
  319SOL    MW4 1323   1.360   0.409   0.856 -0.6460  0.0180 -0.1249
  320SOL     OW 1324   1.536   0.520   0.689  0.0002 -0.3998 -0.1280
  320SOL    HW2 1325   1.547   0.612   0.712 -1.9639 -0.2018  0.0271
  320SOL    HW3 1326   1.624   0.483   0.698  0.7471  1.3820  0.0981
  320SOL    MW4 1327   1.549   0.528   0.693 -0.1605 -0.1386 -0.0777
  321SOL     OW 1328   1.567   0.775   0.803 -0.3223 -0.3731 -0.9730
  321SOL    HW2 1329   1.641   0.834   0.791 -2.2252  2.4933  0.8006
  321SOL    HW3 1330   1.491   0.826   0.778 -1.9278 -2.4688 -0.5225
  321SOL    MW4 1331   1.567   0.789   0.798 -0.7851 -0.2714 -0.6795
  322SOL     OW 1332   1.361   0.943   0.692  0.1057  0.0508 -0.5667
  322SOL    HW2 1333   1.360   1.011   0.759 -2.1528  1.1292 -1.6301
  322SOL    HW3 1334   1.287   0.886   0.715  0.9074 -1.0344 -0.6718
  322SOL    MW4 1335   1.351   0.944   0.704 -0.0865  0.0498 -0.7207
  323SOL     OW 1336   1.319   1.125   0.885 -0.3721  0.0836  0.6116
  323SOL    HW2 1337   1.386   1.193   0.892 -1.4970  1.1582  1.0515
  323SOL    HW3 1338   1.242   1.170   0.850 -1.2010 -0.9058  1.1328
  323SOL    MW4 1339   1.318   1.140   0.881 -0.6299  0.0949  0.7385
  324SOL     OW 1340   1.506   1.327   0.861 -0.1581  0.2880 -0.0628
  324SOL    HW2 1341   1.515   1.419   0.887 -2.8647  0.3129  0.9246
  324SOL    HW3 1342   1.506   1.329   0.765  2.4919  0.9997 -0.0846
  324SOL    MW4 1343   1.507   1.339   0.852 -0.1657  0.3853  0.0645
  325SOL     OW 1344   1.543   1.609   0.878 -0.0290 -0.1011 -0.1680
  325SOL    HW2 1345   1.546   1.604   0.974 -2.3074  0.1953 -0.0656
  325SOL    HW3 1346   1.450   1.617   0.857  0.5131  0.7650 -2.3672
  325SOL    MW4 1347   1.531   1.609   0.888 -0.2581  0.0523 -0.4447
  326SOL     OW 1348   1.291   1.634   0.799  0.2295  0.1475 -0.3501
  326SOL    HW2 1349   1.295   1.724   0.832 -1.5617  0.4847 -0.9639
  326SOL    HW3 1350   1.205   1.602   0.827  0.4565 -1.0469 -0.9657
  326SOL    MW4 1351   1.280   1.642   0.807  0.0231  0.0345 -0.5123
  327SOL     OW 1352   1.313   1.909   0.862  0.2713 -0.1900 -0.0474
  327SOL    HW2 1353   1.327   1.930   0.954 -0.9793  0.5490 -0.0185
  327SOL    HW3 1354   1.246   1.971   0.833  0.7729 -0.3059 -1.4961
  327SOL    MW4 1355   1.306   1.920   0.870  0.1725 -0.1078 -0.2348
  328SOL     OW 1356   1.511   2.058   0.722 -0.1911 -0.0070  0.0324
  328SOL    HW2 1357   1.434   2.014   0.757  0.1651 -0.6154  0.0543
  328SOL    HW3 1358   1.503   2.051   0.627  0.3974 -1.0468  0.0537
  328SOL    MW4 1359   1.500   2.052   0.714 -0.0664 -0.2246  0.0381
  329SOL     OW 1360   1.515   2.271   0.909  0.2469 -0.2071 -0.0514
  329SOL    HW2 1361   1.456   2.344   0.893 -1.4785 -1.1779  1.5346
  329SOL    HW3 1362   1.486   2.203   0.848 -0.7941 -0.9236  1.1879
  329SOL    MW4 1363   1.503   2.271   0.899 -0.1183 -0.4299  0.3213
  330SOL     OW 1364   1.304   2.431   0.809 -0.1310 -0.1722 -0.1400
  330SOL    HW2 1365   1.317   2.519   0.844 -1.5504 -0.5828  1.4504
  330SOL    HW3 1366   1.328   2.439   0.717  0.9342  1.5841  0.2501
  330SOL    MW4 1367   1.309   2.444   0.802 -0.1776  0.0050  0.1212
  331SOL     OW 1368   1.359   2.683   0.902 -0.1318 -0.1635 -0.0607
  331SOL    HW2 1369   1.350   2.703   0.995 -1.9958 -0.5790 -0.1315
  331SOL    HW3 1370   1.280   2.721   0.862  1.3864  1.3426 -1.6994
  331SOL    MW4 1371   1.347   2.691   0.909 -0.1774 -0.0198 -0.2862
  332SOL     OW 1372   1.521   2.821   0.717  0.2844  0.0039  0.1836
  332SOL    HW2 1373   1.539   2.913   0.738 -1.8382  1.0423 -2.3102
  332SOL    HW3 1374   1.462   2.791   0.786 -0.9551  1.2570 -0.3204
  332SOL    MW4 1375   1.516   2.829   0.729 -0.1591  0.3061 -0.2119
  333SOL     OW 1376   1.582   3.085   0.784  0.2926  0.1278  0.3236
  333SOL    HW2 1377   1.591   3.095   0.879 -1.3081  0.0748  0.5010
  333SOL    HW3 1378   1.510   3.143   0.761  0.6102  0.0657 -0.8538
  333SOL    MW4 1379   1.574   3.094   0.793  0.1235  0.1123  0.1916
  334SOL     OW 1380   1.360   3.251   0.745  0.2039 -0.1407 -0.4063
  334SOL    HW2 1381   1.281   3.206   0.775 -0.6177  1.4205 -0.1680
  334SOL    HW3 1382   1.333   3.295   0.664  1.0534 -0.2702 -0.7603
  334SOL    MW4 1383   1.346   3.251   0.738  0.2078  0.0484 -0.4216
  335SOL     OW 1384   1.362   3.508   0.895  0.1453  0.0409  0.0955
  335SOL    HW2 1385   1.432   3.566   0.865  0.2235 -0.1848 -0.1535
  335SOL    HW3 1386   1.376   3.427   0.847  0.4440 -0.4170  0.9345
  335SOL    MW4 1387   1.373   3.505   0.885  0.1948 -0.0494  0.1733
  336SOL     OW 1388   1.569   3.658   0.768  0.7672  0.0861  0.0392
  336SOL    HW2 1389   1.652   3.620   0.797  0.5285 -2.4668 -2.4595
  336SOL    HW3 1390   1.566   3.640   0.674 -2.1748  1.0292 -0.0917
  336SOL    MW4 1391   1.580   3.651   0.759  0.3476 -0.1261 -0.3078
  337SOL     OW 1392   1.556   3.909   0.868 -0.2185 -0.6244 -0.1454
  337SOL    HW2 1393   1.469   3.941   0.845  0.2343  0.6536 -0.1303
  337SOL    HW3 1394   1.561   3.822   0.828 -2.1627 -1.4833  1.3824
  337SOL    MW4 1395   1.545   3.902   0.860 -0.4152 -0.5689  0.0582
  338SOL     OW 1396   1.305   4.022   0.818  0.0108 -0.0233  0.0698
  338SOL    HW2 1397   1.239   3.984   0.875 -0.1275 -0.9936 -0.7309
  338SOL    HW3 1398   1.273   4.006   0.729  0.8505  0.3421 -0.3100
  338SOL    MW4 1399   1.292   4.015   0.814  0.1036 -0.1030 -0.0859
  339SOL     OW 1400   1.381   4.286   0.865  0.3740  0.4442 -0.8272
  339SOL    HW2 1401   1.444   4.313   0.798 -0.8840  1.0513 -1.7914
  339SOL    HW3 1402   1.372   4.191   0.852  1.0440  0.3723 -0.7377
  339SOL    MW4 1403   1.388   4.277   0.854  0.2964  0.5150 -0.9426
  340SOL     OW 1404   1.576   4.392   0.720  0.0378 -0.2962 -0.4620
  340SOL    HW2 1405   1.653   4.345   0.751  0.5901  0.0376 -1.2908
  340SOL    HW3 1406   1.586   4.480   0.755  0.0483 -0.2468 -0.5877
  340SOL    MW4 1407   1.588   4.398   0.728  0.1119 -0.2460 -0.5879
  341SOL     OW 1408   2.016   4.594   0.755 -0.0313  0.4565 -0.2333
  341SOL    HW2 1409   2.109   4.607   0.735  0.2949 -0.8738  0.3631
  341SOL    HW3 1410   1.996   4.507   0.721 -0.6922  0.1571  0.9112
  341SOL    MW4 1411   2.026   4.584   0.748 -0.0758  0.2413 -0.0036
  342SOL     OW 1412   1.817   0.110   0.703 -0.1854  0.1582 -0.4002
  342SOL    HW2 1413   1.879   0.041   0.724 -0.4932  0.0894  0.3069
  342SOL    HW3 1414   1.731   0.072   0.722 -0.4813  0.0819 -1.8358
  342SOL    MW4 1415   1.814   0.096   0.708 -0.2649  0.1390 -0.4963
  343SOL     OW 1416   1.795   0.384   0.757 -0.0161  0.1760  0.8876
  343SOL    HW2 1417   1.811   0.291   0.742  0.8760  0.1849  1.6981
  343SOL    HW3 1418   1.882   0.424   0.749 -0.4345  0.9747  0.2843
  343SOL    MW4 1419   1.809   0.377   0.754  0.0464  0.2825  0.9149
  344SOL     OW 1420   2.022   0.546   0.738  0.0566 -0.0413 -0.2466
  344SOL    HW2 1421   2.101   0.505   0.774 -0.0444  0.6037  0.7175
  344SOL    HW3 1422   2.048   0.573   0.650  1.6248  2.2011  0.8701
  344SOL    MW4 1423   2.036   0.544   0.731  0.2503  0.3397  0.0280
  345SOL     OW 1424   1.976   0.805   0.842 -0.3451 -0.1961 -0.3803
  345SOL    HW2 1425   2.057   0.842   0.806 -0.4337  0.0631 -0.3076
  345SOL    HW3 1426   1.978   0.713   0.814  0.0842 -0.2463 -0.1913
  345SOL    MW4 1427   1.987   0.798   0.833 -0.3002 -0.1685 -0.3458
  346SOL     OW 1428   1.769   0.952   0.773 -0.3730 -0.0487  0.1749
  346SOL    HW2 1429   1.792   1.043   0.795  0.1263  0.4445 -2.2458
  346SOL    HW3 1430   1.846   0.901   0.796 -0.1175  0.3451  0.1891
  346SOL    MW4 1431   1.782   0.958   0.779 -0.2733  0.0683 -0.1426
  347SOL     OW 1432   1.768   1.214   0.879  0.2768 -0.2055 -0.3286
  347SOL    HW2 1433   1.825   1.275   0.832  0.1569  0.7822  0.8161
  347SOL    HW3 1434   1.683   1.257   0.882  0.4914  0.1330  1.5519
  347SOL    MW4 1435   1.764   1.228   0.873  0.2892 -0.0305  0.0705
  348SOL     OW 1436   2.020   1.328   0.755 -0.0358  0.1602 -0.0659
  348SOL    HW2 1437   2.100   1.286   0.787  0.2584 -0.2830 -1.3563
  348SOL    HW3 1438   2.034   1.339   0.661 -1.7524 -0.5620 -0.4377
  348SOL    MW4 1439   2.032   1.324   0.747 -0.2234  0.0066 -0.2852
  349SOL     OW 1440   1.999   1.597   0.856  0.3128 -0.0346 -0.0010
  349SOL    HW2 1441   2.060   1.655   0.811  0.6863 -0.4524 -0.0360
  349SOL    HW3 1442   2.017   1.510   0.820 -1.4388  0.0861 -1.2418
  349SOL    MW4 1443   2.009   1.593   0.845  0.1314 -0.0739 -0.1693
  350SOL     OW 1444   1.763   1.652   0.704  0.1752  0.0702  0.0110
  350SOL    HW2 1445   1.835   1.635   0.766 -0.2883  0.3441  0.6341
  350SOL    HW3 1446   1.684   1.641   0.757 -0.2645 -0.9320 -0.8456
  350SOL    MW4 1447   1.762   1.649   0.719  0.0560 -0.0259 -0.0198
  351SOL     OW 1448   1.738   1.919   0.854 -0.5945  0.0397  0.0573
  351SOL    HW2 1449   1.757   1.845   0.796 -0.3012 -0.4483  0.7673
  351SOL    HW3 1450   1.660   1.959   0.816 -0.4428 -0.3128 -0.6403
  351SOL    MW4 1451   1.730   1.914   0.841 -0.5357 -0.0713  0.0589
  352SOL     OW 1452   1.954   2.059   0.763 -0.5170  0.4116  0.3005
  352SOL    HW2 1453   1.955   2.149   0.796 -0.1488  0.2401  0.7716
  352SOL    HW3 1454   1.875   2.020   0.800 -1.1833  0.8198 -0.6791
  352SOL    MW4 1455   1.944   2.066   0.772 -0.5565  0.4427  0.2334
  353SOL     OW 1456   1.964   2.308   0.874 -0.4280 -0.0109  0.3229
  353SOL    HW2 1457   1.972   2.297   0.969 -0.2130 -0.0851  0.2968
  353SOL    HW3 1458   1.888   2.365   0.862 -0.1450  0.4103  0.5584
  353SOL    MW4 1459   1.955   2.314   0.885 -0.3623  0.0348  0.3505
  354SOL     OW 1460   1.734   2.431   0.824  0.0435 -0.3802  0.8095
  354SOL    HW2 1461   1.665   2.371   0.853  0.1021 -0.6114  0.4674
  354SOL    HW3 1462   1.751   2.406   0.733  0.6894 -0.4219  0.9413
  354SOL    MW4 1463   1.727   2.420   0.816  0.1364 -0.4160  0.7817
  355SOL     OW 1464   1.731   2.718   0.853  0.0120 -0.5924  0.0839
  355SOL    HW2 1465   1.738   2.627   0.825  1.7463  0.0214 -1.5790
  355SOL    HW3 1466   1.650   2.749   0.814  0.0895 -1.0485 -0.4487
  355SOL    MW4 1467   1.722   2.710   0.844  0.2512 -0.5717 -0.2058
  356SOL     OW 1468   1.960   2.854   0.758  0.0843 -0.2407  0.4351
  356SOL    HW2 1469   2.021   2.785   0.785  0.6777 -0.5909 -1.6933
  356SOL    HW3 1470   1.875   2.826   0.790  0.5942 -1.1657  0.9739
  356SOL    MW4 1471   1.957   2.841   0.765  0.2300 -0.4091  0.2253
  357SOL     OW 1472   1.953   3.119   0.889 -0.3842  0.3114 -0.3098
  357SOL    HW2 1473   1.890   3.174   0.843 -0.4875 -0.3562 -0.9766
  357SOL    HW3 1474   1.940   3.032   0.853  0.2644 -0.0174  0.2336
  357SOL    MW4 1475   1.943   3.115   0.878 -0.3124  0.1800 -0.3260
  358SOL     OW 1476   1.782   3.249   0.728  0.8196  0.1661 -0.5407
  358SOL    HW2 1477   1.701   3.198   0.732 -0.4862  2.2532  0.4352
  358SOL    HW3 1478   1.813   3.238   0.638 -0.8600 -0.1773 -1.1007
  358SOL    MW4 1479   1.775   3.241   0.717  0.4257  0.3960 -0.4858
  359SOL     OW 1480   1.789   3.508   0.881 -0.3045  0.1838  0.0617
  359SOL    HW2 1481   1.795   3.480   0.972 -1.1505 -0.3248 -0.0343
  359SOL    HW3 1482   1.779   3.427   0.831  1.0622  0.3981 -0.5757
  359SOL    MW4 1483   1.788   3.494   0.887 -0.2358  0.1452 -0.0351
  360SOL     OW 1484   1.997   3.622   0.752 -0.1014  0.4173  0.0081
  360SOL    HW2 1485   1.995   3.717   0.766  0.5226  0.3914  0.2876
  360SOL    HW3 1486   1.938   3.586   0.819  0.7509  0.5016  0.8082
  360SOL    MW4 1487   1.989   3.630   0.763  0.0936  0.4249  0.1505
  361SOL     OW 1488   2.022   3.886   0.806  0.0672  0.3422  0.4494
  361SOL    HW2 1489   2.027   3.886   0.902  1.3726  2.2587  0.4151
  361SOL    HW3 1490   1.945   3.939   0.786 -0.1854 -0.0293  0.4310
  361SOL    MW4 1491   2.012   3.893   0.816  0.2062  0.5460  0.4424
  362SOL     OW 1492   1.790   4.030   0.757 -0.4278  0.7061  0.6230
  362SOL    HW2 1493   1.705   3.994   0.782 -0.9583  2.1279  0.8961
  362SOL    HW3 1494   1.782   4.045   0.662  0.5421 -1.8569  0.0839
  362SOL    MW4 1495   1.778   4.027   0.748 -0.3699  0.5550  0.5879
  363SOL     OW 1496   1.814   4.269   0.882  0.3275 -0.4332 -0.0198
  363SOL    HW2 1497   1.794   4.270   0.976 -2.1067 -1.1302 -0.4951
  363SOL    HW3 1498   1.796   4.179   0.855 -1.0135  0.2665 -1.5623
  363SOL    MW4 1499   1.809   4.257   0.891 -0.1706 -0.4325 -0.2860
  364SOL     OW 1500   1.954   4.331   0.670  0.2278  0.2700 -0.6222
  364SOL    HW2 1501   1.900   4.300   0.742  1.6136 -1.6559 -0.3562
  364SOL    HW3 1502   1.893   4.345   0.598 -0.8002 -0.5273  0.0749
  364SOL    MW4 1503   1.939   4.329   0.670  0.2750 -0.0892 -0.4951
  365SOL     OW 1504   2.439   4.495   0.832  0.0620  0.4362 -0.4369
  365SOL    HW2 1505   2.444   4.535   0.919 -0.5113  0.5911 -0.4745
  365SOL    HW3 1506   2.384   4.417   0.845  0.7835 -0.0769 -0.4578
  365SOL    MW4 1507   2.432   4.490   0.845  0.0815  0.3891 -0.4446
  366SOL     OW 1508   2.284   4.611   0.653  0.5585  0.5963  0.1296
  366SOL    HW2 1509   2.348   4.580   0.717  0.1253  1.0750  0.8023
  366SOL    HW3 1510   2.324   4.690   0.616  0.2401  1.0610  0.7597
  366SOL    MW4 1511   2.298   4.618   0.656  0.4594  0.7210  0.3015
  367SOL     OW 1512   2.279   0.432   0.791 -0.0001 -0.2744  0.3765
  367SOL    HW2 1513   2.367   0.466   0.775 -0.5587  1.3983  0.6721
  367SOL    HW3 1514   2.266   0.364   0.725  1.2357 -0.0262 -0.1325
  367SOL    MW4 1515   2.289   0.428   0.781  0.0894 -0.0210  0.3483
  368SOL     OW 1516   2.520   0.527   0.692 -0.0110  0.3423  0.1797
  368SOL    HW2 1517   2.579   0.454   0.708 -0.8560 -0.4347 -0.1925
  368SOL    HW3 1518   2.520   0.537   0.597 -0.6868  0.1610  0.1599
  368SOL    MW4 1519   2.528   0.519   0.681 -0.2112  0.2159  0.1280
  369SOL     OW 1520   2.437   0.764   0.808 -0.3051  0.7199 -0.2885
  369SOL    HW2 1521   2.511   0.822   0.792  0.8721 -0.3007  1.3496
  369SOL    HW3 1522   2.460   0.683   0.763 -1.3185  1.0453 -1.4095
  369SOL    MW4 1523   2.450   0.761   0.800 -0.2835  0.6282 -0.2202
  370SOL     OW 1524   2.204   0.924   0.751 -0.1502  0.0943 -0.3532
  370SOL    HW2 1525   2.279   0.865   0.755 -0.2434  0.0433  1.0710
  370SOL    HW3 1526   2.204   0.958   0.662  0.6458 -1.0948 -0.8153
  370SOL    MW4 1527   2.214   0.921   0.740 -0.0575 -0.0693 -0.2263
  371SOL     OW 1528   2.243   1.182   0.853 -0.1792 -0.8310 -0.2095
  371SOL    HW2 1529   2.240   1.183   0.948 -1.7542 -0.4002 -0.2552
  371SOL    HW3 1530   2.225   1.091   0.829 -0.0289 -0.8886 -0.1038
  371SOL    MW4 1531   2.241   1.170   0.862 -0.3669 -0.7818 -0.2016
  372SOL     OW 1532   2.455   1.334   0.711  0.0676 -0.0426  0.2207
  372SOL    HW2 1533   2.400   1.265   0.748 -1.6401  1.3481  0.3475
  372SOL    HW3 1534   2.427   1.340   0.620 -0.0220  0.7095  0.2969
  372SOL    MW4 1535   2.444   1.325   0.704 -0.1693  0.2401  0.2474
  373SOL     OW 1536   2.445   1.591   0.801  0.4623  0.4404  0.2272
  373SOL    HW2 1537   2.522   1.637   0.767  0.5832  0.0884  0.0196
  373SOL    HW3 1538   2.458   1.500   0.774 -0.1826  0.4369 -0.0852
  373SOL    MW4 1539   2.457   1.585   0.793  0.3934  0.3935  0.1586
  374SOL     OW 1540   2.206   1.725   0.727  0.3336  0.5698  0.1164
  374SOL    HW2 1541   2.293   1.688   0.744  0.4226  0.2014 -1.0650
  374SOL    HW3 1542   2.215   1.765   0.640 -0.7962  0.1681 -0.1857
  374SOL    MW4 1543   2.219   1.725   0.718  0.1965  0.4683 -0.0793
  375SOL     OW 1544   2.185   1.954   0.892  0.1150 -0.2002  0.0537
  375SOL    HW2 1545   2.197   1.871   0.845  0.0340  0.3941 -1.0176
  375SOL    HW3 1546   2.101   1.987   0.861 -0.2873 -0.1583  1.1700
  375SOL    MW4 1547   2.175   1.947   0.882  0.0510 -0.1162  0.0596
  376SOL     OW 1548   2.404   2.094   0.783  0.1024 -0.1280 -0.1460
  376SOL    HW2 1549   2.326   2.058   0.826 -0.4881  0.1439 -0.9672
  376SOL    HW3 1550   2.375   2.113   0.693  0.8045  1.0232 -0.1365
  376SOL    MW4 1551   2.390   2.092   0.777  0.1171  0.0598 -0.2530
  377SOL     OW 1552   2.440   2.378   0.871 -0.4594 -0.2359  0.4558
  377SOL    HW2 1553   2.508   2.428   0.825 -2.1382  1.9441  0.2477
  377SOL    HW3 1554   2.438   2.294   0.827  1.4148  0.0324 -0.1814
  377SOL    MW4 1555   2.449   2.374   0.859 -0.4337  0.0875  0.3443
  378SOL     OW 1556   2.196   2.447   0.768  0.0093  0.6626  0.6733
  378SOL    HW2 1557   2.275   2.424   0.817  0.1788 -0.6451 -0.1808
  378SOL    HW3 1558   2.125   2.402   0.815  0.0173  0.3846  0.4255
  378SOL    MW4 1559   2.197   2.438   0.781  0.0329  0.4532  0.5280
  379SOL     OW 1560   2.165   2.707   0.861  0.3464 -0.1741  0.4596
  379SOL    HW2 1561   2.186   2.699   0.954  1.0428 -1.1176  0.2360
  379SOL    HW3 1562   2.162   2.616   0.830 -0.5689  0.1073 -0.2899
  379SOL    MW4 1563   2.167   2.694   0.869  0.3176 -0.2615  0.3312
  380SOL     OW 1564   2.325   2.830   0.674 -0.0118 -0.2752 -0.4977
  380SOL    HW2 1565   2.407   2.786   0.694  0.1810  0.7489  1.0921
  380SOL    HW3 1566   2.261   2.788   0.732  0.0101  0.9211  0.4256
  380SOL    MW4 1567   2.327   2.819   0.684  0.0167  0.0179 -0.1661
  381SOL     OW 1568   2.408   3.097   0.764  0.3428  0.0958 -0.2564
  381SOL    HW2 1569   2.423   3.098   0.858  1.2017 -0.2388 -0.3826
  381SOL    HW3 1570   2.361   3.015   0.748 -0.1240  0.3270 -0.0762
  381SOL    MW4 1571   2.403   3.086   0.774  0.3948  0.0820 -0.2493
  382SOL     OW 1572   2.134   3.249   0.724 -0.3349 -0.2208  0.4425
  382SOL    HW2 1573   2.070   3.192   0.766  0.9751 -1.4588  0.8085
  382SOL    HW3 1574   2.217   3.202   0.731  0.3899  0.7482 -1.1982
  382SOL    MW4 1575   2.137   3.236   0.731 -0.0665 -0.2563  0.2744
  383SOL     OW 1576   2.208   3.489   0.877  0.2867  0.2393  0.3063
  383SOL    HW2 1577   2.180   3.407   0.838  0.8680  0.1961 -0.0299
  383SOL    HW3 1578   2.143   3.553   0.849  0.3845  0.0901 -0.2661
  383SOL    MW4 1579   2.196   3.487   0.868  0.3765  0.2136  0.1864
  384SOL     OW 1580   2.441   3.606   0.761  0.0693  0.5037 -0.1089
  384SOL    HW2 1581   2.507   3.563   0.815 -0.2787  0.0284 -0.0635
  384SOL    HW3 1582   2.358   3.565   0.786 -0.0710  0.1280 -1.1424
  384SOL    MW4 1583   2.439   3.595   0.771  0.0052  0.3915 -0.2393
  385SOL     OW 1584   2.460   3.860   0.836  0.0737  0.0639 -0.6685
  385SOL    HW2 1585   2.383   3.910   0.809  0.3055  0.4889 -0.5402
  385SOL    HW3 1586   2.441   3.770   0.809 -0.5367  0.1392 -0.5021
  385SOL    MW4 1587   2.447   3.855   0.829  0.0238  0.1302 -0.6297
  386SOL     OW 1588   2.248   4.016   0.752  0.2179 -0.4269  0.2373
  386SOL    HW2 1589   2.158   3.984   0.763  0.0149 -0.0493 -0.3417
  386SOL    HW3 1590   2.269   3.997   0.661  0.1600  0.9335 -0.0619
  386SOL    MW4 1591   2.239   4.009   0.742  0.1836 -0.1969  0.1214
  387SOL     OW 1592   2.238   4.292   0.812  0.0093  0.2999  0.0799
  387SOL    HW2 1593   2.242   4.198   0.794  1.0353  0.3853 -0.1927
  387SOL    HW3 1594   2.152   4.319   0.780 -1.2856 -0.9851  2.3421
  387SOL    MW4 1595   2.227   4.283   0.805 -0.0260  0.1416  0.3424
  388SOL     OW 1596   2.549   4.299   0.532  0.0259  0.1645 -0.2459
  388SOL    HW2 1597   2.603   4.357   0.479  2.6570 -2.3274 -0.3874
  388SOL    HW3 1598   2.590   4.299   0.618  0.1961 -1.6418 -0.3131
  388SOL    MW4 1599   2.561   4.307   0.537  0.3958 -0.4025 -0.2734
  389SOL     OW 1600   2.894   4.620   0.844  0.0702  0.1838 -0.5654
  389SOL    HW2 1601   2.908   4.530   0.814  1.2362 -0.0597  0.6392
  389SOL    HW3 1602   2.810   4.645   0.807 -1.1833 -2.0696  0.6051
  389SOL    MW4 1603   2.885   4.611   0.835  0.0584 -0.1454 -0.2521
  390SOL     OW 1604   2.565   0.137   0.224 -0.0458 -0.3186 -0.2107
  390SOL    HW2 1605   2.615   0.093   0.293 -0.3235  0.4601  0.4963
  390SOL    HW3 1606   2.632   0.172   0.165  0.2238 -0.1912  0.1637
  390SOL    MW4 1607   2.581   0.136   0.226 -0.0470 -0.1990 -0.0681
  391SOL     OW 1608   2.661   0.295   0.788  0.2905  0.1490 -0.9177
  391SOL    HW2 1609   2.658   0.318   0.881 -0.4860 -0.4242 -0.7947
  391SOL    HW3 1610   2.749   0.318   0.760  0.1997  1.3033 -0.2889
  391SOL    MW4 1611   2.672   0.301   0.797  0.1762  0.2257 -0.8185
  392SOL     OW 1612   2.927   0.355   0.712  0.0264 -0.1623  0.2611
  392SOL    HW2 1613   3.007   0.349   0.764 -0.2613  0.7739  0.8270
  392SOL    HW3 1614   2.944   0.301   0.635  0.9965 -0.4016  0.6365
  392SOL    MW4 1615   2.940   0.347   0.709  0.1163 -0.0704  0.3853
  393SOL     OW 1616   2.892   0.821   0.814  0.0397 -0.4024  0.7342
  393SOL    HW2 1617   2.977   0.864   0.806  0.1104 -0.8251 -1.3232
  393SOL    HW3 1618   2.890   0.785   0.902  1.0743  1.5145  1.5540
  393SOL    MW4 1619   2.903   0.822   0.824  0.1855 -0.2053  0.5710
  394SOL     OW 1620   2.647   0.928   0.740  0.0325  0.4076 -0.2098
  394SOL    HW2 1621   2.730   0.882   0.753 -0.0205  0.3356 -0.1227
  394SOL    HW3 1622   2.636   0.932   0.645 -0.3830 -0.5177 -0.2127
  394SOL    MW4 1623   2.657   0.922   0.730 -0.0291  0.2760 -0.1987
  395SOL     OW 1624   2.672   1.202   0.830  0.0898  0.0593 -0.9568
  395SOL    HW2 1625   2.652   1.111   0.810 -1.3807 -0.2186  1.4914
  395SOL    HW3 1626   2.592   1.250   0.807 -0.6714  0.0897  1.5782
  395SOL    MW4 1627   2.659   1.197   0.824 -0.2048  0.0265 -0.2993
  396SOL     OW 1628   2.886   1.285   0.705 -0.2836  0.0685 -0.0570
  396SOL    HW2 1629   2.961   1.239   0.745 -0.9409  0.5661  1.8111
  396SOL    HW3 1630   2.812   1.262   0.761 -0.6622  3.2569  0.8757
  396SOL    MW4 1631   2.886   1.276   0.718 -0.4201  0.5549  0.3125
  397SOL     OW 1632   2.918   1.566   0.793  0.3762 -0.4115 -0.0179
  397SOL    HW2 1633   2.999   1.602   0.757 -1.4136  1.2377 -2.5756
  397SOL    HW3 1634   2.913   1.478   0.755  0.4153 -0.0952 -0.7756
  397SOL    MW4 1635   2.928   1.559   0.783  0.1452 -0.1522 -0.4553
  398SOL     OW 1636   2.705   1.700   0.726 -0.4404 -0.0299  0.5894
  398SOL    HW2 1637   2.692   1.780   0.776 -0.2612  0.7151 -0.5300
  398SOL    HW3 1638   2.777   1.655   0.770 -0.3427  0.5778  1.0482
  398SOL    MW4 1639   2.713   1.705   0.738 -0.4039  0.1487  0.5023
  399SOL     OW 1640   2.642   1.941   0.830  0.0368 -0.1836  0.2130
  399SOL    HW2 1641   2.641   1.947   0.925  0.1688 -1.3675  0.3044
  399SOL    HW3 1642   2.562   1.986   0.802  0.9815  1.8603  0.7561
  399SOL    MW4 1643   2.631   1.947   0.839  0.1791 -0.0702  0.2967
  400SOL     OW 1644   2.796   2.127   0.671  0.3749 -0.3356 -0.1116
  400SOL    HW2 1645   2.828   2.205   0.715  1.0784 -0.0268 -1.1453
  400SOL    HW3 1646   2.769   2.068   0.742  2.0877 -0.1106  0.7568
  400SOL    MW4 1647   2.797   2.129   0.686  0.6938 -0.2654 -0.1333
  401SOL     OW 1648   2.884   2.347   0.806 -0.2183 -0.3390  0.4564
  401SOL    HW2 1649   2.904   2.335   0.899  1.0159 -1.3461  0.0804
  401SOL    HW3 1650   2.812   2.409   0.805 -1.3685 -1.6023  2.1603
  401SOL    MW4 1651   2.877   2.353   0.818 -0.2074 -0.6387  0.6316
  402SOL     OW 1652   2.661   2.513   0.751 -0.4600  0.0233 -0.3605
  402SOL    HW2 1653   2.674   2.515   0.656 -3.0055  1.5171 -0.7119
  402SOL    HW3 1654   2.652   2.604   0.776 -1.5227 -0.4592  1.0579
  402SOL    MW4 1655   2.661   2.525   0.742 -0.9360  0.1566 -0.2197
  403SOL     OW 1656   2.607   2.777   0.800  0.1070 -0.0962  0.1402
  403SOL    HW2 1657   2.628   2.778   0.894  0.7150  0.9604  0.0007
  403SOL    HW3 1658   2.687   2.805   0.757 -0.2732 -0.2629 -0.6759
  403SOL    MW4 1659   2.620   2.781   0.807  0.1371  0.0210  0.0141
  404SOL     OW 1660   2.885   2.700   0.409  0.4479  0.4640 -0.5505
  404SOL    HW2 1661   2.797   2.666   0.395  0.8886 -0.1344 -1.8992
  404SOL    HW3 1662   2.940   2.622   0.419  1.0733  0.8028 -1.2901
  404SOL    MW4 1663   2.881   2.685   0.409  0.5884  0.4299 -0.8260
  405SOL     OW 1664   2.865   3.048   0.843 -0.1367 -0.4541  0.4822
  405SOL    HW2 1665   2.806   3.108   0.798  1.6559  1.5544  0.7568
  405SOL    HW3 1666   2.875   2.974   0.783 -1.8707 -0.2142 -0.1176
  405SOL    MW4 1667   2.858   3.046   0.829 -0.1287 -0.1574  0.4393
  406SOL     OW 1668   2.674   3.224   0.706 -0.0017  0.0183  0.4124
  406SOL    HW2 1669   2.707   3.310   0.734  1.1566 -0.6134  1.0000
  406SOL    HW3 1670   2.583   3.222   0.737 -0.0498  1.0369  0.3662
  406SOL    MW4 1671   2.666   3.235   0.714  0.1450  0.0694  0.4838
  407SOL     OW 1672   2.692   3.501   0.836  0.4138 -0.0966  0.3626
  407SOL    HW2 1673   2.702   3.494   0.931  0.5961  2.5122  0.5626
  407SOL    HW3 1674   2.772   3.545   0.807 -0.6603  1.1600 -0.7207
  407SOL    MW4 1675   2.704   3.506   0.845  0.2964  0.4134  0.2461
  408SOL     OW 1676   2.930   3.624   0.770  0.0240 -0.2604 -0.1042
  408SOL    HW2 1677   2.921   3.718   0.783  0.9284 -0.0392 -1.0618
  408SOL    HW3 1678   2.944   3.613   0.676  0.0544 -1.3415  0.0174
  408SOL    MW4 1679   2.931   3.635   0.760  0.1476 -0.3741 -0.2145
  409SOL     OW 1680   2.963   3.894   0.840 -0.3059  0.0177  0.1494
  409SOL    HW2 1681   2.947   3.887   0.935 -2.2495 -0.0830 -0.1630
  409SOL    HW3 1682   2.881   3.929   0.805 -0.2371 -1.6404 -1.7077
  409SOL    MW4 1683   2.950   3.897   0.848 -0.5534 -0.2143 -0.1369
  410SOL     OW 1684   2.698   3.964   0.746 -0.3911 -0.0710 -0.0625
  410SOL    HW2 1685   2.620   3.921   0.780 -0.3869 -0.7729 -0.9421
  410SOL    HW3 1686   2.683   3.971   0.652  1.0822 -1.2046 -0.3987
  410SOL    MW4 1687   2.686   3.959   0.738 -0.1965 -0.3130 -0.2229
  411SOL     OW 1688   2.698   4.238   0.804 -0.2663 -0.1361  0.1877
  411SOL    HW2 1689   2.706   4.253   0.899  0.2279  1.1117 -0.0415
  411SOL    HW3 1690   2.692   4.143   0.796 -1.1851 -0.2104  1.5376
  411SOL    MW4 1691   2.698   4.227   0.816 -0.3226  0.0191  0.3356
  412SOL     OW 1692   2.913   4.366   0.698 -0.1439  0.0770 -0.3388
  412SOL    HW2 1693   2.985   4.319   0.740 -0.8178  0.5233  1.3503
  412SOL    HW3 1694   2.834   4.328   0.736 -0.7801  0.4261 -1.2893
  412SOL    MW4 1695   2.913   4.355   0.708 -0.3169  0.1822 -0.2414
  413SOL     OW 1696   3.379   4.602   0.917 -0.3509  0.6280 -0.6717
  413SOL    HW2 1697   3.369   4.619   1.011 -1.1358  1.2376 -0.8559
  413SOL    HW3 1698   3.300   4.639   0.878 -0.3687 -0.2700 -1.5002
  413SOL    MW4 1699   3.367   4.609   0.924 -0.4568  0.5903 -0.8054
  414SOL     OW 1700   3.146   0.075   0.819  0.2650  0.0538  0.2830
  414SOL    HW2 1701   3.175   0.165   0.836 -0.4649 -0.1096  2.5736
  414SOL    HW3 1702   3.059   0.069   0.860  1.1863 -2.2788  2.0523
  414SOL    MW4 1703   3.138   0.086   0.827  0.2904 -0.2755  0.8186
  415SOL     OW 1704   3.166   0.348   0.882  0.4508 -0.2653  0.7305
  415SOL    HW2 1705   3.148   0.373   0.972  1.1619 -0.1573  0.8485
  415SOL    HW3 1706   3.226   0.416   0.850  1.3638 -1.1086  0.6452
  415SOL    MW4 1707   3.171   0.360   0.889  0.6649 -0.3623  0.7348
  416SOL     OW 1708   3.351   0.544   0.800  0.0603 -0.6109  0.4112
  416SOL    HW2 1709   3.432   0.502   0.830  1.2185  1.5366  0.4369
  416SOL    HW3 1710   3.359   0.545   0.705  0.6964  0.7322  0.4602
  416SOL    MW4 1711   3.363   0.538   0.792  0.2968 -0.1503  0.4210
  417SOL     OW 1712   3.357   0.803   0.901  0.1877 -0.4674  0.2718
  417SOL    HW2 1713   3.293   0.843   0.841 -0.4902 -1.3804  0.3784
  417SOL    HW3 1714   3.369   0.714   0.867  1.1090 -0.4293  0.4849
  417SOL    MW4 1715   3.350   0.796   0.888  0.2198 -0.5828  0.3140
  418SOL     OW 1716   3.158   0.906   0.754 -0.0360 -0.2364  0.6795
  418SOL    HW2 1717   3.156   1.001   0.767  1.8872 -0.1533  0.4970
  418SOL    HW3 1718   3.149   0.895   0.660 -1.0127 -0.2821  0.7709
  418SOL    MW4 1719   3.156   0.917   0.744  0.0889 -0.2315  0.6675
  419SOL     OW 1720   3.163   1.184   0.787  0.0630 -0.4044 -0.4190
  419SOL    HW2 1721   3.180   1.170   0.880 -1.7638 -0.3726 -0.0601
  419SOL    HW3 1722   3.239   1.234   0.756  1.3430 -1.6106  0.7297
  419SOL    MW4 1723   3.175   1.189   0.795 -0.0088 -0.5593 -0.2200
  420SOL     OW 1724   3.388   1.320   0.701 -0.1214  0.1147 -0.8065
  420SOL    HW2 1725   3.469   1.279   0.732 -0.4606 -0.0448 -0.0988
  420SOL    HW3 1726   3.380   1.400   0.753  0.2645  0.8171 -1.8159
  420SOL    MW4 1727   3.398   1.325   0.712 -0.1152  0.1862 -0.8463
  421SOL     OW 1728   3.339   1.552   0.831 -0.1543  0.2381  0.1510
  421SOL    HW2 1729   3.335   1.549   0.926 -0.3232 -2.0168  0.0972
  421SOL    HW3 1730   3.419   1.601   0.812  1.9282 -2.4827  1.5088
  421SOL    MW4 1731   3.349   1.558   0.841  0.0980 -0.4185  0.3231
  422SOL     OW 1732   3.151   1.674   0.669  0.1998 -0.0515  0.3962
  422SOL    HW2 1733   3.209   1.617   0.720  1.7694  1.0781 -0.0990
  422SOL    HW3 1734   3.176   1.659   0.578  0.8111  1.6318  0.2837
  422SOL    MW4 1735   3.162   1.664   0.664  0.4876  0.3197  0.3161
  423SOL     OW 1736   3.179   1.917   0.829 -0.6523 -0.1273  0.1689
  423SOL    HW2 1737   3.164   1.909   0.923  0.3457 -1.2806  0.2405
  423SOL    HW3 1738   3.176   1.827   0.797  0.2680  0.1447 -0.7021
  423SOL    MW4 1739   3.177   1.904   0.837 -0.3994 -0.2437  0.0634
  424SOL     OW 1740   3.418   2.048   0.742  0.4787  0.1682  0.0235
  424SOL    HW2 1741   3.390   2.138   0.759 -0.3377  0.1979 -1.3596
  424SOL    HW3 1742   3.348   1.994   0.780 -0.7953  0.2136 -2.1481
  424SOL    MW4 1743   3.405   2.053   0.749  0.2031  0.1783 -0.4455
  425SOL     OW 1744   3.390   2.333   0.806 -0.2440 -0.7715  0.5603
  425SOL    HW2 1745   3.381   2.316   0.900  1.0120 -1.4548  0.5703
  425SOL    HW3 1746   3.476   2.374   0.797 -0.7332  0.1058 -0.1917
  425SOL    MW4 1747   3.400   2.336   0.817 -0.1431 -0.7460  0.4624
  426SOL     OW 1748   3.153   2.457   0.717  0.4781 -0.0105  0.0900
  426SOL    HW2 1749   3.230   2.404   0.737 -0.1437 -0.1117  2.3566
  426SOL    HW3 1750   3.079   2.404   0.747 -0.4806  0.2176 -1.7873
  426SOL    MW4 1751   3.153   2.443   0.723  0.2699  0.0062  0.1413
  427SOL     OW 1752   3.105   2.692   0.844  0.3905 -0.2713  0.0378
  427SOL    HW2 1753   3.113   2.607   0.800  0.7180  0.1582 -0.7392
  427SOL    HW3 1754   3.176   2.745   0.807 -0.0650  0.4742  0.2241
  427SOL    MW4 1755   3.116   2.687   0.833  0.3734 -0.1161 -0.0402
  428SOL     OW 1756   3.335   2.807   0.732 -0.2185 -0.2116 -0.0984
  428SOL    HW2 1757   3.365   2.817   0.641  0.1768  1.3756  0.1936
  428SOL    HW3 1758   3.399   2.749   0.772 -1.0945 -1.9634 -1.1602
  428SOL    MW4 1759   3.347   2.800   0.725 -0.2820 -0.2332 -0.1999
  429SOL     OW 1760   3.318   3.075   0.840  0.0396  0.0869  0.2100
  429SOL    HW2 1761   3.318   3.066   0.935 -2.2366 -1.5127  0.1127
  429SOL    HW3 1762   3.312   2.985   0.808  0.8913  0.6076 -1.4561
  429SOL    MW4 1763   3.317   3.062   0.848 -0.1485 -0.0558 -0.0227
  430SOL     OW 1764   3.089   3.229   0.772 -0.4506 -0.1356  0.3341
  430SOL    HW2 1765   3.166   3.172   0.772 -0.3319  0.0131 -0.6956
  430SOL    HW3 1766   3.016   3.170   0.794 -0.1828 -0.4674  0.3417
  430SOL    MW4 1767   3.090   3.213   0.775 -0.3996 -0.1597  0.1993
  431SOL     OW 1768   3.162   3.486   0.828 -0.0564  0.4623 -0.0683
  431SOL    HW2 1769   3.133   3.395   0.815  1.2323 -0.2773  2.0707
  431SOL    HW3 1770   3.083   3.538   0.813 -0.8195 -1.0131 -1.2950
  431SOL    MW4 1771   3.148   3.481   0.824  0.0126  0.1700  0.0520
  432SOL     OW 1772   3.398   3.613   0.784  0.2584 -0.5582 -0.0113
  432SOL    HW2 1773   3.397   3.699   0.827  0.1624  0.0002 -1.1245
  432SOL    HW3 1774   3.314   3.573   0.809 -0.0439 -0.0076 -0.1493
  432SOL    MW4 1775   3.387   3.619   0.793  0.2058 -0.4120 -0.1764
  433SOL     OW 1776   3.395   3.883   0.839 -0.5085  0.6471 -0.3737
  433SOL    HW2 1777   3.412   3.893   0.933 -0.3771 -0.7089 -0.2403
  433SOL    HW3 1778   3.465   3.931   0.796  0.9093 -0.8448  0.2086
  433SOL    MW4 1779   3.406   3.890   0.846 -0.3042  0.2716 -0.2792
  434SOL     OW 1780   3.187   4.010   0.708  0.5878  0.5041  0.0382
  434SOL    HW2 1781   3.259   3.963   0.748 -0.7080 -2.0863 -0.5841
  434SOL    HW3 1782   3.110   3.987   0.760 -0.2451  1.1535 -0.8736
  434SOL    MW4 1783   3.186   4.001   0.720  0.3071  0.2484 -0.1642
  435SOL     OW 1784   3.163   4.270   0.835  0.5002 -0.0606 -0.0717
  435SOL    HW2 1785   3.230   4.324   0.793  0.2751  0.1905 -0.1148
  435SOL    HW3 1786   3.180   4.181   0.805  0.0169  0.1949 -1.1161
  435SOL    MW4 1787   3.174   4.266   0.826  0.4065  0.0062 -0.2152
  436SOL     OW 1788   3.388   4.386   0.737  0.0484 -0.1047  0.3045
  436SOL    HW2 1789   3.393   4.466   0.789  1.8465  0.6570 -0.9914
  436SOL    HW3 1790   3.381   4.416   0.647  0.7750 -1.3859 -0.1949
  436SOL    MW4 1791   3.388   4.400   0.732  0.3815 -0.1736  0.0676
  437SOL     OW 1792   3.793   4.659   0.885 -0.3894 -0.3481 -0.2566
  437SOL    HW2 1793   3.870   4.710   0.859 -1.0303  1.0536  0.5275
  437SOL    HW3 1794   3.718   4.713   0.858 -1.1000 -1.3612 -0.3512
  437SOL    MW4 1795   3.793   4.673   0.878 -0.5679 -0.2966 -0.1657
  438SOL     OW 1796   3.537   0.126   0.793 -0.2543  0.0447 -0.6826
  438SOL    HW2 1797   3.476   0.073   0.846  0.0240 -2.2815 -2.5791
  438SOL    HW3 1798   3.503   0.118   0.704 -1.1006  4.4532 -0.8525
  438SOL    MW4 1799   3.524   0.118   0.788 -0.3293  0.3194 -0.9552
  439SOL     OW 1800   3.551   0.393   0.906  0.2365  0.1937 -0.2388
  439SOL    HW2 1801   3.569   0.377   0.999 -3.4524 -0.5765  0.4237
  439SOL    HW3 1802   3.545   0.306   0.867  2.5199  0.5237 -1.4063
  439SOL    MW4 1803   3.553   0.380   0.913  0.0510  0.1356 -0.3055
  440SOL     OW 1804   3.780   0.485   0.763 -0.0893 -0.0742 -0.1056
  440SOL    HW2 1805   3.775   0.579   0.778  0.0525 -0.0475 -0.2316
  440SOL    HW3 1806   3.702   0.450   0.806  1.0467 -0.1555  1.9672
  440SOL    MW4 1807   3.769   0.493   0.771  0.0792 -0.0814  0.1512
  441SOL     OW 1808   3.779   0.756   0.857 -0.1690  0.1120 -0.0916
  441SOL    HW2 1809   3.784   0.769   0.952 -1.5697  2.6644 -0.3123
  441SOL    HW3 1810   3.860   0.794   0.823 -0.2677  0.3889 -0.0197
  441SOL    MW4 1811   3.790   0.763   0.865 -0.3669  0.4853 -0.1112
  442SOL     OW 1812   3.572   0.899   0.738 -0.1427 -0.5698 -0.2303
  442SOL    HW2 1813   3.651   0.864   0.781  0.1552 -1.0904 -1.1883
  442SOL    HW3 1814   3.501   0.881   0.800  0.5003 -0.0149  0.6834
  442SOL    MW4 1815   3.573   0.892   0.752 -0.0184 -0.5653 -0.2362
  443SOL     OW 1816   3.599   1.177   0.798  0.0715 -0.1538 -0.2061
  443SOL    HW2 1817   3.598   1.157   0.892 -0.1924 -0.5944 -0.3055
  443SOL    HW3 1818   3.583   1.094   0.755  1.2988 -0.1609 -0.6873
  443SOL    MW4 1819   3.597   1.164   0.805  0.1986 -0.2129 -0.2827
  444SOL     OW 1820   3.839   1.331   0.731  0.0679  0.3291 -0.3810
  444SOL    HW2 1821   3.754   1.293   0.754  0.3780  0.1760  0.5140
  444SOL    HW3 1822   3.840   1.329   0.635 -1.0096  0.4874 -0.4019
  444SOL    MW4 1823   3.828   1.325   0.721 -0.0336  0.3299 -0.2657
  445SOL     OW 1824   3.813   1.568   0.839 -0.0154 -0.1950  0.2735
  445SOL    HW2 1825   3.894   1.620   0.831  0.0323 -0.3001  0.0909
  445SOL    HW3 1826   3.831   1.488   0.791 -1.0987  0.8002 -1.8651
  445SOL    MW4 1827   3.826   1.564   0.832 -0.1521 -0.0776 -0.0327
  446SOL     OW 1828   3.576   1.706   0.768 -0.4452 -0.2602 -0.0902
  446SOL    HW2 1829   3.611   1.790   0.797 -1.3367  0.0162  0.1895
  446SOL    HW3 1830   3.647   1.643   0.785 -0.1918  0.2496  0.7309
  446SOL    MW4 1831   3.590   1.709   0.774 -0.5295 -0.1565  0.0550
  447SOL     OW 1832   3.650   1.958   0.827  0.4848 -0.2942  0.2015
  447SOL    HW2 1833   3.729   1.999   0.791  0.3531  0.6103  0.9179
  447SOL    HW3 1834   3.578   2.010   0.793  0.3192  0.1102  1.1550
  447SOL    MW4 1835   3.651   1.970   0.818  0.4456 -0.1216  0.4218
  448SOL     OW 1836   3.867   2.114   0.755  0.2285  0.2894 -0.0272
  448SOL    HW2 1837   3.953   2.094   0.791  0.1551 -0.0380 -0.0391
  448SOL    HW3 1838   3.883   2.126   0.661  0.4511  1.3240  0.1359
  448SOL    MW4 1839   3.880   2.113   0.747  0.2482  0.3827 -0.0073
  449SOL     OW 1840   3.716   2.362   0.845 -0.7236  0.5006  0.0605
  449SOL    HW2 1841   3.739   2.332   0.933 -2.0134 -0.3132  0.1258
  449SOL    HW3 1842   3.753   2.295   0.786  1.6084  1.9005 -0.1432
  449SOL    MW4 1843   3.724   2.349   0.849 -0.5860  0.5779  0.0423
  450SOL     OW 1844   3.555   2.671   0.854 -0.1277 -0.1535  0.2537
  450SOL    HW2 1845   3.539   2.677   0.949 -0.4871 -0.9701  0.2449
  450SOL    HW3 1846   3.650   2.683   0.846  0.0204 -0.9284  0.7965
  450SOL    MW4 1847   3.566   2.673   0.866 -0.1557 -0.3636  0.3241
  451SOL     OW 1848   3.812   2.789   0.836 -0.2728 -0.2008 -0.1244
  451SOL    HW2 1849   3.794   2.880   0.859  0.2945  0.1921 -1.2219
  451SOL    HW3 1850   3.851   2.793   0.749 -0.0740 -1.4819 -0.1054
  451SOL    MW4 1851   3.815   2.802   0.828 -0.1717 -0.3181 -0.2667
  452SOL     OW 1852   3.814   3.087   0.560  0.0688  0.0333  0.0638
  452SOL    HW2 1853   3.858   3.002   0.567 -2.4895 -1.3392  0.2991
  452SOL    HW3 1854   3.859   3.143   0.622  1.5769 -1.2729  0.1653
  452SOL    MW4 1855   3.825   3.083   0.569 -0.0701 -0.3202  0.1082
  453SOL     OW 1856   3.774   3.068   0.879 -0.0276 -0.1969 -0.1007
  453SOL    HW2 1857   3.850   3.121   0.855  0.7150 -1.9011 -1.6853
  453SOL    HW3 1858   3.701   3.107   0.831  0.3312 -0.0186 -0.5050
  453SOL    MW4 1859   3.775   3.080   0.869  0.1180 -0.3982 -0.3631
  454SOL     OW 1860   3.562   3.184   0.757  0.8754  0.2213 -0.2216
  454SOL    HW2 1861   3.482   3.141   0.788  1.0519  0.5404  0.7024
  454SOL    HW3 1862   3.558   3.177   0.662 -0.9032  1.3741 -0.2590
  454SOL    MW4 1863   3.551   3.177   0.749  0.6638  0.4156 -0.1046
  455SOL     OW 1864   3.595   3.437   0.843  0.0161 -0.2403 -0.0375
  455SOL    HW2 1865   3.581   3.349   0.807  1.0679 -0.7845  0.8633
  455SOL    HW3 1866   3.517   3.486   0.817 -0.1904 -1.1960 -1.2848
  455SOL    MW4 1867   3.583   3.431   0.835  0.1278 -0.4380 -0.0832
  456SOL     OW 1868   3.774   3.607   0.740  0.5209 -0.2608 -0.4666
  456SOL    HW2 1869   3.855   3.562   0.762  0.2852 -0.2569  0.4071
  456SOL    HW3 1870   3.704   3.548   0.769  0.2105  0.6434  0.6625
  456SOL    MW4 1871   3.775   3.594   0.746  0.4487 -0.1409 -0.2024
  457SOL     OW 1872   3.803   3.873   0.852  0.0552 -0.0549 -0.0472
  457SOL    HW2 1873   3.731   3.913   0.803 -0.2048 -0.5437 -0.0656
  457SOL    HW3 1874   3.806   3.782   0.821  0.6868 -0.0326 -0.0566
  457SOL    MW4 1875   3.794   3.866   0.841  0.1044 -0.1166 -0.0508
  458SOL     OW 1876   3.606   4.031   0.742 -0.2627 -0.3304 -0.1973
  458SOL    HW2 1877   3.587   4.106   0.800  0.3794  0.3450 -0.8476
  458SOL    HW3 1878   3.598   4.067   0.654 -0.1633 -1.0927 -0.5144
  458SOL    MW4 1879   3.602   4.046   0.738 -0.1650 -0.3419 -0.3250
  459SOL     OW 1880   3.608   4.278   0.876  0.5876  0.2325  0.1967
  459SOL    HW2 1881   3.689   4.327   0.857  0.1790  1.0366  0.4904
  459SOL    HW3 1882   3.545   4.313   0.813  0.8623 -1.4647 -1.0468
  459SOL    MW4 1883   3.610   4.289   0.865  0.5701  0.1144  0.0714
  460SOL     OW 1884   3.835   4.398   0.804 -0.2491  0.1581 -0.0790
  460SOL    HW2 1885   3.907   4.349   0.844 -0.0645  0.6607  0.2123
  460SOL    HW3 1886   3.849   4.489   0.833  1.0329  0.9124 -2.9036
  460SOL    MW4 1887   3.846   4.404   0.813 -0.0558  0.3238 -0.4132
  461SOL     OW 1888   4.285   4.656   0.893  0.3314  0.2808  0.0660
  461SOL    HW2 1889   4.293   4.643   0.988 -0.8470 -1.7419 -0.0928
  461SOL    HW3 1890   4.199   4.697   0.882  1.0666  1.8441 -0.0367
  461SOL    MW4 1891   4.275   4.660   0.904  0.2728  0.2198  0.0315
  462SOL     OW 1892   4.048   0.110   0.822  0.1076  0.4912  0.4428
  462SOL    HW2 1893   4.025   0.197   0.853  2.2936  1.1796  0.2080
  462SOL    HW3 1894   4.050   0.117   0.727 -0.3535  0.0250  0.3980
  462SOL    MW4 1895   4.046   0.122   0.814  0.3347  0.5205  0.4060
  463SOL     OW 1896   4.024   0.401   0.863 -0.4027 -0.2690  0.0267
  463SOL    HW2 1897   4.098   0.434   0.812  0.9216 -0.9522  1.4710
  463SOL    HW3 1898   3.949   0.451   0.831  0.6210  0.2451 -1.6500
  463SOL    MW4 1899   4.024   0.412   0.852 -0.0935 -0.2913 -0.0039
  464SOL     OW 1900   4.244   0.500   0.739 -0.2639 -0.0575  0.2473
  464SOL    HW2 1901   4.310   0.476   0.804 -0.6625 -1.5101  0.1459
  464SOL    HW3 1902   4.277   0.463   0.657 -0.0130  1.3278 -0.2791
  464SOL    MW4 1903   4.257   0.492   0.737 -0.2842 -0.0664  0.1645
  465SOL     OW 1904   4.267   0.777   0.829 -0.0415 -0.2121  0.0907
  465SOL    HW2 1905   4.182   0.814   0.802 -0.4857 -0.3706  1.2744
  465SOL    HW3 1906   4.260   0.684   0.808 -0.0994 -0.1952  0.0348
  465SOL    MW4 1907   4.255   0.770   0.822 -0.1078 -0.2307  0.2396
  466SOL     OW 1908   4.015   0.880   0.732  0.3911 -0.0557 -0.5110
  466SOL    HW2 1909   4.004   0.973   0.754  0.0736 -0.1867 -0.1048
  466SOL    HW3 1910   3.999   0.875   0.638 -1.0045  0.0771 -0.2862
  466SOL    MW4 1911   4.011   0.892   0.723  0.1655 -0.0554 -0.4278
  467SOL     OW 1912   3.997   1.138   0.846  0.0147 -0.1005  0.0205
  467SOL    HW2 1913   4.001   1.146   0.942 -1.0470 -0.7706  0.1281
  467SOL    HW3 1914   3.933   1.205   0.820  1.6997  1.3622 -0.3994
  467SOL    MW4 1915   3.989   1.148   0.855  0.0966  0.0042 -0.0207
  468SOL     OW 1916   4.213   1.313   0.707  0.2457 -0.0503 -0.7579
  468SOL    HW2 1917   4.143   1.267   0.753  0.3161  2.0093  1.4783
  468SOL    HW3 1918   4.294   1.269   0.735  0.1803  0.3355  0.0355
  468SOL    MW4 1919   4.215   1.301   0.717  0.2460  0.2725 -0.3581
  469SOL     OW 1920   4.277   1.565   0.837  0.0872  0.4187  0.0992
  469SOL    HW2 1921   4.267   1.562   0.932  0.3132  0.8211  0.1387
  469SOL    HW3 1922   4.256   1.477   0.807 -2.5160  0.9513  0.2655
  469SOL    MW4 1923   4.273   1.553   0.845 -0.2260  0.5420  0.1264
  470SOL     OW 1924   4.044   1.711   0.825  0.2507 -0.2617 -0.4931
  470SOL    HW2 1925   4.126   1.664   0.842  0.0659 -0.5069 -0.2792
  470SOL    HW3 1926   4.044   1.725   0.730  0.0759 -1.1215 -0.6253
  470SOL    MW4 1927   4.055   1.707   0.815  0.2031 -0.4075 -0.4823
  471SOL     OW 1928   4.095   1.997   0.856 -0.5930  0.1100  0.1119
  471SOL    HW2 1929   4.159   2.025   0.791 -1.6793  1.2479 -0.4935
  471SOL    HW3 1930   4.096   1.901   0.851 -0.0904  0.1681 -1.0290
  471SOL    MW4 1931   4.103   1.988   0.846 -0.6700  0.2679 -0.1184
  472SOL     OW 1932   4.308   2.123   0.702 -0.1048  0.2762 -0.2546
  472SOL    HW2 1933   4.363   2.047   0.721 -0.1762  0.4819  0.8180
  472SOL    HW3 1934   4.348   2.163   0.625  0.4228 -0.3681 -0.3244
  472SOL    MW4 1935   4.321   2.118   0.694 -0.0448  0.2186 -0.1222
  473SOL     OW 1936   4.257   2.328   0.859 -0.0024 -0.4616 -0.6838
  473SOL    HW2 1937   4.165   2.354   0.861 -0.5344 -2.2669 -1.0510
  473SOL    HW3 1938   4.258   2.247   0.807  1.6970 -0.8297 -0.1032
  473SOL    MW4 1939   4.245   2.321   0.852  0.1516 -0.7484 -0.6557
  474SOL     OW 1940   4.010   2.429   0.836 -0.6533  0.6332 -0.2793
  474SOL    HW2 1941   4.030   2.519   0.861 -0.4285  0.9003 -1.3722
  474SOL    HW3 1942   3.919   2.417   0.861 -0.6094  1.0851  0.1046
  474SOL    MW4 1943   4.001   2.439   0.842 -0.6180  0.7279 -0.3728
  475SOL     OW 1944   4.057   2.688   0.914  0.2456 -0.4079  0.0268
  475SOL    HW2 1945   4.129   2.749   0.897  0.2985 -0.0669  1.4317
  475SOL    HW3 1946   3.978   2.738   0.895  0.3266 -0.2427  0.1224
  475SOL    MW4 1947   4.056   2.702   0.909  0.2632 -0.3409  0.2248
  476SOL     OW 1948   4.264   2.891   0.820 -0.1169 -0.2823 -0.5627
  476SOL    HW2 1949   4.345   2.843   0.839  1.0490  1.3751 -1.1980
  476SOL    HW3 1950   4.254   2.884   0.725 -0.7748 -0.5656 -0.4722
  476SOL    MW4 1951   4.273   2.883   0.810 -0.0501 -0.1011 -0.6346
  477SOL     OW 1952   4.251   3.177   0.848 -0.0739  0.4066  0.0832
  477SOL    HW2 1953   4.266   3.092   0.806 -1.5401  0.7213 -1.1582
  477SOL    HW3 1954   4.337   3.217   0.854  0.6721 -1.3006  0.9710
  477SOL    MW4 1955   4.264   3.171   0.843 -0.1693  0.2227  0.0365
  478SOL     OW 1956   3.992   3.225   0.793  0.0211  0.2927 -0.5408
  478SOL    HW2 1957   3.980   3.305   0.843 -0.2618 -1.1572  1.8028
  478SOL    HW3 1958   4.084   3.203   0.806 -0.7037 -1.5970  1.7723
  478SOL    MW4 1959   4.002   3.233   0.802 -0.1116 -0.1478  0.0737
  479SOL     OW 1960   3.997   3.501   0.852 -0.3650  0.0217 -0.8459
  479SOL    HW2 1961   3.982   3.528   0.943  0.5837 -0.2609 -0.5965
  479SOL    HW3 1962   4.088   3.526   0.834 -0.2276 -0.8283 -1.3828
  479SOL    MW4 1963   4.007   3.508   0.862 -0.2217 -0.1280 -0.8838
  480SOL     OW 1964   4.253   3.642   0.821 -0.2439 -0.3054 -0.0799
  480SOL    HW2 1965   4.256   3.736   0.840 -2.8247 -0.0326 -0.7070
  480SOL    HW3 1966   4.273   3.636   0.728  2.2924 -0.6323  0.4689
  480SOL    MW4 1967   4.256   3.653   0.811 -0.2499 -0.3123 -0.0902
  481SOL     OW 1968   4.288   3.913   0.848 -0.0150  0.4815 -0.0367
  481SOL    HW2 1969   4.287   3.900   0.943  0.7183 -0.8913 -0.2019
  481SOL    HW3 1970   4.199   3.940   0.826 -0.1510  0.9365  1.0558
  481SOL    MW4 1971   4.276   3.915   0.858  0.0644  0.3605  0.0856
  482SOL     OW 1972   4.034   4.009   0.797 -0.1955 -0.0837 -0.4502
  482SOL    HW2 1973   3.947   3.985   0.828 -0.2458 -0.1614 -0.6601
  482SOL    HW3 1974   4.028   4.010   0.702 -0.1402  0.5441 -0.4559
  482SOL    MW4 1975   4.022   4.006   0.789 -0.1945 -0.0114 -0.4786
  483SOL     OW 1976   4.044   4.256   0.899 -0.4777  0.5408 -0.0984
  483SOL    HW2 1977   4.122   4.288   0.855  1.0896 -0.9163  1.5582
  483SOL    HW3 1978   4.035   4.166   0.867  0.8128 -0.6124  2.6849
  483SOL    MW4 1979   4.053   4.248   0.889 -0.1001  0.1965  0.4874
  484SOL     OW 1980   4.276   4.406   0.787 -0.2194  0.1632  0.4937
  484SOL    HW2 1981   4.283   4.492   0.828 -2.7065 -0.5749  2.6153
  484SOL    HW3 1982   4.356   4.360   0.813 -0.0317  1.0031  1.4071
  484SOL    MW4 1983   4.287   4.411   0.796 -0.5226  0.1764  0.8941
  485SOL     OW 1984   0.201   4.641   1.151  0.1190 -0.2812 -0.2631
  485SOL    HW2 1985   0.288   4.679   1.164  0.1914 -0.5905  0.1671
  485SOL    HW3 1986   0.188   4.643   1.057  0.5542 -0.1470 -0.3208
  485SOL    MW4 1987   0.210   4.646   1.141  0.1860 -0.3042 -0.2139
  486SOL     OW 1988   4.476   0.155   1.243  0.3957  0.1153  0.2651
  486SOL    HW2 1989   4.405   0.099   1.211  0.0788  0.0004  1.1667
  486SOL    HW3 1990   4.555   0.118   1.203 -0.1256  0.7359 -1.4010
  486SOL    MW4 1991   4.477   0.143   1.234  0.2851  0.1820  0.1643
  487SOL     OW 1992   0.007   0.439   1.179  0.2229 -0.5692 -0.3293
  487SOL    HW2 1993  -0.086   0.463   1.174  0.0685 -1.2745 -1.0010
  487SOL    HW3 1994   0.006   0.350   1.216  0.7109 -0.0195  1.0264
  487SOL    MW4 1995  -0.006   0.430   1.184  0.2666 -0.5897 -0.2390
  488SOL     OW 1996   0.227   0.592   1.276  0.2274 -0.2169  0.4583
  488SOL    HW2 1997   0.221   0.677   1.233  0.7617 -0.3291  0.1527
  488SOL    HW3 1998   0.148   0.545   1.249 -0.3824  0.4091  1.1308
  488SOL    MW4 1999   0.216   0.597   1.267  0.2174 -0.1492  0.5066
  489SOL     OW 2000   0.199   0.835   1.150  0.0874  0.6994 -0.1796
  489SOL    HW2 2001   0.277   0.886   1.173 -0.3435  0.6969  1.2837
  489SOL    HW3 2002   0.126   0.881   1.192 -0.4067 -0.6563  0.4596
  489SOL    MW4 2003   0.200   0.848   1.159 -0.0347  0.5203  0.0979
  490SOL     OW 2004   4.445   0.946   1.236  0.2006 -0.1230  0.4965
  490SOL    HW2 2005   4.440   0.933   1.330 -0.6646 -0.7632  0.3637
  490SOL    HW3 2006   4.369   0.899   1.201 -0.4685  1.5595 -0.3698
  490SOL    MW4 2007   4.434   0.938   1.244 -0.0014  0.0145  0.3647
  491SOL     OW 2008   4.437   1.221   1.129  0.3013 -0.0066  0.6833
  491SOL    HW2 2009   4.363   1.264   1.172 -0.2260  0.0815 -0.3112
  491SOL    HW3 2010   4.432   1.130   1.160 -0.7238 -0.2055 -0.0170
  491SOL    MW4 2011   4.426   1.214   1.139  0.0963 -0.0213  0.4596
  492SOL     OW 2012   0.159   1.336   1.285 -0.3361 -0.0344  0.0754
  492SOL    HW2 2013   0.240   1.287   1.268 -0.8778 -0.4963 -1.1376
  492SOL    HW3 2014   0.090   1.283   1.247 -1.1083  0.8825  0.1992
  492SOL    MW4 2015   0.161   1.322   1.278 -0.5095  0.0256 -0.0683
  493SOL     OW 2016   0.220   1.555   1.125  0.4395  0.2590 -0.8321
  493SOL    HW2 2017   0.202   1.475   1.174 -1.6109  1.3955  0.3470
  493SOL    HW3 2018   0.237   1.526   1.036 -0.8243 -1.4512 -0.5374
  493SOL    MW4 2019   0.220   1.541   1.120  0.0022  0.1833 -0.6378
  494SOL     OW 2020   4.488   1.672   1.223 -0.1711  0.0898  0.2448
  494SOL    HW2 2021   4.467   1.754   1.178  1.7606  0.8678  0.7270
  494SOL    HW3 2022   4.557   1.633   1.170  0.3723 -0.1969  1.1499
  494SOL    MW4 2023   4.494   1.678   1.210  0.1559  0.1547  0.4278
  495SOL     OW 2024   4.404   1.896   1.089  0.7240 -0.3643 -0.3972
  495SOL    HW2 2025   4.334   1.949   1.127  0.2129 -1.7289  0.6407
  495SOL    HW3 2026   4.414   1.927   1.000 -0.6352  0.4045 -0.2797
  495SOL    MW4 2027   4.396   1.907   1.082  0.4773 -0.4429 -0.2449
  496SOL     OW 2028   0.154   2.034   1.206  0.2211 -0.3809  0.6176
  496SOL    HW2 2029   0.147   2.123   1.169 -0.1428 -0.5325  0.3187
  496SOL    HW3 2030   0.079   1.987   1.169  0.7128 -0.9654  0.3530
  496SOL    MW4 2031   0.143   2.040   1.196  0.2380 -0.4778  0.5432
  497SOL     OW 2032   0.177   2.317   1.103 -0.1995 -0.7040  0.1025
  497SOL    HW2 2033   0.255   2.356   1.144  0.5748  0.0089 -1.9546
  497SOL    HW3 2034   0.104   2.371   1.134  0.1919 -0.9975  1.5662
  497SOL    MW4 2035   0.178   2.329   1.112 -0.0457 -0.6487  0.0242
  498SOL     OW 2036   4.453   2.452   1.224 -0.1482  0.4473 -0.3188
  498SOL    HW2 2037   4.450   2.449   1.320 -0.7587  2.4355 -0.2434
  498SOL    HW3 2038   4.385   2.391   1.196  0.1348 -0.2602  0.4950
  498SOL    MW4 2039   4.444   2.444   1.233 -0.1917  0.6163 -0.2015
  499SOL     OW 2040   4.433   2.717   1.156 -0.2880  0.0131 -0.3484
  499SOL    HW2 2041   4.355   2.761   1.192 -0.7503  0.2080 -1.5472
  499SOL    HW3 2042   4.421   2.625   1.179  0.4446  0.4112  1.7562
  499SOL    MW4 2043   4.421   2.711   1.164 -0.2522  0.0916 -0.2289
  500SOL     OW 2044   0.193   2.788   1.266 -0.3918 -0.1198  0.1019
  500SOL    HW2 2045   0.192   2.800   1.361 -0.1032 -0.1021  0.1032
  500SOL    HW3 2046   0.103   2.765   1.244 -0.4348 -0.2330  0.3944
  500SOL    MW4 2047   0.181   2.787   1.275 -0.3594 -0.1323  0.1408
  501SOL     OW 2048   0.184   3.069   1.170 -0.5261 -0.2251 -0.3662
  501SOL    HW2 2049   0.260   3.113   1.210 -0.0005 -0.1577 -1.4321
  501SOL    HW3 2050   0.183   2.982   1.212 -0.3436  0.0622  0.2419
  501SOL    MW4 2051   0.194   3.063   1.181 -0.4327 -0.1783 -0.4264
  502SOL     OW 2052   4.460   3.234   1.251 -0.2544 -0.3265 -0.0565
  502SOL    HW2 2053   4.380   3.205   1.206 -0.5756 -0.6182  0.6885
  502SOL    HW3 2054   4.528   3.175   1.218 -0.5380 -0.7088  0.0280
  502SOL    MW4 2055   4.458   3.222   1.241 -0.3347 -0.4153  0.0529
  503SOL     OW 2056   4.473   3.511   1.211  0.0208 -0.0438 -0.8559
  503SOL    HW2 2057   4.480   3.422   1.245 -1.6278 -0.4206 -1.4570
  503SOL    HW3 2058   4.491   3.503   1.118  0.3901  0.3512 -0.8250
  503SOL    MW4 2059   4.476   3.498   1.204 -0.1483 -0.0412 -0.9311
  504SOL     OW 2060   0.229   3.615   1.282 -0.1792 -0.0134 -0.2757
  504SOL    HW2 2061   0.244   3.603   1.376  1.2441  2.9465 -0.0839
  504SOL    HW3 2062   0.134   3.607   1.272 -0.3140 -0.6791  1.3632
  504SOL    MW4 2063   0.218   3.612   1.293 -0.0092  0.2894 -0.0342
  505SOL     OW 2064   0.202   3.899   1.158 -0.0790  0.5980  0.1718
  505SOL    HW2 2065   0.117   3.923   1.194  0.9660  1.2968  2.3103
  505SOL    HW3 2066   0.225   3.818   1.204  0.6927  0.7841  0.1263
  505SOL    MW4 2067   0.194   3.891   1.169  0.1606  0.7148  0.4478
  506SOL     OW 2068   4.437   3.988   1.274  0.0606 -0.0318  0.0427
  506SOL    HW2 2069   4.429   3.969   1.368  1.9678 -3.3044 -0.3746
  506SOL    HW3 2070   4.367   3.936   1.234 -0.0220  0.4581 -0.4394
  506SOL    MW4 2071   4.427   3.978   1.281  0.3014 -0.3989 -0.0759
  507SOL     OW 2072   4.485   4.264   1.183 -0.2477 -0.2125  0.3262
  507SOL    HW2 2073   4.572   4.287   1.217  0.0445  0.3282 -0.7550
  507SOL    HW3 2074   4.475   4.171   1.204  0.3366 -0.1187  1.0183
  507SOL    MW4 2075   4.495   4.255   1.190 -0.1316 -0.1287  0.2749
  508SOL     OW 2076   0.223   4.382   1.261  0.2662  0.6310 -0.6049
  508SOL    HW2 2077   0.206   4.416   1.349  1.2293 -2.5523  0.8857
  508SOL    HW3 2078   0.218   4.459   1.204  0.5638  2.9127  2.3386
  508SOL    MW4 2079   0.220   4.396   1.265  0.4325  0.5121 -0.0199
  509SOL     OW 2080   0.692   0.041   1.127  0.5982 -0.3653  0.0580
  509SOL    HW2 2081   0.768   0.081   1.170  0.5336 -0.3495  0.1582
  509SOL    HW3 2082   0.695  -0.051   1.154 -0.6191  0.0803  1.7889
  509SOL    MW4 2083   0.702   0.034   1.137  0.4290 -0.3044  0.2997
  510SOL     OW 2084   0.416   0.115   1.255 -0.5485 -0.0964  0.0584
  510SOL    HW2 2085   0.407   0.206   1.225 -0.9846  0.0036  0.4959
  510SOL    HW3 2086   0.505   0.090   1.228 -0.1539  0.7012  0.5921
  510SOL    MW4 2087   0.427   0.124   1.247 -0.5540  0.0220  0.1866
  511SOL     OW 2088   0.413   0.384   1.185 -0.3915 -0.0200 -0.1991
  511SOL    HW2 2089   0.357   0.455   1.216  0.1633 -0.4911  1.9801
  511SOL    HW3 2090   0.414   0.393   1.089 -1.9999  1.6142 -0.0734
  511SOL    MW4 2091   0.406   0.394   1.176 -0.5305  0.1334  0.1050
  512SOL     OW 2092   0.661   0.506   1.253  0.0830  0.4604 -0.2157
  512SOL    HW2 2093   0.645   0.596   1.224 -0.0733  0.4206 -0.2541
  512SOL    HW3 2094   0.578   0.461   1.237  1.2566 -0.6161 -3.7464
  512SOL    MW4 2095   0.648   0.512   1.247  0.2172  0.3132 -0.6866
  513SOL     OW 2096   0.617   0.745   1.134 -0.5142 -0.4362  0.3806
  513SOL    HW2 2097   0.550   0.806   1.165 -1.8456 -0.8200 -1.6327
  513SOL    HW3 2098   0.624   0.763   1.040  1.4858 -1.1102  0.3835
  513SOL    MW4 2099   0.609   0.756   1.125 -0.4260 -0.5758  0.1153
  514SOL     OW 2100   0.437   0.940   1.216  0.1943  0.4006  0.3294
  514SOL    HW2 2101   0.432   0.927   1.311  3.0557  0.4566  0.5368
  514SOL    HW3 2102   0.428   1.035   1.205 -1.5923  0.2501  0.4118
  514SOL    MW4 2103   0.435   0.951   1.227  0.3361  0.3881  0.3676
  515SOL     OW 2104   0.392   1.212   1.183  0.2810 -0.5104  0.3142
  515SOL    HW2 2105   0.481   1.235   1.209  0.2647  1.6940 -1.4649
  515SOL    HW3 2106   0.393   1.211   1.088 -1.2765 -1.8471  0.2765
  515SOL    MW4 2107   0.404   1.215   1.174  0.0734 -0.3959  0.0744
  516SOL     OW 2108   0.642   1.303   1.209 -0.1005 -0.0465 -0.5173
  516SOL    HW2 2109   0.709   1.252   1.163 -0.0383 -0.4018 -0.0368
  516SOL    HW3 2110   0.655   1.392   1.178 -0.0934 -0.2946 -1.2298
  516SOL    MW4 2111   0.653   1.308   1.199 -0.0913 -0.1261 -0.5479
  517SOL     OW 2112   0.664   1.573   1.100  0.3477  0.4587  0.3550
  517SOL    HW2 2113   0.747   1.606   1.134 -0.0284  2.2917 -0.4144
  517SOL    HW3 2114   0.597   1.619   1.150 -0.1912  0.9616 -0.7870
  517SOL    MW4 2115   0.666   1.583   1.111  0.2270  0.7670  0.1029
  518SOL     OW 2116   0.431   1.691   1.214  0.6195  0.0230 -0.1222
  518SOL    HW2 2117   0.419   1.690   1.309 -0.1619  2.0366 -0.1764
  518SOL    HW3 2118   0.355   1.644   1.180  0.7537 -0.4512  0.2266
  518SOL    MW4 2119   0.419   1.685   1.222  0.5341  0.2261 -0.0833
  519SOL     OW 2120   0.414   1.954   1.140 -0.1076  0.4243 -0.4232
  519SOL    HW2 2121   0.430   1.868   1.176  0.7582  0.6514 -0.2577
  519SOL    HW3 2122   0.326   1.977   1.169 -0.1932 -0.2416 -0.1613
  519SOL    MW4 2123   0.405   1.946   1.148 -0.0046  0.3663 -0.3667
  520SOL     OW 2124   0.667   2.048   1.230  0.1180 -0.0490  0.0957
  520SOL    HW2 2125   0.674   2.044   1.325  0.6718 -1.7764 -0.0023
  520SOL    HW3 2126   0.576   2.023   1.211 -0.2965  1.3354  0.2171
  520SOL    MW4 2127   0.656   2.044   1.240  0.1364 -0.0942  0.0987
  521SOL     OW 2128   0.647   2.330   1.165  0.0895 -0.0466 -0.1553
  521SOL    HW2 2129   0.561   2.366   1.186 -0.4428 -0.1116 -2.1795
  521SOL    HW3 2130   0.635   2.235   1.168  0.2207 -0.0570  0.0657
  521SOL    MW4 2131   0.634   2.322   1.168  0.0366 -0.0565 -0.3932
  522SOL     OW 2132   0.404   2.437   1.208  0.5799  0.1842 -0.7054
  522SOL    HW2 2133   0.402   2.441   1.304  0.9638 -0.8678 -0.6499
  522SOL    HW3 2134   0.411   2.529   1.181 -1.2858  0.6234  0.2220
  522SOL    MW4 2135   0.405   2.450   1.217  0.3844  0.1032 -0.5758
  523SOL     OW 2136   0.426   2.717   1.161  0.0243 -0.0291  0.2626
  523SOL    HW2 2137   0.338   2.732   1.197 -0.3043 -0.1875 -0.4627
  523SOL    HW3 2138   0.418   2.739   1.068  0.8475  0.3080  0.2685
  523SOL    MW4 2139   0.413   2.722   1.153  0.0895 -0.0052  0.1677
  524SOL     OW 2140   0.679   2.836   1.261 -0.1803 -0.3884  0.5980
  524SOL    HW2 2141   0.661   2.925   1.231  0.7914 -0.7281 -1.0416
  524SOL    HW3 2142   0.602   2.786   1.233  0.6124 -0.6541 -1.1596
  524SOL    MW4 2143   0.666   2.841   1.254  0.0525 -0.4683  0.1497
  525SOL     OW 2144   0.667   3.105   1.168 -0.1137  0.0163 -0.3736
  525SOL    HW2 2145   0.747   3.141   1.207 -0.7014  2.0026 -0.9004
  525SOL    HW3 2146   0.669   3.135   1.077 -1.3829 -0.0183 -0.4294
  525SOL    MW4 2147   0.677   3.114   1.161 -0.3586  0.2739 -0.4505
  526SOL     OW 2148   0.410   3.212   1.277 -0.4136  0.3032  0.2051
  526SOL    HW2 2149   0.412   3.293   1.227  1.8368  0.2191  0.1428
  526SOL    HW3 2150   0.477   3.156   1.238 -1.0350 -1.1108  1.0796
  526SOL    MW4 2151   0.419   3.215   1.266 -0.1987  0.1054  0.3123
  527SOL     OW 2152   0.423   3.458   1.157 -0.4715  0.5236 -0.1528
  527SOL    HW2 2153   0.506   3.484   1.197 -0.1371  0.3185 -0.7094
  527SOL    HW3 2154   0.356   3.505   1.207 -0.1336 -0.4559  1.2685
  527SOL    MW4 2155   0.425   3.467   1.169 -0.3828  0.3674 -0.0386
  528SOL     OW 2156   0.645   3.582   1.255 -0.5321 -0.0975 -0.3351
  528SOL    HW2 2157   0.662   3.606   1.346 -0.4087 -0.2760 -0.3124
  528SOL    HW3 2158   0.634   3.666   1.210  0.8161  0.0329 -0.4344
  528SOL    MW4 2159   0.646   3.596   1.261 -0.3380 -0.1042 -0.3452
  529SOL     OW 2160   0.632   3.846   1.148 -0.2960 -0.0134  0.4102
  529SOL    HW2 2161   0.558   3.905   1.163 -0.6009 -0.3811  0.3630
  529SOL    HW3 2162   0.649   3.853   1.054 -1.2085 -1.0172  0.1497
  529SOL    MW4 2163   0.624   3.855   1.138 -0.4566 -0.1941  0.3694
  530SOL     OW 2164   0.444   4.023   1.241  0.2318 -0.0406  0.4660
  530SOL    HW2 2165   0.458   4.117   1.227 -0.1015 -0.2162 -1.1794
  530SOL    HW3 2166   0.365   4.003   1.191  0.9270 -1.4079 -0.1050
  530SOL    MW4 2167   0.436   4.033   1.233  0.2796 -0.2446  0.1737
  531SOL     OW 2168   0.465   4.309   1.182 -0.1683 -0.1035  0.2939
  531SOL    HW2 2169   0.531   4.379   1.186  0.1942 -0.4442  0.3530
  531SOL    HW3 2170   0.388   4.347   1.224  0.6667 -0.4370  2.1725
  531SOL    MW4 2171   0.464   4.324   1.188 -0.0103 -0.1931  0.5498
  532SOL     OW 2172   0.680   4.448   1.261  0.6263 -0.3637 -0.1458
  532SOL    HW2 2173   0.679   4.460   1.356  0.6673 -1.5849  0.0248
  532SOL    HW3 2174   0.744   4.377   1.247  0.4833 -0.3196 -1.0661
  532SOL    MW4 2175   0.689   4.440   1.272  0.6129 -0.5188 -0.2446
  533SOL     OW 2176   1.141   4.638   1.136 -0.0232  0.8575 -0.2042
  533SOL    HW2 2177   1.124   4.545   1.153 -1.9297  1.3794  0.8753
  533SOL    HW3 2178   1.178   4.639   1.048 -1.7475 -0.7605 -0.9863
  533SOL    MW4 2179   1.143   4.626   1.127 -0.5023  0.7133 -0.1649
  534SOL     OW 2180   0.932   0.167   1.223 -0.1539  0.1118 -0.1837
  534SOL    HW2 2181   0.930   0.145   1.316 -1.8972 -0.7467 -0.3963
  534SOL    HW3 2182   1.000   0.110   1.186 -0.7242 -0.8766  0.2650
  534SOL    MW4 2183   0.941   0.156   1.230 -0.4591 -0.1319 -0.1525
  535SOL     OW 2184   0.862   0.396   1.074  0.1542  0.0947  0.5192
  535SOL    HW2 2185   0.892   0.308   1.095 -0.3713 -0.0462  0.6659
  535SOL    HW3 2186   0.808   0.422   1.148 -0.1419  0.3280  0.2216
  535SOL    MW4 2187   0.859   0.388   1.086  0.0458  0.1069  0.4994
  536SOL     OW 2188   1.098   0.510   1.174  0.3104  0.1601 -0.0865
  536SOL    HW2 2189   1.086   0.474   1.262  0.4337 -0.6087 -0.3753
  536SOL    HW3 2190   1.019   0.483   1.127  0.5780 -0.0597 -0.4094
  536SOL    MW4 2191   1.086   0.501   1.180  0.3622  0.0297 -0.1673
  537SOL     OW 2192   1.084   0.761   1.044 -0.0858 -0.2830  0.1291
  537SOL    HW2 2193   1.004   0.788   1.089  0.0720  0.6894 -0.1479
  537SOL    HW3 2194   1.105   0.675   1.081 -0.6048 -0.0202  1.0572
  537SOL    MW4 2195   1.076   0.753   1.055 -0.1334 -0.1201  0.2151
  538SOL     OW 2196   0.859   0.885   1.186 -0.1644  0.3129 -0.0501
  538SOL    HW2 2197   0.847   0.969   1.140 -1.0577  0.2793  0.1085
  538SOL    HW3 2198   0.782   0.834   1.162  0.1468 -0.2957  0.2351
  538SOL    MW4 2199   0.847   0.889   1.177 -0.2412  0.2283  0.0083
  539SOL     OW 2200   0.848   1.135   1.087 -0.7433  0.0882 -0.2839
  539SOL    HW2 2201   0.936   1.165   1.112 -0.7944 -0.7255  0.9498
  539SOL    HW3 2202   0.847   1.138   0.992  0.1200  1.5214 -0.2644
  539SOL    MW4 2203   0.860   1.139   1.078 -0.6361  0.1700 -0.1186
  540SOL     OW 2204   1.086   1.224   1.207  0.0410  0.6679 -0.4064
  540SOL    HW2 2205   1.080   1.244   1.301 -0.1196  2.2609 -0.7343
  540SOL    HW3 2206   1.169   1.178   1.197 -0.2190 -0.0365  0.6022
  540SOL    MW4 2207   1.096   1.221   1.218 -0.0144  0.7851 -0.3166
  541SOL     OW 2208   1.103   1.513   1.178  0.1601 -0.3123 -0.4056
  541SOL    HW2 2209   1.089   1.419   1.189  0.7131 -0.4452 -0.8638
  541SOL    HW3 2210   1.079   1.531   1.087  1.2890 -0.2342 -0.6938
  541SOL    MW4 2211   1.098   1.503   1.168  0.3821 -0.3195 -0.5040
  542SOL     OW 2212   0.885   1.662   1.228 -0.0533  0.3643  0.4417
  542SOL    HW2 2213   0.894   1.745   1.181 -0.8192  0.2705  0.1082
  542SOL    HW3 2214   0.972   1.623   1.225 -0.2044  0.0906 -1.4554
  542SOL    MW4 2215   0.898   1.668   1.221 -0.1742  0.3158  0.1476
  543SOL     OW 2216   0.892   1.911   1.109 -0.1433  0.0991 -0.2766
  543SOL    HW2 2217   0.978   1.949   1.127  0.2540 -0.8251 -0.1540
  543SOL    HW3 2218   0.831   1.962   1.161  0.8429 -1.7862  2.8859
  543SOL    MW4 2219   0.896   1.922   1.118  0.0393 -0.2714  0.1569
  544SOL     OW 2220   1.140   2.069   1.184  0.4363 -0.1776  0.0911
  544SOL    HW2 2221   1.130   2.059   1.279 -0.5178 -0.9200 -0.0717
  544SOL    HW3 2222   1.133   2.163   1.169  0.5876 -0.0569  0.7607
  544SOL    MW4 2223   1.137   2.080   1.195  0.3303 -0.2596  0.1578
  545SOL     OW 2224   1.090   2.343   1.125  0.6275  0.6580 -0.1873
  545SOL    HW2 2225   1.165   2.402   1.135  0.6911  0.6281 -0.5028
  545SOL    HW3 2226   1.027   2.374   1.191  0.2665  1.6919 -1.0119
  545SOL    MW4 2227   1.091   2.355   1.135  0.5884  0.7904 -0.3377
  546SOL     OW 2228   0.861   2.458   1.273 -0.1543 -0.4581  0.1246
  546SOL    HW2 2229   0.856   2.455   1.368  1.7126  0.6444  0.2798
  546SOL    HW3 2230   0.788   2.404   1.243  0.1391 -2.0563  2.1892
  546SOL    MW4 2231   0.851   2.450   1.281  0.1308 -0.5236  0.4175
  547SOL     OW 2232   0.911   2.699   1.157  0.7798 -0.3875 -0.3881
  547SOL    HW2 2233   0.899   2.621   1.211  0.0007 -1.5494 -2.2171
  547SOL    HW3 2234   0.839   2.757   1.182  0.1902 -1.0845 -0.4518
  547SOL    MW4 2235   0.900   2.696   1.168  0.5992 -0.6325 -0.6379
  548SOL     OW 2236   1.126   2.865   1.222 -0.1739  0.0053 -0.0151
  548SOL    HW2 2237   1.128   2.851   1.317 -2.9271 -0.4946  0.0226
  548SOL    HW3 2238   1.055   2.808   1.192  1.1253 -0.3571 -2.4783
  548SOL    MW4 2239   1.117   2.856   1.231 -0.3657 -0.1087 -0.3351
  549SOL     OW 2240   1.153   3.117   1.161  0.2699  0.1964 -0.1726
  549SOL    HW2 2241   1.137   3.023   1.170 -1.3898  0.3554 -1.1590
  549SOL    HW3 2242   1.154   3.132   1.067  0.4259  1.1851 -0.0190
  549SOL    MW4 2243   1.151   3.106   1.150  0.0714  0.3479 -0.2825
  550SOL     OW 2244   0.907   3.223   1.266  0.2589 -0.3171  0.3648
  550SOL    HW2 2245   0.912   3.307   1.220 -1.2406 -0.7738 -0.6369
  550SOL    HW3 2246   0.986   3.177   1.238 -0.4026 -0.4146 -1.4230
  550SOL    MW4 2247   0.918   3.228   1.256 -0.0262 -0.3903 -0.0033
  551SOL     OW 2248   0.891   3.489   1.148  0.2930  0.5144 -0.1816
  551SOL    HW2 2249   0.800   3.497   1.177  0.3174 -0.3761  0.1765
  551SOL    HW3 2250   0.890   3.519   1.057 -0.6080 -0.6709 -0.5780
  551SOL    MW4 2251   0.879   3.494   1.140  0.1774  0.2408 -0.1867
  552SOL     OW 2252   1.136   3.619   1.270 -0.3258  0.0381 -0.2190
  552SOL    HW2 2253   1.207   3.563   1.240  0.4537  0.4393  0.8442
  552SOL    HW3 2254   1.056   3.572   1.247  0.3206 -1.4426  0.5368
  552SOL    MW4 2255   1.135   3.606   1.263 -0.1378 -0.1042  0.0207
  553SOL     OW 2256   1.130   3.883   1.164 -0.3832  0.3250 -0.0807
  553SOL    HW2 2257   1.054   3.900   1.221 -0.6507  0.8946 -0.5991
  553SOL    HW3 2258   1.149   3.790   1.176 -1.0424  0.2236  0.2027
  553SOL    MW4 2259   1.123   3.873   1.173 -0.5053  0.3867 -0.1117
  554SOL     OW 2260   0.903   3.980   1.278  0.1888  0.2190  0.1159
  554SOL    HW2 2261   0.895   3.975   1.373  0.3054 -1.6968  0.0619
  554SOL    HW3 2262   0.825   3.934   1.245  0.7220 -0.1307 -0.6844
  554SOL    MW4 2263   0.891   3.973   1.286  0.2745 -0.0796  0.0031
  555SOL     OW 2264   0.829   4.229   1.162  0.1740 -0.0297  0.1375
  555SOL    HW2 2265   0.858   4.155   1.215  0.7244 -0.2325 -0.4429
  555SOL    HW3 2266   0.853   4.205   1.072  0.2228  0.7816 -0.0703
  555SOL    MW4 2267   0.836   4.216   1.157  0.2530  0.0505  0.0335
  556SOL     OW 2268   1.078   4.366   1.204 -0.0634  0.3055 -0.0455
  556SOL    HW2 2269   1.096   4.343   1.295  0.2512  1.4078  0.1824
  556SOL    HW3 2270   0.991   4.329   1.187 -0.4463  0.7160  0.9368
  556SOL    MW4 2271   1.069   4.358   1.214 -0.0724  0.5050  0.1142
  557SOL     OW 2272   1.568   0.018   1.067 -0.0304 -0.6047  0.0303
  557SOL    HW2 2273   1.640   0.070   1.101 -0.1902 -0.2501 -0.1777
  557SOL    HW3 2274   1.574  -0.065   1.115 -0.3286 -0.0621  1.0140
  557SOL    MW4 2275   1.578   0.014   1.078 -0.0910 -0.4863  0.1327
  558SOL     OW 2276   1.361   0.127   1.213  0.6772 -0.7312  0.0885
  558SOL    HW2 2277   1.424   0.089   1.151 -0.2764 -1.7452 -0.2648
  558SOL    HW3 2278   1.281   0.078   1.199 -0.4760  1.1545 -0.1054
  558SOL    MW4 2279   1.359   0.116   1.203  0.3992 -0.6162  0.0163
  559SOL     OW 2280   1.345   0.393   1.128 -0.4896  0.0619  0.6360
  559SOL    HW2 2281   1.341   0.319   1.188 -0.9654  0.3561  0.9730
  559SOL    HW3 2282   1.265   0.443   1.146 -0.0521  0.7937  0.5890
  559SOL    MW4 2283   1.334   0.390   1.138 -0.4947  0.1973  0.6742
  560SOL     OW 2284   1.581   0.513   1.196 -0.2500 -0.2211 -0.4363
  560SOL    HW2 2285   1.573   0.601   1.160  1.7233 -0.3223 -1.1786
  560SOL    HW3 2286   1.492   0.479   1.196 -1.3083  2.4604  1.6465
  560SOL    MW4 2287   1.569   0.520   1.191 -0.1292  0.1193 -0.2595
  561SOL     OW 2288   1.530   0.768   1.075  0.0537 -0.2528  0.4524
  561SOL    HW2 2289   1.615   0.805   1.098  0.0024  0.5812 -0.6441
  561SOL    HW3 2290   1.531   0.763   0.979 -0.9292 -0.7206  0.4553
  561SOL    MW4 2291   1.541   0.772   1.065 -0.0827 -0.2046  0.3082
  562SOL     OW 2292   1.307   0.853   1.220  0.2461 -0.0164 -0.1257
  562SOL    HW2 2293   1.390   0.837   1.175  0.7418  1.5217  0.1805
  562SOL    HW3 2294   1.240   0.830   1.156  0.9235  0.0467 -0.8740
  562SOL    MW4 2295   1.309   0.848   1.206  0.4008  0.1948 -0.1842
  563SOL     OW 2296   1.333   1.123   1.171 -0.0459 -0.1963 -0.0597
  563SOL    HW2 2297   1.318   1.037   1.210 -0.4999  0.0463  0.3109
  563SOL    HW3 2298   1.329   1.107   1.077  0.2450 -0.6439  0.0004
  563SOL    MW4 2299   1.330   1.109   1.164 -0.0674 -0.2233 -0.0029
  564SOL     OW 2300   1.560   1.241   1.293 -0.1738 -0.0454  0.0080
  564SOL    HW2 2301   1.633   1.204   1.243 -0.3878  0.8984 -1.0294
  564SOL    HW3 2302   1.483   1.223   1.239 -0.4020  1.0279 -0.0242
  564SOL    MW4 2303   1.559   1.234   1.279 -0.2320  0.2207 -0.1330
  565SOL     OW 2304   1.581   1.497   1.139 -0.5889  0.8484 -0.7477
  565SOL    HW2 2305   1.659   1.547   1.163 -0.8351  0.9813 -0.2033
  565SOL    HW3 2306   1.588   1.416   1.190 -1.2565  1.2496 -0.0080
  565SOL    MW4 2307   1.592   1.493   1.149 -0.7094  0.9189 -0.5783
  566SOL     OW 2308   1.357   1.639   1.202  0.1282 -0.0323  0.0811
  566SOL    HW2 2309   1.431   1.590   1.168 -0.4217 -0.3532 -0.6759
  566SOL    HW3 2310   1.280   1.594   1.167 -0.3927  1.0798 -0.2402
  566SOL    MW4 2311   1.357   1.627   1.193 -0.0131  0.0721 -0.0612
  567SOL     OW 2312   1.374   1.938   1.133 -0.1210 -0.2906 -0.3063
  567SOL    HW2 2313   1.357   1.848   1.162 -0.9278  0.0480  0.2744
  567SOL    HW3 2314   1.294   1.986   1.155 -0.0881  0.3496 -1.5286
  567SOL    MW4 2315   1.361   1.932   1.140 -0.2232 -0.1615 -0.3909
  568SOL     OW 2316   1.594   2.063   1.270 -0.2115  0.3023 -0.0488
  568SOL    HW2 2317   1.587   2.151   1.232 -0.1386  0.0662 -0.6219
  568SOL    HW3 2318   1.524   2.013   1.228 -1.0231  0.3988  1.1706
  568SOL    MW4 2319   1.584   2.068   1.259 -0.3090  0.2840  0.0365
  569SOL     OW 2320   1.552   2.317   1.191  0.0557  0.4139 -0.8290
  569SOL    HW2 2321   1.472   2.365   1.208 -1.1492 -1.5631 -0.7469
  569SOL    HW3 2322   1.548   2.294   1.098  0.6486  0.5159 -0.8841
  569SOL    MW4 2323   1.541   2.320   1.181 -0.0252  0.1664 -0.8254
  570SOL     OW 2324   1.302   2.465   1.213 -0.1700  0.3898  0.2763
  570SOL    HW2 2325   1.299   2.482   1.307 -0.3466  1.3739  0.0941
  570SOL    HW3 2326   1.312   2.552   1.173 -2.6514  0.2357 -0.7366
  570SOL    MW4 2327   1.303   2.479   1.220 -0.5206  0.4992  0.1185
  571SOL     OW 2328   1.370   2.728   1.176  0.4900 -0.1730  0.0232
  571SOL    HW2 2329   1.448   2.781   1.195  0.2319  0.2587 -0.1069
  571SOL    HW3 2330   1.296   2.786   1.196  0.2022 -0.5052 -0.0694
  571SOL    MW4 2331   1.370   2.743   1.181  0.4179 -0.1600 -0.0063
  572SOL     OW 2332   1.606   2.859   1.203  0.0254 -0.1711 -0.1408
  572SOL    HW2 2333   1.681   2.804   1.180  1.5780  1.0668  1.7874
  572SOL    HW3 2334   1.631   2.947   1.175  0.2536  0.6363  2.3890
  572SOL    MW4 2335   1.619   2.863   1.197  0.2602  0.0989  0.4474
  573SOL     OW 2336   1.612   3.127   1.069 -0.0735 -0.1622 -0.1918
  573SOL    HW2 2337   1.685   3.152   1.126 -1.5912  1.1547  1.1816
  573SOL    HW3 2338   1.533   3.146   1.120 -1.5021  1.9098 -3.0187
  573SOL    MW4 2339   1.612   3.133   1.083 -0.4622  0.2851 -0.3836
  574SOL     OW 2340   1.391   3.205   1.255  0.1752 -0.4684 -0.1543
  574SOL    HW2 2341   1.410   3.177   1.344 -0.3654  2.2132  0.8502
  574SOL    HW3 2342   1.307   3.165   1.235  0.6373 -1.6716  0.2507
  574SOL    MW4 2343   1.383   3.196   1.264  0.1649 -0.2735  0.0317
  575SOL     OW 2344   1.346   3.465   1.160 -0.4987 -0.4565 -0.0710
  575SOL    HW2 2345   1.355   3.374   1.188 -0.7398 -0.7674 -0.9963
  575SOL    HW3 2346   1.351   3.461   1.064  3.6314  0.9491 -0.0055
  575SOL    MW4 2347   1.348   3.452   1.151  0.0144 -0.3123 -0.1843
  576SOL     OW 2348   1.565   3.601   1.244 -0.2887 -0.1630  0.0781
  576SOL    HW2 2349   1.563   3.688   1.202  1.0346 -0.2550 -0.2061
  576SOL    HW3 2350   1.489   3.556   1.208 -1.0026  0.8913  0.2417
  576SOL    MW4 2351   1.555   3.607   1.234 -0.2081 -0.0362  0.0622
  577SOL     OW 2352   1.582   3.852   1.150 -0.0419  0.0426 -0.2774
  577SOL    HW2 2353   1.514   3.903   1.193  0.0605 -0.3980  0.4216
  577SOL    HW3 2354   1.567   3.866   1.057 -1.3935 -0.4413 -0.1480
  577SOL    MW4 2355   1.571   3.860   1.144 -0.2067 -0.0794 -0.1680
  578SOL     OW 2356   1.372   4.033   1.195  0.0732 -0.7754  0.3927
  578SOL    HW2 2357   1.366   4.125   1.171  0.4775 -0.9421 -0.3580
  578SOL    HW3 2358   1.287   3.996   1.171 -0.0672 -0.6118  0.6389
  578SOL    MW4 2359   1.360   4.040   1.189  0.1080 -0.7763  0.3263
  579SOL     OW 2360   1.343   4.311   1.146 -0.5081  0.2987 -0.2544
  579SOL    HW2 2361   1.253   4.330   1.172 -0.7882 -1.0858 -0.1580
  579SOL    HW3 2362   1.339   4.304   1.050 -0.4623  0.4622 -0.2678
  579SOL    MW4 2363   1.330   4.312   1.137 -0.5391  0.1373 -0.2434
  580SOL     OW 2364   1.565   4.458   1.206 -0.0035 -0.4199  0.1277
  580SOL    HW2 2365   1.573   4.453   1.302  1.5299 -2.2706 -0.0686
  580SOL    HW3 2366   1.478   4.422   1.189  0.0113 -0.7810  0.7759
  580SOL    MW4 2367   1.554   4.452   1.217  0.2007 -0.7114  0.1872
  581SOL     OW 2368   1.987   4.658   1.050  0.3154  0.1148  0.0080
  581SOL    HW2 2369   2.001   4.574   1.093  0.2692  0.3755  0.5407
  581SOL    HW3 2370   1.986   4.638   0.957 -0.3057 -0.5662  0.1578
  581SOL    MW4 2371   1.989   4.645   1.044  0.2272  0.0587  0.0981
  582SOL     OW 2372   1.794   0.139   1.180 -0.1994  0.2955  0.2147
  582SOL    HW2 2373   1.794   0.223   1.134 -1.0450 -0.3713 -1.0345
  582SOL    HW3 2374   1.862   0.088   1.137  0.2899  0.3270  0.9510
  582SOL    MW4 2375   1.803   0.143   1.169 -0.2463  0.2117  0.1469
  583SOL     OW 2376   1.784   0.388   1.045 -0.0344  0.4288  0.2959
  583SOL    HW2 2377   1.710   0.437   1.081 -1.3597 -0.8186 -0.6649
  583SOL    HW3 2378   1.767   0.384   0.951  0.3094 -1.4208  0.2910
  583SOL    MW4 2379   1.772   0.394   1.037 -0.1639  0.0201  0.1684
  584SOL     OW 2380   1.992   0.526   1.165 -0.1285 -0.5558  0.0943
  584SOL    HW2 2381   1.975   0.525   1.259 -2.0449  1.4777 -0.1992
  584SOL    HW3 2382   1.939   0.454   1.130 -0.4489 -0.4805  0.4239
  584SOL    MW4 2383   1.982   0.516   1.172 -0.4237 -0.2776  0.0991
  585SOL     OW 2384   2.035   0.827   1.108  0.1023  0.1295  0.2692
  585SOL    HW2 2385   2.042   0.736   1.136 -0.0228  0.0247 -0.0393
  585SOL    HW3 2386   2.042   0.824   1.013  2.4032  0.6761  0.3939
  585SOL    MW4 2387   2.037   0.815   1.099  0.3896  0.1879  0.2450
  586SOL     OW 2388   1.771   0.878   1.160  0.3385  0.2404  0.4078
  586SOL    HW2 2389   1.768   0.849   1.251  0.5051 -1.5296 -0.1291
  586SOL    HW3 2390   1.858   0.855   1.130 -0.4808 -1.3472 -0.8578
  586SOL    MW4 2391   1.782   0.871   1.168  0.2524 -0.2026  0.1699
  587SOL     OW 2392   1.779   1.150   1.145  0.1800 -0.0648 -0.4725
  587SOL    HW2 2393   1.791   1.055   1.149 -3.3894 -0.6020 -0.6415
  587SOL    HW3 2394   1.778   1.170   1.051  1.8305  0.2977 -0.4244
  587SOL    MW4 2395   1.780   1.140   1.133 -0.0731 -0.0879 -0.4884
  588SOL     OW 2396   1.983   1.319   1.227  0.1858  0.0062 -0.2396
  588SOL    HW2 2397   2.060   1.278   1.188  1.2215  1.3330  0.3864
  588SOL    HW3 2398   1.909   1.268   1.192  1.0924  0.8370 -3.5348
  588SOL    MW4 2399   1.983   1.306   1.217  0.4419  0.2909 -0.5918
  589SOL     OW 2400   2.026   1.565   1.141 -0.4306  0.1125 -0.1029
  589SOL    HW2 2401   2.016   1.472   1.162 -0.2580  0.0997 -0.0719
  589SOL    HW3 2402   2.018   1.569   1.046  0.7792 -0.1059 -0.2314
  589SOL    MW4 2403   2.024   1.553   1.131 -0.2480  0.0820 -0.1156
  590SOL     OW 2404   1.767   1.670   1.217 -0.3471 -0.0874 -0.3330
  590SOL    HW2 2405   1.755   1.758   1.181 -0.5944 -0.0279 -0.1043
  590SOL    HW3 2406   1.861   1.652   1.204  0.3247  1.3645  2.2312
  590SOL    MW4 2407   1.778   1.680   1.210 -0.2909  0.1119  0.0355
  591SOL     OW 2408   1.788   1.921   1.124 -0.1009 -0.5765 -0.1253
  591SOL    HW2 2409   1.721   1.968   1.174 -0.9642 -2.3297  0.4251
  591SOL    HW3 2410   1.755   1.920   1.034 -1.4271 -2.4550  0.3573
  591SOL    MW4 2411   1.775   1.927   1.119 -0.3897 -1.0558  0.0110
  592SOL     OW 2412   2.017   2.016   1.254 -0.2877  0.1669 -0.0007
  592SOL    HW2 2413   2.001   2.047   1.343  2.7330 -2.6097  1.6411
  592SOL    HW3 2414   1.943   1.958   1.234 -0.3953 -0.0966  1.1638
  592SOL    MW4 2415   2.005   2.012   1.263  0.0968 -0.2339  0.3694
  593SOL     OW 2416   1.988   2.264   1.144 -0.5599 -0.0754 -0.0186
  593SOL    HW2 2417   2.058   2.324   1.167 -0.1401 -0.4363 -0.3499
  593SOL    HW3 2418   2.013   2.181   1.185 -0.4260 -0.3953 -0.7486
  593SOL    MW4 2419   2.000   2.261   1.153 -0.4866 -0.1655 -0.1587
  594SOL     OW 2420   1.795   2.452   1.209 -0.0569  0.5703 -0.1842
  594SOL    HW2 2421   1.846   2.374   1.184 -0.1944  0.0592  1.1224
  594SOL    HW3 2422   1.704   2.423   1.205 -0.1215  0.7485  0.0114
  594SOL    MW4 2423   1.790   2.438   1.205 -0.0836  0.5264  0.0141
  595SOL     OW 2424   1.809   2.710   1.129 -0.7350  0.2779  0.0020
  595SOL    HW2 2425   1.808   2.619   1.160  1.2383  0.3651  0.3542
  595SOL    HW3 2426   1.801   2.703   1.034 -0.5042 -0.2571  0.0200
  595SOL    MW4 2427   1.808   2.697   1.121 -0.4443  0.2186  0.0508
  596SOL     OW 2428   2.000   2.843   1.282  0.0474  0.5274 -0.1165
  596SOL    HW2 2429   2.013   2.920   1.226  0.1943  0.8598  0.3704
  596SOL    HW3 2430   1.928   2.796   1.241  0.1383  0.7845 -0.5728
  596SOL    MW4 2431   1.992   2.847   1.269  0.0787  0.6051 -0.1124
  597SOL     OW 2432   2.040   3.092   1.148 -0.5754  0.0580 -0.0933
  597SOL    HW2 2433   1.966   3.125   1.199 -1.2189  0.7464 -1.4540
  597SOL    HW3 2434   2.009   3.091   1.058  0.6911 -0.7642 -0.5308
  597SOL    MW4 2435   2.027   3.097   1.143 -0.4930  0.0405 -0.3306
  598SOL     OW 2436   1.808   3.197   1.279 -0.5276 -0.0036  0.0025
  598SOL    HW2 2437   1.787   3.192   1.373  0.1431 -1.1239  0.1108
  598SOL    HW3 2438   1.819   3.290   1.261 -0.1046  0.1796  1.1670
  598SOL    MW4 2439   1.807   3.208   1.289 -0.3833 -0.1276  0.1704
  599SOL     OW 2440   1.799   3.454   1.149  0.0389 -0.5276 -0.1874
  599SOL    HW2 2441   1.872   3.513   1.169  0.2942 -0.7074 -0.5744
  599SOL    HW3 2442   1.721   3.503   1.175  0.2756 -0.1940 -0.0944
  599SOL    MW4 2443   1.799   3.468   1.155  0.1038 -0.5071 -0.2261
  600SOL     OW 2444   2.030   3.611   1.218  0.2985 -0.3685 -0.1077
  600SOL    HW2 2445   2.024   3.607   1.314 -0.2348 -0.5128 -0.1489
  600SOL    HW3 2446   2.113   3.568   1.198  0.8768  0.5208  0.3582
  600SOL    MW4 2447   2.040   3.605   1.228  0.3047 -0.2704 -0.0519
  601SOL     OW 2448   1.995   3.864   1.097 -0.0112  0.0976  0.2773
  601SOL    HW2 2449   1.926   3.902   1.151  0.7955 -0.2663  1.5641
  601SOL    HW3 2450   1.996   3.771   1.120  2.8011  0.5941  2.3604
  601SOL    MW4 2451   1.986   3.857   1.107  0.4662  0.1152  0.7218
  602SOL     OW 2452   1.809   3.984   1.244  0.0700 -0.1943  0.4474
  602SOL    HW2 2453   1.810   3.988   1.340 -0.0546  0.2697  0.4260
  602SOL    HW3 2454   1.726   3.942   1.223 -0.1958  0.2959  0.5165
  602SOL    MW4 2455   1.798   3.979   1.254  0.0185 -0.0684  0.4537
  603SOL     OW 2456   1.790   4.267   1.158 -0.0817 -0.1733 -0.2648
  603SOL    HW2 2457   1.790   4.176   1.187 -0.3611 -0.1712 -0.2566
  603SOL    HW3 2458   1.702   4.298   1.177  0.3850  0.4726  0.8900
  603SOL    MW4 2459   1.779   4.259   1.164 -0.0571 -0.0882 -0.1113
  604SOL     OW 2460   2.011   4.428   1.228 -0.0456 -0.4767 -0.0224
  604SOL    HW2 2461   2.037   4.381   1.306  0.1233 -0.4231 -0.0469
  604SOL    HW3 2462   1.928   4.388   1.202 -0.4410 -0.0572  0.5626
  604SOL    MW4 2463   2.003   4.417   1.235 -0.0756 -0.4148  0.0516
  605SOL     OW 2464   2.437   4.657   1.064  0.7065 -0.0208  0.0981
  605SOL    HW2 2465   2.507   4.705   1.110  0.6153  0.1364  0.0757
  605SOL    HW3 2466   2.356   4.699   1.095  0.6633  0.3347 -0.4951
  605SOL    MW4 2467   2.436   4.669   1.074  0.6888  0.0472  0.0169
  606SOL     OW 2468   2.196   0.118   1.179 -0.2219  0.2309  0.3867
  606SOL    HW2 2469   2.192   0.210   1.153 -0.8206  0.2337  0.4760
  606SOL    HW3 2470   2.129   0.076   1.124  1.6046 -0.5448 -1.2797
  606SOL    MW4 2471   2.186   0.125   1.168 -0.0596  0.1290  0.1787
  607SOL     OW 2472   2.223   0.374   1.059  0.1096  0.0053  0.3365
  607SOL    HW2 2473   2.153   0.438   1.072 -0.4300 -0.0824 -1.9047
  607SOL    HW3 2474   2.250   0.387   0.968  1.3246 -1.6310  0.4517
  607SOL    MW4 2475   2.217   0.384   1.049  0.1988 -0.2221  0.0560
  608SOL     OW 2476   2.456   0.471   1.181 -0.1723 -0.0684  0.1033
  608SOL    HW2 2477   2.436   0.486   1.273  1.4716  0.1444  0.4280
  608SOL    HW3 2478   2.374   0.437   1.145 -1.2537  1.1608  1.3221
  608SOL    MW4 2479   2.442   0.468   1.188 -0.0982  0.1219  0.3070
  609SOL     OW 2480   2.433   0.769   1.090  0.3864 -0.3883 -0.6772
  609SOL    HW2 2481   2.451   0.680   1.119  0.5457 -0.4034 -0.8218
  609SOL    HW3 2482   2.442   0.766   0.995 -1.7661 -0.7176 -0.9070
  609SOL    MW4 2483   2.437   0.757   1.081  0.1233 -0.4337 -0.7265
  610SOL     OW 2484   2.257   0.940   1.214 -0.0274  0.1035  0.2164
  610SOL    HW2 2485   2.325   0.885   1.175 -1.7014 -1.2534 -0.9005
  610SOL    HW3 2486   2.176   0.911   1.172 -1.1982  2.2440  0.9172
  610SOL    MW4 2487   2.255   0.929   1.204 -0.4027  0.2068  0.1615
  611SOL     OW 2488   2.222   1.205   1.128  0.3098  0.1005  0.0247
  611SOL    HW2 2489   2.300   1.257   1.148  0.2328 -0.8488  3.0896
  611SOL    HW3 2490   2.235   1.123   1.176 -1.1898 -1.2870 -1.8808
  611SOL    MW4 2491   2.234   1.201   1.137  0.1018 -0.2078  0.1777
  612SOL     OW 2492   2.468   1.317   1.205 -0.2708 -0.1318  0.5359
  612SOL    HW2 2493   2.548   1.275   1.171 -0.0557  1.0406 -0.4686
  612SOL    HW3 2494   2.472   1.406   1.169 -2.1241 -0.1265  0.3319
  612SOL    MW4 2495   2.479   1.323   1.195 -0.4871  0.0236  0.3765
  613SOL     OW 2496   2.446   1.547   1.066  0.3522 -0.0690 -0.4840
  613SOL    HW2 2497   2.379   1.607   1.098  0.0502 -0.5334 -0.2456
  613SOL    HW3 2498   2.446   1.559   0.971  0.9010  0.9415 -0.3668
  613SOL    MW4 2499   2.437   1.557   1.058  0.3848  0.0031 -0.4370
  614SOL     OW 2500   2.257   1.679   1.211 -0.5464  0.0948 -0.0832
  614SOL    HW2 2501   2.249   1.771   1.189  0.0416 -0.0287 -0.8130
  614SOL    HW3 2502   2.177   1.639   1.177 -0.2430  0.1268 -0.8239
  614SOL    MW4 2503   2.245   1.686   1.204 -0.4287  0.0826 -0.2770
  615SOL     OW 2504   2.261   1.951   1.162  0.5265  0.3119 -0.0726
  615SOL    HW2 2505   2.176   1.977   1.198  0.4420  1.7657 -1.2648
  615SOL    HW3 2506   2.254   1.971   1.069  1.6232 -1.0615 -0.4663
  615SOL    MW4 2507   2.249   1.957   1.155  0.6602  0.3225 -0.2818
  616SOL     OW 2508   2.457   2.106   1.256 -0.1249  0.2148  0.4212
  616SOL    HW2 2509   2.531   2.057   1.219 -0.8663 -0.3476 -0.3364
  616SOL    HW3 2510   2.379   2.062   1.220 -0.7978  1.6915  0.0442
  616SOL    MW4 2511   2.457   2.094   1.246 -0.3114  0.3355  0.2716
  617SOL     OW 2512   2.467   2.350   1.152  0.0622 -0.1007  0.2289
  617SOL    HW2 2513   2.465   2.257   1.175  3.1480 -0.5967 -1.3548
  617SOL    HW3 2514   2.462   2.351   1.057  1.2251  1.2830  0.1699
  617SOL    MW4 2515   2.466   2.338   1.143  0.6227  0.0162  0.0122
  618SOL     OW 2516   2.214   2.433   1.200 -0.1085 -0.3826 -0.0626
  618SOL    HW2 2517   2.225   2.451   1.293  0.3522  1.6154 -0.4927
  618SOL    HW3 2518   2.301   2.405   1.170  0.4796  1.8177 -0.4910
  618SOL    MW4 2519   2.227   2.431   1.208  0.0298  0.1712 -0.1758
  619SOL     OW 2520   2.208   2.697   1.141  0.0838 -0.5628  0.5133
  619SOL    HW2 2521   2.214   2.603   1.158  0.0754 -0.7844 -0.6540
  619SOL    HW3 2522   2.140   2.728   1.201 -2.4244 -1.9371 -1.5085
  619SOL    MW4 2523   2.199   2.689   1.151 -0.2484 -0.7734  0.0925
  620SOL     OW 2524   2.420   2.855   1.153 -0.6103  0.3584 -0.2658
  620SOL    HW2 2525   2.446   2.849   1.245  0.1022 -0.1698 -0.5043
  620SOL    HW3 2526   2.348   2.792   1.144  0.3908 -0.7684 -0.4536
  620SOL    MW4 2527   2.414   2.846   1.164 -0.3841  0.1400 -0.3220
  621SOL     OW 2528   2.449   3.116   1.039 -0.0578 -0.0576  0.0121
  621SOL    HW2 2529   2.407   3.172   1.105 -0.4108 -0.0560 -0.2136
  621SOL    HW3 2530   2.449   3.029   1.079  0.0161  0.0012  0.1435
  621SOL    MW4 2531   2.444   3.112   1.053 -0.0947 -0.0496 -0.0005
  622SOL     OW 2532   2.272   3.218   1.242 -0.7438 -0.1446  0.1915
  622SOL    HW2 2533   2.253   3.310   1.223 -0.0524  0.0188  0.2817
  622SOL    HW3 2534   2.199   3.170   1.203 -0.4587  0.3440 -0.9676
  622SOL    MW4 2535   2.260   3.224   1.234 -0.6149 -0.0584  0.0504
  623SOL     OW 2536   2.237   3.466   1.153 -0.3257 -0.4077 -0.1908
  623SOL    HW2 2537   2.309   3.524   1.176 -1.1333  0.2917  0.5762
  623SOL    HW3 2538   2.243   3.457   1.058 -0.4081  1.2096 -0.3528
  623SOL    MW4 2539   2.248   3.472   1.143 -0.4432 -0.1020 -0.1111
  624SOL     OW 2540   2.461   3.612   1.213 -0.2216 -0.1024 -0.1312
  624SOL    HW2 2541   2.479   3.612   1.307 -3.1723 -0.1921  0.4710
  624SOL    HW3 2542   2.464   3.704   1.187 -0.0718 -0.0186  0.1860
  624SOL    MW4 2543   2.464   3.624   1.222 -0.5910 -0.1032 -0.0098
  625SOL     OW 2544   2.475   3.894   1.108 -0.2530 -0.0966 -0.5510
  625SOL    HW2 2545   2.390   3.930   1.136 -1.0780 -1.6146 -1.0297
  625SOL    HW3 2546   2.464   3.879   1.014 -0.3480 -2.6739 -0.1575
  625SOL    MW4 2547   2.462   3.897   1.099 -0.3746 -0.6371 -0.5622
  626SOL     OW 2548   2.243   4.000   1.197 -0.2256 -0.0331 -0.4480
  626SOL    HW2 2549   2.239   4.092   1.171 -0.0936  0.0330 -0.2341
  626SOL    HW3 2550   2.161   3.962   1.164 -0.7243  0.3770  0.2963
  626SOL    MW4 2551   2.231   4.007   1.189 -0.2739  0.0291 -0.3215
  627SOL     OW 2552   2.223   4.281   1.107  0.1149  0.4746 -0.1390
  627SOL    HW2 2553   2.144   4.329   1.133 -0.2674 -0.3304  0.2182
  627SOL    HW3 2554   2.215   4.271   1.012  1.2175  2.9040 -0.5157
  627SOL    MW4 2555   2.211   4.286   1.098  0.2098  0.6890 -0.1415
  628SOL     OW 2556   2.480   4.387   1.191  0.3006 -0.0569  0.0644
  628SOL    HW2 2557   2.391   4.366   1.161  0.8402 -2.2527 -0.0986
  628SOL    HW3 2558   2.494   4.477   1.162 -1.6290  0.1029 -0.4893
  628SOL    MW4 2559   2.470   4.396   1.183  0.1171 -0.3262 -0.0302
  629SOL     OW 2560   2.884   4.633   1.120 -0.2106 -0.5744 -0.0198
  629SOL    HW2 2561   2.886   4.546   1.160 -0.8680 -0.5147  0.1547
  629SOL    HW3 2562   2.892   4.617   1.026 -1.1093 -0.8754 -0.0508
  629SOL    MW4 2563   2.886   4.619   1.113 -0.4156 -0.6065 -0.0007
  630SOL     OW 2564   2.647   0.099   1.192  0.2414 -0.3676 -0.1358
  630SOL    HW2 2565   2.649   0.117   1.286 -0.2378 -0.3081 -0.1383
  630SOL    HW3 2566   2.725   0.046   1.176  0.8509  0.4259  0.1315
  630SOL    MW4 2567   2.658   0.095   1.202  0.2584 -0.2550 -0.1009
  631SOL     OW 2568   2.658   0.339   1.069  0.2953  0.1322 -0.3649
  631SOL    HW2 2569   2.642   0.253   1.108  0.3338  0.0013 -0.6411
  631SOL    HW3 2570   2.593   0.396   1.110  0.5603  0.0673  0.1449
  631SOL    MW4 2571   2.647   0.336   1.080  0.3355  0.1064 -0.3340
  632SOL     OW 2572   2.877   0.486   1.207 -0.4428  0.0168  0.0365
  632SOL    HW2 2573   2.880   0.571   1.162  1.4863  0.1971  0.4575
  632SOL    HW3 2574   2.812   0.436   1.159 -0.3992  1.1617 -1.2529
  632SOL    MW4 2575   2.869   0.491   1.195 -0.1829  0.1917 -0.0781
  633SOL     OW 2576   2.872   0.741   1.099 -0.1795 -0.5609  0.0592
  633SOL    HW2 2577   2.949   0.786   1.135 -0.0890 -0.8507  0.2303
  633SOL    HW3 2578   2.798   0.776   1.148 -0.1327 -0.4402  0.0433
  633SOL    MW4 2579   2.873   0.752   1.110 -0.1614 -0.5832  0.0795
  634SOL     OW 2580   2.654   0.898   1.212  0.5309 -0.1703 -0.6115
  634SOL    HW2 2581   2.686   0.975   1.165  1.7621 -0.2889 -0.0099
  634SOL    HW3 2582   2.581   0.866   1.160  0.0059  1.4050 -0.8701
  634SOL    MW4 2583   2.649   0.904   1.199  0.6239  0.0219 -0.5661
  635SOL     OW 2584   2.688   1.164   1.101  0.1350 -0.3501 -0.2716
  635SOL    HW2 2585   2.769   1.213   1.118  0.0321  0.4513 -1.9729
  635SOL    HW3 2586   2.678   1.166   1.006 -1.5712 -0.9725 -0.1280
  635SOL    MW4 2587   2.698   1.171   1.090 -0.1037 -0.3264 -0.4772
  636SOL     OW 2588   2.925   1.284   1.145 -0.0160  0.0672  0.2229
  636SOL    HW2 2589   2.923   1.264   1.239  0.8801 -0.2380  0.1825
  636SOL    HW3 2590   2.926   1.380   1.141 -0.3471  0.0860  0.5149
  636SOL    MW4 2591   2.925   1.294   1.157  0.0587  0.0294  0.2562
  637SOL     OW 2592   2.878   1.555   1.058 -0.2676  0.1193 -0.1954
  637SOL    HW2 2593   2.953   1.600   1.098 -0.3416  0.2747 -0.2293
  637SOL    HW3 2594   2.903   1.542   0.967  0.3666 -1.2564  0.1580
  637SOL    MW4 2595   2.891   1.559   1.052 -0.1936 -0.0417 -0.1532
  638SOL     OW 2596   2.668   1.697   1.185 -0.4401 -0.5601  0.6387
  638SOL    HW2 2597   2.737   1.656   1.133 -0.0550  1.9280 -0.9334
  638SOL    HW3 2598   2.587   1.656   1.154 -0.0061 -0.6293 -0.4380
  638SOL    MW4 2599   2.666   1.686   1.174 -0.3321 -0.2408  0.2892
  639SOL     OW 2600   2.638   1.963   1.104  0.1536  0.2500 -0.3980
  639SOL    HW2 2601   2.722   2.004   1.125  0.0077  0.3477  0.0016
  639SOL    HW3 2602   2.648   1.872   1.133  0.6754 -0.1508 -1.8002
  639SOL    MW4 2603   2.651   1.956   1.111  0.2031  0.2099 -0.5304
  640SOL     OW 2604   2.906   2.060   1.175  0.0813 -0.1027 -0.1584
  640SOL    HW2 2605   2.901   2.058   1.271  1.4510  0.0107 -0.0813
  640SOL    HW3 2606   2.912   2.153   1.153 -0.4451 -0.1163 -0.3736
  640SOL    MW4 2607   2.906   2.072   1.185  0.1926 -0.0894 -0.1765
  641SOL     OW 2608   2.915   2.328   1.086  0.2926  0.1940 -0.0438
  641SOL    HW2 2609   2.998   2.361   1.121  0.4807 -1.1384  0.7971
  641SOL    HW3 2610   2.848   2.386   1.125  0.6536 -0.1363  1.0901
  641SOL    MW4 2611   2.917   2.340   1.096  0.3650 -0.0255  0.2168
  642SOL     OW 2612   2.706   2.482   1.226  0.0367  0.4130  0.5754
  642SOL    HW2 2613   2.704   2.480   1.321 -0.2748 -0.1214  0.5578
  642SOL    HW3 2614   2.630   2.431   1.199 -1.5551  2.9585  0.0417
  642SOL    MW4 2615   2.696   2.475   1.235 -0.2148  0.6785  0.5027
  643SOL     OW 2616   2.638   2.704   1.058  0.2767 -0.0363 -0.0527
  643SOL    HW2 2617   2.641   2.627   1.115  1.0983 -0.6825 -0.9436
  643SOL    HW3 2618   2.565   2.755   1.091 -0.1303 -1.0821  0.7113
  643SOL    MW4 2619   2.629   2.700   1.070  0.3316 -0.2596 -0.0694
  644SOL     OW 2620   2.878   2.799   1.223  0.6286 -0.0482 -0.5069
  644SOL    HW2 2621   2.871   2.775   1.316  0.2969 -0.6251 -0.6827
  644SOL    HW3 2622   2.801   2.760   1.182  1.1275 -0.3683 -1.1462
  644SOL    MW4 2623   2.867   2.791   1.230  0.6509 -0.1667 -0.6144
  645SOL     OW 2624   2.869   3.086   1.162 -0.2065 -0.5828 -0.1075
  645SOL    HW2 2625   2.854   2.994   1.185 -1.7380 -0.6552 -1.3253
  645SOL    HW3 2626   2.867   3.087   1.066 -0.5258  0.7700 -0.0989
  645SOL    MW4 2627   2.867   3.074   1.152 -0.4506 -0.4137 -0.2670
  646SOL     OW 2628   2.642   3.239   1.232  0.0899  0.1713  0.1637
  646SOL    HW2 2629   2.721   3.190   1.207  0.5161  0.3140  1.2241
  646SOL    HW3 2630   2.574   3.204   1.175  0.7337 -0.5667 -0.1651
  646SOL    MW4 2631   2.644   3.228   1.221  0.2310  0.0925  0.2601
  647SOL     OW 2632   2.703   3.493   1.125 -0.2069  0.1109  0.4620
  647SOL    HW2 2633   2.712   3.407   1.166  0.0360  0.0124  0.2067
  647SOL    HW3 2634   2.613   3.519   1.142 -0.9405 -1.1377 -1.2979
  647SOL    MW4 2635   2.692   3.485   1.133 -0.2716 -0.0668  0.1961
  648SOL     OW 2636   2.915   3.634   1.250  0.1513 -0.3039  0.0110
  648SOL    HW2 2637   2.993   3.594   1.210 -0.1153  0.5555 -1.3991
  648SOL    HW3 2638   2.841   3.594   1.204 -0.1156  1.9503 -1.6226
  648SOL    MW4 2639   2.916   3.624   1.239  0.0808  0.1068 -0.3905
  649SOL     OW 2640   2.917   3.883   1.104  0.0524 -0.1201  0.1799
  649SOL    HW2 2641   2.995   3.931   1.132  0.0019 -0.4465  0.8762
  649SOL    HW3 2642   2.921   3.801   1.152 -0.3931 -0.3999 -0.2600
  649SOL    MW4 2643   2.928   3.879   1.114 -0.0131 -0.2003  0.2136
  650SOL     OW 2644   2.696   4.019   1.222 -0.1853 -0.0221 -0.1245
  650SOL    HW2 2645   2.765   3.971   1.176 -0.1700  0.5439 -0.7077
  650SOL    HW3 2646   2.614   3.979   1.190 -0.1234 -1.1042  1.0295
  650SOL    MW4 2647   2.694   4.007   1.212 -0.1748 -0.0906 -0.0489
  651SOL     OW 2648   2.691   4.249   1.077 -0.0127 -0.2415  0.5135
  651SOL    HW2 2649   2.684   4.165   1.122 -1.0354 -0.6398 -0.3420
  651SOL    HW3 2650   2.623   4.303   1.118  0.4507  0.0673  0.8674
  651SOL    MW4 2651   2.681   4.245   1.088 -0.0863 -0.2532  0.4474
  652SOL     OW 2652   2.912   4.362   1.212 -0.0234 -0.4677 -0.1705
  652SOL    HW2 2653   2.998   4.333   1.182 -0.3668 -0.8033 -0.8592
  652SOL    HW3 2654   2.851   4.328   1.146 -0.2594  3.4388 -2.1094
  652SOL    MW4 2655   2.915   4.354   1.199 -0.0997  0.0033 -0.5172
  653SOL     OW 2656   3.364   0.013   1.183 -0.4508 -0.2077  0.1816
  653SOL    HW2 2657   3.416   0.080   1.227 -0.5039 -0.5933  0.8443
  653SOL    HW3 2658   3.276   0.050   1.177 -0.4174 -0.1075  0.3057
  653SOL    MW4 2659   3.359   0.027   1.188 -0.4535 -0.2456  0.2854
  654SOL     OW 2660   3.110   0.135   1.163 -0.0779  0.1195  0.6530
  654SOL    HW2 2661   3.106   0.138   1.258 -1.8092  0.4978  0.5802
  654SOL    HW3 2662   3.043   0.070   1.138  1.7731 -1.5150 -0.2141
  654SOL    MW4 2663   3.101   0.127   1.172 -0.0622 -0.0463  0.5289
  655SOL     OW 2664   3.151   0.433   1.148 -0.2581  0.2300  0.1304
  655SOL    HW2 2665   3.174   0.344   1.176  1.2983  0.8605  0.8852
  655SOL    HW3 2666   3.056   0.437   1.158 -0.5094 -1.7914 -1.1861
  655SOL    MW4 2667   3.141   0.422   1.153 -0.0858  0.0465  0.0561
  656SOL     OW 2668   3.382   0.550   1.266  0.0943  0.3033 -0.0770
  656SOL    HW2 2669   3.369   0.644   1.248  0.5299  0.4987  0.6327
  656SOL    HW3 2670   3.298   0.510   1.241  0.4625  0.6446 -1.9595
  656SOL    MW4 2671   3.369   0.557   1.260  0.2003  0.3741 -0.2316
  657SOL     OW 2672   3.332   0.802   1.172  0.1729 -0.4316  0.3167
  657SOL    HW2 2673   3.253   0.856   1.181 -0.6374 -1.6925  0.9077
  657SOL    HW3 2674   3.341   0.789   1.077  0.3056  0.6131  0.1727
  657SOL    MW4 2675   3.323   0.808   1.160  0.0839 -0.4601  0.3756
  658SOL     OW 2676   3.062   0.923   1.174 -0.0801  0.4299  0.7459
  658SOL    HW2 2677   3.090   0.920   1.265  1.8481 -0.6245  0.1589
  658SOL    HW3 2678   3.085   1.011   1.144  1.4987  0.0047  0.6413
  658SOL    MW4 2679   3.069   0.934   1.182  0.3827  0.2347  0.6547
  659SOL     OW 2680   3.145   1.169   1.064 -0.5059 -0.1347 -0.1266
  659SOL    HW2 2681   3.212   1.206   1.122  0.6066 -1.2441 -0.6881
  659SOL    HW3 2682   3.064   1.213   1.091  0.5298  1.6438  0.1748
  659SOL    MW4 2683   3.143   1.180   1.075 -0.2224 -0.0465 -0.1611
  660SOL     OW 2684   3.362   1.273   1.219  0.0209  0.2440 -0.1790
  660SOL    HW2 2685   3.356   1.289   1.313 -0.3806 -0.2599 -0.1199
  660SOL    HW3 2686   3.370   1.360   1.181 -0.7535  0.5031  0.2474
  660SOL    MW4 2687   3.362   1.286   1.227 -0.1342  0.2117 -0.1148
  661SOL     OW 2688   3.362   1.534   1.114  0.1273 -0.3406  0.7283
  661SOL    HW2 2689   3.440   1.577   1.149 -0.2802  0.5321  0.5755
  661SOL    HW3 2690   3.289   1.580   1.154 -0.3520  0.6396 -1.2154
  661SOL    MW4 2691   3.363   1.545   1.124  0.0105 -0.0961  0.4518
  662SOL     OW 2692   3.096   1.655   1.200 -0.4282 -0.1124  0.5100
  662SOL    HW2 2693   3.087   1.655   1.296 -1.4390 -0.3872  0.4199
  662SOL    HW3 2694   3.096   1.748   1.176 -1.5585 -0.0692  0.6581
  662SOL    MW4 2695   3.095   1.667   1.210 -0.7107 -0.1429  0.5177
  663SOL     OW 2696   3.149   1.915   1.123 -0.0384 -0.2855 -0.0201
  663SOL    HW2 2697   3.219   1.969   1.161 -0.6844  0.4536  0.1192
  663SOL    HW3 2698   3.072   1.971   1.123 -0.1072 -0.3287 -2.2500
  663SOL    MW4 2699   3.148   1.930   1.128 -0.1328 -0.1937 -0.2960
  664SOL     OW 2700   3.368   2.046   1.216 -0.1811  0.3324 -0.2067
  664SOL    HW2 2701   3.430   1.987   1.173 -0.0926 -0.2700  0.7373
  664SOL    HW3 2702   3.383   2.130   1.174 -0.2393 -0.2865 -1.5045
  664SOL    MW4 2703   3.378   2.049   1.204 -0.1769  0.1714 -0.2533
  665SOL     OW 2704   3.387   2.280   1.090 -0.2049  0.4335 -0.0410
  665SOL    HW2 2705   3.449   2.331   1.141 -1.2673  1.7632 -0.0431
  665SOL    HW3 2706   3.301   2.318   1.110 -0.9819 -1.0779 -0.3725
  665SOL    MW4 2707   3.383   2.291   1.099 -0.4475  0.4096 -0.0850
  666SOL     OW 2708   3.159   2.415   1.186  0.1464 -0.3090  0.0944
  666SOL    HW2 2709   3.148   2.399   1.280 -0.2417 -0.7380 -0.0216
  666SOL    HW3 2710   3.153   2.510   1.178  0.2827 -0.2613  0.5175
  666SOL    MW4 2711   3.156   2.425   1.197  0.1132 -0.3591  0.1349
  667SOL     OW 2712   3.120   2.702   1.135 -0.4585  0.5864  0.2821
  667SOL    HW2 2713   3.031   2.725   1.162 -1.2907 -1.4001 -0.6557
  667SOL    HW3 2714   3.117   2.705   1.039  1.0907  2.6387  0.2746
  667SOL    MW4 2715   3.108   2.705   1.126 -0.3641  0.5953  0.1574
  668SOL     OW 2716   3.331   2.862   1.262 -0.1327  0.9469  0.2695
  668SOL    HW2 2717   3.310   2.952   1.237 -1.6426 -0.0768 -2.3683
  668SOL    HW3 2718   3.260   2.809   1.224 -0.0303 -1.2319  2.9319
  668SOL    MW4 2719   3.319   2.867   1.254 -0.3183  0.5245  0.2729
  669SOL     OW 2720   3.309   3.091   1.123 -0.4364 -0.0790 -0.2615
  669SOL    HW2 2721   3.384   3.131   1.168 -1.4984  0.5359  0.9903
  669SOL    HW3 2722   3.234   3.144   1.148 -1.0832  0.2840 -2.8010
  669SOL    MW4 2723   3.309   3.103   1.132 -0.6618  0.0503 -0.4314
  670SOL     OW 2724   3.101   3.234   1.233 -0.0467  0.0370  0.1828
  670SOL    HW2 2725   3.099   3.320   1.192 -0.6527  0.1862  0.5128
  670SOL    HW3 2726   3.015   3.196   1.213  0.8713 -1.2299 -1.4971
  670SOL    MW4 2727   3.089   3.240   1.225 -0.0060 -0.1104  0.0048
  671SOL     OW 2728   3.128   3.489   1.127 -0.7847  0.0508 -0.1198
  671SOL    HW2 2729   3.199   3.535   1.172  0.8334 -1.5178 -1.0339
  671SOL    HW3 2730   3.143   3.505   1.034 -1.0238 -1.1316 -0.3744
  671SOL    MW4 2731   3.139   3.497   1.121 -0.6027 -0.3126 -0.2741
  672SOL     OW 2732   3.356   3.634   1.224  0.2486 -0.2078  0.9967
  672SOL    HW2 2733   3.357   3.626   1.320 -1.0489 -0.0552  1.0329
  672SOL    HW3 2734   3.424   3.574   1.194 -0.9471 -2.0481  1.8998
  672SOL    MW4 2735   3.365   3.625   1.233 -0.0801 -0.4301  1.1207
  673SOL     OW 2736   3.396   3.882   1.131  0.2584  0.5599 -0.2816
  673SOL    HW2 2737   3.321   3.926   1.171 -0.0557  1.5289 -1.8709
  673SOL    HW3 2738   3.396   3.794   1.168 -1.7109  0.5238 -0.3334
  673SOL    MW4 2739   3.386   3.876   1.141 -0.0424  0.6828 -0.4982
  674SOL     OW 2740   3.149   4.017   1.182 -0.1273 -0.0633  0.6209
  674SOL    HW2 2741   3.146   4.023   1.277 -1.8580  0.0727  0.5699
  674SOL    HW3 2742   3.138   4.107   1.152  1.0472 -0.0238  0.2961
  674SOL    MW4 2743   3.147   4.030   1.191 -0.2005 -0.0396  0.5715
  675SOL     OW 2744   3.151   4.275   1.114 -0.0881  0.0243  0.2847
  675SOL    HW2 2745   3.229   4.316   1.152 -0.0333  0.0501  0.1423
  675SOL    HW3 2746   3.150   4.304   1.023 -0.8043  0.8079  0.5322
  675SOL    MW4 2747   3.161   4.284   1.107 -0.1750  0.1307  0.2986
  676SOL     OW 2748   3.375   4.404   1.246 -0.3057  0.0226  0.0290
  676SOL    HW2 2749   3.457   4.368   1.210  0.2388 -0.5736  1.7803
  676SOL    HW3 2750   3.384   4.499   1.237  0.2077 -0.0765 -0.5473
  676SOL    MW4 2751   3.387   4.412   1.240 -0.1662 -0.0687  0.1841
  677SOL     OW 2752   3.768   4.660   1.163  0.3768  0.0499 -0.2133
  677SOL    HW2 2753   3.774   4.569   1.190 -0.7892  0.1140  0.2702
  677SOL    HW3 2754   3.768   4.657   1.067  1.4493 -0.3735 -0.2060
  677SOL    MW4 2755   3.769   4.648   1.154  0.3645  0.0029 -0.1485
  678SOL     OW 2756   3.574   0.150   1.294  0.2759 -0.5871  0.3800
  678SOL    HW2 2757   3.584   0.238   1.258 -0.2413 -0.2192  1.1416
  678SOL    HW3 2758   3.640   0.098   1.247 -0.2717 -0.0852 -0.9912
  678SOL    MW4 2759   3.584   0.155   1.283  0.1354 -0.4723  0.2995
  679SOL     OW 2760   3.585   0.387   1.176 -0.3218 -0.3932  0.0954
  679SOL    HW2 2761   3.663   0.440   1.193  0.1491 -0.6070 -1.3309
  679SOL    HW3 2762   3.512   0.448   1.190  0.1750  0.3241 -0.3824
  679SOL    MW4 2763   3.586   0.402   1.180 -0.1941 -0.3268 -0.1557
  680SOL     OW 2764   3.828   0.530   1.261 -0.4617 -0.1220  0.0974
  680SOL    HW2 2765   3.904   0.480   1.230 -0.1084  0.2558  0.3488
  680SOL    HW3 2766   3.838   0.616   1.220  0.3682  0.5984  1.7492
  680SOL    MW4 2767   3.840   0.535   1.252 -0.3057  0.0229  0.3484
  681SOL     OW 2768   3.807   0.784   1.139 -0.0545 -0.6889  0.2294
  681SOL    HW2 2769   3.880   0.830   1.181 -0.5791  0.4579 -0.0723
  681SOL    HW3 2770   3.729   0.834   1.166 -0.4412 -0.1917 -1.7589
  681SOL    MW4 2771   3.806   0.797   1.148 -0.1745 -0.4719 -0.0726
  682SOL     OW 2772   3.583   0.902   1.219  0.4651 -0.8111  0.3190
  682SOL    HW2 2773   3.593   0.992   1.186  1.0815 -1.4152 -1.1682
  682SOL    HW3 2774   3.489   0.883   1.208 -0.0186  0.2688  2.3077
  682SOL    MW4 2775   3.572   0.912   1.213  0.4826 -0.7483  0.3852
  683SOL     OW 2776   3.598   1.154   1.081 -0.2906  0.1088 -0.5671
  683SOL    HW2 2777   3.666   1.195   1.134 -1.7652  0.2437  1.2649
  683SOL    HW3 2778   3.516   1.177   1.125 -1.5470  0.0236 -2.7791
  683SOL    MW4 2779   3.596   1.163   1.094 -0.6514  0.1153 -0.6171
  684SOL     OW 2780   3.811   1.279   1.226 -0.0821 -0.5878 -0.2938
  684SOL    HW2 2781   3.810   1.284   1.322  1.8499 -1.6248 -0.2021
  684SOL    HW3 2782   3.806   1.371   1.198  1.3292 -0.1447  0.8373
  684SOL    MW4 2783   3.810   1.292   1.235  0.3591 -0.6663 -0.1324
  685SOL     OW 2784   3.827   1.549   1.106  0.0323  0.1990  0.4067
  685SOL    HW2 2785   3.902   1.596   1.141  0.0782  0.1547  0.3686
  685SOL    HW3 2786   3.832   1.564   1.011 -0.6240  1.0952  0.5084
  685SOL    MW4 2787   3.838   1.557   1.098 -0.0484  0.3113  0.4151
  686SOL     OW 2788   3.588   1.667   1.214  0.3223 -0.0514 -0.3853
  686SOL    HW2 2789   3.572   1.749   1.166 -0.6630  0.2583  0.4498
  686SOL    HW3 2790   3.668   1.632   1.176  0.5409  1.1169 -1.0182
  686SOL    MW4 2791   3.596   1.673   1.203  0.2210  0.1436 -0.3588
  687SOL     OW 2792   3.585   1.918   1.100  0.1624 -1.1459  0.6678
  687SOL    HW2 2793   3.650   1.966   1.152 -1.0610 -0.3461  1.4787
  687SOL    HW3 2794   3.614   1.929   1.009 -0.0291  1.0462  0.8378
  687SOL    MW4 2795   3.598   1.926   1.095 -0.0243 -0.7510  0.7972
  688SOL     OW 2796   3.765   2.068   1.246 -0.2212  0.0481 -0.0043
  688SOL    HW2 2797   3.797   2.073   1.336  0.8867  1.5539 -0.4579
  688SOL    HW3 2798   3.836   2.026   1.197 -1.2371 -1.7087  0.0034
  688SOL    MW4 2799   3.779   2.063   1.251 -0.2091  0.0153 -0.0631
  689SOL     OW 2800   3.803   2.315   1.108  0.4933 -0.1918 -0.4702
  689SOL    HW2 2801   3.890   2.338   1.140  0.9535 -0.6723 -1.3538
  689SOL    HW3 2802   3.785   2.229   1.148  1.0789 -0.8042 -1.5183
  689SOL    MW4 2803   3.812   2.307   1.118  0.6313 -0.3359 -0.7250
  690SOL     OW 2804   3.568   2.429   1.217 -0.0224 -0.0872 -0.1152
  690SOL    HW2 2805   3.564   2.418   1.312  1.9750  0.7874  0.0816
  690SOL    HW3 2806   3.652   2.391   1.191 -0.8697 -0.9999 -1.6519
  690SOL    MW4 2807   3.578   2.422   1.226  0.1295 -0.0920 -0.2921
  691SOL     OW 2808   3.532   2.707   1.140  0.0863 -0.2879  0.0239
  691SOL    HW2 2809   3.518   2.618   1.171  0.5455  0.1624  1.6078
  691SOL    HW3 2810   3.464   2.759   1.183 -0.4365  0.0784 -1.2059
  691SOL    MW4 2811   3.521   2.702   1.150  0.0780 -0.1800  0.0706
  692SOL     OW 2812   3.786   2.786   1.251 -0.5648  0.4723 -0.4625
  692SOL    HW2 2813   3.760   2.800   1.342  0.6195  0.5645 -0.1296
  692SOL    HW3 2814   3.710   2.743   1.210 -1.5310  1.4779  0.2736
  692SOL    MW4 2815   3.772   2.782   1.257 -0.5362  0.6170 -0.3215
  693SOL     OW 2816   3.764   3.054   1.165  0.1595  0.1808  0.4067
  693SOL    HW2 2817   3.776   2.963   1.193 -1.1690 -0.1609 -0.1116
  693SOL    HW3 2818   3.767   3.051   1.069 -0.6127  0.5712  0.3626
  693SOL    MW4 2819   3.766   3.042   1.156 -0.1178  0.1872  0.3325
  694SOL     OW 2820   3.528   3.200   1.245  0.3586 -0.1092 -0.0750
  694SOL    HW2 2821   3.546   3.284   1.202 -1.3753 -0.1903 -0.9568
  694SOL    HW3 2822   3.609   3.150   1.233  0.2558  0.2426 -2.3558
  694SOL    MW4 2823   3.541   3.204   1.238  0.1163 -0.0737 -0.4923
  695SOL     OW 2824   3.554   3.464   1.104  0.0595 -0.0608 -0.3665
  695SOL    HW2 2825   3.633   3.508   1.135  0.3508 -0.9736  0.2145
  695SOL    HW3 2826   3.572   3.444   1.012  1.0632 -1.4854  0.1264
  695SOL    MW4 2827   3.567   3.467   1.096  0.2306 -0.3691 -0.2249
  696SOL     OW 2828   3.771   3.596   1.186  0.1993 -0.0700  0.4085
  696SOL    HW2 2829   3.790   3.597   1.280  0.3448  1.8457  0.3863
  696SOL    HW3 2830   3.788   3.686   1.157  2.9098 -1.2421 -2.0099
  696SOL    MW4 2831   3.776   3.608   1.194  0.5763  0.0279  0.0864
  697SOL     OW 2832   3.817   3.846   1.132  0.6166 -0.2625  0.3136
  697SOL    HW2 2833   3.747   3.892   1.178  0.0919 -0.6930 -0.0510
  697SOL    HW3 2834   3.798   3.860   1.039  0.6459 -0.9272  0.2047
  697SOL    MW4 2835   3.805   3.854   1.126  0.5515 -0.4072  0.2511
  698SOL     OW 2836   3.627   3.994   1.236  0.5546  0.1544 -0.5343
  698SOL    HW2 2837   3.609   4.005   1.329  1.9405  1.2697 -0.3757
  698SOL    HW3 2838   3.544   3.966   1.198 -1.0712  3.4071  0.4338
  698SOL    MW4 2839   3.614   3.992   1.243  0.5229  0.7305 -0.3858
  699SOL     OW 2840   3.604   4.244   1.141  0.1393 -0.1999  0.0239
  699SOL    HW2 2841   3.629   4.156   1.171  0.1055 -0.4504 -0.6562
  699SOL    HW3 2842   3.606   4.237   1.045  0.1234  0.5406 -0.0317
  699SOL    MW4 2843   3.608   4.231   1.132  0.1328 -0.1354 -0.0731
  700SOL     OW 2844   3.805   4.403   1.233 -0.1218  0.3250 -0.3183
  700SOL    HW2 2845   3.806   4.404   1.329  1.7915 -0.8138 -0.3027
  700SOL    HW3 2846   3.726   4.355   1.210 -0.4890  0.4401  0.6910
  700SOL    MW4 2847   3.795   4.397   1.243  0.0823  0.1903 -0.1831
  701SOL     OW 2848   4.281   4.653   1.173  0.2681 -0.4046  0.0994
  701SOL    HW2 2849   4.293   4.562   1.199 -0.4223 -0.1206  1.4163
  701SOL    HW3 2850   4.190   4.673   1.194  0.5889  0.7842  0.4262
  701SOL    MW4 2851   4.270   4.644   1.179  0.2193 -0.2103  0.3164
  702SOL     OW 2852   4.013   0.072   1.234  0.0300 -0.2323  0.8122
  702SOL    HW2 2853   4.022   0.071   1.329  0.1072 -1.0380  0.8050
  702SOL    HW3 2854   3.923   0.043   1.218 -0.6723  1.9378  0.6960
  702SOL    MW4 2855   4.003   0.068   1.245 -0.0525 -0.0523  0.7960
  703SOL     OW 2856   4.012   0.341   1.147 -0.2089  1.0033  0.3942
  703SOL    HW2 2857   4.008   0.248   1.168  0.2281  0.9294  0.1387
  703SOL    HW3 2858   4.014   0.344   1.052 -1.2702  1.3117  0.3748
  703SOL    MW4 2859   4.011   0.329   1.137 -0.2909  1.0343  0.3579
  704SOL     OW 2860   4.212   0.525   1.209  0.4655 -0.6524  0.0949
  704SOL    HW2 2861   4.225   0.536   1.304 -2.0145  2.8169  0.1425
  704SOL    HW3 2862   4.144   0.459   1.202  0.5382 -0.8052  0.7619
  704SOL    MW4 2863   4.205   0.518   1.221  0.1478 -0.2149  0.1892
  705SOL     OW 2864   4.238   0.808   1.137 -0.0699 -0.4610 -0.1528
  705SOL    HW2 2865   4.237   0.718   1.169  0.3967 -0.6006 -0.5219
  705SOL    HW3 2866   4.258   0.800   1.044  0.7997  0.0738 -0.0208
  705SOL    MW4 2867   4.240   0.795   1.129  0.1063 -0.4089 -0.1842
  706SOL     OW 2868   4.021   0.915   1.259 -0.0726 -0.5970  0.0611
  706SOL    HW2 2869   4.037   0.895   1.352  1.2169  0.4292  0.0659
  706SOL    HW3 2870   4.091   0.869   1.212 -0.6668 -1.0338 -0.4041
  706SOL    MW4 2871   4.032   0.906   1.265  0.0186 -0.5192  0.0002
  707SOL     OW 2872   4.024   1.158   1.122 -0.1626  0.1177  0.2499
  707SOL    HW2 2873   4.037   1.071   1.158  0.8645  0.1006 -0.1330
  707SOL    HW3 2874   3.944   1.190   1.164 -1.5635 -1.7043 -0.9544
  707SOL    MW4 2875   4.015   1.151   1.132 -0.2117 -0.1249  0.0407
  708SOL     OW 2876   4.210   1.313   1.240 -0.1327 -0.0226 -0.1000
  708SOL    HW2 2877   4.209   1.297   1.334 -0.4758 -0.5273 -0.1883
  708SOL    HW3 2878   4.133   1.267   1.207  0.3112 -0.3278 -0.7088
  708SOL    MW4 2879   4.200   1.305   1.248 -0.1197 -0.1296 -0.1920
  709SOL     OW 2880   4.248   1.559   1.117  0.1977 -0.1159 -0.0856
  709SOL    HW2 2881   4.233   1.486   1.177 -0.4121  0.7990  0.8705
  709SOL    HW3 2882   4.333   1.595   1.143  0.2948 -0.2004 -0.2803
  709SOL    MW4 2883   4.257   1.554   1.128  0.1302 -0.0063  0.0150
  710SOL     OW 2884   4.036   1.720   1.201  0.0784  0.2438 -0.5584
  710SOL    HW2 2885   4.038   1.703   1.295 -1.5266  0.3247 -0.4974
  710SOL    HW3 2886   4.112   1.673   1.166 -0.1218 -0.9468  0.5954
  710SOL    MW4 2887   4.046   1.711   1.209 -0.1602  0.0975 -0.3980
  711SOL     OW 2888   3.972   1.963   1.110 -0.1822  0.1800 -0.0840
  711SOL    HW2 2889   3.992   1.872   1.131 -0.0993  0.3442  0.5713
  711SOL    HW3 2890   4.004   1.975   1.021 -0.2622 -0.4537 -0.1934
  711SOL    MW4 2891   3.979   1.953   1.101 -0.1819  0.1181 -0.0120
  712SOL     OW 2892   4.208   2.040   1.232 -0.5308  0.1879  0.2434
  712SOL    HW2 2893   4.229   2.118   1.180  0.0141 -0.5658 -0.7011
  712SOL    HW3 2894   4.120   2.016   1.204 -0.7426  0.5346  0.6162
  712SOL    MW4 2895   4.199   2.047   1.221 -0.4873  0.1342  0.1680
  713SOL     OW 2896   4.259   2.286   1.120  0.2164 -0.4898  0.2341
  713SOL    HW2 2897   4.183   2.342   1.136  0.7404  0.0872  0.7337
  713SOL    HW3 2898   4.266   2.280   1.025 -0.5280 -0.6436  0.1906
  713SOL    MW4 2899   4.250   2.293   1.110  0.1874 -0.4339  0.2943
  714SOL     OW 2900   4.047   2.439   1.194 -1.1472  0.0747 -0.1415
  714SOL    HW2 2901   4.050   2.421   1.287  0.6915 -0.6828 -0.3297
  714SOL    HW3 2902   4.049   2.535   1.188  1.3132  0.0970  0.5538
  714SOL    MW4 2903   4.048   2.450   1.205 -0.5794 -0.0222 -0.0745
  715SOL     OW 2904   4.051   2.716   1.192  0.1424 -0.1115  0.6522
  715SOL    HW2 2905   3.962   2.734   1.222 -0.7112 -3.8240  0.5177
  715SOL    HW3 2906   4.042   2.705   1.097  0.5980 -1.3936  0.7609
  715SOL    MW4 2907   4.038   2.717   1.183  0.0892 -0.7706  0.6487
  716SOL     OW 2908   4.253   2.895   1.265  0.0395 -0.3893 -0.1116
  716SOL    HW2 2909   4.247   2.976   1.213 -0.4782  0.3467  1.0739
  716SOL    HW3 2910   4.168   2.852   1.251 -0.0520 -0.2528  0.0241
  716SOL    MW4 2911   4.241   2.900   1.256 -0.0405 -0.2737  0.0628
  717SOL     OW 2912   4.239   3.128   1.120  0.0387  0.0954 -0.2801
  717SOL    HW2 2913   4.152   3.156   1.150 -0.3252 -0.0627 -1.1590
  717SOL    HW3 2914   4.235   3.137   1.024  1.7549  2.2534 -0.1879
  717SOL    MW4 2915   4.227   3.133   1.111  0.2170  0.3593 -0.3839
  718SOL     OW 2916   3.993   3.204   1.241 -0.1633 -0.1028  0.1570
  718SOL    HW2 2917   3.974   3.210   1.335 -0.9576 -1.7501  0.1098
  718SOL    HW3 2918   3.920   3.154   1.205  0.3852  0.1126 -1.2656
  718SOL    MW4 2919   3.981   3.198   1.249 -0.1955 -0.2916 -0.0370
  719SOL     OW 2920   4.012   3.466   1.133  0.0481  0.4385 -0.0556
  719SOL    HW2 2921   4.013   3.384   1.184  0.5240  1.4397  1.6082
  719SOL    HW3 2922   3.925   3.502   1.149  0.3707  0.9995  0.4872
  719SOL    MW4 2923   4.001   3.460   1.142  0.1531  0.6442  0.2356
  720SOL     OW 2924   4.224   3.625   1.258  0.1289  0.0931 -0.0185
  720SOL    HW2 2925   4.148   3.570   1.237  0.7863 -0.1139 -1.9474
  720SOL    HW3 2926   4.298   3.577   1.222  1.0726  0.7581  1.0209
  720SOL    MW4 2927   4.224   3.611   1.250  0.3400  0.1535 -0.1359
  721SOL     OW 2928   4.267   3.859   1.113 -0.4093  0.5188 -0.6310
  721SOL    HW2 2929   4.185   3.905   1.131 -1.0139 -0.0122 -1.9652
  721SOL    HW3 2930   4.255   3.772   1.151 -0.8490  0.1228 -1.6473
  721SOL    MW4 2931   4.254   3.853   1.120 -0.5465  0.3965 -0.9412
  722SOL     OW 2932   4.030   3.978   1.224  0.4072  0.6114  0.1398
  722SOL    HW2 2933   4.018   4.071   1.204 -1.9846  0.2529 -0.2807
  722SOL    HW3 2934   3.946   3.938   1.200  1.3287 -1.6071  0.5656
  722SOL    MW4 2935   4.017   3.985   1.218  0.2136  0.2713  0.1404
  723SOL     OW 2936   4.047   4.249   1.180 -0.3326 -0.0346  0.4478
  723SOL    HW2 2937   3.965   4.296   1.198 -0.5254 -0.0055 -0.5045
  723SOL    HW3 2938   4.054   4.247   1.085  0.6057 -0.3414  0.5135
  723SOL    MW4 2939   4.037   4.255   1.170 -0.2341 -0.0710  0.3308
  724SOL     OW 2940   4.263   4.402   1.264  0.1772 -0.2809  0.1542
  724SOL    HW2 2941   4.196   4.341   1.232  0.2837 -0.9461  1.2015
  724SOL    HW3 2942   4.346   4.359   1.244  0.2664 -0.2003  0.3554
  724SOL    MW4 2943   4.265   4.389   1.257  0.2027 -0.3581  0.3188
  725SOL     OW 2944   0.198   4.644   1.674  0.3957 -0.2453 -0.0446
  725SOL    HW2 2945   0.284   4.670   1.641  0.3723  0.1913  0.2339
  725SOL    HW3 2946   0.137   4.702   1.629  0.2372 -0.6011 -0.2948
  725SOL    MW4 2947   0.201   4.655   1.663  0.3717 -0.2346 -0.0409
  726SOL     OW 2948   4.478   0.152   1.528 -0.3363  0.5900  0.0980
  726SOL    HW2 2949   4.404   0.104   1.564  0.3236  0.2812  1.0675
  726SOL    HW3 2950   4.462   0.154   1.434 -0.5185 -1.3114  0.0602
  726SOL    MW4 2951   4.466   0.146   1.520 -0.2737  0.2984  0.2209
  727SOL     OW 2952   0.014   0.393   1.624 -0.7143  0.2012 -0.1806
  727SOL    HW2 2953   0.006   0.387   1.719 -0.8188 -1.3982 -0.2795
  727SOL    HW3 2954   0.001   0.303   1.593 -2.0570  0.9293 -1.8058
  727SOL    MW4 2955   0.011   0.380   1.632 -0.9052  0.0862 -0.4081
  728SOL     OW 2956   0.236   0.544   1.566  0.0266 -0.2974  0.2971
  728SOL    HW2 2957   0.165   0.488   1.598 -0.5000  0.3941  0.3767
  728SOL    HW3 2958   0.235   0.532   1.471 -0.2606 -0.2180  0.2896
  728SOL    MW4 2959   0.226   0.535   1.558 -0.0808 -0.1957  0.3067
  729SOL     OW 2960   0.197   0.805   1.613  0.5462  0.0808  0.0031
  729SOL    HW2 2961   0.273   0.841   1.568  0.5060  0.7408  0.4554
  729SOL    HW3 2962   0.205   0.710   1.601 -0.6733  0.3244 -3.3529
  729SOL    MW4 2963   0.208   0.797   1.606  0.3800  0.2001 -0.3799
  730SOL     OW 2964   4.452   0.923   1.525 -0.0465 -0.2671 -0.1118
  730SOL    HW2 2965   4.447   1.008   1.569  1.4419  0.6432 -1.6329
  730SOL    HW3 2966   4.531   0.882   1.559 -0.4294 -0.7779  0.1625
  730SOL    MW4 2967   4.461   0.929   1.535  0.0992 -0.2144 -0.2763
  731SOL     OW 2968   4.478   1.180   1.662 -0.1660  0.3507 -0.1065
  731SOL    HW2 2969   4.493   1.165   1.755  0.3867 -0.3355 -0.3046
  731SOL    HW3 2970   4.550   1.236   1.634  0.5970 -0.7942 -0.4772
  731SOL    MW4 2971   4.489   1.185   1.671  0.0072  0.1090 -0.1817
  732SOL     OW 2972   0.200   1.328   1.559 -0.5179  0.2529 -0.2224
  732SOL    HW2 2973   0.213   1.414   1.599  3.5167  0.6001 -2.0295
  732SOL    HW3 2974   0.190   1.345   1.466 -0.9691 -1.1351 -0.4436
  732SOL    MW4 2975   0.200   1.341   1.552 -0.0452  0.1155 -0.4900
  733SOL     OW 2976   0.239   1.581   1.656  0.5861 -0.0950  0.4532
  733SOL    HW2 2977   0.236   1.581   1.752 -0.5346  0.5631  0.4334
  733SOL    HW3 2978   0.150   1.606   1.630  1.2422  1.0506 -0.7366
  733SOL    MW4 2979   0.227   1.584   1.666  0.5248  0.1429  0.2935
  734SOL     OW 2980   0.010   1.670   1.528  0.0403 -0.2565  0.2897
  734SOL    HW2 2981   0.019   1.764   1.539 -0.6081 -0.0101 -1.1925
  734SOL    HW3 2982   0.020   1.655   1.434  0.7516 -1.7366  0.5899
  734SOL    MW4 2983   0.012   1.680   1.517  0.0491 -0.4191  0.1339
  735SOL     OW 2984   0.007   1.961   1.621  0.0168 -0.1270 -0.2317
  735SOL    HW2 2985  -0.019   1.949   1.712 -0.0817 -0.2986 -0.2819
  735SOL    HW3 2986  -0.069   2.001   1.579 -0.1987 -0.7170 -0.4004
  735SOL    MW4 2987  -0.006   1.965   1.627 -0.0248 -0.2275 -0.2604
  736SOL     OW 2988   0.214   2.060   1.477 -0.4120  0.2393  0.4198
  736SOL    HW2 2989   0.134   2.031   1.521 -0.3682 -1.4667 -0.6037
  736SOL    HW3 2990   0.196   2.048   1.384  1.1123 -0.3597  0.1967
  736SOL    MW4 2991   0.201   2.055   1.471 -0.2051 -0.0648  0.2553
  737SOL     OW 2992   0.200   2.318   1.573 -0.4408 -0.2273  0.3987
  737SOL    HW2 2993   0.208   2.309   1.668 -0.4039 -1.0969  0.3180
  737SOL    HW3 2994   0.213   2.229   1.539 -0.2131  0.1172 -0.4363
  737SOL    MW4 2995   0.203   2.305   1.581 -0.4059 -0.2966  0.2779
  738SOL     OW 2996   4.450   2.456   1.491 -0.4244  0.0720 -0.0950
  738SOL    HW2 2997   4.376   2.410   1.531 -1.0352  1.5633  0.5702
  738SOL    HW3 2998   4.528   2.412   1.526 -0.9871 -0.2067  0.8286
  738SOL    MW4 2999   4.450   2.444   1.501 -0.5794  0.2320  0.1147
  739SOL     OW 3000   4.457   2.688   1.645  0.3146  0.3654  0.1750
  739SOL    HW2 3001   4.395   2.747   1.602  0.1858  0.4383  0.4579
  739SOL    HW3 3002   4.445   2.604   1.601 -0.1887  0.3075  0.4289
  739SOL    MW4 3003   4.448   2.685   1.633  0.2308  0.3676  0.2458
  740SOL     OW 3004   0.181   2.797   1.536 -0.1918 -0.2407 -0.2517
  740SOL    HW2 3005   0.260   2.759   1.575  0.4077 -0.0823 -1.3022
  740SOL    HW3 3006   0.109   2.749   1.576  0.4207 -0.2051  0.9197
  740SOL    MW4 3007   0.182   2.786   1.547 -0.0319 -0.2151 -0.2357
  741SOL     OW 3008   0.225   3.061   1.610 -0.3321  0.0481  0.1804
  741SOL    HW2 3009   0.146   3.110   1.587  0.0519  0.7722  0.4066
  741SOL    HW3 3010   0.207   2.972   1.579 -1.3160  0.1572  0.3975
  741SOL    MW4 3011   0.212   3.056   1.603 -0.4112  0.1581  0.2389
  742SOL     OW 3012   0.007   3.201   1.534  0.0968 -0.4328 -0.4653
  742SOL    HW2 3013  -0.006   3.293   1.557  0.2964 -0.2899 -0.9308
  742SOL    HW3 3014   0.013   3.201   1.438  3.6003 -0.4825 -0.2931
  742SOL    MW4 3015   0.006   3.213   1.524  0.5854 -0.4206 -0.5040
  743SOL     OW 3016   4.464   3.467   1.669 -0.2983 -0.4522  0.6856
  743SOL    HW2 3017   4.448   3.473   1.763 -2.3764  1.1949  0.2613
  743SOL    HW3 3018   4.392   3.516   1.629  1.7664  0.7768 -1.6740
  743SOL    MW4 3019   4.452   3.474   1.676 -0.2999 -0.0730  0.3182
  744SOL     OW 3020   0.211   3.549   1.565  0.2932 -0.0360 -0.0909
  744SOL    HW2 3021   0.211   3.642   1.586 -1.0135  0.0540 -0.4163
  744SOL    HW3 3022   0.134   3.514   1.611  1.1596 -1.0928  0.5942
  744SOL    MW4 3023   0.201   3.557   1.574  0.2351 -0.1636 -0.0434
  745SOL     OW 3024   0.224   3.853   1.603 -0.5185 -0.1488 -0.1448
  745SOL    HW2 3025   0.228   3.863   1.698 -2.7874  1.9962 -0.2343
  745SOL    HW3 3026   0.301   3.899   1.571 -0.1117 -0.2856  0.6104
  745SOL    MW4 3027   0.235   3.860   1.612 -0.7641  0.1163 -0.0570
  746SOL     OW 3028   4.442   3.954   1.563 -0.3008  0.1406 -0.1075
  746SOL    HW2 3029   4.460   4.038   1.604 -0.3834  0.3958 -0.5921
  746SOL    HW3 3030   4.527   3.910   1.559 -0.2455  0.2338  0.0711
  746SOL    MW4 3031   4.456   3.959   1.568 -0.3052  0.1867 -0.1479
  747SOL     OW 3032   0.012   4.229   1.648 -0.1353 -0.2647  0.4752
  747SOL    HW2 3033   0.016   4.254   1.740 -1.5209  1.3989  0.1027
  747SOL    HW3 3034  -0.062   4.278   1.612  0.3100 -0.9708 -1.5019
  747SOL    MW4 3035   0.003   4.238   1.655 -0.2594 -0.1388  0.1653
  748SOL     OW 3036   0.216   4.401   1.540  0.0729  0.1204  0.2356
  748SOL    HW2 3037   0.153   4.336   1.573 -0.1493  0.3993  0.3574
  748SOL    HW3 3038   0.201   4.478   1.594  0.4073  0.2424  0.1541
  748SOL    MW4 3039   0.206   4.402   1.552  0.0877  0.1731  0.2410
  749SOL     OW 3040   0.657   0.040   1.631 -1.3167 -0.4501  0.2837
  749SOL    HW2 3041   0.730   0.078   1.581 -0.2599 -1.3092  1.1329
  749SOL    HW3 3042   0.579   0.068   1.584 -0.4429  0.5029 -0.6505
  749SOL    MW4 3043   0.657   0.049   1.618 -1.0620 -0.4377  0.2725
  750SOL     OW 3044   0.402   0.120   1.542 -0.3013 -0.2508  0.3987
  750SOL    HW2 3045   0.397   0.212   1.571 -0.1539 -0.0404 -0.2356
  750SOL    HW3 3046   0.389   0.124   1.448 -0.0175 -0.8589  0.3304
  750SOL    MW4 3047   0.400   0.133   1.533 -0.2444 -0.3032  0.3060
  751SOL     OW 3048   0.454   0.380   1.615 -0.3751 -0.0230 -0.1141
  751SOL    HW2 3049   0.535   0.423   1.587 -0.0232  0.7100  1.9250
  751SOL    HW3 3050   0.385   0.443   1.595  0.0094  1.0403  1.7247
  751SOL    MW4 3051   0.456   0.394   1.609 -0.2780  0.2140  0.3974
  752SOL     OW 3052   0.681   0.515   1.526  0.5265 -0.0312 -0.3525
  752SOL    HW2 3053   0.656   0.605   1.545 -1.2026 -0.7134  0.7413
  752SOL    HW3 3054   0.684   0.511   1.430 -0.7756  0.8353 -0.4453
  752SOL    MW4 3055   0.678   0.526   1.516  0.1265 -0.0069 -0.2204
  753SOL     OW 3056   0.659   0.784   1.563 -0.2885  0.0083  0.0880
  753SOL    HW2 3057   0.654   0.785   1.658 -0.2432  1.1817  0.0812
  753SOL    HW3 3058   0.735   0.839   1.542 -0.2065 -0.3608 -0.6171
  753SOL    MW4 3059   0.669   0.791   1.573 -0.2717  0.1144 -0.0060
  754SOL     OW 3060   0.410   0.910   1.481 -0.3697 -0.1101  0.1070
  754SOL    HW2 3061   0.403   1.000   1.515  2.1415  0.4872 -0.8929
  754SOL    HW3 3062   0.499   0.882   1.503 -1.4679 -2.7823  1.3619
  754SOL    MW4 3063   0.421   0.918   1.488 -0.1833 -0.3839  0.1407
  755SOL     OW 3064   0.407   1.153   1.613  0.5026  0.1390  0.2738
  755SOL    HW2 3065   0.485   1.199   1.581  0.0350  0.7624  0.0101
  755SOL    HW3 3066   0.335   1.215   1.598 -0.2197 -0.8838 -0.5859
  755SOL    MW4 3067   0.408   1.167   1.607  0.3456  0.0863  0.1255
  756SOL     OW 3068   0.641   1.265   1.498 -0.8469 -0.1025  0.1177
  756SOL    HW2 3069   0.635   1.350   1.542 -0.6590 -0.3741  0.6771
  756SOL    HW3 3070   0.639   1.286   1.405  1.0296  0.6615  0.2248
  756SOL    MW4 3071   0.640   1.279   1.492 -0.5744 -0.0376  0.2058
  757SOL     OW 3072   0.666   1.518   1.592  0.4880 -0.4450 -0.2846
  757SOL    HW2 3073   0.745   1.561   1.560  0.4578 -0.2668 -0.1225
  757SOL    HW3 3074   0.595   1.579   1.569  0.3249 -0.8929 -0.9939
  757SOL    MW4 3075   0.667   1.532   1.585  0.4625 -0.4808 -0.3569
  758SOL     OW 3076   0.441   1.678   1.502  0.4396  0.1988 -0.3430
  758SOL    HW2 3077   0.471   1.760   1.541 -0.5354  0.6284 -0.4695
  758SOL    HW3 3078   0.376   1.645   1.564  0.9437 -0.5667 -0.2163
  758SOL    MW4 3079   0.436   1.685   1.516  0.3775  0.1545 -0.3431
  759SOL     OW 3080   0.422   1.944   1.621 -0.1630 -0.2820  0.0440
  759SOL    HW2 3081   0.411   1.959   1.715  0.3222  0.9509 -0.0826
  759SOL    HW3 3082   0.347   1.988   1.581 -0.8250 -1.5190 -0.1078
  759SOL    MW4 3083   0.410   1.952   1.628 -0.1864 -0.2826  0.0073
  760SOL     OW 3084   0.680   2.081   1.514  0.2556 -0.3143 -0.4600
  760SOL    HW2 3085   0.751   2.025   1.545  0.7869  0.2614 -0.6394
  760SOL    HW3 3086   0.600   2.036   1.544  0.7316  0.0224  1.3835
  760SOL    MW4 3087   0.678   2.068   1.522  0.3885 -0.1938 -0.2403
  761SOL     OW 3088   0.643   2.335   1.620 -0.0801 -0.0882  0.3399
  761SOL    HW2 3089   0.571   2.372   1.570  0.4404  0.1561 -0.2257
  761SOL    HW3 3090   0.650   2.244   1.590  0.6789  0.2561 -0.5243
  761SOL    MW4 3091   0.634   2.328   1.610  0.0886 -0.0103  0.1513
  762SOL     OW 3092   0.414   2.450   1.492  0.1747 -0.1056 -0.2959
  762SOL    HW2 3093   0.410   2.532   1.542 -1.8520  0.1499 -0.8505
  762SOL    HW3 3094   0.330   2.408   1.509  1.1245 -1.9828 -0.1970
  762SOL    MW4 3095   0.403   2.456   1.501  0.0326 -0.3195 -0.3561
  763SOL     OW 3096   0.420   2.678   1.634  0.2108 -0.2111 -0.0471
  763SOL    HW2 3097   0.446   2.680   1.726  0.0573 -0.6801  0.0092
  763SOL    HW3 3098   0.491   2.722   1.588  0.9266 -1.1609  0.1444
  763SOL    MW4 3099   0.433   2.684   1.640  0.2849 -0.3984 -0.0144
  764SOL     OW 3100   0.663   2.826   1.540  0.3047 -0.1490 -0.5933
  764SOL    HW2 3101   0.670   2.917   1.570  1.3977  0.0094 -1.3306
  764SOL    HW3 3102   0.658   2.833   1.445  0.8899 -0.9034 -0.6740
  764SOL    MW4 3103   0.663   2.839   1.532  0.5262 -0.2275 -0.7012
  765SOL     OW 3104   0.694   3.089   1.639 -0.2386 -0.2535 -0.1904
  765SOL    HW2 3105   0.767   3.133   1.596  0.4091 -2.8779 -1.9419
  765SOL    HW3 3106   0.616   3.130   1.601  0.3428 -0.4563 -1.6522
  765SOL    MW4 3107   0.693   3.100   1.628 -0.0765 -0.6266 -0.6145
  766SOL     OW 3108   0.460   3.202   1.554 -0.3604 -0.2979 -0.2408
  766SOL    HW2 3109   0.384   3.146   1.571 -2.0728  1.7697 -0.8556
  766SOL    HW3 3110   0.448   3.234   1.464 -0.4547  2.5157  0.7001
  766SOL    MW4 3111   0.448   3.199   1.544 -0.5988  0.3462 -0.1979
  767SOL     OW 3112   0.472   3.481   1.626 -0.0233 -0.7452 -0.0381
  767SOL    HW2 3113   0.468   3.386   1.616 -1.9026 -0.5387 -1.5480
  767SOL    HW3 3114   0.388   3.512   1.592 -0.3304  1.3022  2.4396
  767SOL    MW4 3115   0.460   3.472   1.620 -0.3118 -0.4478  0.0895
  768SOL     OW 3116   0.687   3.629   1.527  0.0250 -0.3718  0.4418
  768SOL    HW2 3117   0.762   3.596   1.577 -0.5181 -1.2581  0.6799
  768SOL    HW3 3118   0.615   3.570   1.551 -0.4274 -0.3182 -0.7873
  768SOL    MW4 3119   0.687   3.617   1.537 -0.1063 -0.4816  0.3111
  769SOL     OW 3120   0.668   3.882   1.622 -0.0628  0.2267  0.3399
  769SOL    HW2 3121   0.755   3.916   1.602 -0.0515 -0.2574 -0.4732
  769SOL    HW3 3122   0.674   3.789   1.600 -1.0165  0.3555 -0.4708
  769SOL    MW4 3123   0.680   3.874   1.616 -0.1871  0.1800  0.1256
  770SOL     OW 3124   0.440   4.010   1.533 -0.0526  0.4848 -0.1278
  770SOL    HW2 3125   0.516   3.955   1.554 -1.1546 -0.7939  0.6133
  770SOL    HW3 3126   0.445   4.023   1.438 -0.3156 -1.7740 -0.4780
  770SOL    MW4 3127   0.451   4.004   1.523 -0.2327  0.0181 -0.0764
  771SOL     OW 3128   0.456   4.279   1.616 -0.0117  0.3935  0.1610
  771SOL    HW2 3129   0.452   4.186   1.593 -0.1756  0.1483  1.1407
  771SOL    HW3 3130   0.373   4.315   1.586  0.3347  0.3763 -0.8423
  771SOL    MW4 3131   0.444   4.272   1.609  0.0124  0.3591  0.1578
  772SOL     OW 3132   0.686   4.440   1.536 -0.1621 -0.0951  0.0414
  772SOL    HW2 3133   0.605   4.400   1.569 -0.7897 -0.1497 -1.5134
  772SOL    HW3 3134   0.684   4.529   1.570 -0.8105 -0.1453  0.1478
  772SOL    MW4 3135   0.675   4.446   1.545 -0.3306 -0.1087 -0.1497
  773SOL     OW 3136   1.120   4.628   1.585  0.2018 -0.1550  0.2971
  773SOL    HW2 3137   1.114   4.665   1.673  1.2435  0.0754  0.2827
  773SOL    HW3 3138   1.210   4.647   1.557 -0.0791 -0.3431 -0.7634
  773SOL    MW4 3139   1.131   4.635   1.593  0.3022 -0.1493  0.1553
  774SOL     OW 3140   0.892   0.091   1.482 -0.1407  0.1089  0.5677
  774SOL    HW2 3141   0.890   0.169   1.537  0.3188  0.8409 -0.4505
  774SOL    HW3 3142   0.961   0.036   1.519  0.6038  0.8861  0.3348
  774SOL    MW4 3143   0.901   0.094   1.494  0.0182  0.3080  0.4027
  775SOL     OW 3144   0.877   0.327   1.606  0.0691  0.0847  0.1011
  775SOL    HW2 3145   0.895   0.346   1.698  2.1266  0.9536 -0.4572
  775SOL    HW3 3146   0.815   0.394   1.580 -0.3704 -0.0422  0.7863
  775SOL    MW4 3147   0.871   0.338   1.615  0.2825  0.1826  0.1179
  776SOL     OW 3148   1.079   0.465   1.449 -0.0113  0.3744  0.2268
  776SOL    HW2 3149   1.109   0.539   1.503  1.4430 -0.5571  0.7299
  776SOL    HW3 3150   1.004   0.430   1.496  0.5048  0.3194  1.0287
  776SOL    MW4 3151   1.073   0.470   1.462  0.2487  0.2442  0.3990
  777SOL     OW 3152   1.116   0.711   1.582  0.1992 -0.2670  0.1733
  777SOL    HW2 3153   1.120   0.741   1.673 -0.3281 -0.4810  0.2721
  777SOL    HW3 3154   1.186   0.759   1.538 -0.7034  1.2109  0.3079
  777SOL    MW4 3155   1.126   0.722   1.588  0.0106 -0.1003  0.2041
  778SOL     OW 3156   0.906   0.904   1.494 -0.3679  0.3995 -0.0860
  778SOL    HW2 3157   0.966   0.834   1.522 -0.2623  0.6004  0.1871
  778SOL    HW3 3158   0.914   0.906   1.399  0.7111  1.0188  0.0201
  778SOL    MW4 3159   0.915   0.895   1.485 -0.2116  0.5077 -0.0360
  779SOL     OW 3160   0.870   1.161   1.612  0.0355  0.0390  0.5149
  779SOL    HW2 3161   0.892   1.075   1.576  0.8077  0.7540 -0.7655
  779SOL    HW3 3162   0.792   1.188   1.564  0.2363  0.3842  0.3818
  779SOL    MW4 3163   0.862   1.153   1.601  0.1639  0.1788  0.3283
  780SOL     OW 3164   1.077   1.282   1.480 -0.0874 -0.8027  0.3728
  780SOL    HW2 3165   1.162   1.247   1.507  0.3678  0.3562  0.4630
  780SOL    HW3 3166   1.014   1.240   1.538  0.4047 -1.8256  0.1714
  780SOL    MW4 3167   1.080   1.272   1.491  0.0376 -0.7849  0.3582
  781SOL     OW 3168   1.125   1.538   1.616  0.2999  0.8609 -0.4450
  781SOL    HW2 3169   1.186   1.584   1.558  1.8747 -0.8210 -0.1309
  781SOL    HW3 3170   1.108   1.455   1.572  0.7699 -0.0341  1.0427
  781SOL    MW4 3171   1.130   1.533   1.603  0.5697  0.5207 -0.2072
  782SOL     OW 3172   0.892   1.652   1.504 -0.7323 -0.4808  0.1128
  782SOL    HW2 3173   0.975   1.613   1.532 -0.5003 -0.8580 -1.0825
  782SOL    HW3 3174   0.892   1.642   1.409 -1.7373  0.3403  0.0243
  782SOL    MW4 3175   0.903   1.646   1.495 -0.8342 -0.4222 -0.0566
  783SOL     OW 3176   0.893   1.919   1.594 -0.4089 -0.4752  0.0583
  783SOL    HW2 3177   0.960   1.973   1.553 -1.1610 -0.4251 -1.1408
  783SOL    HW3 3178   0.905   1.832   1.555 -0.7809 -0.5600  0.1233
  783SOL    MW4 3179   0.903   1.914   1.583 -0.5571 -0.4799 -0.0914
  784SOL     OW 3180   1.099   2.057   1.461 -0.3237  0.0051  0.2570
  784SOL    HW2 3181   1.176   2.018   1.502  1.2241  0.5850 -2.0134
  784SOL    HW3 3182   1.101   2.149   1.488  0.0654  0.1282 -0.1778
  784SOL    MW4 3183   1.109   2.064   1.470 -0.0682  0.0980 -0.0999
  785SOL     OW 3184   1.104   2.305   1.596  0.0152  0.1826 -0.3117
  785SOL    HW2 3185   1.180   2.361   1.580 -0.2989  1.6232  2.7889
  785SOL    HW3 3186   1.029   2.363   1.583 -0.4310 -0.4120 -0.3723
  785SOL    MW4 3187   1.104   2.320   1.592 -0.0852  0.2942  0.0894
  786SOL     OW 3188   0.872   2.473   1.546 -0.2874  0.2258 -0.3982
  786SOL    HW2 3189   0.882   2.559   1.588  0.8902  0.0797 -0.3680
  786SOL    HW3 3190   0.785   2.443   1.574 -0.1323  0.7910  0.7273
  786SOL    MW4 3191   0.862   2.481   1.555 -0.1116  0.2813 -0.2457
  787SOL     OW 3192   0.903   2.724   1.657 -0.3800  0.1077  0.0214
  787SOL    HW2 3193   0.892   2.740   1.751 -0.2656  0.2440  0.0133
  787SOL    HW3 3194   0.819   2.749   1.618 -0.6735 -0.6533  0.1708
  787SOL    MW4 3195   0.891   2.730   1.664 -0.4036  0.0253  0.0401
  788SOL     OW 3196   1.127   2.832   1.506 -0.3372  0.1223  0.4751
  788SOL    HW2 3197   1.111   2.922   1.533 -1.0351  0.3205 -0.5529
  788SOL    HW3 3198   1.063   2.780   1.554  0.2778  0.1157  1.3161
  788SOL    MW4 3199   1.117   2.837   1.516 -0.3482  0.1476  0.4505
  789SOL     OW 3200   1.129   3.090   1.602 -0.0767  0.1134 -0.5291
  789SOL    HW2 3201   1.128   3.085   1.697  0.1386 -2.6751 -0.6458
  789SOL    HW3 3202   1.220   3.112   1.581  0.1202 -0.3018 -0.1243
  789SOL    MW4 3203   1.141   3.092   1.612 -0.0223 -0.3092 -0.4911
  790SOL     OW 3204   0.908   3.238   1.540  0.0623  0.1079 -0.2644
  790SOL    HW2 3205   0.983   3.181   1.559  0.9015  0.8552 -1.3331
  790SOL    HW3 3206   0.894   3.229   1.446 -0.6389  0.6769 -0.2187
  790SOL    MW4 3207   0.916   3.229   1.530  0.0805  0.2816 -0.3994
  791SOL     OW 3208   0.897   3.500   1.660  0.4655 -0.2276  0.1119
  791SOL    HW2 3209   0.978   3.516   1.612 -0.9851 -0.8765 -2.6088
  791SOL    HW3 3210   0.877   3.408   1.644 -0.7767 -0.0980  0.8376
  791SOL    MW4 3211   0.905   3.490   1.652  0.1103 -0.2961 -0.1514
  792SOL     OW 3212   1.151   3.594   1.565  0.7286 -0.0045  0.4139
  792SOL    HW2 3213   1.223   3.536   1.589  0.6327  0.1357  1.0392
  792SOL    HW3 3214   1.163   3.609   1.471  2.0540  0.7773  0.6996
  792SOL    MW4 3215   1.162   3.588   1.556  0.8909  0.1168  0.5339
  793SOL     OW 3216   1.138   3.877   1.623 -0.0694 -0.1195 -0.3467
  793SOL    HW2 3217   1.213   3.932   1.599 -0.4132  0.3975 -0.2435
  793SOL    HW3 3218   1.143   3.802   1.563 -0.8403  1.0838 -1.9540
  793SOL    MW4 3219   1.149   3.874   1.612 -0.2166  0.1073 -0.5453
  794SOL     OW 3220   0.903   4.002   1.554 -0.1474 -0.6493  0.3407
  794SOL    HW2 3221   0.909   4.093   1.583  0.1766 -0.1656 -1.2157
  794SOL    HW3 3222   0.981   3.960   1.589  0.4205  0.0143 -0.1372
  794SOL    MW4 3223   0.914   4.008   1.563 -0.0297 -0.4978  0.0722
  795SOL     OW 3224   0.903   4.272   1.608  0.0238  0.1681 -0.0178
  795SOL    HW2 3225   0.896   4.279   1.704  0.8426  0.7463  0.0074
  795SOL    HW3 3226   0.828   4.321   1.575 -0.0707  0.2607  0.3234
  795SOL    MW4 3227   0.893   4.279   1.616  0.1194  0.2565  0.0305
  796SOL     OW 3228   1.132   4.364   1.474  0.2740  0.3589 -0.5468
  796SOL    HW2 3229   1.063   4.326   1.528 -0.8989  1.2322 -1.4036
  796SOL    HW3 3230   1.131   4.457   1.496  2.1642  0.1606  0.4883
  796SOL    MW4 3231   1.123   4.371   1.484  0.3685  0.4482 -0.5233
  797SOL     OW 3232   1.616   0.022   1.572  0.5435 -0.5259 -0.0426
  797SOL    HW2 3233   1.601   0.013   1.667  0.6418  0.4089  0.0683
  797SOL    HW3 3234   1.535   0.060   1.539  0.7598 -0.2274 -0.2295
  797SOL    MW4 3235   1.604   0.026   1.580  0.5851 -0.3632 -0.0526
  798SOL     OW 3236   1.359   0.076   1.477 -0.0045 -0.2230 -0.1858
  798SOL    HW2 3237   1.367   0.162   1.518  2.5298 -0.7150  0.4318
  798SOL    HW3 3238   1.375   0.092   1.384  0.8196 -0.0552 -0.0225
  798SOL    MW4 3239   1.362   0.089   1.470  0.4387 -0.2658 -0.0827
  799SOL     OW 3240   1.356   0.341   1.569 -0.1460  0.0172 -0.3343
  799SOL    HW2 3241   1.424   0.402   1.541 -0.3631  0.0438 -0.8131
  799SOL    HW3 3242   1.275   0.377   1.533 -0.2262 -0.7464 -0.9345
  799SOL    MW4 3243   1.354   0.354   1.561 -0.1853 -0.0801 -0.4767
  800SOL     OW 3244   1.593   0.461   1.496  0.0403 -0.0273 -0.1537
  800SOL    HW2 3245   1.666   0.415   1.537  0.6749  1.1718  0.0776
  800SOL    HW3 3246   1.613   0.460   1.402 -1.0939 -2.2141 -0.3965
  800SOL    MW4 3247   1.605   0.455   1.489 -0.0255 -0.1577 -0.1552
  801SOL     OW 3248   1.539   0.734   1.552 -0.1419  0.0049 -0.5841
  801SOL    HW2 3249   1.549   0.747   1.646  2.1620 -0.1913 -0.7563
  801SOL    HW3 3250   1.549   0.640   1.540  0.9313  0.1754 -1.1403
  801SOL    MW4 3251   1.542   0.723   1.563  0.3037  0.0015 -0.6801
  802SOL     OW 3252   1.304   0.893   1.491 -0.3511  0.1530 -0.4255
  802SOL    HW2 3253   1.377   0.832   1.502  0.1275  0.8946  0.5386
  802SOL    HW3 3254   1.307   0.917   1.398  0.8210  0.4163 -0.3300
  802SOL    MW4 3255   1.314   0.888   1.480 -0.1332  0.2856 -0.2856
  803SOL     OW 3256   1.302   1.153   1.604 -0.3040  0.0909 -0.4292
  803SOL    HW2 3257   1.306   1.162   1.699  2.2531  0.3767 -0.5136
  803SOL    HW3 3258   1.309   1.059   1.588 -0.6928  0.0464 -0.3405
  803SOL    MW4 3259   1.304   1.142   1.614 -0.0179  0.1228 -0.4287
  804SOL     OW 3260   1.564   1.241   1.561  0.2422  0.2673 -0.0126
  804SOL    HW2 3261   1.479   1.208   1.590  0.7916 -0.9055  0.2891
  804SOL    HW3 3262   1.562   1.233   1.466 -0.1258  0.5870 -0.0316
  804SOL    MW4 3263   1.553   1.235   1.552  0.2661  0.1546  0.0248
  805SOL     OW 3264   1.584   1.542   1.561 -0.2405  0.5657 -0.2691
  805SOL    HW2 3265   1.567   1.560   1.653 -0.5502  0.4828 -0.3074
  805SOL    HW3 3266   1.587   1.446   1.556 -1.0935  0.5414 -0.4899
  805SOL    MW4 3267   1.582   1.532   1.572 -0.3939  0.5516 -0.3033
  806SOL     OW 3268   1.339   1.657   1.478  0.0541 -0.0159 -0.0832
  806SOL    HW2 3269   1.416   1.607   1.505  0.4039  1.3739  1.5664
  806SOL    HW3 3270   1.347   1.665   1.383  2.1389  0.4208  0.1146
  806SOL    MW4 3271   1.350   1.651   1.469  0.3752  0.2251  0.1605
  807SOL     OW 3272   1.325   1.948   1.586  0.3010 -0.1371  0.2576
  807SOL    HW2 3273   1.317   1.944   1.681 -1.8047 -0.8622  0.0863
  807SOL    HW3 3274   1.337   1.857   1.558  1.0943  0.0890 -0.1673
  807SOL    MW4 3275   1.325   1.935   1.595  0.1278 -0.2030  0.1791
  808SOL     OW 3276   1.574   2.047   1.536 -0.0052  0.0623 -0.2751
  808SOL    HW2 3277   1.490   2.009   1.562 -0.0077  0.4452  0.2887
  808SOL    HW3 3278   1.567   2.057   1.441  0.2540 -1.9513 -0.5340
  808SOL    MW4 3279   1.562   2.043   1.527  0.0287 -0.1526 -0.2347
  809SOL     OW 3280   1.568   2.325   1.598  0.2176  0.0665 -0.4063
  809SOL    HW2 3281   1.637   2.370   1.549  0.2945  0.8693  0.4041
  809SOL    HW3 3282   1.580   2.233   1.578  0.6434  0.3279 -1.3886
  809SOL    MW4 3283   1.579   2.319   1.589  0.2838  0.2067 -0.4292
  810SOL     OW 3284   1.327   2.481   1.484 -0.1986 -0.1649 -0.1571
  810SOL    HW2 3285   1.328   2.556   1.543 -1.5351  0.1658 -0.5307
  810SOL    HW3 3286   1.395   2.422   1.518 -0.4400  0.3642  1.2530
  810SOL    MW4 3287   1.336   2.483   1.496 -0.4069 -0.0515 -0.0203
  811SOL     OW 3288   1.357   2.725   1.622 -0.1423  0.1818 -0.2359
  811SOL    HW2 3289   1.430   2.765   1.573 -0.2843 -0.7192 -1.2093
  811SOL    HW3 3290   1.279   2.750   1.572 -0.6272  1.9829  1.3529
  811SOL    MW4 3291   1.356   2.734   1.609 -0.2251  0.3004 -0.1546
  812SOL     OW 3292   1.567   2.835   1.491  0.1530 -0.0686  0.5727
  812SOL    HW2 3293   1.655   2.804   1.512  0.1318  0.4757  1.5137
  812SOL    HW3 3294   1.563   2.835   1.395  0.2502 -2.6585  0.5489
  812SOL    MW4 3295   1.578   2.831   1.481  0.1630 -0.3383  0.6937
  813SOL     OW 3296   1.570   3.051   1.684 -0.0541 -0.0053 -0.1339
  813SOL    HW2 3297   1.654   3.076   1.645 -0.6169 -0.2583 -1.5172
  813SOL    HW3 3298   1.546   2.970   1.640 -0.3875 -0.6501  1.2059
  813SOL    MW4 3299   1.578   3.044   1.673 -0.1724 -0.1240 -0.1396
  814SOL     OW 3300   1.379   3.183   1.520 -0.0416 -0.1182  0.1280
  814SOL    HW2 3301   1.380   3.277   1.537  0.9278  0.3533 -2.4278
  814SOL    HW3 3302   1.448   3.148   1.577 -0.5725  0.6581  1.2790
  814SOL    MW4 3303   1.388   3.191   1.530  0.0162  0.0463 -0.0572
  815SOL     OW 3304   1.388   3.452   1.585  0.2464  0.2092  0.0219
  815SOL    HW2 3305   1.389   3.435   1.680 -0.0192 -0.4997 -0.0997
  815SOL    HW3 3306   1.459   3.514   1.572  0.0285  0.6228  0.7477
  815SOL    MW4 3307   1.398   3.458   1.596  0.1825  0.1702  0.1014
  816SOL     OW 3308   1.599   3.612   1.512 -0.4926  0.4564 -0.3508
  816SOL    HW2 3309   1.581   3.703   1.535  2.0139  1.0672 -0.5759
  816SOL    HW3 3310   1.590   3.609   1.416 -0.1603  0.6000 -0.3906
  816SOL    MW4 3311   1.596   3.623   1.502 -0.1180  0.5560 -0.3858
  817SOL     OW 3312   1.568   3.862   1.616  0.2386 -0.5499  0.2665
  817SOL    HW2 3313   1.560   3.867   1.712  1.2454  0.9926  0.2801
  817SOL    HW3 3314   1.492   3.910   1.583  0.3716 -0.3203  0.2955
  817SOL    MW4 3315   1.557   3.869   1.625  0.3891 -0.3161  0.2722
  818SOL     OW 3316   1.353   4.008   1.493  0.1015 -0.3697  0.3346
  818SOL    HW2 3317   1.365   4.098   1.525  0.0433 -0.2335 -0.0188
  818SOL    HW3 3318   1.345   4.018   1.398 -0.5940 -0.6779  0.3564
  818SOL    MW4 3319   1.353   4.021   1.484  0.0020 -0.3924  0.2908
  819SOL     OW 3320   1.354   4.273   1.591  0.0343 -0.0337  0.5678
  819SOL    HW2 3321   1.424   4.323   1.549  0.5591 -1.8277 -0.7522
  819SOL    HW3 3322   1.275   4.296   1.543  0.1999 -0.1349  0.2487
  819SOL    MW4 3323   1.353   4.282   1.579  0.1253 -0.2837  0.3515
  820SOL     OW 3324   1.592   4.427   1.491 -0.5987 -0.3400  0.0219
  820SOL    HW2 3325   1.671   4.380   1.515 -1.2798 -1.0958  0.8272
  820SOL    HW3 3326   1.612   4.519   1.508  0.5646 -0.3804 -1.0914
  820SOL    MW4 3327   1.605   4.433   1.497 -0.5351 -0.4454 -0.0187
  821SOL     OW 3328   2.053   4.613   1.585 -0.0843 -0.3849  0.0241
  821SOL    HW2 3329   2.061   4.631   1.679  0.8086 -0.2929 -0.0660
  821SOL    HW3 3330   1.988   4.675   1.554  0.2458  0.1623  0.4200
  821SOL    MW4 3331   2.046   4.623   1.593  0.0770 -0.3004  0.0644
  822SOL     OW 3332   1.847   0.131   1.473 -0.0954  0.3523 -0.4836
  822SOL    HW2 3333   1.767   0.104   1.518  0.8352 -0.2845  0.8211
  822SOL    HW3 3334   1.824   0.130   1.380 -1.7944  0.8514 -0.0813
  822SOL    MW4 3335   1.833   0.128   1.467 -0.1967  0.3341 -0.2583
  823SOL     OW 3336   1.849   0.367   1.597 -0.4115 -0.2164  0.3423
  823SOL    HW2 3337   1.908   0.429   1.554 -0.4381 -0.5575 -0.2023
  823SOL    HW3 3338   1.859   0.287   1.546 -0.7452 -0.5117  0.7431
  823SOL    MW4 3339   1.858   0.365   1.584 -0.4592 -0.3003  0.3232
  824SOL     OW 3340   2.008   0.549   1.461 -0.1257  0.3397  0.1373
  824SOL    HW2 3341   2.083   0.494   1.483 -0.4899 -0.3274 -0.2653
  824SOL    HW3 3342   2.022   0.630   1.510 -0.2092 -0.5730  1.6968
  824SOL    MW4 3343   2.019   0.552   1.470 -0.1850  0.1312  0.2899
  825SOL     OW 3344   2.000   0.776   1.587 -0.4131  0.4049  0.7134
  825SOL    HW2 3345   2.067   0.839   1.563  0.7912 -1.2498 -0.4457
  825SOL    HW3 3346   1.925   0.797   1.531  0.8123 -0.6370 -1.3800
  825SOL    MW4 3347   1.999   0.787   1.576 -0.0925  0.0491  0.2843
  826SOL     OW 3348   1.776   0.847   1.432 -0.2573  0.5506  0.7061
  826SOL    HW2 3349   1.774   0.935   1.470 -1.0601 -0.1498  2.3251
  826SOL    HW3 3350   1.697   0.804   1.464  0.0069 -0.7027 -0.2484
  826SOL    MW4 3351   1.766   0.853   1.441 -0.3285  0.2928  0.7937
  827SOL     OW 3352   1.811   1.101   1.572 -0.3885  0.1185 -0.1326
  827SOL    HW2 3353   1.887   1.157   1.552 -0.4613 -0.0692 -0.9466
  827SOL    HW3 3354   1.736   1.161   1.566 -0.3835  0.1265 -0.1162
  827SOL    MW4 3355   1.811   1.116   1.568 -0.3974  0.0947 -0.2378
  828SOL     OW 3356   2.010   1.290   1.503 -0.1128  0.1880  0.0071
  828SOL    HW2 3357   2.004   1.381   1.531 -1.7161  0.2217 -0.3539
  828SOL    HW3 3358   1.991   1.293   1.409 -0.0527 -0.4971 -0.0288
  828SOL    MW4 3359   2.007   1.302   1.494 -0.3161  0.1020 -0.0454
  829SOL     OW 3360   2.024   1.557   1.606 -0.5932  0.0767 -0.2601
  829SOL    HW2 3361   2.105   1.587   1.565 -0.8104  0.6312 -0.2811
  829SOL    HW3 3362   1.955   1.602   1.559 -0.7908  1.6898  1.5348
  829SOL    MW4 3363   2.026   1.567   1.595 -0.6478  0.3626 -0.0261
  830SOL     OW 3364   1.806   1.677   1.485 -0.3029 -0.2765 -0.1925
  830SOL    HW2 3365   1.722   1.638   1.510 -0.3891 -0.3726 -0.6377
  830SOL    HW3 3366   1.800   1.690   1.391  0.4032 -0.7881 -0.3086
  830SOL    MW4 3367   1.794   1.674   1.476 -0.2211 -0.3568 -0.2667
  831SOL     OW 3368   1.801   1.927   1.635 -0.1984  0.3182  0.4275
  831SOL    HW2 3369   1.811   1.854   1.573 -1.0245 -0.1366  0.8163
  831SOL    HW3 3370   1.714   1.963   1.615  0.5538  1.7628 -0.3490
  831SOL    MW4 3371   1.790   1.922   1.624 -0.2080  0.4487  0.3765
  832SOL     OW 3372   1.998   2.082   1.517 -0.2336 -0.1415  0.0857
  832SOL    HW2 3373   2.079   2.046   1.554  0.4105 -0.3430 -1.4966
  832SOL    HW3 3374   1.929   2.052   1.577  0.7203 -0.9436  0.7977
  832SOL    MW4 3375   1.999   2.073   1.530 -0.0229 -0.2739 -0.0291
  833SOL     OW 3376   2.001   2.353   1.589 -0.3814  0.4062 -0.2697
  833SOL    HW2 3377   2.023   2.342   1.681  0.5713  0.1231 -0.5291
  833SOL    HW3 3378   2.015   2.266   1.550 -0.1735  0.6793 -0.8099
  833SOL    MW4 3379   2.006   2.340   1.596 -0.2282  0.4048 -0.3752
  834SOL     OW 3380   1.774   2.486   1.495  0.0398  0.1835  0.0034
  834SOL    HW2 3381   1.858   2.446   1.517  0.3452  0.5894 -0.4024
  834SOL    HW3 3382   1.767   2.473   1.400  0.3407  1.4617 -0.1980
  834SOL    MW4 3383   1.784   2.479   1.485  0.1198  0.4058 -0.0768
  835SOL     OW 3384   1.771   2.730   1.609  0.1501  0.8468  0.1410
  835SOL    HW2 3385   1.857   2.768   1.591  0.5521  0.6248  1.5736
  835SOL    HW3 3386   1.768   2.651   1.556  0.5581  1.1988 -0.4209
  835SOL    MW4 3387   1.782   2.725   1.599  0.2570  0.8638  0.2558
  836SOL     OW 3388   2.024   2.823   1.557 -0.0070 -0.3376 -0.2043
  836SOL    HW2 3389   2.019   2.910   1.597  1.6489 -0.1107 -0.4610
  836SOL    HW3 3390   2.038   2.841   1.464 -0.7814 -0.8792 -0.4286
  836SOL    MW4 3391   2.025   2.837   1.550  0.1090 -0.3791 -0.2677
  837SOL     OW 3392   2.011   3.070   1.642 -0.4121 -0.3250 -0.2087
  837SOL    HW2 3393   2.030   3.089   1.734 -0.0941  1.6676 -0.6612
  837SOL    HW3 3394   2.082   3.113   1.594 -0.5322 -1.4252 -1.4004
  837SOL    MW4 3395   2.023   3.078   1.648 -0.3862 -0.2074 -0.4256
  838SOL     OW 3396   1.772   3.182   1.559  0.1933 -0.0358 -0.2783
  838SOL    HW2 3397   1.776   3.277   1.571  1.3278 -0.0776 -0.2350
  838SOL    HW3 3398   1.856   3.151   1.593  0.2084 -0.9595 -1.1438
  838SOL    MW4 3399   1.784   3.191   1.565  0.3451 -0.1633 -0.3868
  839SOL     OW 3400   1.798   3.447   1.635 -0.0598 -0.3486  0.2423
  839SOL    HW2 3401   1.807   3.465   1.729  0.6537 -0.3676  0.1828
  839SOL    HW3 3402   1.727   3.505   1.606  0.0770  0.0470  0.6829
  839SOL    MW4 3403   1.790   3.457   1.644  0.0523 -0.2987  0.2925
  840SOL     OW 3404   2.021   3.593   1.492 -0.1687 -0.3230 -0.2902
  840SOL    HW2 3405   2.095   3.546   1.530 -1.2498  0.6370  3.2452
  840SOL    HW3 3406   1.947   3.533   1.500 -0.5904  0.2194 -0.0427
  840SOL    MW4 3407   2.021   3.579   1.498 -0.3669 -0.1249  0.2089
  841SOL     OW 3408   2.020   3.844   1.619 -0.2624 -0.0203  0.0323
  841SOL    HW2 3409   2.095   3.875   1.567  1.3544 -0.7791  1.8341
  841SOL    HW3 3410   2.018   3.750   1.605 -1.4419  0.0944 -0.6710
  841SOL    MW4 3411   2.030   3.836   1.610 -0.2046 -0.1049  0.1773
  842SOL     OW 3412   1.789   3.997   1.522  0.2011 -0.1236 -0.0513
  842SOL    HW2 3413   1.857   3.945   1.564  0.5317 -0.1640 -0.6305
  842SOL    HW3 3414   1.707   3.963   1.558  0.4748 -0.1898  0.5219
  842SOL    MW4 3415   1.787   3.986   1.532  0.2809 -0.1378 -0.0521
  843SOL     OW 3416   1.790   4.269   1.587 -0.4340 -0.0531  0.1971
  843SOL    HW2 3417   1.876   4.295   1.553 -1.0426  0.4075 -1.0216
  843SOL    HW3 3418   1.779   4.178   1.558 -0.6315  0.0971 -0.2020
  843SOL    MW4 3419   1.800   4.260   1.579 -0.5404  0.0267 -0.0163
  844SOL     OW 3420   2.056   4.346   1.480  0.4362 -0.2934 -0.1073
  844SOL    HW2 3421   2.124   4.296   1.525  1.3725  0.2591 -0.9012
  844SOL    HW3 3422   2.060   4.433   1.520  0.8386  0.0129 -0.8025
  844SOL    MW4 3423   2.065   4.351   1.491  0.6127 -0.1793 -0.3037
  845SOL     OW 3424   2.478   4.618   1.559 -0.0396  0.2054 -0.0871
  845SOL    HW2 3425   2.466   4.620   1.654 -0.7346 -0.5089 -0.1471
  845SOL    HW3 3426   2.401   4.663   1.524 -0.6982 -1.0834 -0.3583
  845SOL    MW4 3427   2.466   4.624   1.567 -0.2179 -0.0582 -0.1308
  846SOL     OW 3428   2.245   0.083   1.463 -0.1702  1.3024  0.0148
  846SOL    HW2 3429   2.180   0.028   1.507 -1.2543  2.5689  0.0453
  846SOL    HW3 3430   2.224   0.074   1.370  1.7057 -0.8582 -0.2375
  846SOL    MW4 3431   2.234   0.075   1.456 -0.0656  1.1845 -0.0143
  847SOL     OW 3432   2.182   0.353   1.557  0.7746  0.0534  0.2537
  847SOL    HW2 3433   2.195   0.358   1.652 -1.1608  1.7958  0.4546
  847SOL    HW3 3434   2.177   0.259   1.539  2.2761 -0.3393  1.6893
  847SOL    MW4 3435   2.183   0.341   1.568  0.7174  0.2314  0.4696
  848SOL     OW 3436   2.402   0.498   1.451  0.1834  0.2139  0.5493
  848SOL    HW2 3437   2.467   0.457   1.508  1.3365 -0.0255 -0.9164
  848SOL    HW3 3438   2.323   0.447   1.465  0.7657 -0.5673  1.0749
  848SOL    MW4 3439   2.400   0.486   1.460  0.4122  0.0792  0.4252
  849SOL     OW 3440   2.435   0.751   1.560 -0.4493 -0.2577 -0.2513
  849SOL    HW2 3441   2.362   0.810   1.543 -1.0143 -0.5878  1.0235
  849SOL    HW3 3442   2.410   0.668   1.518 -0.0828  0.0993 -1.1992
  849SOL    MW4 3443   2.422   0.748   1.552 -0.4754 -0.2542 -0.2081
  850SOL     OW 3444   2.228   0.913   1.485 -0.1925 -0.1588 -0.3606
  850SOL    HW2 3445   2.254   1.003   1.503 -0.2921 -0.2001 -0.0003
  850SOL    HW3 3446   2.225   0.907   1.389 -2.3680  0.8624 -0.3842
  850SOL    MW4 3447   2.231   0.924   1.474 -0.4928 -0.0294 -0.3161
  851SOL     OW 3448   2.260   1.161   1.596 -0.2804  0.2632  0.5677
  851SOL    HW2 3449   2.257   1.155   1.692 -1.4424 -1.1949  0.4640
  851SOL    HW3 3450   2.180   1.208   1.573 -0.2097  0.2513  0.2975
  851SOL    MW4 3451   2.249   1.166   1.606 -0.4244  0.0694  0.5184
  852SOL     OW 3452   2.469   1.310   1.490  0.4862  0.1368 -0.1535
  852SOL    HW2 3453   2.397   1.251   1.514  0.7346 -0.2217 -0.2826
  852SOL    HW3 3454   2.457   1.326   1.397  0.9868 -0.5032 -0.3347
  852SOL    MW4 3455   2.458   1.304   1.481  0.5851  0.0052 -0.1943
  853SOL     OW 3456   2.496   1.570   1.607  0.4468 -0.2214  0.0569
  853SOL    HW2 3457   2.567   1.599   1.550 -0.1202 -2.2320 -1.7562
  853SOL    HW3 3458   2.488   1.476   1.589 -1.9123 -0.2476  1.0561
  853SOL    MW4 3459   2.504   1.562   1.597  0.0608 -0.4901 -0.0504
  854SOL     OW 3460   2.256   1.695   1.498 -0.2041  0.5192  0.1481
  854SOL    HW2 3461   2.328   1.648   1.541  0.2890  1.3882  0.2723
  854SOL    HW3 3462   2.268   1.678   1.405 -0.1553  0.2162  0.2096
  854SOL    MW4 3463   2.267   1.686   1.492 -0.1326  0.5939  0.1726
  855SOL     OW 3464   2.209   1.962   1.614 -0.2458  0.4700 -0.3804
  855SOL    HW2 3465   2.209   1.952   1.709  0.0654 -1.5919 -0.5848
  855SOL    HW3 3466   2.197   1.873   1.580 -0.1426  1.1554 -2.2706
  855SOL    MW4 3467   2.208   1.949   1.622 -0.1912  0.2884 -0.6568
  856SOL     OW 3468   2.492   2.037   1.549 -0.0432 -0.4370 -0.2109
  856SOL    HW2 3469   2.416   1.987   1.579 -0.2686 -0.3296 -0.6016
  856SOL    HW3 3470   2.477   2.048   1.455 -0.1402  0.6267 -0.0687
  856SOL    MW4 3471   2.480   2.032   1.540 -0.0858 -0.2823 -0.2437
  857SOL     OW 3472   2.438   2.297   1.602 -0.4183  0.0674 -0.2284
  857SOL    HW2 3473   2.454   2.298   1.696 -0.7790  2.2822 -0.1628
  857SOL    HW3 3474   2.450   2.206   1.576  0.8009 -0.3576  1.7684
  857SOL    MW4 3475   2.442   2.285   1.611 -0.3049  0.3035  0.0435
  858SOL     OW 3476   2.237   2.453   1.477 -0.0677  0.6161  0.0102
  858SOL    HW2 3477   2.295   2.384   1.509  0.7710  0.9456 -0.8060
  858SOL    HW3 3478   2.156   2.440   1.526  0.8770  0.5058  1.5699
  858SOL    MW4 3479   2.234   2.442   1.488  0.1674  0.6454  0.1082
  859SOL     OW 3480   2.269   2.701   1.592 -0.1702 -0.8651  0.1442
  859SOL    HW2 3481   2.258   2.617   1.547 -0.2859 -0.2198 -1.0564
  859SOL    HW3 3482   2.185   2.745   1.582  0.4596  0.1427 -0.8124
  859SOL    MW4 3483   2.256   2.695   1.585 -0.1023 -0.6473 -0.1404
  860SOL     OW 3484   2.430   2.837   1.420 -0.5417  0.5839  0.0460
  860SOL    HW2 3485   2.438   2.908   1.483 -1.3455  0.3141  0.4621
  860SOL    HW3 3486   2.371   2.775   1.462 -1.3186  0.5430 -1.1016
  860SOL    MW4 3487   2.423   2.838   1.434 -0.7503  0.5429 -0.0507
  861SOL     OW 3488   2.462   3.075   1.645  0.1725 -0.2332  0.9101
  861SOL    HW2 3489   2.532   3.118   1.594  0.8295 -1.6247  0.6324
  861SOL    HW3 3490   2.381   3.113   1.609  0.7027  0.0918  0.0193
  861SOL    MW4 3491   2.460   3.086   1.633  0.3290 -0.3738  0.7559
  862SOL     OW 3492   2.240   3.182   1.529  0.4869  0.0844 -0.2234
  862SOL    HW2 3493   2.243   3.275   1.553 -1.1920 -0.2406  1.3622
  862SOL    HW3 3494   2.260   3.181   1.436 -0.6227  2.1744 -0.5281
  862SOL    MW4 3495   2.243   3.194   1.520  0.1190  0.3171 -0.0544
  863SOL     OW 3496   2.248   3.468   1.592  0.1957  0.4085 -0.0812
  863SOL    HW2 3497   2.257   3.469   1.688  0.6130  1.1299 -0.1233
  863SOL    HW3 3498   2.329   3.506   1.560  0.2509 -0.2638 -0.7482
  863SOL    MW4 3499   2.260   3.473   1.601  0.2580  0.4151 -0.1748
  864SOL     OW 3500   2.497   3.583   1.490  0.2871  0.1290 -0.0527
  864SOL    HW2 3501   2.581   3.541   1.512 -0.0004  0.4185  1.6598
  864SOL    HW3 3502   2.489   3.654   1.553 -1.3369 -0.0037 -0.1078
  864SOL    MW4 3503   2.507   3.587   1.501  0.0348  0.1497  0.1662
  865SOL     OW 3504   2.432   3.827   1.634  0.0248 -0.2814  0.0536
  865SOL    HW2 3505   2.444   3.830   1.729  0.0607  1.7756  0.0080
  865SOL    HW3 3506   2.500   3.884   1.599 -1.0353  0.3022 -1.0933
  865SOL    MW4 3507   2.442   3.835   1.642 -0.1104  0.0670 -0.1037
  866SOL     OW 3508   2.227   3.974   1.491  0.2767 -0.3624  0.1646
  866SOL    HW2 3509   2.303   3.922   1.520  1.0626  0.6709 -0.0341
  866SOL    HW3 3510   2.232   3.972   1.396 -0.4339 -1.0047  0.1414
  866SOL    MW4 3511   2.238   3.967   1.482  0.2866 -0.3111  0.1353
  867SOL     OW 3512   2.245   4.211   1.611 -0.3402 -0.1998  0.0320
  867SOL    HW2 3513   2.311   4.266   1.568 -0.6017  0.1096  0.0233
  867SOL    HW3 3514   2.260   4.124   1.576  0.5712 -0.2810  0.6087
  867SOL    MW4 3515   2.256   4.207   1.601 -0.2544 -0.1702  0.1069
  868SOL     OW 3516   2.450   4.361   1.502 -0.3263 -0.2313 -0.1726
  868SOL    HW2 3517   2.462   4.456   1.512 -0.9595 -0.0617 -0.9788
  868SOL    HW3 3518   2.469   4.345   1.409 -2.9653 -0.4739 -0.6989
  868SOL    MW4 3519   2.454   4.371   1.491 -0.7579 -0.2408 -0.3483
  869SOL     OW 3520   2.852   4.644   1.573 -0.0120  0.1341 -0.4451
  869SOL    HW2 3521   2.881   4.672   1.660  1.3565 -0.2535 -0.7622
  869SOL    HW3 3522   2.782   4.705   1.550 -0.3799  0.2378  0.9236
  869SOL    MW4 3523   2.847   4.656   1.581  0.1199  0.0958 -0.3062
  870SOL     OW 3524   2.659   0.144   1.458  0.3257  0.1060  0.3895
  870SOL    HW2 3525   2.642   0.227   1.502  0.0542  1.2460 -1.8091
  870SOL    HW3 3526   2.581   0.091   1.475  0.4262  0.3365  1.6553
  870SOL    MW4 3527   2.647   0.148   1.466  0.3030  0.2868  0.2664
  871SOL     OW 3528   2.645   0.378   1.596  0.4913 -0.0180 -0.3010
  871SOL    HW2 3529   2.649   0.383   1.692  1.4038  0.6272 -0.3662
  871SOL    HW3 3530   2.721   0.427   1.566  0.1332 -0.0951 -1.3680
  871SOL    MW4 3531   2.655   0.385   1.605  0.5643  0.0570 -0.4504
  872SOL     OW 3532   2.890   0.489   1.493 -0.1503  0.0201 -0.3526
  872SOL    HW2 3533   2.904   0.583   1.506 -1.7643 -0.0396  2.0173
  872SOL    HW3 3534   2.871   0.482   1.399 -1.9815  2.3254 -0.2071
  872SOL    MW4 3535   2.890   0.501   1.482 -0.6049  0.3163 -0.0206
  873SOL     OW 3536   2.906   0.769   1.547 -0.0541 -0.4413 -0.6170
  873SOL    HW2 3537   2.889   0.757   1.641  0.4041  0.7773 -0.3746
  873SOL    HW3 3538   2.820   0.783   1.509 -0.1367  0.1092 -0.2271
  873SOL    MW4 3539   2.893   0.769   1.555 -0.0045 -0.2079 -0.5336
  874SOL     OW 3540   2.653   0.895   1.479 -0.3278 -0.4981 -0.0690
  874SOL    HW2 3541   2.579   0.836   1.495  0.4300 -1.4683 -0.1220
  874SOL    HW3 3542   2.657   0.903   1.384 -0.5776 -0.1699 -0.0524
  874SOL    MW4 3543   2.643   0.888   1.469 -0.2608 -0.5828 -0.0737
  875SOL     OW 3544   2.693   1.141   1.574 -0.1745 -0.2803  0.3109
  875SOL    HW2 3545   2.675   1.050   1.552  0.0558  0.0021 -1.0837
  875SOL    HW3 3546   2.614   1.188   1.549  0.5691  0.2306 -1.1610
  875SOL    MW4 3547   2.681   1.135   1.568 -0.0458 -0.1757 -0.0672
  876SOL     OW 3548   2.913   1.264   1.439 -0.0403 -0.2188 -0.2624
  876SOL    HW2 3549   2.990   1.228   1.484  0.2928 -0.3132 -0.8988
  876SOL    HW3 3550   2.838   1.233   1.490  0.3968  1.0236  1.1829
  876SOL    MW4 3551   2.913   1.255   1.452  0.0613 -0.0672 -0.1557
  877SOL     OW 3552   2.923   1.517   1.574  0.3378  0.1186  0.1647
  877SOL    HW2 3553   2.845   1.556   1.533 -0.5190 -1.4109  0.2845
  877SOL    HW3 3554   2.935   1.434   1.528 -0.2917 -1.3712  2.5854
  877SOL    MW4 3555   2.914   1.511   1.562  0.1414 -0.2797  0.5001
  878SOL     OW 3556   2.709   1.645   1.453 -0.6495  0.4682 -0.5943
  878SOL    HW2 3557   2.717   1.724   1.506 -3.6132  0.4857 -0.0756
  878SOL    HW3 3558   2.705   1.677   1.363  0.8850  0.6920 -0.5911
  878SOL    MW4 3559   2.710   1.660   1.448 -0.8378  0.5001 -0.5255
  879SOL     OW 3560   2.711   1.884   1.581  0.7752  0.2418  0.3505
  879SOL    HW2 3561   2.714   1.861   1.674 -0.3204  0.3984  0.4339
  879SOL    HW3 3562   2.633   1.939   1.573  0.2609 -0.6320 -0.8351
  879SOL    MW4 3563   2.701   1.888   1.592  0.5627  0.1471  0.2050
  880SOL     OW 3564   2.896   2.073   1.449 -0.2602 -0.1788  0.1965
  880SOL    HW2 3565   2.879   2.156   1.493  2.2703  0.7529 -0.5708
  880SOL    HW3 3566   2.831   2.013   1.487 -3.1719  2.4863 -0.4181
  880SOL    MW4 3567   2.885   2.076   1.460 -0.3107  0.2959  0.0143
  881SOL     OW 3568   2.899   2.327   1.558 -0.4649 -0.5530 -0.2119
  881SOL    HW2 3569   2.908   2.337   1.653  1.8125  0.3197 -0.4902
  881SOL    HW3 3570   2.814   2.367   1.538  0.0905  1.4071  1.1652
  881SOL    MW4 3571   2.889   2.334   1.568 -0.0911 -0.1793 -0.0670
  882SOL     OW 3572   2.653   2.446   1.508 -0.0250  0.0729 -0.1865
  882SOL    HW2 3573   2.637   2.532   1.548 -1.7862 -0.1184 -0.4567
  882SOL    HW3 3574   2.582   2.391   1.538 -0.0309 -0.7467 -1.6365
  882SOL    MW4 3575   2.642   2.450   1.517 -0.2582 -0.0606 -0.4134
  883SOL     OW 3576   2.652   2.717   1.610 -0.2464  0.2540 -0.7240
  883SOL    HW2 3577   2.724   2.724   1.548  0.2814 -0.8093 -0.2457
  883SOL    HW3 3578   2.577   2.756   1.565  0.3175  0.1815 -1.7220
  883SOL    MW4 3579   2.651   2.723   1.596 -0.1023  0.1040 -0.7925
  884SOL     OW 3580   2.904   2.796   1.500 -0.2402 -0.2784  0.2911
  884SOL    HW2 3581   2.980   2.757   1.542  1.5965  0.7902 -1.9705
  884SOL    HW3 3582   2.899   2.885   1.535 -0.2410 -0.2206  0.1429
  884SOL    MW4 3583   2.913   2.802   1.510  0.0019 -0.1299 -0.0268
  885SOL     OW 3584   2.911   3.062   1.579  0.4529  0.2050  0.4940
  885SOL    HW2 3585   2.892   3.073   1.672 -1.1457  2.0084 -0.0172
  885SOL    HW3 3586   2.983   3.122   1.562  0.1275  0.5630  0.3759
  885SOL    MW4 3587   2.918   3.071   1.589  0.1991  0.4902  0.4110
  886SOL     OW 3588   2.655   3.204   1.498  0.3176 -0.1609  0.0207
  886SOL    HW2 3589   2.735   3.153   1.513 -0.4333 -1.4510 -0.2864
  886SOL    HW3 3590   2.651   3.214   1.403  1.1914  1.6890  0.1562
  886SOL    MW4 3591   2.665   3.198   1.487  0.3335 -0.0868 -0.0019
  887SOL     OW 3592   2.721   3.452   1.585 -0.0621  0.1682  0.1097
  887SOL    HW2 3593   2.719   3.458   1.680 -0.7901  1.7107  0.0079
  887SOL    HW3 3594   2.705   3.359   1.567  0.7565 -0.2472  1.4997
  887SOL    MW4 3595   2.718   3.440   1.595 -0.0505  0.3171  0.2797
  888SOL     OW 3596   2.918   3.630   1.528  0.1865 -0.1111  0.0915
  888SOL    HW2 3597   2.856   3.566   1.564 -0.2942  0.5464  0.4392
  888SOL    HW3 3598   2.914   3.617   1.434 -1.0062  0.3975  0.0598
  888SOL    MW4 3599   2.909   3.620   1.521 -0.0343  0.0429  0.1332
  889SOL     OW 3600   2.904   3.913   1.601  0.0064 -0.0445 -0.1268
  889SOL    HW2 3601   2.822   3.935   1.557  0.0996  0.2972 -0.1323
  889SOL    HW3 3602   2.919   3.821   1.580  0.3095  0.2544 -1.2198
  889SOL    MW4 3603   2.895   3.904   1.593  0.0589  0.0398 -0.2718
  890SOL     OW 3604   2.649   3.991   1.499 -0.0720  0.1508  0.3681
  890SOL    HW2 3605   2.656   4.071   1.551 -0.0836  0.5317 -0.2127
  890SOL    HW3 3606   2.658   4.021   1.408 -2.6862 -0.1251 -0.0363
  890SOL    MW4 3607   2.651   4.006   1.493 -0.4184  0.1650  0.2381
  891SOL     OW 3608   2.655   4.235   1.645  0.0700 -0.0301  0.0079
  891SOL    HW2 3609   2.736   4.276   1.614 -0.7677  0.0308 -2.2002
  891SOL    HW3 3610   2.585   4.286   1.603 -1.0791 -0.9949  0.7222
  891SOL    MW4 3611   2.657   4.247   1.636 -0.1922 -0.1493 -0.1892
  892SOL     OW 3612   2.876   4.372   1.504 -0.3866 -0.2825  0.4374
  892SOL    HW2 3613   2.865   4.466   1.521  1.5948 -0.1462  1.0742
  892SOL    HW3 3614   2.849   4.361   1.413 -1.7757  0.6957  0.7115
  892SOL    MW4 3615   2.871   4.383   1.494 -0.3085 -0.1354  0.5575
  893SOL     OW 3616   3.321   0.038   1.611 -0.1410  0.0635  0.4037
  893SOL    HW2 3617   3.413   0.063   1.606 -0.0118 -0.5115 -0.1547
  893SOL    HW3 3618   3.321  -0.056   1.597 -0.8948  0.1982 -0.5999
  893SOL    MW4 3619   3.333   0.029   1.608 -0.2236  0.0054  0.1978
  894SOL     OW 3620   3.103   0.119   1.436  0.3595  0.1707  0.1539
  894SOL    HW2 3621   3.173   0.080   1.488  0.2437 -1.4101 -0.8204
  894SOL    HW3 3622   3.023   0.100   1.485  0.2821 -1.0594 -0.4169
  894SOL    MW4 3623   3.101   0.111   1.449  0.3338 -0.2001 -0.0498
  895SOL     OW 3624   3.138   0.361   1.585 -0.1445 -0.4137  0.4420
  895SOL    HW2 3625   3.148   0.276   1.542 -0.7337 -1.4488  2.3214
  895SOL    HW3 3626   3.054   0.394   1.553  0.1423 -0.4702 -0.3890
  895SOL    MW4 3627   3.128   0.354   1.575 -0.1843 -0.5577  0.5803
  896SOL     OW 3628   3.394   0.516   1.556  0.2034  0.2121  0.4050
  896SOL    HW2 3629   3.315   0.464   1.565  0.3827 -0.1916 -0.2999
  896SOL    HW3 3630   3.407   0.524   1.461  0.7656  0.6352  0.5143
  896SOL    MW4 3631   3.386   0.510   1.544  0.3014  0.2146  0.3264
  897SOL     OW 3632   3.386   0.779   1.627  0.1288 -0.2876 -0.2762
  897SOL    HW2 3633   3.354   0.778   1.717 -0.9463  0.6825 -0.6222
  897SOL    HW3 3634   3.401   0.688   1.605 -0.6241 -0.6106  0.5352
  897SOL    MW4 3635   3.384   0.767   1.636 -0.1125 -0.2022 -0.2148
  898SOL     OW 3636   3.130   0.882   1.443 -0.2700 -0.0989  0.5061
  898SOL    HW2 3637   3.203   0.839   1.489 -0.5501 -0.7434  0.3540
  898SOL    HW3 3638   3.052   0.839   1.478 -0.5524  0.2835  0.3412
  898SOL    MW4 3639   3.129   0.871   1.454 -0.3445 -0.1336  0.4643
  899SOL     OW 3640   3.120   1.138   1.563  0.1018 -0.3182 -0.1691
  899SOL    HW2 3641   3.108   1.130   1.658  1.0362  1.1745  0.0841
  899SOL    HW3 3642   3.154   1.053   1.536  1.3179 -0.2412  1.0798
  899SOL    MW4 3643   3.123   1.126   1.572  0.3855 -0.1111  0.0290
  900SOL     OW 3644   3.343   1.328   1.482 -0.0695 -0.2569 -0.8116
  900SOL    HW2 3645   3.421   1.284   1.516 -0.1019 -0.3428 -0.8481
  900SOL    HW3 3646   3.270   1.271   1.508 -0.0792 -0.4132 -1.1780
  900SOL    MW4 3647   3.343   1.315   1.490 -0.0753 -0.2888 -0.8647
  901SOL     OW 3648   3.360   1.594   1.579 -0.0799  0.0078 -0.5125
  901SOL    HW2 3649   3.336   1.575   1.670  1.1131  0.4436 -0.0888
  901SOL    HW3 3650   3.361   1.509   1.536 -2.1318 -0.0335 -0.4938
  901SOL    MW4 3651   3.357   1.580   1.586 -0.1931  0.0598 -0.4542
  902SOL     OW 3652   3.117   1.694   1.497  0.3421  0.3990 -0.6351
  902SOL    HW2 3653   3.203   1.662   1.522 -0.0417 -0.6512 -0.6434
  902SOL    HW3 3654   3.056   1.634   1.540 -0.3627  0.3743 -1.6636
  902SOL    MW4 3655   3.120   1.682   1.506  0.1986  0.2571 -0.7719
  903SOL     OW 3656   3.132   1.944   1.593 -0.0316 -0.3279 -0.2061
  903SOL    HW2 3657   3.120   1.863   1.544  0.1940 -0.2218 -0.4415
  903SOL    HW3 3658   3.062   2.002   1.563  0.2305 -0.1920 -0.5523
  903SOL    MW4 3659   3.122   1.941   1.583  0.0327 -0.2959 -0.2828
  904SOL     OW 3660   3.382   2.032   1.507 -0.0316  0.0645  0.5198
  904SOL    HW2 3661   3.292   2.001   1.515 -0.0601  0.0840  0.2879
  904SOL    HW3 3662   3.397   2.036   1.413  0.6742 -1.2980  0.5609
  904SOL    MW4 3663   3.372   2.029   1.496  0.0575 -0.1128  0.4946
  905SOL     OW 3664   3.323   2.279   1.640  0.3123 -0.1623  0.0182
  905SOL    HW2 3665   3.385   2.327   1.585  2.0288 -0.4966  1.6117
  905SOL    HW3 3666   3.321   2.191   1.604  1.5444 -0.4187  0.5598
  905SOL    MW4 3667   3.331   2.274   1.628  0.7012 -0.2403  0.2998
  906SOL     OW 3668   3.144   2.406   1.476  0.2656 -0.1941 -0.2423
  906SOL    HW2 3669   3.197   2.362   1.542 -0.4670 -1.3019 -0.3757
  906SOL    HW3 3670   3.054   2.383   1.497 -0.1724  1.5290 -0.1297
  906SOL    MW4 3671   3.139   2.397   1.487  0.1113 -0.1130 -0.2450
  907SOL     OW 3672   3.152   2.680   1.629 -0.2137 -0.1694 -0.0067
  907SOL    HW2 3673   3.221   2.743   1.606 -1.3136  0.8894 -0.4789
  907SOL    HW3 3674   3.164   2.608   1.567  0.1601  0.2273 -0.3974
  907SOL    MW4 3675   3.163   2.679   1.618 -0.3095  0.0224 -0.1206
  908SOL     OW 3676   3.376   2.858   1.528 -0.2786 -0.6943 -0.5566
  908SOL    HW2 3677   3.354   2.947   1.556 -1.6394 -0.6142 -1.8199
  908SOL    HW3 3678   3.349   2.855   1.437  0.4763 -2.1756 -0.7359
  908SOL    MW4 3679   3.369   2.870   1.520 -0.3586 -0.8793 -0.7470
  909SOL     OW 3680   3.349   3.133   1.605 -0.2398  0.5924  0.0639
  909SOL    HW2 3681   3.370   3.128   1.699  1.0151  0.2870 -0.2284
  909SOL    HW3 3682   3.426   3.173   1.566 -0.3158 -0.2874 -0.9943
  909SOL    MW4 3683   3.362   3.138   1.612 -0.0842  0.4361 -0.1142
  910SOL     OW 3684   3.099   3.241   1.500 -0.3439 -0.1477  0.3381
  910SOL    HW2 3685   3.182   3.202   1.529 -0.2039 -0.4774 -0.4881
  910SOL    HW3 3686   3.103   3.235   1.405 -1.2855 -0.0834  0.2995
  910SOL    MW4 3687   3.111   3.235   1.491 -0.4497 -0.1829  0.2241
  911SOL     OW 3688   3.151   3.500   1.599  0.3920  0.1048  0.2040
  911SOL    HW2 3689   3.124   3.413   1.570  0.5955 -0.3452  1.3119
  911SOL    HW3 3690   3.072   3.555   1.589  0.2981 -0.1758 -0.6025
  911SOL    MW4 3691   3.137   3.496   1.594  0.4065  0.0081  0.2438
  912SOL     OW 3692   3.353   3.638   1.493 -0.2207 -0.3207  0.0192
  912SOL    HW2 3693   3.437   3.609   1.528 -0.7810 -0.4607  1.2717
  912SOL    HW3 3694   3.288   3.581   1.535 -0.9911  0.2223 -0.4269
  912SOL    MW4 3695   3.355   3.627   1.503 -0.3965 -0.2677  0.1256
  913SOL     OW 3696   3.343   3.895   1.589 -0.5448 -0.4951  0.3004
  913SOL    HW2 3697   3.269   3.932   1.540  0.7999  1.4266 -0.3272
  913SOL    HW3 3698   3.347   3.804   1.560 -0.7270  0.2097 -2.0583
  913SOL    MW4 3699   3.334   3.888   1.578 -0.3912 -0.1488 -0.0937
  914SOL     OW 3700   3.124   4.026   1.460  0.8851  0.2830  0.1328
  914SOL    HW2 3701   3.115   4.108   1.507  0.2916  0.6876 -0.6943
  914SOL    HW3 3702   3.055   3.970   1.496  0.9292  0.3334  0.2958
  914SOL    MW4 3703   3.114   4.029   1.471  0.8125  0.3428  0.0451
  915SOL     OW 3704   3.116   4.268   1.594 -0.0599  0.3842 -0.4062
  915SOL    HW2 3705   3.104   4.282   1.688 -0.9839 -0.8352 -0.3297
  915SOL    HW3 3706   3.042   4.312   1.553  0.1331  0.5862 -0.5391
  915SOL    MW4 3707   3.105   4.276   1.601 -0.1564  0.2499 -0.4137
  916SOL     OW 3708   3.366   4.383   1.521  0.2405 -0.5140  0.0333
  916SOL    HW2 3709   3.280   4.347   1.542  0.3007 -1.3406 -1.0722
  916SOL    HW3 3710   3.367   4.388   1.426  0.9057  0.7661  0.1036
  916SOL    MW4 3711   3.355   4.379   1.511  0.3364 -0.4539 -0.1032
  917SOL     OW 3712   3.812   4.656   1.621 -0.0677  0.6189 -0.0962
  917SOL    HW2 3713   3.803   4.679   1.713  1.2669 -0.1728  0.2472
  917SOL    HW3 3714   3.897   4.694   1.595  0.3393 -0.5966 -0.5499
  917SOL    MW4 3715   3.822   4.664   1.629  0.1621  0.3533 -0.1107
  918SOL     OW 3716   3.582   0.118   1.556 -0.3705 -0.2477  0.0231
  918SOL    HW2 3717   3.661   0.066   1.575 -0.6156 -1.0282 -1.0297
  918SOL    HW3 3718   3.584   0.131   1.461 -0.5939  1.2394  0.2162
  918SOL    MW4 3719   3.593   0.113   1.546 -0.4325 -0.1545 -0.0905
  919SOL     OW 3720   3.628   0.387   1.633 -0.2137  0.1606 -0.0258
  919SOL    HW2 3721   3.611   0.294   1.620 -0.6160  0.0368  1.4094
  919SOL    HW3 3722   3.545   0.430   1.611 -0.9967 -0.0761  2.3825
  919SOL    MW4 3723   3.615   0.380   1.628 -0.3700  0.1130  0.4814
  920SOL     OW 3724   3.841   0.546   1.533 -0.1837 -0.0790 -0.0272
  920SOL    HW2 3725   3.773   0.481   1.553  0.7488 -1.2514 -0.6104
  920SOL    HW3 3726   3.839   0.554   1.438  0.4214 -0.0254 -0.0359
  920SOL    MW4 3727   3.831   0.539   1.523  0.0191 -0.2266 -0.1051
  921SOL     OW 3728   3.793   0.795   1.647  0.0818  0.2837 -0.1601
  921SOL    HW2 3729   3.723   0.844   1.604 -0.8107 -0.5469  0.3205
  921SOL    HW3 3730   3.786   0.707   1.610  1.9247  0.5917 -1.3067
  921SOL    MW4 3731   3.783   0.790   1.636  0.2072  0.2147 -0.2480
  922SOL     OW 3732   3.589   0.918   1.486 -0.0535  0.3997  0.3904
  922SOL    HW2 3733   3.519   0.867   1.528  0.6373  0.2810  1.4210
  922SOL    HW3 3734   3.575   0.906   1.392 -1.7100  0.7640  0.5721
  922SOL    MW4 3735   3.578   0.910   1.479 -0.1810  0.4321  0.5503
  923SOL     OW 3736   3.560   1.180   1.591  0.4120 -0.4376 -0.2325
  923SOL    HW2 3737   3.637   1.222   1.554  0.8110 -0.3468  0.6839
  923SOL    HW3 3738   3.565   1.089   1.563  0.9245 -0.4611 -0.0599
  923SOL    MW4 3739   3.571   1.173   1.583  0.5324 -0.4286 -0.0888
  924SOL     OW 3740   3.783   1.290   1.494  0.1653 -0.0363  0.6416
  924SOL    HW2 3741   3.848   1.236   1.539  0.7149  0.1704  0.1096
  924SOL    HW3 3742   3.805   1.380   1.520 -0.1638  0.0034  0.7859
  924SOL    MW4 3743   3.795   1.295   1.504  0.1943 -0.0038  0.5906
  925SOL     OW 3744   3.846   1.533   1.560 -0.1155  0.1319 -0.2525
  925SOL    HW2 3745   3.847   1.529   1.656  0.7882  0.1230 -0.2511
  925SOL    HW3 3746   3.767   1.581   1.538 -0.2275  0.3003  0.5110
  925SOL    MW4 3747   3.836   1.539   1.570 -0.0110  0.1528 -0.1516
  926SOL     OW 3748   3.610   1.693   1.494  0.1884 -0.3306 -0.1913
  926SOL    HW2 3749   3.526   1.661   1.526  0.4065 -2.2245 -1.4311
  926SOL    HW3 3750   3.607   1.680   1.399  1.8177 -0.3106 -0.2714
  926SOL    MW4 3751   3.599   1.687   1.486  0.4320 -0.5779 -0.3654
  927SOL     OW 3752   3.614   1.937   1.616  0.5532 -0.2044  0.4541
  927SOL    HW2 3753   3.631   1.858   1.564 -0.1816 -0.8282  1.1396
  927SOL    HW3 3754   3.525   1.963   1.590  1.2006  1.0501 -0.5878
  927SOL    MW4 3755   3.604   1.930   1.606  0.5419 -0.1212  0.4071
  928SOL     OW 3756   3.848   2.067   1.508  0.0707 -0.3164  0.5165
  928SOL    HW2 3757   3.847   2.155   1.545  1.3580  0.2068 -0.6335
  928SOL    HW3 3758   3.775   2.022   1.550  0.3348  0.8280  2.2465
  928SOL    MW4 3759   3.838   2.073   1.519  0.2751 -0.0966  0.5932
  929SOL     OW 3760   3.782   2.319   1.602 -0.2555  0.6998 -0.1460
  929SOL    HW2 3761   3.816   2.330   1.691  2.2878 -0.5872 -0.9210
  929SOL    HW3 3762   3.843   2.367   1.546  0.1601 -1.3777 -1.5439
  929SOL    MW4 3763   3.795   2.327   1.606  0.1349  0.2556 -0.4327
  930SOL     OW 3764   3.531   2.408   1.509  0.0460 -0.5456  0.0321
  930SOL    HW2 3765   3.518   2.501   1.527  0.9029 -0.4113 -0.0497
  930SOL    HW3 3766   3.614   2.387   1.551  1.0643 -0.7141 -2.0050
  930SOL    MW4 3767   3.540   2.418   1.517  0.2933 -0.5500 -0.2475
  931SOL     OW 3768   3.560   2.666   1.572 -0.5242 -0.1102  0.6531
  931SOL    HW2 3769   3.560   2.652   1.666  0.0590  0.0987  0.6835
  931SOL    HW3 3770   3.522   2.753   1.560  1.0539  0.6050  0.8052
  931SOL    MW4 3771   3.555   2.675   1.583 -0.2391  0.0119  0.6773
  932SOL     OW 3772   3.790   2.802   1.518 -0.2065  0.1183 -0.3327
  932SOL    HW2 3773   3.878   2.768   1.532  0.1102  0.0903 -2.2660
  932SOL    HW3 3774   3.732   2.735   1.554  0.5477 -0.2033  0.2858
  932SOL    MW4 3775   3.794   2.789   1.524 -0.0648  0.0720 -0.5063
  933SOL     OW 3776   3.736   3.083   1.615 -0.1292 -0.4076  0.1670
  933SOL    HW2 3777   3.814   3.133   1.591 -0.1655 -0.2760  0.3190
  933SOL    HW3 3778   3.750   2.996   1.577 -0.2664 -0.1515 -0.4830
  933SOL    MW4 3779   3.748   3.078   1.607 -0.1521 -0.3564  0.1012
  934SOL     OW 3780   3.552   3.262   1.500 -0.2013 -0.3550  0.7001
  934SOL    HW2 3781   3.610   3.206   1.552  0.2230  0.6704  1.3550
  934SOL    HW3 3782   3.554   3.225   1.412  0.9769 -0.6937  0.8688
  934SOL    MW4 3783   3.560   3.250   1.495  0.0105 -0.2644  0.8088
  935SOL     OW 3784   3.590   3.533   1.582 -0.0320  0.2628 -0.2098
  935SOL    HW2 3785   3.659   3.563   1.522 -0.9996  1.2574 -0.8459
  935SOL    HW3 3786   3.574   3.442   1.556  1.5660 -0.2251  0.4545
  935SOL    MW4 3787   3.597   3.525   1.570  0.0513  0.3297 -0.2062
  936SOL     OW 3788   3.825   3.600   1.463  0.1029  0.3147 -0.2607
  936SOL    HW2 3789   3.879   3.548   1.522 -1.0095 -0.1520  0.3591
  936SOL    HW3 3790   3.827   3.689   1.500  1.7894  0.6834 -1.1742
  936SOL    MW4 3791   3.833   3.605   1.476  0.1788  0.3016 -0.2995
  937SOL     OW 3792   3.797   3.839   1.599 -0.0356 -0.0946 -0.2405
  937SOL    HW2 3793   3.872   3.898   1.595 -0.0014  0.0007  1.5022
  937SOL    HW3 3794   3.728   3.886   1.552 -0.3626  1.9123  2.1416
  937SOL    MW4 3795   3.798   3.853   1.592 -0.0741  0.1829  0.3036
  938SOL     OW 3796   3.589   4.008   1.507  0.4421 -0.0126 -0.1531
  938SOL    HW2 3797   3.596   4.100   1.533 -1.3572 -0.3063  1.4680
  938SOL    HW3 3798   3.502   3.982   1.536  1.0526 -2.3288 -0.3451
  938SOL    MW4 3799   3.578   4.017   1.514  0.2851 -0.3567  0.0354
  939SOL     OW 3800   3.581   4.264   1.614 -0.4433 -0.3916  0.3414
  939SOL    HW2 3801   3.576   4.249   1.708 -1.1858 -0.5869  0.2806
  939SOL    HW3 3802   3.511   4.327   1.597  0.5532  0.6532  0.1161
  939SOL    MW4 3803   3.571   4.270   1.624 -0.4096 -0.2794  0.3036
  940SOL     OW 3804   3.821   4.380   1.518  0.2363 -0.1373 -0.6259
  940SOL    HW2 3805   3.744   4.334   1.552  0.1726 -0.0460 -0.6465
  940SOL    HW3 3806   3.823   4.463   1.567 -0.5817  0.5494 -1.7448
  940SOL    MW4 3807   3.811   4.385   1.529  0.1199 -0.0353 -0.7762
  941SOL     OW 3808   4.299   4.635   1.626  0.2101 -0.2306  0.0324
  941SOL    HW2 3809   4.305   4.642   1.722  0.6872  0.0670 -0.0223
  941SOL    HW3 3810   4.296   4.541   1.609  3.1204 -0.3780  0.1485
  941SOL    MW4 3811   4.299   4.623   1.637  0.6571 -0.2108  0.0405
  942SOL     OW 3812   4.060   0.089   1.519 -0.2962  0.7243 -0.2534
  942SOL    HW2 3813   4.078   0.180   1.543  0.1174  0.2395  1.3014
  942SOL    HW3 3814   4.139   0.041   1.544 -0.4187 -0.0340 -1.2688
  942SOL    MW4 3815   4.073   0.095   1.525 -0.2575  0.5603 -0.1822
  943SOL     OW 3816   4.041   0.353   1.623  0.1531  0.0600  0.3414
  943SOL    HW2 3817   4.060   0.351   1.717  0.0463 -0.2421  0.3581
  943SOL    HW3 3818   3.966   0.411   1.615  0.6192  0.6748  0.3579
  943SOL    MW4 3819   4.034   0.360   1.634  0.2003  0.1012  0.3458
  944SOL     OW 3820   4.258   0.499   1.479 -0.0188  0.2782  0.3068
  944SOL    HW2 3821   4.195   0.451   1.532  0.4220  0.0933  0.6622
  944SOL    HW3 3822   4.342   0.458   1.497  0.0722 -0.0899 -0.8903
  944SOL    MW4 3823   4.261   0.487   1.488  0.0510  0.2052  0.1957
  945SOL     OW 3824   4.251   0.740   1.624 -0.4112  0.1034  0.1696
  945SOL    HW2 3825   4.264   0.656   1.579  0.4449  0.1068  0.3941
  945SOL    HW3 3826   4.322   0.796   1.591 -1.7884  1.1955 -1.0323
  945SOL    MW4 3827   4.262   0.736   1.614 -0.4797  0.2480  0.0408
  946SOL     OW 3828   4.034   0.875   1.549  0.2285  0.2614 -0.1240
  946SOL    HW2 3829   4.106   0.813   1.562  0.1410  0.3163  0.6426
  946SOL    HW3 3830   3.957   0.829   1.581 -0.2826 -0.2332 -1.9957
  946SOL    MW4 3831   4.033   0.861   1.555  0.1497  0.2035 -0.2698
  947SOL     OW 3832   4.001   1.156   1.619 -0.4666 -0.0843 -0.1494
  947SOL    HW2 3833   4.027   1.162   1.711 -0.0640 -0.1653 -0.2553
  947SOL    HW3 3834   4.023   1.066   1.595 -1.4146 -0.3419 -0.0731
  947SOL    MW4 3835   4.007   1.145   1.628 -0.5383 -0.1289 -0.1533
  948SOL     OW 3836   4.248   1.279   1.513  0.4201  0.2575 -0.2025
  948SOL    HW2 3837   4.174   1.231   1.549  0.6909 -0.6135 -0.8055
  948SOL    HW3 3838   4.323   1.250   1.565  0.5680  0.0929 -0.5063
  948SOL    MW4 3839   4.248   1.269   1.525  0.4754  0.1210 -0.3223
  949SOL     OW 3840   4.271   1.553   1.624  0.0007  0.3518 -0.0467
  949SOL    HW2 3841   4.267   1.467   1.582  1.0959 -0.1790  0.8976
  949SOL    HW3 3842   4.356   1.588   1.598  0.3238  0.3762  1.0450
  949SOL    MW4 3843   4.282   1.547   1.615  0.1874  0.2850  0.2221
  950SOL     OW 3844   4.065   1.681   1.493 -0.0003  0.1839 -0.3896
  950SOL    HW2 3845   4.136   1.628   1.528  1.1850  1.6162 -0.5734
  950SOL    HW3 3846   3.985   1.635   1.519  0.9893 -1.3295 -0.0106
  950SOL    MW4 3847   4.064   1.668   1.501  0.2866  0.1732 -0.3638
  951SOL     OW 3848   4.081   1.933   1.627  0.4519 -0.3285 -0.9435
  951SOL    HW2 3849   4.080   1.840   1.605 -0.4085 -0.2930 -1.0852
  951SOL    HW3 3850   4.009   1.970   1.576  0.5654  0.3475 -0.6139
  951SOL    MW4 3851   4.071   1.926   1.618  0.3543 -0.2345 -0.9186
  952SOL     OW 3852   4.274   2.062   1.490  0.1611 -0.5563  0.3711
  952SOL    HW2 3853   4.213   2.009   1.542  0.4883  0.1727  1.5301
  952SOL    HW3 3854   4.250   2.046   1.399 -0.9177 -1.2764  0.7839
  952SOL    MW4 3855   4.263   2.053   1.485  0.0615 -0.5550  0.5785
  953SOL     OW 3856   4.229   2.319   1.588 -0.1201  0.0278 -0.4044
  953SOL    HW2 3857   4.235   2.331   1.682 -0.3292  0.1856 -0.4120
  953SOL    HW3 3858   4.222   2.224   1.576 -0.0648  0.0066 -0.2631
  953SOL    MW4 3859   4.229   2.308   1.599 -0.1407  0.0460 -0.3870
  954SOL     OW 3860   3.992   2.435   1.468  0.4457  0.4963  0.3995
  954SOL    HW2 3861   3.983   2.514   1.522  1.5442 -0.2273  1.6672
  954SOL    HW3 3862   4.068   2.389   1.505 -0.1806 -1.1590 -0.3186
  954SOL    MW4 3863   4.001   2.439   1.480  0.5078  0.1824  0.4721
  955SOL     OW 3864   4.033   2.679   1.606 -0.6336  0.2245  0.0522
  955SOL    HW2 3865   4.022   2.686   1.701 -2.1159 -1.2954  0.0131
  955SOL    HW3 3866   4.105   2.739   1.586 -0.3328  0.5967  2.1253
  955SOL    MW4 3867   4.041   2.688   1.616 -0.7896  0.0730  0.3203
  956SOL     OW 3868   4.275   2.851   1.533  0.0648 -0.1668 -0.5490
  956SOL    HW2 3869   4.266   2.934   1.581  2.9828 -0.4806  0.6085
  956SOL    HW3 3870   4.284   2.878   1.441  0.1291  0.7359 -0.2866
  956SOL    MW4 3871   4.275   2.866   1.527  0.4578 -0.0889 -0.3616
  957SOL     OW 3872   4.231   3.113   1.616 -0.5506  0.3799 -0.1305
  957SOL    HW2 3873   4.247   3.112   1.711  0.8643 -0.5939 -0.3619
  957SOL    HW3 3874   4.307   3.158   1.579 -1.5726  1.6303 -0.7323
  957SOL    MW4 3875   4.243   3.118   1.624 -0.4988  0.4163 -0.2404
  958SOL     OW 3876   3.968   3.212   1.526  0.3856 -0.2538 -0.6678
  958SOL    HW2 3877   3.993   3.294   1.570  0.6377  0.2020 -1.6290
  958SOL    HW3 3878   4.045   3.156   1.536  0.4345 -0.1552 -0.4915
  958SOL    MW4 3879   3.982   3.216   1.533  0.4253 -0.1805 -0.7715
  959SOL     OW 3880   4.008   3.467   1.609  0.1895  0.3585  0.1520
  959SOL    HW2 3881   4.004   3.486   1.702  1.1972  1.2885  0.0166
  959SOL    HW3 3882   4.095   3.496   1.582  0.2387 -0.7123 -0.9044
  959SOL    MW4 3883   4.019   3.473   1.618  0.3295  0.3400 -0.0054
  960SOL     OW 3884   4.246   3.567   1.529  0.1613 -0.0257  0.2556
  960SOL    HW2 3885   4.221   3.651   1.568  1.4278  0.2781  0.4324
  960SOL    HW3 3886   4.252   3.586   1.435  3.5074  0.9017  0.5959
  960SOL    MW4 3887   4.243   3.581   1.522  0.7696  0.1369  0.3240
  961SOL     OW 3888   4.213   3.827   1.652  0.1324  0.4878  0.2536
  961SOL    HW2 3889   4.147   3.872   1.600  0.0195  0.2189  0.1633
  961SOL    HW3 3890   4.295   3.872   1.630 -0.0004  0.7372  0.2699
  961SOL    MW4 3891   4.215   3.839   1.642  0.0997  0.4852  0.2439
  962SOL     OW 3892   4.009   3.987   1.515  0.0867  0.1967  0.2310
  962SOL    HW2 3893   4.028   4.074   1.551 -0.1184  0.0525  0.6967
  962SOL    HW3 3894   4.022   3.997   1.420  1.5335  0.3354  0.4327
  962SOL    MW4 3895   4.013   4.000   1.507  0.2503  0.1960  0.3190
  963SOL     OW 3896   4.047   4.228   1.620 -0.1543 -0.0139 -0.0877
  963SOL    HW2 3897   4.054   4.252   1.712 -2.1811 -1.6062  0.5320
  963SOL    HW3 3898   3.966   4.271   1.590 -0.1239 -0.4479 -0.8049
  963SOL    MW4 3899   4.037   4.237   1.628 -0.4177 -0.2813 -0.1005
  964SOL     OW 3900   4.285   4.358   1.535  0.0305  0.0068  0.2879
  964SOL    HW2 3901   4.196   4.326   1.554 -0.5444  1.1839 -0.3656
  964SOL    HW3 3902   4.288   4.366   1.440  0.9424 -0.3139  0.2860
  964SOL    MW4 3903   4.273   4.355   1.525  0.0753  0.1197  0.2013
  965SOL     OW 3904   0.211   4.664   1.960  0.2071  0.3417 -0.0587
  965SOL    HW2 3905   0.296   4.695   1.989  1.1188 -1.0195 -1.2041
  965SOL    HW3 3906   0.219   4.654   1.865 -0.0206 -3.1941  0.2031
  965SOL    MW4 3907   0.223   4.667   1.952  0.2974 -0.3042 -0.1752
  966SOL     OW 3908   4.486   0.141   2.036  0.2076  0.2318  0.3072
  966SOL    HW2 3909   4.488   0.232   2.004  0.5505 -0.0247 -0.4050
  966SOL    HW3 3910   4.565   0.101   2.001 -0.9615 -0.9127 -1.0939
  966SOL    MW4 3911   4.497   0.148   2.027  0.0987  0.0470  0.0286
  967SOL     OW 3912   4.440   0.409   1.910  0.2321 -0.0253  0.0261
  967SOL    HW2 3913   4.358   0.441   1.950  0.3599 -0.1054  0.3491
  967SOL    HW3 3914   4.509   0.444   1.966  0.4949  1.3304 -1.1231
  967SOL    MW4 3915   4.438   0.418   1.923  0.2842  0.1430 -0.0830
  968SOL     OW 3916   0.188   0.494   2.027  0.1304  0.2335  0.0211
  968SOL    HW2 3917   0.258   0.439   1.992  1.2813  0.0791  2.4419
  968SOL    HW3 3918   0.199   0.578   1.984  0.9952 -0.1761 -0.5694
  968SOL    MW4 3919   0.199   0.498   2.017  0.3963  0.1591  0.2627
  969SOL     OW 3920   0.227   0.744   1.903 -0.3528 -0.2469 -0.5453
  969SOL    HW2 3921   0.308   0.784   1.934 -0.3263 -0.2648 -0.5910
  969SOL    HW3 3922   0.223   0.767   1.810  0.6380 -1.9423 -1.0356
  969SOL    MW4 3923   0.237   0.752   1.895 -0.2186 -0.4729 -0.6160
  970SOL     OW 3924   0.005   0.832   2.037  0.2164  0.0303 -0.2465
  970SOL    HW2 3925  -0.073   0.793   1.999 -0.0281  1.1453 -0.8942
  970SOL    HW3 3926   0.078   0.791   1.990 -0.0292  0.1680 -0.7459
  970SOL    MW4 3927   0.005   0.822   2.026  0.1521  0.1956 -0.3979
  971SOL     OW 3928   0.043   1.106   1.935  0.7058 -0.3889  0.2328
  971SOL    HW2 3929  -0.037   1.153   1.957 -0.0688 -0.7863 -1.6251
  971SOL    HW3 3930   0.031   1.018   1.971 -0.8231 -1.2351 -2.2148
  971SOL    MW4 3931   0.031   1.101   1.942  0.4019 -0.5530 -0.3353
  972SOL     OW 3932   0.275   1.274   1.996 -0.2422  0.1264 -0.1092
  972SOL    HW2 3933   0.246   1.365   1.989  0.7970  0.4085 -0.7667
  972SOL    HW3 3934   0.197   1.223   1.972 -0.4414  0.8599 -1.0769
  972SOL    MW4 3935   0.261   1.279   1.992 -0.1313  0.2605 -0.3237
  973SOL     OW 3936   0.195   1.540   1.956  0.4283 -0.0480 -0.0154
  973SOL    HW2 3937   0.273   1.593   1.974  0.8262  0.2146 -2.2868
  973SOL    HW3 3938   0.123   1.591   1.993  1.1302  0.6956  0.3558
  973SOL    MW4 3939   0.196   1.554   1.963  0.5734  0.0848 -0.2661
  974SOL     OW 3940   4.441   1.709   2.012 -0.2916 -0.1122  0.1695
  974SOL    HW2 3941   4.450   1.710   2.108 -1.3540 -0.5902  0.2729
  974SOL    HW3 3942   4.364   1.655   1.995 -1.0337  1.2438 -0.8862
  974SOL    MW4 3943   4.432   1.702   2.023 -0.5302  0.0037  0.0439
  975SOL     OW 3944   4.454   1.947   1.891  0.2052  0.2827  0.0140
  975SOL    HW2 3945   4.386   2.001   1.931  0.5713  0.5480  0.2960
  975SOL    HW3 3946   4.444   1.862   1.932 -0.9015 -0.0997 -1.0378
  975SOL    MW4 3947   4.444   1.943   1.902  0.1068  0.2673 -0.0875
  976SOL     OW 3948   0.173   2.063   2.015  0.3711 -0.1430  0.3540
  976SOL    HW2 3949   0.187   2.146   1.970  1.8732 -0.3511  0.4117
  976SOL    HW3 3950   0.096   2.025   1.972  0.5324  0.6187 -0.6163
  976SOL    MW4 3951   0.165   2.069   2.004  0.5906 -0.0703  0.2337
  977SOL     OW 3952   0.216   2.319   1.843  0.0643  0.1241 -0.4333
  977SOL    HW2 3953   0.302   2.333   1.883  0.4656  0.0599 -1.2783
  977SOL    HW3 3954   0.156   2.368   1.900  0.6566  0.1973  0.1415
  977SOL    MW4 3955   0.220   2.327   1.856  0.1954  0.1252 -0.4689
  978SOL     OW 3956   0.004   2.426   2.000 -0.1310  0.0135 -0.3224
  978SOL    HW2 3957  -0.014   2.414   2.094 -0.7331 -1.0288 -0.5620
  978SOL    HW3 3958   0.000   2.521   1.987 -1.9143  0.0572  0.3548
  978SOL    MW4 3959   0.001   2.437   2.011 -0.4449 -0.1185 -0.2649
  979SOL     OW 3960   0.007   2.699   1.905  0.0762  0.0843 -0.0622
  979SOL    HW2 3961  -0.072   2.741   1.939 -0.1767 -0.0005 -0.5328
  979SOL    HW3 3962  -0.005   2.699   1.810  0.5762 -0.0634 -0.1298
  979SOL    MW4 3963  -0.005   2.704   1.897  0.1087  0.0536 -0.1332
  980SOL     OW 3964   0.255   2.810   1.981  0.0371  0.2928  0.0208
  980SOL    HW2 3965   0.264   2.901   1.952  1.2746  0.6154  1.3081
  980SOL    HW3 3966   0.170   2.781   1.947  0.1609  1.5495 -1.3925
  980SOL    MW4 3967   0.245   2.818   1.973  0.2167  0.5014  0.0043
  981SOL     OW 3968   0.222   3.081   1.880 -0.0732  0.1869  0.1622
  981SOL    HW2 3969   0.290   3.138   1.916  0.2625 -0.4349  0.5109
  981SOL    HW3 3970   0.225   3.097   1.786  0.0388  0.7250  0.2544
  981SOL    MW4 3971   0.231   3.091   1.872 -0.0142  0.1757  0.2204
  982SOL     OW 3972   4.491   3.218   1.996 -0.3136  0.6071  0.5411
  982SOL    HW2 3973   4.414   3.166   1.969  0.4039 -1.2830  2.0167
  982SOL    HW3 3974   4.566   3.169   1.961  0.2955  1.7839  0.1778
  982SOL    MW4 3975   4.490   3.205   1.988 -0.1385  0.5131  0.6878
  983SOL     OW 3976   4.476   3.488   1.953 -0.3067 -0.1291 -0.0655
  983SOL    HW2 3977   4.556   3.524   1.991  0.4229 -1.6163 -0.1341
  983SOL    HW3 3978   4.479   3.395   1.975 -0.4449 -0.8036 -2.7935
  983SOL    MW4 3979   4.487   3.480   1.961 -0.2287 -0.4144 -0.4345
  984SOL     OW 3980   0.222   3.615   2.007 -0.5935  0.2294 -0.7203
  984SOL    HW2 3981   0.213   3.619   2.102 -1.1281 -0.5108 -0.7307
  984SOL    HW3 3982   0.307   3.574   1.992 -1.4238 -1.6168 -0.5351
  984SOL    MW4 3983   0.232   3.610   2.017 -0.7736 -0.1121 -0.6969
  985SOL     OW 3984   0.223   3.859   1.888  0.4355 -0.3855  0.1134
  985SOL    HW2 3985   0.296   3.900   1.934  0.4569 -0.6333  0.2985
  985SOL    HW3 3986   0.217   3.771   1.926  0.3077 -0.5089 -0.1927
  985SOL    MW4 3987   0.232   3.853   1.899  0.4215 -0.4346  0.0973
  986SOL     OW 3988   0.003   3.976   2.001  0.0679  0.1086 -0.4840
  986SOL    HW2 3989   0.013   4.059   1.955  0.9818 -0.3562 -1.1412
  986SOL    HW3 3990   0.083   3.928   1.981  0.8445  0.1997  2.2075
  986SOL    MW4 3991   0.015   3.980   1.992  0.2909  0.0591 -0.2155
  987SOL     OW 3992   0.023   4.252   1.920  0.5053  0.0492  0.0753
  987SOL    HW2 3993  -0.054   4.309   1.929  1.3283  1.1492  0.2255
  987SOL    HW3 3994   0.097   4.308   1.942  1.2868 -1.2581  0.8321
  987SOL    MW4 3995   0.022   4.267   1.924  0.7167  0.0224  0.1951
  988SOL     OW 3996   0.247   4.387   1.997  0.1439  0.8052  0.3282
  988SOL    HW2 3997   0.251   4.356   2.087  2.1538  1.7185  0.5804
  988SOL    HW3 3998   0.232   4.481   2.005  0.0144  0.8367 -0.2874
  988SOL    MW4 3999   0.246   4.395   2.010  0.3920  0.9303  0.2801
  989SOL     OW 4000   0.667   4.666   1.909 -0.0621 -0.0180  0.6325
  989SOL    HW2 4001   0.681   4.572   1.923 -1.3234 -0.2984  0.0873
  989SOL    HW3 4002   0.674   4.676   1.814  1.8742  0.7508  0.8475
  989SOL    MW4 4003   0.670   4.655   1.898  0.0270  0.0467  0.5889
  990SOL     OW 4004   0.444   0.099   2.024 -0.5365 -0.1546  0.0874
  990SOL    HW2 4005   0.439   0.188   1.989 -0.3861  0.2563  1.1071
  990SOL    HW3 4006   0.523   0.062   1.985 -1.1086 -0.1777 -1.0894
  990SOL    MW4 4007   0.454   0.106   2.014 -0.5921 -0.1034  0.0668
  991SOL     OW 4008   0.411   0.364   1.907 -0.1057  0.0615 -0.2359
  991SOL    HW2 4009   0.489   0.404   1.946  0.5417  0.0795 -1.5378
  991SOL    HW3 4010   0.432   0.355   1.814 -1.7766  0.3369 -0.6480
  991SOL    MW4 4011   0.424   0.368   1.900 -0.2408  0.1002 -0.4619
  992SOL     OW 4012   0.641   0.501   1.979 -0.1926 -0.5086 -0.0337
  992SOL    HW2 4013   0.658   0.494   2.073 -0.5291  0.2787  0.0981
  992SOL    HW3 4014   0.724   0.478   1.937 -0.2461 -1.5645  0.4333
  992SOL    MW4 4015   0.654   0.497   1.986 -0.2440 -0.5440  0.0454
  993SOL     OW 4016   0.688   0.743   1.854 -1.1663 -0.6074  0.0510
  993SOL    HW2 4017   0.766   0.784   1.891 -0.1123 -1.6799 -0.9563
  993SOL    HW3 4018   0.670   0.669   1.912 -1.9188  0.0971  0.7372
  993SOL    MW4 4019   0.696   0.739   1.866 -1.1265 -0.6559  0.0086
  994SOL     OW 4020   0.462   0.854   1.999  0.1708 -0.1721 -0.4535
  994SOL    HW2 4021   0.446   0.937   1.954 -0.6530  0.0241  0.1934
  994SOL    HW3 4022   0.537   0.816   1.953  0.3050  0.7442 -1.0042
  994SOL    MW4 4023   0.470   0.860   1.987  0.0798 -0.0253 -0.4407
  995SOL     OW 4024   0.444   1.112   1.877  0.2769 -0.0065  0.0996
  995SOL    HW2 4025   0.405   1.182   1.929  1.7368  0.2887  0.8172
  995SOL    HW3 4026   0.431   1.140   1.786 -0.3746  0.5053  0.3418
  995SOL    MW4 4027   0.437   1.125   1.872  0.3836  0.1000  0.2263
  996SOL     OW 4028   0.682   1.275   1.947  0.1495  0.0015  0.1575
  996SOL    HW2 4029   0.701   1.262   2.040  0.7837  0.8296  0.1548
  996SOL    HW3 4030   0.621   1.205   1.924  0.7850 -0.8237  0.9555
  996SOL    MW4 4031   0.677   1.264   1.956  0.3170  0.0019  0.2625
  997SOL     OW 4032   0.607   1.521   1.862  0.2956 -0.7349  0.3598
  997SOL    HW2 4033   0.631   1.436   1.897 -0.2766 -1.3033 -0.6124
  997SOL    HW3 4034   0.644   1.522   1.774  0.1918 -0.0328  0.3221
  997SOL    MW4 4035   0.615   1.510   1.855  0.2065 -0.7174  0.2265
  998SOL     OW 4036   0.429   1.697   1.990  0.3158 -0.0132 -0.0631
  998SOL    HW2 4037   0.443   1.693   2.084  0.6988 -1.0070 -0.1511
  998SOL    HW3 4038   0.477   1.621   1.956 -1.5083 -0.8452 -0.8421
  998SOL    MW4 4039   0.437   1.686   1.998  0.1257 -0.2540 -0.1776
  999SOL     OW 4040   0.417   1.961   1.904  0.1060 -0.0161 -0.1005
  999SOL    HW2 4041   0.418   1.874   1.945 -0.8218 -0.0607 -0.1535
  999SOL    HW3 4042   0.330   1.996   1.925  0.4937  0.9227 -0.0333
  999SOL    MW4 4043   0.405   1.954   1.912  0.0347  0.1018 -0.0986
 1000SOL     OW 4044   0.675   2.055   1.971 -0.1064 -0.5028 -0.1153
 1000SOL    HW2 4045   0.687   2.042   2.065  0.7621 -0.4359 -0.2190
 1000SOL    HW3 4046   0.586   2.022   1.954 -1.6398  2.6132  1.3061
 1000SOL    MW4 4047   0.665   2.049   1.981 -0.1942 -0.0830  0.0585
 1001SOL     OW 4048   0.680   2.332   1.902 -0.6814  0.1075  0.2648
 1001SOL    HW2 4049   0.687   2.240   1.929 -0.2460  0.3385  0.9607
 1001SOL    HW3 4050   0.659   2.328   1.809  1.6651 -0.7156 -0.2817
 1001SOL    MW4 4051   0.678   2.319   1.893 -0.3145  0.0293  0.2844
 1002SOL     OW 4052   0.436   2.387   1.994  0.4381  0.4677  0.1930
 1002SOL    HW2 4053   0.442   2.398   2.089  0.1323  0.6410  0.1934
 1002SOL    HW3 4054   0.527   2.377   1.965  0.4743 -0.5797  0.6230
 1002SOL    MW4 4055   0.449   2.387   2.003  0.4025  0.3526  0.2499
 1003SOL     OW 4056   0.477   2.656   1.910  0.3554 -0.6697 -0.1584
 1003SOL    HW2 4057   0.465   2.567   1.942 -0.2369 -0.2864  0.7006
 1003SOL    HW3 4058   0.397   2.702   1.935  0.0185 -0.2639 -1.8810
 1003SOL    MW4 4059   0.465   2.651   1.917  0.2328 -0.5658 -0.2724
 1004SOL     OW 4060   0.665   2.850   2.009 -0.1219 -0.4818 -0.1311
 1004SOL    HW2 4061   0.658   2.842   2.104  0.0276  0.0527 -0.0721
 1004SOL    HW3 4062   0.604   2.785   1.974 -0.7152 -0.1778  0.3351
 1004SOL    MW4 4063   0.656   2.840   2.017 -0.1804 -0.3712 -0.0618
 1005SOL     OW 4064   0.674   3.129   1.910 -0.4393 -0.0678  0.0307
 1005SOL    HW2 4065   0.667   3.049   1.961  0.0421 -0.6381 -0.7855
 1005SOL    HW3 4066   0.666   3.101   1.819  0.4366  0.7142 -0.3013
 1005SOL    MW4 4067   0.672   3.115   1.904 -0.2602 -0.0401 -0.1209
 1006SOL     OW 4068   0.420   3.221   1.991  0.0618  0.4865 -0.0014
 1006SOL    HW2 4069   0.441   3.309   1.960  1.3554 -0.1932 -1.0849
 1006SOL    HW3 4070   0.504   3.175   1.993 -0.8516 -1.3352 -1.3860
 1006SOL    MW4 4071   0.434   3.227   1.987  0.1120  0.1566 -0.3271
 1007SOL     OW 4072   0.458   3.490   1.916 -0.1138  0.1440  0.4849
 1007SOL    HW2 4073   0.538   3.527   1.952 -0.0281 -0.1557  0.6033
 1007SOL    HW3 4074   0.480   3.469   1.826 -0.3260  0.8867  0.2539
 1007SOL    MW4 4075   0.471   3.492   1.909 -0.1305  0.2027  0.4700
 1008SOL     OW 4076   0.688   3.634   2.017  0.0979 -0.0438  0.8485
 1008SOL    HW2 4077   0.765   3.594   1.978 -0.1609 -0.0928  0.3954
 1008SOL    HW3 4078   0.672   3.713   1.965  0.5194  0.5839  1.6423
 1008SOL    MW4 4079   0.696   3.639   2.005  0.1194  0.0324  0.8934
 1009SOL     OW 4080   0.662   3.869   1.892 -0.3831 -0.1051  0.0534
 1009SOL    HW2 4081   0.740   3.917   1.922 -0.0584 -0.2881 -0.4863
 1009SOL    HW3 4082   0.664   3.879   1.797 -0.5605 -0.8193 -0.0208
 1009SOL    MW4 4083   0.673   3.877   1.883 -0.3638 -0.2236 -0.0278
 1010SOL     OW 4084   0.434   3.980   2.017 -0.4766  0.0364  0.1301
 1010SOL    HW2 4085   0.447   4.068   1.981 -0.9020 -0.5351 -1.4457
 1010SOL    HW3 4086   0.511   3.931   1.989 -1.0973 -0.5810 -0.4990
 1010SOL    MW4 4087   0.446   3.985   2.009 -0.6146 -0.1204 -0.1607
 1011SOL     OW 4088   0.473   4.259   1.899  0.2492  0.2214  0.2049
 1011SOL    HW2 4089   0.392   4.297   1.931  0.1650 -0.6798  1.0670
 1011SOL    HW3 4090   0.468   4.269   1.804 -0.8894  0.1283  0.2516
 1011SOL    MW4 4091   0.462   4.266   1.890  0.0879  0.0901  0.3248
 1012SOL     OW 4092   0.711   4.411   1.991 -0.2387  0.2264  0.3733
 1012SOL    HW2 4093   0.791   4.371   1.955  0.0457  0.6193  0.5697
 1012SOL    HW3 4094   0.640   4.356   1.957  0.0564  0.3441 -0.4602
 1012SOL    MW4 4095   0.712   4.398   1.981 -0.1622  0.2937  0.2892
 1013SOL     OW 4096   1.095   0.025   1.874  0.3729  0.3312 -0.4893
 1013SOL    HW2 4097   1.168   0.065   1.920 -0.5534  0.8539  0.5316
 1013SOL    HW3 4098   1.099  -0.068   1.899 -0.1792  0.6290  0.7053
 1013SOL    MW4 4099   1.105   0.018   1.883  0.1780  0.4394 -0.1969
 1014SOL     OW 4100   0.881   0.156   1.991  0.2056  0.3454 -0.7442
 1014SOL    HW2 4101   0.952   0.104   1.954  1.2151 -0.0502  1.6514
 1014SOL    HW3 4102   0.801   0.110   1.966  0.9627 -1.0196 -0.6918
 1014SOL    MW4 4103   0.880   0.143   1.983  0.4386  0.1131 -0.4212
 1015SOL     OW 4104   0.897   0.415   1.880  0.1938 -0.0317  0.1181
 1015SOL    HW2 4105   0.986   0.447   1.896  0.6516 -0.7041 -1.0020
 1015SOL    HW3 4106   0.896   0.327   1.919 -0.6926  0.8534  2.1408
 1015SOL    MW4 4107   0.909   0.407   1.887  0.1372 -0.0036  0.2373
 1016SOL     OW 4108   1.132   0.535   1.981 -0.4587  0.3616  0.0197
 1016SOL    HW2 4109   1.201   0.488   1.934 -1.5820 -0.1250 -1.1641
 1016SOL    HW3 4110   1.128   0.621   1.939 -0.8267  0.2580 -0.1572
 1016SOL    MW4 4111   1.140   0.540   1.969 -0.6554  0.2838 -0.1599
 1017SOL     OW 4112   1.142   0.775   1.856 -0.3527  0.1967 -0.1759
 1017SOL    HW2 4113   1.209   0.841   1.873 -0.7695  0.7884 -0.8111
 1017SOL    HW3 4114   1.064   0.809   1.900 -0.7156  0.4047 -0.9713
 1017SOL    MW4 4115   1.141   0.788   1.864 -0.4556  0.3022 -0.3645
 1018SOL     OW 4116   0.928   0.876   1.971  0.0403 -0.0905 -0.4092
 1018SOL    HW2 4117   0.918   0.870   2.066 -2.9639  0.1802 -0.6424
 1018SOL    HW3 4118   0.928   0.970   1.953 -2.8067 -0.1226 -0.8949
 1018SOL    MW4 4119   0.927   0.887   1.981 -0.7316 -0.0591 -0.5040
 1019SOL     OW 4120   0.933   1.152   1.886  0.0523  0.4262 -0.1613
 1019SOL    HW2 4121   0.852   1.194   1.917 -0.3401 -0.5255  0.1073
 1019SOL    HW3 4122   0.929   1.160   1.791 -0.7892 -0.3957 -0.2027
 1019SOL    MW4 4123   0.922   1.159   1.878 -0.1105  0.1923 -0.1314
 1020SOL     OW 4124   1.117   1.313   1.981  0.4190 -0.3395  0.3651
 1020SOL    HW2 4125   1.104   1.403   1.951  1.0463  0.4658  2.4090
 1020SOL    HW3 4126   1.043   1.265   1.944  0.2298  0.9460 -0.9887
 1020SOL    MW4 4127   1.106   1.319   1.972  0.4768 -0.0638  0.4563
 1021SOL     OW 4128   1.105   1.585   1.892 -0.2619  0.2983  0.2886
 1021SOL    HW2 4129   1.014   1.613   1.905 -0.2147  0.5645  0.0619
 1021SOL    HW3 4130   1.116   1.586   1.797 -0.6186 -1.6347  0.2134
 1021SOL    MW4 4131   1.094   1.589   1.881 -0.3027  0.0784  0.2487
 1022SOL     OW 4132   0.834   1.670   1.935 -0.0807 -0.2325 -0.5138
 1022SOL    HW2 4133   0.822   1.764   1.917 -0.6182  0.1223  1.6103
 1022SOL    HW3 4134   0.750   1.630   1.911 -0.4467  0.0792  0.2567
 1022SOL    MW4 4135   0.822   1.677   1.929 -0.1999 -0.1446 -0.1318
 1023SOL     OW 4136   0.899   1.943   1.857 -0.2288 -0.2888 -0.2115
 1023SOL    HW2 4137   0.824   1.994   1.886 -1.0315 -0.5860 -1.7202
 1023SOL    HW3 4138   0.883   1.926   1.764  1.4902 -0.7229 -0.4583
 1023SOL    MW4 4139   0.887   1.948   1.849 -0.1078 -0.3852 -0.4431
 1024SOL     OW 4140   1.128   2.075   1.960  0.0507  0.1196 -0.5170
 1024SOL    HW2 4141   1.116   2.168   1.939 -0.9173 -0.5202 -2.9296
 1024SOL    HW3 4142   1.049   2.033   1.928 -0.3821 -1.3237  2.2836
 1024SOL    MW4 4143   1.116   2.082   1.953 -0.1342 -0.1552 -0.4660
 1025SOL     OW 4144   1.104   2.343   1.895  0.1647  0.1722 -0.0822
 1025SOL    HW2 4145   1.188   2.385   1.916  0.7522 -0.8195 -0.4150
 1025SOL    HW3 4146   1.114   2.313   1.805 -0.1472 -0.8939  0.2313
 1025SOL    MW4 4147   1.117   2.345   1.886  0.2010 -0.0992 -0.0846
 1026SOL     OW 4148   0.885   2.472   2.024 -0.0506  0.2020  0.3168
 1026SOL    HW2 4149   0.965   2.427   1.995  0.2487  0.7659  0.2608
 1026SOL    HW3 4150   0.815   2.429   1.975  0.2354 -0.1945  0.2507
 1026SOL    MW4 4151   0.886   2.460   2.014  0.0266  0.2239  0.3004
 1027SOL     OW 4152   0.888   2.731   1.920  0.3391 -0.0701 -0.6370
 1027SOL    HW2 4153   0.896   2.645   1.961 -1.3547 -0.1466 -0.4571
 1027SOL    HW3 4154   0.809   2.769   1.958  0.5015  1.1531 -1.4927
 1027SOL    MW4 4155   0.879   2.724   1.931  0.1371  0.0811 -0.7262
 1028SOL     OW 4156   1.148   2.833   2.018  0.0836 -0.3891  0.1390
 1028SOL    HW2 4157   1.124   2.855   2.108 -0.5135  0.4491 -0.2130
 1028SOL    HW3 4158   1.067   2.799   1.979 -0.2770  1.3305 -0.7050
 1028SOL    MW4 4159   1.134   2.832   2.025 -0.0427 -0.0515 -0.0188
 1029SOL     OW 4160   1.136   3.076   1.883 -0.6475 -0.0811  0.2798
 1029SOL    HW2 4161   1.065   3.125   1.924  0.8202  0.2305  2.4897
 1029SOL    HW3 4162   1.132   2.989   1.923  0.9897  0.3176  1.3514
 1029SOL    MW4 4163   1.126   3.071   1.893 -0.2379  0.0124  0.7129
 1030SOL     OW 4164   0.925   3.213   1.981  0.0802 -0.4766  0.1275
 1030SOL    HW2 4165   0.929   3.194   2.075  0.5098 -1.5057 -0.0927
 1030SOL    HW3 4166   0.843   3.172   1.952 -0.0187 -0.2172  0.0411
 1030SOL    MW4 4167   0.914   3.205   1.990  0.1237 -0.5784  0.0869
 1031SOL     OW 4168   0.900   3.488   1.928 -0.4817 -0.0907  0.1448
 1031SOL    HW2 4169   0.908   3.394   1.945  1.2336 -0.0460 -0.3505
 1031SOL    HW3 4170   0.912   3.496   1.834  1.3304  0.8113  0.4328
 1031SOL    MW4 4171   0.903   3.477   1.918 -0.0164  0.0343  0.1174
 1032SOL     OW 4172   1.148   3.579   1.986 -0.3921  0.2752 -0.0072
 1032SOL    HW2 4173   1.162   3.602   2.077 -0.0474  2.7288 -0.6268
 1032SOL    HW3 4174   1.064   3.533   1.985  0.4085 -1.2753  1.7394
 1032SOL    MW4 4175   1.139   3.576   1.998 -0.2410  0.3943  0.1415
 1033SOL     OW 4176   1.117   3.846   1.903  0.5342  0.1650 -0.1759
 1033SOL    HW2 4177   1.142   3.758   1.929 -0.3905 -0.1329 -0.2844
 1033SOL    HW3 4178   1.107   3.840   1.807 -2.4003 -0.3666  0.1106
 1033SOL    MW4 4179   1.119   3.834   1.894  0.0250  0.0556 -0.1526
 1034SOL     OW 4180   0.883   4.006   1.988  0.1751 -0.0736 -0.0261
 1034SOL    HW2 4181   0.880   3.991   2.082 -0.8654 -1.5232 -0.2883
 1034SOL    HW3 4182   0.959   3.955   1.958 -0.0973 -0.4186 -0.1245
 1034SOL    MW4 4183   0.893   3.997   1.996  0.0018 -0.3102 -0.0736
 1035SOL     OW 4184   0.920   4.267   1.888  0.0911 -0.5871  0.2854
 1035SOL    HW2 4185   0.998   4.309   1.924 -0.6333  0.1572  0.9790
 1035SOL    HW3 4186   0.917   4.181   1.931 -0.8770  0.3666  2.1716
 1035SOL    MW4 4187   0.930   4.261   1.898 -0.1321 -0.3629  0.6256
 1036SOL     OW 4188   1.143   4.397   1.983  0.1441 -0.1069  0.4834
 1036SOL    HW2 4189   1.146   4.416   2.077 -1.2843 -0.2452  0.5659
 1036SOL    HW3 4190   1.222   4.347   1.966 -0.0313 -0.8418  1.7823
 1036SOL    MW4 4191   1.153   4.393   1.993 -0.0674 -0.2222  0.6657
 1037SOL     OW 4192   1.566   0.004   1.844  0.2910 -0.1365  0.5146
 1037SOL    HW2 4193   1.639   0.057   1.875  1.4485 -0.3032 -1.8292
 1037SOL    HW3 4194   1.575  -0.079   1.891  0.4230  0.5415  1.7122
 1037SOL    MW4 4195   1.577  -0.000   1.855  0.4611 -0.0687  0.3633
 1038SOL     OW 4196   1.338   0.152   1.986 -0.1398  0.0856  0.8174
 1038SOL    HW2 4197   1.339   0.130   2.079 -1.1921 -1.3864  0.5039
 1038SOL    HW3 4198   1.411   0.101   1.950  0.1281  0.4814  0.8030
 1038SOL    MW4 4199   1.348   0.142   1.993 -0.2432 -0.0564  0.7741
 1039SOL     OW 4200   1.321   0.389   1.840  0.1775  0.0408 -0.1755
 1039SOL    HW2 4201   1.322   0.303   1.881 -2.0272  0.1116  0.1012
 1039SOL    HW3 4202   1.319   0.372   1.746 -1.1805 -0.2458 -0.1038
 1039SOL    MW4 4203   1.321   0.376   1.833 -0.2927  0.0123 -0.1295
 1040SOL     OW 4204   1.533   0.503   1.955 -0.1054 -0.5804 -0.2556
 1040SOL    HW2 4205   1.607   0.449   1.925 -0.3452 -1.1147  0.1104
 1040SOL    HW3 4206   1.456   0.462   1.915 -0.2021  0.0024 -0.6710
 1040SOL    MW4 4207   1.533   0.490   1.946 -0.1498 -0.5740 -0.2621
 1041SOL     OW 4208   1.560   0.761   1.835  0.3072 -0.2729  0.5882
 1041SOL    HW2 4209   1.633   0.805   1.879 -0.2930  0.3234  0.9965
 1041SOL    HW3 4210   1.550   0.678   1.882  0.7073 -0.3467  0.5457
 1041SOL    MW4 4211   1.568   0.756   1.847  0.2809 -0.2040  0.6365
 1042SOL     OW 4212   1.359   0.924   1.938  0.1397 -0.3217 -0.0890
 1042SOL    HW2 4213   1.340   0.908   2.030 -1.2919  1.0289 -0.1381
 1042SOL    HW3 4214   1.423   0.857   1.915  2.9874  1.3119  2.7153
 1042SOL    MW4 4215   1.365   0.913   1.947  0.3265  0.0720  0.2747
 1043SOL     OW 4216   1.363   1.195   1.873 -0.6478 -0.6287  0.3843
 1043SOL    HW2 4217   1.364   1.101   1.891 -0.7212 -0.7493 -0.2367
 1043SOL    HW3 4218   1.287   1.228   1.921 -0.9490 -0.9786  0.1486
 1043SOL    MW4 4219   1.353   1.187   1.882 -0.6971 -0.6908  0.2713
 1044SOL     OW 4220   1.616   1.295   1.922 -0.1373  0.0870  0.2552
 1044SOL    HW2 4221   1.624   1.388   1.900  1.0256 -0.5425 -2.0500
 1044SOL    HW3 4222   1.526   1.273   1.900 -0.4215  0.6580  0.8183
 1044SOL    MW4 4223   1.605   1.304   1.917 -0.0215  0.0793  0.0254
 1045SOL     OW 4224   1.552   1.569   1.842  0.4277 -0.1181 -0.2853
 1045SOL    HW2 4225   1.606   1.626   1.897  0.8676  0.5458 -1.3846
 1045SOL    HW3 4226   1.463   1.584   1.872  0.5383  1.2003 -0.6200
 1045SOL    MW4 4227   1.548   1.578   1.853  0.5003  0.1435 -0.4745
 1046SOL     OW 4228   1.345   1.693   1.981 -0.0193 -0.1649  0.3758
 1046SOL    HW2 4229   1.333   1.709   2.074  0.2596 -0.3512  0.4434
 1046SOL    HW3 4230   1.264   1.648   1.954 -0.3263  0.3660  0.4138
 1046SOL    MW4 4231   1.332   1.689   1.990 -0.0230 -0.1194  0.3897
 1047SOL     OW 4232   1.352   1.945   1.861 -0.6171  0.1565  0.1475
 1047SOL    HW2 4233   1.357   1.863   1.911 -1.1843  0.8238  1.3159
 1047SOL    HW3 4234   1.276   1.990   1.897  0.6554  1.9592  0.6607
 1047SOL    MW4 4235   1.343   1.940   1.873 -0.5242  0.4824  0.3694
 1048SOL     OW 4236   1.563   2.086   1.986 -0.2118 -0.2204 -0.2129
 1048SOL    HW2 4237   1.577   2.173   1.951 -1.0946  0.1515  0.3637
 1048SOL    HW3 4238   1.493   2.049   1.933  1.8960 -1.5796 -2.1857
 1048SOL    MW4 4239   1.556   2.092   1.975 -0.0502 -0.3507 -0.3971
 1049SOL     OW 4240   1.606   2.332   1.863 -0.6158 -0.5155  0.1834
 1049SOL    HW2 4241   1.692   2.370   1.878  0.1406 -2.3798  0.6792
 1049SOL    HW3 4242   1.596   2.331   1.768  0.3356 -1.1802  0.0814
 1049SOL    MW4 4243   1.616   2.337   1.853 -0.3904 -0.8492  0.2353
 1050SOL     OW 4244   1.355   2.437   1.951 -0.0192 -0.0706 -0.1795
 1050SOL    HW2 4245   1.364   2.530   1.936  0.3720  0.2278  1.7320
 1050SOL    HW3 4246   1.438   2.399   1.923  1.1790  0.6208  2.2662
 1050SOL    MW4 4247   1.367   2.444   1.946  0.1905  0.0601  0.3954
 1051SOL     OW 4248   1.375   2.703   1.918  0.0826 -0.2029 -0.2070
 1051SOL    HW2 4249   1.299   2.751   1.949 -1.5065 -2.2780 -0.7869
 1051SOL    HW3 4250   1.375   2.714   1.823  1.0023  0.4834 -0.1362
 1051SOL    MW4 4251   1.365   2.710   1.910 -0.0057 -0.3862 -0.2741
 1052SOL     OW 4252   1.611   2.840   2.017 -0.1181  0.3765 -0.1518
 1052SOL    HW2 4253   1.682   2.791   1.973 -0.5029  1.0391 -1.5429
 1052SOL    HW3 4254   1.532   2.789   1.998 -0.0837 -0.1799  1.1210
 1052SOL    MW4 4255   1.610   2.827   2.008 -0.1644  0.3905 -0.1674
 1053SOL     OW 4256   1.597   3.100   1.963  0.3909  0.7324 -0.5475
 1053SOL    HW2 4257   1.610   3.012   1.998 -0.2601  0.8085 -0.1098
 1053SOL    HW3 4258   1.591   3.087   1.868 -1.2616  0.1224 -0.3642
 1053SOL    MW4 4259   1.598   3.086   1.955  0.0869  0.6621 -0.4656
 1054SOL     OW 4260   1.326   3.204   2.012 -0.1711 -0.9201 -0.3670
 1054SOL    HW2 4261   1.410   3.161   1.994 -0.4181 -2.1559  1.3281
 1054SOL    HW3 4262   1.261   3.144   1.974 -0.3080  0.0551 -1.7149
 1054SOL    MW4 4263   1.329   3.190   2.004 -0.2217 -0.9544 -0.3211
 1055SOL     OW 4264   1.359   3.441   1.874  0.1100 -0.4838  0.3715
 1055SOL    HW2 4265   1.351   3.362   1.927 -0.7639  0.0487  1.0630
 1055SOL    HW3 4266   1.286   3.496   1.903  1.4754  1.1202  0.8489
 1055SOL    MW4 4267   1.348   3.438   1.885  0.1749 -0.2019  0.5257
 1056SOL     OW 4268   1.583   3.588   1.966 -0.0777  0.1061 -0.0186
 1056SOL    HW2 4269   1.582   3.571   2.060 -1.5670  0.6487  0.0654
 1056SOL    HW3 4270   1.512   3.534   1.931  0.8418 -0.5415 -0.9131
 1056SOL    MW4 4271   1.574   3.578   1.973 -0.1528  0.0918 -0.1255
 1057SOL     OW 4272   1.546   3.872   1.903  0.0142 -0.0729  0.0814
 1057SOL    HW2 4273   1.626   3.920   1.923  0.2033 -0.6942  0.8341
 1057SOL    HW3 4274   1.568   3.780   1.919 -0.1899 -0.4852 -1.8326
 1057SOL    MW4 4275   1.559   3.866   1.908  0.0122 -0.2091 -0.0718
 1058SOL     OW 4276   1.331   4.019   1.978  0.1459 -0.0607 -0.2920
 1058SOL    HW2 4277   1.410   3.968   1.962 -0.3055 -0.2081 -2.2230
 1058SOL    HW3 4278   1.259   3.960   1.956 -0.4430  0.6167 -0.2152
 1058SOL    MW4 4279   1.332   4.005   1.973  0.0087  0.0095 -0.5367
 1059SOL     OW 4280   1.367   4.265   1.874 -0.2993 -0.5376  0.1293
 1059SOL    HW2 4281   1.355   4.173   1.896 -1.2995 -0.6663 -0.8733
 1059SOL    HW3 4282   1.350   4.270   1.780 -1.5761  0.8696  0.4086
 1059SOL    MW4 4283   1.363   4.254   1.864 -0.5996 -0.3695  0.0340
 1060SOL     OW 4284   1.571   4.416   1.970 -0.1972  0.4646  0.2361
 1060SOL    HW2 4285   1.554   4.428   2.064  0.0387  1.2113  0.1888
 1060SOL    HW3 4286   1.494   4.369   1.938  1.2266 -2.8366  1.4242
 1060SOL    MW4 4287   1.558   4.412   1.978  0.0217  0.1278  0.3865
 1061SOL     OW 4288   2.020   4.636   1.864  0.2550  0.2642 -0.2623
 1061SOL    HW2 4289   2.094   4.678   1.908 -0.7449  0.7919  0.9411
 1061SOL    HW3 4290   2.001   4.558   1.916  0.6023 -0.4145 -1.1447
 1061SOL    MW4 4291   2.027   4.631   1.877  0.1688  0.2441 -0.2198
 1062SOL     OW 4292   1.798   0.120   1.922  0.0842 -0.1414 -0.1618
 1062SOL    HW2 4293   1.813   0.123   2.016  0.3822  0.4089 -0.2228
 1062SOL    HW3 4294   1.863   0.058   1.889 -0.4991 -0.8912  0.0810
 1062SOL    MW4 4295   1.808   0.112   1.930  0.0466 -0.1677 -0.1378
 1063SOL     OW 4296   1.773   0.387   1.863 -0.4422  0.3750  0.0127
 1063SOL    HW2 4297   1.782   0.297   1.894  0.6109  0.5371  0.1781
 1063SOL    HW3 4298   1.796   0.383   1.770 -1.3683  0.3050 -0.2246
 1063SOL    MW4 4299   1.777   0.374   1.855 -0.4255  0.3871  0.0032
 1064SOL     OW 4300   2.006   0.494   1.961 -0.3506 -0.0501 -0.4900
 1064SOL    HW2 4301   1.993   0.584   1.931  1.1872 -0.1376 -1.4421
 1064SOL    HW3 4302   1.938   0.444   1.916 -0.0915  0.3481 -1.3223
 1064SOL    MW4 4303   1.995   0.499   1.951 -0.1134 -0.0091 -0.7254
 1065SOL     OW 4304   2.010   0.757   1.865  0.1270 -0.3252 -0.4286
 1065SOL    HW2 4305   2.079   0.812   1.902  0.3231 -0.2944 -0.8383
 1065SOL    HW3 4306   2.007   0.780   1.772  1.6574 -2.5018 -1.0557
 1065SOL    MW4 4307   2.019   0.767   1.857  0.3548 -0.6084 -0.5655
 1066SOL     OW 4308   1.777   0.874   1.972  0.7859 -0.2158  0.3887
 1066SOL    HW2 4309   1.783   0.957   1.925 -1.7186 -1.8593 -3.0838
 1066SOL    HW3 4310   1.844   0.819   1.932 -0.9276 -1.4230 -0.9066
 1066SOL    MW4 4311   1.786   0.878   1.960  0.2295 -0.5919 -0.2404
 1067SOL     OW 4312   1.819   1.128   1.861 -0.3966 -0.0208 -0.1524
 1067SOL    HW2 4313   1.741   1.180   1.881 -0.6253 -0.4115 -0.0250
 1067SOL    HW3 4314   1.817   1.117   1.766 -1.0898 -0.9615 -0.0305
 1067SOL    MW4 4315   1.809   1.133   1.851 -0.5182 -0.1965 -0.1196
 1068SOL     OW 4316   2.030   1.280   1.942  0.1141 -0.2763 -0.2314
 1068SOL    HW2 4317   2.104   1.227   1.913 -0.9328 -1.3761 -0.9406
 1068SOL    HW3 4318   1.953   1.230   1.914 -0.8952  0.4086  1.2929
 1068SOL    MW4 4319   2.030   1.266   1.934 -0.1571 -0.3310 -0.1237
 1069SOL     OW 4320   2.002   1.554   1.889  0.2536  0.2274 -1.0551
 1069SOL    HW2 4321   2.011   1.462   1.913  0.5227  0.5944  0.2956
 1069SOL    HW3 4322   2.014   1.555   1.794  0.5708 -1.0894 -1.0423
 1069SOL    MW4 4323   2.005   1.542   1.880  0.3312  0.1019 -0.8752
 1070SOL     OW 4324   1.766   1.673   1.984 -0.2545  0.0635  0.1319
 1070SOL    HW2 4325   1.795   1.756   1.947 -1.9782  1.0353  0.9589
 1070SOL    HW3 4326   1.827   1.609   1.947  1.4921  1.7575 -0.0080
 1070SOL    MW4 4327   1.778   1.675   1.974 -0.2515  0.4152  0.2226
 1071SOL     OW 4328   1.792   1.944   1.921  0.6134 -0.3651 -0.1785
 1071SOL    HW2 4329   1.706   1.981   1.942  0.4623 -0.6095 -0.3623
 1071SOL    HW3 4330   1.790   1.933   1.826  2.2420  3.1330 -0.7058
 1071SOL    MW4 4331   1.780   1.948   1.911  0.8084  0.0641 -0.2723
 1072SOL     OW 4332   2.044   2.068   1.983 -0.3114  0.3210 -0.3477
 1072SOL    HW2 4333   2.119   2.010   1.968 -0.5237 -0.0490  0.0227
 1072SOL    HW3 4334   1.970   2.020   1.948 -0.3537  0.7595 -0.8645
 1072SOL    MW4 4335   2.044   2.054   1.976 -0.3452  0.3300 -0.3670
 1073SOL     OW 4336   2.078   2.332   1.853  0.4631  0.5065  0.5581
 1073SOL    HW2 4337   2.154   2.371   1.895  2.2960 -1.7875 -0.4774
 1073SOL    HW3 4338   2.079   2.241   1.883  0.1091 -0.4155 -2.1039
 1073SOL    MW4 4339   2.088   2.325   1.862  0.6580  0.0820  0.0703
 1074SOL     OW 4340   1.849   2.450   1.950 -0.2387  0.1796  0.3973
 1074SOL    HW2 4341   1.844   2.436   2.044 -0.7763  0.6734  0.4478
 1074SOL    HW3 4342   1.930   2.406   1.923  0.5575  1.0933  1.2737
 1074SOL    MW4 4343   1.859   2.442   1.959 -0.2047  0.3653  0.5196
 1075SOL     OW 4344   1.810   2.715   1.892 -0.2096 -0.5060  0.0120
 1075SOL    HW2 4345   1.825   2.621   1.904 -2.3838 -0.8775  0.0492
 1075SOL    HW3 4346   1.775   2.722   1.803  0.8276  0.3804 -0.3270
 1075SOL    MW4 4347   1.807   2.704   1.882 -0.3595 -0.4382 -0.0278
 1076SOL     OW 4348   2.044   2.831   1.973  0.1959  0.4287  0.3377
 1076SOL    HW2 4349   2.040   2.820   2.068  0.5208 -0.4093  0.2601
 1076SOL    HW3 4350   1.963   2.791   1.941  1.1775 -1.4453  0.0871
 1076SOL    MW4 4351   2.033   2.824   1.981  0.3684  0.0710  0.2943
 1077SOL     OW 4352   2.045   3.101   1.917  0.4945  0.0008  0.7003
 1077SOL    HW2 4353   1.957   3.130   1.942 -0.0117 -0.0515 -1.0028
 1077SOL    HW3 4354   2.046   3.007   1.934  0.3412  0.0559  1.0219
 1077SOL    MW4 4355   2.034   3.093   1.923  0.4075  0.0014  0.5180
 1078SOL     OW 4356   1.834   3.215   2.016 -0.6821  0.1437 -0.0152
 1078SOL    HW2 4357   1.853   3.221   2.110 -2.1599  1.5953  0.2052
 1078SOL    HW3 4358   1.746   3.180   2.011 -0.9142  0.8241 -0.8343
 1078SOL    MW4 4359   1.825   3.211   2.028 -0.9078  0.4249 -0.0942
 1079SOL     OW 4360   1.839   3.480   1.908  0.0940 -0.1859 -0.3652
 1079SOL    HW2 4361   1.832   3.391   1.943  1.8408  0.5039  1.8449
 1079SOL    HW3 4362   1.755   3.520   1.929 -0.1244 -0.8365  0.0301
 1079SOL    MW4 4363   1.827   3.473   1.915  0.2956 -0.1805 -0.0213
 1080SOL     OW 4364   2.057   3.622   2.009  0.1542  0.0832  0.0963
 1080SOL    HW2 4365   2.051   3.716   1.992  0.4229  0.1759  0.5026
 1080SOL    HW3 4366   1.984   3.584   1.960 -0.6689  0.6267  0.8844
 1080SOL    MW4 4367   2.047   3.630   2.000  0.0813  0.1671  0.2540
 1081SOL     OW 4368   2.020   3.882   1.918 -0.2877 -0.1756 -0.1273
 1081SOL    HW2 4369   2.100   3.934   1.929 -0.4180 -0.1898  0.9335
 1081SOL    HW3 4370   2.017   3.861   1.825  1.0381 -0.3236 -0.1354
 1081SOL    MW4 4371   2.030   3.886   1.907 -0.1302 -0.1972  0.0114
 1082SOL     OW 4372   1.798   4.006   1.989  0.1950 -0.1539 -0.2235
 1082SOL    HW2 4373   1.797   4.084   1.934 -0.1896 -1.2416 -1.8016
 1082SOL    HW3 4374   1.881   3.964   1.969  0.3406 -0.2235  0.5208
 1082SOL    MW4 4375   1.809   4.011   1.979  0.1636 -0.3066 -0.3335
 1083SOL     OW 4376   1.754   4.249   1.862  0.0936 -0.3569  0.1838
 1083SOL    HW2 4377   1.693   4.309   1.904  0.9351  1.2854 -0.8608
 1083SOL    HW3 4378   1.757   4.278   1.770  0.1173 -2.3344 -0.4687
 1083SOL    MW4 4379   1.747   4.261   1.855  0.2078 -0.4015 -0.0403
 1084SOL     OW 4380   1.981   4.389   1.979 -0.0499 -0.1376  0.6786
 1084SOL    HW2 4381   2.063   4.348   1.951 -0.2920  0.8683 -1.6423
 1084SOL    HW3 4382   1.913   4.341   1.931 -0.6933 -0.0063  1.4590
 1084SOL    MW4 4383   1.983   4.377   1.969 -0.1668  0.0124  0.4754
 1085SOL     OW 4384   2.462   4.659   1.836 -0.2481  0.0085  0.3341
 1085SOL    HW2 4385   2.544   4.704   1.860  0.9157 -1.4846 -0.7282
 1085SOL    HW3 4386   2.461   4.581   1.891 -1.4883  0.5275  1.0606
 1085SOL    MW4 4387   2.473   4.655   1.846 -0.2580 -0.1202  0.2899
 1086SOL     OW 4388   2.224   0.115   1.949  0.2424  0.0442 -0.2079
 1086SOL    HW2 4389   2.245   0.121   2.043  0.8862  0.3590 -0.3718
 1086SOL    HW3 4390   2.304   0.083   1.909  0.6498  1.9173 -0.9346
 1086SOL    MW4 4391   2.237   0.112   1.956  0.3812  0.3329 -0.3253
 1087SOL     OW 4392   2.216   0.361   1.848 -0.2240 -0.0708 -0.2787
 1087SOL    HW2 4393   2.225   0.274   1.886 -0.7474 -0.4674 -1.0469
 1087SOL    HW3 4394   2.132   0.394   1.882  0.1016  0.2488  0.2262
 1087SOL    MW4 4395   2.206   0.354   1.858 -0.2501 -0.0809 -0.3135
 1088SOL     OW 4396   2.431   0.502   1.951 -0.2299  0.4616 -0.4713
 1088SOL    HW2 4397   2.503   0.442   1.932 -0.1294  0.8576 -1.3964
 1088SOL    HW3 4398   2.353   0.455   1.922 -0.1436  0.7999 -1.2657
 1088SOL    MW4 4399   2.431   0.488   1.945 -0.2058  0.5585 -0.6982
 1089SOL     OW 4400   2.462   0.759   1.826  0.6458  0.1146  0.0795
 1089SOL    HW2 4401   2.442   0.668   1.851  1.6318 -0.1607 -0.1232
 1089SOL    HW3 4402   2.439   0.763   1.734  0.3612  0.1424  0.1505
 1089SOL    MW4 4403   2.456   0.747   1.817  0.7381  0.0820  0.0621
 1090SOL     OW 4404   2.237   0.907   1.971  0.1785  0.8834  0.0591
 1090SOL    HW2 4405   2.244   0.906   2.066  3.1719  1.0190 -0.0907
 1090SOL    HW3 4406   2.312   0.855   1.941 -0.3032  1.4361 -2.2122
 1090SOL    MW4 4407   2.248   0.900   1.980  0.5100  0.9742 -0.2604
 1091SOL     OW 4408   2.277   1.167   1.871 -0.1084  0.2517 -0.3595
 1091SOL    HW2 4409   2.361   1.206   1.896  0.4958 -0.1406 -1.7419
 1091SOL    HW3 4410   2.279   1.080   1.910  1.1820 -0.6667 -2.3602
 1091SOL    MW4 4411   2.289   1.161   1.879  0.1416  0.0788 -0.8059
 1092SOL     OW 4412   2.529   1.306   1.974 -0.1930  0.4113 -0.1101
 1092SOL    HW2 4413   2.521   1.309   2.069 -0.6881 -0.4320 -0.1174
 1092SOL    HW3 4414   2.500   1.393   1.945 -1.1010  0.2937  0.4373
 1092SOL    MW4 4415   2.524   1.318   1.982 -0.3781  0.2847 -0.0389
 1093SOL     OW 4416   2.494   1.564   1.891  0.2946  0.7344 -0.3390
 1093SOL    HW2 4417   2.413   1.594   1.932  1.0457  2.3430 -0.0027
 1093SOL    HW3 4418   2.474   1.559   1.798 -0.6445 -0.4106 -0.0926
 1093SOL    MW4 4419   2.480   1.567   1.884  0.2697  0.7955 -0.2621
 1094SOL     OW 4420   2.242   1.655   1.969  0.1647  0.3828  0.3511
 1094SOL    HW2 4421   2.232   1.668   2.063 -0.6754  1.6467  0.1064
 1094SOL    HW3 4422   2.158   1.618   1.941 -0.0125  1.0633 -0.0551
 1094SOL    MW4 4423   2.230   1.652   1.978  0.0305  0.6396  0.2652
 1095SOL     OW 4424   2.266   1.937   1.909 -0.0354 -0.7416 -0.5290
 1095SOL    HW2 4425   2.356   1.968   1.919 -0.0220 -0.5513 -1.2072
 1095SOL    HW3 4426   2.269   1.845   1.935  0.1471 -0.4611  0.4320
 1095SOL    MW4 4427   2.278   1.929   1.913 -0.0095 -0.6795 -0.4916
 1096SOL     OW 4428   2.528   2.042   1.932  0.3315 -0.4092 -0.2515
 1096SOL    HW2 4429   2.608   2.001   1.898  1.6602  2.1635 -0.2849
 1096SOL    HW3 4430   2.540   2.136   1.917 -1.5059  0.2785  2.2814
 1096SOL    MW4 4431   2.540   2.049   1.925  0.2644  0.0210  0.0784
 1097SOL     OW 4432   2.527   2.319   1.864  0.0421 -0.1980  0.1536
 1097SOL    HW2 4433   2.602   2.374   1.888 -0.0835  0.2334 -0.4386
 1097SOL    HW3 4434   2.451   2.364   1.901 -0.1050  0.2450 -0.6753
 1097SOL    MW4 4435   2.527   2.332   1.872  0.0060 -0.0825 -0.0340
 1098SOL     OW 4436   2.307   2.451   1.982 -0.2047  0.0297 -0.1646
 1098SOL    HW2 4437   2.306   2.440   2.077  1.5790  0.8433 -0.0373
 1098SOL    HW3 4438   2.291   2.544   1.968  2.5200  0.5025 -0.5053
 1098SOL    MW4 4439   2.305   2.462   1.992  0.3901  0.1996 -0.1928
 1099SOL     OW 4440   2.256   2.698   1.869 -0.0578  0.1023  0.2792
 1099SOL    HW2 4441   2.172   2.733   1.899 -0.4191 -0.3103 -0.2364
 1099SOL    HW3 4442   2.250   2.701   1.773  0.6070  0.2812  0.2433
 1099SOL    MW4 4443   2.244   2.703   1.860 -0.0176  0.0713  0.2065
 1100SOL     OW 4444   2.462   2.809   2.010  0.3494 -0.1217  0.3515
 1100SOL    HW2 4445   2.443   2.902   1.999  0.3281 -0.0210  1.2355
 1100SOL    HW3 4446   2.396   2.765   1.957 -0.2208  0.3400  0.6681
 1100SOL    MW4 4447   2.451   2.815   2.002  0.2713 -0.0472  0.5097
 1101SOL     OW 4448   2.474   3.072   1.916  0.6002  0.3109  0.0049
 1101SOL    HW2 4449   2.389   3.109   1.939  0.4314 -0.5050  0.7129
 1101SOL    HW3 4450   2.471   3.063   1.820 -1.1440 -2.1840  0.2547
 1101SOL    MW4 4451   2.462   3.075   1.906  0.3479 -0.1256  0.1312
 1102SOL     OW 4452   2.270   3.221   2.021  0.1368  0.0373  0.1022
 1102SOL    HW2 4453   2.284   3.214   2.116 -0.5455  1.2639  0.3138
 1102SOL    HW3 4454   2.184   3.181   2.006 -0.7410  1.7596  0.3416
 1102SOL    MW4 4455   2.260   3.215   2.032 -0.0691  0.4263  0.1616
 1103SOL     OW 4456   2.238   3.466   1.889  0.1588  0.2302  0.0694
 1103SOL    HW2 4457   2.238   3.386   1.942 -3.0727 -1.9998 -3.0853
 1103SOL    HW3 4458   2.175   3.523   1.933 -0.0334 -0.2913  0.4810
 1103SOL    MW4 4459   2.229   3.463   1.902 -0.2930 -0.1326 -0.2925
 1104SOL     OW 4460   2.474   3.607   1.952 -0.1992  0.0362 -0.2108
 1104SOL    HW2 4461   2.478   3.600   2.048  0.0230  0.8017 -0.1647
 1104SOL    HW3 4462   2.392   3.563   1.929  0.3348 -1.2335  0.2228
 1104SOL    MW4 4463   2.464   3.600   1.962 -0.0997 -0.0305 -0.1475
 1105SOL     OW 4464   2.497   3.873   1.887 -0.3694  0.4375 -0.0982
 1105SOL    HW2 4465   2.420   3.917   1.922  0.5314 -0.0356  2.5668
 1105SOL    HW3 4466   2.487   3.782   1.915  1.4182  0.4875  0.7056
 1105SOL    MW4 4467   2.485   3.867   1.895 -0.0148  0.3817  0.3595
 1106SOL     OW 4468   2.265   4.024   1.952 -0.2839 -0.2231  0.3792
 1106SOL    HW2 4469   2.254   4.022   2.047  2.3650 -1.7592  0.7205
 1106SOL    HW3 4470   2.255   4.116   1.929 -0.2624  0.2739  2.2394
 1106SOL    MW4 4471   2.262   4.036   1.962  0.0684 -0.3600  0.6698
 1107SOL     OW 4472   2.237   4.287   1.873  0.3119  0.0961  0.2499
 1107SOL    HW2 4473   2.316   4.338   1.890  0.8550 -0.5100 -0.3978
 1107SOL    HW3 4474   2.234   4.279   1.778  0.6180 -1.6632  0.3732
 1107SOL    MW4 4475   2.247   4.293   1.863  0.4237 -0.2160  0.1807
 1108SOL     OW 4476   2.463   4.413   1.948  0.1991 -0.0580 -0.1490
 1108SOL    HW2 4477   2.451   4.388   2.040  0.3988 -1.1614 -0.4230
 1108SOL    HW3 4478   2.549   4.379   1.925 -0.9796 -2.1811 -1.5373
 1108SOL    MW4 4479   2.472   4.406   1.957  0.0699 -0.4830 -0.3684
 1109SOL     OW 4480   2.936   0.038   1.839 -0.0259  0.1085  0.1685
 1109SOL    HW2 4481   3.009   0.082   1.883 -0.5845  0.0286  1.1686
 1109SOL    HW3 4482   2.929  -0.047   1.882 -0.4353 -0.0563 -0.2239
 1109SOL    MW4 4483   2.945   0.033   1.850 -0.1535  0.0762  0.2487
 1110SOL     OW 4484   2.691   0.107   1.934 -0.2365 -0.2305 -0.1405
 1110SOL    HW2 4485   2.687   0.097   2.029 -0.1916 -1.5229 -0.2606
 1110SOL    HW3 4486   2.778   0.073   1.911 -0.1916  0.2122 -0.6347
 1110SOL    MW4 4487   2.702   0.101   1.944 -0.2246 -0.3426 -0.2215
 1111SOL     OW 4488   2.649   0.368   1.863 -0.0381  0.0526 -0.7238
 1111SOL    HW2 4489   2.734   0.413   1.875  0.3558 -0.9179  0.2342
 1111SOL    HW3 4490   2.668   0.277   1.883 -1.7101  0.1241  1.4063
 1111SOL    MW4 4491   2.663   0.362   1.867 -0.2067 -0.0660 -0.3163
 1112SOL     OW 4492   2.891   0.485   1.893  0.0795 -0.0895  0.4055
 1112SOL    HW2 4493   2.984   0.465   1.888 -0.3655 -2.1402  0.0768
 1112SOL    HW3 4494   2.885   0.578   1.870  2.0277  0.0466  0.4072
 1112SOL    MW4 4495   2.903   0.495   1.890  0.2780 -0.3421  0.3623
 1113SOL     OW 4496   2.867   0.774   1.832  0.1830  0.0423  0.1005
 1113SOL    HW2 4497   2.937   0.810   1.886  0.8999 -0.3215 -0.5717
 1113SOL    HW3 4498   2.787   0.791   1.881  0.7165  0.7259  0.7380
 1113SOL    MW4 4499   2.865   0.781   1.845  0.3481  0.0845  0.0958
 1114SOL     OW 4500   2.657   0.882   1.975 -0.7882  0.1516  0.0908
 1114SOL    HW2 4501   2.673   0.966   1.933 -0.6679  0.9383  1.6658
 1114SOL    HW3 4502   2.586   0.843   1.924 -0.0356  0.6741 -1.3667
 1114SOL    MW4 4503   2.649   0.888   1.963 -0.6731  0.3244  0.1063
 1115SOL     OW 4504   2.714   1.127   1.854  0.0090 -0.2718  0.3718
 1115SOL    HW2 4505   2.645   1.184   1.889  1.0733  2.2656 -1.4345
 1115SOL    HW3 4506   2.705   1.135   1.759  0.8240 -2.3961  0.0950
 1115SOL    MW4 4507   2.703   1.136   1.846  0.2570 -0.2172  0.0969
 1116SOL     OW 4508   2.925   1.252   1.973  0.6255  0.0682  0.0027
 1116SOL    HW2 4509   2.930   1.336   1.927  0.2897 -0.2568 -0.6254
 1116SOL    HW3 4510   2.860   1.201   1.925  0.0733 -0.1780  0.9971
 1116SOL    MW4 4511   2.917   1.256   1.961  0.5081 -0.0073  0.0510
 1117SOL     OW 4512   2.975   1.505   1.847 -0.2251  0.1339 -0.0326
 1117SOL    HW2 4513   3.039   1.570   1.873  0.5630 -0.7275  0.2199
 1117SOL    HW3 4514   2.958   1.523   1.755  2.0548 -0.9986 -0.7152
 1117SOL    MW4 4515   2.981   1.516   1.838  0.1798 -0.1291 -0.0893
 1118SOL     OW 4516   2.759   1.616   1.986  0.0990  0.3518 -0.1997
 1118SOL    HW2 4517   2.834   1.574   1.944  0.6977  0.6277  0.5696
 1118SOL    HW3 4518   2.682   1.578   1.943  0.6634 -0.5233 -0.4488
 1118SOL    MW4 4519   2.759   1.605   1.975  0.2525  0.2726 -0.1312
 1119SOL     OW 4520   2.780   1.867   1.852  0.2267 -0.0225  0.3163
 1119SOL    HW2 4521   2.836   1.937   1.885  0.9437 -0.6634  0.4615
 1119SOL    HW3 4522   2.781   1.800   1.921 -0.2926 -0.2678  0.0918
 1119SOL    MW4 4523   2.787   1.867   1.866  0.2527 -0.1394  0.3058
 1120SOL     OW 4524   2.932   2.082   1.949 -0.4138  0.0938  0.9161
 1120SOL    HW2 4525   2.937   2.081   2.044  0.8951 -0.7508  0.8510
 1120SOL    HW3 4526   3.015   2.045   1.920 -1.1273 -0.4121 -0.5457
 1120SOL    MW4 4527   2.943   2.077   1.958 -0.3352 -0.0842  0.7147
 1121SOL     OW 4528   2.939   2.344   1.821 -0.1670  0.1712 -0.3492
 1121SOL    HW2 4529   3.027   2.368   1.852 -0.9311  2.3983  0.1424
 1121SOL    HW3 4530   2.919   2.263   1.868  0.8647  0.6547  0.9702
 1121SOL    MW4 4531   2.948   2.336   1.831 -0.1318  0.5288 -0.1101
 1122SOL     OW 4532   2.730   2.506   1.937  0.4764  0.0110 -0.3439
 1122SOL    HW2 4533   2.718   2.598   1.917 -0.1108 -0.2080 -1.0417
 1122SOL    HW3 4534   2.820   2.486   1.911  1.3618  0.8982  1.8795
 1122SOL    MW4 4535   2.740   2.515   1.931  0.5157  0.0992 -0.1426
 1123SOL     OW 4536   2.694   2.769   1.869  0.0156 -0.0729  0.0721
 1123SOL    HW2 4537   2.614   2.795   1.915  1.0183  2.3014  0.5962
 1123SOL    HW3 4538   2.666   2.755   1.778 -1.2502 -0.7636  0.5513
 1123SOL    MW4 4539   2.680   2.771   1.863 -0.0191  0.1493  0.2046
 1124SOL     OW 4540   2.944   2.866   1.956  0.2584  0.4134  0.0434
 1124SOL    HW2 4541   2.950   2.960   1.938  1.0451  0.2733 -0.4021
 1124SOL    HW3 4542   2.859   2.841   1.920  0.2182  0.8744 -0.1896
 1124SOL    MW4 4543   2.933   2.875   1.949  0.3569  0.4556 -0.0461
 1125SOL     OW 4544   2.920   3.103   1.850  0.1482  0.1811 -0.1748
 1125SOL    HW2 4545   2.996   3.156   1.874 -0.2621  0.7523 -0.1380
 1125SOL    HW3 4546   2.845   3.150   1.885 -0.2644 -0.1677 -0.5751
 1125SOL    MW4 4547   2.920   3.116   1.858  0.0396  0.2105 -0.2228
 1126SOL     OW 4548   2.703   3.229   1.959  0.3522  0.2943  0.3003
 1126SOL    HW2 4549   2.680   3.320   1.941  0.0737  0.0788 -0.4644
 1126SOL    HW3 4550   2.619   3.183   1.958  0.4179  0.1364  1.3687
 1126SOL    MW4 4551   2.688   3.235   1.956  0.3238  0.2451  0.3402
 1127SOL     OW 4552   2.700   3.493   1.886 -0.1182  0.2509 -0.2345
 1127SOL    HW2 4553   2.760   3.564   1.908 -0.0157 -0.0466  0.4582
 1127SOL    HW3 4554   2.615   3.522   1.917  0.0010 -0.1075  0.4443
 1127SOL    MW4 4555   2.697   3.506   1.893 -0.0887  0.1645 -0.0534
 1128SOL     OW 4556   2.912   3.678   1.949 -0.3833  0.1672  0.1424
 1128SOL    HW2 4557   2.913   3.676   2.044 -0.6244  0.8147  0.1608
 1128SOL    HW3 4558   2.977   3.613   1.922 -1.4789 -1.1862  0.7394
 1128SOL    MW4 4559   2.920   3.669   1.958 -0.5596  0.0741  0.2236
 1129SOL     OW 4560   2.913   3.953   1.880  0.0791  0.6586  0.0101
 1129SOL    HW2 4561   2.908   3.865   1.917  0.5005  0.7016  0.1755
 1129SOL    HW3 4562   2.905   3.940   1.785 -1.1336  0.5613  0.1183
 1129SOL    MW4 4563   2.912   3.940   1.872 -0.0253  0.6516  0.0463
 1130SOL     OW 4564   2.686   4.020   2.021  0.0040 -0.6436 -0.2318
 1130SOL    HW2 4565   2.773   4.007   1.983 -0.0546 -1.4846 -0.0858
 1130SOL    HW3 4566   2.627   3.969   1.965 -0.6687  1.4440 -1.4494
 1130SOL    MW4 4567   2.690   4.011   2.009 -0.0925 -0.4792 -0.3734
 1131SOL     OW 4568   2.705   4.282   1.911 -0.6378 -0.2923  0.2137
 1131SOL    HW2 4569   2.697   4.200   1.960 -1.9826  0.2127  0.8781
 1131SOL    HW3 4570   2.673   4.262   1.823  2.9846 -1.5377 -0.9056
 1131SOL    MW4 4571   2.700   4.269   1.906 -0.3369 -0.3896  0.1535
 1132SOL     OW 4572   2.886   4.469   1.999  0.9091  0.0269 -0.5196
 1132SOL    HW2 4573   2.881   4.444   2.091 -0.6604  1.0794 -0.2934
 1132SOL    HW3 4574   2.830   4.406   1.954  1.3676 -0.2502 -0.7049
 1132SOL    MW4 4575   2.878   4.457   2.005  0.7625  0.1292 -0.5143
 1133SOL     OW 4576   3.326   0.026   1.877  0.3870  0.1820 -0.0923
 1133SOL    HW2 4577   3.329  -0.066   1.902  0.7915  0.1596 -0.2282
 1133SOL    HW3 4578   3.333   0.025   1.782 -0.3445  0.3145 -0.1530
 1133SOL    MW4 4579   3.327   0.014   1.868  0.3438  0.1965 -0.1183
 1134SOL     OW 4580   3.129   0.189   1.959 -0.0667  0.2045  0.3810
 1134SOL    HW2 4581   3.133   0.193   2.055  1.1792  0.2371  0.3395
 1134SOL    HW3 4582   3.209   0.142   1.934  0.6538  1.9643 -0.7352
 1134SOL    MW4 4583   3.140   0.183   1.969  0.1926  0.4410  0.2282
 1135SOL     OW 4584   3.156   0.437   1.864  0.2439 -0.1349  0.4108
 1135SOL    HW2 4585   3.151   0.353   1.911 -0.4333 -0.1668  0.2912
 1135SOL    HW3 4586   3.153   0.413   1.772  0.4776 -0.0030  0.3682
 1135SOL    MW4 4587   3.155   0.423   1.858  0.1853 -0.1217  0.3895
 1136SOL     OW 4588   3.385   0.557   1.960 -0.0087 -0.1829  0.1101
 1136SOL    HW2 4589   3.460   0.499   1.945 -0.0476  0.0117 -0.8472
 1136SOL    HW3 4590   3.310   0.507   1.926 -0.1390  0.1503 -0.0865
 1136SOL    MW4 4591   3.385   0.543   1.954 -0.0312 -0.1133 -0.0421
 1137SOL     OW 4592   3.302   0.821   1.887 -0.2376  0.7093  0.3736
 1137SOL    HW2 4593   3.217   0.829   1.930 -0.4778  2.0685 -0.3383
 1137SOL    HW3 4594   3.343   0.745   1.929 -2.4585 -0.9847 -0.4407
 1137SOL    MW4 4595   3.296   0.812   1.899 -0.5624  0.6652  0.1724
 1138SOL     OW 4596   3.041   0.914   1.972  0.1501  0.4142  0.0323
 1138SOL    HW2 4597   3.051   0.919   2.067  0.6517 -0.0419  0.0079
 1138SOL    HW3 4598   3.103   0.979   1.938  1.3994 -0.7871 -0.0412
 1138SOL    MW4 4599   3.050   0.923   1.980  0.3812  0.1954  0.0194
 1139SOL     OW 4600   3.165   1.145   1.865  0.7554  0.1725 -0.2350
 1139SOL    HW2 4601   3.244   1.186   1.899  0.0525  0.2511  1.3632
 1139SOL    HW3 4602   3.094   1.201   1.896  0.0306 -0.1740 -1.2296
 1139SOL    MW4 4603   3.166   1.158   1.873  0.5670  0.1372 -0.1553
 1140SOL     OW 4604   3.351   1.283   1.984 -0.1107 -0.2880  0.0858
 1140SOL    HW2 4605   3.355   1.272   2.079  0.7738  1.4708  0.2898
 1140SOL    HW3 4606   3.364   1.377   1.971 -1.8694 -0.2618 -1.6988
 1140SOL    MW4 4607   3.353   1.294   1.995 -0.2260 -0.0526 -0.1225
 1141SOL     OW 4608   3.343   1.564   1.854  0.0767  0.2827 -0.0843
 1141SOL    HW2 4609   3.429   1.596   1.881  0.1360  0.6756 -0.7366
 1141SOL    HW3 4610   3.281   1.624   1.895  0.0822 -0.3915  0.9304
 1141SOL    MW4 4611   3.346   1.576   1.863  0.0851  0.2456 -0.0365
 1142SOL     OW 4612   3.114   1.689   1.973 -0.0822 -0.6046  0.0072
 1142SOL    HW2 4613   3.121   1.682   2.069  0.7249 -0.6606 -0.0610
 1142SOL    HW3 4614   3.111   1.784   1.957 -0.7575 -0.6017  0.1250
 1142SOL    MW4 4615   3.114   1.701   1.984 -0.0648 -0.6117  0.0138
 1143SOL     OW 4616   3.158   1.955   1.886  0.0888  0.4167 -0.3822
 1143SOL    HW2 4617   3.241   1.997   1.908  0.3093 -0.0993 -0.2224
 1143SOL    HW3 4618   3.159   1.949   1.791  0.7004 -0.5360 -0.3142
 1143SOL    MW4 4619   3.169   1.960   1.876  0.1988  0.2228 -0.3523
 1144SOL     OW 4620   3.402   2.026   1.973 -0.4706 -0.4396 -0.3660
 1144SOL    HW2 4621   3.477   1.975   1.942 -0.7162 -0.4811 -0.8942
 1144SOL    HW3 4622   3.426   2.117   1.954 -1.2117 -0.5601 -1.9749
 1144SOL    MW4 4623   3.415   2.031   1.966 -0.6006 -0.4609 -0.6480
 1145SOL     OW 4624   3.386   2.313   1.908  0.0304  0.1722  0.4081
 1145SOL    HW2 4625   3.306   2.351   1.943 -1.0540 -1.7562  0.0953
 1145SOL    HW3 4626   3.365   2.291   1.817  0.9707 -0.1419  0.2598
 1145SOL    MW4 4627   3.373   2.315   1.901  0.0112 -0.1240  0.3471
 1146SOL     OW 4628   3.159   2.440   1.993  0.1799  0.0296  0.1869
 1146SOL    HW2 4629   3.166   2.452   2.088 -2.7659  1.2484  0.3177
 1146SOL    HW3 4630   3.158   2.529   1.957  0.3687 -0.3937 -0.8836
 1146SOL    MW4 4631   3.160   2.453   2.001 -0.1841  0.1347  0.0629
 1147SOL     OW 4632   3.177   2.710   1.901 -0.1388  0.5389 -0.2201
 1147SOL    HW2 4633   3.101   2.757   1.935 -1.3071 -1.3115 -0.1781
 1147SOL    HW3 4634   3.161   2.705   1.807 -0.2787 -0.2084 -0.1590
 1147SOL    MW4 4635   3.165   2.716   1.893 -0.3114  0.1962 -0.2064
 1148SOL     OW 4636   3.395   2.891   1.951 -0.1981  0.5377 -0.2729
 1148SOL    HW2 4637   3.401   2.881   2.046 -1.3072  2.3952  0.0314
 1148SOL    HW3 4638   3.329   2.826   1.925  0.5912 -0.4355  0.1354
 1148SOL    MW4 4639   3.387   2.881   1.960 -0.2401  0.6542 -0.1789
 1149SOL     OW 4640   3.370   3.141   1.877  0.0735 -0.3253 -0.2629
 1149SOL    HW2 4641   3.447   3.179   1.919 -0.3385 -0.0826  0.2720
 1149SOL    HW3 4642   3.369   3.050   1.907 -0.5197 -0.0136  0.6878
 1149SOL    MW4 4643   3.380   3.134   1.886 -0.0591 -0.2522 -0.0669
 1150SOL     OW 4644   3.113   3.257   1.955 -0.1142 -0.0050  0.1764
 1150SOL    HW2 4645   3.105   3.350   1.932  1.1884  0.2096  0.5523
 1150SOL    HW3 4646   3.197   3.230   1.917 -0.3606 -0.9650  0.2890
 1150SOL    MW4 4647   3.123   3.266   1.947  0.0253 -0.1032  0.2409
 1151SOL     OW 4648   3.143   3.531   1.876  0.1286  0.3952  0.1927
 1151SOL    HW2 4649   3.226   3.571   1.900  0.1070  0.1584  0.6763
 1151SOL    HW3 4650   3.155   3.502   1.786  0.7272 -0.0602  0.4174
 1151SOL    MW4 4651   3.155   3.533   1.868  0.2048  0.3037  0.2861
 1152SOL     OW 4652   3.383   3.639   1.968 -0.0714 -0.1532 -0.2182
 1152SOL    HW2 4653   3.453   3.581   1.937 -0.3136 -0.9476  0.6789
 1152SOL    HW3 4654   3.397   3.721   1.921  0.6968 -0.7173 -0.9966
 1152SOL    MW4 4655   3.394   3.642   1.958 -0.0021 -0.3324 -0.2025
 1153SOL     OW 4656   3.350   3.895   1.873 -0.6872 -0.5327  0.1739
 1153SOL    HW2 4657   3.285   3.954   1.911  0.0847  0.3010  0.1975
 1153SOL    HW3 4658   3.331   3.897   1.779  1.3118  2.1892 -0.2044
 1153SOL    MW4 4659   3.339   3.903   1.865 -0.3214 -0.0637  0.1271
 1154SOL     OW 4660   3.150   4.045   1.988  0.2704  0.0713  0.0005
 1154SOL    HW2 4661   3.141   4.037   2.083 -1.4172  3.2352  0.1783
 1154SOL    HW3 4662   3.067   4.012   1.953  0.5185 -0.2107 -0.3215
 1154SOL    MW4 4663   3.138   4.040   1.996  0.0803  0.4520 -0.0184
 1155SOL     OW 4664   3.084   4.308   1.883 -0.4106  0.2341 -0.4321
 1155SOL    HW2 4665   3.101   4.227   1.930 -1.0559 -0.1176 -0.7859
 1155SOL    HW3 4666   3.003   4.341   1.921 -0.0762  0.7840 -0.1956
 1155SOL    MW4 4667   3.075   4.302   1.894 -0.4518  0.2599 -0.4476
 1156SOL     OW 4668   3.337   4.426   1.993 -0.4173 -0.7886  0.2383
 1156SOL    HW2 4669   3.416   4.377   1.973  0.8755  1.4197 -0.2994
 1156SOL    HW3 4670   3.265   4.366   1.976  1.0447 -1.9958 -1.7788
 1156SOL    MW4 4671   3.338   4.412   1.988 -0.0539 -0.6566 -0.0987
 1157SOL     OW 4672   3.807   4.665   1.919 -0.0980  0.3180 -0.2523
 1157SOL    HW2 4673   3.807   4.579   1.961 -0.4426  0.5640  0.2498
 1157SOL    HW3 4674   3.719   4.699   1.934  0.2589  1.0551  0.1516
 1157SOL    MW4 4675   3.795   4.658   1.926 -0.0966  0.4477 -0.1328
 1158SOL     OW 4676   3.563   0.140   1.964 -0.3792 -0.0797  0.5922
 1158SOL    HW2 4677   3.561   0.145   2.059  0.2109 -1.0819  0.6624
 1158SOL    HW3 4678   3.477   0.105   1.940  0.0273 -1.2432  0.8469
 1158SOL    MW4 4679   3.552   0.136   1.973 -0.2477 -0.3654  0.6351
 1159SOL     OW 4680   3.598   0.408   1.903 -0.4300  0.1163 -0.1837
 1159SOL    HW2 4681   3.591   0.315   1.927  2.8060 -0.0599  0.2027
 1159SOL    HW3 4682   3.607   0.408   1.808 -0.8415  0.0888 -0.2263
 1159SOL    MW4 4683   3.598   0.396   1.894 -0.0577  0.0894 -0.1383
 1160SOL     OW 4684   3.846   0.522   1.999 -0.1609 -0.6160 -0.0681
 1160SOL    HW2 4685   3.825   0.614   1.980 -0.3430 -0.3286  1.4090
 1160SOL    HW3 4686   3.770   0.473   1.969 -0.9218 -0.0678  0.9200
 1160SOL    MW4 4687   3.833   0.528   1.993 -0.2854 -0.5058  0.2573
 1161SOL     OW 4688   3.808   0.776   1.935 -0.3714  0.0428 -0.0451
 1161SOL    HW2 4689   3.741   0.839   1.964  0.0644  0.7457 -0.5525
 1161SOL    HW3 4690   3.805   0.781   1.840 -0.2665 -0.6456 -0.0814
 1161SOL    MW4 4691   3.799   0.785   1.926 -0.3002  0.0447 -0.1168
 1162SOL     OW 4692   3.602   0.953   1.970  0.0851  0.1697  0.3772
 1162SOL    HW2 4693   3.622   1.038   1.932 -1.1302  0.5963  0.6983
 1162SOL    HW3 4694   3.517   0.929   1.935  1.0652 -1.6219 -0.9066
 1162SOL    MW4 4695   3.594   0.961   1.960  0.0544 -0.0104  0.2501
 1163SOL     OW 4696   3.603   1.203   1.861 -0.3654  0.2269  0.4934
 1163SOL    HW2 4697   3.518   1.232   1.893 -0.0229  0.0051  1.6243
 1163SOL    HW3 4698   3.593   1.199   1.766 -1.4557  0.7031  0.5820
 1163SOL    MW4 4699   3.591   1.206   1.853 -0.4640  0.2605  0.6543
 1164SOL     OW 4700   3.857   1.289   1.978 -0.4254 -0.1885  0.7271
 1164SOL    HW2 4701   3.860   1.276   2.073  0.1596  1.0027  0.8875
 1164SOL    HW3 4702   3.766   1.271   1.954 -0.5170 -0.7433  1.4758
 1164SOL    MW4 4703   3.846   1.285   1.987 -0.3603 -0.1044  0.8471
 1165SOL     OW 4704   3.843   1.537   1.847  0.0929 -0.1661  0.2552
 1165SOL    HW2 4705   3.914   1.591   1.880 -0.2632 -0.2788  1.2138
 1165SOL    HW3 4706   3.854   1.453   1.891  0.4521 -0.7834 -0.9822
 1165SOL    MW4 4707   3.853   1.533   1.857  0.0935 -0.2625  0.2184
 1166SOL     OW 4708   3.599   1.646   1.945 -0.1018  0.3901 -0.7875
 1166SOL    HW2 4709   3.606   1.741   1.936 -0.6588  0.6990  1.5584
 1166SOL    HW3 4710   3.677   1.611   1.902 -0.1539  1.8809 -2.1190
 1166SOL    MW4 4711   3.610   1.654   1.938 -0.1822  0.6275 -0.6535
 1167SOL     OW 4712   3.635   1.912   1.892  0.0955 -0.0129  0.9205
 1167SOL    HW2 4713   3.708   1.961   1.930 -0.3665  1.0078  0.5088
 1167SOL    HW3 4714   3.645   1.925   1.797  0.5933 -1.6138  0.7497
 1167SOL    MW4 4715   3.646   1.920   1.884  0.1004 -0.0894  0.8436
 1168SOL     OW 4716   3.847   2.072   1.968  0.4143 -0.0137  0.1240
 1168SOL    HW2 4717   3.933   2.043   1.938 -1.1808 -0.8361 -3.9277
 1168SOL    HW3 4718   3.841   2.163   1.940  0.6186  0.6104  2.0167
 1168SOL    MW4 4719   3.858   2.080   1.960  0.2308 -0.0398 -0.1609
 1169SOL     OW 4720   3.853   2.339   1.863  0.3317  0.1340  0.4131
 1169SOL    HW2 4721   3.921   2.386   1.911  0.7519 -1.2262  1.1624
 1169SOL    HW3 4722   3.772   2.385   1.886  0.6810  0.2189  1.5250
 1169SOL    MW4 4723   3.851   2.351   1.872  0.4332 -0.0343  0.6588
 1170SOL     OW 4724   3.626   2.457   1.978 -0.1841  0.4380  0.3375
 1170SOL    HW2 4725   3.606   2.540   1.935 -1.5246 -0.9436 -1.8388
 1170SOL    HW3 4726   3.547   2.404   1.963  1.0317 -1.5428  0.8602
 1170SOL    MW4 4727   3.613   2.461   1.970 -0.2007 -0.0057  0.1194
 1171SOL     OW 4728   3.592   2.697   1.858 -0.3983 -0.0262 -0.3264
 1171SOL    HW2 4729   3.664   2.753   1.889 -1.9858  0.1930  3.2107
 1171SOL    HW3 4730   3.513   2.751   1.871 -1.5469 -1.6055 -0.6794
 1171SOL    MW4 4731   3.591   2.712   1.864 -0.7594 -0.2058  0.0939
 1172SOL     OW 4732   3.807   2.850   1.946  0.5432 -0.1931  0.4676
 1172SOL    HW2 4733   3.828   2.857   2.039 -1.6290 -0.1046  0.9728
 1172SOL    HW3 4734   3.834   2.934   1.909  0.8284  0.0110  1.1283
 1172SOL    MW4 4735   3.814   2.862   1.954  0.2944 -0.1545  0.6213
 1173SOL     OW 4736   3.848   3.103   1.867 -0.1122  0.4218 -0.0016
 1173SOL    HW2 4737   3.769   3.124   1.916  0.2662 -0.2321  0.8990
 1173SOL    HW3 4738   3.817   3.092   1.777 -0.9659  0.6715  0.2525
 1173SOL    MW4 4739   3.833   3.104   1.862 -0.1750  0.3684  0.1507
 1174SOL     OW 4740   3.635   3.238   1.981 -0.6984  0.4840  0.5390
 1174SOL    HW2 4741   3.623   3.256   2.074 -0.1810  2.2121  0.2827
 1174SOL    HW3 4742   3.623   3.323   1.938 -0.4130 -0.2015 -0.9213
 1174SOL    MW4 4743   3.632   3.252   1.987 -0.5922  0.6216  0.3124
 1175SOL     OW 4744   3.607   3.488   1.873 -0.1719 -0.0615 -0.0661
 1175SOL    HW2 4745   3.674   3.546   1.908  0.4120 -0.8929  0.1916
 1175SOL    HW3 4746   3.601   3.511   1.780  0.6331 -0.1486 -0.1373
 1175SOL    MW4 4747   3.615   3.499   1.865  0.0112 -0.1829 -0.0416
 1176SOL     OW 4748   3.801   3.661   1.988  0.0480  0.1127 -0.4489
 1176SOL    HW2 4749   3.884   3.620   1.964  1.0145  1.1092  1.0776
 1176SOL    HW3 4750   3.804   3.747   1.945  1.0167  1.2119  1.7568
 1176SOL    MW4 4751   3.812   3.667   1.979  0.3033  0.3891  0.0436
 1177SOL     OW 4752   3.815   3.916   1.873 -0.5167 -0.1526 -0.0136
 1177SOL    HW2 4753   3.731   3.944   1.910 -0.9678 -1.0244 -0.3617
 1177SOL    HW3 4754   3.796   3.895   1.782 -0.2808 -1.8937  0.3162
 1177SOL    MW4 4755   3.801   3.917   1.866 -0.5450 -0.4973 -0.0160
 1178SOL     OW 4756   3.566   4.025   1.966  0.1707  0.4727  0.1534
 1178SOL    HW2 4757   3.559   3.998   2.058  0.7839 -1.3353 -0.3092
 1178SOL    HW3 4758   3.501   3.971   1.920 -0.8691  2.1167 -0.3238
 1178SOL    MW4 4759   3.557   4.014   1.972  0.1144  0.4511  0.0293
 1179SOL     OW 4760   3.566   4.283   1.891  0.1158  0.3819  0.2911
 1179SOL    HW2 4761   3.652   4.322   1.903  1.3509 -2.1513  0.0167
 1179SOL    HW3 4762   3.577   4.192   1.919 -2.1865 -0.2568 -0.7902
 1179SOL    MW4 4763   3.579   4.276   1.896 -0.0248 -0.0367  0.1123
 1180SOL     OW 4764   3.808   4.408   2.001 -0.3363 -0.5100  0.5200
 1180SOL    HW2 4765   3.818   4.409   2.097 -1.2837  0.2816  0.6177
 1180SOL    HW3 4766   3.897   4.398   1.968 -0.0237 -1.0206  1.4889
 1180SOL    MW4 4767   3.821   4.407   2.010 -0.4199 -0.4725  0.6609
 1181SOL     OW 4768   4.293   0.006   1.893  0.0852 -0.3152  0.1099
 1181SOL    HW2 4769   4.212   0.041   1.928 -0.1658 -0.6941 -0.0846
 1181SOL    HW3 4770   4.362   0.057   1.936 -0.2288 -0.5372  0.8921
 1181SOL    MW4 4771   4.292   0.017   1.903  0.0100 -0.3948  0.1873
 1182SOL     OW 4772   4.040   0.109   2.000  0.2252  0.0947  0.0503
 1182SOL    HW2 4773   4.031   0.102   2.095  0.4054 -0.3113  0.0411
 1182SOL    HW3 4774   3.970   0.053   1.965  0.3816 -0.0375 -0.0521
 1182SOL    MW4 4775   4.030   0.101   2.008  0.2699  0.0237  0.0355
 1183SOL     OW 4776   4.057   0.360   1.905 -0.2929  0.5151  0.2659
 1183SOL    HW2 4777   4.049   0.268   1.932 -1.2411  0.5670  0.1636
 1183SOL    HW3 4778   3.976   0.401   1.934 -1.5998  0.4606 -3.1119
 1183SOL    MW4 4779   4.045   0.353   1.912 -0.5908  0.5148 -0.1934
 1184SOL     OW 4780   4.222   0.518   2.045  0.0536  0.0304  0.4150
 1184SOL    HW2 4781   4.222   0.504   2.140 -0.5911  0.9404  0.5598
 1184SOL    HW3 4782   4.162   0.451   2.012  0.2264 -0.2463  0.6508
 1184SOL    MW4 4783   4.214   0.507   2.053 -0.0086  0.1140  0.4652
 1185SOL     OW 4784   4.251   0.761   1.899  0.1068 -0.4391 -0.1976
 1185SOL    HW2 4785   4.212   0.678   1.927 -1.5242  0.2581 -0.3032
 1185SOL    HW3 4786   4.263   0.751   1.804 -0.9184 -0.2586 -0.3615
 1185SOL    MW4 4787   4.247   0.749   1.890 -0.2441 -0.3232 -0.2333
 1186SOL     OW 4788   4.068   0.914   2.012  0.4594  0.4834 -0.0043
 1186SOL    HW2 4789   4.137   0.871   1.961 -0.1499 -0.5714  0.0518
 1186SOL    HW3 4790   3.987   0.870   1.985  0.0117  0.6163  1.1025
 1186SOL    MW4 4791   4.067   0.902   2.002  0.3195  0.3617  0.1493
 1187SOL     OW 4792   4.071   1.161   1.881 -0.4944 -0.3434 -0.4338
 1187SOL    HW2 4793   4.069   1.081   1.933  0.3586  0.4783  0.8886
 1187SOL    HW3 4794   3.995   1.211   1.912 -1.8812 -1.2501 -2.2828
 1187SOL    MW4 4795   4.061   1.157   1.892 -0.5646 -0.3546 -0.5031
 1188SOL     OW 4796   4.320   1.282   1.979 -0.4642 -0.4987 -0.0886
 1188SOL    HW2 4797   4.294   1.286   2.071 -0.4455 -0.0444 -0.1021
 1188SOL    HW3 4798   4.239   1.263   1.933 -0.8657  1.2788 -0.1639
 1188SOL    MW4 4799   4.306   1.280   1.985 -0.5145 -0.2042 -0.1003
 1189SOL     OW 4800   4.238   1.533   1.888  0.2659 -0.5202 -0.3521
 1189SOL    HW2 4801   4.279   1.452   1.916 -1.4677 -1.8465 -1.5751
 1189SOL    HW3 4802   4.241   1.530   1.792 -0.3128  0.5752 -0.4170
 1189SOL    MW4 4803   4.244   1.522   1.879 -0.0396 -0.5506 -0.5221
 1190SOL     OW 4804   4.021   1.699   1.976  0.4091 -0.0798  0.0250
 1190SOL    HW2 4805   4.023   1.701   2.072 -0.4892  1.3804  0.0264
 1190SOL    HW3 4806   4.098   1.649   1.952  0.3985 -0.8578  1.5283
 1190SOL    MW4 4807   4.031   1.693   1.986  0.2890  0.0101  0.2235
 1191SOL     OW 4808   4.083   1.957   1.905  0.3535 -0.2133 -0.0510
 1191SOL    HW2 4809   4.064   1.865   1.921  0.8436 -0.3350 -0.1528
 1191SOL    HW3 4810   4.077   1.966   1.810  0.2120 -0.1160 -0.0339
 1191SOL    MW4 4811   4.080   1.946   1.894  0.3996 -0.2165 -0.0622
 1192SOL     OW 4812   4.281   2.088   2.041  0.5152  0.2552  0.4599
 1192SOL    HW2 4813   4.279   2.084   2.137 -0.7838  1.1839  0.4836
 1192SOL    HW3 4814   4.205   2.037   2.013  0.4379  0.6467 -0.0530
 1192SOL    MW4 4815   4.271   2.081   2.050  0.3338  0.4294  0.3953
 1193SOL     OW 4816   4.268   2.325   1.892  0.2982  0.4115  0.2174
 1193SOL    HW2 4817   4.271   2.240   1.937  1.0897  0.0673 -0.4640
 1193SOL    HW3 4818   4.350   2.368   1.918  0.8682  0.1187 -1.0621
 1193SOL    MW4 4819   4.279   2.320   1.902  0.4783  0.3273 -0.0412
 1194SOL     OW 4820   4.057   2.472   1.974  0.3355  0.1654  0.4681
 1194SOL    HW2 4821   4.075   2.487   2.067 -0.5468 -0.3102  0.7208
 1194SOL    HW3 4822   4.132   2.420   1.944  0.9556  0.8906  0.7559
 1194SOL    MW4 4823   4.069   2.467   1.983  0.3014  0.1984  0.5394
 1195SOL     OW 4824   4.033   2.723   1.869  0.3839  0.3359 -0.1684
 1195SOL    HW2 4825   4.046   2.641   1.917 -1.9073 -0.7502 -1.3445
 1195SOL    HW3 4826   3.962   2.767   1.915  0.8637  1.1490 -0.2063
 1195SOL    MW4 4827   4.026   2.718   1.881  0.1445  0.2997 -0.3284
 1196SOL     OW 4828   4.256   2.832   1.992  0.2980 -0.1921  0.0476
 1196SOL    HW2 4829   4.230   2.833   2.084  0.1437  0.3034  0.0000
 1196SOL    HW3 4830   4.179   2.798   1.946  0.4600 -0.6702  0.1254
 1196SOL    MW4 4831   4.242   2.827   1.998  0.2990 -0.1898  0.0517
 1197SOL     OW 4832   4.266   3.099   1.896  0.4307 -0.1704 -0.2242
 1197SOL    HW2 4833   4.194   3.142   1.942  0.0941 -0.2246 -0.6923
 1197SOL    HW3 4834   4.264   3.009   1.927  1.4163  0.2376  1.0912
 1197SOL    MW4 4835   4.256   3.093   1.906  0.5169 -0.1237 -0.1124
 1198SOL     OW 4836   4.044   3.232   2.000 -0.3076  0.6537  0.0340
 1198SOL    HW2 4837   4.031   3.221   2.094 -0.5384 -1.2941 -0.2137
 1198SOL    HW3 4838   3.963   3.201   1.960 -0.6536  2.5066 -0.7891
 1198SOL    MW4 4839   4.032   3.227   2.007 -0.3839  0.6413 -0.1070
 1199SOL     OW 4840   4.016   3.487   1.882 -0.2451  0.3837 -0.2043
 1199SOL    HW2 4841   4.092   3.529   1.923  0.4147 -1.9604  1.0762
 1199SOL    HW3 4842   4.016   3.398   1.916 -1.8442 -0.5708 -2.5197
 1199SOL    MW4 4843   4.026   3.481   1.892 -0.3691 -0.0515 -0.3408
 1200SOL     OW 4844   4.231   3.606   2.023 -0.0103  0.3986  0.0788
 1200SOL    HW2 4845   4.237   3.695   1.987  1.9751  0.1678 -0.2320
 1200SOL    HW3 4846   4.316   3.566   2.002 -0.8341 -1.5376  0.3097
 1200SOL    MW4 4847   4.243   3.613   2.015  0.1426  0.1130  0.0682
 1201SOL     OW 4848   4.247   3.868   1.927  0.4447 -1.0467  0.2668
 1201SOL    HW2 4849   4.329   3.912   1.951 -0.5165  0.1985  1.3029
 1201SOL    HW3 4850   4.245   3.873   1.831  0.6977  0.5511  0.3301
 1201SOL    MW4 4851   4.258   3.874   1.918  0.3514 -0.6716  0.4117
 1202SOL     OW 4852   4.023   4.038   2.011 -0.3021 -0.3694  0.2616
 1202SOL    HW2 4853   4.099   3.982   1.999  0.6088  0.6537  1.0938
 1202SOL    HW3 4854   3.953   3.994   1.964  1.4858  0.1413 -3.0477
 1202SOL    MW4 4855   4.024   4.025   2.003  0.0539 -0.1674 -0.0653
 1203SOL     OW 4856   4.061   4.288   1.885 -0.0834  0.5710  0.0611
 1203SOL    HW2 4857   4.130   4.338   1.929  0.6054  0.0811 -0.4514
 1203SOL    HW3 4858   4.051   4.209   1.937  0.7065  0.0079 -0.6378
 1203SOL    MW4 4859   4.069   4.284   1.897  0.1121  0.4315 -0.0987
 1204SOL     OW 4860   4.301   4.413   1.969  0.0566  0.0268 -0.5300
 1204SOL    HW2 4861   4.297   4.412   2.065  0.3278  0.6087 -0.5083
 1204SOL    HW3 4862   4.310   4.506   1.946  1.4700 -0.2248 -1.0520
 1204SOL    MW4 4863   4.302   4.425   1.979  0.2785  0.0710 -0.5960
 1205SOL     OW 4864   0.209   4.622   2.362  0.1258 -0.3255  0.2314
 1205SOL    HW2 4865   0.205   4.619   2.457  0.8665 -0.2484  0.2679
 1205SOL    HW3 4866   0.295   4.660   2.342 -0.2749  0.2442 -0.4597
 1205SOL    MW4 4867   0.220   4.627   2.372  0.1706 -0.2403  0.1450
 1206SOL     OW 4868   4.475   0.112   2.325 -0.0617 -0.2519  0.1598
 1206SOL    HW2 4869   4.552   0.058   2.342  0.1454  0.4485  1.5643
 1206SOL    HW3 4870   4.483   0.139   2.234  0.9294 -0.8421  0.0693
 1206SOL    MW4 4871   4.486   0.108   2.315  0.0963 -0.2374  0.3328
 1207SOL     OW 4872   4.482   0.347   2.456  0.2565 -0.1688 -0.4423
 1207SOL    HW2 4873   4.546   0.388   2.398 -0.5481  0.7353 -0.7032
 1207SOL    HW3 4874   4.483   0.254   2.431  1.9185 -0.2815 -0.0032
 1207SOL    MW4 4875   4.491   0.340   2.445  0.3695 -0.0644 -0.4189
 1208SOL     OW 4876   0.183   0.483   2.310 -0.1344  0.4551  0.3013
 1208SOL    HW2 4877   0.267   0.441   2.331  0.0121  1.5590  2.0234
 1208SOL    HW3 4878   0.175   0.474   2.215  1.8697  0.1854  0.1301
 1208SOL    MW4 4879   0.193   0.477   2.300  0.1493  0.5652  0.5059
 1209SOL     OW 4880   0.225   0.747   2.387 -0.1664  0.1013 -0.4035
 1209SOL    HW2 4881   0.238   0.735   2.481  0.4147  0.2635 -0.4593
 1209SOL    HW3 4882   0.204   0.660   2.354  1.9974 -0.4087 -0.4934
 1209SOL    MW4 4883   0.224   0.734   2.395  0.1957  0.0554 -0.4227
 1210SOL     OW 4884   4.468   0.832   2.325 -0.6906  0.1906 -0.4041
 1210SOL    HW2 4885   4.554   0.815   2.365 -0.9032  0.1833  0.0473
 1210SOL    HW3 4886   4.485   0.828   2.231 -0.1869  0.2224 -0.3165
 1210SOL    MW4 4887   4.482   0.829   2.318 -0.6522  0.1938 -0.3328
 1211SOL     OW 4888   4.482   1.118   2.352  0.4827  0.5838 -0.4378
 1211SOL    HW2 4889   4.485   1.135   2.447 -0.5611 -0.6323 -0.1683
 1211SOL    HW3 4890   4.482   1.022   2.345 -0.3525  0.6605 -1.6276
 1211SOL    MW4 4891   4.482   1.107   2.364  0.2351  0.4336 -0.5593
 1212SOL     OW 4892   0.219   1.278   2.267 -0.3003  0.0567 -0.2673
 1212SOL    HW2 4893   0.141   1.223   2.277 -1.6847  1.8396 -1.0214
 1212SOL    HW3 4894   0.248   1.263   2.177 -1.2441  1.2353 -0.7898
 1212SOL    MW4 4895   0.212   1.269   2.257 -0.6074  0.4475 -0.4358
 1213SOL     OW 4896   0.233   1.529   2.383 -0.9430 -0.1207  0.0095
 1213SOL    HW2 4897   0.258   1.507   2.473  1.5841  0.1871 -0.5702
 1213SOL    HW3 4898   0.212   1.444   2.343  0.1413 -0.5106  0.2561
 1213SOL    MW4 4899   0.233   1.515   2.390 -0.4665 -0.1317 -0.0346
 1214SOL     OW 4900   0.020   1.663   2.270 -0.1029 -0.1654 -0.2294
 1214SOL    HW2 4901   0.010   1.735   2.332  0.1686  1.2033 -1.7472
 1214SOL    HW3 4902   0.095   1.613   2.302  1.2322  1.6222 -0.4927
 1214SOL    MW4 4903   0.028   1.666   2.282  0.1091  0.2511 -0.4642
 1215SOL     OW 4904   4.490   1.907   2.419  0.3317  0.1613  0.4496
 1215SOL    HW2 4905   4.409   1.955   2.398 -0.2903 -1.5499 -1.2959
 1215SOL    HW3 4906   4.559   1.958   2.377  0.0080  0.9514  0.8647
 1215SOL    MW4 4907   4.488   1.920   2.410  0.2069  0.0397  0.2739
 1216SOL     OW 4908   0.217   2.038   2.288 -0.9202 -0.4665  0.4263
 1216SOL    HW2 4909   0.304   1.997   2.296  0.5821  2.3692 -0.6633
 1216SOL    HW3 4910   0.206   2.051   2.194 -1.7577  0.8297  0.6970
 1216SOL    MW4 4911   0.227   2.034   2.276 -0.8325  0.0787  0.3183
 1217SOL     OW 4912   0.213   2.303   2.390 -0.4703  0.1286 -0.0126
 1217SOL    HW2 4913   0.203   2.286   2.484  1.5749 -0.2378  0.1602
 1217SOL    HW3 4914   0.207   2.216   2.349 -1.6314  0.3187 -0.2468
 1217SOL    MW4 4915   0.211   2.289   2.397 -0.3537  0.1054 -0.0203
 1218SOL     OW 4916   4.474   2.430   2.271 -0.7142 -0.3969  0.3258
 1218SOL    HW2 4917   4.479   2.525   2.281  0.5657 -0.4913  0.7351
 1218SOL    HW3 4918   4.554   2.397   2.314  0.2158 -1.4616 -2.1406
 1218SOL    MW4 4919   4.485   2.438   2.278 -0.4226 -0.5496  0.0544
 1219SOL     OW 4920   4.454   2.703   2.336 -0.1390 -0.3652  0.2681
 1219SOL    HW2 4921   4.458   2.698   2.432 -0.3612  0.7261  0.3411
 1219SOL    HW3 4922   4.539   2.738   2.310 -0.1161 -0.5643  0.0743
 1219SOL    MW4 4923   4.466   2.707   2.345 -0.1655 -0.2475  0.2520
 1220SOL     OW 4924   0.191   2.812   2.266  0.0024 -0.0338  0.3324
 1220SOL    HW2 4925   0.269   2.762   2.290  0.3714  1.2575  1.9335
 1220SOL    HW3 4926   0.202   2.832   2.173  1.3581 -0.2361  0.4506
 1220SOL    MW4 4927   0.202   2.808   2.257  0.2300  0.1101  0.5593
 1221SOL     OW 4928   0.189   3.065   2.388 -0.2156  0.5570 -0.3734
 1221SOL    HW2 4929   0.115   3.108   2.345  1.2272  0.9185 -2.5700
 1221SOL    HW3 4930   0.188   2.976   2.354  0.0822  0.4356 -0.0636
 1221SOL    MW4 4931   0.179   3.059   2.377  0.0141  0.5889 -0.6223
 1222SOL     OW 4932   4.464   3.197   2.275 -0.1420 -0.0566  0.0332
 1222SOL    HW2 4933   4.480   3.289   2.297  0.4610 -0.3077  0.6613
 1222SOL    HW3 4934   4.473   3.193   2.180  0.1660  0.4671  0.0365
 1222SOL    MW4 4935   4.467   3.209   2.266 -0.0218 -0.0207  0.1166
 1223SOL     OW 4936   4.464   3.456   2.368 -0.2278  0.6984  0.3968
 1223SOL    HW2 4937   4.466   3.453   2.463  0.6231  0.8513  0.3896
 1223SOL    HW3 4938   4.383   3.503   2.347 -0.2987  0.8697  1.0442
 1223SOL    MW4 4939   4.454   3.462   2.377 -0.1245  0.7412  0.4811
 1224SOL     OW 4940   0.216   3.619   2.286  0.0587  0.1603 -0.4988
 1224SOL    HW2 4941   0.282   3.562   2.324  0.6928  1.2356  0.0328
 1224SOL    HW3 4942   0.133   3.576   2.306  0.5277 -0.5302 -0.0203
 1224SOL    MW4 4943   0.213   3.606   2.294  0.2043  0.2110 -0.3655
 1225SOL     OW 4944   0.251   3.873   2.406 -0.2870  0.3672  0.1998
 1225SOL    HW2 4945   0.184   3.929   2.367  0.0097  0.3876 -0.2856
 1225SOL    HW3 4946   0.245   3.791   2.357 -0.8434 -0.0894  1.0290
 1225SOL    MW4 4947   0.241   3.870   2.394 -0.3212  0.3095  0.2453
 1226SOL     OW 4948   0.023   3.976   2.286 -0.3801 -0.3048  0.0653
 1226SOL    HW2 4949   0.017   4.067   2.313 -1.7175 -0.2795 -0.2433
 1226SOL    HW3 4950   0.019   3.979   2.190  3.3247 -0.4564 -0.1468
 1226SOL    MW4 4951   0.022   3.988   2.277 -0.0677 -0.3214 -0.0033
 1227SOL     OW 4952   0.003   4.232   2.355  0.0363  0.2541 -0.1149
 1227SOL    HW2 4953   0.009   4.236   2.451  1.5526 -0.7366 -0.1526
 1227SOL    HW3 4954   0.082   4.277   2.324 -0.6385  0.9049 -0.9219
 1227SOL    MW4 4955   0.014   4.239   2.364  0.1473  0.2098 -0.2263
 1228SOL     OW 4956   0.246   4.358   2.264 -0.0854  0.1605 -0.2141
 1228SOL    HW2 4957   0.309   4.329   2.330 -0.4444  0.7547  0.3908
 1228SOL    HW3 4958   0.228   4.449   2.286  2.0517  1.2985 -2.8862
 1228SOL    MW4 4959   0.252   4.366   2.276  0.1492  0.3886 -0.4866
 1229SOL     OW 4960   0.674   4.642   2.380 -0.0406  0.2001 -0.2048
 1229SOL    HW2 4961   0.669   4.643   2.476 -0.9153  1.0193 -0.2503
 1229SOL    HW3 4962   0.744   4.704   2.359  0.3665 -0.2121 -0.0974
 1229SOL    MW4 4963   0.683   4.650   2.390 -0.1023  0.2542 -0.1967
 1230SOL     OW 4964   0.434   0.085   2.302  0.4239  0.2601  0.1839
 1230SOL    HW2 4965   0.514   0.049   2.339 -0.5561 -0.8043  1.3157
 1230SOL    HW3 4966   0.453   0.096   2.209  2.0708  0.5884  0.5511
 1230SOL    MW4 4967   0.447   0.082   2.294  0.5119  0.1630  0.3817
 1231SOL     OW 4968   0.429   0.354   2.383  0.2598  0.2747 -0.3315
 1231SOL    HW2 4969   0.422   0.340   2.477  0.9556 -0.2796 -0.3569
 1231SOL    HW3 4970   0.430   0.266   2.346 -1.4349  0.5039 -0.9696
 1231SOL    MW4 4971   0.428   0.341   2.390  0.1280  0.2318 -0.4189
 1232SOL     OW 4972   0.647   0.481   2.248 -0.0195 -0.4523 -0.7800
 1232SOL    HW2 4973   0.656   0.574   2.271 -0.3125 -0.3137 -1.2208
 1232SOL    HW3 4974   0.561   0.456   2.282  0.3285 -0.7341 -0.0937
 1232SOL    MW4 4975   0.637   0.490   2.256 -0.0123 -0.4712 -0.7477
 1233SOL     OW 4976   0.664   0.757   2.353 -0.4393 -0.7263 -0.0226
 1233SOL    HW2 4977   0.682   0.743   2.446  0.8881 -0.3172 -0.2017
 1233SOL    HW3 4978   0.590   0.817   2.351 -0.4982 -0.7722  0.7674
 1233SOL    MW4 4979   0.656   0.763   2.365 -0.2719 -0.6784  0.0579
 1234SOL     OW 4980   0.443   0.904   2.269 -0.2642 -0.2666  0.0787
 1234SOL    HW2 4981   0.370   0.852   2.300 -0.5019  0.7216  1.1893
 1234SOL    HW3 4982   0.449   0.883   2.175 -1.4833 -0.9033  0.1371
 1234SOL    MW4 4983   0.434   0.894   2.261 -0.4564 -0.2202  0.2329
 1235SOL     OW 4984   0.438   1.164   2.379  0.5167 -0.0128 -0.5200
 1235SOL    HW2 4985   0.424   1.077   2.341  0.1365  0.5437 -1.6572
 1235SOL    HW3 4986   0.365   1.217   2.346  0.0025  0.4191  1.2001
 1235SOL    MW4 4987   0.426   1.159   2.370  0.3987  0.1177 -0.4430
 1236SOL     OW 4988   0.681   1.246   2.221  0.2847  0.1287 -0.1762
 1236SOL    HW2 4989   0.683   1.333   2.262 -1.1155  0.0091  0.1755
 1236SOL    HW3 4990   0.611   1.199   2.267 -0.3361 -0.4971 -1.7096
 1236SOL    MW4 4991   0.672   1.252   2.233  0.0180  0.0303 -0.3321
 1237SOL     OW 4992   0.665   1.482   2.361 -0.3553  0.0465 -0.1006
 1237SOL    HW2 4993   0.673   1.474   2.456  1.6962 -0.7998 -0.3151
 1237SOL    HW3 4994   0.739   1.537   2.336 -1.2768  0.8334 -1.1626
 1237SOL    MW4 4995   0.676   1.488   2.371 -0.2062  0.0387 -0.2689
 1238SOL     OW 4996   0.456   1.632   2.263  0.3925  0.7405  0.3423
 1238SOL    HW2 4997   0.532   1.588   2.301 -0.3558  0.9365  2.1017
 1238SOL    HW3 4998   0.382   1.601   2.314 -0.5567  1.5008 -0.5581
 1238SOL    MW4 4999   0.456   1.622   2.275  0.1685  0.8667  0.4559
 1239SOL     OW 5000   0.480   1.896   2.355 -0.0567  0.6104 -0.1152
 1239SOL    HW2 5001   0.555   1.936   2.310  0.2997  0.0828  0.0054
 1239SOL    HW3 5002   0.475   1.807   2.320  0.4238  0.0862  1.1078
 1239SOL    MW4 5003   0.489   1.890   2.344  0.0537  0.4716  0.0622
 1240SOL     OW 5004   0.714   2.029   2.245 -0.1951  0.0870  0.0924
 1240SOL    HW2 5005   0.793   1.987   2.278  0.5128  1.1654 -0.1764
 1240SOL    HW3 5006   0.708   2.110   2.295 -0.2779  0.7303 -0.9336
 1240SOL    MW4 5007   0.724   2.034   2.256 -0.1126  0.3142 -0.0784
 1241SOL     OW 5008   0.661   2.268   2.389  0.8408 -0.2253  0.1391
 1241SOL    HW2 5009   0.656   2.271   2.484 -0.5492 -0.0495  0.0710
 1241SOL    HW3 5010   0.728   2.333   2.366 -1.4006  2.4207  0.8137
 1241SOL    MW4 5011   0.669   2.277   2.398  0.3617  0.1471  0.2191
 1242SOL     OW 5012   0.453   2.423   2.272  0.2685 -0.6394 -0.7147
 1242SOL    HW2 5013   0.525   2.375   2.313  0.7028  0.8331  0.2642
 1242SOL    HW3 5014   0.375   2.393   2.320  0.5314 -0.4373 -0.1475
 1242SOL    MW4 5015   0.452   2.412   2.284  0.3605 -0.4184 -0.5109
 1243SOL     OW 5016   0.436   2.691   2.346  0.1980  0.0044 -0.1173
 1243SOL    HW2 5017   0.435   2.688   2.441  2.2960 -0.7488 -0.0914
 1243SOL    HW3 5018   0.433   2.599   2.319  0.0977  0.1988 -0.7724
 1243SOL    MW4 5019   0.435   2.678   2.355  0.4616 -0.0694 -0.2005
 1244SOL     OW 5020   0.635   2.857   2.274 -0.7393  1.2024  0.1009
 1244SOL    HW2 5021   0.711   2.807   2.301 -0.6916  0.8336 -0.6995
 1244SOL    HW3 5022   0.560   2.808   2.307 -0.7229  0.1891 -1.3313
 1244SOL    MW4 5023   0.635   2.844   2.282 -0.7308  1.0204 -0.1934
 1245SOL     OW 5024   0.657   3.114   2.367  0.3484  0.1145  0.0555
 1245SOL    HW2 5025   0.570   3.146   2.343 -0.1731 -0.0646  1.6765
 1245SOL    HW3 5026   0.655   3.020   2.347  0.0327  0.0346  0.4535
 1245SOL    MW4 5027   0.645   3.106   2.361  0.2379  0.0803  0.3216
 1246SOL     OW 5028   0.409   3.217   2.279 -0.5177 -0.6041  0.1468
 1246SOL    HW2 5029   0.326   3.174   2.301 -0.3183 -1.0421  0.0583
 1246SOL    HW3 5030   0.403   3.234   2.186 -0.3577 -0.9818  0.0636
 1246SOL    MW4 5031   0.397   3.213   2.270 -0.4703 -0.7119  0.1240
 1247SOL     OW 5032   0.415   3.472   2.393  0.1961 -0.0710  0.4363
 1247SOL    HW2 5033   0.496   3.521   2.376  0.4711 -0.4849  0.5292
 1247SOL    HW3 5034   0.428   3.388   2.348 -0.2679 -0.0580  0.2832
 1247SOL    MW4 5035   0.428   3.467   2.385  0.1711 -0.1237  0.4284
 1248SOL     OW 5036   0.673   3.575   2.295  0.1486 -0.2604 -0.3645
 1248SOL    HW2 5037   0.666   3.663   2.333 -0.3971 -0.1201 -0.7801
 1248SOL    HW3 5038   0.679   3.590   2.201 -0.7609 -0.6979 -0.4987
 1248SOL    MW4 5039   0.673   3.588   2.288 -0.0435 -0.2995 -0.4370
 1249SOL     OW 5040   0.652   3.849   2.405  0.0784 -0.1065  0.1959
 1249SOL    HW2 5041   0.664   3.881   2.494 -0.7915 -0.7996  0.5645
 1249SOL    HW3 5042   0.581   3.902   2.369  0.1066 -0.1500  0.0737
 1249SOL    MW4 5043   0.644   3.860   2.412 -0.0327 -0.2038  0.2282
 1250SOL     OW 5044   0.468   4.028   2.283 -0.2707 -0.0058  0.2373
 1250SOL    HW2 5045   0.394   3.983   2.324 -0.8305  0.1281 -0.6107
 1250SOL    HW3 5046   0.461   4.006   2.190  0.0179  1.0474 -0.0364
 1250SOL    MW4 5047   0.458   4.019   2.276 -0.3065  0.1507  0.0896
 1251SOL     OW 5048   0.469   4.274   2.405  0.0457  0.3648  0.6754
 1251SOL    HW2 5049   0.541   4.317   2.359 -0.5616  0.3857 -0.2712
 1251SOL    HW3 5050   0.456   4.191   2.358 -0.5729  0.3808  0.8109
 1251SOL    MW4 5051   0.476   4.268   2.393 -0.1160  0.3700  0.5682
 1252SOL     OW 5052   0.689   4.385   2.272  0.1728 -0.3519  0.0042
 1252SOL    HW2 5053   0.678   4.477   2.298  1.8938 -0.3525  0.8321
 1252SOL    HW3 5054   0.682   4.386   2.177 -0.2168  0.5707  0.0334
 1252SOL    MW4 5055   0.687   4.398   2.263  0.3484 -0.2298  0.1173
 1253SOL     OW 5056   1.119   4.649   2.365 -0.3844 -0.2334  0.0866
 1253SOL    HW2 5057   1.132   4.662   2.459  1.4740  0.0983 -0.1852
 1253SOL    HW3 5058   1.043   4.702   2.343  0.3607  1.2783  1.0489
 1253SOL    MW4 5059   1.111   4.658   2.374 -0.0409  0.0100  0.1776
 1254SOL     OW 5060   0.893   0.140   2.288 -0.3526  0.0884 -0.2106
 1254SOL    HW2 5061   0.904   0.232   2.311 -1.3720  0.5464 -1.5409
 1254SOL    HW3 5062   0.888   0.139   2.193 -0.1174 -1.3758 -0.2150
 1254SOL    MW4 5063   0.894   0.152   2.279 -0.4561 -0.0443 -0.3870
 1255SOL     OW 5064   0.866   0.390   2.398  0.4038 -0.2091  0.2294
 1255SOL    HW2 5065   0.928   0.436   2.341  0.1012  0.2487  0.2751
 1255SOL    HW3 5066   0.780   0.421   2.372  0.2151 -0.5423  0.4452
 1255SOL    MW4 5067   0.863   0.400   2.387  0.3390 -0.1926  0.2642
 1256SOL     OW 5068   1.096   0.511   2.263  0.5764  0.5205  0.4820
 1256SOL    HW2 5069   1.172   0.460   2.291  1.1326  1.3515  0.5005
 1256SOL    HW3 5070   1.108   0.520   2.168 -1.6396 -2.8511 -0.2161
 1256SOL    MW4 5071   1.108   0.505   2.254  0.3573  0.1853  0.3924
 1257SOL     OW 5072   1.125   0.759   2.388  0.3237  0.7494  0.1910
 1257SOL    HW2 5073   1.049   0.799   2.345 -0.6280  1.1297  2.1545
 1257SOL    HW3 5074   1.129   0.671   2.350  0.0751  1.3691 -1.3314
 1257SOL    MW4 5075   1.115   0.753   2.377  0.1655  0.8813  0.2491
 1258SOL     OW 5076   0.910   0.853   2.244 -0.2727 -0.4078 -0.2096
 1258SOL    HW2 5077   0.907   0.941   2.283 -0.9634 -0.4852 -0.0819
 1258SOL    HW3 5078   0.827   0.813   2.270 -0.2609 -0.8480 -0.8527
 1258SOL    MW4 5079   0.899   0.860   2.253 -0.3623 -0.4761 -0.2775
 1259SOL     OW 5080   0.900   1.113   2.339  0.2249 -0.0750 -0.0385
 1259SOL    HW2 5081   0.964   1.176   2.307  0.0341  0.4927  0.6780
 1259SOL    HW3 5082   0.816   1.147   2.309 -0.1993  1.7211  2.9458
 1259SOL    MW4 5083   0.898   1.126   2.331  0.1438  0.2369  0.4497
 1260SOL     OW 5084   1.102   1.269   2.255 -0.1267  0.0154 -0.0909
 1260SOL    HW2 5085   1.185   1.228   2.281 -0.4408 -0.7935 -0.3564
 1260SOL    HW3 5086   1.106   1.275   2.160 -0.0251  0.7448 -0.0487
 1260SOL    MW4 5087   1.114   1.265   2.246 -0.1546  0.0050 -0.1202
 1261SOL     OW 5088   1.086   1.535   2.351  0.2459  0.0442 -0.3489
 1261SOL    HW2 5089   1.004   1.562   2.309 -0.3304 -0.6303  0.3426
 1261SOL    HW3 5090   1.097   1.443   2.326  0.6131  0.0337 -0.1577
 1261SOL    MW4 5091   1.077   1.526   2.342  0.2184 -0.0461 -0.2325
 1262SOL     OW 5092   0.866   1.648   2.213 -0.0742 -0.0895 -0.2534
 1262SOL    HW2 5093   0.902   1.730   2.244 -1.1530  1.0944 -2.0566
 1262SOL    HW3 5094   0.854   1.660   2.119 -0.7720 -2.0988 -0.4564
 1262SOL    MW4 5095   0.869   1.660   2.205 -0.3086 -0.1984 -0.5186
 1263SOL     OW 5096   0.936   1.886   2.339  0.3191 -0.3080  0.1955
 1263SOL    HW2 5097   0.918   1.882   2.433  0.4551  1.3060  0.3090
 1263SOL    HW3 5098   1.010   1.946   2.331 -0.3998  0.4543 -1.0194
 1263SOL    MW4 5099   0.943   1.893   2.350  0.2422  0.0055  0.0503
 1264SOL     OW 5100   1.134   2.055   2.245  0.0131 -0.1513  0.3855
 1264SOL    HW2 5101   1.207   2.012   2.290 -0.1118  0.9608  1.6554
 1264SOL    HW3 5102   1.154   2.044   2.152  1.2773 -0.7477  0.7154
 1264SOL    MW4 5103   1.146   2.047   2.238  0.1633 -0.0834  0.5963
 1265SOL     OW 5104   1.124   2.307   2.307 -0.1248  0.0329  0.3763
 1265SOL    HW2 5105   1.201   2.350   2.271  0.1128 -1.1280 -0.5460
 1265SOL    HW3 5106   1.134   2.215   2.281 -1.2421 -0.3408  1.2283
 1265SOL    MW4 5107   1.136   2.300   2.299 -0.2408 -0.1695  0.3669
 1266SOL     OW 5108   0.859   2.427   2.299 -0.2112  0.0449 -0.1639
 1266SOL    HW2 5109   0.936   2.377   2.326 -0.4799 -0.2865 -0.0025
 1266SOL    HW3 5110   0.867   2.435   2.204 -0.6349 -1.1048 -0.3017
 1266SOL    MW4 5111   0.870   2.422   2.290 -0.3026 -0.1504 -0.1609
 1267SOL     OW 5112   0.857   2.716   2.344  0.0103  0.2573  0.0377
 1267SOL    HW2 5113   0.861   2.714   2.440 -1.1067 -1.8498  0.0654
 1267SOL    HW3 5114   0.869   2.625   2.318  0.7179  0.8778 -1.8665
 1267SOL    MW4 5115   0.859   2.704   2.353 -0.0437  0.0610 -0.2098
 1268SOL     OW 5116   1.086   2.861   2.281  0.0273  0.1886 -0.2596
 1268SOL    HW2 5117   1.154   2.802   2.315 -0.5819 -1.3405 -1.6431
 1268SOL    HW3 5118   1.004   2.822   2.311 -0.3794  0.2771 -1.2599
 1268SOL    MW4 5119   1.084   2.848   2.289 -0.1068 -0.0017 -0.5741
 1269SOL     OW 5120   1.110   3.122   2.364 -0.0550  0.2122  0.4267
 1269SOL    HW2 5121   1.029   3.164   2.334  0.1505 -1.9310 -3.4587
 1269SOL    HW3 5122   1.104   3.032   2.332  3.7997 -0.0327  0.1533
 1269SOL    MW4 5123   1.099   3.116   2.355  0.4807 -0.1028 -0.1221
 1270SOL     OW 5124   0.891   3.229   2.277  0.2835  0.1362  0.6802
 1270SOL    HW2 5125   0.891   3.321   2.305 -0.0023  1.1162 -2.3930
 1270SOL    HW3 5126   0.803   3.199   2.296  0.1675  0.7082  1.0757
 1270SOL    MW4 5127   0.880   3.237   2.283  0.2305  0.3412  0.3271
 1271SOL     OW 5128   0.931   3.500   2.372 -0.1216  0.2607  0.0349
 1271SOL    HW2 5129   0.920   3.480   2.465 -0.6479  0.0423 -0.0743
 1271SOL    HW3 5130   0.843   3.523   2.342  0.3933  2.4712  0.1053
 1271SOL    MW4 5131   0.918   3.501   2.381 -0.1231  0.5238  0.0300
 1272SOL     OW 5132   1.148   3.633   2.262  0.0104  0.3261 -0.0784
 1272SOL    HW2 5133   1.226   3.586   2.289  0.1128  2.2603  3.2148
 1272SOL    HW3 5134   1.076   3.588   2.307 -0.3299  0.8272 -0.1121
 1272SOL    MW4 5135   1.149   3.621   2.272 -0.0207  0.6473  0.3517
 1273SOL     OW 5136   1.104   3.888   2.361  0.1026  0.1269  0.2481
 1273SOL    HW2 5137   1.180   3.924   2.314 -0.7176 -1.1330 -2.1664
 1273SOL    HW3 5138   1.103   3.796   2.336 -2.9252  0.3778 -0.7734
 1273SOL    MW4 5139   1.114   3.881   2.351 -0.4051 -0.0060 -0.2053
 1274SOL     OW 5140   0.869   3.982   2.266 -0.1140  0.2000  0.0380
 1274SOL    HW2 5141   0.954   3.954   2.299 -0.2555 -1.5745 -1.0493
 1274SOL    HW3 5142   0.806   3.937   2.323 -0.3395  0.6323  0.1339
 1274SOL    MW4 5143   0.872   3.973   2.278 -0.1624  0.0226 -0.0927
 1275SOL     OW 5144   0.875   4.235   2.396 -0.0865  0.0262 -0.2958
 1275SOL    HW2 5145   0.888   4.151   2.353 -0.2290  1.2048 -2.7203
 1275SOL    HW3 5146   0.809   4.280   2.342 -0.3456  1.5156  1.2106
 1275SOL    MW4 5147   0.868   4.230   2.384 -0.1395  0.3777 -0.4170
 1276SOL     OW 5148   1.088   4.389   2.261  0.1784  0.2128 -0.1668
 1276SOL    HW2 5149   1.022   4.340   2.311 -0.6607  0.7834 -0.7146
 1276SOL    HW3 5150   1.085   4.477   2.298  0.9576  0.1192  0.1168
 1276SOL    MW4 5151   1.079   4.394   2.273  0.1705  0.2756 -0.2017
 1277SOL     OW 5152   1.603   0.014   2.387 -0.3583  0.3603  0.3943
 1277SOL    HW2 5153   1.677   0.048   2.336 -0.4873  1.4465  0.9051
 1277SOL    HW3 5154   1.526   0.056   2.347 -0.6019  0.0228  0.5073
 1277SOL    MW4 5155   1.602   0.024   2.375 -0.4075  0.4591  0.4764
 1278SOL     OW 5156   1.357   0.098   2.257  0.5986 -0.1143 -0.0973
 1278SOL    HW2 5157   1.348   0.192   2.271  0.2770  0.0014 -1.0043
 1278SOL    HW3 5158   1.279   0.060   2.297  0.4004  0.0682 -0.3079
 1278SOL    MW4 5159   1.346   0.106   2.264  0.5301 -0.0749 -0.2449
 1279SOL     OW 5160   1.331   0.349   2.325  0.0012  0.1191  0.0001
 1279SOL    HW2 5161   1.333   0.336   2.419 -1.2725 -1.7031 -0.1964
 1279SOL    HW3 5162   1.411   0.399   2.306  0.6674 -0.1644  1.9381
 1279SOL    MW4 5163   1.342   0.354   2.335 -0.0790 -0.1587  0.2298
 1280SOL     OW 5164   1.558   0.496   2.251  0.2715  0.3298  0.2399
 1280SOL    HW2 5165   1.627   0.447   2.294 -0.3867  0.5141  1.5443
 1280SOL    HW3 5166   1.566   0.475   2.158  0.6570 -1.3952  0.6656
 1280SOL    MW4 5167   1.568   0.487   2.245  0.2354  0.1265  0.4683
 1281SOL     OW 5168   1.553   0.769   2.321  0.2466  0.5364  0.2253
 1281SOL    HW2 5169   1.642   0.798   2.300 -0.1058  1.4724 -0.0378
 1281SOL    HW3 5170   1.546   0.681   2.285  1.1197  0.4022  0.3830
 1281SOL    MW4 5171   1.563   0.762   2.314  0.3153  0.6422  0.2117
 1282SOL     OW 5172   1.325   0.863   2.208 -0.1722 -0.4655 -0.3306
 1282SOL    HW2 5173   1.408   0.835   2.245 -0.1980 -2.5267 -1.8068
 1282SOL    HW3 5174   1.259   0.825   2.265 -0.1452  0.1245  0.1046
 1282SOL    MW4 5175   1.327   0.855   2.220 -0.1721 -0.6597 -0.4678
 1283SOL     OW 5176   1.339   1.157   2.283 -0.0198 -0.1254 -0.5086
 1283SOL    HW2 5177   1.355   1.158   2.377  2.4204 -0.0623 -0.8898
 1283SOL    HW3 5178   1.333   1.064   2.260  1.4225 -0.2022 -0.5987
 1283SOL    MW4 5179   1.340   1.145   2.292  0.4923 -0.1272 -0.5708
 1284SOL     OW 5180   1.569   1.295   2.215 -0.0269  0.0672 -0.2185
 1284SOL    HW2 5181   1.493   1.239   2.231 -0.2358  0.2352 -0.6184
 1284SOL    HW3 5182   1.580   1.294   2.120  0.1422  0.4800 -0.2056
 1284SOL    MW4 5183   1.561   1.287   2.205 -0.0322  0.1438 -0.2697
 1285SOL     OW 5184   1.548   1.543   2.349 -0.2607 -0.1290 -0.3094
 1285SOL    HW2 5185   1.628   1.591   2.325  0.6573 -1.2567  0.5008
 1285SOL    HW3 5186   1.556   1.459   2.304 -0.3984 -0.7365  0.8042
 1285SOL    MW4 5187   1.560   1.538   2.340 -0.1577 -0.3579 -0.0558
 1286SOL     OW 5188   1.307   1.671   2.268  0.4462 -0.5314 -0.6316
 1286SOL    HW2 5189   1.383   1.621   2.300 -0.1596 -2.0738 -1.5539
 1286SOL    HW3 5190   1.232   1.626   2.306 -0.0112  1.1168  0.4427
 1286SOL    MW4 5191   1.307   1.658   2.277  0.3060 -0.5174 -0.6115
 1287SOL     OW 5192   1.344   1.932   2.382  0.1047 -0.0885 -0.6091
 1287SOL    HW2 5193   1.428   1.960   2.345  0.0625  1.6541  0.5631
 1287SOL    HW3 5194   1.334   1.841   2.352  2.8082 -0.6127 -0.0764
 1287SOL    MW4 5195   1.354   1.923   2.373  0.4557  0.0721 -0.3841
 1288SOL     OW 5196   1.572   2.044   2.276  0.1458 -0.2498 -0.4295
 1288SOL    HW2 5197   1.660   2.018   2.305  1.1348  1.2069 -2.0097
 1288SOL    HW3 5198   1.579   2.051   2.181 -1.2977  1.2716 -0.4505
 1288SOL    MW4 5199   1.585   2.042   2.267  0.0857  0.1433 -0.6406
 1289SOL     OW 5200   1.572   2.314   2.342 -0.7038 -0.3041 -0.0155
 1289SOL    HW2 5201   1.579   2.316   2.437 -0.0247 -0.4276 -0.0591
 1289SOL    HW3 5202   1.555   2.222   2.320  0.5944 -0.5427 -0.0978
 1289SOL    MW4 5203   1.571   2.302   2.352 -0.4429 -0.3517 -0.0322
 1290SOL     OW 5204   1.357   2.435   2.249  0.2082  0.4555  0.0826
 1290SOL    HW2 5205   1.430   2.389   2.290 -1.0977 -1.3683  0.4480
 1290SOL    HW3 5206   1.357   2.404   2.158  0.5131  1.2268 -0.1790
 1290SOL    MW4 5207   1.366   2.425   2.242  0.0762  0.3164  0.0963
 1291SOL     OW 5208   1.317   2.707   2.324  0.2302 -0.4588  0.4843
 1291SOL    HW2 5209   1.401   2.744   2.298  0.0509 -1.3609 -1.4967
 1291SOL    HW3 5210   1.320   2.617   2.293  0.2531 -1.8868  4.3231
 1291SOL    MW4 5211   1.329   2.700   2.316  0.2097 -0.7660  0.7293
 1292SOL     OW 5212   1.582   2.843   2.299 -0.0183 -0.2050 -0.8362
 1292SOL    HW2 5213   1.581   2.931   2.334  0.0107  0.6445 -2.9027
 1292SOL    HW3 5214   1.583   2.854   2.204 -0.3856 -2.4207 -1.1454
 1292SOL    MW4 5215   1.582   2.856   2.291 -0.0629 -0.3855 -1.1497
 1293SOL     OW 5216   1.610   3.098   2.359 -0.3537 -0.2627 -0.0430
 1293SOL    HW2 5217   1.607   3.087   2.454  0.9314 -0.5990 -0.0268
 1293SOL    HW3 5218   1.520   3.118   2.334 -0.4069  1.4853  1.4461
 1293SOL    MW4 5219   1.598   3.099   2.368 -0.1912 -0.0763  0.1554
 1294SOL     OW 5220   1.361   3.202   2.297  0.2806  0.0226  0.3617
 1294SOL    HW2 5221   1.280   3.156   2.322 -0.0652  0.1494 -0.5071
 1294SOL    HW3 5222   1.353   3.213   2.202  1.7338 -0.7630  0.1453
 1294SOL    MW4 5223   1.349   3.197   2.288  0.4267 -0.0641  0.2189
 1295SOL     OW 5224   1.361   3.502   2.374 -0.7991  0.3047 -0.1747
 1295SOL    HW2 5225   1.358   3.508   2.469 -0.5418 -0.5301 -0.1163
 1295SOL    HW3 5226   1.351   3.409   2.355 -2.9026  0.7019 -1.0527
 1295SOL    MW4 5227   1.359   3.491   2.384 -1.0426  0.2470 -0.2830
 1296SOL     OW 5228   1.596   3.602   2.261 -0.0863  0.2170  0.0154
 1296SOL    HW2 5229   1.586   3.693   2.287 -0.4894 -0.1707  1.2445
 1296SOL    HW3 5230   1.518   3.558   2.295  0.1145 -0.5868 -0.5439
 1296SOL    MW4 5231   1.584   3.608   2.269 -0.1129  0.0601  0.1035
 1297SOL     OW 5232   1.552   3.859   2.337 -0.2546  0.0170  0.6090
 1297SOL    HW2 5233   1.535   3.873   2.430  0.7946 -0.1754  0.8375
 1297SOL    HW3 5234   1.627   3.914   2.317 -0.0110 -0.5020  0.0567
 1297SOL    MW4 5235   1.560   3.868   2.347 -0.0840 -0.0770  0.5662
 1298SOL     OW 5236   1.338   4.022   2.243  0.3383 -0.0289  0.2893
 1298SOL    HW2 5237   1.406   3.963   2.274  2.4194  1.8370 -0.6441
 1298SOL    HW3 5238   1.334   4.008   2.148 -0.9496 -0.4775  0.3897
 1298SOL    MW4 5239   1.346   4.012   2.235  0.4430  0.1578  0.1795
 1299SOL     OW 5240   1.338   4.292   2.327 -0.1942 -0.2716 -0.0473
 1299SOL    HW2 5241   1.342   4.204   2.288 -0.3739 -0.5579  0.5717
 1299SOL    HW3 5242   1.250   4.324   2.306 -0.0334 -0.1244 -0.5102
 1299SOL    MW4 5243   1.327   4.285   2.319 -0.1967 -0.2899 -0.0267
 1300SOL     OW 5244   1.565   4.432   2.264  0.3418 -0.2870 -0.5596
 1300SOL    HW2 5245   1.489   4.391   2.306 -1.0479  1.5084 -1.2158
 1300SOL    HW3 5246   1.574   4.516   2.307  2.0349 -0.5016 -0.4516
 1300SOL    MW4 5247   1.556   4.438   2.275  0.3818 -0.0787 -0.6320
 1301SOL     OW 5248   2.018   4.661   2.327  0.2394 -0.0428 -0.6156
 1301SOL    HW2 5249   2.096   4.705   2.292 -0.1090 -0.2007 -1.6185
 1301SOL    HW3 5250   2.033   4.568   2.310  0.2595 -0.1679  0.0681
 1301SOL    MW4 5251   2.030   4.655   2.320  0.1960 -0.0801 -0.6578
 1302SOL     OW 5252   1.807   0.103   2.211  0.0025 -0.2061 -0.5129
 1302SOL    HW2 5253   1.802   0.187   2.257  1.7795  0.0737 -0.7920
 1302SOL    HW3 5254   1.891   0.066   2.239  1.0111 -0.1363 -3.3573
 1302SOL    MW4 5255   1.817   0.110   2.221  0.3700 -0.1600 -0.9248
 1303SOL     OW 5256   1.770   0.357   2.344  0.4360 -0.1379 -0.1094
 1303SOL    HW2 5257   1.776   0.348   2.439 -0.6252 -0.0241 -0.0215
 1303SOL    HW3 5258   1.842   0.415   2.321  0.5933 -0.0164  0.6544
 1303SOL    MW4 5259   1.780   0.363   2.354  0.3167 -0.1068  0.0031
 1304SOL     OW 5260   2.014   0.498   2.260  0.2340  0.4434  0.4692
 1304SOL    HW2 5261   2.026   0.585   2.298  2.0973 -0.1490  1.3017
 1304SOL    HW3 5262   2.030   0.511   2.166  0.8624  0.9161  0.6414
 1304SOL    MW4 5263   2.018   0.511   2.252  0.5627  0.4275  0.6020
 1305SOL     OW 5264   2.055   0.761   2.350  0.2538  0.3055  0.1929
 1305SOL    HW2 5265   2.131   0.812   2.323 -0.0323 -0.0811 -1.3684
 1305SOL    HW3 5266   1.981   0.802   2.306 -0.2668 -0.1504  0.6315
 1305SOL    MW4 5267   2.055   0.773   2.341  0.1473  0.1944  0.0446
 1306SOL     OW 5268   1.816   0.855   2.258 -0.2967  0.2154 -0.0877
 1306SOL    HW2 5269   1.812   0.950   2.269 -0.7882  0.3914 -1.6882
 1306SOL    HW3 5270   1.804   0.841   2.164 -0.2852 -1.4366  0.1414
 1306SOL    MW4 5271   1.814   0.865   2.247 -0.3600  0.0206 -0.2685
 1307SOL     OW 5272   1.797   1.119   2.300  0.2914  0.4296 -0.0683
 1307SOL    HW2 5273   1.874   1.165   2.268  0.1703 -1.9276 -4.1094
 1307SOL    HW3 5274   1.724   1.178   2.281  0.8218  1.6970  1.6985
 1307SOL    MW4 5275   1.797   1.133   2.293  0.3455  0.2859 -0.3684
 1308SOL     OW 5276   2.012   1.270   2.237 -0.5739 -0.0050 -0.3106
 1308SOL    HW2 5277   2.025   1.361   2.261  0.4568 -0.2176 -0.0721
 1308SOL    HW3 5278   2.016   1.269   2.141 -0.5198  0.1840 -0.3094
 1308SOL    MW4 5279   2.014   1.282   2.228 -0.4303 -0.0080 -0.2789
 1309SOL     OW 5280   2.013   1.525   2.331  0.0251 -0.2080  0.0187
 1309SOL    HW2 5281   2.023   1.552   2.422  0.0423  2.6654 -0.7702
 1309SOL    HW3 5282   1.944   1.582   2.297  0.8872 -0.3792 -2.0911
 1309SOL    MW4 5283   2.005   1.536   2.338  0.1411  0.1484 -0.3638
 1310SOL     OW 5284   1.791   1.677   2.268  0.4709  0.0351  0.2571
 1310SOL    HW2 5285   1.798   1.770   2.289 -0.5611 -0.1750  1.6176
 1310SOL    HW3 5286   1.798   1.673   2.173  1.1035  1.4473  0.2349
 1310SOL    MW4 5287   1.793   1.689   2.259  0.4181  0.1938  0.4337
 1311SOL     OW 5288   1.830   1.939   2.322 -0.4780  0.0123 -0.0307
 1311SOL    HW2 5289   1.820   1.941   2.417  0.5714 -0.4563  0.0932
 1311SOL    HW3 5290   1.907   1.993   2.304  0.0952 -0.9550 -0.5029
 1311SOL    MW4 5291   1.839   1.946   2.332 -0.2640 -0.1770 -0.0770
 1312SOL     OW 5292   2.052   2.071   2.266 -0.2614 -0.0506 -0.0641
 1312SOL    HW2 5293   2.140   2.038   2.284 -0.1899 -0.1179 -0.5324
 1312SOL    HW3 5294   2.039   2.055   2.173 -2.1821 -3.3831  0.7122
 1312SOL    MW4 5295   2.062   2.064   2.256 -0.5054 -0.4992 -0.0236
 1313SOL     OW 5296   2.056   2.327   2.375  0.2132 -0.4581  0.2069
 1313SOL    HW2 5297   2.128   2.364   2.324 -0.5695  0.0072 -0.5799
 1313SOL    HW3 5298   2.047   2.237   2.343  1.0883 -0.8281  1.0026
 1313SOL    MW4 5299   2.064   2.320   2.364  0.2255 -0.4456  0.2079
 1314SOL     OW 5300   1.825   2.404   2.212  0.0699  0.2807 -0.5773
 1314SOL    HW2 5301   1.901   2.374   2.263  0.3293  0.6293 -0.7590
 1314SOL    HW3 5302   1.749   2.372   2.261  0.3249  0.4204 -0.0955
 1314SOL    MW4 5303   1.825   2.396   2.225  0.1377  0.3450 -0.5376
 1315SOL     OW 5304   1.805   2.671   2.353  0.1226 -0.0576  0.3565
 1315SOL    HW2 5305   1.776   2.588   2.314 -1.1881 -0.0015  1.1749
 1315SOL    HW3 5306   1.728   2.728   2.347  0.9818  1.0787 -0.0921
 1315SOL    MW4 5307   1.791   2.667   2.347  0.0629  0.0999  0.4053
 1316SOL     OW 5308   2.022   2.790   2.248  0.0800  0.0200  0.5892
 1316SOL    HW2 5309   2.099   2.756   2.293  0.0051 -1.1979 -0.1892
 1316SOL    HW3 5310   1.948   2.752   2.295 -0.0219  0.2581  0.6195
 1316SOL    MW4 5311   2.022   2.781   2.260  0.0565 -0.1094  0.4904
 1317SOL     OW 5312   2.060   3.033   2.354  0.1273  0.3808 -0.0726
 1317SOL    HW2 5313   2.140   3.056   2.307 -0.2732  0.1052 -0.8935
 1317SOL    HW3 5314   2.035   2.948   2.320 -0.6066  0.5344  0.0605
 1317SOL    MW4 5315   2.067   3.025   2.343 -0.0226  0.3645 -0.1633
 1318SOL     OW 5316   1.854   3.213   2.304 -0.0504 -0.5715  0.0165
 1318SOL    HW2 5317   1.929   3.163   2.336 -0.6348 -1.0146  0.7098
 1318SOL    HW3 5318   1.778   3.160   2.326 -0.6189  0.1855 -0.0811
 1318SOL    MW4 5319   1.854   3.200   2.311 -0.2025 -0.5302  0.0949
 1319SOL     OW 5320   1.823   3.501   2.395 -0.5751 -0.0037 -0.0452
 1319SOL    HW2 5321   1.829   3.410   2.365 -1.3552 -0.2529  0.5663
 1319SOL    HW3 5322   1.754   3.540   2.341 -0.7464  0.0323  0.2028
 1319SOL    MW4 5323   1.815   3.494   2.384 -0.7008 -0.0319  0.0684
 1320SOL     OW 5324   2.049   3.615   2.287  0.5414 -0.2599  0.0945
 1320SOL    HW2 5325   1.971   3.571   2.320  0.6937 -0.9100 -0.4231
 1320SOL    HW3 5326   2.044   3.607   2.192  0.0399  1.7302 -0.0781
 1320SOL    MW4 5327   2.038   3.608   2.279  0.4952 -0.0830  0.0031
 1321SOL     OW 5328   2.017   3.885   2.323  0.0816 -0.0314  0.1420
 1321SOL    HW2 5329   2.026   3.898   2.417  0.0811  0.1345  0.1180
 1321SOL    HW3 5330   2.029   3.790   2.311 -1.4845 -0.2782  0.4890
 1321SOL    MW4 5331   2.020   3.874   2.334 -0.1254 -0.0420  0.1845
 1322SOL     OW 5332   1.770   4.005   2.273 -0.3596  0.0118 -0.4356
 1322SOL    HW2 5333   1.859   3.976   2.289 -0.0906  0.2782 -1.4068
 1322SOL    HW3 5334   1.768   4.025   2.179 -0.9425  1.7181 -0.0785
 1322SOL    MW4 5335   1.781   4.004   2.263 -0.4010  0.2718 -0.5164
 1323SOL     OW 5336   1.790   4.280   2.343  0.3259  0.0113  0.1560
 1323SOL    HW2 5337   1.784   4.186   2.327  2.0149  0.0315 -0.7065
 1323SOL    HW3 5338   1.722   4.318   2.288 -0.9076 -0.7616  1.1282
 1323SOL    MW4 5339   1.781   4.273   2.334  0.3861 -0.0877  0.1705
 1324SOL     OW 5340   2.016   4.398   2.265 -0.4547 -0.8664 -0.1296
 1324SOL    HW2 5341   1.943   4.351   2.307 -2.3784  2.2370  0.1788
 1324SOL    HW3 5342   1.991   4.403   2.173  0.8685 -2.4427 -0.5858
 1324SOL    MW4 5343   2.003   4.392   2.258 -0.5343 -0.6647 -0.1495
 1325SOL     OW 5344   2.430   4.636   2.313  0.4072  0.0586 -0.2068
 1325SOL    HW2 5345   2.515   4.674   2.291  0.8461 -1.8791 -1.9653
 1325SOL    HW3 5346   2.434   4.547   2.278 -1.6983 -0.6240  1.2420
 1325SOL    MW4 5347   2.442   4.630   2.305  0.1869 -0.2871 -0.2477
 1326SOL     OW 5348   2.245   0.146   2.216  0.3733  0.0522  0.1809
 1326SOL    HW2 5349   2.256   0.226   2.266 -0.0288  0.4936 -0.4307
 1326SOL    HW3 5350   2.311   0.086   2.252  0.8401  0.7352  0.4731
 1326SOL    MW4 5351   2.255   0.148   2.227  0.3819  0.2005  0.1390
 1327SOL     OW 5352   2.260   0.398   2.349 -0.4801 -0.0038  0.3923
 1327SOL    HW2 5353   2.330   0.447   2.306  0.1872 -1.9249 -0.7641
 1327SOL    HW3 5354   2.180   0.429   2.308 -0.1268  0.6372  0.1844
 1327SOL    MW4 5355   2.259   0.409   2.338 -0.3457 -0.1727  0.2122
 1328SOL     OW 5356   2.483   0.513   2.221 -0.1960  0.0710 -0.1769
 1328SOL    HW2 5357   2.563   0.461   2.231 -0.8143 -1.0595 -1.0676
 1328SOL    HW3 5358   2.475   0.526   2.127 -0.9883  0.3212 -0.0722
 1328SOL    MW4 5359   2.493   0.508   2.210 -0.3822 -0.0451 -0.2806
 1329SOL     OW 5360   2.465   0.766   2.339 -0.6353  0.3064 -0.1713
 1329SOL    HW2 5361   2.549   0.806   2.316 -0.1976  0.6075  1.9367
 1329SOL    HW3 5362   2.474   0.675   2.310  0.1422  0.5186 -0.6191
 1329SOL    MW4 5363   2.478   0.759   2.332 -0.4752  0.3742  0.0479
 1330SOL     OW 5364   2.258   0.900   2.240 -0.5351 -0.2153  0.0129
 1330SOL    HW2 5365   2.265   0.991   2.267 -0.9508  0.4954 -2.1685
 1330SOL    HW3 5366   2.342   0.861   2.264  0.3052  1.1848 -0.6356
 1330SOL    MW4 5367   2.270   0.907   2.247 -0.4790  0.0631 -0.3603
 1331SOL     OW 5368   2.267   1.154   2.357 -0.2712 -0.1802 -0.2172
 1331SOL    HW2 5369   2.338   1.205   2.318  0.1949 -0.0198  0.8311
 1331SOL    HW3 5370   2.187   1.193   2.321  0.1281  0.5120 -0.3589
 1331SOL    MW4 5371   2.266   1.166   2.347 -0.1569 -0.0677 -0.0978
 1332SOL     OW 5372   2.478   1.311   2.259  0.1268  0.0963 -0.2661
 1332SOL    HW2 5373   2.551   1.270   2.306 -0.6459 -0.4040  0.5143
 1332SOL    HW3 5374   2.492   1.405   2.270  2.4143  0.1291 -2.8126
 1332SOL    MW4 5375   2.490   1.318   2.266  0.3266  0.0345 -0.4990
 1333SOL     OW 5376   2.465   1.595   2.320  0.2237  0.3719  0.0674
 1333SOL    HW2 5377   2.464   1.588   2.416  0.8674 -0.8362 -0.0123
 1333SOL    HW3 5378   2.554   1.624   2.299  0.4043 -0.4030 -0.2344
 1333SOL    MW4 5379   2.477   1.598   2.330  0.3324  0.1104  0.0172
 1334SOL     OW 5380   2.215   1.687   2.236 -0.0254 -0.0865 -0.2139
 1334SOL    HW2 5381   2.294   1.640   2.261  0.0266  1.5716  3.0325
 1334SOL    HW3 5382   2.145   1.645   2.286 -0.7395  0.3478 -0.8250
 1334SOL    MW4 5383   2.216   1.675   2.246 -0.1128  0.1897  0.1338
 1335SOL     OW 5384   2.292   1.937   2.374  0.3237 -0.1803 -0.3501
 1335SOL    HW2 5385   2.359   1.982   2.323  0.6064 -0.0329  0.1532
 1335SOL    HW3 5386   2.265   1.864   2.318  0.7493 -0.1164 -0.6425
 1335SOL    MW4 5387   2.297   1.933   2.359  0.4172 -0.1525 -0.3221
 1336SOL     OW 5388   2.500   2.074   2.238 -0.1992  0.2635 -0.2431
 1336SOL    HW2 5389   2.573   2.019   2.266 -0.1659  0.5394  0.2222
 1336SOL    HW3 5390   2.504   2.074   2.143 -0.2134 -0.5573 -0.2486
 1336SOL    MW4 5391   2.510   2.066   2.229 -0.1967  0.1917 -0.1824
 1337SOL     OW 5392   2.515   2.319   2.363 -0.3421  0.1854  0.1766
 1337SOL    HW2 5393   2.572   2.381   2.319  0.2713  1.0740  2.1445
 1337SOL    HW3 5394   2.525   2.237   2.314  0.5018  1.0578 -1.1299
 1337SOL    MW4 5395   2.524   2.316   2.351 -0.1497  0.4177  0.2639
 1338SOL     OW 5396   2.282   2.416   2.260 -0.2278  0.2161  0.0432
 1338SOL    HW2 5397   2.275   2.503   2.301 -0.1066  0.0683  0.3850
 1338SOL    HW3 5398   2.352   2.373   2.310  1.1295  0.6491 -1.4324
 1338SOL    MW4 5399   2.290   2.422   2.272 -0.0327  0.2537 -0.1061
 1339SOL     OW 5400   2.245   2.683   2.345  0.1830  0.0237 -0.2919
 1339SOL    HW2 5401   2.244   2.682   2.441 -0.0715  1.4198 -0.2661
 1339SOL    HW3 5402   2.300   2.759   2.323 -2.2534  1.5866 -1.2276
 1339SOL    MW4 5403   2.252   2.693   2.355 -0.1719  0.4141 -0.4117
 1340SOL     OW 5404   2.475   2.837   2.278 -0.0317 -0.1622 -0.4089
 1340SOL    HW2 5405   2.553   2.795   2.313 -0.6665 -0.1636  1.0612
 1340SOL    HW3 5406   2.474   2.813   2.185  2.2756  0.7444 -0.6965
 1340SOL    MW4 5407   2.485   2.828   2.270  0.1888 -0.0429 -0.2527
 1341SOL     OW 5408   2.548   3.101   2.378  0.1345 -0.5003  0.2175
 1341SOL    HW2 5409   2.624   3.137   2.332  0.8316 -0.9123  1.0352
 1341SOL    HW3 5410   2.538   3.013   2.343  1.2762 -1.1781  1.5442
 1341SOL    MW4 5411   2.557   3.094   2.367  0.3774 -0.6442  0.5004
 1342SOL     OW 5412   2.308   3.194   2.299 -0.4044 -0.5049  0.0991
 1342SOL    HW2 5413   2.294   3.266   2.361 -0.2928  0.3983 -0.9121
 1342SOL    HW3 5414   2.390   3.154   2.328 -0.5478 -0.3205  0.7664
 1342SOL    MW4 5415   2.317   3.198   2.311 -0.4086 -0.3614  0.0539
 1343SOL     OW 5416   2.300   3.503   2.398  0.0786  0.6037  0.1412
 1343SOL    HW2 5417   2.303   3.491   2.493  0.1415  0.4379  0.1182
 1343SOL    HW3 5418   2.222   3.558   2.384 -0.5743 -0.3035  0.1931
 1343SOL    MW4 5419   2.290   3.509   2.409  0.0007  0.4623  0.1452
 1344SOL     OW 5420   2.488   3.625   2.225 -0.0150  0.2001  0.2477
 1344SOL    HW2 5421   2.492   3.708   2.272  0.5057  0.1559  0.2794
 1344SOL    HW3 5422   2.409   3.582   2.259 -1.7344  1.7824 -1.6254
 1344SOL    MW4 5423   2.478   3.630   2.236 -0.1731  0.4032  0.0048
 1345SOL     OW 5424   2.450   3.856   2.360 -0.0403 -0.0793  0.5317
 1345SOL    HW2 5425   2.444   3.854   2.456 -0.5420 -1.1147  0.4899
 1345SOL    HW3 5426   2.373   3.905   2.332 -0.0556 -0.0345  0.6541
 1345SOL    MW4 5427   2.439   3.862   2.369 -0.1082 -0.2098  0.5422
 1346SOL     OW 5428   2.252   4.009   2.227  0.2655 -0.1803  0.1730
 1346SOL    HW2 5429   2.268   4.095   2.267  0.9340  0.4306 -1.3542
 1346SOL    HW3 5430   2.164   3.985   2.256  0.1194  0.9657  0.7221
 1346SOL    MW4 5431   2.242   4.018   2.236  0.3343  0.0515  0.0439
 1347SOL     OW 5432   2.254   4.264   2.333 -0.0304  0.5404 -0.6659
 1347SOL    HW2 5433   2.262   4.261   2.429 -0.0609 -0.5003 -0.6966
 1347SOL    HW3 5434   2.176   4.317   2.317 -1.2777 -1.0860 -0.0673
 1347SOL    MW4 5435   2.245   4.271   2.344 -0.1993  0.1879 -0.5913
 1348SOL     OW 5436   2.477   4.359   2.210  0.4349 -0.1746 -0.0617
 1348SOL    HW2 5437   2.551   4.321   2.258 -0.3793 -0.0117  1.3395
 1348SOL    HW3 5438   2.400   4.317   2.247 -0.2208  0.0723 -1.1316
 1348SOL    MW4 5439   2.477   4.349   2.221  0.2410 -0.1206 -0.0179
 1349SOL     OW 5440   2.901   0.008   2.368  0.2316 -0.4699 -0.4050
 1349SOL    HW2 5441   2.975   0.051   2.326  0.9843 -0.9860  0.3960
 1349SOL    HW3 5442   2.891  -0.075   2.320 -0.4180  0.0066 -1.1137
 1349SOL    MW4 5443   2.909   0.003   2.356  0.2453 -0.4752 -0.3929
 1350SOL     OW 5444   2.676   0.093   2.221  0.0251  0.4099  0.1453
 1350SOL    HW2 5445   2.681   0.188   2.234 -1.4491  0.4479  0.5463
 1350SOL    HW3 5446   2.750   0.058   2.272 -0.7307  1.1949  1.8211
 1350SOL    MW4 5447   2.686   0.101   2.230 -0.2692  0.5185  0.4194
 1351SOL     OW 5448   2.704   0.370   2.299 -0.6120  0.1843  0.1220
 1351SOL    HW2 5449   2.730   0.390   2.389 -1.8485  1.4276  0.2255
 1351SOL    HW3 5450   2.781   0.392   2.247 -0.5015  1.2178  0.7012
 1351SOL    MW4 5451   2.718   0.376   2.304 -0.7606  0.4847  0.2117
 1352SOL     OW 5452   2.915   0.519   2.163 -0.0286 -0.0715 -0.0963
 1352SOL    HW2 5453   2.910   0.605   2.204 -1.7993 -0.2949  0.2034
 1352SOL    HW3 5454   2.892   0.534   2.072  3.2658  0.3224 -0.9122
 1352SOL    MW4 5455   2.911   0.532   2.157  0.1724 -0.0491 -0.1647
 1353SOL     OW 5456   2.892   0.740   2.340 -0.0910 -0.0446 -0.3771
 1353SOL    HW2 5457   2.892   0.726   2.434  0.0555 -0.8494 -0.4904
 1353SOL    HW3 5458   2.818   0.798   2.324 -0.5656 -0.4997  0.1504
 1353SOL    MW4 5459   2.882   0.746   2.350 -0.1342 -0.2108 -0.3223
 1354SOL     OW 5460   2.696   0.906   2.257 -0.0740  0.4422 -0.0205
 1354SOL    HW2 5461   2.693   0.999   2.277 -2.1933  0.5178 -0.6296
 1354SOL    HW3 5462   2.681   0.901   2.163 -0.9959 -0.5886  0.1799
 1354SOL    MW4 5463   2.694   0.917   2.247 -0.4752  0.3161 -0.0744
 1355SOL     OW 5464   2.703   1.165   2.370 -0.0293  0.1518 -0.1546
 1355SOL    HW2 5465   2.706   1.147   2.464 -0.1109  0.1801 -0.1465
 1355SOL    HW3 5466   2.785   1.211   2.352 -0.6053  1.3159  0.1449
 1355SOL    MW4 5467   2.714   1.168   2.380 -0.1161  0.3090 -0.1140
 1356SOL     OW 5468   2.934   1.310   2.261 -0.0884  0.2327 -0.3917
 1356SOL    HW2 5469   3.009   1.264   2.300 -0.5393 -0.2598 -0.1134
 1356SOL    HW3 5470   2.938   1.287   2.168  1.8891  2.6229 -0.9483
 1356SOL    MW4 5471   2.945   1.301   2.253  0.1130  0.4830 -0.4284
 1357SOL     OW 5472   2.979   1.557   2.369 -0.4176 -0.2488 -0.3271
 1357SOL    HW2 5473   2.976   1.546   2.464  3.6565 -1.7225 -0.2774
 1357SOL    HW3 5474   2.955   1.471   2.334  0.7959 -0.4968 -0.5593
 1357SOL    MW4 5475   2.975   1.544   2.377  0.2804 -0.4760 -0.3510
 1358SOL     OW 5476   2.734   1.660   2.256 -0.0446 -0.0909 -0.0411
 1358SOL    HW2 5477   2.815   1.623   2.290  0.8430  1.6979 -0.1771
 1358SOL    HW3 5478   2.733   1.633   2.164  0.4010 -0.1051 -0.0444
 1358SOL    MW4 5479   2.745   1.652   2.248  0.1311  0.1432 -0.0594
 1359SOL     OW 5480   2.721   1.927   2.331  0.1938  0.4298 -0.1587
 1359SOL    HW2 5481   2.705   1.917   2.425  1.3354 -0.6186 -0.0612
 1359SOL    HW3 5482   2.728   1.838   2.298 -0.6695  0.7822 -1.3407
 1359SOL    MW4 5483   2.720   1.914   2.339  0.2306  0.3378 -0.3018
 1360SOL     OW 5484   2.956   2.056   2.241  0.4426 -0.2971 -0.2927
 1360SOL    HW2 5485   3.024   2.008   2.288  0.1123  0.0570  0.5421
 1360SOL    HW3 5486   2.874   2.018   2.271  0.0656  2.0185  1.8133
 1360SOL    MW4 5487   2.954   2.045   2.251  0.3493  0.0551  0.0954
 1361SOL     OW 5488   2.924   2.325   2.333  0.0726 -0.0749  0.4072
 1361SOL    HW2 5489   2.921   2.329   2.429 -0.3908  0.0561  0.3882
 1361SOL    HW3 5490   2.939   2.233   2.313 -1.7848 -0.4313  0.5659
 1361SOL    MW4 5491   2.926   2.314   2.343 -0.2339 -0.1044  0.4256
 1362SOL     OW 5492   2.699   2.472   2.232 -0.0026 -0.4207 -0.0890
 1362SOL    HW2 5493   2.776   2.421   2.257  1.8419  1.4627 -1.6842
 1362SOL    HW3 5494   2.699   2.469   2.136 -1.1282  0.7448 -0.1351
 1362SOL    MW4 5495   2.710   2.465   2.223  0.0923 -0.0184 -0.3057
 1363SOL     OW 5496   2.714   2.702   2.375  0.5508 -0.5215  0.0439
 1363SOL    HW2 5497   2.795   2.734   2.336  0.1916  1.1277  0.6344
 1363SOL    HW3 5498   2.707   2.611   2.344  2.2612 -0.4644 -0.5564
 1363SOL    MW4 5499   2.724   2.694   2.366  0.7291 -0.2964  0.0427
 1364SOL     OW 5500   2.930   2.805   2.233 -0.4291 -0.0135 -0.4307
 1364SOL    HW2 5501   2.929   2.898   2.253 -0.2385 -0.1772  0.3968
 1364SOL    HW3 5502   2.925   2.800   2.138 -0.5220  0.8360 -0.4737
 1364SOL    MW4 5503   2.929   2.816   2.223 -0.4163  0.0768 -0.3271
 1365SOL     OW 5504   2.954   3.061   2.314  0.6287  0.2615 -0.0296
 1365SOL    HW2 5505   3.036   3.110   2.304  0.0994  1.0932 -0.3937
 1365SOL    HW3 5506   2.888   3.117   2.272 -0.2313 -0.0718  0.8629
 1365SOL    MW4 5507   2.956   3.075   2.307  0.4454  0.3273  0.0401
 1366SOL     OW 5508   2.755   3.217   2.223  0.2062  0.4159  0.1150
 1366SOL    HW2 5509   2.743   3.308   2.251 -0.4803  0.3614  0.0008
 1366SOL    HW3 5510   2.738   3.218   2.129  0.4152  0.2083  0.0726
 1366SOL    MW4 5511   2.751   3.229   2.214  0.1431  0.3815  0.0944
 1367SOL     OW 5512   2.715   3.493   2.344 -0.2606  0.2803 -0.5330
 1367SOL    HW2 5513   2.784   3.556   2.325  0.0027  0.0410 -0.3921
 1367SOL    HW3 5514   2.635   3.531   2.308 -0.3086  1.2330  0.5720
 1367SOL    MW4 5515   2.713   3.506   2.337 -0.2322  0.3743 -0.3686
 1368SOL     OW 5516   2.896   3.664   2.257 -0.0300 -0.1216  0.6030
 1368SOL    HW2 5517   2.972   3.615   2.288  1.0016  0.9579 -0.1778
 1368SOL    HW3 5518   2.898   3.746   2.308 -0.0173  0.3885 -0.2094
 1368SOL    MW4 5519   2.906   3.669   2.268  0.1078  0.0882  0.3927
 1369SOL     OW 5520   2.916   3.912   2.389 -0.0518  0.1127 -0.3469
 1369SOL    HW2 5521   2.939   3.910   2.482  0.1629  0.8014 -0.3790
 1369SOL    HW3 5522   2.837   3.966   2.386  1.2092  1.9904 -0.8101
 1369SOL    MW4 5523   2.909   3.919   2.401  0.1431  0.4511 -0.4122
 1370SOL     OW 5524   2.671   4.018   2.320  0.1200  0.1275 -0.0042
 1370SOL    HW2 5525   2.596   3.962   2.342 -0.5977  0.4923 -1.4629
 1370SOL    HW3 5526   2.665   4.030   2.226  3.7137 -2.3038 -0.6732
 1370SOL    MW4 5527   2.661   4.012   2.311  0.4995 -0.1450 -0.2849
 1371SOL     OW 5528   2.669   4.284   2.394  0.2090  0.1092 -0.0601
 1371SOL    HW2 5529   2.694   4.284   2.486  0.3127  0.3373 -0.0878
 1371SOL    HW3 5530   2.680   4.193   2.366  0.0392  0.0114  0.1887
 1371SOL    MW4 5531   2.674   4.272   2.402  0.2005  0.1264 -0.0310
 1372SOL     OW 5532   2.885   4.412   2.268 -0.4698 -0.8156  0.2212
 1372SOL    HW2 5533   2.966   4.393   2.315 -0.4997 -0.1123  0.5624
 1372SOL    HW3 5534   2.817   4.369   2.320 -0.5427  0.2293  1.0137
 1372SOL    MW4 5535   2.887   4.403   2.281 -0.4833 -0.5851  0.3710
 1373SOL     OW 5536   3.315   0.002   2.353  0.1850 -0.1876 -0.5039
 1373SOL    HW2 5537   3.317  -0.004   2.448 -1.0461 -1.1226 -0.5259
 1373SOL    HW3 5538   3.391   0.055   2.331  0.1764  0.4909  1.0319
 1373SOL    MW4 5539   3.325   0.008   2.362  0.0215 -0.2214 -0.3042
 1374SOL     OW 5540   3.118   0.169   2.236 -0.6057  0.1451  0.1565
 1374SOL    HW2 5541   3.107   0.246   2.290  0.5551  1.3237 -1.2493
 1374SOL    HW3 5542   3.183   0.116   2.281 -0.8559  0.3406  0.7463
 1374SOL    MW4 5543   3.125   0.172   2.249 -0.4857  0.3264  0.0491
 1375SOL     OW 5544   3.102   0.429   2.366 -0.0485  0.2709 -0.3803
 1375SOL    HW2 5545   3.183   0.467   2.331  0.5846 -1.1004 -0.4496
 1375SOL    HW3 5546   3.033   0.465   2.311  0.3814  2.3382  0.3779
 1375SOL    MW4 5547   3.104   0.439   2.354  0.0920  0.3627 -0.2894
 1376SOL     OW 5548   3.342   0.512   2.239  0.2038 -0.3723  1.2059
 1376SOL    HW2 5549   3.426   0.505   2.283  0.5683 -0.1976  0.5380
 1376SOL    HW3 5550   3.363   0.531   2.148 -0.5363 -1.2693  0.8396
 1376SOL    MW4 5551   3.356   0.514   2.233  0.1543 -0.4676  1.0693
 1377SOL     OW 5552   3.320   0.784   2.337  0.1867  0.0469  0.3985
 1377SOL    HW2 5553   3.407   0.819   2.316 -0.5579  0.5706 -1.9021
 1377SOL    HW3 5554   3.316   0.701   2.289 -0.0988 -0.6448  1.5824
 1377SOL    MW4 5555   3.331   0.777   2.328  0.0508  0.0247  0.2511
 1378SOL     OW 5556   3.090   0.929   2.249 -0.3953  0.4235 -0.0332
 1378SOL    HW2 5557   3.167   0.882   2.281 -0.3432  0.1689 -0.5276
 1378SOL    HW3 5558   3.016   0.883   2.288 -0.3508 -0.1589 -0.6210
 1378SOL    MW4 5559   3.091   0.917   2.258 -0.3822  0.3131 -0.1760
 1379SOL     OW 5560   3.128   1.163   2.395  0.0499 -0.0816  0.1096
 1379SOL    HW2 5561   3.213   1.180   2.353  1.8504 -1.2385  3.1562
 1379SOL    HW3 5562   3.098   1.080   2.357  0.4369  0.1430 -0.7026
 1379SOL    MW4 5563   3.135   1.155   2.385  0.3383 -0.2044  0.4044
 1380SOL     OW 5564   3.354   1.238   2.262  0.4020  0.1801 -0.5618
 1380SOL    HW2 5565   3.443   1.205   2.274 -0.2633 -0.9648  1.6366
 1380SOL    HW3 5566   3.359   1.331   2.285  1.0404  0.1269 -0.4918
 1380SOL    MW4 5567   3.366   1.246   2.267  0.3986  0.0221 -0.2627
 1381SOL     OW 5568   3.397   1.521   2.339 -0.8437  0.3210  0.0415
 1381SOL    HW2 5569   3.386   1.519   2.435 -0.0967 -1.3842  0.1054
 1381SOL    HW3 5570   3.324   1.575   2.308 -1.1142  0.8633  1.5642
 1381SOL    MW4 5571   3.386   1.528   2.348 -0.7811  0.1677  0.2508
 1382SOL     OW 5572   3.185   1.691   2.255 -0.2600  0.4051 -0.3030
 1382SOL    HW2 5573   3.188   1.780   2.288  0.5445 -0.3469  1.7020
 1382SOL    HW3 5574   3.108   1.652   2.295 -0.4385  0.1054 -0.9270
 1382SOL    MW4 5575   3.175   1.698   2.264 -0.1776  0.2666 -0.1204
 1383SOL     OW 5576   3.157   1.943   2.359 -0.1542  0.0433 -0.5395
 1383SOL    HW2 5577   3.162   1.925   2.453  1.0999 -1.0247 -0.7863
 1383SOL    HW3 5578   3.240   1.985   2.338 -0.5544  0.5484 -1.1133
 1383SOL    MW4 5579   3.169   1.946   2.369 -0.0415 -0.0310 -0.6480
 1384SOL     OW 5580   3.369   2.091   2.260 -0.1128  0.7070  0.1019
 1384SOL    HW2 5581   3.435   2.032   2.294 -1.9489 -0.9383  0.9331
 1384SOL    HW3 5582   3.376   2.084   2.165  0.8745  0.5465  0.1857
 1384SOL    MW4 5583   3.378   2.082   2.252 -0.2248  0.4685  0.2224
 1385SOL     OW 5584   3.401   2.356   2.342 -0.6108  0.3673  0.2648
 1385SOL    HW2 5585   3.322   2.401   2.314 -0.0357  1.0481 -0.3004
 1385SOL    HW3 5586   3.393   2.267   2.306 -1.1284  0.4303  0.2325
 1385SOL    MW4 5587   3.390   2.350   2.333 -0.6032  0.4656  0.1857
 1386SOL     OW 5588   3.161   2.470   2.261  0.6728  0.3829  0.9790
 1386SOL    HW2 5589   3.162   2.561   2.291 -0.2328  0.8460 -0.3631
 1386SOL    HW3 5590   3.076   2.436   2.289  0.1768  0.5621 -0.2712
 1386SOL    MW4 5591   3.150   2.478   2.269  0.4878  0.4675  0.6368
 1387SOL     OW 5592   3.154   2.734   2.360 -0.2424  0.3829 -0.2987
 1387SOL    HW2 5593   3.137   2.740   2.455  0.5993  0.1161 -0.1305
 1387SOL    HW3 5594   3.068   2.744   2.320 -0.6979 -0.1298  0.5290
 1387SOL    MW4 5595   3.140   2.736   2.368 -0.1917  0.2801 -0.1674
 1388SOL     OW 5596   3.386   2.842   2.235  0.0812  0.0885  0.1713
 1388SOL    HW2 5597   3.384   2.927   2.279 -0.8083  0.3750 -0.3904
 1388SOL    HW3 5598   3.303   2.801   2.261  0.3078 -0.4217  0.0837
 1388SOL    MW4 5599   3.375   2.848   2.244 -0.0060  0.0591  0.0856
 1389SOL     OW 5600   3.338   3.105   2.344 -0.2611 -0.4466  0.3784
 1389SOL    HW2 5601   3.422   3.140   2.316  0.4843 -1.2084  1.6028
 1389SOL    HW3 5602   3.274   3.150   2.289  0.8728  0.7707  0.0161
 1389SOL    MW4 5603   3.341   3.115   2.333 -0.0129 -0.3865  0.4921
 1390SOL     OW 5604   3.142   3.260   2.234 -0.0941  0.3338 -0.1862
 1390SOL    HW2 5605   3.126   3.348   2.268 -2.5623 -0.1571 -0.0216
 1390SOL    HW3 5606   3.119   3.265   2.141 -0.9951 -0.3231 -0.0024
 1390SOL    MW4 5607   3.137   3.272   2.226 -0.5386  0.1824 -0.1402
 1391SOL     OW 5608   3.094   3.514   2.365  0.4936  0.3313  0.2291
 1391SOL    HW2 5609   3.110   3.484   2.455  1.7979 -1.7197 -0.6438
 1391SOL    HW3 5610   3.177   3.554   2.338  1.0117 -1.4100 -0.9094
 1391SOL    MW4 5611   3.107   3.515   2.373  0.7341 -0.1688 -0.0365
 1392SOL     OW 5612   3.350   3.613   2.240  0.2342  0.1218 -0.0964
 1392SOL    HW2 5613   3.422   3.561   2.274  0.4203 -0.0787 -0.7942
 1392SOL    HW3 5614   3.355   3.603   2.145 -1.7037 -1.2257 -0.0992
 1392SOL    MW4 5615   3.360   3.605   2.232  0.0029 -0.0825 -0.1888
 1393SOL     OW 5616   3.351   3.855   2.361  0.4324  0.2222  0.2227
 1393SOL    HW2 5617   3.417   3.903   2.313  0.2200  0.2040 -0.0882
 1393SOL    HW3 5618   3.337   3.775   2.311 -2.2140  1.7153 -1.5565
 1393SOL    MW4 5619   3.358   3.851   2.348  0.0553  0.4165 -0.0529
 1394SOL     OW 5620   3.137   4.039   2.273 -0.2996 -0.5661 -0.6358
 1394SOL    HW2 5621   3.212   3.988   2.305 -0.6966 -1.2340 -0.7677
 1394SOL    HW3 5622   3.061   3.993   2.307 -0.6443  0.3029 -0.2257
 1394SOL    MW4 5623   3.137   4.027   2.282 -0.3972 -0.5398 -0.5994
 1395SOL     OW 5624   3.106   4.331   2.401  0.4788 -0.7324 -1.3471
 1395SOL    HW2 5625   3.178   4.372   2.354  2.4493 -2.1357  0.3813
 1395SOL    HW3 5626   3.101   4.242   2.366  0.7886 -1.2160 -0.1849
 1395SOL    MW4 5627   3.115   4.325   2.391  0.7799 -0.9813 -0.9658
 1396SOL     OW 5628   3.344   4.409   2.273  0.1077  0.2086 -0.0144
 1396SOL    HW2 5629   3.349   4.500   2.303 -2.3969  0.2633  0.3478
 1396SOL    HW3 5630   3.366   4.413   2.180  1.8427  0.9210  0.4239
 1396SOL    MW4 5631   3.347   4.422   2.265  0.0062  0.3099  0.0913
 1397SOL     OW 5632   3.768   0.031   2.382  0.2775  0.0785 -0.0529
 1397SOL    HW2 5633   3.764   0.036   2.477 -0.6709  2.6950 -0.1777
 1397SOL    HW3 5634   3.861   0.043   2.361  0.3216  0.7227  0.5034
 1397SOL    MW4 5635   3.780   0.033   2.392  0.1585  0.5093  0.0041
 1398SOL     OW 5636   3.535   0.143   2.244 -0.6495  0.0743  0.2179
 1398SOL    HW2 5637   3.533   0.234   2.274 -1.1203  0.7286 -1.7164
 1398SOL    HW3 5638   3.615   0.107   2.283  0.4274  1.8062 -0.3257
 1398SOL    MW4 5639   3.545   0.150   2.253 -0.5696  0.3892 -0.1090
 1399SOL     OW 5640   3.578   0.402   2.365 -0.2938 -0.1948  0.1378
 1399SOL    HW2 5641   3.595   0.393   2.459 -0.4338 -3.2654 -0.0815
 1399SOL    HW3 5642   3.652   0.453   2.332  0.5984 -0.4755  1.6473
 1399SOL    MW4 5643   3.590   0.408   2.373 -0.1945 -0.6370  0.3083
 1400SOL     OW 5644   3.821   0.522   2.274 -0.1710  0.2619  0.1923
 1400SOL    HW2 5645   3.795   0.611   2.297 -0.3372  0.3890 -0.4558
 1400SOL    HW3 5646   3.844   0.528   2.181 -0.6014 -0.4574  0.0389
 1400SOL    MW4 5647   3.820   0.535   2.265 -0.2496  0.1838  0.0868
 1401SOL     OW 5648   3.798   0.789   2.342 -0.1230 -0.1799 -0.4812
 1401SOL    HW2 5649   3.792   0.772   2.436  0.0864 -0.7237 -0.5655
 1401SOL    HW3 5650   3.887   0.820   2.329 -0.0279 -0.4783 -0.5560
 1401SOL    MW4 5651   3.809   0.791   2.353 -0.0830 -0.2910 -0.5023
 1402SOL     OW 5652   3.568   0.884   2.240 -0.1519  0.0920 -0.0755
 1402SOL    HW2 5653   3.655   0.849   2.260  0.8883  3.0419  0.7532
 1402SOL    HW3 5654   3.576   0.918   2.151 -1.2890 -2.0215 -1.0402
 1402SOL    MW4 5655   3.580   0.884   2.231 -0.1647  0.2023 -0.0935
 1403SOL     OW 5656   3.611   1.151   2.321 -0.0395 -0.0817 -0.6753
 1403SOL    HW2 5657   3.617   1.157   2.417  0.1984  1.1526 -0.7579
 1403SOL    HW3 5658   3.591   1.059   2.304  0.2513 -0.3808  0.5453
 1403SOL    MW4 5659   3.609   1.140   2.332  0.0305  0.0416 -0.5252
 1404SOL     OW 5660   3.846   1.261   2.238 -0.6329  0.1242 -0.4141
 1404SOL    HW2 5661   3.855   1.351   2.269 -0.5539 -0.0399  0.0478
 1404SOL    HW3 5662   3.759   1.234   2.269 -0.7689  0.1322 -0.7881
 1404SOL    MW4 5663   3.836   1.269   2.246 -0.6404  0.1034 -0.4027
 1405SOL     OW 5664   3.818   1.520   2.345  0.0210 -0.3641 -0.0860
 1405SOL    HW2 5665   3.807   1.528   2.440  0.8259  0.6619 -0.0819
 1405SOL    HW3 5666   3.739   1.559   2.308 -0.2964 -0.7726  0.1598
 1405SOL    MW4 5667   3.806   1.526   2.353  0.0851 -0.2825 -0.0532
 1406SOL     OW 5668   3.608   1.665   2.241 -0.2308 -0.4816  0.2419
 1406SOL    HW2 5669   3.533   1.612   2.269 -0.2683 -0.0872  0.8952
 1406SOL    HW3 5670   3.598   1.672   2.146 -2.0264  1.0757  0.5145
 1406SOL    MW4 5671   3.596   1.659   2.232 -0.4725 -0.2242  0.3643
 1407SOL     OW 5672   3.590   1.935   2.330 -0.3391 -0.1045 -0.3347
 1407SOL    HW2 5673   3.670   1.972   2.292 -0.3035  0.7968  0.5708
 1407SOL    HW3 5674   3.601   1.840   2.323  1.8390 -0.0501  1.7992
 1407SOL    MW4 5675   3.602   1.928   2.324 -0.0472  0.0216  0.0663
 1408SOL     OW 5676   3.829   2.033   2.233 -0.4507  0.1018  0.2736
 1408SOL    HW2 5677   3.910   1.994   2.264  0.1428 -0.2937 -1.6906
 1408SOL    HW3 5678   3.841   2.041   2.138 -2.6312  0.1869 -0.0224
 1408SOL    MW4 5679   3.841   2.029   2.225 -0.6602  0.0608 -0.0243
 1409SOL     OW 5680   3.862   2.272   2.364 -0.1742  0.2607  0.0137
 1409SOL    HW2 5681   3.792   2.327   2.328 -0.3728  0.0090  0.0193
 1409SOL    HW3 5682   3.845   2.185   2.329  0.0819  0.1782  0.0931
 1409SOL    MW4 5683   3.851   2.268   2.355 -0.1667  0.2162  0.0250
 1410SOL     OW 5684   3.653   2.420   2.235  0.2955 -0.3467 -0.8572
 1410SOL    HW2 5685   3.565   2.393   2.262  0.5209  0.0930  0.3852
 1410SOL    HW3 5686   3.650   2.422   2.139 -0.2281 -2.9992 -0.9178
 1410SOL    MW4 5687   3.641   2.417   2.226  0.2561 -0.6387 -0.7014
 1411SOL     OW 5688   3.636   2.689   2.290  0.2480  0.2453 -0.1703
 1411SOL    HW2 5689   3.637   2.593   2.286  1.8002  0.1960  0.8593
 1411SOL    HW3 5690   3.544   2.713   2.279 -0.3677 -1.4402  1.1378
 1411SOL    MW4 5691   3.624   2.679   2.288  0.3715  0.0162  0.1380
 1412SOL     OW 5692   3.859   2.837   2.215 -0.4407 -0.0081 -0.1093
 1412SOL    HW2 5693   3.839   2.921   2.255 -0.7273 -0.1338  0.0195
 1412SOL    HW3 5694   3.781   2.784   2.232 -0.6313 -0.0079 -0.9770
 1412SOL    MW4 5695   3.846   2.841   2.223 -0.5038 -0.0248 -0.2065
 1413SOL     OW 5696   3.813   3.080   2.367  0.2492  0.3395  0.0227
 1413SOL    HW2 5697   3.811   3.087   2.462  0.3201 -0.7640  0.1079
 1413SOL    HW3 5698   3.894   3.125   2.342  0.7116 -0.1791  0.5643
 1413SOL    MW4 5699   3.824   3.087   2.376  0.3197  0.1254  0.1056
 1414SOL     OW 5700   3.587   3.221   2.266 -0.0402 -0.1817  0.3193
 1414SOL    HW2 5701   3.580   3.306   2.310  0.8312 -0.0634  0.2518
 1414SOL    HW3 5702   3.666   3.181   2.304 -0.4445 -0.9623  0.3484
 1414SOL    MW4 5703   3.597   3.227   2.277  0.0215 -0.2694  0.3142
 1415SOL     OW 5704   3.577   3.478   2.363 -0.1149  0.0779 -0.1375
 1415SOL    HW2 5705   3.590   3.507   2.454  1.6775 -0.5742 -0.1642
 1415SOL    HW3 5706   3.655   3.508   2.317  0.1509 -1.7408 -0.9142
 1415SOL    MW4 5707   3.589   3.486   2.369  0.1564 -0.2482 -0.2437
 1416SOL     OW 5708   3.796   3.616   2.267 -0.1989  0.0600  0.3951
 1416SOL    HW2 5709   3.797   3.699   2.315  3.1951  0.8312 -0.9177
 1416SOL    HW3 5710   3.804   3.641   2.175 -1.0314 -1.6745 -0.1806
 1416SOL    MW4 5711   3.797   3.630   2.261  0.1390 -0.0672  0.1462
 1417SOL     OW 5712   3.792   3.870   2.392  0.2864 -0.0322  0.4548
 1417SOL    HW2 5713   3.784   3.875   2.487  2.3842 -1.6224  0.7576
 1417SOL    HW3 5714   3.858   3.936   2.371 -0.6252  0.7536  0.0065
 1417SOL    MW4 5715   3.800   3.879   2.402  0.4427 -0.1385  0.4356
 1418SOL     OW 5716   3.566   3.994   2.252 -0.1794  0.0076 -0.2056
 1418SOL    HW2 5717   3.577   4.086   2.274 -0.1084 -0.0890  0.1723
 1418SOL    HW3 5718   3.632   3.949   2.305  0.5604 -0.1471 -1.2383
 1418SOL    MW4 5719   3.577   4.000   2.262 -0.0725 -0.0257 -0.2921
 1419SOL     OW 5720   3.584   4.270   2.338 -0.1416 -0.1147 -0.2164
 1419SOL    HW2 5721   3.664   4.321   2.323  0.5313 -0.9330  0.5519
 1419SOL    HW3 5722   3.513   4.333   2.324  0.6176  0.5739 -1.1090
 1419SOL    MW4 5723   3.586   4.285   2.334  0.0477 -0.1316 -0.2327
 1420SOL     OW 5724   3.800   4.433   2.270 -0.5134  0.0400  0.0871
 1420SOL    HW2 5725   3.880   4.394   2.305  0.1254  0.1282 -1.2178
 1420SOL    HW3 5726   3.798   4.521   2.307  1.1991  0.8384 -1.5963
 1420SOL    MW4 5727   3.810   4.439   2.279 -0.2031  0.1569 -0.3071
 1421SOL     OW 5728   4.254   4.632   2.397  0.1715 -0.1209 -0.4275
 1421SOL    HW2 5729   4.242   4.649   2.491 -0.1998 -0.2369 -0.4494
 1421SOL    HW3 5730   4.333   4.679   2.373  0.0318  0.2616 -0.1449
 1421SOL    MW4 5731   4.263   4.641   2.406  0.1044 -0.0868 -0.3932
 1422SOL     OW 5732   4.031   0.079   2.285  0.2906 -0.7178  0.3101
 1422SOL    HW2 5733   4.039   0.170   2.313 -0.7765 -0.4577 -0.2234
 1422SOL    HW3 5734   4.107   0.035   2.325  1.5804  0.6727 -0.5628
 1422SOL    MW4 5735   4.042   0.085   2.294  0.3200 -0.5000  0.1245
 1423SOL     OW 5736   4.010   0.346   2.375  0.1851  0.0197 -0.1115
 1423SOL    HW2 5737   4.091   0.394   2.358  0.0795  0.2973  0.1655
 1423SOL    HW3 5738   3.942   0.400   2.334 -0.0175  0.4645  0.7894
 1423SOL    MW4 5739   4.012   0.360   2.367  0.1445  0.1150  0.0436
 1424SOL     OW 5740   4.251   0.452   2.306  0.4830  0.4301 -0.6810
 1424SOL    HW2 5741   4.252   0.540   2.342  0.1120 -0.1669  0.8164
 1424SOL    HW3 5742   4.332   0.412   2.336  0.1254 -0.1045 -0.4125
 1424SOL    MW4 5743   4.262   0.458   2.314  0.3867  0.2808 -0.4480
 1425SOL     OW 5744   4.240   0.705   2.399  0.1456  0.1371  0.1009
 1425SOL    HW2 5745   4.161   0.756   2.379 -0.3801 -1.2828 -1.5532
 1425SOL    HW3 5746   4.312   0.756   2.363 -0.1422  0.7845  0.4316
 1425SOL    MW4 5747   4.239   0.718   2.392  0.0377  0.0352 -0.0739
 1426SOL     OW 5748   4.063   0.863   2.282  0.0976 -0.6148 -0.2771
 1426SOL    HW2 5749   4.082   0.952   2.312  2.6227 -1.2536  0.0517
 1426SOL    HW3 5750   4.088   0.864   2.189  0.9580 -1.2294 -0.0500
 1426SOL    MW4 5751   4.069   0.875   2.273  0.5445 -0.7802 -0.2036
 1427SOL     OW 5752   4.057   1.125   2.378  0.1506 -0.0125 -0.0924
 1427SOL    HW2 5753   4.035   1.151   2.468  0.4581 -0.3269  0.0757
 1427SOL    HW3 5754   3.982   1.155   2.326  0.4139  1.0538  0.1155
 1427SOL    MW4 5755   4.044   1.133   2.383  0.2255  0.0865 -0.0429
 1428SOL     OW 5756   4.267   1.256   2.249  0.5674 -0.0899  0.6639
 1428SOL    HW2 5757   4.196   1.208   2.291  0.7573  0.7709  2.0035
 1428SOL    HW3 5758   4.346   1.225   2.293  0.6840  1.4391  1.5725
 1428SOL    MW4 5759   4.268   1.246   2.260  0.6075  0.2254  0.9606
 1429SOL     OW 5760   4.279   1.518   2.357 -0.0994  0.2147 -0.1822
 1429SOL    HW2 5761   4.270   1.426   2.332  0.0991 -0.6421  2.7151
 1429SOL    HW3 5762   4.361   1.546   2.317  0.3134 -1.1486 -0.3159
 1429SOL    MW4 5763   4.289   1.509   2.349 -0.0181 -0.0783  0.1829
 1430SOL     OW 5764   4.055   1.657   2.264  0.2598 -0.0863  0.2753
 1430SOL    HW2 5765   4.126   1.597   2.284 -0.6144 -0.2920  2.8869
 1430SOL    HW3 5766   3.975   1.608   2.281 -0.5178  0.6285 -1.1762
 1430SOL    MW4 5767   4.053   1.643   2.268  0.0420 -0.0192  0.4284
 1431SOL     OW 5768   4.039   1.915   2.373  0.1341  0.0310  0.1036
 1431SOL    HW2 5769   4.011   1.928   2.463 -2.3530  0.2653 -0.6616
 1431SOL    HW3 5770   4.050   1.820   2.364 -0.0174 -0.0272  0.5284
 1431SOL    MW4 5771   4.037   1.904   2.383 -0.2141  0.0541  0.0589
 1432SOL     OW 5772   4.259   2.047   2.305  0.1914  0.0704 -0.1097
 1432SOL    HW2 5773   4.259   2.134   2.345 -0.5835 -0.3794  0.8779
 1432SOL    HW3 5774   4.172   2.012   2.324  0.4598 -0.8748 -0.6061
 1432SOL    MW4 5775   4.248   2.054   2.313  0.1245 -0.1137 -0.0448
 1433SOL     OW 5776   4.249   2.306   2.402  0.0625 -0.1169  0.0514
 1433SOL    HW2 5777   4.184   2.345   2.343 -0.4441 -0.9993  0.0171
 1433SOL    HW3 5778   4.332   2.346   2.376 -0.6637  2.0324  1.0138
 1433SOL    MW4 5779   4.252   2.316   2.391 -0.1006  0.0501  0.1736
 1434SOL     OW 5780   4.064   2.430   2.250  0.1652  0.0233 -0.3046
 1434SOL    HW2 5781   4.044   2.514   2.292  0.4545 -0.2676  0.4221
 1434SOL    HW3 5782   4.000   2.369   2.287 -0.3297  0.0123 -1.1617
 1434SOL    MW4 5783   4.053   2.433   2.260  0.1383 -0.0165 -0.3216
 1435SOL     OW 5784   4.034   2.664   2.377 -0.1267  0.3451 -0.5868
 1435SOL    HW2 5785   4.026   2.681   2.471 -1.2900 -2.3551 -0.1310
 1435SOL    HW3 5786   3.965   2.717   2.337 -0.6524  0.3298  0.2714
 1435SOL    MW4 5787   4.024   2.673   2.384 -0.3495 -0.0134 -0.4137
 1436SOL     OW 5788   4.238   2.843   2.289 -0.0560 -0.5925  0.4434
 1436SOL    HW2 5789   4.163   2.790   2.315  0.8281 -2.6803 -1.1601
 1436SOL    HW3 5790   4.314   2.789   2.308  0.8163 -0.3386 -2.0951
 1436SOL    MW4 5791   4.238   2.829   2.295  0.1755 -0.8347 -0.1030
 1437SOL     OW 5792   4.245   3.092   2.401  0.0496 -0.2418  0.0576
 1437SOL    HW2 5793   4.245   3.007   2.356  0.0427 -0.0987 -0.2083
 1437SOL    HW3 5794   4.317   3.140   2.362 -0.2529  0.0600 -0.1319
 1437SOL    MW4 5795   4.254   3.087   2.390  0.0086 -0.1831 -0.0026
 1438SOL     OW 5796   4.031   3.218   2.276 -0.1237 -0.1272  0.0627
 1438SOL    HW2 5797   4.033   3.312   2.292  0.7026  0.1467 -1.5657
 1438SOL    HW3 5798   4.112   3.185   2.314 -0.4705 -0.2124  0.7412
 1438SOL    MW4 5799   4.042   3.226   2.283 -0.0606 -0.1023 -0.0625
 1439SOL     OW 5800   4.012   3.474   2.375  0.1917  0.0671  0.7088
 1439SOL    HW2 5801   4.084   3.531   2.348 -0.0710  0.5833  1.0803
 1439SOL    HW3 5802   3.934   3.530   2.370  0.0269 -0.0675  1.7324
 1439SOL    MW4 5803   4.011   3.489   2.371  0.1349  0.1175  0.8929
 1440SOL     OW 5804   4.233   3.611   2.309 -0.5474  0.3144  0.5483
 1440SOL    HW2 5805   4.244   3.703   2.337  0.1937  0.2547  0.4730
 1440SOL    HW3 5806   4.228   3.616   2.214 -0.6638  0.2894  0.5534
 1440SOL    MW4 5807   4.234   3.624   2.300 -0.4644  0.3030  0.5391
 1441SOL     OW 5808   4.249   3.895   2.338  0.2688 -0.2042  0.3348
 1441SOL    HW2 5809   4.249   3.911   2.433 -1.0159  0.7196  0.1877
 1441SOL    HW3 5810   4.330   3.934   2.307  0.4670 -0.0861  0.9926
 1441SOL    MW4 5811   4.259   3.902   2.347  0.1254 -0.0668  0.4020
 1442SOL     OW 5812   4.009   4.028   2.298  0.0102  0.4977 -0.3229
 1442SOL    HW2 5813   4.086   3.973   2.317 -1.3893 -1.0476  1.0082
 1442SOL    HW3 5814   4.004   4.029   2.203  0.6230 -0.8954 -0.3888
 1442SOL    MW4 5815   4.019   4.020   2.288 -0.0935  0.1106 -0.1559
 1443SOL     OW 5816   4.031   4.305   2.343 -0.3554 -0.0423 -0.1658
 1443SOL    HW2 5817   4.110   4.329   2.294 -1.1999 -0.1166 -1.5858
 1443SOL    HW3 5818   4.029   4.209   2.340 -0.9958 -0.0067 -0.9280
 1443SOL    MW4 5819   4.041   4.295   2.336 -0.5512 -0.0472 -0.4537
 1444SOL     OW 5820   4.292   4.381   2.249 -0.1107  0.5582 -0.0839
 1444SOL    HW2 5821   4.286   4.463   2.299 -1.4094  0.8289 -0.6678
 1444SOL    HW3 5822   4.356   4.328   2.297 -0.3830  1.3185  1.1339
 1444SOL    MW4 5823   4.300   4.385   2.262 -0.3185  0.6943 -0.0002
 1445SOL     OW 5824   0.228   4.609   2.639 -0.0910 -0.4375 -0.2437
 1445SOL    HW2 5825   0.239   4.521   2.676 -0.0750 -0.7572 -0.9975
 1445SOL    HW3 5826   0.150   4.644   2.683 -0.5028 -1.0930 -0.4440
 1445SOL    MW4 5827   0.219   4.602   2.650 -0.1432 -0.5670 -0.3698
 1446SOL     OW 5828   0.023   0.077   2.779  0.0508  0.3399  0.1187
 1446SOL    HW2 5829   0.055   0.068   2.869  0.3521 -0.0663 -0.0243
 1446SOL    HW3 5830  -0.007   0.167   2.772 -0.4283  0.2291  0.7760
 1446SOL    MW4 5831   0.023   0.088   2.790  0.0277  0.2717  0.1867
 1447SOL     OW 5832   0.004   0.347   2.726  0.0395  0.3586 -0.3024
 1447SOL    HW2 5833   0.084   0.394   2.749 -0.1981  0.7075 -0.1884
 1447SOL    HW3 5834   0.007   0.340   2.630  0.1027  0.5526 -0.3146
 1447SOL    MW4 5835   0.015   0.352   2.716  0.0167  0.4302 -0.2890
 1448SOL     OW 5836   0.252   0.486   2.768  0.6813 -0.1305 -0.0521
 1448SOL    HW2 5837   0.248   0.472   2.862  0.8006 -0.5611 -0.1090
 1448SOL    HW3 5838   0.321   0.426   2.738  0.7298  0.0961 -0.3935
 1448SOL    MW4 5839   0.261   0.476   2.776  0.7034 -0.1574 -0.1049
 1449SOL     OW 5840   0.234   0.744   2.662  0.6782  0.2120  0.5120
 1449SOL    HW2 5841   0.315   0.783   2.695  0.9116  0.8875 -0.8125
 1449SOL    HW3 5842   0.234   0.655   2.696  1.6153  0.4517  1.1314
 1449SOL    MW4 5843   0.245   0.737   2.671  0.8326  0.3328  0.4189
 1450SOL     OW 5844   0.006   0.891   2.723 -0.9729  0.1548  0.3093
 1450SOL    HW2 5845  -0.070   0.835   2.706  0.4015 -1.1376 -1.7466
 1450SOL    HW3 5846   0.079   0.845   2.684  0.6889  2.0153  1.1375
 1450SOL    MW4 5847   0.005   0.878   2.715 -0.5723  0.2298  0.1471
 1451SOL     OW 5848   0.014   1.163   2.633 -0.0303  0.2574  0.5140
 1451SOL    HW2 5849   0.099   1.183   2.671  1.0278 -1.9004 -0.6135
 1451SOL    HW3 5850  -0.006   1.075   2.665 -0.4579 -0.4138 -1.5297
 1451SOL    MW4 5851   0.023   1.154   2.642  0.0529 -0.1159  0.0956
 1452SOL     OW 5852   0.251   1.235   2.741  0.3203  0.3298 -0.2970
 1452SOL    HW2 5853   0.326   1.184   2.710  1.3764  1.6778 -0.0055
 1452SOL    HW3 5854   0.263   1.322   2.703 -0.1219  1.0739  1.1941
 1452SOL    MW4 5855   0.262   1.240   2.732  0.4013  0.6059 -0.0615
 1453SOL     OW 5856   0.239   1.480   2.662 -0.2200 -0.3684 -0.2807
 1453SOL    HW2 5857   0.320   1.529   2.679  0.7108 -2.3138  1.0973
 1453SOL    HW3 5858   0.171   1.531   2.705  0.3850  0.8869 -0.7818
 1453SOL    MW4 5859   0.241   1.493   2.670 -0.0174 -0.4596 -0.1647
 1454SOL     OW 5860   0.045   1.668   2.758 -0.2009  0.2054  0.1700
 1454SOL    HW2 5861   0.036   1.653   2.852  1.3641 -1.2073  0.1231
 1454SOL    HW3 5862   0.048   1.763   2.749 -1.1233  0.3670  1.4685
 1454SOL    MW4 5863   0.044   1.678   2.770 -0.1162  0.0402  0.3350
 1455SOL     OW 5864   0.025   1.942   2.699 -0.1945  0.3262 -0.3020
 1455SOL    HW2 5865   0.105   1.991   2.718  0.4028 -0.8950  0.3847
 1455SOL    HW3 5866   0.025   1.931   2.604  1.5955 -1.5431 -0.1189
 1455SOL    MW4 5867   0.035   1.947   2.689  0.1206 -0.0814 -0.1872
 1456SOL     OW 5868   0.263   2.048   2.775 -0.0066 -0.0529 -0.5567
 1456SOL    HW2 5869   0.325   2.002   2.718  0.6356 -0.3942  0.3973
 1456SOL    HW3 5870   0.259   2.137   2.741  0.4192 -0.2389 -1.0913
 1456SOL    MW4 5871   0.271   2.053   2.763  0.1343 -0.1223 -0.5014
 1457SOL     OW 5872   0.234   2.287   2.671 -0.0172 -0.1719  0.1385
 1457SOL    HW2 5873   0.314   2.339   2.686 -0.0863  0.1034 -0.4363
 1457SOL    HW3 5874   0.165   2.338   2.714  0.2794 -0.9397  1.5537
 1457SOL    MW4 5875   0.236   2.301   2.679  0.0128 -0.2370  0.2494
 1458SOL     OW 5876   0.032   2.427   2.776 -0.0703  0.2256  0.2488
 1458SOL    HW2 5877   0.031   2.434   2.871  0.1294 -2.1685  0.4521
 1458SOL    HW3 5878  -0.053   2.391   2.753 -0.0409  0.5982 -0.4799
 1458SOL    MW4 5879   0.021   2.423   2.785 -0.0401 -0.0410  0.1795
 1459SOL     OW 5880   4.481   2.678   2.623  0.7305 -0.0924  0.3379
 1459SOL    HW2 5881   4.399   2.717   2.654  0.9845  1.4684 -0.8630
 1459SOL    HW3 5882   4.483   2.591   2.662 -1.2401  0.0561  0.8137
 1459SOL    MW4 5883   4.470   2.672   2.632  0.5035  0.1330  0.2425
 1460SOL     OW 5884   0.205   2.821   2.746  0.0620 -0.0786  0.4104
 1460SOL    HW2 5885   0.166   2.909   2.743 -1.0675 -0.5960 -0.1937
 1460SOL    HW3 5886   0.139   2.764   2.709  1.2930 -1.0276 -0.3548
 1460SOL    MW4 5887   0.191   2.825   2.741  0.0754 -0.2723  0.2296
 1461SOL     OW 5888   0.177   3.093   2.672  0.6245 -0.4460 -0.0916
 1461SOL    HW2 5889   0.261   3.121   2.708  0.4760 -0.2168  0.0762
 1461SOL    HW3 5890   0.195   3.077   2.579  0.5382  0.9467 -0.3588
 1461SOL    MW4 5891   0.191   3.094   2.665  0.5935 -0.2320 -0.1049
 1462SOL     OW 5892   4.448   3.226   2.760  0.3879  0.1613 -0.1766
 1462SOL    HW2 5893   4.377   3.167   2.733  0.4372 -0.3876  0.8858
 1462SOL    HW3 5894   4.528   3.183   2.729  0.3500  0.1717 -0.2898
 1462SOL    MW4 5895   4.449   3.213   2.752  0.3896  0.0904 -0.0515
 1463SOL     OW 5896   4.482   3.468   2.633 -0.0789 -0.1542 -0.1528
 1463SOL    HW2 5897   4.552   3.511   2.682  0.7762 -0.3929 -1.1341
 1463SOL    HW3 5898   4.469   3.385   2.677  0.6925 -0.3708 -0.3267
 1463SOL    MW4 5899   4.490   3.463   2.645  0.1357 -0.2141 -0.3052
 1464SOL     OW 5900   0.222   3.578   2.785  0.0614 -0.0676 -0.2536
 1464SOL    HW2 5901   0.229   3.587   2.880  0.1366  2.1509 -0.4430
 1464SOL    HW3 5902   0.298   3.526   2.760  0.7299  0.3878  0.7919
 1464SOL    MW4 5903   0.233   3.573   2.794  0.1595  0.2851 -0.1409
 1465SOL     OW 5904   0.190   3.842   2.661  0.3023  0.3369  0.0285
 1465SOL    HW2 5905   0.206   3.751   2.687 -1.3182 -0.0912 -0.4054
 1465SOL    HW3 5906   0.212   3.844   2.567 -0.1048  0.2711 -0.0700
 1465SOL    MW4 5907   0.195   3.830   2.652  0.0347  0.2718 -0.0415
 1466SOL     OW 5908   4.460   3.980   2.738  0.5802 -0.3047 -0.2015
 1466SOL    HW2 5909   4.472   4.068   2.701  2.1936 -0.4341 -0.0247
 1466SOL    HW3 5910   4.534   3.930   2.703 -0.8741 -1.8604 -1.0914
 1466SOL    MW4 5911   4.471   3.985   2.728  0.6008 -0.5269 -0.2956
 1467SOL     OW 5912   0.001   4.242   2.627  0.3670 -0.0485  0.3321
 1467SOL    HW2 5913  -0.063   4.310   2.650  1.0255  0.6721  0.0175
 1467SOL    HW3 5914   0.078   4.263   2.679  0.6095 -0.4950  0.1524
 1467SOL    MW4 5915   0.002   4.254   2.637  0.4858 -0.0129  0.2668
 1468SOL     OW 5916   0.233   4.345   2.763 -0.1967  0.2816  0.0879
 1468SOL    HW2 5917   0.235   4.355   2.858  0.7838  0.5963  0.0407
 1468SOL    HW3 5918   0.324   4.330   2.738 -0.6721 -1.6496 -0.6190
 1468SOL    MW4 5919   0.245   4.344   2.772 -0.1301  0.0687 -0.0114
 1469SOL     OW 5920   0.688   4.642   2.658  0.0063 -0.4145  0.2034
 1469SOL    HW2 5921   0.761   4.685   2.704  0.2824 -1.3506  0.6660
 1469SOL    HW3 5922   0.610   4.686   2.691  0.2315 -0.7893  1.2730
 1469SOL    MW4 5923   0.687   4.653   2.669  0.0724 -0.5875  0.4055
 1470SOL     OW 5924   0.434   0.078   2.754  0.0281 -0.5119 -0.3530
 1470SOL    HW2 5925   0.416   0.071   2.847  2.5273 -2.7421  0.0290
 1470SOL    HW3 5926   0.367   0.024   2.712 -1.8214  1.4266 -0.0065
 1470SOL    MW4 5927   0.423   0.070   2.760  0.1139 -0.5504 -0.2568
 1471SOL     OW 5928   0.448   0.327   2.663 -0.0795  0.0735  0.2075
 1471SOL    HW2 5929   0.528   0.369   2.694 -0.3695  0.0880  0.9404
 1471SOL    HW3 5930   0.452   0.238   2.699 -0.8178  0.3489  0.9776
 1471SOL    MW4 5931   0.459   0.321   2.672 -0.2151  0.1117  0.4058
 1472SOL     OW 5932   0.662   0.481   2.769  0.1197 -0.2287  0.3143
 1472SOL    HW2 5933   0.659   0.483   2.865 -2.2694 -0.2327  0.2545
 1472SOL    HW3 5934   0.750   0.448   2.749  0.9095  0.4635  2.4827
 1472SOL    MW4 5935   0.673   0.477   2.779 -0.0913 -0.1378  0.5925
 1473SOL     OW 5936   0.680   0.720   2.638  0.1536 -0.5783  0.1488
 1473SOL    HW2 5937   0.768   0.751   2.661  1.0492 -2.0800 -1.2286
 1473SOL    HW3 5938   0.670   0.638   2.686 -0.4761 -0.4622  0.2225
 1473SOL    MW4 5939   0.690   0.714   2.648  0.1888 -0.7611 -0.0229
 1474SOL     OW 5940   0.458   0.869   2.759 -0.2936 -0.2053  0.0314
 1474SOL    HW2 5941   0.465   0.952   2.713  1.0721 -0.4257 -0.1859
 1474SOL    HW3 5942   0.538   0.821   2.735  0.0234 -0.6764  1.9327
 1474SOL    MW4 5943   0.469   0.873   2.749 -0.0716 -0.2965  0.2534
 1475SOL     OW 5944   0.500   1.128   2.650  0.2705 -0.0273 -0.8369
 1475SOL    HW2 5945   0.579   1.172   2.682  0.8902 -0.7611 -1.3469
 1475SOL    HW3 5946   0.503   1.139   2.555 -0.6749  0.6527 -0.7888
 1475SOL    MW4 5947   0.511   1.135   2.642  0.2275 -0.0343 -0.8979
 1476SOL     OW 5948   0.713   1.272   2.761 -0.1233 -0.1475  0.3152
 1476SOL    HW2 5949   0.718   1.272   2.856  1.8002  1.9003  0.2467
 1476SOL    HW3 5950   0.784   1.213   2.733 -0.2818 -0.2559  0.1415
 1476SOL    MW4 5951   0.723   1.264   2.770  0.1096  0.1084  0.2832
 1477SOL     OW 5952   0.726   1.519   2.646  0.2967  0.5355  0.0583
 1477SOL    HW2 5953   0.638   1.548   2.667 -0.2373 -0.2304 -1.0909
 1477SOL    HW3 5954   0.734   1.434   2.690 -0.0667 -0.0840 -1.0703
 1477SOL    MW4 5955   0.716   1.511   2.655  0.1783  0.3527 -0.2422
 1478SOL     OW 5956   0.470   1.611   2.707  0.2271  0.3139  0.4657
 1478SOL    HW2 5957   0.482   1.618   2.802  1.7850  1.3167  0.2095
 1478SOL    HW3 5958   0.449   1.700   2.679  0.0580  0.0730 -0.1791
 1478SOL    MW4 5959   0.469   1.624   2.716  0.4103  0.4145  0.3467
 1479SOL     OW 5960   0.424   1.875   2.634 -0.1445  0.4544 -0.5021
 1479SOL    HW2 5961   0.511   1.905   2.658  0.4954 -1.0702 -0.8903
 1479SOL    HW3 5962   0.423   1.878   2.538  0.0004 -0.9794 -0.5489
 1479SOL    MW4 5963   0.435   1.880   2.624 -0.0409  0.0641 -0.5593
 1480SOL     OW 5964   0.657   2.019   2.733 -0.2237 -0.2652  0.0787
 1480SOL    HW2 5965   0.667   2.025   2.828  0.4523  0.0430 -0.0095
 1480SOL    HW3 5966   0.744   1.994   2.701 -0.3026  0.2008 -0.5110
 1480SOL    MW4 5967   0.670   2.016   2.741 -0.1448 -0.1631 -0.0107
 1481SOL     OW 5968   0.677   2.290   2.649 -0.3361  0.3616 -0.2329
 1481SOL    HW2 5969   0.751   2.331   2.693 -0.6304  0.4481  0.1889
 1481SOL    HW3 5970   0.677   2.200   2.682 -0.4035  0.3561 -0.2476
 1481SOL    MW4 5971   0.687   2.284   2.659 -0.3839  0.3724 -0.1788
 1482SOL     OW 5972   0.472   2.445   2.711 -0.1835 -0.0804  0.0687
 1482SOL    HW2 5973   0.474   2.533   2.673  0.0142  0.4845  1.3491
 1482SOL    HW3 5974   0.546   2.400   2.671  0.0047  0.4924 -0.2400
 1482SOL    MW4 5975   0.482   2.451   2.701 -0.1326  0.0699  0.1969
 1483SOL     OW 5976   0.426   2.711   2.633 -0.1329  0.0379  0.7527
 1483SOL    HW2 5977   0.499   2.749   2.683 -0.2231 -0.0163  0.9273
 1483SOL    HW3 5978   0.348   2.738   2.682 -0.1533 -1.0819  1.3543
 1483SOL    MW4 5979   0.426   2.719   2.646 -0.1475 -0.1171  0.8552
 1484SOL     OW 5980   0.670   2.804   2.727  0.1381  0.1938 -0.1370
 1484SOL    HW2 5981   0.666   2.802   2.823 -1.1784  0.2620 -0.1926
 1484SOL    HW3 5982   0.670   2.897   2.705  0.9940  0.1903 -0.1955
 1484SOL    MW4 5983   0.670   2.816   2.737  0.0773  0.2024 -0.1521
 1485SOL     OW 5984   0.689   3.088   2.640  0.1385  0.3679  0.1163
 1485SOL    HW2 5985   0.770   3.128   2.670  0.3673  0.6234 -0.8321
 1485SOL    HW3 5986   0.686   3.107   2.546 -0.5580 -0.4320 -0.0283
 1485SOL    MW4 5987   0.699   3.096   2.631  0.0768  0.2961 -0.0277
 1486SOL     OW 5988   0.438   3.188   2.741 -0.1169 -0.2340 -0.0011
 1486SOL    HW2 5989   0.466   3.186   2.833  0.3417  2.9358 -0.0028
 1486SOL    HW3 5990   0.512   3.152   2.693  0.8078  0.7334  0.6691
 1486SOL    MW4 5991   0.451   3.183   2.747  0.0656  0.3119  0.0870
 1487SOL     OW 5992   0.437   3.446   2.674  0.1223  0.5182 -0.0135
 1487SOL    HW2 5993   0.441   3.354   2.700  1.2016  0.5712  0.0334
 1487SOL    HW3 5994   0.408   3.444   2.583 -2.7798  0.2875  0.8904
 1487SOL    MW4 5995   0.434   3.434   2.666 -0.1182  0.4947  0.1121
 1488SOL     OW 5996   0.676   3.625   2.728 -0.1218  0.2761  0.7552
 1488SOL    HW2 5997   0.683   3.605   2.821 -0.3765  0.3595  0.7926
 1488SOL    HW3 5998   0.605   3.568   2.697  0.2957 -0.1192  0.5086
 1488SOL    MW4 5999   0.667   3.615   2.736 -0.1003  0.2351  0.7277
 1489SOL     OW 6000   0.681   3.888   2.668  0.2860  0.0790  0.0040
 1489SOL    HW2 6001   0.599   3.921   2.704  0.7638  0.4228  0.7752
 1489SOL    HW3 6002   0.681   3.795   2.689  0.6769  0.3282  1.0988
 1489SOL    MW4 6003   0.670   3.880   2.675  0.4005  0.1574  0.2501
 1490SOL     OW 6004   0.415   3.990   2.772 -0.0645  0.0855 -0.4074
 1490SOL    HW2 6005   0.426   4.075   2.730 -0.2909  0.1308 -0.3757
 1490SOL    HW3 6006   0.338   3.952   2.730 -0.0822 -0.0189 -0.2815
 1490SOL    MW4 6007   0.406   3.996   2.761 -0.0967  0.0777 -0.3867
 1491SOL     OW 6008   0.491   4.249   2.697 -0.1996 -0.1617  0.1680
 1491SOL    HW2 6009   0.559   4.305   2.736  0.3975 -0.9639  0.2988
 1491SOL    HW3 6010   0.517   4.241   2.605 -0.5477  0.1717  0.0431
 1491SOL    MW4 6011   0.503   4.255   2.690 -0.1667 -0.2232  0.1688
 1492SOL     OW 6012   0.702   4.413   2.804 -0.0268  0.2846  0.7715
 1492SOL    HW2 6013   0.769   4.367   2.753  0.4710  0.2126  1.4834
 1492SOL    HW3 6014   0.700   4.501   2.767 -0.8660 -0.2583 -0.4871
 1492SOL    MW4 6015   0.710   4.419   2.793 -0.0718  0.2036  0.6995
 1493SOL     OW 6016   1.133   4.626   2.659 -0.0039 -0.1545 -0.7948
 1493SOL    HW2 6017   1.212   4.674   2.685 -0.1485  0.3618 -1.2924
 1493SOL    HW3 6018   1.151   4.535   2.683 -0.3160  0.3608  1.5387
 1493SOL    MW4 6019   1.146   4.620   2.666 -0.0643 -0.0181 -0.5522
 1494SOL     OW 6020   0.906   0.087   2.768 -0.2616 -0.0434 -0.5961
 1494SOL    HW2 6021   0.911   0.084   2.863 -0.4676 -1.4613 -0.6229
 1494SOL    HW3 6022   0.983   0.040   2.738 -1.4037 -1.6543 -1.1030
 1494SOL    MW4 6023   0.917   0.081   2.777 -0.4395 -0.4430 -0.6666
 1495SOL     OW 6024   0.894   0.347   2.665  0.3602  0.5232 -0.5128
 1495SOL    HW2 6025   0.882   0.258   2.697 -2.0945  1.1992  0.5879
 1495SOL    HW3 6026   0.888   0.339   2.570  0.8173 -0.5557 -0.4590
 1495SOL    MW4 6027   0.892   0.335   2.657  0.0966  0.4701 -0.3605
 1496SOL     OW 6028   1.133   0.463   2.721 -0.2223  0.3185 -0.3383
 1496SOL    HW2 6029   1.145   0.558   2.717 -0.8119  0.3617 -1.2043
 1496SOL    HW3 6030   1.041   0.450   2.698 -0.2635 -0.4290  0.2442
 1496SOL    MW4 6031   1.122   0.474   2.718 -0.3054  0.2255 -0.3755
 1497SOL     OW 6032   1.188   0.742   2.650 -0.0855 -0.6225  0.2860
 1497SOL    HW2 6033   1.260   0.800   2.675 -0.7348  0.1009  0.4923
 1497SOL    HW3 6034   1.185   0.747   2.554  0.2035 -0.7396  0.2694
 1497SOL    MW4 6035   1.197   0.750   2.640 -0.1330 -0.5425  0.3111
 1498SOL     OW 6036   0.936   0.840   2.727 -0.0633 -0.6271 -0.1948
 1498SOL    HW2 6037   0.959   0.847   2.820  1.0902  1.1895 -0.5823
 1498SOL    HW3 6038   1.018   0.816   2.685 -0.6263 -1.6163 -0.7306
 1498SOL    MW4 6039   0.950   0.838   2.734  0.0145 -0.5179 -0.3166
 1499SOL     OW 6040   0.905   1.104   2.627 -0.5539  0.0440 -0.1778
 1499SOL    HW2 6041   0.899   1.012   2.653 -0.8515  0.0676 -0.1583
 1499SOL    HW3 6042   0.898   1.103   2.532 -0.3855  0.0320 -0.1900
 1499SOL    MW4 6043   0.904   1.092   2.618 -0.5709  0.0454 -0.1767
 1500SOL     OW 6044   1.143   1.241   2.709  0.2911 -0.3939 -0.1026
 1500SOL    HW2 6045   1.135   1.331   2.677  1.6935  0.5017  1.9171
 1500SOL    HW3 6046   1.066   1.197   2.675 -0.3374  1.5375 -1.2837
 1500SOL    MW4 6047   1.132   1.247   2.701  0.3933 -0.0211  0.0079
 1501SOL     OW 6048   1.120   1.503   2.622  0.1063 -0.2111  0.0825
 1501SOL    HW2 6049   1.048   1.543   2.670  0.1790 -0.7692  0.6460
 1501SOL    HW3 6050   1.102   1.526   2.530 -0.5762 -0.0253  0.2587
 1501SOL    MW4 6051   1.108   1.512   2.616  0.0257 -0.2601  0.1800
 1502SOL     OW 6052   0.939   1.667   2.747 -0.1108  0.0591 -0.0165
 1502SOL    HW2 6053   0.938   1.673   2.842 -0.8597 -0.0653 -0.0178
 1502SOL    HW3 6054   0.858   1.621   2.724 -0.1859  0.5426 -0.7414
 1502SOL    MW4 6055   0.928   1.662   2.756 -0.2195  0.1066 -0.1128
 1503SOL     OW 6056   0.891   1.907   2.622  0.1833  0.0551  0.3681
 1503SOL    HW2 6057   0.958   1.973   2.642 -0.0810  0.1422  0.9656
 1503SOL    HW3 6058   0.915   1.831   2.675 -1.0299  0.6003  1.7103
 1503SOL    MW4 6059   0.903   1.906   2.632 -0.0117  0.1384  0.6242
 1504SOL     OW 6060   1.095   2.082   2.720 -0.2335  0.2190  0.6320
 1504SOL    HW2 6061   1.172   2.029   2.696 -0.1221  0.2763  0.8653
 1504SOL    HW3 6062   1.105   2.163   2.670  0.4393  0.6859  1.5361
 1504SOL    MW4 6063   1.106   2.085   2.710 -0.1301  0.2882  0.7818
 1505SOL     OW 6064   1.167   2.311   2.577  0.2851 -0.2485  0.3128
 1505SOL    HW2 6065   1.253   2.346   2.598 -0.1698  1.1236 -0.0364
 1505SOL    HW3 6066   1.155   2.330   2.484 -0.2510 -0.7440  0.2718
 1505SOL    MW4 6067   1.176   2.318   2.567  0.1543 -0.1330  0.2611
 1506SOL     OW 6068   0.914   2.403   2.745 -0.0239  0.1241  0.2193
 1506SOL    HW2 6069   0.914   2.489   2.703  1.2839  0.7075  1.3765
 1506SOL    HW3 6070   0.971   2.349   2.691  2.7896  1.2629  1.9575
 1506SOL    MW4 6071   0.922   2.407   2.733  0.5199  0.3512  0.6013
 1507SOL     OW 6072   0.892   2.664   2.628 -0.1708 -0.0091 -0.3955
 1507SOL    HW2 6073   0.957   2.723   2.665 -1.1232  1.2049 -0.6357
 1507SOL    HW3 6074   0.808   2.700   2.655 -0.8722  0.5036 -3.1067
 1507SOL    MW4 6075   0.890   2.676   2.636 -0.3890  0.2186 -0.7849
 1508SOL     OW 6076   1.092   2.834   2.715 -0.0588 -0.2362 -0.0844
 1508SOL    HW2 6077   1.102   2.799   2.804 -0.6274  0.2272  0.1645
 1508SOL    HW3 6078   1.161   2.791   2.665 -0.2141 -1.0781  0.4111
 1508SOL    MW4 6079   1.102   2.824   2.720 -0.1543 -0.2861  0.0138
 1509SOL     OW 6080   1.148   3.096   2.656  0.0000  0.0000 -0.4119
 1509SOL    HW2 6081   1.122   3.007   2.679  0.0000  0.0000 -0.4174
 1509SOL    HW3 6082   1.136   3.101   2.561  0.0000  0.0000 -0.4122
 1509SOL    MW4 6083   1.143   3.085   2.647  0.0000  0.0000 -0.4127
 1510SOL     OW 6084   0.919   3.208   2.758  0.0000  0.0000  0.2901
 1510SOL    HW2 6085   0.903   3.287   2.706  0.0000  0.0000  0.3034
 1510SOL    HW3 6086   1.006   3.179   2.730  0.0000  0.0000  0.2558
 1510SOL    MW4 6087   0.928   3.215   2.747  0.0000  0.0000  0.2871
 1511SOL     OW 6088   0.887   3.462   2.641  0.0000  0.0000  0.3531
 1511SOL    HW2 6089   0.961   3.509   2.682  0.0000  0.0000  0.3304
 1511SOL    HW3 6090   0.810   3.512   2.668  0.0000  0.0000  0.3760
 1511SOL    MW4 6091   0.887   3.475   2.650  0.0000  0.0000  0.3533
 1512SOL     OW 6092   1.102   3.599   2.744  0.0000  0.0000  0.2835
 1512SOL    HW2 6093   1.101   3.626   2.836  0.0000  0.0000  0.2828
 1512SOL    HW3 6094   1.100   3.681   2.695  0.0000  0.0000  0.2811
 1512SOL    MW4 6095   1.102   3.613   2.749  0.0000  0.0000  0.2830
 1513SOL     OW 6096   1.098   3.851   2.632  0.0000  0.0000 -0.0175
 1513SOL    HW2 6097   1.178   3.889   2.670  0.0000  0.0000 -0.0223
 1513SOL    HW3 6098   1.110   3.859   2.538  0.0000  0.0000 -0.0186
 1513SOL    MW4 6099   1.110   3.857   2.625  0.0000  0.0000 -0.0181
 1514SOL     OW 6100   0.893   4.008   2.762  0.0000  0.0000 -0.1091
 1514SOL    HW2 6101   0.957   3.963   2.707  0.0000  0.0000 -0.1152
 1514SOL    HW3 6102   0.809   3.969   2.736  0.0000  0.0000 -0.1211
 1514SOL    MW4 6103   0.890   3.997   2.751  0.0000  0.0000 -0.1118
 1515SOL     OW 6104   0.888   4.266   2.668  0.0000  0.0000 -0.1004
 1515SOL    HW2 6105   0.892   4.173   2.693  0.0000  0.0000 -0.1114
 1515SOL    HW3 6106   0.884   4.265   2.572  0.0000  0.0000 -0.1007
 1515SOL    MW4 6107   0.888   4.254   2.659  0.0000  0.0000 -0.1018
 1516SOL     OW 6108   1.144   4.351   2.721  0.0000  0.0000 -0.6101
 1516SOL    HW2 6109   1.137   4.378   2.812  0.0000  0.0000 -0.6105
 1516SOL    HW3 6110   1.055   4.327   2.696  0.0000  0.0000 -0.6218
 1516SOL    MW4 6111   1.131   4.351   2.729  0.0000  0.0000 -0.6118
 1517SOL     OW 6112   1.593   4.643   2.666  0.0000  0.0000  0.1139
 1517SOL    HW2 6113   1.588   4.549   2.683  0.0000  0.0000  0.1192
 1517SOL    HW3 6114   1.581   4.652   2.572  0.0000  0.0000  0.1134
 1517SOL    MW4 6115   1.591   4.632   2.656  0.0000  0.0000  0.1147
 1518SOL     OW 6116   1.353   0.096   2.756  0.1381  0.8254  0.3510
 1518SOL    HW2 6117   1.344   0.165   2.689  0.5781  2.6186  2.0952
 1518SOL    HW3 6118   1.433   0.050   2.731 -0.6215  0.3604 -1.3233
 1518SOL    MW4 6119   1.362   0.099   2.744  0.0960  1.0006  0.3600
 1519SOL     OW 6120   1.339   0.326   2.602 -0.2745 -0.1122  0.8489
 1519SOL    HW2 6121   1.411   0.367   2.651 -0.2004  0.5830  0.1808
 1519SOL    HW3 6122   1.260   0.371   2.634 -0.1923  0.5739  0.1094
 1519SOL    MW4 6123   1.338   0.338   2.613 -0.2538  0.0700  0.6633
 1520SOL     OW 6124   1.550   0.502   2.696  0.0069 -0.1825 -0.0666
 1520SOL    HW2 6125   1.632   0.453   2.684 -0.3961 -0.5894 -1.2038
 1520SOL    HW3 6126   1.570   0.589   2.663  0.0053 -0.2556 -0.2605
 1520SOL    MW4 6127   1.564   0.507   2.690 -0.0465 -0.2458 -0.2425
 1521SOL     OW 6128   1.615   0.750   2.594 -0.3351  0.4100 -0.1118
 1521SOL    HW2 6129   1.542   0.803   2.625  0.8166  2.0209 -0.0918
 1521SOL    HW3 6130   1.605   0.749   2.499 -1.0233 -0.3408 -0.0381
 1521SOL    MW4 6131   1.604   0.757   2.585 -0.2739  0.5235 -0.0994
 1522SOL     OW 6132   1.414   0.901   2.712  0.1552 -0.3823  0.1062
 1522SOL    HW2 6133   1.387   0.917   2.803  0.4119 -0.1274  0.1371
 1522SOL    HW3 6134   1.389   0.981   2.666  1.5880  0.1956  0.2917
 1522SOL    MW4 6135   1.407   0.914   2.718  0.3781 -0.2724  0.1345
 1523SOL     OW 6136   1.349   1.115   2.561 -0.4269 -0.4705  0.1515
 1523SOL    HW2 6137   1.406   1.165   2.618 -0.2911 -0.1175 -0.2929
 1523SOL    HW3 6138   1.261   1.150   2.577 -0.1574  0.8548 -1.1499
 1523SOL    MW4 6139   1.345   1.126   2.570 -0.3734 -0.2491 -0.0789
 1524SOL     OW 6140   1.536   1.250   2.699 -0.0286 -0.0785 -0.0536
 1524SOL    HW2 6141   1.548   1.257   2.794 -1.0501 -0.4983  0.1241
 1524SOL    HW3 6142   1.622   1.229   2.665  0.3661  0.1667  0.7791
 1524SOL    MW4 6143   1.549   1.248   2.707 -0.1113 -0.1014  0.0799
 1525SOL     OW 6144   1.562   1.519   2.632  0.2303 -0.5543 -0.4298
 1525SOL    HW2 6145   1.545   1.427   2.652 -0.8993 -0.3227 -0.2544
 1525SOL    HW3 6146   1.553   1.526   2.537 -2.8610 -0.0343 -0.1466
 1525SOL    MW4 6147   1.558   1.508   2.622 -0.3265 -0.4551 -0.3693
 1526SOL     OW 6148   1.339   1.663   2.736 -0.3518 -0.0785  0.0462
 1526SOL    HW2 6149   1.416   1.615   2.706 -0.1693  0.3725 -0.2113
 1526SOL    HW3 6150   1.265   1.614   2.702 -0.1651 -0.1696 -0.2294
 1526SOL    MW4 6151   1.339   1.651   2.728 -0.3031 -0.0310 -0.0243
 1527SOL     OW 6152   1.339   1.946   2.652 -0.2619 -0.1944 -0.1389
 1527SOL    HW2 6153   1.337   1.856   2.685 -1.5732 -0.5602 -1.1761
 1527SOL    HW3 6154   1.350   1.937   2.558 -1.3167  0.6924 -0.3566
 1527SOL    MW4 6155   1.340   1.933   2.644 -0.5741 -0.1258 -0.3045
 1528SOL     OW 6156   1.575   2.062   2.719  0.0403 -0.0954  0.1443
 1528SOL    HW2 6157   1.642   2.028   2.660  0.6095  1.6235 -0.2164
 1528SOL    HW3 6158   1.493   2.030   2.682  0.5629 -1.2530 -0.0512
 1528SOL    MW4 6159   1.573   2.053   2.706  0.1844 -0.0215  0.0708
 1529SOL     OW 6160   1.601   2.322   2.609  0.1976 -0.2364  0.6853
 1529SOL    HW2 6161   1.667   2.363   2.665  1.5708  0.4602 -1.3953
 1529SOL    HW3 6162   1.593   2.232   2.643  1.8043 -0.1641  1.2927
 1529SOL    MW4 6163   1.609   2.315   2.621  0.5907 -0.1349  0.4911
 1530SOL     OW 6164   1.368   2.445   2.702 -0.2112  0.2954 -0.5501
 1530SOL    HW2 6165   1.346   2.534   2.674 -0.8237  0.2838 -0.1179
 1530SOL    HW3 6166   1.450   2.425   2.657  0.1841  1.2606 -0.2699
 1530SOL    MW4 6167   1.376   2.454   2.692 -0.2398  0.4210 -0.4559
 1531SOL     OW 6168   1.316   2.715   2.600  0.1064  0.3563  0.8696
 1531SOL    HW2 6169   1.394   2.763   2.630  0.2179  1.1278 -0.6492
 1531SOL    HW3 6170   1.324   2.713   2.505 -0.6837 -1.3587  0.8236
 1531SOL    MW4 6171   1.328   2.721   2.592  0.0169  0.2317  0.6630
 1532SOL     OW 6172   1.552   2.812   2.735 -0.1487  0.2521 -0.2636
 1532SOL    HW2 6173   1.571   2.813   2.829 -1.1479  0.7107 -0.0632
 1532SOL    HW3 6174   1.627   2.766   2.697 -0.0654 -0.5717  0.8306
 1532SOL    MW4 6175   1.564   2.806   2.743 -0.2695  0.2041 -0.0930
 1533SOL     OW 6176   1.574   3.051   2.629  0.0625 -0.1659  0.2549
 1533SOL    HW2 6177   1.660   3.084   2.654  0.9577 -0.7178 -1.9610
 1533SOL    HW3 6178   1.564   2.969   2.678  0.2046  0.5747  1.5344
 1533SOL    MW4 6179   1.584   3.044   2.639  0.1993 -0.1409  0.1314
 1534SOL     OW 6180   1.381   3.211   2.759 -0.0065  0.0335 -0.2963
 1534SOL    HW2 6181   1.453   3.160   2.720  0.3970 -1.0711  1.8057
 1534SOL    HW3 6182   1.302   3.163   2.734  0.1215  0.2680 -1.1521
 1534SOL    MW4 6183   1.380   3.198   2.751  0.0638 -0.0811 -0.1321
 1535SOL     OW 6184   1.330   3.471   2.662 -0.5141  0.3488  0.4473
 1535SOL    HW2 6185   1.335   3.381   2.695 -0.7624 -0.0511 -0.5957
 1535SOL    HW3 6186   1.251   3.506   2.702 -0.4001  0.1113  0.8857
 1535SOL    MW4 6187   1.320   3.463   2.672 -0.5317  0.2649  0.3674
 1536SOL     OW 6188   1.555   3.618   2.737 -0.2638  0.5568 -0.2006
 1536SOL    HW2 6189   1.615   3.547   2.718 -1.0796 -0.1714 -0.0790
 1536SOL    HW3 6190   1.468   3.578   2.735 -0.6857  1.4097  0.4833
 1536SOL    MW4 6191   1.551   3.604   2.734 -0.4271  0.5734 -0.0942
 1537SOL     OW 6192   1.557   3.874   2.617  0.0533 -0.2356 -0.2039
 1537SOL    HW2 6193   1.475   3.912   2.649 -1.4417 -0.9512 -3.0163
 1537SOL    HW3 6194   1.558   3.785   2.654 -0.9983 -0.6084 -1.0534
 1537SOL    MW4 6195   1.547   3.867   2.626 -0.2828 -0.3793 -0.6871
 1538SOL     OW 6196   1.325   3.979   2.736 -0.3186 -0.1803 -0.1656
 1538SOL    HW2 6197   1.331   3.988   2.831 -0.3959  0.0428 -0.1831
 1538SOL    HW3 6198   1.315   4.068   2.704 -1.3245 -0.3501 -0.3139
 1538SOL    MW4 6199   1.325   3.992   2.745 -0.4615 -0.1733 -0.1874
 1539SOL     OW 6200   1.361   4.233   2.626 -0.1157 -0.1377 -0.8295
 1539SOL    HW2 6201   1.285   4.286   2.649 -0.4858 -1.3596  0.8746
 1539SOL    HW3 6202   1.370   4.243   2.531 -0.9264  1.9530 -0.7074
 1539SOL    MW4 6203   1.352   4.241   2.617 -0.2714 -0.0234 -0.5884
 1540SOL     OW 6204   1.593   4.378   2.726  0.1710  0.4021 -0.1360
 1540SOL    HW2 6205   1.594   4.376   2.822  0.2036 -0.0332 -0.1422
 1540SOL    HW3 6206   1.507   4.342   2.703  0.5803 -0.4954 -0.2859
 1540SOL    MW4 6207   1.582   4.373   2.736  0.2294  0.2260 -0.1564
 1541SOL     OW 6208   2.024   4.665   2.607  0.4608 -1.0380 -0.1198
 1541SOL    HW2 6209   2.109   4.705   2.626  1.2985 -3.2234  0.9148
 1541SOL    HW3 6210   2.013   4.677   2.512 -0.4434  3.6702  0.4904
 1541SOL    MW4 6211   2.034   4.672   2.597  0.4520 -0.7052  0.0970
 1542SOL     OW 6212   1.812   0.115   2.739  0.0935 -0.2842 -0.2268
 1542SOL    HW2 6213   1.885   0.074   2.692 -1.3587  0.1766 -3.0030
 1542SOL    HW3 6214   1.733   0.077   2.700 -1.2029  1.5498  0.5238
 1542SOL    MW4 6215   1.811   0.105   2.728 -0.2692  0.0185 -0.4942
 1543SOL     OW 6216   1.790   0.365   2.628  0.3392  0.2013  0.0027
 1543SOL    HW2 6217   1.864   0.413   2.665 -0.5783  0.7276  1.2404
 1543SOL    HW3 6218   1.794   0.279   2.670  0.8032 -0.0916 -0.6510
 1543SOL    MW4 6219   1.800   0.360   2.639  0.2793  0.2321  0.0794
 1544SOL     OW 6220   2.023   0.477   2.735 -0.1639  0.0310 -0.0159
 1544SOL    HW2 6221   2.106   0.450   2.696 -0.6165 -0.6475 -0.5215
 1544SOL    HW3 6222   2.017   0.570   2.717  1.5824  0.5774  2.0382
 1544SOL    MW4 6223   2.033   0.485   2.728  0.0069  0.0136  0.1886
 1545SOL     OW 6224   2.001   0.751   2.633 -0.8435  0.1888 -0.3166
 1545SOL    HW2 6225   1.953   0.830   2.657  0.9550  0.9728  0.7421
 1545SOL    HW3 6226   2.009   0.755   2.538 -0.6321  1.3558 -0.2488
 1545SOL    MW4 6227   1.995   0.762   2.624 -0.5784  0.4463 -0.1678
 1546SOL     OW 6228   1.804   0.940   2.719  0.0321 -0.2948 -0.1566
 1546SOL    HW2 6229   1.777   1.025   2.684 -1.4827 -0.1729  1.2301
 1546SOL    HW3 6230   1.738   0.879   2.687  0.3615 -0.7151 -0.0397
 1546SOL    MW4 6231   1.791   0.943   2.710 -0.1241 -0.3342  0.0417
 1547SOL     OW 6232   1.797   1.191   2.589 -0.2852  0.2434 -0.4621
 1547SOL    HW2 6233   1.879   1.233   2.617  0.2525 -0.8555 -0.3682
 1547SOL    HW3 6234   1.807   1.180   2.494  0.3238 -1.2870 -0.2225
 1547SOL    MW4 6235   1.809   1.195   2.580 -0.1339 -0.1034 -0.4184
 1548SOL     OW 6236   2.054   1.325   2.695 -0.1059 -0.1507  0.2194
 1548SOL    HW2 6237   2.041   1.309   2.788 -0.7820  1.7914  0.4938
 1548SOL    HW3 6238   2.129   1.271   2.671  0.7304  0.1305  2.1200
 1548SOL    MW4 6239   2.062   1.316   2.704 -0.0846  0.1426  0.5064
 1549SOL     OW 6240   2.032   1.590   2.606  0.1797  0.2942  0.1044
 1549SOL    HW2 6241   1.942   1.620   2.617  0.8845  2.3631  0.4297
 1549SOL    HW3 6242   2.030   1.499   2.637 -1.7494  0.3418  0.2214
 1549SOL    MW4 6243   2.020   1.582   2.612  0.0181  0.5735  0.1628
 1550SOL     OW 6244   1.769   1.676   2.682  0.4881  0.1180  0.4105
 1550SOL    HW2 6245   1.784   1.663   2.776 -0.4873  2.8686  1.0016
 1550SOL    HW3 6246   1.701   1.611   2.660  1.6852 -1.4723  1.2681
 1550SOL    MW4 6247   1.762   1.666   2.692  0.5175  0.2712  0.6018
 1551SOL     OW 6248   1.769   1.936   2.586 -0.0529  0.0633  0.3654
 1551SOL    HW2 6249   1.837   1.991   2.626  1.3065 -1.5133  0.2700
 1551SOL    HW3 6250   1.774   1.854   2.634 -1.0493 -0.4963 -0.4838
 1551SOL    MW4 6251   1.779   1.933   2.598 -0.0050 -0.2186  0.2406
 1552SOL     OW 6252   1.987   2.056   2.707  0.2433  0.0266 -0.5271
 1552SOL    HW2 6253   1.990   2.063   2.802 -0.1926 -0.7364 -0.4455
 1552SOL    HW3 6254   2.005   2.144   2.675  0.8762  0.1807  0.2500
 1552SOL    MW4 6255   1.989   2.068   2.715  0.2693 -0.0536 -0.4139
 1553SOL     OW 6256   2.021   2.341   2.665 -0.2617  0.2351  0.0251
 1553SOL    HW2 6257   2.097   2.378   2.709 -0.4211  0.6965 -0.0812
 1553SOL    HW3 6258   2.039   2.355   2.572 -0.6799  0.7450  0.0204
 1553SOL    MW4 6259   2.033   2.348   2.658 -0.3381  0.3636  0.0107
 1554SOL     OW 6260   1.793   2.463   2.760 -0.3419  0.0926  0.3161
 1554SOL    HW2 6261   1.813   2.462   2.854  0.8652  0.9677  0.0719
 1554SOL    HW3 6262   1.869   2.423   2.719 -0.4028  0.6873 -0.3788
 1554SOL    MW4 6263   1.805   2.458   2.767 -0.1907  0.2863  0.1922
 1555SOL     OW 6264   1.784   2.705   2.631  0.1922  0.4421 -0.6755
 1555SOL    HW2 6265   1.793   2.620   2.672 -0.1763  0.2023 -1.0869
 1555SOL    HW3 6266   1.806   2.689   2.539  0.4030  0.8466 -0.6967
 1555SOL    MW4 6267   1.788   2.692   2.624  0.1714  0.4637 -0.7327
 1556SOL     OW 6268   2.022   2.831   2.715 -0.0866 -0.1745  0.4699
 1556SOL    HW2 6269   2.082   2.767   2.675  0.6216  0.9206 -0.2635
 1556SOL    HW3 6270   1.936   2.789   2.709  0.4983 -1.4711  0.8893
 1556SOL    MW4 6271   2.019   2.817   2.709  0.0839 -0.2012  0.4282
 1557SOL     OW 6272   2.044   3.083   2.642  0.3151  0.2249  0.1198
 1557SOL    HW2 6273   2.041   2.991   2.668 -2.0042  0.6401  1.4359
 1557SOL    HW3 6274   2.048   3.081   2.546 -0.7599 -1.2344  0.0909
 1557SOL    MW4 6275   2.044   3.070   2.633 -0.1326  0.0873  0.2897
 1558SOL     OW 6276   1.789   3.176   2.736 -0.0696 -0.4111 -0.8926
 1558SOL    HW2 6277   1.775   3.267   2.710  2.2717 -0.1085 -1.1827
 1558SOL    HW3 6278   1.879   3.157   2.711 -0.2146 -2.5163  0.0512
 1558SOL    MW4 6279   1.799   3.185   2.729  0.2202 -0.6490 -0.8061
 1559SOL     OW 6280   1.742   3.433   2.657  0.1125  0.0162 -0.3816
 1559SOL    HW2 6281   1.800   3.490   2.707 -0.4857  1.3464 -1.1657
 1559SOL    HW3 6282   1.748   3.465   2.567 -0.9204 -0.5874 -0.6835
 1559SOL    MW4 6283   1.750   3.445   2.652 -0.1028  0.1121 -0.5250
 1560SOL     OW 6284   2.011   3.603   2.782  0.0431  0.1382 -0.0545
 1560SOL    HW2 6285   2.012   3.577   2.874  1.3695  0.8794  0.1474
 1560SOL    HW3 6286   2.098   3.580   2.749 -0.5634 -0.5010 -1.2380
 1560SOL    MW4 6287   2.022   3.596   2.790  0.1380  0.1516 -0.1841
 1561SOL     OW 6288   2.036   3.846   2.647  0.0146 -0.3431 -0.0182
 1561SOL    HW2 6289   1.954   3.889   2.672  0.1551 -0.5568  0.8371
 1561SOL    HW3 6290   2.032   3.761   2.691  0.2010 -0.8069 -0.8727
 1561SOL    MW4 6291   2.024   3.840   2.656  0.0577 -0.4323 -0.0181
 1562SOL     OW 6292   1.797   3.978   2.734  0.1744  0.5041  0.3846
 1562SOL    HW2 6293   1.804   4.066   2.698 -0.0770  0.0431 -0.8297
 1562SOL    HW3 6294   1.711   3.946   2.705  0.9823 -0.7711 -0.7101
 1562SOL    MW4 6295   1.787   3.985   2.725  0.2478  0.2751  0.0799
 1563SOL     OW 6296   1.819   4.241   2.612  0.0007  0.3850  0.2390
 1563SOL    HW2 6297   1.739   4.275   2.652 -0.4127 -0.9034  0.5385
 1563SOL    HW3 6298   1.801   4.242   2.518 -1.7472 -3.0997  0.4283
 1563SOL    MW4 6299   1.806   4.245   2.605 -0.2844 -0.2456  0.3037
 1564SOL     OW 6300   2.049   4.385   2.696 -0.0626 -0.0151 -0.2311
 1564SOL    HW2 6301   1.977   4.326   2.673  0.1354  0.0582 -1.0462
 1564SOL    HW3 6302   2.010   4.473   2.695 -0.1368 -0.0451  0.0530
 1564SOL    MW4 6303   2.034   4.389   2.693 -0.0465 -0.0091 -0.3011
 1565SOL     OW 6304   2.490   4.631   2.594  0.1454  0.4093  0.5438
 1565SOL    HW2 6305   2.580   4.663   2.608  0.4397  0.1753 -0.7247
 1565SOL    HW3 6306   2.474   4.647   2.501 -0.6760 -0.6984  0.4960
 1565SOL    MW4 6307   2.500   4.638   2.583  0.0761  0.2322  0.3698
 1566SOL     OW 6308   2.273   0.106   2.691  0.4125 -0.1211  0.4150
 1566SOL    HW2 6309   2.272   0.088   2.785  1.7552  1.6788  0.8122
 1566SOL    HW3 6310   2.348   0.057   2.657  0.8808  0.4829  0.5687
 1566SOL    MW4 6311   2.283   0.097   2.699  0.6516  0.1961  0.4878
 1567SOL     OW 6312   2.273   0.379   2.632 -0.2773 -0.5369 -0.2938
 1567SOL    HW2 6313   2.267   0.286   2.652 -0.9444 -0.5506 -0.5360
 1567SOL    HW3 6314   2.276   0.383   2.537  1.1123 -0.3764 -0.2529
 1567SOL    MW4 6315   2.273   0.367   2.622 -0.1819 -0.5175 -0.3204
 1568SOL     OW 6316   2.521   0.479   2.719  0.3125  0.1179 -0.1750
 1568SOL    HW2 6317   2.510   0.570   2.690  0.3213  0.5010  0.9972
 1568SOL    HW3 6318   2.439   0.436   2.694 -0.0263  0.6490  0.0315
 1568SOL    MW4 6319   2.509   0.485   2.712  0.2687  0.2385  0.0069
 1569SOL     OW 6320   2.486   0.741   2.620 -0.3245  0.0924  0.1243
 1569SOL    HW2 6321   2.403   0.776   2.654 -0.3438  0.5971 -0.4332
 1569SOL    HW3 6322   2.478   0.750   2.525  0.7670  1.0308  0.1218
 1569SOL    MW4 6323   2.474   0.747   2.612 -0.1829  0.2828  0.0505
 1570SOL     OW 6324   2.240   0.854   2.696  0.0397 -0.0937  0.2120
 1570SOL    HW2 6325   2.243   0.849   2.792 -0.2030  1.2525  0.3012
 1570SOL    HW3 6326   2.154   0.817   2.673  0.2914 -0.8609  0.4699
 1570SOL    MW4 6327   2.229   0.848   2.706  0.0405 -0.0173  0.2580
 1571SOL     OW 6328   2.254   1.133   2.626 -0.2500  0.0811  0.0158
 1571SOL    HW2 6329   2.265   1.038   2.632 -0.1229  0.1303  0.6133
 1571SOL    HW3 6330   2.260   1.153   2.533 -2.0413 -0.7145 -0.2932
 1571SOL    MW4 6331   2.256   1.123   2.614 -0.4697 -0.0174  0.0536
 1572SOL     OW 6332   2.466   1.317   2.740 -0.1691  0.1580  0.1934
 1572SOL    HW2 6333   2.519   1.248   2.700 -1.4836 -0.8955  0.2388
 1572SOL    HW3 6334   2.376   1.290   2.724 -0.6982  1.3102  1.1758
 1572SOL    MW4 6335   2.461   1.304   2.732 -0.4125  0.1711  0.3290
 1573SOL     OW 6336   2.491   1.547   2.593  0.1820 -1.1765  0.1605
 1573SOL    HW2 6337   2.429   1.601   2.642  1.3612 -0.0122  0.4028
 1573SOL    HW3 6338   2.487   1.461   2.634 -1.3869 -1.1614  0.0620
 1573SOL    MW4 6339   2.482   1.543   2.605  0.1307 -1.0210  0.1795
 1574SOL     OW 6340   2.262   1.674   2.718 -0.2290  0.6268 -0.5843
 1574SOL    HW2 6341   2.256   1.769   2.707 -0.0309  0.5676 -1.1979
 1574SOL    HW3 6342   2.189   1.639   2.668 -0.2312  0.4442 -0.4562
 1574SOL    MW4 6343   2.252   1.682   2.710 -0.2034  0.5949 -0.6485
 1575SOL     OW 6344   2.228   1.947   2.652 -0.1658 -0.7729  0.0765
 1575SOL    HW2 6345   2.153   2.003   2.669  1.4732  1.1535  1.1821
 1575SOL    HW3 6346   2.229   1.936   2.556 -0.7108  0.8407 -0.1267
 1575SOL    MW4 6347   2.219   1.953   2.641 -0.0217 -0.3059  0.1955
 1576SOL     OW 6348   2.485   2.010   2.706 -0.2112  0.2128 -0.0002
 1576SOL    HW2 6349   2.478   2.105   2.691 -1.1821  0.1733  0.1322
 1576SOL    HW3 6350   2.397   1.977   2.687 -0.0358 -0.5726  0.5434
 1576SOL    MW4 6351   2.472   2.018   2.702 -0.3164  0.1040  0.0892
 1577SOL     OW 6352   2.485   2.283   2.634  0.4283 -0.2153  0.1364
 1577SOL    HW2 6353   2.571   2.313   2.663  1.4000 -1.3567 -1.4916
 1577SOL    HW3 6354   2.484   2.299   2.540 -1.0250 -0.5046  0.0908
 1577SOL    MW4 6355   2.497   2.289   2.626  0.3648 -0.4039 -0.0846
 1578SOL     OW 6356   2.278   2.458   2.745 -0.1103  0.0329  0.1445
 1578SOL    HW2 6357   2.304   2.462   2.837 -0.0404 -0.8327  0.1675
 1578SOL    HW3 6358   2.346   2.404   2.703 -0.6025 -0.2807 -0.2526
 1578SOL    MW4 6359   2.291   2.452   2.751 -0.1659 -0.1228  0.0951
 1579SOL     OW 6360   2.226   2.691   2.615  0.5467  0.1987 -0.1223
 1579SOL    HW2 6361   2.285   2.753   2.659  1.7361  0.1195 -1.5451
 1579SOL    HW3 6362   2.249   2.606   2.653 -0.4027  0.4812  1.1228
 1579SOL    MW4 6363   2.237   2.688   2.626  0.5786  0.2255 -0.1457
 1580SOL     OW 6364   2.453   2.818   2.721 -0.2119  0.2683  0.1381
 1580SOL    HW2 6365   2.533   2.769   2.706  1.3119  1.6806  3.1859
 1580SOL    HW3 6366   2.472   2.906   2.688 -0.9027  0.3292 -0.1170
 1580SOL    MW4 6367   2.466   2.823   2.715 -0.1020  0.4623  0.5064
 1581SOL     OW 6368   2.511   3.091   2.651 -0.4806  0.3484 -0.5891
 1581SOL    HW2 6369   2.438   3.153   2.657 -0.5028  0.2717  0.0395
 1581SOL    HW3 6370   2.534   3.090   2.559 -0.7032  1.0406 -0.6592
 1581SOL    MW4 6371   2.504   3.099   2.640 -0.5126  0.4294 -0.5155
 1582SOL     OW 6372   2.268   3.239   2.721 -0.2234  0.2790 -0.1751
 1582SOL    HW2 6373   2.269   3.246   2.817  0.6231 -1.3326 -0.0388
 1582SOL    HW3 6374   2.183   3.201   2.701 -0.1610  0.0473 -0.0077
 1582SOL    MW4 6375   2.257   3.235   2.731 -0.1035  0.0358 -0.1349
 1583SOL     OW 6376   2.268   3.509   2.670 -0.1550  0.1770 -0.1760
 1583SOL    HW2 6377   2.346   3.547   2.710 -0.3363  0.3138  0.0503
 1583SOL    HW3 6378   2.267   3.418   2.700  1.3233 -0.5500 -2.2552
 1583SOL    MW4 6379   2.278   3.502   2.679  0.0162  0.0994 -0.4203
 1584SOL     OW 6380   2.501   3.625   2.747 -0.0214 -0.0970 -0.0292
 1584SOL    HW2 6381   2.532   3.628   2.838  0.9915 -0.1454 -0.3612
 1584SOL    HW3 6382   2.504   3.716   2.718 -1.2199  0.0389  0.2686
 1584SOL    MW4 6383   2.506   3.638   2.756 -0.0458 -0.0856 -0.0336
 1585SOL     OW 6384   2.532   3.878   2.638 -0.1627  0.3628  0.0515
 1585SOL    HW2 6385   2.613   3.912   2.676  0.3524 -1.6713  0.8453
 1585SOL    HW3 6386   2.464   3.937   2.669  0.6573  0.4562  1.7096
 1585SOL    MW4 6387   2.534   3.890   2.647  0.0136  0.1068  0.3748
 1586SOL     OW 6388   2.280   3.965   2.703 -0.1383  0.4126  0.0202
 1586SOL    HW2 6389   2.288   3.957   2.798 -0.6956  2.4146  0.2621
 1586SOL    HW3 6390   2.198   3.921   2.683  0.4584 -0.8640  0.3366
 1586SOL    MW4 6391   2.270   3.958   2.713 -0.1328  0.5085  0.0937
 1587SOL     OW 6392   2.255   4.227   2.603  0.0080  0.6200 -0.6961
 1587SOL    HW2 6393   2.260   4.151   2.661 -1.2109 -0.8275 -2.4777
 1587SOL    HW3 6394   2.184   4.280   2.639  0.9152  1.0109  0.5919
 1587SOL    MW4 6395   2.246   4.224   2.616 -0.0334  0.4807 -0.7610
 1588SOL     OW 6396   2.454   4.394   2.731 -1.1416  0.1679 -0.1440
 1588SOL    HW2 6397   2.414   4.332   2.670  0.7880 -0.4124 -0.8582
 1588SOL    HW3 6398   2.460   4.476   2.681  1.3767 -0.5734 -1.1649
 1588SOL    MW4 6399   2.450   4.397   2.716 -0.5548 -0.0072 -0.3731
 1589SOL     OW 6400   2.934   4.613   2.646 -0.3023  0.1893  0.4340
 1589SOL    HW2 6401   2.991   4.679   2.684  0.2325 -0.0117 -0.0178
 1589SOL    HW3 6402   2.923   4.640   2.555  1.8549 -1.6271 -0.4073
 1589SOL    MW4 6403   2.940   4.625   2.639  0.0527 -0.0768  0.2632
 1590SOL     OW 6404   2.708   0.098   2.694 -0.0279  0.1779 -0.0831
 1590SOL    HW2 6405   2.714   0.118   2.788 -2.1366  0.6208 -0.0174
 1590SOL    HW3 6406   2.786   0.046   2.676  0.7387  0.6260  1.7824
 1590SOL    MW4 6407   2.719   0.094   2.704 -0.2050  0.2954  0.1719
 1591SOL     OW 6408   2.727   0.381   2.585  0.6740 -0.1565  0.0517
 1591SOL    HW2 6409   2.714   0.289   2.608  1.0064  0.1327  1.4525
 1591SOL    HW3 6410   2.656   0.427   2.630 -0.1101  0.1572 -1.4961
 1591SOL    MW4 6411   2.716   0.375   2.594  0.6144 -0.0770  0.0324
 1592SOL     OW 6412   2.911   0.497   2.730  0.0541 -0.5764 -0.0865
 1592SOL    HW2 6413   2.922   0.587   2.701 -0.8824  0.2355  1.9493
 1592SOL    HW3 6414   2.845   0.461   2.671 -0.5882  0.5079 -0.0435
 1592SOL    MW4 6415   2.904   0.504   2.718 -0.1543 -0.3262  0.1879
 1593SOL     OW 6416   2.913   0.760   2.620  0.0222  0.0507 -0.0113
 1593SOL    HW2 6417   2.998   0.803   2.628 -0.6797  1.4996 -0.0262
 1593SOL    HW3 6418   2.852   0.819   2.665 -0.8551 -1.3493  0.6637
 1593SOL    MW4 6419   2.916   0.774   2.627 -0.1862  0.0572  0.0758
 1594SOL     OW 6420   2.691   0.871   2.747 -0.2646 -0.0016 -0.7266
 1594SOL    HW2 6421   2.685   0.849   2.840  0.6149 -0.5522 -0.7939
 1594SOL    HW3 6422   2.620   0.822   2.706 -1.5561  1.3552 -0.1569
 1594SOL    MW4 6423   2.681   0.862   2.754 -0.3192  0.1048 -0.6602
 1595SOL     OW 6424   2.680   1.156   2.666  0.5561  0.4276 -0.7852
 1595SOL    HW2 6425   2.743   1.213   2.710  0.8880 -0.7618  0.3090
 1595SOL    HW3 6426   2.683   1.073   2.714 -1.6299  0.2401 -0.8870
 1595SOL    MW4 6427   2.688   1.152   2.678  0.3114  0.2459 -0.6545
 1596SOL     OW 6428   2.894   1.291   2.774 -0.3015  0.1025 -0.4607
 1596SOL    HW2 6429   2.899   1.277   2.869 -0.3838 -0.1749 -0.4948
 1596SOL    HW3 6430   2.964   1.235   2.739 -1.3273 -1.0583 -0.6821
 1596SOL    MW4 6431   2.904   1.281   2.782 -0.4475 -0.0871 -0.4945
 1597SOL     OW 6432   2.951   1.532   2.637 -0.0273 -0.1247 -0.4984
 1597SOL    HW2 6433   2.871   1.578   2.662 -0.2271  0.1151 -1.5543
 1597SOL    HW3 6434   2.940   1.444   2.673 -0.0140  0.3889  0.8130
 1597SOL    MW4 6435   2.939   1.527   2.645 -0.0522 -0.0253 -0.4647
 1598SOL     OW 6436   2.712   1.647   2.718  0.2150  0.0937 -0.2211
 1598SOL    HW2 6437   2.697   1.630   2.811  1.1520 -1.0816 -0.2630
 1598SOL    HW3 6438   2.643   1.598   2.674  0.9400 -0.9644 -0.2077
 1598SOL    MW4 6439   2.701   1.638   2.725  0.4346 -0.2010 -0.2248
 1599SOL     OW 6440   2.727   1.895   2.604  0.3320  0.0927  0.4745
 1599SOL    HW2 6441   2.733   1.807   2.640  1.4689  0.2936  0.7889
 1599SOL    HW3 6442   2.655   1.936   2.652 -1.3449 -1.2178 -0.8820
 1599SOL    MW4 6443   2.718   1.889   2.615  0.2606 -0.0535  0.3371
 1600SOL     OW 6444   2.954   2.012   2.723  0.2704  0.2590  0.0302
 1600SOL    HW2 6445   2.964   2.103   2.696 -0.7332  0.4949  0.4025
 1600SOL    HW3 6446   2.880   1.980   2.671  0.5084 -0.2857  0.0308
 1600SOL    MW4 6447   2.946   2.020   2.713  0.1690  0.2182  0.0794
 1601SOL     OW 6448   2.950   2.279   2.614  0.4878 -0.6190 -0.0126
 1601SOL    HW2 6449   3.017   2.341   2.645  0.9240 -1.4403  0.7220
 1601SOL    HW3 6450   2.869   2.307   2.657  0.5744 -0.2293 -0.1046
 1601SOL    MW4 6451   2.948   2.291   2.624  0.5567 -0.6759  0.0720
 1602SOL     OW 6452   2.721   2.414   2.733 -0.5378  0.0826  0.1585
 1602SOL    HW2 6453   2.718   2.406   2.828 -0.4758 -0.6036  0.1047
 1602SOL    HW3 6454   2.704   2.507   2.716 -0.1286  0.2909  0.8574
 1602SOL    MW4 6455   2.719   2.425   2.743 -0.4756  0.0198  0.2437
 1603SOL     OW 6456   2.692   2.682   2.666  0.0993  0.2720 -0.2167
 1603SOL    HW2 6457   2.768   2.729   2.700  0.6750 -1.4046  0.9499
 1603SOL    HW3 6458   2.699   2.690   2.571  0.7423  1.6469 -0.0672
 1603SOL    MW4 6459   2.703   2.689   2.658  0.2601  0.2325 -0.0429
 1604SOL     OW 6460   2.949   2.813   2.750  0.1708  0.3631  0.5869
 1604SOL    HW2 6461   2.935   2.843   2.840  0.6366  2.4745 -0.0123
 1604SOL    HW3 6462   2.958   2.894   2.699  0.2762 -0.8103 -1.3025
 1604SOL    MW4 6463   2.948   2.828   2.755  0.2463  0.4873  0.2584
 1605SOL     OW 6464   2.980   3.041   2.591  0.4793 -0.0433 -0.5252
 1605SOL    HW2 6465   2.897   3.084   2.614 -0.0856 -1.6051  0.4158
 1605SOL    HW3 6466   2.971   3.023   2.497 -1.0903 -1.9620 -0.0372
 1605SOL    MW4 6467   2.968   3.044   2.582  0.1979 -0.5026 -0.3366
 1606SOL     OW 6468   2.790   3.226   2.693  0.2481 -0.2945 -0.3688
 1606SOL    HW2 6469   2.761   3.312   2.665  0.7498 -0.0641 -0.1911
 1606SOL    HW3 6470   2.709   3.179   2.715  0.0211  0.3860  0.2620
 1606SOL    MW4 6471   2.775   3.231   2.692  0.2844 -0.1743 -0.2620
 1607SOL     OW 6472   2.717   3.471   2.624 -0.0798  0.2233  0.4070
 1607SOL    HW2 6473   2.649   3.529   2.658 -1.0784 -0.7643  0.1334
 1607SOL    HW3 6474   2.710   3.480   2.528 -0.0172 -0.1079  0.3719
 1607SOL    MW4 6475   2.707   3.480   2.616 -0.2034  0.0494  0.3662
 1608SOL     OW 6476   2.955   3.597   2.720 -0.2721 -0.4277 -0.7582
 1608SOL    HW2 6477   2.958   3.607   2.815  0.7267 -0.6885 -0.7577
 1608SOL    HW3 6478   2.873   3.550   2.703 -0.6684  0.0086 -0.0684
 1608SOL    MW4 6479   2.944   3.592   2.730 -0.1926 -0.4044 -0.6671
 1609SOL     OW 6480   2.936   3.871   2.665  0.0679  0.0381  0.0533
 1609SOL    HW2 6481   3.016   3.915   2.696 -0.9088  1.1855  0.9901
 1609SOL    HW3 6482   2.944   3.781   2.698  1.1446  0.0332 -0.1869
 1609SOL    MW4 6483   2.948   3.865   2.673  0.0813  0.1888  0.1450
 1610SOL     OW 6484   2.731   4.021   2.774 -0.3990  0.3251 -0.5656
 1610SOL    HW2 6485   2.708   4.100   2.725 -0.5815 -0.2756 -1.4564
 1610SOL    HW3 6486   2.812   3.990   2.733  0.2852  0.6756  0.5144
 1610SOL    MW4 6487   2.739   4.027   2.762 -0.3328  0.2923 -0.5407
 1611SOL     OW 6488   2.678   4.275   2.675  0.4130 -0.3578  0.1355
 1611SOL    HW2 6489   2.748   4.313   2.728  0.8453 -0.5727 -0.2736
 1611SOL    HW3 6490   2.601   4.328   2.696  0.7190 -0.0577  0.5184
 1611SOL    MW4 6491   2.677   4.287   2.684  0.5105 -0.3462  0.1321
 1612SOL     OW 6492   2.906   4.382   2.794 -0.3261  0.2719  0.3119
 1612SOL    HW2 6493   2.911   4.408   2.886  2.8369  0.0534  0.2415
 1612SOL    HW3 6494   2.916   4.464   2.745 -0.0549  0.1385  0.1419
 1612SOL    MW4 6495   2.908   4.397   2.799  0.1271  0.2251  0.2804
 1613SOL     OW 6496   3.370   0.006   2.626 -0.2760  0.2614 -0.4894
 1613SOL    HW2 6497   3.372  -0.083   2.661  1.9620  0.2332 -0.6424
 1613SOL    HW3 6498   3.293   0.046   2.667 -0.9042 -1.5235  0.1060
 1613SOL    MW4 6499   3.360  -0.000   2.636 -0.0634  0.0219 -0.4311
 1614SOL     OW 6500   3.143   0.114   2.727  0.0444  0.1110 -0.3404
 1614SOL    HW2 6501   3.157   0.127   2.821  1.4433  0.3319 -0.5674
 1614SOL    HW3 6502   3.150   0.202   2.690 -0.1517 -0.0201 -0.6838
 1614SOL    MW4 6503   3.146   0.127   2.734  0.2029  0.1229 -0.4158
 1615SOL     OW 6504   3.152   0.370   2.633  0.3828 -0.0772 -0.7349
 1615SOL    HW2 6505   3.066   0.399   2.665 -0.0470 -0.6994 -1.3160
 1615SOL    HW3 6506   3.152   0.395   2.540  1.9238  2.4308 -0.1113
 1615SOL    MW4 6507   3.141   0.377   2.625  0.5293  0.1716 -0.7293
 1616SOL     OW 6508   3.392   0.499   2.722  0.2841 -0.1277 -0.2455
 1616SOL    HW2 6509   3.388   0.591   2.697 -1.4655  0.6383  2.5452
 1616SOL    HW3 6510   3.311   0.461   2.690  0.3815 -0.3670 -0.2155
 1616SOL    MW4 6511   3.381   0.506   2.715  0.0663 -0.0582  0.1266
 1617SOL     OW 6512   3.383   0.754   2.628 -0.4601 -0.2855  0.0877
 1617SOL    HW2 6513   3.463   0.806   2.632  1.1311 -2.6403  0.1889
 1617SOL    HW3 6514   3.358   0.755   2.535  1.7544 -2.4251 -0.6082
 1617SOL    MW4 6515   3.390   0.761   2.616  0.0422 -0.8785  0.0093
 1618SOL     OW 6516   3.168   0.884   2.728  0.1827 -0.1503  0.0851
 1618SOL    HW2 6517   3.171   0.881   2.823 -0.7780 -0.0280  0.1233
 1618SOL    HW3 6518   3.247   0.837   2.700  0.4060 -0.2892  0.9323
 1618SOL    MW4 6519   3.179   0.877   2.736  0.0858 -0.1525  0.2017
 1619SOL     OW 6520   3.126   1.184   2.658  0.6379 -0.0973 -0.8582
 1619SOL    HW2 6521   3.146   1.097   2.692 -0.5368  0.0898  0.3872
 1619SOL    HW3 6522   3.117   1.173   2.564  2.0564 -1.0211 -0.8816
 1619SOL    MW4 6523   3.127   1.171   2.650  0.6702 -0.1945 -0.6969
 1620SOL     OW 6524   3.386   1.263   2.690 -0.2618 -0.1721 -0.1131
 1620SOL    HW2 6525   3.388   1.276   2.785  0.0013 -0.1445 -0.1213
 1620SOL    HW3 6526   3.296   1.235   2.671 -0.2621 -0.3662  0.1683
 1620SOL    MW4 6527   3.374   1.261   2.700 -0.2270 -0.1942 -0.0768
 1621SOL     OW 6528   3.376   1.532   2.625 -0.1226 -0.2191  0.1480
 1621SOL    HW2 6529   3.300   1.577   2.661  0.3913 -0.0724  1.0697
 1621SOL    HW3 6530   3.365   1.441   2.653 -1.6147 -0.8926 -2.4516
 1621SOL    MW4 6531   3.365   1.526   2.633 -0.2518 -0.2885 -0.0734
 1622SOL     OW 6532   3.163   1.655   2.755  0.9730 -0.0016 -0.0814
 1622SOL    HW2 6533   3.181   1.730   2.698  0.5133  0.4940  0.4073
 1622SOL    HW3 6534   3.086   1.613   2.717 -0.0849  1.0495  0.8403
 1622SOL    MW4 6535   3.156   1.660   2.743  0.7727  0.2024  0.1047
 1623SOL     OW 6536   3.181   1.897   2.633  0.2031  0.1347  0.2514
 1623SOL    HW2 6537   3.248   1.949   2.677 -0.8239  0.9307  0.8869
 1623SOL    HW3 6538   3.098   1.937   2.658 -0.6179 -1.7244  0.6510
 1623SOL    MW4 6539   3.179   1.909   2.642 -0.0403 -0.0055  0.3881
 1624SOL     OW 6540   3.381   2.054   2.736 -0.2476  0.0521 -0.0620
 1624SOL    HW2 6541   3.401   2.063   2.829  0.0119 -0.1661 -0.0936
 1624SOL    HW3 6542   3.392   2.142   2.700  0.1743  0.0336  0.0171
 1624SOL    MW4 6543   3.385   2.067   2.744 -0.1576  0.0210 -0.0560
 1625SOL     OW 6544   3.410   2.322   2.626 -0.0380  0.1973 -0.3573
 1625SOL    HW2 6545   3.490   2.366   2.653  1.1502 -1.5921 -0.9054
 1625SOL    HW3 6546   3.401   2.344   2.533  1.1986 -1.6391 -0.9328
 1625SOL    MW4 6547   3.419   2.331   2.617  0.2818 -0.2811 -0.5057
 1626SOL     OW 6548   3.167   2.425   2.731  0.1679 -0.1166  0.0552
 1626SOL    HW2 6549   3.169   2.516   2.701  1.2132  0.2392  1.1703
 1626SOL    HW3 6550   3.250   2.389   2.702  0.1121 -0.4769  0.3482
 1626SOL    MW4 6551   3.178   2.433   2.723  0.2985 -0.1173  0.2410
 1627SOL     OW 6552   3.167   2.680   2.643 -0.4310 -0.5201  0.0322
 1627SOL    HW2 6553   3.234   2.745   2.662 -1.2962  0.4798 -0.2759
 1627SOL    HW3 6554   3.088   2.714   2.687 -1.0459 -1.0395 -0.6571
 1627SOL    MW4 6555   3.165   2.693   2.652 -0.6263 -0.4568 -0.0997
 1628SOL     OW 6556   3.366   2.858   2.734  0.0565  0.1819 -0.2100
 1628SOL    HW2 6557   3.371   2.858   2.829 -1.7741 -0.2905 -0.0919
 1628SOL    HW3 6558   3.448   2.818   2.705 -0.0640 -1.1254  1.2085
 1628SOL    MW4 6559   3.378   2.853   2.743 -0.2007 -0.0529 -0.0072
 1629SOL     OW 6560   3.359   3.137   2.631  0.3872 -0.1663 -0.2606
 1629SOL    HW2 6561   3.379   3.045   2.648  0.7114  0.0504  0.5223
 1629SOL    HW3 6562   3.347   3.141   2.536  1.3506 -0.8207 -0.4197
 1629SOL    MW4 6563   3.360   3.125   2.620  0.5569 -0.2239 -0.1783
 1630SOL     OW 6564   3.131   3.179   2.773  0.3130  0.0586  0.2661
 1630SOL    HW2 6565   3.217   3.149   2.743  0.1052 -0.4839  0.2248
 1630SOL    HW3 6566   3.070   3.145   2.708 -0.0581 -0.4759  0.8973
 1630SOL    MW4 6567   3.134   3.171   2.760  0.2365 -0.0834  0.3440
 1631SOL     OW 6568   3.161   3.437   2.618  0.0814  0.2138  0.3307
 1631SOL    HW2 6569   3.156   3.345   2.645  0.5347  0.0637 -0.0952
 1631SOL    HW3 6570   3.089   3.479   2.664 -0.2541 -0.3976  0.3671
 1631SOL    MW4 6571   3.151   3.430   2.628  0.0970  0.1135  0.2792
 1632SOL     OW 6572   3.358   3.613   2.713 -0.0460  0.1814  0.0402
 1632SOL    HW2 6573   3.374   3.592   2.805 -0.1185  0.4120  0.1069
 1632SOL    HW3 6574   3.297   3.547   2.683  0.3904 -0.2133  0.0135
 1632SOL    MW4 6575   3.352   3.602   2.722  0.0019  0.1600  0.0455
 1633SOL     OW 6576   3.390   3.885   2.617  0.0485 -0.0989 -0.0999
 1633SOL    HW2 6577   3.378   3.795   2.647  1.7486  0.0283  1.0011
 1633SOL    HW3 6578   3.379   3.879   2.522 -0.5397 -1.3410  0.0298
 1633SOL    MW4 6579   3.387   3.872   2.608  0.1955 -0.2460  0.0629
 1634SOL     OW 6580   3.167   3.991   2.730 -0.3965 -0.1549 -0.0357
 1634SOL    HW2 6581   3.158   4.086   2.717  1.8079  0.3132  1.4882
 1634SOL    HW3 6582   3.242   3.967   2.675  1.1641 -0.3641  2.0948
 1634SOL    MW4 6583   3.176   4.001   2.721  0.1001 -0.1206  0.4466
 1635SOL     OW 6584   3.123   4.273   2.675 -0.0622  0.2840  0.3805
 1635SOL    HW2 6585   3.040   4.309   2.704  0.2630  1.0523  0.3686
 1635SOL    HW3 6586   3.128   4.293   2.582  0.2098  0.3940  0.4163
 1635SOL    MW4 6587   3.113   4.280   2.667  0.0167  0.3996  0.3839
 1636SOL     OW 6588   3.385   4.402   2.731  0.3101  0.1152  0.0525
 1636SOL    HW2 6589   3.395   4.400   2.827 -1.1074  1.8113  0.2552
 1636SOL    HW3 6590   3.295   4.373   2.716  0.0479  1.2985 -0.6738
 1636SOL    MW4 6591   3.375   4.398   2.742  0.0882  0.4945 -0.0167
 1637SOL     OW 6592   3.786   0.017   2.665  0.7779  0.1815 -0.0032
 1637SOL    HW2 6593   3.774  -0.074   2.694 -0.5978  0.4661  0.3665
 1637SOL    HW3 6594   3.714   0.065   2.706  0.6943  1.1926 -1.2968
 1637SOL    MW4 6595   3.775   0.011   2.674  0.5856  0.3524 -0.1254
 1638SOL     OW 6596   3.570   0.146   2.789  0.1381 -0.3731 -0.1840
 1638SOL    HW2 6597   3.582   0.237   2.761 -0.9037  0.5651  2.2881
 1638SOL    HW3 6598   3.504   0.112   2.729 -0.3368  0.8590 -0.3857
 1638SOL    MW4 6599   3.563   0.154   2.777 -0.0618 -0.0867  0.1154
 1639SOL     OW 6600   3.621   0.394   2.632 -0.0342  0.0147  0.1310
 1639SOL    HW2 6601   3.689   0.436   2.685  0.3176 -1.2420  0.6954
 1639SOL    HW3 6602   3.542   0.444   2.650  0.1939 -0.0944  1.4653
 1639SOL    MW4 6603   3.620   0.406   2.641  0.0422 -0.1655  0.3815
 1640SOL     OW 6604   3.844   0.510   2.788 -0.2310  0.7175 -0.0845
 1640SOL    HW2 6605   3.847   0.504   2.884  0.8007 -0.0657 -0.1543
 1640SOL    HW3 6606   3.923   0.465   2.759 -0.3337  1.3042 -1.2966
 1640SOL    MW4 6607   3.855   0.504   2.797 -0.1085  0.6915 -0.2532
 1641SOL     OW 6608   3.809   0.744   2.634 -0.2502  0.5138 -0.4692
 1641SOL    HW2 6609   3.744   0.803   2.671 -1.7216 -0.6821 -1.0622
 1641SOL    HW3 6610   3.812   0.670   2.694 -0.5718 -0.1310 -1.2294
 1641SOL    MW4 6611   3.801   0.742   2.647 -0.4869  0.2710 -0.6478
 1642SOL     OW 6612   3.610   0.915   2.705 -0.1691 -0.2732  0.2098
 1642SOL    HW2 6613   3.614   0.924   2.800  0.2623 -0.0176  0.1681
 1642SOL    HW3 6614   3.604   1.005   2.672  0.4206 -0.3183 -0.0336
 1642SOL    MW4 6615   3.610   0.928   2.713 -0.0343 -0.2455  0.1724
 1643SOL     OW 6616   3.623   1.163   2.583 -0.2277 -0.2064  0.1604
 1643SOL    HW2 6617   3.688   1.224   2.619  0.3462 -1.1514  0.7521
 1643SOL    HW3 6618   3.539   1.202   2.606  0.1258 -0.7915  2.5690
 1643SOL    MW4 6619   3.621   1.176   2.591 -0.1054 -0.4082  0.5562
 1644SOL     OW 6620   3.827   1.294   2.727  0.1455  0.1436  0.1465
 1644SOL    HW2 6621   3.898   1.233   2.708 -0.1284 -0.2121  0.2570
 1644SOL    HW3 6622   3.846   1.371   2.673  0.2563 -0.2098 -0.3238
 1644SOL    MW4 6623   3.839   1.296   2.717  0.1242  0.0502  0.0992
 1645SOL     OW 6624   3.836   1.557   2.629 -0.1481 -0.3657 -0.2625
 1645SOL    HW2 6625   3.894   1.613   2.681  0.3715 -0.0166 -1.1986
 1645SOL    HW3 6626   3.748   1.589   2.648  0.2471  2.2855 -2.4430
 1645SOL    MW4 6627   3.832   1.569   2.638 -0.0272  0.0300 -0.6740
 1646SOL     OW 6628   3.595   1.666   2.731 -0.1924  0.5242  0.1949
 1646SOL    HW2 6629   3.586   1.753   2.691 -0.2321  0.4848  0.1192
 1646SOL    HW3 6630   3.510   1.625   2.718  0.1646  0.0671 -0.7185
 1646SOL    MW4 6631   3.583   1.672   2.724 -0.1504  0.4586  0.0646
 1647SOL     OW 6632   3.585   1.917   2.616 -0.6531 -0.0090  0.1189
 1647SOL    HW2 6633   3.512   1.966   2.654  0.4624  0.9869  1.0237
 1647SOL    HW3 6634   3.574   1.926   2.522 -2.4928 -1.0489  0.2305
 1647SOL    MW4 6635   3.574   1.925   2.609 -0.7486 -0.0149  0.2527
 1648SOL     OW 6636   3.795   2.050   2.749 -0.0350  0.3927 -0.0976
 1648SOL    HW2 6637   3.869   2.008   2.707  0.2627  0.0318  0.7828
 1648SOL    HW3 6638   3.718   2.009   2.709  0.2170  0.9078 -1.1509
 1648SOL    MW4 6639   3.794   2.039   2.738  0.0377  0.4132 -0.1204
 1649SOL     OW 6640   3.852   2.314   2.636 -0.4656  0.2444 -0.3484
 1649SOL    HW2 6641   3.837   2.225   2.667 -0.0425 -0.5933 -2.4753
 1649SOL    HW3 6642   3.854   2.306   2.541  0.5311  2.3781 -0.5252
 1649SOL    MW4 6643   3.850   2.301   2.628 -0.2782  0.4156 -0.6523
 1650SOL     OW 6644   3.629   2.469   2.702  0.4005  0.2196 -0.2484
 1650SOL    HW2 6645   3.615   2.450   2.795 -0.7316 -0.6087 -0.5719
 1650SOL    HW3 6646   3.711   2.425   2.680 -0.6866 -1.8348 -0.2699
 1650SOL    MW4 6647   3.638   2.461   2.712  0.1080 -0.1607 -0.2940
 1651SOL     OW 6648   3.597   2.726   2.581  0.2771  0.3352  0.6151
 1651SOL    HW2 6649   3.611   2.635   2.610 -2.0947 -0.2577  0.0148
 1651SOL    HW3 6650   3.616   2.724   2.487 -0.2901  0.3188  0.4968
 1651SOL    MW4 6651   3.601   2.713   2.572 -0.1109  0.2549  0.5202
 1652SOL     OW 6652   3.793   2.823   2.750  0.6685  0.4866  0.0223
 1652SOL    HW2 6653   3.862   2.769   2.711 -0.0010  0.6299 -1.3848
 1652SOL    HW3 6654   3.715   2.804   2.698 -0.4965 -0.0429  1.9040
 1652SOL    MW4 6655   3.792   2.813   2.738  0.4263  0.4358  0.0849
 1653SOL     OW 6656   3.813   3.086   2.633 -0.4726 -0.7452 -0.6194
 1653SOL    HW2 6657   3.738   3.127   2.675  0.3759  0.8229 -0.5956
 1653SOL    HW3 6658   3.833   3.010   2.688 -2.2857 -1.4194 -0.8719
 1653SOL    MW4 6659   3.806   3.082   2.646 -0.5999 -0.6270 -0.6499
 1654SOL     OW 6660   3.593   3.277   2.742  0.3801  0.0523 -0.1420
 1654SOL    HW2 6661   3.614   3.361   2.701  0.6246 -0.4220 -1.0162
 1654SOL    HW3 6662   3.509   3.252   2.703  1.1223 -0.9018 -1.1702
 1654SOL    MW4 6663   3.585   3.285   2.731  0.5102 -0.1361 -0.3932
 1655SOL     OW 6664   3.614   3.537   2.634  0.4974  0.7373 -0.2813
 1655SOL    HW2 6665   3.684   3.580   2.684 -0.0598 -1.5448  2.6471
 1655SOL    HW3 6666   3.533   3.570   2.674  0.0471 -1.4346  0.6618
 1655SOL    MW4 6667   3.612   3.547   2.646  0.3645  0.1497  0.2296
 1656SOL     OW 6668   3.834   3.626   2.780  0.0172 -0.4233 -0.5670
 1656SOL    HW2 6669   3.890   3.566   2.730  0.8080 -0.5322  0.4382
 1656SOL    HW3 6670   3.843   3.710   2.736 -0.6773 -0.9065 -1.6671
 1656SOL    MW4 6671   3.842   3.629   2.768  0.0303 -0.5014 -0.5794
 1657SOL     OW 6672   3.815   3.881   2.662 -0.5767  0.0330  0.0240
 1657SOL    HW2 6673   3.889   3.929   2.699 -0.6175  1.2681 -1.4535
 1657SOL    HW3 6674   3.738   3.931   2.689 -0.9114 -1.3757  1.7530
 1657SOL    MW4 6675   3.814   3.894   2.670 -0.6263  0.0098  0.0572
 1658SOL     OW 6676   3.588   4.020   2.752  0.2148 -0.3840 -0.0212
 1658SOL    HW2 6677   3.597   4.103   2.705 -1.3899  0.1075  0.5200
 1658SOL    HW3 6678   3.515   3.976   2.708 -0.6937 -0.3289  1.4254
 1658SOL    MW4 6679   3.580   4.025   2.740 -0.1168 -0.3119  0.2408
 1659SOL     OW 6680   3.613   4.252   2.614  0.2140  0.4449  0.1895
 1659SOL    HW2 6681   3.534   4.288   2.655  0.2013 -0.3802  0.9106
 1659SOL    HW3 6682   3.588   4.237   2.523 -0.6540 -0.3244  0.5365
 1659SOL    MW4 6683   3.599   4.254   2.608  0.0978  0.2341  0.3304
 1660SOL     OW 6684   3.825   4.414   2.757 -0.7129 -0.0735  0.2758
 1660SOL    HW2 6685   3.909   4.399   2.714 -1.4610 -0.5891 -1.0408
 1660SOL    HW3 6686   3.765   4.353   2.714 -1.5284 -0.5062  1.9672
 1660SOL    MW4 6687   3.828   4.404   2.746 -0.9191 -0.1988  0.3252
 1661SOL     OW 6688   4.257   4.633   2.686  0.2001  0.0331  0.5378
 1661SOL    HW2 6689   4.180   4.679   2.720 -0.8312 -0.5707 -0.9513
 1661SOL    HW3 6690   4.328   4.658   2.746 -1.0884  0.7879  1.7837
 1661SOL    MW4 6691   4.256   4.642   2.699 -0.1068  0.0529  0.5057
 1662SOL     OW 6692   4.037   0.106   2.761  0.1148 -0.0850  0.1061
 1662SOL    HW2 6693   4.034   0.105   2.857  2.5932 -2.6102  0.2458
 1662SOL    HW3 6694   3.948   0.086   2.734 -0.4768 -0.0187  1.9085
 1662SOL    MW4 6695   4.025   0.103   2.770  0.3638 -0.4094  0.3619
 1663SOL     OW 6696   4.045   0.372   2.651  0.5399  0.2935 -0.0807
 1663SOL    HW2 6697   4.046   0.287   2.694 -0.6129 -0.2256 -1.0406
 1663SOL    HW3 6698   4.034   0.352   2.558 -1.2661  1.5289 -0.1631
 1663SOL    MW4 6699   4.044   0.358   2.644  0.1497  0.3880 -0.2184
 1664SOL     OW 6700   4.248   0.480   2.804  0.2265  0.1190  0.2214
 1664SOL    HW2 6701   4.188   0.442   2.740  0.9576  0.8464 -0.9231
 1664SOL    HW3 6702   4.335   0.451   2.775  0.5904  0.7551  0.6684
 1664SOL    MW4 6703   4.252   0.471   2.792  0.3710  0.2989  0.1292
 1665SOL     OW 6704   4.265   0.750   2.669 -0.2794 -0.1002  0.2837
 1665SOL    HW2 6705   4.249   0.668   2.717  0.5265  0.1737  1.0176
 1665SOL    HW3 6706   4.250   0.726   2.577 -0.6466 -0.9190  0.5444
 1665SOL    MW4 6707   4.261   0.736   2.663 -0.2217 -0.1721  0.4146
 1666SOL     OW 6708   4.041   0.889   2.725 -0.1201  0.2181  0.0290
 1666SOL    HW2 6709   4.125   0.843   2.723  0.4884  1.2967  0.3741
 1666SOL    HW3 6710   3.979   0.827   2.686  0.8126 -0.6261 -0.1379
 1666SOL    MW4 6711   4.044   0.874   2.719  0.0834  0.2490  0.0525
 1667SOL     OW 6712   4.056   1.174   2.654  0.3248  0.0880  0.0912
 1667SOL    HW2 6713   4.139   1.215   2.680  0.9849 -0.8781 -0.4646
 1667SOL    HW3 6714   4.067   1.081   2.675 -0.6084 -0.0555 -0.0171
 1667SOL    MW4 6715   4.068   1.167   2.660  0.2890 -0.0584  0.0038
 1668SOL     OW 6716   4.283   1.304   2.748 -0.3042 -0.3543 -0.2456
 1668SOL    HW2 6717   4.293   1.390   2.708  1.0263  0.0607  0.9483
 1668SOL    HW3 6718   4.359   1.254   2.718  0.0190 -0.4467  0.7215
 1668SOL    MW4 6719   4.294   1.308   2.739 -0.0858 -0.3117  0.0393
 1669SOL     OW 6720   4.293   1.567   2.646  0.3451 -0.2198  0.3202
 1669SOL    HW2 6721   4.375   1.613   2.663 -0.4179  0.9565  0.8956
 1669SOL    HW3 6722   4.281   1.575   2.551  0.4989  0.2924  0.3395
 1669SOL    MW4 6723   4.302   1.574   2.635  0.2642  0.0030  0.3986
 1670SOL     OW 6724   4.064   1.700   2.722  0.0393 -0.2997 -0.4048
 1670SOL    HW2 6725   4.066   1.685   2.817  1.6108  1.3003 -0.1521
 1670SOL    HW3 6726   4.148   1.665   2.691 -0.5135 -0.9069 -1.2344
 1670SOL    MW4 6727   4.076   1.693   2.730  0.1736 -0.1687 -0.4809
 1671SOL     OW 6728   4.036   1.951   2.649 -0.2620  0.1859  0.3212
 1671SOL    HW2 6729   4.107   1.991   2.700 -1.7987  1.6217  1.3412
 1671SOL    HW3 6730   4.039   1.859   2.674  2.4508 -0.1743 -1.0685
 1671SOL    MW4 6731   4.046   1.944   2.659 -0.1068  0.3279  0.2723
 1672SOL     OW 6732   4.278   2.052   2.790  0.8515 -0.2279 -0.0131
 1672SOL    HW2 6733   4.288   2.140   2.755  0.2040  0.1675  0.7578
 1672SOL    HW3 6734   4.350   2.002   2.752  0.6796  0.3981 -1.1888
 1672SOL    MW4 6735   4.289   2.057   2.781  0.7434 -0.0930 -0.0663
 1673SOL     OW 6736   4.290   2.324   2.683  0.3282  0.0032 -0.1976
 1673SOL    HW2 6737   4.220   2.371   2.729  0.2321 -1.1638  0.8865
 1673SOL    HW3 6738   4.270   2.334   2.590 -0.2489  1.2356  0.0557
 1673SOL    MW4 6739   4.278   2.332   2.677  0.2398  0.0122 -0.0212
 1674SOL     OW 6740   4.066   2.420   2.799  0.1677  0.7877 -0.3606
 1674SOL    HW2 6741   4.057   2.408   2.893  1.6281 -1.5296 -0.4867
 1674SOL    HW3 6742   3.985   2.384   2.762  0.5058 -0.2370 -0.1178
 1674SOL    MW4 6743   4.054   2.414   2.806  0.4048  0.3464 -0.3455
 1675SOL     OW 6744   4.027   2.677   2.649 -0.3744  0.2166  0.4878
 1675SOL    HW2 6745   4.108   2.721   2.676  0.3825 -1.9238  1.8602
 1675SOL    HW3 6746   4.039   2.586   2.678 -2.8489 -0.3542 -0.2098
 1675SOL    MW4 6747   4.039   2.671   2.657 -0.6013 -0.1409  0.5772
 1676SOL     OW 6748   4.265   2.794   2.717  0.1171 -0.5860 -0.0039
 1676SOL    HW2 6749   4.273   2.800   2.812 -0.0681 -0.4604  0.0047
 1676SOL    HW3 6750   4.255   2.885   2.688 -0.5613 -0.6809 -0.0751
 1676SOL    MW4 6751   4.264   2.807   2.726  0.0033 -0.5820 -0.0119
 1677SOL     OW 6752   4.261   3.062   2.665  0.7789  0.8158  0.3303
 1677SOL    HW2 6753   4.178   3.093   2.701  0.5510  0.0954  0.4489
 1677SOL    HW3 6754   4.254   3.078   2.571 -0.5233 -1.4502 -0.0094
 1677SOL    MW4 6755   4.249   3.068   2.658  0.5770  0.4215  0.3014
 1678SOL     OW 6756   4.030   3.194   2.752 -0.3211 -0.2720  0.3767
 1678SOL    HW2 6757   4.023   3.289   2.742  0.0681 -0.2496  0.2996
 1678SOL    HW3 6758   3.954   3.159   2.707  0.8140 -0.1226 -1.6951
 1678SOL    MW4 6759   4.019   3.202   2.745 -0.1197 -0.2491  0.0932
 1679SOL     OW 6760   4.029   3.462   2.666 -0.0954  0.3682 -0.3488
 1679SOL    HW2 6761   4.105   3.519   2.664  0.5426 -0.4280  0.8217
 1679SOL    HW3 6762   4.021   3.429   2.576  0.4795  1.0408 -0.6504
 1679SOL    MW4 6763   4.038   3.466   2.654  0.0648  0.3521 -0.2341
 1680SOL     OW 6764   4.265   3.609   2.704 -0.4758 -0.4990  0.3356
 1680SOL    HW2 6765   4.271   3.598   2.799 -0.0759  0.1574  0.3925
 1680SOL    HW3 6766   4.345   3.568   2.670 -0.5710 -0.6471  0.2902
 1680SOL    MW4 6767   4.277   3.602   2.712 -0.4363 -0.4318  0.3371
 1681SOL     OW 6768   4.255   3.876   2.615  0.1602 -0.2285  0.4754
 1681SOL    HW2 6769   4.248   3.786   2.646 -0.0876 -0.1891  0.5331
 1681SOL    HW3 6770   4.329   3.913   2.663 -0.1300 -0.2135  0.9065
 1681SOL    MW4 6771   4.264   3.869   2.625  0.0892 -0.2210  0.5398
 1682SOL     OW 6772   4.057   4.007   2.734  0.0486 -0.2088 -0.2513
 1682SOL    HW2 6773   4.068   4.000   2.829  0.0532  2.6017 -0.0048
 1682SOL    HW3 6774   4.133   3.960   2.698  1.1980  0.5152  1.1709
 1682SOL    MW4 6775   4.069   3.999   2.742  0.2007  0.2575 -0.0310
 1683SOL     OW 6776   4.016   4.283   2.620 -0.1590 -0.3531  0.4200
 1683SOL    HW2 6777   4.019   4.189   2.635  1.1434 -0.3889  0.0526
 1683SOL    HW3 6778   4.039   4.294   2.527  1.7656  0.4183  0.9473
 1683SOL    MW4 6779   4.020   4.272   2.609  0.2666 -0.2561  0.4411
 1684SOL     OW 6780   4.258   4.365   2.720  0.1154  0.3339  0.0720
 1684SOL    HW2 6781   4.179   4.328   2.680 -0.2482 -0.6483  1.6372
 1684SOL    HW3 6782   4.247   4.459   2.712 -0.6988  0.1862 -0.6993
 1684SOL    MW4 6783   4.246   4.372   2.714 -0.0401  0.1850  0.1769
 1685SOL     OW 6784   0.230   4.622   3.101 -0.0067 -0.2150 -0.2370
 1685SOL    HW2 6785   0.255   4.618   3.194  0.3718  0.4703 -0.3068
 1685SOL    HW3 6786   0.151   4.676   3.101 -0.1413 -0.4136 -0.2864
 1685SOL    MW4 6787   0.223   4.628   3.114  0.0255 -0.1507 -0.2530
 1686SOL     OW 6788   0.016   0.097   3.052  0.4525  0.2984 -0.4481
 1686SOL    HW2 6789  -0.074   0.068   3.068  0.4736 -0.2046 -1.1978
 1686SOL    HW3 6790   0.018   0.188   3.081  0.2026 -0.2564  1.3436
 1686SOL    MW4 6791   0.004   0.105   3.058  0.4215  0.1588 -0.3107
 1687SOL     OW 6792   0.007   0.352   3.170 -0.4432  0.2515  0.1191
 1687SOL    HW2 6793   0.006   0.346   3.266 -0.8348 -0.9632  0.0513
 1687SOL    HW3 6794  -0.065   0.411   3.149 -0.8587 -0.0955  0.5432
 1687SOL    MW4 6795  -0.003   0.359   3.180 -0.5493  0.0455  0.1662
 1688SOL     OW 6796   0.241   0.467   3.061  0.0420  0.3703 -0.4310
 1688SOL    HW2 6797   0.315   0.414   3.091 -0.0183  1.6330  2.0894
 1688SOL    HW3 6798   0.164   0.425   3.100  0.1351  3.1295  3.0175
 1688SOL    MW4 6799   0.241   0.455   3.070  0.0463  0.9009  0.3567
 1689SOL     OW 6800   0.263   0.741   3.088 -0.5042 -0.0014  0.0588
 1689SOL    HW2 6801   0.252   0.761   3.181  0.3756 -0.6405  0.3065
 1689SOL    HW3 6802   0.271   0.646   3.085 -1.3384 -0.0542 -0.7612
 1689SOL    MW4 6803   0.262   0.731   3.100 -0.4982 -0.0927 -0.0167
 1690SOL     OW 6804   0.016   0.867   2.994 -0.0820  0.0346  0.3731
 1690SOL    HW2 6805   0.101   0.823   3.002  0.2655  0.5125 -0.5850
 1690SOL    HW3 6806   0.009   0.889   2.901 -1.4405 -0.3534  0.3684
 1690SOL    MW4 6807   0.026   0.864   2.983 -0.2154  0.0464  0.2460
 1691SOL     OW 6808   0.049   1.120   3.134 -0.0742  0.0871 -0.1567
 1691SOL    HW2 6809  -0.023   1.169   3.095  0.8293  1.3718 -0.2431
 1691SOL    HW3 6810   0.034   1.029   3.106 -1.1841  0.4795 -0.8612
 1691SOL    MW4 6811   0.038   1.114   3.125 -0.1014  0.3083 -0.2608
 1692SOL     OW 6812   0.281   1.233   3.034  0.1593  0.0258  0.4109
 1692SOL    HW2 6813   0.195   1.206   3.064  0.6784 -0.0007  1.8955
 1692SOL    HW3 6814   0.277   1.224   2.939 -0.5578 -2.6270  0.6568
 1692SOL    MW4 6815   0.269   1.229   3.025  0.1332 -0.3276  0.6392
 1693SOL     OW 6816   0.274   1.511   3.104 -0.0488  0.7921 -0.1251
 1693SOL    HW2 6817   0.185   1.521   3.070 -0.0984  0.1932 -0.1813
 1693SOL    HW3 6818   0.303   1.427   3.069 -0.4924 -0.3662  2.1915
 1693SOL    MW4 6819   0.266   1.501   3.095 -0.1138  0.5603  0.1729
 1694SOL     OW 6820   0.028   1.622   3.021 -0.1141  0.1996  0.2791
 1694SOL    HW2 6821  -0.050   1.585   3.062 -0.0043 -0.8442 -0.4294
 1694SOL    HW3 6822   0.035   1.710   3.058 -1.6092  0.2957  0.3818
 1694SOL    MW4 6823   0.018   1.629   3.031 -0.2968  0.0745  0.1993
 1695SOL     OW 6824   0.019   1.892   3.116 -0.4484 -0.3373 -0.1357
 1695SOL    HW2 6825  -0.054   1.949   3.091 -0.7785 -0.6148  0.1922
 1695SOL    HW3 6826   0.097   1.945   3.101 -0.7501  0.1856  0.1257
 1695SOL    MW4 6827   0.020   1.907   3.111 -0.5318 -0.3048 -0.0577
 1696SOL     OW 6828   0.254   2.029   3.056  0.0866 -0.3454  0.2079
 1696SOL    HW2 6829   0.235   2.117   3.088  0.6170  0.1268 -0.7437
 1696SOL    HW3 6830   0.250   2.037   2.960  1.1365 -1.1154  0.0898
 1696SOL    MW4 6831   0.251   2.041   3.047  0.2951 -0.3848  0.0670
 1697SOL     OW 6832   0.223   2.302   3.108 -0.4573  0.3075 -0.2659
 1697SOL    HW2 6833   0.253   2.311   3.199  0.4605  0.1939 -0.5571
 1697SOL    HW3 6834   0.292   2.343   3.056 -1.6737  1.7208 -0.8187
 1697SOL    MW4 6835   0.236   2.309   3.113 -0.4967  0.4790 -0.3769
 1698SOL     OW 6836   0.003   2.449   3.041 -0.0711 -0.1526  0.2734
 1698SOL    HW2 6837   0.001   2.528   3.095  0.3903 -0.2826  0.4806
 1698SOL    HW3 6838   0.087   2.408   3.061 -0.8303 -1.3438  1.0948
 1698SOL    MW4 6839   0.014   2.454   3.050 -0.1104 -0.3269  0.4094
 1699SOL     OW 6840   4.473   2.702   3.164 -0.0939 -0.0909  0.0764
 1699SOL    HW2 6841   4.492   2.725   3.255 -0.8663  0.8740 -0.0025
 1699SOL    HW3 6842   4.534   2.754   3.112 -0.8674  0.7152 -0.0347
 1699SOL    MW4 6843   4.483   2.712   3.170 -0.2978  0.1431  0.0513
 1700SOL     OW 6844   0.182   2.833   3.016  0.4435 -0.3138 -0.7689
 1700SOL    HW2 6845   0.259   2.786   3.046  0.2209 -0.6892 -0.7770
 1700SOL    HW3 6846   0.187   2.829   2.921  0.1308 -0.8187 -0.7704
 1700SOL    MW4 6847   0.193   2.826   3.008  0.3729 -0.4299 -0.7703
 1701SOL     OW 6848   0.213   3.108   3.087 -0.2761 -0.2351  0.4959
 1701SOL    HW2 6849   0.125   3.145   3.077 -0.0018  0.5619  0.9942
 1701SOL    HW3 6850   0.202   3.015   3.067 -1.3602 -0.2800  1.2602
 1701SOL    MW4 6851   0.200   3.101   3.083 -0.3830 -0.1359  0.6623
 1702SOL     OW 6852   4.451   3.231   3.037 -0.6243  0.2979 -0.0897
 1702SOL    HW2 6853   4.389   3.166   3.070 -0.6453  0.3588 -0.0067
 1702SOL    HW3 6854   4.444   3.225   2.942  1.0473 -1.4082 -0.1292
 1702SOL    MW4 6855   4.442   3.222   3.029 -0.4067  0.0811 -0.0839
 1703SOL     OW 6856   4.454   3.499   3.128  0.6026  0.4667  0.0433
 1703SOL    HW2 6857   4.382   3.537   3.078 -0.1201  0.8357  1.3651
 1703SOL    HW3 6858   4.453   3.406   3.105 -0.0639  0.5316 -0.1923
 1703SOL    MW4 6859   4.444   3.492   3.118  0.4191  0.5238  0.1867
 1704SOL     OW 6860   0.216   3.609   3.081 -0.6621  0.0162 -0.4103
 1704SOL    HW2 6861   0.213   3.692   3.130  0.7765  0.0469 -0.3534
 1704SOL    HW3 6862   0.135   3.564   3.105 -0.8022  0.8052  0.6355
 1704SOL    MW4 6863   0.205   3.614   3.090 -0.4908  0.1240 -0.2649
 1705SOL     OW 6864   0.196   3.885   3.164  0.1428 -0.5561  0.0239
 1705SOL    HW2 6865   0.212   3.874   3.258 -1.6867 -0.2439  0.3844
 1705SOL    HW3 6866   0.278   3.921   3.130  1.5898 -2.7431  1.1044
 1705SOL    MW4 6867   0.209   3.888   3.172  0.0923 -0.8035  0.2141
 1706SOL     OW 6868   4.455   3.989   3.021 -0.1537 -0.2860  0.1591
 1706SOL    HW2 6869   4.533   3.937   3.040 -0.0224  0.1449  0.8013
 1706SOL    HW3 6870   4.450   3.990   2.925  0.3214 -0.7670  0.1260
 1706SOL    MW4 6871   4.465   3.982   3.011 -0.0739 -0.2925  0.2391
 1707SOL     OW 6872   4.485   4.249   3.104 -0.1853 -0.0114 -0.8855
 1707SOL    HW2 6873   4.485   4.243   3.200  1.1587 -0.9651 -0.9305
 1707SOL    HW3 6874   4.473   4.159   3.074  0.5626  0.1249 -1.6099
 1707SOL    MW4 6875   4.484   4.236   3.113  0.0901 -0.1197 -0.9868
 1708SOL     OW 6876   0.246   4.354   3.048  0.1902 -0.5818 -0.5783
 1708SOL    HW2 6877   0.160   4.317   3.068  0.5798 -0.8043  0.7436
 1708SOL    HW3 6878   0.237   4.448   3.068  0.4177 -0.7073  0.1296
 1708SOL    MW4 6879   0.234   4.362   3.053  0.2716 -0.6280 -0.3104
 1709SOL     OW 6880   0.694   4.638   3.145 -0.6575  0.4361  0.2159
 1709SOL    HW2 6881   0.709   4.549   3.113  0.1357  0.2572  1.0604
 1709SOL    HW3 6882   0.620   4.670   3.094 -1.1761 -0.8399  0.1522
 1709SOL    MW4 6883   0.686   4.630   3.134 -0.6213  0.2441  0.3190
 1710SOL     OW 6884   0.455   0.070   3.033  0.0986  0.5118 -0.0655
 1710SOL    HW2 6885   0.461   0.145   3.092  1.5726  0.2413  0.1403
 1710SOL    HW3 6886   0.373   0.027   3.057  0.1273  1.0455  1.0247
 1710SOL    MW4 6887   0.445   0.074   3.044  0.2969  0.5466  0.1054
 1711SOL     OW 6888   0.453   0.321   3.182  0.1129 -0.1580  0.0484
 1711SOL    HW2 6889   0.442   0.343   3.274  0.0629  0.8512 -0.1973
 1711SOL    HW3 6890   0.532   0.368   3.155  0.8164 -1.4179 -0.1134
 1711SOL    MW4 6891   0.462   0.330   3.191  0.1991 -0.1910 -0.0052
 1712SOL     OW 6892   0.659   0.477   3.051  0.3126 -0.4445  0.0681
 1712SOL    HW2 6893   0.736   0.445   3.097 -0.3273 -0.9704  0.7977
 1712SOL    HW3 6894   0.660   0.572   3.063  0.6473 -0.4913  0.3852
 1712SOL    MW4 6895   0.669   0.485   3.059  0.2723 -0.5201  0.2062
 1713SOL     OW 6896   0.711   0.741   3.098  0.0565 -0.0747 -0.0912
 1713SOL    HW2 6897   0.712   0.741   3.193 -1.0423 -0.0237 -0.0672
 1713SOL    HW3 6898   0.641   0.802   3.075  1.0150  0.7157 -0.9461
 1713SOL    MW4 6899   0.702   0.749   3.107  0.0379  0.0364 -0.2007
 1714SOL     OW 6900   0.468   0.894   3.022  0.3172  0.0563  0.4146
 1714SOL    HW2 6901   0.392   0.841   3.048 -2.0902  3.0451 -0.2803
 1714SOL    HW3 6902   0.466   0.893   2.926  0.6545  0.8200  0.3948
 1714SOL    MW4 6903   0.458   0.887   3.013  0.0441  0.5514  0.3204
 1715SOL     OW 6904   0.512   1.127   3.161  0.5140  0.2312  0.1348
 1715SOL    HW2 6905   0.509   1.042   3.116 -1.4884  0.7862 -0.8232
 1715SOL    HW3 6906   0.429   1.169   3.139 -0.0160  1.0417  3.3651
 1715SOL    MW4 6907   0.500   1.121   3.152  0.1799  0.4114  0.4344
 1716SOL     OW 6908   0.715   1.281   3.032  0.6311 -0.2354 -0.2544
 1716SOL    HW2 6909   0.795   1.233   3.052  0.3666 -0.5119  0.1449
 1716SOL    HW3 6910   0.645   1.225   3.065  0.2490 -0.1873 -0.9795
 1716SOL    MW4 6911   0.716   1.267   3.039  0.5459 -0.2656 -0.2973
 1717SOL     OW 6912   0.706   1.539   3.111  0.6918 -0.0686  0.3233
 1717SOL    HW2 6913   0.706   1.541   3.207  0.9620 -0.1471  0.3239
 1717SOL    HW3 6914   0.716   1.446   3.089 -2.1765 -0.4215  0.2361
 1717SOL    MW4 6915   0.707   1.527   3.121  0.3490 -0.1254  0.3119
 1718SOL     OW 6916   0.484   1.650   2.978 -0.5025  0.6872 -0.0593
 1718SOL    HW2 6917   0.558   1.612   3.026  0.1008 -1.3981 -2.5402
 1718SOL    HW3 6918   0.408   1.601   3.009 -0.3441  0.4169 -0.0982
 1718SOL    MW4 6919   0.483   1.639   2.989 -0.4020  0.3765 -0.3917
 1719SOL     OW 6920   0.486   1.904   3.117 -0.2538  0.3571  0.1812
 1719SOL    HW2 6921   0.485   1.821   3.069 -0.4648  0.8354 -0.6469
 1719SOL    HW3 6922   0.399   1.941   3.104 -0.1683  0.7049  0.5666
 1719SOL    MW4 6923   0.474   1.898   3.109 -0.2704  0.4660  0.1228
 1720SOL     OW 6924   0.692   2.069   3.006  0.0066  0.2053 -0.1020
 1720SOL    HW2 6925   0.771   2.030   3.042 -0.3604 -1.0139 -0.5852
 1720SOL    HW3 6926   0.620   2.022   3.049 -0.4637  0.9719 -0.0236
 1720SOL    MW4 6927   0.693   2.058   3.016 -0.1038  0.1454 -0.1554
 1721SOL     OW 6928   0.665   2.320   3.086 -0.0518  0.0857  0.0861
 1721SOL    HW2 6929   0.671   2.330   3.181 -2.1290  0.7002  0.1753
 1721SOL    HW3 6930   0.661   2.225   3.073  2.5565 -0.1082  0.4204
 1721SOL    MW4 6931   0.665   2.309   3.097  0.0184  0.1411  0.1419
 1722SOL     OW 6932   0.422   2.410   2.981  0.0067  0.3272 -0.3671
 1722SOL    HW2 6933   0.502   2.366   3.011  1.0521  2.1436 -0.4233
 1722SOL    HW3 6934   0.439   2.431   2.889 -0.6674  0.4425 -0.4693
 1722SOL    MW4 6935   0.435   2.407   2.973  0.0556  0.5817 -0.3881
 1723SOL     OW 6936   0.395   2.673   3.085 -0.3551  0.1715 -0.0963
 1723SOL    HW2 6937   0.468   2.727   3.054 -0.7979  0.2060 -1.0758
 1723SOL    HW3 6938   0.411   2.587   3.047 -0.3388 -0.0629  0.4345
 1723SOL    MW4 6939   0.407   2.669   3.076 -0.4113  0.1452 -0.1557
 1724SOL     OW 6940   0.637   2.816   3.008 -0.0497  0.1848  0.3004
 1724SOL    HW2 6941   0.705   2.774   3.060 -0.7964  0.1048  1.2448
 1724SOL    HW3 6942   0.649   2.910   3.024  0.9776  0.2756 -0.9913
 1724SOL    MW4 6943   0.648   2.823   3.017 -0.0127  0.1862  0.2544
 1725SOL     OW 6944   0.680   3.070   3.108 -0.1614  0.1359  0.5742
 1725SOL    HW2 6945   0.684   3.074   3.204  2.1086  0.7342  0.4753
 1725SOL    HW3 6946   0.608   3.129   3.085  1.2887  2.4438  1.7843
 1725SOL    MW4 6947   0.671   3.078   3.118  0.3294  0.5193  0.7207
 1726SOL     OW 6948   0.474   3.228   3.022 -0.0973 -0.1798  0.2923
 1726SOL    HW2 6949   0.484   3.319   3.049  0.2321 -1.0753  3.3794
 1726SOL    HW3 6950   0.394   3.199   3.065 -0.2731 -1.3239 -0.7835
 1726SOL    MW4 6951   0.465   3.236   3.031 -0.0770 -0.4492  0.5579
 1727SOL     OW 6952   0.480   3.501   3.106  0.1070  0.2050 -0.3448
 1727SOL    HW2 6953   0.483   3.488   3.200  0.9052 -1.0710 -0.5342
 1727SOL    HW3 6954   0.396   3.543   3.090  0.2799  1.0879  1.0088
 1727SOL    MW4 6955   0.469   3.505   3.116  0.2352  0.1531 -0.1910
 1728SOL     OW 6956   0.698   3.609   3.000  0.3654 -0.5566  0.0012
 1728SOL    HW2 6957   0.756   3.550   3.047 -0.2891 -0.9922  0.2800
 1728SOL    HW3 6958   0.610   3.583   3.028  0.0069 -0.3079 -0.8796
 1728SOL    MW4 6959   0.694   3.598   3.010  0.2317 -0.5813 -0.0782
 1729SOL     OW 6960   0.658   3.852   3.122 -0.0903  0.1151 -0.2908
 1729SOL    HW2 6961   0.651   3.844   3.217 -1.9696  0.9830 -0.3287
 1729SOL    HW3 6962   0.662   3.762   3.090 -0.2887 -0.2005  0.5646
 1729SOL    MW4 6963   0.658   3.839   3.130 -0.3645  0.1881 -0.1826
 1730SOL     OW 6964   0.439   3.989   3.043  0.0015 -0.1009  0.5657
 1730SOL    HW2 6965   0.514   3.939   3.072  0.4427  0.5324  0.5329
 1730SOL    HW3 6966   0.451   4.000   2.949 -0.5668 -0.7231  0.4183
 1730SOL    MW4 6967   0.450   3.984   3.035 -0.0153 -0.0994  0.5419
 1731SOL     OW 6968   0.486   4.238   3.130 -0.3633  0.4310 -0.1331
 1731SOL    HW2 6969   0.480   4.146   3.107 -1.2447  0.2810  0.6679
 1731SOL    HW3 6970   0.400   4.274   3.108 -0.8639  0.5104  1.9068
 1731SOL    MW4 6971   0.474   4.231   3.124 -0.5457  0.4220  0.2418
 1732SOL     OW 6972   0.723   4.379   3.065  0.0928  0.0601 -0.0766
 1732SOL    HW2 6973   0.652   4.316   3.076  0.5723 -0.6188 -0.7822
 1732SOL    HW3 6974   0.719   4.403   2.972  0.7870  0.0119 -0.1216
 1732SOL    MW4 6975   0.713   4.374   3.054  0.2477 -0.0358 -0.1755
 1733SOL     OW 6976   1.160   4.614   3.111  0.0686  0.4334 -0.0615
 1733SOL    HW2 6977   1.233   4.674   3.092  1.0640 -0.5712  0.4955
 1733SOL    HW3 6978   1.081   4.667   3.098  0.9140  1.7479  0.0107
 1733SOL    MW4 6979   1.159   4.629   3.107  0.3115  0.4735  0.0217
 1734SOL     OW 6980   0.938   0.101   3.060 -0.3046 -0.5747  0.3292
 1734SOL    HW2 6981   0.927   0.196   3.067 -0.4077 -0.4709 -1.0857
 1734SOL    HW3 6982   0.851   0.065   3.079 -1.0017 -0.2153 -2.0153
 1734SOL    MW4 6983   0.925   0.109   3.064 -0.4101 -0.5136 -0.1667
 1735SOL     OW 6984   0.899   0.364   3.104  0.0517  0.4591  0.3646
 1735SOL    HW2 6985   0.926   0.353   3.196 -1.1898 -0.5546  0.6242
 1735SOL    HW3 6986   0.980   0.388   3.059  0.5296  1.7407  1.8463
 1735SOL    MW4 6987   0.914   0.365   3.110 -0.0490  0.4944  0.5941
 1736SOL     OW 6988   1.132   0.464   3.006 -0.0547 -0.2931  0.1079
 1736SOL    HW2 6989   1.209   0.411   3.026  1.4473  1.1184 -1.8674
 1736SOL    HW3 6990   1.115   0.449   2.913 -0.4548  1.6001 -0.1406
 1736SOL    MW4 6991   1.140   0.455   2.997  0.0907  0.1429 -0.1857
 1737SOL     OW 6992   1.197   0.713   3.130  0.3847  0.5105 -0.3604
 1737SOL    HW2 6993   1.176   0.706   3.223  0.6419  0.3666 -0.3134
 1737SOL    HW3 6994   1.174   0.628   3.093 -0.2575  0.7599 -0.5362
 1737SOL    MW4 6995   1.192   0.701   3.137  0.3339  0.5244 -0.3772
 1738SOL     OW 6996   0.976   0.839   3.004  0.3476 -0.4077  0.3488
 1738SOL    HW2 6997   1.044   0.801   3.059 -0.4344 -0.9366  0.9734
 1738SOL    HW3 6998   0.896   0.792   3.030 -0.6443  1.6192  1.0969
 1738SOL    MW4 6999   0.974   0.828   3.015  0.1135 -0.2099  0.5300
 1739SOL     OW 7000   0.948   1.129   3.082  0.3297  0.4581  0.0869
 1739SOL    HW2 7001   1.019   1.186   3.054  0.5885 -0.4237 -1.0631
 1739SOL    HW3 7002   0.966   1.045   3.041 -1.7173  0.4009 -0.7672
 1739SOL    MW4 7003   0.960   1.125   3.073  0.0938  0.3343 -0.1779
 1740SOL     OW 7004   1.130   1.312   2.993  0.0440 -0.1111  0.0444
 1740SOL    HW2 7005   1.212   1.271   3.018  0.3389  0.0772 -0.6050
 1740SOL    HW3 7006   1.129   1.308   2.898 -0.7494 -0.2116  0.0548
 1740SOL    MW4 7007   1.141   1.306   2.984 -0.0217 -0.0994 -0.0403
 1741SOL     OW 7008   1.129   1.556   3.126 -0.5188  0.2006 -0.9833
 1741SOL    HW2 7009   1.209   1.604   3.101 -0.3997  0.7554  0.4476
 1741SOL    HW3 7010   1.136   1.473   3.079  3.1239 -1.6369  2.4899
 1741SOL    MW4 7011   1.141   1.551   3.116 -0.0224  0.0314 -0.3362
 1742SOL     OW 7012   0.917   1.669   3.019  0.3075 -0.4242  0.3412
 1742SOL    HW2 7013   0.991   1.636   3.071  0.6752  0.1188  0.1737
 1742SOL    HW3 7014   0.842   1.618   3.048  0.4732  0.0056  1.5415
 1742SOL    MW4 7015   0.917   1.658   3.030  0.3780 -0.2959  0.4773
 1743SOL     OW 7016   0.924   1.943   3.093  0.0492  0.4047  0.0176
 1743SOL    HW2 7017   0.931   1.940   3.188  0.0201 -0.1132  0.0068
 1743SOL    HW3 7018   0.915   1.851   3.067 -1.2135  0.6319 -0.3884
 1743SOL    MW4 7019   0.924   1.931   3.102 -0.1212  0.3663 -0.0374
 1744SOL     OW 7020   1.149   2.057   3.003 -0.0978  0.4942  0.1441
 1744SOL    HW2 7021   1.072   2.019   3.046  0.0533  0.6235  0.5359
 1744SOL    HW3 7022   1.124   2.067   2.912  0.2187 -1.5041 -0.1825
 1744SOL    MW4 7023   1.136   2.054   2.997 -0.0361  0.2477  0.1528
 1745SOL     OW 7024   1.156   2.321   3.115 -0.0556  0.1918  0.5062
 1745SOL    HW2 7025   1.073   2.362   3.090  0.9898  1.2632 -1.3026
 1745SOL    HW3 7026   1.153   2.234   3.075 -0.1901  0.3446  0.1812
 1745SOL    MW4 7027   1.145   2.315   3.106  0.0646  0.3533  0.2248
 1746SOL     OW 7028   0.911   2.440   3.022  0.4313 -0.5824 -0.1531
 1746SOL    HW2 7029   0.827   2.403   3.051  0.7940 -0.6794  0.7956
 1746SOL    HW3 7030   0.916   2.420   2.929 -0.7488 -0.3040 -0.2859
 1746SOL    MW4 7031   0.900   2.433   3.013  0.3235 -0.5586 -0.0453
 1747SOL     OW 7032   0.883   2.725   3.102  0.1978 -0.4396 -0.2957
 1747SOL    HW2 7033   0.908   2.730   3.194 -0.1181 -0.6746 -0.1970
 1747SOL    HW3 7034   0.900   2.634   3.077 -2.3292 -1.1444  0.2980
 1747SOL    MW4 7035   0.888   2.714   3.111 -0.1773 -0.5636 -0.2041
 1748SOL     OW 7036   1.119   2.792   2.994  0.0168 -0.4435 -0.1902
 1748SOL    HW2 7037   1.140   2.879   3.028  1.9792 -0.8537 -0.2687
 1748SOL    HW3 7038   1.037   2.768   3.037 -0.1068  1.1101  0.4523
 1748SOL    MW4 7039   1.111   2.800   3.004  0.2594 -0.2925 -0.1156
 1749SOL     OW 7040   1.149   3.037   3.111  0.0307  0.3814  0.1684
 1749SOL    HW2 7041   1.228   3.087   3.090  0.6110 -0.9325 -0.7971
 1749SOL    HW3 7042   1.077   3.096   3.088  0.7097  0.6986 -1.1562
 1749SOL    MW4 7043   1.150   3.052   3.106  0.1971  0.2499 -0.1338
 1750SOL     OW 7044   0.931   3.194   3.059  0.0831 -0.6724  0.0171
 1750SOL    HW2 7045   0.843   3.158   3.073 -0.2129  0.2866  0.7092
 1750SOL    HW3 7046   0.942   3.196   2.964 -0.1668 -1.9303 -0.0393
 1750SOL    MW4 7047   0.921   3.190   3.048  0.0111 -0.7119  0.1011
 1751SOL     OW 7048   0.914   3.467   3.098 -0.4760 -0.0690 -0.4720
 1751SOL    HW2 7049   0.993   3.514   3.072 -0.5340 -0.3810 -1.2060
 1751SOL    HW3 7050   0.936   3.375   3.087 -0.6811 -0.1861  0.0774
 1751SOL    MW4 7051   0.927   3.461   3.093 -0.5106 -0.1256 -0.4961
 1752SOL     OW 7052   1.136   3.629   3.043 -0.0747  0.0573 -0.5202
 1752SOL    HW2 7053   1.211   3.590   3.088  1.1982  2.0745 -0.7898
 1752SOL    HW3 7054   1.122   3.712   3.088  0.2138  1.3856 -2.8014
 1752SOL    MW4 7055   1.144   3.635   3.055  0.1312  0.4988 -0.8569
 1753SOL     OW 7056   1.135   3.898   3.118  0.3401  0.1653 -0.0700
 1753SOL    HW2 7057   1.126   3.900   3.214  0.3563  0.6331 -0.0772
 1753SOL    HW3 7058   1.050   3.928   3.086 -0.2375 -1.5496 -0.2333
 1753SOL    MW4 7059   1.123   3.902   3.127  0.2660  0.0007 -0.0925
 1754SOL     OW 7060   0.891   3.991   3.041 -0.1187  0.1563  0.2876
 1754SOL    HW2 7061   0.811   3.940   3.057 -0.0298 -0.5799 -1.4927
 1754SOL    HW3 7062   0.896   3.998   2.946  0.8992  1.8918  0.4508
 1754SOL    MW4 7063   0.881   3.985   3.031  0.0273  0.2882  0.0744
 1755SOL     OW 7064   0.948   4.234   3.145  0.1618  0.0451 -0.6556
 1755SOL    HW2 7065   0.921   4.148   3.113 -0.2445 -0.1545  0.2045
 1755SOL    HW3 7066   0.876   4.292   3.121  0.0904 -0.0081 -0.5721
 1755SOL    MW4 7067   0.935   4.230   3.138  0.0988  0.0119 -0.5312
 1756SOL     OW 7068   1.169   4.361   3.032  0.3058  0.3445 -0.0944
 1756SOL    HW2 7069   1.094   4.331   3.082 -0.8949  1.2153 -1.3419
 1756SOL    HW3 7070   1.174   4.455   3.050  0.5102  0.4658 -0.7562
 1756SOL    MW4 7071   1.160   4.370   3.041  0.1743  0.4754 -0.3462
 1757SOL     OW 7072   1.615   4.623   3.080 -0.2164 -0.2950 -0.0727
 1757SOL    HW2 7073   1.599   4.617   3.174 -0.7528  0.6085 -0.0904
 1757SOL    HW3 7074   1.542   4.676   3.047  1.1309  1.2300 -0.6674
 1757SOL    MW4 7075   1.603   4.629   3.088 -0.1093  0.0257 -0.1531
 1758SOL     OW 7076   1.379   0.086   3.034  0.3771 -0.5274 -0.3693
 1758SOL    HW2 7077   1.363   0.176   3.061 -1.6058 -1.0119  0.1056
 1758SOL    HW3 7078   1.365   0.086   2.940  0.8437 -0.2535 -0.4423
 1758SOL    MW4 7079   1.375   0.098   3.025  0.1770 -0.5552 -0.3166
 1759SOL     OW 7080   1.370   0.348   3.116  0.1592  0.0401 -0.1724
 1759SOL    HW2 7081   1.355   0.359   3.210 -0.0240 -0.8278 -0.0984
 1759SOL    HW3 7082   1.456   0.387   3.101  0.8579 -1.1420  0.6211
 1759SOL    MW4 7083   1.379   0.354   3.127  0.2273 -0.2304 -0.0577
 1760SOL     OW 7084   1.594   0.506   3.005  0.3782  0.3748 -0.4747
 1760SOL    HW2 7085   1.607   0.596   3.035  1.8570  0.5574 -1.6406
 1760SOL    HW3 7086   1.577   0.515   2.912 -1.3706 -0.4207 -0.2464
 1760SOL    MW4 7087   1.593   0.519   2.997  0.3426  0.2939 -0.5984
 1761SOL     OW 7088   1.592   0.789   3.043 -0.0936  0.4106 -0.0615
 1761SOL    HW2 7089   1.579   0.777   3.137  0.4176  1.0489  0.0954
 1761SOL    HW3 7090   1.504   0.803   3.008 -0.2478  0.5353  0.3751
 1761SOL    MW4 7091   1.579   0.789   3.051 -0.0464  0.5112  0.0167
 1762SOL     OW 7092   1.347   0.891   2.975 -0.1405 -0.5950  0.4312
 1762SOL    HW2 7093   1.372   0.951   3.046 -0.5191 -0.8164  0.7561
 1762SOL    HW3 7094   1.287   0.829   3.017 -0.5108 -0.6178 -0.1307
 1762SOL    MW4 7095   1.343   0.891   2.990 -0.2393 -0.6272  0.4001
 1763SOL     OW 7096   1.333   1.158   3.087  0.2356  0.1269  0.5128
 1763SOL    HW2 7097   1.338   1.172   3.182  0.0673  0.3248  0.4913
 1763SOL    HW3 7098   1.410   1.202   3.052  0.7178 -0.6162  0.6364
 1763SOL    MW4 7099   1.343   1.166   3.095  0.2770  0.0548  0.5264
 1764SOL     OW 7100   1.545   1.289   2.980 -0.0471  0.1917 -0.0049
 1764SOL    HW2 7101   1.617   1.228   2.998 -0.2605 -0.6849 -2.0079
 1764SOL    HW3 7102   1.579   1.375   3.004  1.9075 -0.1221 -1.6082
 1764SOL    MW4 7103   1.559   1.292   2.986  0.1826  0.0347 -0.4809
 1765SOL     OW 7104   1.616   1.540   3.067 -0.0251  0.0199 -0.4388
 1765SOL    HW2 7105   1.684   1.606   3.056 -0.0836  0.6236  2.4663
 1765SOL    HW3 7106   1.535   1.583   3.039  0.2565  0.4533 -0.5905
 1765SOL    MW4 7107   1.614   1.554   3.062  0.0043  0.1568 -0.0753
 1766SOL     OW 7108   1.381   1.676   3.016 -0.0770  0.3986 -0.2735
 1766SOL    HW2 7109   1.385   1.770   3.037 -0.1027  0.6152 -1.2441
 1766SOL    HW3 7110   1.368   1.673   2.922 -1.5337 -0.5773 -0.0553
 1766SOL    MW4 7111   1.380   1.688   3.007 -0.2724  0.2984 -0.3726
 1767SOL     OW 7112   1.392   1.936   3.079  0.2499  0.1814  0.1827
 1767SOL    HW2 7113   1.383   1.932   3.174 -0.7202  2.1541  0.1901
 1767SOL    HW3 7114   1.315   1.985   3.049  0.9392  0.2456 -1.5449
 1767SOL    MW4 7115   1.381   1.942   3.087  0.2129  0.4501 -0.0441
 1768SOL     OW 7116   1.595   2.087   2.999 -0.1708  0.0588 -0.3020
 1768SOL    HW2 7117   1.526   2.034   3.040  1.8932 -2.9406 -0.5813
 1768SOL    HW3 7118   1.588   2.066   2.906  3.1268 -2.8527 -0.0028
 1768SOL    MW4 7119   1.585   2.077   2.992  0.5364 -0.7210 -0.2995
 1769SOL     OW 7120   1.589   2.332   3.099 -0.1189 -0.2541 -0.1060
 1769SOL    HW2 7121   1.510   2.374   3.065 -0.7195  0.3098  1.8953
 1769SOL    HW3 7122   1.582   2.241   3.069 -0.8820  0.1057 -1.0342
 1769SOL    MW4 7123   1.577   2.325   3.091 -0.2989 -0.1321  0.0358
 1770SOL     OW 7124   1.370   2.436   2.998 -0.1639 -0.9916  0.0788
 1770SOL    HW2 7125   1.287   2.402   3.031 -0.1068 -1.1677  0.0425
 1770SOL    HW3 7126   1.366   2.423   2.903  0.1754 -1.6010  0.1454
 1770SOL    MW4 7127   1.359   2.430   2.990 -0.1117 -1.0953  0.0830
 1771SOL     OW 7128   1.379   2.693   3.111  0.0068  0.6891 -0.2433
 1771SOL    HW2 7129   1.366   2.603   3.083  0.0253  0.1095  1.6117
 1771SOL    HW3 7130   1.309   2.742   3.067 -1.0653 -0.4965  0.1098
 1771SOL    MW4 7131   1.368   2.688   3.101 -0.1322  0.4563  0.0479
 1772SOL     OW 7132   1.604   2.812   3.015 -0.6856 -0.3065  0.4756
 1772SOL    HW2 7133   1.686   2.779   3.051 -1.1739  0.5310  2.4143
 1772SOL    HW3 7134   1.536   2.762   3.061 -1.2842 -0.8419 -0.9608
 1772SOL    MW4 7135   1.606   2.801   3.026 -0.8291 -0.2666  0.5422
 1773SOL     OW 7136   1.558   3.066   3.126 -0.3499  0.2975  0.1154
 1773SOL    HW2 7137   1.578   3.083   3.218  0.7489  1.0199 -0.2595
 1773SOL    HW3 7138   1.577   2.973   3.115  0.6221  0.4742  0.3189
 1773SOL    MW4 7139   1.563   3.056   3.137 -0.0767  0.4163  0.0925
 1774SOL     OW 7140   1.360   3.232   3.047 -0.0521  0.4226  0.1618
 1774SOL    HW2 7141   1.437   3.183   3.073  1.6774  2.9579  0.0259
 1774SOL    HW3 7142   1.350   3.214   2.954  0.5889  0.3623  0.1028
 1774SOL    MW4 7143   1.369   3.223   3.039  0.2606  0.7491  0.1361
 1775SOL     OW 7144   1.381   3.516   3.143  0.6232  0.4359 -0.1273
 1775SOL    HW2 7145   1.383   3.505   3.238  2.6960  0.4174 -0.1599
 1775SOL    HW3 7146   1.369   3.427   3.109 -1.2926  0.5738  0.1253
 1775SOL    MW4 7147   1.379   3.502   3.151  0.6437  0.4516 -0.0985
 1776SOL     OW 7148   1.605   3.595   3.008  0.4352  0.4705 -0.1658
 1776SOL    HW2 7149   1.520   3.571   3.046  1.0313 -1.0962  0.2188
 1776SOL    HW3 7150   1.586   3.614   2.916 -0.5168  1.2339  0.1827
 1776SOL    MW4 7151   1.591   3.594   3.001  0.3881  0.3643 -0.0691
 1777SOL     OW 7152   1.611   3.824   3.165 -0.4534 -0.8976  0.1340
 1777SOL    HW2 7153   1.683   3.877   3.131 -0.5857 -0.7884  0.0229
 1777SOL    HW3 7154   1.620   3.740   3.121 -1.1698 -0.4606 -0.8610
 1777SOL    MW4 7155   1.622   3.820   3.155 -0.5653 -0.8252 -0.0119
 1778SOL     OW 7156   1.377   3.971   3.033  0.3116 -0.0978 -0.3427
 1778SOL    HW2 7157   1.434   3.914   3.085 -0.6173  0.5213  1.3748
 1778SOL    HW3 7158   1.288   3.951   3.063 -0.1770  0.8200 -1.1414
 1778SOL    MW4 7159   1.373   3.961   3.044  0.1246  0.1049 -0.2215
 1779SOL     OW 7160   1.390   4.232   3.115  0.6644  0.0753 -0.4628
 1779SOL    HW2 7161   1.393   4.143   3.080  0.5109 -0.0994 -0.0328
 1779SOL    HW3 7162   1.309   4.268   3.079 -0.4703 -0.7391  1.2083
 1779SOL    MW4 7163   1.379   4.225   3.106  0.4944 -0.0553 -0.1857
 1780SOL     OW 7164   1.603   4.360   2.994  0.3582  0.0185 -0.1754
 1780SOL    HW2 7165   1.521   4.324   3.030  0.6521 -0.6143 -0.1434
 1780SOL    HW3 7166   1.608   4.448   3.033  0.0059 -0.1698  0.3134
 1780SOL    MW4 7167   1.593   4.367   3.004  0.3505 -0.0901 -0.1068
 1781SOL     OW 7168   2.009   4.599   3.110 -0.6324 -0.3648  0.0443
 1781SOL    HW2 7169   2.011   4.610   3.206 -0.2155 -2.8589  0.3432
 1781SOL    HW3 7170   1.947   4.666   3.081 -1.3643 -0.0724  2.1415
 1781SOL    MW4 7171   2.001   4.609   3.119 -0.6740 -0.6552  0.3603
 1782SOL     OW 7172   1.823   0.139   3.012 -0.1754  0.3570 -0.3254
 1782SOL    HW2 7173   1.742   0.109   3.053 -0.3021  0.7990 -0.2428
 1782SOL    HW3 7174   1.811   0.121   2.919  0.0757 -0.5654 -0.1846
 1782SOL    MW4 7175   1.811   0.133   3.005 -0.1590  0.2936 -0.2959
 1783SOL     OW 7176   1.837   0.389   3.114 -0.0913 -0.7279 -0.3108
 1783SOL    HW2 7177   1.843   0.299   3.083 -0.3731 -0.5820 -0.7994
 1783SOL    HW3 7178   1.749   0.418   3.088  0.4704  0.1157 -1.3040
 1783SOL    MW4 7179   1.826   0.381   3.107 -0.0544 -0.5974 -0.5062
 1784SOL     OW 7180   2.072   0.510   3.003 -0.4728 -0.3078 -0.3186
 1784SOL    HW2 7181   1.992   0.471   3.039 -2.3827  2.1841 -1.7587
 1784SOL    HW3 7182   2.068   0.489   2.910 -0.3869  1.4029 -0.7120
 1784SOL    MW4 7183   2.061   0.502   2.995 -0.7133  0.2467 -0.5608
 1785SOL     OW 7184   2.057   0.758   3.106 -0.0106  0.0022 -0.2660
 1785SOL    HW2 7185   1.998   0.807   3.049  0.0317 -0.1337 -0.4272
 1785SOL    HW3 7186   2.061   0.671   3.067  0.0947 -0.0636 -0.1092
 1785SOL    MW4 7187   2.050   0.753   3.094  0.0091 -0.0244 -0.2666
 1786SOL     OW 7188   1.841   0.897   2.977 -0.0310  0.4003  0.0533
 1786SOL    HW2 7189   1.764   0.849   3.007  0.8166 -0.4964  0.8174
 1786SOL    HW3 7190   1.832   0.901   2.882  0.3240 -2.0272 -0.0973
 1786SOL    MW4 7191   1.829   0.891   2.969  0.1278 -0.0383  0.1342
 1787SOL     OW 7192   1.780   1.148   3.071  0.7392  0.2060  0.1088
 1787SOL    HW2 7193   1.783   1.124   3.163 -0.5994 -0.7001 -0.0714
 1787SOL    HW3 7194   1.819   1.073   3.025 -1.5708 -0.8105 -0.2922
 1787SOL    MW4 7195   1.785   1.135   3.077  0.2580 -0.0476  0.0322
 1788SOL     OW 7196   2.000   1.267   2.965  0.1564  0.4262  0.2830
 1788SOL    HW2 7197   2.066   1.211   3.005 -0.9438 -0.9186  0.2476
 1788SOL    HW3 7198   1.916   1.230   2.993 -0.6100  0.7975 -1.4162
 1788SOL    MW4 7199   1.998   1.255   2.974 -0.0901  0.2977  0.0541
 1789SOL     OW 7200   2.048   1.536   3.056 -0.0500  0.0029  1.0049
 1789SOL    HW2 7201   2.026   1.551   3.148 -0.4157  0.4561  0.8463
 1789SOL    HW3 7202   2.033   1.442   3.043 -0.0223 -0.0561  1.4007
 1789SOL    MW4 7203   2.043   1.525   3.066 -0.0949  0.0548  1.0364
 1790SOL     OW 7204   1.832   1.701   2.956  0.1611  0.0094 -0.5218
 1790SOL    HW2 7205   1.849   1.786   2.995  0.6692 -0.5621  0.5311
 1790SOL    HW3 7206   1.897   1.643   2.996 -2.2894 -1.5908  1.2640
 1790SOL    MW4 7207   1.843   1.704   2.966 -0.0951 -0.2772 -0.1471
 1791SOL     OW 7208   1.815   1.946   3.088  0.8164 -0.4360  0.0844
 1791SOL    HW2 7209   1.893   1.991   3.056 -0.0866 -0.0137 -1.5910
 1791SOL    HW3 7210   1.742   2.000   3.057 -0.1794 -1.3001  0.8836
 1791SOL    MW4 7211   1.815   1.959   3.080  0.5658 -0.4942 -0.0310
 1792SOL     OW 7212   2.047   2.046   2.969 -0.5187  0.2932  0.3051
 1792SOL    HW2 7213   2.112   1.982   2.997  0.0891  0.6132 -0.3291
 1792SOL    HW3 7214   2.070   2.126   3.017  0.4225  0.7954 -0.9416
 1792SOL    MW4 7215   2.059   2.048   2.979 -0.3142  0.4015  0.0570
 1793SOL     OW 7216   2.039   2.311   3.102 -0.1709  0.0167  0.2177
 1793SOL    HW2 7217   2.107   2.374   3.078 -0.3498 -0.2049 -0.8974
 1793SOL    HW3 7218   1.959   2.349   3.067 -0.5109 -0.0936  0.8740
 1793SOL    MW4 7219   2.038   2.325   3.095 -0.2391 -0.0269  0.1571
 1794SOL     OW 7220   1.826   2.443   3.029 -0.2558  0.2642  0.1576
 1794SOL    HW2 7221   1.833   2.532   3.064  0.9024  0.2541 -0.0289
 1794SOL    HW3 7222   1.752   2.404   3.076 -0.0039  0.9229  1.1118
 1794SOL    MW4 7223   1.817   2.450   3.040 -0.0697  0.3498  0.2589
 1795SOL     OW 7224   1.847   2.692   3.112  0.0121  0.1505  0.0254
 1795SOL    HW2 7225   1.860   2.700   3.207  1.0156  0.2376 -0.1160
 1795SOL    HW3 7226   1.898   2.764   3.074 -1.5349  0.9891 -0.5136
 1795SOL    MW4 7227   1.856   2.702   3.120 -0.0596  0.2728 -0.0644
 1796SOL     OW 7228   2.066   2.831   2.994  0.5223 -0.3087 -0.0664
 1796SOL    HW2 7229   2.057   2.925   3.010 -2.6267 -0.6719  0.6751
 1796SOL    HW3 7230   2.057   2.821   2.899  1.3295  0.1518 -0.1992
 1796SOL    MW4 7231   2.064   2.842   2.984  0.2134 -0.2959  0.0138
 1797SOL     OW 7232   2.028   3.094   3.079 -0.2389 -0.3353 -0.1534
 1797SOL    HW2 7233   2.030   3.093   3.175  1.3477  0.4269 -0.1608
 1797SOL    HW3 7234   1.941   3.128   3.058 -0.2514  0.4280  1.0447
 1797SOL    MW4 7235   2.017   3.099   3.089 -0.0312 -0.1340  0.0038
 1798SOL     OW 7236   1.776   3.188   3.011 -0.1765 -0.4960 -0.4103
 1798SOL    HW2 7237   1.701   3.149   3.055 -0.4200 -0.6618 -0.9573
 1798SOL    HW3 7238   1.754   3.182   2.918  0.6856 -0.8903 -0.5944
 1798SOL    MW4 7239   1.763   3.182   3.004 -0.0949 -0.5698 -0.5069
 1799SOL     OW 7240   1.804   3.444   3.154  0.2725 -0.3484 -0.1210
 1799SOL    HW2 7241   1.809   3.355   3.119  0.4675 -0.1010 -0.7160
 1799SOL    HW3 7242   1.739   3.487   3.099 -0.0048 -0.1914  0.3252
 1799SOL    MW4 7243   1.796   3.438   3.142  0.2617 -0.2949 -0.1404
 1800SOL     OW 7244   2.026   3.568   3.050 -0.4227 -0.2798 -0.4671
 1800SOL    HW2 7245   2.010   3.662   3.052 -1.7991 -0.4668 -1.3711
 1800SOL    HW3 7246   1.950   3.530   3.095 -0.3359 -0.9834 -0.8938
 1800SOL    MW4 7247   2.014   3.575   3.056 -0.5927 -0.3972 -0.6425
 1801SOL     OW 7248   2.052   3.840   3.112 -0.2572  0.3541 -0.0712
 1801SOL    HW2 7249   2.043   3.872   3.202 -0.5075  1.7175 -0.5667
 1801SOL    HW3 7250   1.976   3.876   3.066  0.5201  0.6907 -1.1166
 1801SOL    MW4 7251   2.041   3.849   3.118 -0.1879  0.5784 -0.2747
 1802SOL     OW 7252   1.815   3.942   3.002  0.2704 -0.0003 -0.3097
 1802SOL    HW2 7253   1.809   4.033   3.032  0.5285  0.7586 -2.4799
 1802SOL    HW3 7254   1.821   3.949   2.907  0.5787 -2.2869 -0.4719
 1802SOL    MW4 7255   1.815   3.955   2.994  0.3450 -0.2019 -0.6173
 1803SOL     OW 7256   1.831   4.207   3.084 -0.1000 -0.0461 -0.3688
 1803SOL    HW2 7257   1.904   4.253   3.042  1.7397 -2.9183 -0.4398
 1803SOL    HW3 7258   1.752   4.248   3.046  1.4788  1.5374 -2.0390
 1803SOL    MW4 7259   1.830   4.219   3.073  0.3511 -0.2165 -0.5984
 1804SOL     OW 7260   2.025   4.356   2.979 -0.1107  0.1882  0.7972
 1804SOL    HW2 7261   2.035   4.436   3.030 -0.3014  1.0136 -0.4363
 1804SOL    HW3 7262   2.036   4.384   2.888 -2.5933 -0.7573  0.1711
 1804SOL    MW4 7263   2.028   4.371   2.974 -0.4635  0.1721  0.5519
 1805SOL     OW 7264   2.490   4.653   3.074  0.3407 -0.1953  0.2553
 1805SOL    HW2 7265   2.481   4.562   3.047  1.1403 -0.0671 -0.4809
 1805SOL    HW3 7266   2.409   4.695   3.046  0.5219 -0.3978 -0.5768
 1805SOL    MW4 7267   2.478   4.646   3.067  0.4699 -0.2050  0.0482
 1806SOL     OW 7268   2.242   0.080   2.957  0.2900 -0.4035  0.2396
 1806SOL    HW2 7269   2.245   0.169   2.992  1.2804  0.2394 -1.4232
 1806SOL    HW3 7270   2.180   0.034   3.013  0.1475  1.2008  1.4242
 1806SOL    MW4 7271   2.235   0.085   2.969  0.4017 -0.1070  0.1764
 1807SOL     OW 7272   2.259   0.327   3.077  0.4321 -0.2112 -0.1324
 1807SOL    HW2 7273   2.244   0.311   3.171  0.3233  0.1234 -0.0933
 1807SOL    HW3 7274   2.190   0.388   3.052 -1.1572 -2.3503 -1.0476
 1807SOL    MW4 7275   2.248   0.333   3.086  0.2079 -0.4492 -0.2477
 1808SOL     OW 7276   2.445   0.498   2.998 -0.1338  0.3945  0.3204
 1808SOL    HW2 7277   2.364   0.452   3.022 -0.2435  0.7659  0.6866
 1808SOL    HW3 7278   2.460   0.475   2.907 -0.6666  0.3346  0.2432
 1808SOL    MW4 7279   2.436   0.489   2.989 -0.2184  0.4356  0.3586
 1809SOL     OW 7280   2.469   0.745   3.122  0.0772  0.0492  0.0312
 1809SOL    HW2 7281   2.555   0.773   3.092 -0.8550  0.7160 -2.1372
 1809SOL    HW3 7282   2.457   0.658   3.084  0.6055 -0.9057  2.0044
 1809SOL    MW4 7283   2.478   0.737   3.113  0.0241  0.0111  0.0055
 1810SOL     OW 7284   2.259   0.851   2.970 -0.0057  0.2982 -0.1162
 1810SOL    HW2 7285   2.339   0.830   3.018  0.1099 -0.7231 -0.7480
 1810SOL    HW3 7286   2.189   0.817   3.026  0.0442  0.4087  0.0148
 1810SOL    MW4 7287   2.260   0.844   2.984  0.0162  0.1780 -0.1824
 1811SOL     OW 7288   2.204   1.118   3.046  0.1743 -0.0100  0.2189
 1811SOL    HW2 7289   2.216   1.108   3.141 -1.5639  0.4646  0.4946
 1811SOL    HW3 7290   2.237   1.035   3.009  2.1847  0.3541  1.0940
 1811SOL    MW4 7291   2.210   1.106   3.054  0.2103  0.1007  0.3710
 1812SOL     OW 7292   2.477   1.197   3.019  0.1958  0.2941 -0.3722
 1812SOL    HW2 7293   2.387   1.167   3.030  0.0533  1.2793  1.1883
 1812SOL    HW3 7294   2.476   1.245   2.936 -0.9025  1.0296  0.0608
 1812SOL    MW4 7295   2.465   1.199   3.009  0.0324  0.5211 -0.1090
 1813SOL     OW 7296   2.494   1.467   3.125  0.3143 -0.5065 -0.0119
 1813SOL    HW2 7297   2.431   1.508   3.066  0.1442 -0.0875  0.4537
 1813SOL    HW3 7298   2.479   1.373   3.115  0.2647 -0.4365 -0.6095
 1813SOL    MW4 7299   2.484   1.460   3.116  0.2854 -0.4419 -0.0293
 1814SOL     OW 7300   2.311   1.599   2.975  0.0187  0.0527  0.1622
 1814SOL    HW2 7301   2.227   1.568   3.007  0.0827 -0.1898  0.0919
 1814SOL    HW3 7302   2.293   1.624   2.884 -0.0244  0.1948  0.2086
 1814SOL    MW4 7303   2.297   1.598   2.967  0.0212  0.0396  0.1590
 1815SOL     OW 7304   2.224   1.852   3.042  0.4538  0.3454  0.2902
 1815SOL    HW2 7305   2.300   1.906   3.023  0.5655 -0.0571 -0.3911
 1815SOL    HW3 7306   2.249   1.763   3.017  0.0066  0.0941  0.7102
 1815SOL    MW4 7307   2.237   1.847   3.036  0.4094  0.2592  0.2558
 1816SOL     OW 7308   2.450   2.004   2.980  0.7498 -0.2809  0.3886
 1816SOL    HW2 7309   2.531   1.966   3.015  0.1057 -1.7004  0.3643
 1816SOL    HW3 7310   2.463   2.005   2.885  1.8840  2.1635  0.5418
 1816SOL    MW4 7311   2.463   1.999   2.972  0.8144 -0.1456  0.4053
 1817SOL     OW 7312   2.475   2.282   3.098 -0.4840  0.6528 -0.1369
 1817SOL    HW2 7313   2.477   2.302   3.192 -0.0950 -0.2324  0.0496
 1817SOL    HW3 7314   2.458   2.188   3.094  0.7474  0.4507 -0.9203
 1817SOL    MW4 7315   2.473   2.272   3.110 -0.2704  0.5095 -0.2158
 1818SOL     OW 7316   2.285   2.471   3.033 -0.1596  0.2998 -0.1764
 1818SOL    HW2 7317   2.288   2.557   3.075 -0.8748  0.2319  0.0271
 1818SOL    HW3 7318   2.345   2.417   3.085  0.9828  0.9022 -0.8465
 1818SOL    MW4 7319   2.293   2.475   3.046 -0.1032  0.3700 -0.2382
 1819SOL     OW 7320   2.293   2.723   3.146 -0.3416 -0.1716 -0.1202
 1819SOL    HW2 7321   2.367   2.767   3.106 -0.9205  0.1504 -0.8627
 1819SOL    HW3 7322   2.216   2.760   3.101 -0.8965 -1.1034  0.0478
 1819SOL    MW4 7323   2.292   2.734   3.135 -0.4911 -0.2520 -0.1957
 1820SOL     OW 7324   2.525   2.836   3.015  0.0622  0.5173  0.1184
 1820SOL    HW2 7325   2.513   2.930   3.030  0.6715  0.7975 -1.1003
 1820SOL    HW3 7326   2.490   2.820   2.928  0.7836 -0.2160 -0.0459
 1820SOL    MW4 7327   2.519   2.846   3.006  0.2377  0.4575 -0.0641
 1821SOL     OW 7328   2.480   3.109   3.085  0.3769 -0.0531  0.0408
 1821SOL    HW2 7329   2.550   3.162   3.045 -0.9317  1.3521 -0.4219
 1821SOL    HW3 7330   2.400   3.136   3.039 -0.6084 -1.0600  1.1290
 1821SOL    MW4 7331   2.479   3.120   3.073  0.0744 -0.0005  0.1233
 1822SOL     OW 7332   2.254   3.240   2.995 -0.2348 -0.1863 -0.4414
 1822SOL    HW2 7333   2.256   3.318   3.050  1.1869 -1.0559  0.7657
 1822SOL    HW3 7334   2.172   3.196   3.017 -0.7039  0.5823 -0.6215
 1822SOL    MW4 7335   2.244   3.245   3.005 -0.1090 -0.1993 -0.3059
 1823SOL     OW 7336   2.282   3.480   3.145  0.5159  0.0582 -0.2094
 1823SOL    HW2 7337   2.354   3.526   3.103  1.2101 -2.1840 -1.5113
 1823SOL    HW3 7338   2.203   3.525   3.113  1.2625  1.7607  0.3061
 1823SOL    MW4 7339   2.281   3.492   3.135  0.7060 -0.0131 -0.3130
 1824SOL     OW 7340   2.510   3.618   3.028  0.1441  0.3500 -0.5509
 1824SOL    HW2 7341   2.587   3.572   3.062 -0.2753 -0.4644 -0.7110
 1824SOL    HW3 7342   2.504   3.697   3.083 -0.0521 -0.5466  0.7444
 1824SOL    MW4 7343   2.519   3.623   3.040  0.0627  0.1245 -0.4010
 1825SOL     OW 7344   2.500   3.866   3.154 -0.8187  0.2280  0.0126
 1825SOL    HW2 7345   2.516   3.854   3.247  1.4369 -1.4465 -0.5361
 1825SOL    HW3 7346   2.583   3.899   3.119 -1.1934 -0.4644 -1.6177
 1825SOL    MW4 7347   2.513   3.869   3.161 -0.5708 -0.0846 -0.2747
 1826SOL     OW 7348   2.279   3.957   2.990  0.0431 -0.0455 -0.2578
 1826SOL    HW2 7349   2.351   3.931   3.048 -0.1594 -3.3491 -1.3720
 1826SOL    HW3 7350   2.206   3.902   3.018 -0.8862  0.4307 -1.7145
 1826SOL    MW4 7351   2.279   3.946   3.001 -0.1063 -0.4184 -0.5972
 1827SOL     OW 7352   2.261   4.220   3.083 -0.3795 -0.0650 -0.3370
 1827SOL    HW2 7353   2.247   4.132   3.048 -0.9768 -0.1948  0.2113
 1827SOL    HW3 7354   2.188   4.272   3.048 -0.8148 -0.1268  0.4821
 1827SOL    MW4 7355   2.249   4.215   3.074 -0.5159 -0.0906 -0.1564
 1828SOL     OW 7356   2.475   4.382   3.008  0.1625  0.6148  0.1043
 1828SOL    HW2 7357   2.401   4.338   3.050  0.5287  0.7969  0.9577
 1828SOL    HW3 7358   2.457   4.376   2.914  0.3025 -1.5590  0.1917
 1828SOL    MW4 7359   2.463   4.375   3.001  0.2291  0.3519  0.2282
 1829SOL     OW 7360   2.923   0.024   3.145  0.1680  0.1020  0.0020
 1829SOL    HW2 7361   3.005   0.058   3.111 -0.2980  0.5851 -0.6527
 1829SOL    HW3 7362   2.926  -0.070   3.127  0.9392 -0.0188  0.7382
 1829SOL    MW4 7363   2.934   0.016   3.138  0.2084  0.1498  0.0131
 1830SOL     OW 7364   2.715   0.134   2.979  0.3886  0.0047  0.6834
 1830SOL    HW2 7365   2.781   0.093   3.036  0.2507 -0.9530  0.1750
 1830SOL    HW3 7366   2.639   0.076   2.986  0.7472 -0.7336 -1.3154
 1830SOL    MW4 7367   2.714   0.121   2.988  0.4179 -0.2191  0.3526
 1831SOL     OW 7368   2.669   0.375   3.117 -0.0165 -0.1479  0.4047
 1831SOL    HW2 7369   2.677   0.288   3.077 -0.6210 -0.6313  1.3016
 1831SOL    HW3 7370   2.581   0.405   3.091 -1.1781 -1.2716  2.8789
 1831SOL    MW4 7371   2.658   0.367   3.108 -0.2496 -0.3599  0.8492
 1832SOL     OW 7372   2.925   0.498   3.027 -0.0449  0.0071  0.1358
 1832SOL    HW2 7373   2.837   0.463   3.046  0.5198 -1.7207 -0.2798
 1832SOL    HW3 7374   2.930   0.497   2.931  0.6408 -0.4959  0.1714
 1832SOL    MW4 7375   2.914   0.493   3.017  0.1204 -0.2872  0.0856
 1833SOL     OW 7376   2.941   0.760   3.101  0.0811 -0.1245  0.5733
 1833SOL    HW2 7377   2.922   0.758   3.195 -2.4161  0.8927  0.1309
 1833SOL    HW3 7378   2.925   0.670   3.071 -1.7381  0.1656  0.6522
 1833SOL    MW4 7379   2.936   0.748   3.110 -0.4883  0.0480  0.5255
 1834SOL     OW 7380   2.700   0.834   3.022 -0.2988 -0.5047  0.0608
 1834SOL    HW2 7381   2.686   0.920   3.060  1.7548 -0.1948  0.1794
 1834SOL    HW3 7382   2.789   0.811   3.048 -0.7242 -2.5459 -0.2067
 1834SOL    MW4 7383   2.710   0.842   3.031 -0.0839 -0.7331  0.0412
 1835SOL     OW 7384   2.684   1.072   3.142  0.2875  0.0546  0.2736
 1835SOL    HW2 7385   2.753   1.126   3.103  0.7436  0.6666  1.8663
 1835SOL    HW3 7386   2.603   1.120   3.125  0.1405 -1.0712 -2.3077
 1835SOL    MW4 7387   2.682   1.086   3.135  0.3281 -0.0134  0.1431
 1836SOL     OW 7388   2.890   1.250   3.039 -0.3546 -0.3092 -0.1409
 1836SOL    HW2 7389   2.967   1.206   3.076 -0.9307 -1.1273  0.0907
 1836SOL    HW3 7390   2.896   1.339   3.072 -0.4692 -0.8357  1.3533
 1836SOL    MW4 7391   2.901   1.256   3.049 -0.4458 -0.4867  0.0868
 1837SOL     OW 7392   2.932   1.523   3.111  0.0871 -0.0803 -0.3083
 1837SOL    HW2 7393   2.925   1.526   3.206  0.7061 -0.7075 -0.2317
 1837SOL    HW3 7394   3.000   1.587   3.089 -0.6671  0.6825 -0.4011
 1837SOL    MW4 7395   2.940   1.532   3.120  0.0689 -0.0623 -0.3104
 1838SOL     OW 7396   2.708   1.646   3.009 -0.5344  0.2333 -0.5888
 1838SOL    HW2 7397   2.792   1.618   3.045 -0.0124  0.2121 -1.8201
 1838SOL    HW3 7398   2.645   1.583   3.044 -0.0885  0.4259  0.5763
 1838SOL    MW4 7399   2.711   1.634   3.018 -0.4067  0.2559 -0.5972
 1839SOL     OW 7400   2.697   1.909   3.099 -0.3965  0.0349  0.0358
 1839SOL    HW2 7401   2.769   1.956   3.057 -0.7064  0.7115  0.2513
 1839SOL    HW3 7402   2.709   1.818   3.073  0.0574  0.2761 -0.6073
 1839SOL    MW4 7403   2.708   1.904   3.090 -0.3777  0.1559 -0.0205
 1840SOL     OW 7404   2.916   2.037   2.984  0.1718 -0.1660  0.0437
 1840SOL    HW2 7405   2.915   2.132   2.996 -0.1083 -0.2638  0.8431
 1840SOL    HW3 7406   2.928   2.025   2.890  1.3273  0.6562  0.0601
 1840SOL    MW4 7407   2.918   2.048   2.973  0.2873 -0.0703  0.1514
 1841SOL     OW 7408   2.977   2.288   3.119 -0.0923  0.3193 -0.3233
 1841SOL    HW2 7409   3.041   2.352   3.090 -0.0403  0.4285  0.0353
 1841SOL    HW3 7410   2.892   2.327   3.098 -0.0506  0.2778 -0.5765
 1841SOL    MW4 7411   2.974   2.301   3.113 -0.0799  0.3285 -0.3092
 1842SOL     OW 7412   2.715   2.403   3.015  0.2345 -0.5067  0.1406
 1842SOL    HW2 7413   2.715   2.496   3.038  0.3989 -0.6988  0.9298
 1842SOL    HW3 7414   2.627   2.373   3.037  0.6648 -0.8980  1.4138
 1842SOL    MW4 7415   2.704   2.411   3.021  0.3128 -0.5836  0.4127
 1843SOL     OW 7416   2.720   2.667   3.114  0.2081  0.3472  0.4488
 1843SOL    HW2 7417   2.727   2.698   3.204  0.2996  0.7455  0.3064
 1843SOL    HW3 7418   2.641   2.710   3.080  0.5255  0.6848  0.1439
 1843SOL    MW4 7419   2.710   2.677   3.121  0.2623  0.4444  0.3898
 1844SOL     OW 7420   2.903   2.856   3.039  0.2502 -0.3833 -0.0732
 1844SOL    HW2 7421   2.987   2.818   3.066  0.4836  0.3766  0.2884
 1844SOL    HW3 7422   2.839   2.786   3.053  1.0748 -1.5941 -2.0691
 1844SOL    MW4 7423   2.906   2.841   3.044  0.3901 -0.4425 -0.2885
 1845SOL     OW 7424   2.878   3.122   3.146  0.0309  0.6653 -0.2607
 1845SOL    HW2 7425   2.809   3.163   3.094 -0.6750  0.7160  0.6921
 1845SOL    HW3 7426   2.885   3.033   3.112 -1.1540  0.3681  0.2345
 1845SOL    MW4 7427   2.870   3.116   3.135 -0.2186  0.6325 -0.0696
 1846SOL     OW 7428   2.702   3.265   2.966 -0.0525 -0.3950  0.0064
 1846SOL    HW2 7429   2.713   3.353   3.002 -1.4460  0.4202 -1.5041
 1846SOL    HW3 7430   2.765   3.261   2.894 -0.4576 -0.4019 -0.3449
 1846SOL    MW4 7431   2.712   3.276   2.961 -0.2897 -0.2885 -0.2394
 1847SOL     OW 7432   2.750   3.506   3.077  0.6707 -0.0536  0.2025
 1847SOL    HW2 7433   2.743   3.484   3.169  1.8598 -3.5453 -0.4578
 1847SOL    HW3 7434   2.837   3.545   3.068  0.5223  0.3581  0.5938
 1847SOL    MW4 7435   2.761   3.508   3.088  0.8082 -0.4599  0.1674
 1848SOL     OW 7436   2.974   3.653   3.000  0.7212 -0.0478 -0.5696
 1848SOL    HW2 7437   3.049   3.601   3.029  0.5220  0.3186  0.6283
 1848SOL    HW3 7438   2.968   3.724   3.064 -1.0560 -0.4515 -0.2676
 1848SOL    MW4 7439   2.983   3.655   3.013  0.4604 -0.0527 -0.3717
 1849SOL     OW 7440   2.971   3.900   3.122 -0.0443  0.6352 -0.1875
 1849SOL    HW2 7441   2.971   3.899   3.218  0.0779 -0.2790 -0.1942
 1849SOL    HW3 7442   2.886   3.937   3.099 -0.4608 -0.0300  0.2709
 1849SOL    MW4 7443   2.960   3.905   3.131 -0.0832  0.4268 -0.1280
 1850SOL     OW 7444   2.726   4.003   3.045  0.1080  0.2264 -0.3638
 1850SOL    HW2 7445   2.723   4.096   3.069 -0.6790  0.0274  0.3484
 1850SOL    HW3 7446   2.727   4.003   2.949 -1.1471  0.9633 -0.3957
 1850SOL    MW4 7447   2.726   4.015   3.035 -0.1612  0.2975 -0.2742
 1851SOL     OW 7448   2.710   4.267   3.114 -0.5047  0.1853  0.2671
 1851SOL    HW2 7449   2.698   4.250   3.208 -0.7996 -1.4343 -0.0462
 1851SOL    HW3 7450   2.623   4.294   3.084 -0.5993 -0.0642  0.3123
 1851SOL    MW4 7451   2.697   4.268   3.123 -0.5558 -0.0615  0.2317
 1852SOL     OW 7452   2.928   4.437   3.073 -0.0907 -0.2395 -0.2551
 1852SOL    HW2 7453   3.001   4.383   3.104 -0.4934  0.1283  1.4255
 1852SOL    HW3 7454   2.850   4.384   3.088 -0.5636  1.0231  2.1075
 1852SOL    MW4 7455   2.927   4.423   3.079 -0.2062 -0.0243  0.2782
 1853SOL     OW 7456   3.339   4.609   3.113  0.3147  0.0620  0.0078
 1853SOL    HW2 7457   3.423   4.654   3.110  0.4689 -0.2673 -0.7482
 1853SOL    HW3 7458   3.357   4.522   3.079  0.2519 -0.9754  2.5485
 1853SOL    MW4 7459   3.352   4.604   3.108  0.3269 -0.1183  0.2429
 1854SOL     OW 7460   3.158   0.125   3.012  0.1437  0.2264 -0.5659
 1854SOL    HW2 7461   3.162   0.205   3.065  1.0013  0.5956 -1.1728
 1854SOL    HW3 7462   3.231   0.072   3.042 -0.4781 -0.3720 -0.1060
 1854SOL    MW4 7463   3.168   0.129   3.023  0.1750  0.1961 -0.5853
 1855SOL     OW 7464   3.174   0.389   3.147  0.3872 -0.2319 -0.7769
 1855SOL    HW2 7465   3.225   0.438   3.083  0.2962  0.4490 -0.3268
 1855SOL    HW3 7466   3.083   0.407   3.125  0.3596  0.7926  0.1464
 1855SOL    MW4 7467   3.169   0.398   3.135  0.3717 -0.0069 -0.5958
 1856SOL     OW 7468   3.374   0.541   3.002 -0.2334  0.1774 -0.2711
 1856SOL    HW2 7469   3.441   0.485   3.043  0.4838  0.0476 -1.5711
 1856SOL    HW3 7470   3.385   0.525   2.908 -0.4672  2.0152 -0.6251
 1856SOL    MW4 7471   3.384   0.531   2.995 -0.1695  0.4027 -0.4895
 1857SOL     OW 7472   3.393   0.803   3.078 -0.1929  0.3187  0.4048
 1857SOL    HW2 7473   3.398   0.790   3.172 -2.3357  1.7591  0.7467
 1857SOL    HW3 7474   3.388   0.714   3.042  0.6391 -0.2376  1.6135
 1857SOL    MW4 7475   3.393   0.790   3.085 -0.3660  0.4353  0.6094
 1858SOL     OW 7476   3.158   0.925   3.009  0.0773 -0.2671  0.3165
 1858SOL    HW2 7477   3.238   0.877   3.030  0.0126 -0.3847  0.2943
 1858SOL    HW3 7478   3.088   0.868   3.039 -0.0074 -0.3134  0.0274
 1858SOL    MW4 7479   3.160   0.911   3.016  0.0577 -0.2887  0.2756
 1859SOL     OW 7480   3.179   1.171   3.092  0.0589  0.5203 -0.0723
 1859SOL    HW2 7481   3.247   1.216   3.040  0.0550  0.0205 -0.5114
 1859SOL    HW3 7482   3.175   1.083   3.055 -0.9494  0.5985 -0.1507
 1859SOL    MW4 7483   3.188   1.166   3.080 -0.0749  0.4646 -0.1404
 1860SOL     OW 7484   3.402   1.292   2.960  0.1155 -0.2610 -0.5741
 1860SOL    HW2 7485   3.466   1.256   3.020  1.0999 -0.3471 -1.6557
 1860SOL    HW3 7486   3.376   1.376   3.000 -0.2573 -0.9394  0.6319
 1860SOL    MW4 7487   3.407   1.298   2.973  0.1960 -0.3619 -0.5577
 1861SOL     OW 7488   3.371   1.552   3.112  0.0260  0.9094  0.1602
 1861SOL    HW2 7489   3.370   1.549   3.207  0.2065  0.1118  0.1415
 1861SOL    HW3 7490   3.457   1.590   3.090  0.5218 -0.1009  0.3000
 1861SOL    MW4 7491   3.382   1.557   3.122  0.1152  0.6709  0.1762
 1862SOL     OW 7492   3.151   1.686   3.034  0.0754  0.4554 -0.0276
 1862SOL    HW2 7493   3.223   1.631   3.063 -0.1550 -0.6794 -1.5263
 1862SOL    HW3 7494   3.161   1.690   2.939 -1.2050  1.1892 -0.1463
 1862SOL    MW4 7495   3.162   1.679   3.025 -0.1240  0.4026 -0.2410
 1863SOL     OW 7496   3.156   1.937   3.100  0.5692  0.0128  0.1198
 1863SOL    HW2 7497   3.145   1.843   3.090 -1.2979  0.2285 -0.0170
 1863SOL    HW3 7498   3.082   1.975   3.054  0.9976  1.5392  0.6592
 1863SOL    MW4 7499   3.145   1.930   3.093  0.3796  0.2427  0.1729
 1864SOL     OW 7500   3.367   2.090   3.019 -0.0196  0.5496 -0.2481
 1864SOL    HW2 7501   3.447   2.040   3.035 -0.3886 -0.4570 -1.4153
 1864SOL    HW3 7502   3.297   2.035   3.055 -0.3992  0.3431 -1.2822
 1864SOL    MW4 7503   3.368   2.076   3.026 -0.1185  0.3896 -0.5386
 1865SOL     OW 7504   3.378   2.338   3.146  0.2395 -0.0775 -0.2060
 1865SOL    HW2 7505   3.374   2.322   3.240 -0.3042 -0.0667 -0.2261
 1865SOL    HW3 7506   3.379   2.251   3.107  1.7637 -0.1080 -0.1503
 1865SOL    MW4 7507   3.378   2.324   3.153  0.3691 -0.0801 -0.2012
 1866SOL     OW 7508   3.167   2.484   3.017  0.1749 -0.5009 -0.3435
 1866SOL    HW2 7509   3.245   2.441   3.052  0.2076 -0.6241 -0.5665
 1866SOL    HW3 7510   3.167   2.461   2.924  1.2611  1.5565 -0.8966
 1866SOL    MW4 7511   3.177   2.476   3.009  0.3226 -0.2456 -0.4461
 1867SOL     OW 7512   3.155   2.758   3.095  0.3470  0.0444  0.0257
 1867SOL    HW2 7513   3.179   2.761   3.188 -0.5981  1.4679  0.2338
 1867SOL    HW3 7514   3.159   2.665   3.072 -0.9645 -0.4936  1.9066
 1867SOL    MW4 7515   3.159   2.746   3.104  0.0491  0.1612  0.3014
 1868SOL     OW 7516   3.406   2.852   3.008  0.4354  0.0269  0.5581
 1868SOL    HW2 7517   3.399   2.938   3.050  0.2230  0.6071 -0.6310
 1868SOL    HW3 7518   3.325   2.807   3.031 -0.1640  0.7470 -0.1016
 1868SOL    MW4 7519   3.395   2.858   3.016  0.3281  0.1984  0.3145
 1869SOL     OW 7520   3.372   3.090   3.127  0.1272  0.2573 -0.1177
 1869SOL    HW2 7521   3.366   3.070   3.220  0.6582 -0.1286 -0.1622
 1869SOL    HW3 7522   3.287   3.128   3.104 -0.1946 -0.1590  0.3955
 1869SOL    MW4 7523   3.360   3.093   3.136  0.1547  0.1514 -0.0558
 1870SOL     OW 7524   3.126   3.212   3.064  0.5398  0.0949 -0.0965
 1870SOL    HW2 7525   3.043   3.179   3.098  0.3064  1.5112  0.7688
 1870SOL    HW3 7526   3.117   3.206   2.969  0.3739 -1.9332  0.0193
 1870SOL    MW4 7527   3.114   3.207   3.056  0.4873  0.0143  0.0327
 1871SOL     OW 7528   3.181   3.479   3.117  0.3564 -0.0702 -0.5358
 1871SOL    HW2 7529   3.263   3.516   3.083  0.0086  0.6686 -0.5873
 1871SOL    HW3 7530   3.187   3.385   3.099  0.7808  0.1204 -1.4092
 1871SOL    MW4 7531   3.192   3.472   3.110  0.3664  0.0525 -0.6576
 1872SOL     OW 7532   3.409   3.587   3.009  0.0299 -0.2306 -0.2292
 1872SOL    HW2 7533   3.490   3.570   3.056  1.2466  0.3909 -2.0268
 1872SOL    HW3 7534   3.387   3.678   3.030  1.1773  0.4064 -1.6936
 1872SOL    MW4 7535   3.417   3.597   3.018  0.3419 -0.0648 -0.6597
 1873SOL     OW 7536   3.372   3.865   3.111  0.0282  0.0466  0.0169
 1873SOL    HW2 7537   3.357   3.870   3.205  1.2446  1.2751  0.1596
 1873SOL    HW3 7538   3.316   3.934   3.075 -0.7606 -0.7045 -0.2033
 1873SOL    MW4 7539   3.362   3.875   3.118  0.0846  0.1099  0.0069
 1874SOL     OW 7540   3.187   4.026   3.008 -0.2628 -0.4461 -0.1406
 1874SOL    HW2 7541   3.102   3.989   3.032  0.3105 -0.8373  1.3696
 1874SOL    HW3 7542   3.202   3.995   2.918 -1.6952 -0.3779 -0.4218
 1874SOL    MW4 7543   3.177   4.017   2.999 -0.3762 -0.4888  0.0217
 1875SOL     OW 7544   3.146   4.268   3.133 -0.3689  0.0101 -0.1462
 1875SOL    HW2 7545   3.129   4.248   3.225 -0.9096  1.4300  0.0864
 1875SOL    HW3 7546   3.149   4.183   3.090  0.8087 -0.7196  1.3388
 1875SOL    MW4 7547   3.144   4.254   3.139 -0.2849  0.1011  0.0803
 1876SOL     OW 7548   3.379   4.347   2.999  0.1337  0.0331  0.0316
 1876SOL    HW2 7549   3.450   4.298   3.040 -0.6606 -1.8100 -0.7189
 1876SOL    HW3 7550   3.300   4.317   3.046 -0.2181  1.5532  0.4159
 1876SOL    MW4 7551   3.378   4.336   3.011 -0.0174 -0.0095 -0.0167
 1877SOL     OW 7552   3.820   4.640   3.134  0.0352 -0.0010  0.6242
 1877SOL    HW2 7553   3.818   4.548   3.107  0.3140  0.1713  0.0145
 1877SOL    HW3 7554   3.728   4.668   3.128  0.3033  0.4711 -1.6822
 1877SOL    MW4 7555   3.808   4.632   3.129  0.1073  0.0839  0.2396
 1878SOL     OW 7556   3.580   0.101   3.062  0.4876  0.1241  0.1252
 1878SOL    HW2 7557   3.569   0.194   3.082 -0.8704  0.1954 -0.8367
 1878SOL    HW3 7558   3.590   0.099   2.966 -0.2096 -0.7720  0.0685
 1878SOL    MW4 7559   3.580   0.113   3.052  0.2165  0.0153 -0.0088
 1879SOL     OW 7560   3.579   0.382   3.122 -0.6398  0.1267 -0.0813
 1879SOL    HW2 7561   3.561   0.364   3.214 -0.4911 -0.5374 -0.1793
 1879SOL    HW3 7562   3.668   0.417   3.121 -1.2900  1.8049  0.2191
 1879SOL    MW4 7563   3.588   0.384   3.134 -0.7060  0.2605 -0.0544
 1880SOL     OW 7564   3.824   0.490   3.075  0.6675  0.6385  0.2026
 1880SOL    HW2 7565   3.895   0.446   3.123 -0.9159 -1.7305  0.4398
 1880SOL    HW3 7566   3.839   0.583   3.091  2.9718  0.1136  1.3193
 1880SOL    MW4 7567   3.835   0.497   3.084  0.7625  0.2567  0.3812
 1881SOL     OW 7568   3.814   0.770   3.117 -0.1379 -0.1244  0.2677
 1881SOL    HW2 7569   3.824   0.758   3.212  0.7566 -0.5465  0.1293
 1881SOL    HW3 7570   3.891   0.822   3.092 -0.2323 -0.2495 -0.2702
 1881SOL    MW4 7571   3.825   0.775   3.126 -0.0322 -0.1966  0.1786
 1882SOL     OW 7572   3.629   0.927   2.965 -0.1894 -0.6770  0.1617
 1882SOL    HW2 7573   3.700   0.881   3.009 -0.8205 -0.4860  1.4007
 1882SOL    HW3 7574   3.549   0.884   2.996 -0.6772 -0.2118 -0.4087
 1882SOL    MW4 7575   3.628   0.915   2.975 -0.3371 -0.5904  0.2496
 1883SOL     OW 7576   3.597   1.172   3.107  0.6148 -0.2445  0.1166
 1883SOL    HW2 7577   3.680   1.218   3.092 -0.1788  0.7954 -1.1881
 1883SOL    HW3 7578   3.611   1.086   3.067  0.3691  0.6558 -2.0066
 1883SOL    MW4 7579   3.610   1.167   3.099  0.4778  0.0116 -0.3355
 1884SOL     OW 7580   3.842   1.279   3.043  0.1412  0.2772 -0.5209
 1884SOL    HW2 7581   3.854   1.371   3.067 -1.4320  0.4755 -0.4670
 1884SOL    HW3 7582   3.852   1.277   2.948 -0.7410  0.6559 -0.6243
 1884SOL    MW4 7583   3.845   1.291   3.034 -0.1829  0.3533 -0.5276
 1885SOL     OW 7584   3.853   1.556   3.095 -0.0283 -0.2900  0.1762
 1885SOL    HW2 7585   3.868   1.578   3.187  0.4631  2.1684 -0.4608
 1885SOL    HW3 7586   3.765   1.588   3.077  0.7410  1.2629 -0.8112
 1885SOL    MW4 7587   3.843   1.563   3.105  0.1378  0.2393 -0.0384
 1886SOL     OW 7588   3.608   1.668   3.015 -0.4867  0.1030  0.0467
 1886SOL    HW2 7589   3.579   1.754   3.047  1.3406  0.4617  0.8030
 1886SOL    HW3 7590   3.589   1.669   2.922 -1.3804  0.9415  0.2258
 1886SOL    MW4 7591   3.601   1.679   3.007 -0.3633  0.2609  0.1702
 1887SOL     OW 7592   3.567   1.934   3.110 -0.2029 -0.0693 -0.3623
 1887SOL    HW2 7593   3.564   1.918   3.204  0.2354  1.3026 -0.1043
 1887SOL    HW3 7594   3.655   1.967   3.094 -0.0701 -0.8686 -1.3551
 1887SOL    MW4 7595   3.578   1.937   3.120 -0.1276  0.0063 -0.4594
 1888SOL     OW 7596   3.833   2.071   3.039 -0.4248 -0.6696 -0.4653
 1888SOL    HW2 7597   3.820   2.160   3.072 -1.1701 -0.7933 -0.4193
 1888SOL    HW3 7598   3.801   2.075   2.949 -1.8390 -1.2556 -0.0014
 1888SOL    MW4 7599   3.827   2.083   3.031 -0.7100 -0.7634 -0.3982
 1889SOL     OW 7600   3.812   2.341   3.149  0.0093 -0.1923 -0.1948
 1889SOL    HW2 7601   3.806   2.350   3.244  2.1097  0.8478 -0.1507
 1889SOL    HW3 7602   3.733   2.384   3.116  0.5383  1.7086  0.9579
 1889SOL    MW4 7603   3.801   2.348   3.157  0.3564  0.1957 -0.0367
 1890SOL     OW 7604   3.585   2.457   3.003 -0.3071  0.1922 -0.0768
 1890SOL    HW2 7605   3.584   2.542   3.046  0.2773 -0.5235  1.3694
 1890SOL    HW3 7606   3.512   2.409   3.043  1.2759 -1.0666  1.3615
 1890SOL    MW4 7607   3.575   2.462   3.014 -0.0207 -0.0684  0.3037
 1891SOL     OW 7608   3.608   2.701   3.148 -0.4485 -0.4069  0.1340
 1891SOL    HW2 7609   3.687   2.738   3.110  1.0981 -2.6993  0.9926
 1891SOL    HW3 7610   3.538   2.759   3.120  1.3940  1.0667 -1.5269
 1891SOL    MW4 7611   3.609   2.714   3.140 -0.0014 -0.5152  0.0281
 1892SOL     OW 7612   3.815   2.819   3.018  0.1038  0.4130 -0.5444
 1892SOL    HW2 7613   3.825   2.911   3.044 -0.9593  0.3815 -0.0175
 1892SOL    HW3 7614   3.803   2.822   2.923  0.7487  0.7630 -0.6190
 1892SOL    MW4 7615   3.815   2.832   3.009  0.0484  0.4554 -0.4845
 1893SOL     OW 7616   3.836   3.084   3.103  0.2403  0.1703  0.1111
 1893SOL    HW2 7617   3.914   3.127   3.069 -1.0245  2.5055  0.0041
 1893SOL    HW3 7618   3.764   3.141   3.076 -1.4093 -1.3629  1.1189
 1893SOL    MW4 7619   3.837   3.097   3.095 -0.1442  0.2761  0.2301
 1894SOL     OW 7620   3.604   3.238   3.023 -0.5108 -0.6699  0.0201
 1894SOL    HW2 7621   3.530   3.190   3.060 -1.6504  0.2397 -0.9940
 1894SOL    HW3 7622   3.578   3.255   2.932  0.9181 -0.2619 -0.3328
 1894SOL    MW4 7623   3.591   3.234   3.016 -0.4725 -0.4957 -0.1605
 1895SOL     OW 7624   3.635   3.474   3.164 -0.4031  0.2816 -0.0135
 1895SOL    HW2 7625   3.711   3.511   3.119 -0.7384 -0.2752 -1.0283
 1895SOL    HW3 7626   3.620   3.390   3.123 -0.1601 -0.6580  1.7537
 1895SOL    MW4 7627   3.643   3.468   3.153 -0.4153  0.0842  0.0861
 1896SOL     OW 7628   3.851   3.567   3.039  0.0823 -0.4851  0.0926
 1896SOL    HW2 7629   3.832   3.642   3.095  0.4334 -0.9857  0.8876
 1896SOL    HW3 7630   3.829   3.596   2.951  0.6841  0.7249  0.3360
 1896SOL    MW4 7631   3.846   3.580   3.035  0.2081 -0.3912  0.2294
 1897SOL     OW 7632   3.824   3.834   3.159  0.2093  0.3825 -0.1714
 1897SOL    HW2 7633   3.828   3.846   3.254 -0.4672 -2.3339  0.2392
 1897SOL    HW3 7634   3.747   3.883   3.131  0.0194  0.6286  0.7681
 1897SOL    MW4 7635   3.815   3.842   3.168  0.0951  0.0567  0.0069
 1898SOL     OW 7636   3.617   3.973   3.025  0.4198  0.0164 -0.2623
 1898SOL    HW2 7637   3.534   3.935   3.055  1.3410 -1.4634  0.4732
 1898SOL    HW3 7638   3.605   3.986   2.931 -0.5306 -0.4848 -0.2155
 1898SOL    MW4 7639   3.604   3.970   3.017  0.4156 -0.2449 -0.1593
 1899SOL     OW 7640   3.606   4.240   3.118 -0.1000 -0.5975 -0.5871
 1899SOL    HW2 7641   3.675   4.286   3.070 -0.8973  1.0801 -0.1680
 1899SOL    HW3 7642   3.623   4.147   3.102  0.6048 -0.1162 -2.7891
 1899SOL    MW4 7643   3.617   4.234   3.109 -0.1123 -0.3128 -0.8223
 1900SOL     OW 7644   3.831   4.375   3.027 -0.3049 -0.4207  0.2547
 1900SOL    HW2 7645   3.911   4.327   3.049 -0.3285 -0.9939 -0.8555
 1900SOL    HW3 7646   3.831   4.379   2.931 -1.4143 -0.1051  0.2611
 1900SOL    MW4 7647   3.842   4.369   3.017 -0.4544 -0.4549  0.1090
 1901SOL     OW 7648   4.256   4.646   3.118  0.0080 -0.0722 -0.4416
 1901SOL    HW2 7649   4.257   4.638   3.213 -3.0122 -1.8168 -0.4996
 1901SOL    HW3 7650   4.251   4.556   3.086  1.0448  0.4931 -2.2772
 1901SOL    MW4 7651   4.256   4.633   3.126 -0.2537 -0.2279 -0.6917
 1902SOL     OW 7652   4.034   0.119   3.031  0.2294  0.3907  0.2918
 1902SOL    HW2 7653   4.100   0.063   3.073  0.1754 -0.8243 -1.2011
 1902SOL    HW3 7654   3.951   0.080   3.056  0.1721  0.1553 -0.2608
 1902SOL    MW4 7655   4.032   0.106   3.040  0.2151  0.1993  0.0219
 1903SOL     OW 7656   4.049   0.355   3.179  0.3696 -0.4487  0.0063
 1903SOL    HW2 7657   4.122   0.393   3.131 -0.3174 -0.7774 -1.3552
 1903SOL    HW3 7658   4.042   0.266   3.144  0.4722 -1.0251  1.4383
 1903SOL    MW4 7659   4.057   0.348   3.168  0.2928 -0.5681  0.0157
 1904SOL     OW 7660   4.281   0.500   3.070 -0.0800 -0.1810  0.3339
 1904SOL    HW2 7661   4.276   0.591   3.099  2.0430  0.1706 -0.2701
 1904SOL    HW3 7662   4.272   0.505   2.975 -0.3518 -0.6412  0.3353
 1904SOL    MW4 7663   4.279   0.513   3.061  0.1645 -0.1954  0.2544
 1905SOL     OW 7664   4.265   0.770   3.153  0.1466  0.3736 -0.2280
 1905SOL    HW2 7665   4.188   0.805   3.109  0.4469  0.0077 -1.0498
 1905SOL    HW3 7666   4.339   0.805   3.104  0.4841  0.1353  0.1124
 1905SOL    MW4 7667   4.265   0.779   3.141  0.2303  0.2939 -0.2913
 1906SOL     OW 7668   4.052   0.894   3.003  0.2374  0.2448  0.1215
 1906SOL    HW2 7669   4.054   0.985   3.033 -0.7721 -0.1071  1.2701
 1906SOL    HW3 7670   4.035   0.901   2.909  1.8790  1.2963 -0.1044
 1906SOL    MW4 7671   4.050   0.907   2.994  0.3204  0.3371  0.2429
 1907SOL     OW 7672   4.076   1.127   3.121 -0.3966  0.3413 -0.2794
 1907SOL    HW2 7673   4.069   1.119   3.216  0.7884  1.9596 -0.0456
 1907SOL    HW3 7674   4.000   1.178   3.096 -0.4333  0.3502 -0.1537
 1907SOL    MW4 7675   4.065   1.132   3.130 -0.2451  0.5560 -0.2320
 1908SOL     OW 7676   4.326   1.255   3.027 -0.3811 -0.2130 -0.5628
 1908SOL    HW2 7677   4.267   1.189   3.064 -0.2242 -0.6533 -1.0938
 1908SOL    HW3 7678   4.302   1.261   2.935  0.2276 -0.2016 -0.7251
 1908SOL    MW4 7679   4.315   1.247   3.020 -0.2804 -0.2697 -0.6542
 1909SOL     OW 7680   4.257   1.516   3.124  0.3365  0.0674  0.3540
 1909SOL    HW2 7681   4.184   1.555   3.076  1.2844 -0.5097 -1.6139
 1909SOL    HW3 7682   4.267   1.429   3.085  2.1985  0.2146  0.4560
 1909SOL    MW4 7683   4.249   1.509   3.113  0.7071  0.0107  0.1080
 1910SOL     OW 7684   4.073   1.672   2.996 -0.0490  0.6057  0.2622
 1910SOL    HW2 7685   4.076   1.756   3.042  0.0443  0.2832  0.8495
 1910SOL    HW3 7686   3.993   1.630   3.028  0.3767  0.0857  0.6520
 1910SOL    MW4 7687   4.063   1.678   3.006  0.0196  0.4946  0.3908
 1911SOL     OW 7688   4.061   1.907   3.126 -0.5036 -0.4550 -0.2231
 1911SOL    HW2 7689   4.140   1.960   3.115  0.8882 -2.7684 -1.8265
 1911SOL    HW3 7690   3.992   1.958   3.084  0.1972  1.3698  0.7684
 1911SOL    MW4 7691   4.062   1.921   3.119 -0.2275 -0.5194 -0.3037
 1912SOL     OW 7692   4.281   2.052   3.060 -0.4944 -0.1788 -0.1808
 1912SOL    HW2 7693   4.284   2.145   3.083 -0.9753 -0.2364  0.1249
 1912SOL    HW3 7694   4.277   2.051   2.964 -1.7355  0.1493 -0.1333
 1912SOL    MW4 7695   4.281   2.064   3.050 -0.7219 -0.1433 -0.1345
 1913SOL     OW 7696   4.295   2.297   3.140 -0.0033 -0.4438 -0.2371
 1913SOL    HW2 7697   4.224   2.354   3.112  0.1358  0.0055  0.3038
 1913SOL    HW3 7698   4.373   2.332   3.098  0.0984 -0.1688  0.1750
 1913SOL    MW4 7699   4.296   2.309   3.131  0.0281 -0.3481 -0.1113
 1914SOL     OW 7700   4.075   2.436   3.069  0.0190  0.5052  0.1161
 1914SOL    HW2 7701   4.074   2.532   3.068  0.3286  0.5266  1.2663
 1914SOL    HW3 7702   3.994   2.412   3.114 -0.5996  0.1992 -1.1427
 1914SOL    MW4 7703   4.064   2.445   3.075 -0.0215  0.4680  0.1016
 1915SOL     OW 7704   4.055   2.711   3.121 -0.3602  0.3516  0.6798
 1915SOL    HW2 7705   4.060   2.714   3.217  0.3641  0.0783  0.6544
 1915SOL    HW3 7706   3.973   2.756   3.100 -1.6216 -1.4413  1.5491
 1915SOL    MW4 7707   4.045   2.717   3.131 -0.4311  0.0789  0.7911
 1916SOL     OW 7708   4.273   2.833   3.009 -0.2059  0.0496 -0.4507
 1916SOL    HW2 7709   4.199   2.783   3.041 -1.4862  1.0340 -1.8173
 1916SOL    HW3 7710   4.347   2.805   3.064 -1.6358 -0.7002  1.1138
 1916SOL    MW4 7711   4.273   2.823   3.020 -0.5636  0.0806 -0.4246
 1917SOL     OW 7712   4.282   3.054   3.175  0.2614  0.0981 -0.1895
 1917SOL    HW2 7713   4.208   3.110   3.151  0.0694  0.7455  1.7921
 1917SOL    HW3 7714   4.277   2.980   3.115 -1.8426  0.2593 -0.2391
 1917SOL    MW4 7715   4.272   3.052   3.164 -0.0415  0.2048  0.0651
 1918SOL     OW 7716   4.084   3.199   3.035  0.4714 -0.2476 -0.0844
 1918SOL    HW2 7717   4.072   3.285   3.075 -2.2138 -0.8051  0.4177
 1918SOL    HW3 7718   4.077   3.215   2.941  1.6774  0.3132 -0.0872
 1918SOL    MW4 7719   4.081   3.212   3.028  0.2761 -0.2475 -0.0184
 1919SOL     OW 7720   4.072   3.445   3.136 -0.2776  0.3264  0.1458
 1919SOL    HW2 7721   4.070   3.455   3.231 -1.8211 -1.1204  0.3093
 1919SOL    HW3 7722   3.992   3.489   3.106  0.3993  1.1135 -0.5318
 1919SOL    MW4 7723   4.061   3.452   3.145 -0.3920  0.2396  0.0780
 1920SOL     OW 7724   4.243   3.589   2.963  0.3960  0.7092 -0.1247
 1920SOL    HW2 7725   4.231   3.666   3.018  1.1636  1.2346 -0.6814
 1920SOL    HW3 7726   4.181   3.525   2.998  0.9431  0.9882  1.4348
 1920SOL    MW4 7727   4.233   3.591   2.975  0.5693  0.8154  0.0076
 1921SOL     OW 7728   4.252   3.818   3.113  0.0072  0.2130 -0.3228
 1921SOL    HW2 7729   4.174   3.856   3.074  0.4864  0.6023 -0.9001
 1921SOL    HW3 7730   4.323   3.877   3.089  0.4367  0.0225  0.4490
 1921SOL    MW4 7731   4.251   3.831   3.105  0.1268  0.2394 -0.2971
 1922SOL     OW 7732   4.062   3.970   3.002 -0.3614 -0.1673  0.4249
 1922SOL    HW2 7733   4.066   4.059   3.035 -0.8617 -0.0732  0.2287
 1922SOL    HW3 7734   3.984   3.932   3.042 -0.0107 -0.6041  0.7149
 1922SOL    MW4 7735   4.052   3.976   3.011 -0.3810 -0.2124  0.4370
 1923SOL     OW 7736   4.053   4.222   3.114 -0.4592 -0.3467 -0.0029
 1923SOL    HW2 7737   4.056   4.231   3.209 -1.3789  1.6442 -0.1316
 1923SOL    HW3 7738   4.123   4.280   3.083 -0.3561 -0.7651 -0.5499
 1923SOL    MW4 7739   4.063   4.231   3.122 -0.5670 -0.1388 -0.0920
 1924SOL     OW 7740   4.255   4.376   3.002  0.3779 -0.1077 -0.2598
 1924SOL    HW2 7741   4.338   4.341   3.034  0.2663 -0.7576 -0.6715
 1924SOL    HW3 7742   4.263   4.373   2.906  0.1552  0.4912 -0.3044
 1924SOL    MW4 7743   4.267   4.371   2.993  0.3338 -0.1149 -0.3200
 1925SOL     OW 7744   0.266   4.623   3.377  0.0668 -0.0586  0.1921
 1925SOL    HW2 7745   0.332   4.668   3.430 -0.8816  0.7223  0.7080
 1925SOL    HW3 7746   0.240   4.547   3.430  0.9874 -0.7158 -0.2774
 1925SOL    MW4 7747   0.272   4.619   3.391  0.0632 -0.0420  0.1981
 1926SOL     OW 7748   0.022   0.083   3.518  0.1265  0.4739 -0.0179
 1926SOL    HW2 7749   0.017   0.173   3.486  1.5818  1.0626  1.3654
 1926SOL    HW3 7750   0.096   0.044   3.471  0.6376  0.5582  0.7038
 1926SOL    MW4 7751   0.031   0.089   3.508  0.3859  0.5627  0.2596
 1927SOL     OW 7752   0.023   0.361   3.464  0.4757 -0.7384  0.5036
 1927SOL    HW2 7753  -0.064   0.401   3.471  0.3706 -0.8731 -0.0460
 1927SOL    HW3 7754   0.083   0.436   3.467  0.3564 -0.6640  1.1506
 1927SOL    MW4 7755   0.019   0.376   3.465  0.4460 -0.7463  0.5167
 1928SOL     OW 7756   0.225   0.535   3.502  0.1085  0.2110 -0.4767
 1928SOL    HW2 7757   0.305   0.486   3.482 -0.3763 -0.2854 -1.2044
 1928SOL    HW3 7758   0.231   0.613   3.448 -0.4190 -0.3475 -1.3432
 1928SOL    MW4 7759   0.237   0.539   3.492 -0.0251  0.0718 -0.6871
 1929SOL     OW 7760   0.273   0.784   3.366  0.4425 -0.4440 -0.2851
 1929SOL    HW2 7761   0.358   0.812   3.400  1.1823  0.2256 -2.5579
 1929SOL    HW3 7762   0.208   0.827   3.422  1.5996 -0.7307  1.2900
 1929SOL    MW4 7763   0.276   0.794   3.378  0.6928 -0.3935 -0.3772
 1930SOL     OW 7764   0.052   0.884   3.511  0.2683  0.2632  0.2149
 1930SOL    HW2 7765   0.048   0.907   3.604  1.4532  0.7529  0.1610
 1930SOL    HW3 7766   0.030   0.965   3.465 -0.2526  0.0388  0.0709
 1930SOL    MW4 7767   0.049   0.898   3.517  0.3559  0.2981  0.1891
 1931SOL     OW 7768   0.016   1.151   3.422  0.3454 -0.1558 -0.0622
 1931SOL    HW2 7769   0.088   1.193   3.469 -0.1206  0.7246 -0.1312
 1931SOL    HW3 7770   0.036   1.165   3.330  0.9398 -1.3519 -0.1214
 1931SOL    MW4 7771   0.028   1.158   3.416  0.3623 -0.1974 -0.0794
 1932SOL     OW 7772   0.259   1.289   3.528  0.0351 -0.1792  0.0692
 1932SOL    HW2 7773   0.337   1.245   3.494  0.5962  0.8776 -0.0655
 1932SOL    HW3 7774   0.263   1.377   3.489  0.0430  0.6626  1.9202
 1932SOL    MW4 7775   0.270   1.295   3.518  0.1101  0.0713  0.2959
 1933SOL     OW 7776   0.265   1.518   3.385  0.0678  0.2033  0.1137
 1933SOL    HW2 7777   0.345   1.565   3.408  0.0112  0.2046  0.3126
 1933SOL    HW3 7778   0.265   1.516   3.290  0.3467  0.1337  0.1123
 1933SOL    MW4 7779   0.276   1.524   3.376  0.0971  0.1942  0.1397
 1934SOL     OW 7780   0.044   1.643   3.496 -0.0176 -0.2738 -0.4282
 1934SOL    HW2 7781  -0.039   1.613   3.459  0.5653 -0.6604 -1.4341
 1934SOL    HW3 7782   0.110   1.590   3.453  0.6874 -0.7466  1.1824
 1934SOL    MW4 7783   0.042   1.632   3.486  0.1524 -0.3871 -0.3483
 1935SOL     OW 7784   0.019   1.908   3.392  0.1984 -0.3116  0.3881
 1935SOL    HW2 7785   0.065   1.830   3.422  0.6801 -0.1052  0.1879
 1935SOL    HW3 7786   0.026   1.904   3.296  1.1311  0.5329  0.4224
 1935SOL    MW4 7787   0.026   1.897   3.383  0.3850 -0.1730  0.3660
 1936SOL     OW 7788   0.237   2.086   3.430 -0.1007 -0.7734  0.4850
 1936SOL    HW2 7789   0.237   2.099   3.524 -0.8772 -0.4173  0.4327
 1936SOL    HW3 7790   0.158   2.036   3.412 -0.9221  0.7443 -0.1982
 1936SOL    MW4 7791   0.227   2.081   3.440 -0.3115 -0.5262  0.3879
 1937SOL     OW 7792   0.266   2.358   3.375 -0.3249 -0.0976 -0.0527
 1937SOL    HW2 7793   0.194   2.412   3.406 -1.1123 -0.3867 -1.3187
 1937SOL    HW3 7794   0.246   2.270   3.406  0.3814  0.1250  1.0584
 1937SOL    MW4 7795   0.254   2.354   3.383 -0.3356 -0.1063 -0.0730
 1938SOL     OW 7796   0.065   2.496   3.511  0.3802 -0.0360  0.1396
 1938SOL    HW2 7797   0.054   2.498   3.606  0.8729 -0.6841  0.2163
 1938SOL    HW3 7798  -0.003   2.436   3.480  0.0520  0.3754  0.0528
 1938SOL    MW4 7799   0.055   2.488   3.520  0.4018 -0.0672  0.1383
 1939SOL     OW 7800   0.025   2.746   3.437  0.5569 -0.1944  0.2830
 1939SOL    HW2 7801   0.110   2.782   3.462  0.1308  0.1305  1.2760
 1939SOL    HW3 7802   0.028   2.655   3.467  1.0698 -0.5924 -0.9183
 1939SOL    MW4 7803   0.037   2.739   3.445  0.5684 -0.2038  0.2556
 1940SOL     OW 7804   0.273   2.859   3.488 -0.1378  0.1351 -0.3987
 1940SOL    HW2 7805   0.342   2.802   3.453 -0.4672 -0.5893  0.1056
 1940SOL    HW3 7806   0.276   2.937   3.434  0.1457 -0.4800 -1.2756
 1940SOL    MW4 7807   0.283   2.862   3.476 -0.1439 -0.0415 -0.4478
 1941SOL     OW 7808   0.255   3.094   3.370  0.0946 -0.2392 -0.1690
 1941SOL    HW2 7809   0.173   3.133   3.398  0.6942  0.1494  1.1025
 1941SOL    HW3 7810   0.252   3.096   3.274 -0.4633  1.6817 -0.1292
 1941SOL    MW4 7811   0.244   3.099   3.361  0.1001  0.0656  0.0041
 1942SOL     OW 7812   0.041   3.234   3.486  0.7489  0.1091  0.4680
 1942SOL    HW2 7813  -0.048   3.203   3.471  0.4165  0.5836  1.3718
 1942SOL    HW3 7814   0.042   3.323   3.453  0.4755  0.5902  1.7102
 1942SOL    MW4 7815   0.030   3.242   3.480  0.6690  0.2351  0.7513
 1943SOL     OW 7816   0.013   3.512   3.388 -0.0457 -0.4075 -0.1613
 1943SOL    HW2 7817  -0.066   3.551   3.425 -0.8957 -2.2187 -0.0071
 1943SOL    HW3 7818   0.008   3.532   3.294  0.5062  1.4587  0.1868
 1943SOL    MW4 7819   0.002   3.520   3.380 -0.0850 -0.4003 -0.0951
 1944SOL     OW 7820   0.256   3.570   3.535 -0.3888 -0.1981  0.3476
 1944SOL    HW2 7821   0.257   3.564   3.631 -0.6845 -1.1163  0.2987
 1944SOL    HW3 7822   0.169   3.538   3.510 -0.6970  1.0030 -0.1767
 1944SOL    MW4 7823   0.244   3.565   3.544 -0.4685 -0.1607  0.2718
 1945SOL     OW 7824   0.238   3.837   3.429  0.2266  0.4422 -0.0857
 1945SOL    HW2 7825   0.159   3.877   3.465 -1.5290 -1.6483 -1.4840
 1945SOL    HW3 7826   0.233   3.746   3.457  1.2009 -0.1295 -1.7564
 1945SOL    MW4 7827   0.227   3.830   3.438  0.1235  0.0911 -0.4907
 1946SOL     OW 7828   0.011   3.966   3.501  0.3059  0.1973  0.0651
 1946SOL    HW2 7829   0.030   3.976   3.594  1.5950  1.5525 -0.3170
 1946SOL    HW3 7830   0.038   4.049   3.462  0.4387 -0.6016 -1.6117
 1946SOL    MW4 7831   0.017   3.978   3.508  0.4935  0.2706 -0.2069
 1947SOL     OW 7832   0.016   4.229   3.379 -0.2963  0.1463 -0.2647
 1947SOL    HW2 7833  -0.068   4.261   3.412 -0.6552 -0.5589 -0.4650
 1947SOL    HW3 7834   0.082   4.275   3.430 -0.8061  0.9499 -0.3346
 1947SOL    MW4 7835   0.014   4.239   3.390 -0.4109  0.1597 -0.3002
 1948SOL     OW 7836   0.192   4.391   3.506 -0.2043  0.5038  0.4256
 1948SOL    HW2 7837   0.207   4.400   3.600 -1.1665 -2.2401  0.8783
 1948SOL    HW3 7838   0.269   4.345   3.473  0.5499  2.2622 -0.2916
 1948SOL    MW4 7839   0.204   4.386   3.514 -0.2317  0.3738  0.3905
 1949SOL     OW 7840   0.684   4.598   3.417  0.1419  0.1964 -0.0134
 1949SOL    HW2 7841   0.777   4.610   3.438  0.4675 -0.5911 -0.9334
 1949SOL    HW3 7842   0.679   4.615   3.323 -0.3783 -1.1858 -0.2447
 1949SOL    MW4 7843   0.696   4.602   3.407  0.1163 -0.0901 -0.1655
 1950SOL     OW 7844   0.473   0.084   3.503  0.0626 -0.2770  0.2919
 1950SOL    HW2 7845   0.472   0.094   3.598 -0.9975  0.5018  0.2037
 1950SOL    HW3 7846   0.550   0.029   3.486  1.7296  1.6489  1.3972
 1950SOL    MW4 7847   0.483   0.078   3.513  0.1427  0.0798  0.4263
 1951SOL     OW 7848   0.447   0.367   3.461 -0.0359 -0.1374 -0.3327
 1951SOL    HW2 7849   0.532   0.404   3.485 -0.2306  0.2574 -0.2560
 1951SOL    HW3 7850   0.452   0.276   3.488 -0.0148  0.1404  0.6013
 1951SOL    MW4 7851   0.459   0.360   3.467 -0.0588 -0.0486 -0.1993
 1952SOL     OW 7852   0.741   0.482   3.506  0.5687  0.3567 -0.1568
 1952SOL    HW2 7853   0.728   0.452   3.596  0.7554  0.3786 -0.1213
 1952SOL    HW3 7854   0.804   0.420   3.469 -0.7582 -0.6323 -0.7897
 1952SOL    MW4 7855   0.748   0.470   3.513  0.4184  0.2291 -0.2356
 1953SOL     OW 7856   0.720   0.724   3.362 -0.0578  0.1523  0.1396
 1953SOL    HW2 7857   0.651   0.773   3.407 -0.3881  0.4564 -0.7006
 1953SOL    HW3 7858   0.721   0.639   3.407 -1.9447 -0.3634 -0.7295
 1953SOL    MW4 7859   0.711   0.719   3.374 -0.3504  0.1243 -0.0861
 1954SOL     OW 7860   0.514   0.883   3.483 -0.3216  0.2347 -0.1899
 1954SOL    HW2 7861   0.508   0.870   3.577 -0.6224  0.7814 -0.1310
 1954SOL    HW3 7862   0.529   0.977   3.472 -0.2256  0.1658 -0.6815
 1954SOL    MW4 7863   0.515   0.894   3.494 -0.3486  0.2978 -0.2470
 1955SOL     OW 7864   0.493   1.158   3.433 -0.3110 -0.5414  0.7029
 1955SOL    HW2 7865   0.572   1.207   3.453 -0.4139 -0.3463  0.6244
 1955SOL    HW3 7866   0.492   1.149   3.338 -0.1904 -0.8621  0.7324
 1955SOL    MW4 7867   0.503   1.163   3.423 -0.3087 -0.5579  0.6967
 1956SOL     OW 7868   0.724   1.284   3.499 -0.1910  0.0722  0.0505
 1956SOL    HW2 7869   0.781   1.223   3.452 -0.7007 -0.7698  0.5071
 1956SOL    HW3 7870   0.720   1.362   3.444  0.1791 -0.4510 -0.7116
 1956SOL    MW4 7871   0.731   1.286   3.486 -0.2094 -0.1079  0.0103
 1957SOL     OW 7872   0.711   1.534   3.381  0.3464  0.1092  0.1877
 1957SOL    HW2 7873   0.791   1.569   3.421  0.5208  0.8352 -0.7881
 1957SOL    HW3 7874   0.640   1.580   3.424  0.5346  0.9276 -0.3787
 1957SOL    MW4 7875   0.712   1.545   3.392  0.3942  0.3129 -0.0155
 1958SOL     OW 7876   0.497   1.667   3.483  0.4288 -0.0054  0.0273
 1958SOL    HW2 7877   0.483   1.670   3.577 -1.8892 -1.5180 -0.2107
 1958SOL    HW3 7878   0.482   1.757   3.453  0.6979  0.3778  1.0411
 1958SOL    MW4 7879   0.493   1.679   3.491  0.1585 -0.1545  0.1297
 1959SOL     OW 7880   0.485   1.919   3.384  0.0042  0.4882 -0.0945
 1959SOL    HW2 7881   0.399   1.957   3.405 -0.2849 -0.0280 -0.3416
 1959SOL    HW3 7882   0.495   1.933   3.290  0.2502  0.6690 -0.0408
 1959SOL    MW4 7883   0.475   1.926   3.374 -0.0015  0.4441 -0.1199
 1960SOL     OW 7884   0.708   2.052   3.510  0.1993  0.1584 -0.1277
 1960SOL    HW2 7885   0.693   2.061   3.604 -0.7421  0.3923 -0.2939
 1960SOL    HW3 7886   0.633   2.001   3.479  0.0398  0.8489 -0.8954
 1960SOL    MW4 7887   0.696   2.046   3.518  0.0541  0.2804 -0.2511
 1961SOL     OW 7888   0.689   2.316   3.367 -0.2894  0.5773 -0.3833
 1961SOL    HW2 7889   0.778   2.346   3.386 -0.0423 -0.5345  0.3107
 1961SOL    HW3 7890   0.685   2.229   3.407 -1.0874 -0.1670 -2.0469
 1961SOL    MW4 7891   0.701   2.308   3.375 -0.3620  0.3326 -0.5112
 1962SOL     OW 7892   0.479   2.447   3.494  0.1274  0.0143 -0.0701
 1962SOL    HW2 7893   0.555   2.396   3.466 -0.1658 -0.5611  0.1593
 1962SOL    HW3 7894   0.404   2.401   3.456 -0.0523  1.0450 -0.9790
 1962SOL    MW4 7895   0.479   2.434   3.485  0.0650  0.0746 -0.1597
 1963SOL     OW 7896   0.489   2.692   3.375  0.1865  0.2322 -0.7475
 1963SOL    HW2 7897   0.492   2.605   3.414 -1.1250  0.0208 -1.1025
 1963SOL    HW3 7898   0.469   2.677   3.283 -1.1806  0.9664 -0.5800
 1963SOL    MW4 7899   0.487   2.679   3.368 -0.1669  0.3011 -0.7720
 1964SOL     OW 7900   0.706   2.828   3.478  0.2197 -0.2118  0.1529
 1964SOL    HW2 7901   0.791   2.792   3.455 -0.2746  0.0404 -2.1751
 1964SOL    HW3 7902   0.643   2.775   3.428 -0.7600  1.6047 -0.5610
 1964SOL    MW4 7903   0.709   2.816   3.469  0.0252  0.0610 -0.2484
 1965SOL     OW 7904   0.765   3.072   3.385 -0.3889 -0.0894 -0.2160
 1965SOL    HW2 7905   0.688   3.128   3.399 -0.4345  0.4225 -2.2956
 1965SOL    HW3 7906   0.735   2.984   3.407 -1.5005  0.1406 -0.7524
 1965SOL    MW4 7907   0.751   3.068   3.390 -0.5416  0.0086 -0.5612
 1966SOL     OW 7908   0.497   3.209   3.457  0.2071 -0.0513  0.0152
 1966SOL    HW2 7909   0.484   3.234   3.549  1.0228  0.9770 -0.1423
 1966SOL    HW3 7910   0.423   3.152   3.437  1.2963 -2.2443  2.0162
 1966SOL    MW4 7911   0.486   3.204   3.466  0.4584 -0.2048  0.2584
 1967SOL     OW 7912   0.472   3.463   3.387  0.1290 -0.6298  0.2181
 1967SOL    HW2 7913   0.491   3.372   3.410  1.9474  0.6862  4.3629
 1967SOL    HW3 7914   0.389   3.482   3.432  1.6711  0.7904  2.5790
 1967SOL    MW4 7915   0.463   3.453   3.396  0.5724 -0.2689  1.0767
 1968SOL     OW 7916   0.685   3.608   3.513 -0.4992 -0.0545  0.2484
 1968SOL    HW2 7917   0.754   3.568   3.459 -0.6984 -0.1350  0.0516
 1968SOL    HW3 7918   0.603   3.572   3.477 -0.6102 -0.4049  0.8477
 1968SOL    MW4 7919   0.683   3.598   3.501 -0.5401 -0.1111  0.3016
 1969SOL     OW 7920   0.689   3.852   3.393  0.0159  0.4358 -0.1500
 1969SOL    HW2 7921   0.614   3.899   3.430  0.0063  0.2626  0.0495
 1969SOL    HW3 7922   0.691   3.769   3.441 -0.1508  0.1076 -0.7088
 1969SOL    MW4 7923   0.679   3.848   3.404 -0.0074  0.3695 -0.1974
 1970SOL     OW 7924   0.464   3.972   3.516 -0.1533 -0.2011 -0.0460
 1970SOL    HW2 7925   0.438   4.063   3.502 -0.8996 -0.3435  0.4358
 1970SOL    HW3 7926   0.390   3.920   3.484 -0.0429 -0.6271  0.3829
 1970SOL    MW4 7927   0.451   3.977   3.510 -0.2372 -0.2763  0.0741
 1971SOL     OW 7928   0.401   4.238   3.425  0.0371 -0.0476 -0.0572
 1971SOL    HW2 7929   0.489   4.256   3.457 -0.4447 -0.2562  1.4065
 1971SOL    HW3 7930   0.408   4.246   3.329  1.5592  0.2458  0.0716
 1971SOL    MW4 7931   0.413   4.241   3.416  0.1743 -0.0367  0.1528
 1972SOL     OW 7932   0.645   4.352   3.490  0.3002  0.0126 -0.0129
 1972SOL    HW2 7933   0.725   4.315   3.453  1.0686  0.7743  0.8667
 1972SOL    HW3 7934   0.639   4.439   3.450 -0.1176 -0.0538 -0.1015
 1972SOL    MW4 7935   0.655   4.359   3.480  0.3464  0.1044  0.0913
 1973SOL     OW 7936   1.189   4.582   3.391 -0.7182 -0.3616 -0.0043
 1973SOL    HW2 7937   1.265   4.625   3.430  0.0963 -0.6963 -1.1768
 1973SOL    HW3 7938   1.201   4.595   3.296 -1.0653 -2.1407 -0.3104
 1973SOL    MW4 7939   1.201   4.590   3.383 -0.6566 -0.6404 -0.1996
 1974SOL     OW 7940   0.941   0.042   3.468  0.1744 -0.2834  0.4593
 1974SOL    HW2 7941   0.948   0.033   3.563  0.9231  1.7404  0.6240
 1974SOL    HW3 7942   1.029   0.023   3.435  0.5985  1.5667  0.4316
 1974SOL    MW4 7943   0.954   0.039   3.476  0.3291  0.2277  0.4773
 1975SOL     OW 7944   0.929   0.321   3.378  0.8043 -0.0259  0.2719
 1975SOL    HW2 7945   1.009   0.360   3.413  0.6763 -0.9607  1.6325
 1975SOL    HW3 7946   0.934   0.229   3.403 -0.4027 -0.2268 -0.1862
 1975SOL    MW4 7947   0.940   0.314   3.386  0.6282 -0.1757  0.3908
 1976SOL     OW 7948   1.129   0.448   3.513  0.0244  0.0522  0.0828
 1976SOL    HW2 7949   1.114   0.460   3.607 -1.1739  1.0436 -0.2153
 1976SOL    HW3 7950   1.132   0.538   3.478 -0.9374 -0.3391 -1.0302
 1976SOL    MW4 7951   1.127   0.462   3.521 -0.2606  0.1314 -0.1032
 1977SOL     OW 7952   1.153   0.699   3.416  0.4485 -0.2620  0.7972
 1977SOL    HW2 7953   1.223   0.760   3.439  0.8378  0.3288 -1.7491
 1977SOL    HW3 7954   1.074   0.752   3.416  0.5183 -0.1558  0.3461
 1977SOL    MW4 7955   1.152   0.714   3.419  0.5089 -0.1701  0.4017
 1978SOL     OW 7956   0.934   0.885   3.434 -0.1105 -0.2669 -0.1331
 1978SOL    HW2 7957   0.926   0.976   3.406 -0.2379 -0.6523 -1.3961
 1978SOL    HW3 7958   0.862   0.840   3.391 -1.7621 -0.4873  2.7172
 1978SOL    MW4 7959   0.923   0.891   3.425 -0.3452 -0.3469  0.0765
 1979SOL     OW 7960   0.897   1.138   3.361 -0.4169 -0.0114  0.0798
 1979SOL    HW2 7961   0.981   1.176   3.389 -0.5548  0.0190  0.4497
 1979SOL    HW3 7962   0.905   1.131   3.266  0.2656 -0.6137  0.1717
 1979SOL    MW4 7963   0.909   1.142   3.352 -0.3451 -0.0867  0.1407
 1980SOL     OW 7964   1.147   1.238   3.481  0.0317  0.5724 -0.1447
 1980SOL    HW2 7965   1.145   1.236   3.576  0.2570  0.2573 -0.1471
 1980SOL    HW3 7966   1.136   1.331   3.458 -0.9593  0.5406  0.1654
 1980SOL    MW4 7967   1.145   1.250   3.490 -0.0694  0.5264 -0.1040
 1981SOL     OW 7968   1.146   1.509   3.401  0.0495  0.3509  0.2121
 1981SOL    HW2 7969   1.223   1.565   3.415  1.2730 -1.0195 -0.9151
 1981SOL    HW3 7970   1.134   1.509   3.306 -0.9903  0.0824  0.3429
 1981SOL    MW4 7971   1.155   1.516   3.390  0.0737  0.1346  0.0808
 1982SOL     OW 7972   0.930   1.669   3.471 -0.1564 -0.8005  0.2635
 1982SOL    HW2 7973   0.947   1.757   3.439 -0.1251 -0.6167  0.7821
 1982SOL    HW3 7974   1.005   1.617   3.441  0.4699 -0.3704  1.0687
 1982SOL    MW4 7975   0.942   1.674   3.463 -0.0696 -0.7195  0.4380
 1983SOL     OW 7976   0.916   1.951   3.364 -0.4576 -0.1792 -0.0892
 1983SOL    HW2 7977   0.995   2.000   3.389  0.1315 -1.0013 -0.3315
 1983SOL    HW3 7978   0.851   1.978   3.429  0.0693  0.3668  0.2249
 1983SOL    MW4 7979   0.918   1.961   3.376 -0.3104 -0.2155 -0.0796
 1984SOL     OW 7980   1.154   2.056   3.469  0.7005 -0.6388  0.4966
 1984SOL    HW2 7981   1.229   2.015   3.427 -0.1589 -0.0537 -1.6699
 1984SOL    HW3 7982   1.164   2.149   3.452 -0.6441 -0.5826 -0.0647
 1984SOL    MW4 7983   1.165   2.063   3.461  0.4097 -0.5543  0.1366
 1985SOL     OW 7984   1.167   2.326   3.396  0.0733  0.0100 -0.2621
 1985SOL    HW2 7985   1.248   2.367   3.425  0.3780 -0.8380  0.1020
 1985SOL    HW3 7986   1.168   2.334   3.301  1.5660 -1.7785 -0.4184
 1985SOL    MW4 7987   1.177   2.332   3.387  0.3104 -0.3376 -0.2346
 1986SOL     OW 7988   0.920   2.439   3.459 -0.0421 -0.5322 -0.6238
 1986SOL    HW2 7989   0.909   2.462   3.551 -0.0467  0.2364 -0.8131
 1986SOL    HW3 7990   1.010   2.406   3.453  0.5086  0.9160 -0.6360
 1986SOL    MW4 7991   0.931   2.438   3.470  0.0300 -0.2398 -0.6502
 1987SOL     OW 7992   0.919   2.697   3.374  0.2724  0.0932 -0.1905
 1987SOL    HW2 7993   0.992   2.740   3.419 -0.5513  2.4298 -1.0293
 1987SOL    HW3 7994   0.920   2.607   3.408  2.0650  0.7357  1.5596
 1987SOL    MW4 7995   0.929   2.691   3.384  0.4002  0.4861 -0.0701
 1988SOL     OW 7996   1.138   2.831   3.489  0.0409 -0.2817 -0.6260
 1988SOL    HW2 7997   1.156   2.854   3.580  0.7367 -0.2546 -0.7677
 1988SOL    HW3 7998   1.218   2.789   3.459 -0.4021 -0.8395 -1.0473
 1988SOL    MW4 7999   1.151   2.828   3.497  0.0743 -0.3517 -0.7002
 1989SOL     OW 8000   1.217   3.060   3.391 -0.4764 -0.0104 -0.0908
 1989SOL    HW2 8001   1.188   2.981   3.436 -3.1367  1.6957  1.2748
 1989SOL    HW3 8002   1.196   3.044   3.299 -1.1312 -0.8488  0.1966
 1989SOL    MW4 8003   1.211   3.047   3.385 -0.9139  0.1040  0.1273
 1990SOL     OW 8004   0.993   3.223   3.482  0.1920  0.0028  0.5600
 1990SOL    HW2 8005   1.070   3.170   3.464  0.2179  0.5540 -1.0340
 1990SOL    HW3 8006   0.919   3.170   3.453  0.1022  0.1689  0.4808
 1990SOL    MW4 8007   0.993   3.209   3.476  0.1836  0.0975  0.3390
 1991SOL     OW 8008   0.888   3.468   3.371  0.0322 -0.0389 -0.1295
 1991SOL    HW2 8009   0.917   3.384   3.406  1.7942  0.5964 -0.0053
 1991SOL    HW3 8010   0.910   3.465   3.278  2.2494  1.1387  0.3106
 1991SOL    MW4 8011   0.895   3.457   3.364  0.5572  0.2003 -0.0551
 1992SOL     OW 8012   1.114   3.589   3.476 -0.3906 -0.2429 -0.1870
 1992SOL    HW2 8013   1.119   3.578   3.571  0.1595  0.2016 -0.1596
 1992SOL    HW3 8014   1.034   3.543   3.451 -1.4585  1.0988  0.6953
 1992SOL    MW4 8015   1.104   3.581   3.486 -0.4590 -0.0074 -0.0670
 1993SOL     OW 8016   1.134   3.854   3.398  0.2246  0.6382  0.1173
 1993SOL    HW2 8017   1.216   3.881   3.438  0.4559 -1.1058  0.8678
 1993SOL    HW3 8018   1.126   3.761   3.421 -0.6620  0.1301 -2.1089
 1993SOL    MW4 8019   1.144   3.845   3.406  0.1380  0.3412 -0.0772
 1994SOL     OW 8020   0.924   3.994   3.533 -0.7690 -0.1448  0.2074
 1994SOL    HW2 8021   1.004   3.956   3.497 -0.7072 -0.6373  0.8638
 1994SOL    HW3 8022   0.853   3.946   3.490 -0.7376  0.6903 -0.8198
 1994SOL    MW4 8023   0.926   3.983   3.522 -0.7567 -0.0999  0.1583
 1995SOL     OW 8024   0.895   4.245   3.430 -0.0775 -0.2778 -0.0836
 1995SOL    HW2 8025   0.911   4.157   3.465  0.2691 -0.1486  0.0805
 1995SOL    HW3 8026   0.918   4.239   3.338  2.7305  0.3892  0.5312
 1995SOL    MW4 8027   0.900   4.233   3.423  0.3387 -0.1736  0.0191
 1996SOL     OW 8028   1.122   4.348   3.512 -0.2087  0.1840  0.0828
 1996SOL    HW2 8029   1.049   4.304   3.469  0.2605 -0.4337 -0.0866
 1996SOL    HW3 8030   1.115   4.439   3.483 -0.3212 -0.0782 -0.7353
 1996SOL    MW4 8031   1.112   4.354   3.502 -0.1615  0.0682 -0.0474
 1997SOL     OW 8032   1.608   4.626   3.363  0.8731  0.5451  0.8581
 1997SOL    HW2 8033   1.606   4.543   3.410  1.4782 -0.1188 -0.2548
 1997SOL    HW3 8034   1.529   4.673   3.392 -1.3720 -1.8770 -1.1022
 1997SOL    MW4 8035   1.597   4.622   3.373  0.6567  0.1378  0.4525
 1998SOL     OW 8036   1.385   0.082   3.465  0.1399  0.4323 -0.5172
 1998SOL    HW2 8037   1.385   0.084   3.560  2.6585 -0.7784 -0.4306
 1998SOL    HW3 8038   1.351   0.167   3.439  1.5277  1.6606  1.5103
 1998SOL    MW4 8039   1.381   0.093   3.474  0.6553  0.4346 -0.2382
 1999SOL     OW 8040   1.349   0.359   3.390 -0.3367  0.0086  0.1877
 1999SOL    HW2 8041   1.423   0.416   3.415 -0.9041  1.6593 -1.7497
 1999SOL    HW3 8042   1.278   0.385   3.449  0.0232 -0.1595  0.7002
 1999SOL    MW4 8043   1.350   0.370   3.401 -0.3641  0.2042 -0.0002
 2000SOL     OW 8044   1.580   0.512   3.441  0.6531 -0.0026  0.1403
 2000SOL    HW2 8045   1.560   0.515   3.535 -0.1529  0.0381 -0.0304
 2000SOL    HW3 8046   1.671   0.482   3.437  0.7279  0.1064  0.9390
 2000SOL    MW4 8047   1.589   0.508   3.453  0.5565  0.0172  0.2234
 2001SOL     OW 8048   1.578   0.744   3.312 -0.1115 -0.3500 -0.8789
 2001SOL    HW2 8049   1.518   0.792   3.369  0.3680  0.0035 -0.6622
 2001SOL    HW3 8050   1.575   0.654   3.344  0.4487 -0.0785 -0.0320
 2001SOL    MW4 8051   1.570   0.739   3.324  0.0256 -0.2675 -0.7386
 2002SOL     OW 8052   1.375   0.884   3.464 -0.2600 -0.3025 -0.9423
 2002SOL    HW2 8053   1.396   0.904   3.555 -0.6841 -1.4460 -0.5808
 2002SOL    HW3 8054   1.375   0.969   3.420  2.2718  0.0351 -0.3890
 2002SOL    MW4 8055   1.378   0.897   3.470  0.0180 -0.4089 -0.8218
 2003SOL     OW 8056   1.373   1.143   3.378 -0.1651  0.3473 -0.1918
 2003SOL    HW2 8057   1.453   1.189   3.404 -0.3290  0.4009  0.2255
 2003SOL    HW3 8058   1.305   1.179   3.435 -0.1770 -0.8216  0.5688
 2003SOL    MW4 8059   1.375   1.154   3.389 -0.1884  0.2003 -0.0365
 2004SOL     OW 8060   1.606   1.263   3.469 -0.3770 -0.5297  0.3372
 2004SOL    HW2 8061   1.628   1.263   3.562  0.2648 -0.0260  0.1862
 2004SOL    HW3 8062   1.667   1.200   3.430 -0.9324 -1.0664  0.3169
 2004SOL    MW4 8063   1.617   1.254   3.476 -0.3656 -0.5341  0.3147
 2005SOL     OW 8064   1.611   1.525   3.354  0.4548 -0.2188 -0.2460
 2005SOL    HW2 8065   1.605   1.436   3.388 -2.9693 -0.6279 -1.6917
 2005SOL    HW3 8066   1.624   1.514   3.260  2.5337  0.8655 -0.1239
 2005SOL    MW4 8067   1.612   1.512   3.346  0.2773 -0.1298 -0.4208
 2006SOL     OW 8068   1.385   1.655   3.406 -0.3357  0.1607 -0.4136
 2006SOL    HW2 8069   1.402   1.651   3.500  0.2082  0.4717 -0.4941
 2006SOL    HW3 8070   1.462   1.613   3.366 -1.1173 -1.0409 -0.6756
 2006SOL    MW4 8071   1.398   1.649   3.413 -0.3670  0.0432 -0.4587
 2007SOL     OW 8072   1.367   1.921   3.357 -0.3162  0.1323 -0.0458
 2007SOL    HW2 8073   1.441   1.953   3.410  0.6825 -0.9249 -0.7776
 2007SOL    HW3 8074   1.370   1.826   3.366 -2.0064  0.1087  0.4419
 2007SOL    MW4 8075   1.377   1.913   3.365 -0.4076 -0.0103 -0.0780
 2008SOL     OW 8076   1.586   2.061   3.488 -0.3593 -0.1733 -0.1238
 2008SOL    HW2 8077   1.646   2.005   3.440 -1.3380 -0.4484 -1.0563
 2008SOL    HW3 8078   1.607   2.150   3.458  0.3891 -0.1460  0.4639
 2008SOL    MW4 8079   1.597   2.065   3.478 -0.3897 -0.2058 -0.1693
 2009SOL     OW 8080   1.599   2.334   3.398 -0.0798  0.6383  0.0846
 2009SOL    HW2 8081   1.530   2.387   3.438 -1.0023 -0.5721  0.1314
 2009SOL    HW3 8082   1.583   2.340   3.304 -0.7205 -0.2383  0.1260
 2009SOL    MW4 8083   1.588   2.342   3.391 -0.2860  0.3629  0.0963
 2010SOL     OW 8084   1.378   2.460   3.501 -0.0964 -0.3783  0.4703
 2010SOL    HW2 8085   1.400   2.466   3.594  0.2403  0.0314  0.3674
 2010SOL    HW3 8086   1.370   2.551   3.472  2.4902 -0.4129 -0.5172
 2010SOL    MW4 8087   1.380   2.472   3.510  0.2893 -0.3288  0.3264
 2011SOL     OW 8088   1.367   2.721   3.396 -0.2075  0.5519  0.0160
 2011SOL    HW2 8089   1.449   2.767   3.414 -0.2177  0.3510  0.5726
 2011SOL    HW3 8090   1.363   2.718   3.300  1.1029 -0.6199 -0.0168
 2011SOL    MW4 8091   1.377   2.727   3.385 -0.0359  0.3710  0.0851
 2012SOL     OW 8092   1.599   2.827   3.469  0.1600 -0.1471 -0.0301
 2012SOL    HW2 8093   1.667   2.768   3.438  1.0619 -0.3549  2.2290
 2012SOL    HW3 8094   1.634   2.915   3.451 -0.3747 -0.2686 -1.7179
 2012SOL    MW4 8095   1.612   2.831   3.463  0.2085 -0.1905  0.0451
 2013SOL     OW 8096   1.618   3.094   3.414 -0.1458  0.6557  0.0068
 2013SOL    HW2 8097   1.691   3.151   3.438  0.2862 -0.6609  1.9300
 2013SOL    HW3 8098   1.541   3.135   3.453  0.1217  0.1377  1.1199
 2013SOL    MW4 8099   1.617   3.107   3.423 -0.0536  0.4134  0.4075
 2014SOL     OW 8100   1.390   3.225   3.517 -0.0101 -0.2388 -0.2948
 2014SOL    HW2 8101   1.394   3.225   3.613  1.2388 -0.4456 -0.3340
 2014SOL    HW3 8102   1.324   3.160   3.495  1.3061 -1.8482  0.3824
 2014SOL    MW4 8103   1.382   3.217   3.527  0.3283 -0.4783 -0.2108
 2015SOL     OW 8104   1.360   3.485   3.414  0.6079  0.0125 -0.2817
 2015SOL    HW2 8105   1.359   3.395   3.446 -0.4966 -0.3086 -1.1773
 2015SOL    HW3 8106   1.279   3.523   3.446  1.1550  0.7403  0.2350
 2015SOL    MW4 8107   1.349   3.478   3.422  0.5342  0.0663 -0.3319
 2016SOL     OW 8108   1.591   3.606   3.502  0.3208 -0.6652  0.1051
 2016SOL    HW2 8109   1.595   3.607   3.598  0.1436  0.0449  0.1083
 2016SOL    HW3 8110   1.504   3.571   3.482 -0.5682  1.3820  0.2381
 2016SOL    MW4 8111   1.580   3.601   3.512  0.1801 -0.3014  0.1233
 2017SOL     OW 8112   1.583   3.875   3.429  0.6574 -0.1528  0.2938
 2017SOL    HW2 8113   1.570   3.786   3.461  1.0984 -0.4306 -0.3104
 2017SOL    HW3 8114   1.597   3.866   3.335 -0.8549  0.6902 -0.0412
 2017SOL    MW4 8115   1.583   3.862   3.421  0.5161 -0.0782  0.1702
 2018SOL     OW 8116   1.342   4.025   3.485  0.1685 -0.1849 -0.2704
 2018SOL    HW2 8117   1.361   4.118   3.483 -0.0581 -0.0699  1.6946
 2018SOL    HW3 8118   1.421   3.984   3.449  0.0728  0.7618 -1.6047
 2018SOL    MW4 8119   1.355   4.032   3.480  0.1260 -0.0453 -0.1872
 2019SOL     OW 8120   1.365   4.287   3.402  0.4282 -0.3125  0.0049
 2019SOL    HW2 8121   1.276   4.311   3.428  0.3613  0.1372 -0.6153
 2019SOL    HW3 8122   1.358   4.269   3.308  0.9906 -0.2664 -0.0459
 2019SOL    MW4 8123   1.352   4.288   3.393  0.4935 -0.2465 -0.0837
 2020SOL     OW 8124   1.627   4.375   3.483  0.0894  0.2445 -0.6679
 2020SOL    HW2 8125   1.698   4.329   3.438  0.1005 -0.4271  0.0225
 2020SOL    HW3 8126   1.547   4.332   3.451  0.1278 -0.6474  0.3977
 2020SOL    MW4 8127   1.626   4.363   3.473  0.0960  0.0381 -0.4363
 2021SOL     OW 8128   2.048   4.633   3.393  0.2551 -0.0541  0.2456
 2021SOL    HW2 8129   2.126   4.683   3.417  0.4936  0.9676 -2.3987
 2021SOL    HW3 8130   1.975   4.688   3.421  0.5215  0.6262 -0.3551
 2021SOL    MW4 8131   2.049   4.647   3.400  0.3221  0.1702 -0.1824
 2022SOL     OW 8132   1.825   0.112   3.464  0.1525  0.1111 -0.1320
 2022SOL    HW2 8133   1.832   0.099   3.558  0.9441 -1.0424 -0.3475
 2022SOL    HW3 8134   1.757   0.051   3.436  0.0813  0.2849 -0.3425
 2022SOL    MW4 8135   1.817   0.102   3.472  0.2475 -0.0181 -0.1881
 2023SOL     OW 8136   1.802   0.369   3.394 -0.4223 -0.9113  0.1792
 2023SOL    HW2 8137   1.790   0.277   3.420  0.5843 -1.0154  0.2944
 2023SOL    HW3 8138   1.822   0.365   3.300  1.6994 -0.9748  0.6205
 2023SOL    MW4 8139   1.803   0.356   3.385 -0.0095 -0.9334  0.2525
 2024SOL     OW 8140   2.029   0.492   3.504  0.2500  0.5064  0.1475
 2024SOL    HW2 8141   2.031   0.578   3.461 -0.0024 -0.2751 -1.4844
 2024SOL    HW3 8142   1.947   0.453   3.474  1.3402 -1.1293 -0.7923
 2024SOL    MW4 8143   2.018   0.498   3.494  0.3605  0.1875 -0.1917
 2025SOL     OW 8144   2.025   0.764   3.391  0.6585  0.5231  0.1405
 2025SOL    HW2 8145   2.111   0.794   3.418  1.2274 -0.0239 -1.0348
 2025SOL    HW3 8146   2.029   0.760   3.295 -0.2460 -0.7212  0.1321
 2025SOL    MW4 8147   2.037   0.767   3.382  0.6139  0.2868 -0.0153
 2026SOL     OW 8148   1.793   0.853   3.467  0.1698  0.1825  0.5871
 2026SOL    HW2 8149   1.880   0.825   3.438 -0.1787 -1.6961  1.2459
 2026SOL    HW3 8150   1.733   0.809   3.406 -0.4768 -2.1698  2.8108
 2026SOL    MW4 8151   1.797   0.843   3.455  0.0385 -0.3757  0.9677
 2027SOL     OW 8152   1.816   1.111   3.333  0.5712 -0.4196 -0.3270
 2027SOL    HW2 8153   1.891   1.162   3.364 -0.9099  1.4780  0.1461
 2027SOL    HW3 8154   1.822   1.029   3.382  2.5985 -0.5056 -0.6375
 2027SOL    MW4 8155   1.827   1.107   3.343  0.6434 -0.1806 -0.3054
 2028SOL     OW 8156   2.043   1.273   3.388  0.2342  0.2125 -0.1813
 2028SOL    HW2 8157   2.064   1.279   3.481 -2.1501  0.2973  0.3712
 2028SOL    HW3 8158   2.013   1.361   3.364 -0.4868 -0.1768 -0.7079
 2028SOL    MW4 8159   2.042   1.286   3.397 -0.1752  0.1724 -0.1781
 2029SOL     OW 8160   2.017   1.528   3.334 -0.0985 -0.0460 -0.1617
 2029SOL    HW2 8161   2.091   1.578   3.368 -0.7492  0.8277 -0.0123
 2029SOL    HW3 8162   1.942   1.559   3.385 -0.5710 -0.9079 -0.3279
 2029SOL    MW4 8163   2.017   1.539   3.345 -0.2468 -0.0445 -0.1638
 2030SOL     OW 8164   1.798   1.657   3.498  0.2701  0.3754 -0.3891
 2030SOL    HW2 8165   1.805   1.737   3.446 -1.0575  0.8061  0.0771
 2030SOL    HW3 8166   1.731   1.605   3.455 -0.8381  0.7332  0.8675
 2030SOL    MW4 8167   1.790   1.661   3.486 -0.0513  0.4793 -0.1619
 2031SOL     OW 8168   1.780   1.910   3.368  0.0820  0.1857 -0.2415
 2031SOL    HW2 8169   1.868   1.943   3.386  0.4989 -0.9549 -0.1279
 2031SOL    HW3 8170   1.775   1.906   3.272  0.4310 -0.4509 -0.2384
 2031SOL    MW4 8171   1.791   1.914   3.357  0.1831 -0.0489 -0.2263
 2032SOL     OW 8172   2.009   2.036   3.452  0.1462 -0.0265  0.3129
 2032SOL    HW2 8173   2.097   2.009   3.425 -0.0310  0.9091 -1.2360
 2032SOL    HW3 8174   1.998   2.123   3.414 -0.8847  0.4944  1.7628
 2032SOL    MW4 8175   2.020   2.044   3.444 -0.0131  0.1659  0.2997
 2033SOL     OW 8176   2.046   2.296   3.377  0.2483  0.2899 -0.1577
 2033SOL    HW2 8177   2.112   2.352   3.418 -0.6795  0.4474  1.1965
 2033SOL    HW3 8178   2.057   2.310   3.283  2.1885  0.2250  0.0362
 2033SOL    MW4 8179   2.056   2.305   3.370  0.3815  0.3023  0.0467
 2034SOL     OW 8180   1.837   2.447   3.469  0.0399 -0.5004  0.2425
 2034SOL    HW2 8181   1.903   2.395   3.423  1.2505  1.2762 -0.0936
 2034SOL    HW3 8182   1.753   2.408   3.442  0.7763 -0.4738 -2.2948
 2034SOL    MW4 8183   1.835   2.435   3.459  0.2968 -0.2625 -0.1366
 2035SOL     OW 8184   1.839   2.713   3.394 -0.0279  0.2202 -0.3033
 2035SOL    HW2 8185   1.907   2.762   3.440  0.5256 -0.0110 -0.8631
 2035SOL    HW3 8186   1.858   2.621   3.414  0.5594  0.0832 -1.4460
 2035SOL    MW4 8187   1.850   2.707   3.402  0.1225  0.1714 -0.5276
 2036SOL     OW 8188   2.045   2.844   3.526 -0.6259 -0.3782 -0.3165
 2036SOL    HW2 8189   2.051   2.828   3.621 -0.2143  0.9641 -0.1171
 2036SOL    HW3 8190   2.076   2.933   3.514 -4.2815  0.8741 -1.2658
 2036SOL    MW4 8191   2.050   2.853   3.537 -1.0540 -0.0360 -0.4153
 2037SOL     OW 8192   2.053   3.092   3.356  0.4184 -0.1135 -0.4226
 2037SOL    HW2 8193   2.133   3.128   3.395  0.1898 -1.0500  0.9567
 2037SOL    HW3 8194   1.982   3.142   3.395  0.2751  0.0109 -0.8461
 2037SOL    MW4 8195   2.054   3.103   3.366  0.3693 -0.2205 -0.2961
 2038SOL     OW 8196   1.854   3.251   3.487 -0.0298  0.0978  0.5797
 2038SOL    HW2 8197   1.849   3.229   3.580  1.4868  0.3608  0.7293
 2038SOL    HW3 8198   1.831   3.344   3.483 -0.9507 -0.1233  0.5816
 2038SOL    MW4 8199   1.850   3.260   3.499  0.0488  0.1035  0.5996
 2039SOL     OW 8200   1.841   3.509   3.422  0.1263  0.1752  0.3155
 2039SOL    HW2 8201   1.755   3.550   3.433 -0.2926 -0.7992  0.6497
 2039SOL    HW3 8202   1.840   3.474   3.334 -0.3988 -1.1815  0.8475
 2039SOL    MW4 8203   1.830   3.510   3.412  0.0017 -0.1323  0.4296
 2040SOL     OW 8204   2.061   3.654   3.516 -0.1694 -0.1907 -0.3398
 2040SOL    HW2 8205   2.139   3.606   3.487  0.4154  1.4243 -1.5047
 2040SOL    HW3 8206   1.988   3.605   3.477  0.3299 -0.9278 -0.3708
 2040SOL    MW4 8207   2.062   3.641   3.507 -0.0265 -0.0746 -0.4976
 2041SOL     OW 8208   2.030   3.884   3.387  0.0737  0.2261  0.1862
 2041SOL    HW2 8209   1.955   3.931   3.423  1.3629  1.5576  1.2182
 2041SOL    HW3 8210   2.037   3.805   3.442 -1.1491 -0.4113 -0.5533
 2041SOL    MW4 8211   2.021   3.879   3.399  0.0825  0.3176  0.2248
 2042SOL     OW 8212   1.802   4.002   3.505 -0.2124 -0.1484  0.4082
 2042SOL    HW2 8213   1.827   3.997   3.597 -2.3486 -1.1102  0.9689
 2042SOL    HW3 8214   1.723   3.947   3.498 -0.1193 -0.0452 -1.9733
 2042SOL    MW4 8215   1.795   3.994   3.516 -0.4821 -0.2615  0.1678
 2043SOL     OW 8216   1.847   4.239   3.374  0.0352  0.1861  0.2438
 2043SOL    HW2 8217   1.819   4.157   3.415  0.2679  0.2027  0.4359
 2043SOL    HW3 8218   1.837   4.223   3.280 -2.0482  0.6974  0.3515
 2043SOL    MW4 8219   1.842   4.226   3.367 -0.2091  0.2556  0.2830
 2044SOL     OW 8220   2.068   4.349   3.471  0.0173 -0.4642  0.2694
 2044SOL    HW2 8221   2.000   4.289   3.439  0.3509 -1.0464  0.6315
 2044SOL    HW3 8222   2.047   4.433   3.432 -1.0935 -0.5763  0.6017
 2044SOL    MW4 8223   2.056   4.352   3.462 -0.0851 -0.5560  0.3610
 2045SOL     OW 8224   2.486   4.633   3.338 -0.4571 -0.2203 -0.0128
 2045SOL    HW2 8225   2.487   4.540   3.362 -2.0355 -0.6350 -1.4862
 2045SOL    HW3 8226   2.489   4.633   3.243  1.0905  1.3026  0.0133
 2045SOL    MW4 8227   2.486   4.621   3.329 -0.4611 -0.0739 -0.2038
 2046SOL     OW 8228   2.285   0.099   3.467  0.5111 -0.0375 -0.0147
 2046SOL    HW2 8229   2.281   0.186   3.426  0.3660  0.4669  1.0506
 2046SOL    HW3 8230   2.352   0.052   3.417  0.8068  0.7916 -0.4076
 2046SOL    MW4 8231   2.294   0.104   3.455  0.5307  0.1385  0.0739
 2047SOL     OW 8232   2.244   0.339   3.368 -0.0178 -0.2022  0.0608
 2047SOL    HW2 8233   2.327   0.379   3.395 -0.1763  2.3226 -2.8358
 2047SOL    HW3 8234   2.178   0.378   3.425  0.4125  0.2274  0.2654
 2047SOL    MW4 8235   2.246   0.350   3.379  0.0181  0.1876 -0.2942
 2048SOL     OW 8236   2.468   0.457   3.496 -0.4261  0.1773  0.3619
 2048SOL    HW2 8237   2.550   0.417   3.468 -1.3840 -1.6086  0.0213
 2048SOL    HW3 8238   2.469   0.545   3.456 -0.1489 -1.0138 -2.4044
 2048SOL    MW4 8239   2.479   0.464   3.487 -0.5159 -0.2154 -0.0477
 2049SOL     OW 8240   2.487   0.698   3.392 -0.2537 -0.1596 -0.2119
 2049SOL    HW2 8241   2.565   0.744   3.424  0.1367 -0.1411 -1.1626
 2049SOL    HW3 8242   2.487   0.715   3.298 -0.6643 -1.2672 -0.4159
 2049SOL    MW4 8243   2.497   0.706   3.384 -0.2563 -0.3033 -0.3643
 2050SOL     OW 8244   2.282   0.885   3.473 -0.0667  0.1104  0.7132
 2050SOL    HW2 8245   2.277   0.967   3.423  0.3542  1.0874  2.2301
 2050SOL    HW3 8246   2.341   0.829   3.422  0.5470  1.1750  0.2299
 2050SOL    MW4 8247   2.289   0.889   3.460  0.0699  0.3797  0.8495
 2051SOL     OW 8248   2.260   1.105   3.335  0.4845  0.0122  0.0717
 2051SOL    HW2 8249   2.329   1.164   3.365  0.4707  1.0552 -1.8471
 2051SOL    HW3 8250   2.179   1.148   3.362  0.4976  0.5098 -0.6619
 2051SOL    MW4 8251   2.258   1.119   3.343  0.4845  0.2156 -0.2782
 2052SOL     OW 8252   2.514   1.249   3.440  0.0624 -0.6461 -0.1444
 2052SOL    HW2 8253   2.514   1.249   3.536 -1.6126 -0.6131 -0.1318
 2052SOL    HW3 8254   2.587   1.192   3.416 -0.0522 -1.3666  1.1621
 2052SOL    MW4 8255   2.524   1.241   3.450 -0.1738 -0.7368  0.0296
 2053SOL     OW 8256   2.441   1.513   3.393  0.0823  0.0653 -0.2924
 2053SOL    HW2 8257   2.468   1.437   3.445  0.2899 -0.1824 -0.7512
 2053SOL    HW3 8258   2.452   1.484   3.302 -1.1067  0.1921 -0.4870
 2053SOL    MW4 8259   2.446   1.499   3.388 -0.0472  0.0494 -0.3786
 2054SOL     OW 8260   2.233   1.676   3.441  0.0925  0.0899  0.7306
 2054SOL    HW2 8261   2.217   1.679   3.535  0.8751  0.8866  0.8494
 2054SOL    HW3 8262   2.317   1.630   3.432 -0.2671 -0.5105  0.3789
 2054SOL    MW4 8263   2.242   1.670   3.452  0.1481  0.1158  0.6998
 2055SOL     OW 8264   2.265   1.941   3.360  0.2354  0.4295  0.1173
 2055SOL    HW2 8265   2.263   1.851   3.392 -1.9719  0.7067  0.8690
 2055SOL    HW3 8266   2.262   1.932   3.265  1.1545 -0.2974  0.1441
 2055SOL    MW4 8267   2.264   1.928   3.351  0.0651  0.3701  0.2198
 2056SOL     OW 8268   2.494   2.083   3.436 -0.1392  0.1261  0.1114
 2056SOL    HW2 8269   2.502   2.067   3.530 -1.3118  1.4809  0.4483
 2056SOL    HW3 8270   2.412   2.039   3.411 -0.8577  1.4525  0.1124
 2056SOL    MW4 8271   2.484   2.075   3.445 -0.3886  0.4797  0.1562
 2057SOL     OW 8272   2.518   2.356   3.363 -0.8252  0.0310 -0.2308
 2057SOL    HW2 8273   2.586   2.394   3.419 -0.6453  0.3957 -0.6889
 2057SOL    HW3 8274   2.526   2.262   3.377 -0.5274  0.0955  0.0642
 2057SOL    MW4 8275   2.528   2.349   3.372 -0.7622  0.0877 -0.2522
 2058SOL     OW 8276   2.270   2.435   3.465 -0.1735  0.7010  0.0887
 2058SOL    HW2 8277   2.275   2.530   3.461  1.8455  0.6412  0.5420
 2058SOL    HW3 8278   2.345   2.405   3.413 -2.2004 -0.6901 -2.1498
 2058SOL    MW4 8279   2.281   2.443   3.458 -0.1745  0.5093 -0.1466
 2059SOL     OW 8280   2.258   2.711   3.433 -0.0657 -0.3221 -0.1662
 2059SOL    HW2 8281   2.181   2.761   3.459  0.6769  1.1109 -0.6669
 2059SOL    HW3 8282   2.260   2.717   3.337  1.3593  0.7306 -0.0923
 2059SOL    MW4 8283   2.248   2.718   3.424  0.2205  0.0057 -0.2224
 2060SOL     OW 8284   2.488   2.858   3.483  0.2570 -0.2192  0.0218
 2060SOL    HW2 8285   2.482   2.938   3.431 -0.6284  0.0788  0.5798
 2060SOL    HW3 8286   2.403   2.815   3.469  0.6521 -0.9631 -0.1134
 2060SOL    MW4 8287   2.476   2.863   3.474  0.1924 -0.2780  0.0777
 2061SOL     OW 8288   2.512   3.119   3.345 -0.3838 -0.0572  0.0587
 2061SOL    HW2 8289   2.596   3.159   3.365  1.1738 -2.7340 -0.8529
 2061SOL    HW3 8290   2.508   3.115   3.249 -1.0654 -0.8662  0.1063
 2061SOL    MW4 8291   2.523   3.124   3.335 -0.2680 -0.5171 -0.0553
 2062SOL     OW 8292   2.269   3.207   3.464  0.5325  0.3593  0.2964
 2062SOL    HW2 8293   2.284   3.203   3.559  1.0145 -1.7708  0.1468
 2062SOL    HW3 8294   2.354   3.186   3.425  0.3260  1.1987 -0.6291
 2062SOL    MW4 8295   2.282   3.204   3.472  0.5689  0.1891  0.1545
 2063SOL     OW 8296   2.288   3.485   3.438 -0.0781 -0.2293  0.0665
 2063SOL    HW2 8297   2.274   3.393   3.462 -0.4425 -0.1806  0.0329
 2063SOL    HW3 8298   2.299   3.484   3.343 -0.4749 -0.1900  0.0186
 2063SOL    MW4 8299   2.288   3.473   3.429 -0.1783 -0.2179  0.0560
 2064SOL     OW 8300   2.541   3.557   3.510 -0.0012 -0.3700  0.0371
 2064SOL    HW2 8301   2.544   3.651   3.492 -0.4724 -0.1809  0.8909
 2064SOL    HW3 8302   2.449   3.533   3.498  0.4203 -1.0999 -1.9444
 2064SOL    MW4 8303   2.529   3.566   3.506 -0.0076 -0.4416 -0.1113
 2065SOL     OW 8304   2.539   3.822   3.429 -0.3183  0.0421 -0.4651
 2065SOL    HW2 8305   2.605   3.868   3.482 -0.2849 -1.4388  0.8157
 2065SOL    HW3 8306   2.460   3.876   3.437  0.1029  0.6170 -0.1351
 2065SOL    MW4 8307   2.537   3.835   3.437 -0.2587 -0.0777 -0.2530
 2066SOL     OW 8308   2.323   3.982   3.440 -0.1822  0.4020 -0.1168
 2066SOL    HW2 8309   2.354   4.064   3.401  0.0149  0.7548  0.7552
 2066SOL    HW3 8310   2.233   3.973   3.408 -0.2819  1.0831 -0.0461
 2066SOL    MW4 8311   2.315   3.992   3.431 -0.1695  0.5383  0.0076
 2067SOL     OW 8312   2.297   4.237   3.364 -0.4393 -0.4465  0.4000
 2067SOL    HW2 8313   2.224   4.275   3.412  0.6025  0.2838  1.4436
 2067SOL    HW3 8314   2.273   4.247   3.272 -1.1966  0.6811  0.7117
 2067SOL    MW4 8315   2.284   4.243   3.358 -0.4017 -0.2012  0.5789
 2068SOL     OW 8316   2.512   4.385   3.463 -0.1752 -0.2405  0.5675
 2068SOL    HW2 8317   2.512   4.386   3.559 -1.5106  2.4228  0.5899
 2068SOL    HW3 8318   2.427   4.347   3.440  0.1405 -0.8700  0.4167
 2068SOL    MW4 8319   2.501   4.380   3.473 -0.3097  0.0277  0.5507
 2069SOL     OW 8320   2.955   4.655   3.401 -0.0307  0.2957  0.3005
 2069SOL    HW2 8321   2.869   4.666   3.442 -0.2142 -0.1048  0.0233
 2069SOL    HW3 8322   2.941   4.682   3.310 -0.3348 -1.5953 -0.2385
 2069SOL    MW4 8323   2.941   4.660   3.394 -0.0949 -0.0067  0.1929
 2070SOL     OW 8324   2.714   0.063   3.479  0.0179 -0.5118 -0.4755
 2070SOL    HW2 8325   2.710   0.156   3.457 -0.1055 -0.5301 -0.5320
 2070SOL    HW3 8326   2.641   0.024   3.431  0.4159 -0.7273 -0.9039
 2070SOL    MW4 8327   2.704   0.070   3.470  0.0541 -0.5427 -0.5393
 2071SOL     OW 8328   2.694   0.327   3.397  0.0443 -0.0925  0.1227
 2071SOL    HW2 8329   2.761   0.387   3.431 -0.9709  1.2365 -0.1563
 2071SOL    HW3 8330   2.697   0.339   3.302 -1.9814  1.5545  0.2266
 2071SOL    MW4 8331   2.703   0.337   3.389 -0.3567  0.3001  0.0997
 2072SOL     OW 8332   2.913   0.475   3.502  0.5166 -0.0404  0.1263
 2072SOL    HW2 8333   2.922   0.467   3.597  0.8657  0.5356  0.1413
 2072SOL    HW3 8334   2.933   0.567   3.484 -2.4665  0.5983 -0.1554
 2072SOL    MW4 8335   2.917   0.486   3.512  0.1690  0.1199  0.0911
 2073SOL     OW 8336   2.936   0.738   3.384  0.4769 -0.6271 -0.3424
 2073SOL    HW2 8337   3.009   0.790   3.417  0.1875 -0.7327  0.4577
 2073SOL    HW3 8338   2.858   0.779   3.421  0.1566 -0.8101 -0.8078
 2073SOL    MW4 8339   2.935   0.750   3.393  0.3965 -0.6652 -0.2980
 2074SOL     OW 8340   2.698   0.812   3.503  0.1467 -0.3024 -0.2224
 2074SOL    HW2 8341   2.693   0.813   3.599  0.6718 -2.2766 -0.1440
 2074SOL    HW3 8342   2.689   0.903   3.477  1.3295  0.4168  1.7854
 2074SOL    MW4 8343   2.696   0.824   3.512  0.3719 -0.4680  0.0529
 2075SOL     OW 8344   2.718   1.061   3.412  0.0779  0.3369  0.1470
 2075SOL    HW2 8345   2.789   1.122   3.432 -0.6926  1.4788 -0.5338
 2075SOL    HW3 8346   2.715   1.059   3.316  0.0792 -0.7448  0.1704
 2075SOL    MW4 8347   2.727   1.069   3.402 -0.0236  0.3448  0.0601
 2076SOL     OW 8348   2.919   1.261   3.438 -0.1129 -0.3391 -0.1080
 2076SOL    HW2 8349   2.921   1.253   3.533  1.8871  0.8251 -0.0001
 2076SOL    HW3 8350   3.002   1.222   3.409 -0.4230 -0.1250 -1.3197
 2076SOL    MW4 8351   2.931   1.255   3.447  0.1099 -0.1574 -0.2534
 2077SOL     OW 8352   2.903   1.560   3.386 -0.4162  0.1245 -0.1897
 2077SOL    HW2 8353   2.815   1.590   3.410  0.3216 -0.0453  2.8828
 2077SOL    HW3 8354   2.903   1.467   3.410  0.8213  0.2898  0.4623
 2077SOL    MW4 8355   2.891   1.551   3.393 -0.1554  0.1239  0.3018
 2078SOL     OW 8356   2.679   1.647   3.478 -0.3362  0.2901 -0.0739
 2078SOL    HW2 8357   2.677   1.736   3.442 -1.3483  0.2083 -0.2439
 2078SOL    HW3 8358   2.591   1.613   3.460  0.6437 -1.4171 -1.7054
 2078SOL    MW4 8359   2.667   1.655   3.471 -0.3405  0.0540 -0.3116
 2079SOL     OW 8360   2.700   1.906   3.379 -0.2667 -0.1479 -0.1225
 2079SOL    HW2 8361   2.629   1.965   3.405  0.6177  0.6372  0.5908
 2079SOL    HW3 8362   2.720   1.931   3.289 -0.0208  0.5343  0.1160
 2079SOL    MW4 8363   2.693   1.917   3.370 -0.1175  0.0457  0.0031
 2080SOL     OW 8364   2.879   2.072   3.489 -0.2711 -0.1261 -0.5123
 2080SOL    HW2 8365   2.894   2.067   3.583  2.1938 -1.4081 -0.9389
 2080SOL    HW3 8366   2.814   2.003   3.472 -0.8777  0.2477  0.2587
 2080SOL    MW4 8367   2.872   2.062   3.499 -0.0262 -0.2460 -0.4668
 2081SOL     OW 8368   2.932   2.332   3.395  0.3531 -0.5365 -0.1055
 2081SOL    HW2 8369   2.904   2.244   3.418 -0.6985 -0.3224 -0.5270
 2081SOL    HW3 8370   2.950   2.328   3.301 -2.3532  0.3420 -0.7118
 2081SOL    MW4 8371   2.930   2.320   3.386 -0.1423 -0.3924 -0.2410
 2082SOL     OW 8372   2.704   2.490   3.485 -0.2467 -0.6401 -0.5304
 2082SOL    HW2 8373   2.704   2.478   3.580 -0.1692  0.5758 -0.3675
 2082SOL    HW3 8374   2.769   2.427   3.453  0.7847 -0.0453  0.3660
 2082SOL    MW4 8375   2.713   2.480   3.494 -0.1004 -0.4013 -0.3908
 2083SOL     OW 8376   2.717   2.752   3.385  0.3222  0.3628  0.3551
 2083SOL    HW2 8377   2.719   2.668   3.431 -0.6442 -1.2652 -2.4762
 2083SOL    HW3 8378   2.632   2.790   3.408 -1.0574 -1.4015 -1.6563
 2083SOL    MW4 8379   2.706   2.746   3.394  0.0129 -0.0849 -0.2840
 2084SOL     OW 8380   2.965   2.802   3.494  0.1361  0.2414 -0.3750
 2084SOL    HW2 8381   2.956   2.794   3.589 -1.2214  1.4673 -0.3753
 2084SOL    HW3 8382   2.878   2.780   3.460  0.6001 -0.1354 -1.3239
 2084SOL    MW4 8383   2.952   2.798   3.502  0.0184  0.3533 -0.5000
 2085SOL     OW 8384   2.957   3.070   3.426 -0.5209 -0.3088 -0.2605
 2085SOL    HW2 8385   2.962   2.978   3.451  2.7942  0.1513  1.0478
 2085SOL    HW3 8386   2.941   3.070   3.332  0.0302 -2.2395 -0.3599
 2085SOL    MW4 8387   2.956   3.058   3.417 -0.0105 -0.5031 -0.1011
 2086SOL     OW 8388   2.729   3.210   3.491  0.5488 -0.6271  0.5414
 2086SOL    HW2 8389   2.718   3.220   3.586  1.8569 -0.3399  0.6740
 2086SOL    HW3 8390   2.813   3.164   3.481  0.9740  0.3409 -0.4997
 2086SOL    MW4 8391   2.739   3.205   3.502  0.7777 -0.4616  0.4213
 2087SOL     OW 8392   2.749   3.452   3.341 -0.0017 -0.3494 -0.2767
 2087SOL    HW2 8393   2.758   3.368   3.386  1.8535 -0.1086 -0.1844
 2087SOL    HW3 8394   2.681   3.498   3.390  0.2919 -1.0529  0.8069
 2087SOL    MW4 8395   2.741   3.447   3.353  0.2816 -0.4103 -0.1216
 2088SOL     OW 8396   2.970   3.575   3.492  0.2800 -0.3876  0.0968
 2088SOL    HW2 8397   2.939   3.660   3.463  0.0411 -0.3938  0.3364
 2088SOL    HW3 8398   2.915   3.512   3.445  0.3912 -0.4074 -0.0060
 2088SOL    MW4 8399   2.959   3.578   3.482  0.2630 -0.3910  0.1147
 2089SOL     OW 8400   2.925   3.830   3.391  0.2849 -0.2923  0.0065
 2089SOL    HW2 8401   3.000   3.868   3.436  0.6443  0.2217 -1.0218
 2089SOL    HW3 8402   2.851   3.882   3.419  0.3194 -0.7353  0.9460
 2089SOL    MW4 8403   2.925   3.842   3.401  0.3371 -0.2830 -0.0052
 2090SOL     OW 8404   2.747   3.990   3.531  0.0944  0.4409  0.0022
 2090SOL    HW2 8405   2.745   4.019   3.622  1.5853  0.5033  0.0350
 2090SOL    HW3 8406   2.735   4.071   3.480 -0.3377  0.4613  0.1340
 2090SOL    MW4 8407   2.745   4.005   3.536  0.2341  0.4516  0.0241
 2091SOL     OW 8408   2.713   4.230   3.379 -0.3453 -0.4138  0.4744
 2091SOL    HW2 8409   2.788   4.272   3.420 -0.6935  0.1681  0.5227
 2091SOL    HW3 8410   2.637   4.275   3.415 -0.6705 -0.1272 -0.5388
 2091SOL    MW4 8411   2.713   4.241   3.389 -0.4342 -0.2990  0.3471
 2092SOL     OW 8412   2.931   4.384   3.455  0.0620 -0.2648  0.1115
 2092SOL    HW2 8413   2.972   4.397   3.540  0.8419  0.6831 -0.4017
 2092SOL    HW3 8414   2.928   4.472   3.416  0.0040 -0.7403 -0.9727
 2092SOL    MW4 8415   2.936   4.398   3.461  0.1574 -0.2027 -0.0994
 2093SOL     OW 8416   3.375   4.651   3.380 -0.0837 -0.3449  0.0087
 2093SOL    HW2 8417   3.308   4.700   3.427  0.4122  0.0359  0.3317
 2093SOL    HW3 8418   3.339   4.638   3.292  0.1464  1.4193 -0.3788
 2093SOL    MW4 8419   3.361   4.656   3.374  0.0119 -0.0615  0.0000
 2094SOL     OW 8420   3.184   0.101   3.533  0.3314 -0.5237 -0.2959
 2094SOL    HW2 8421   3.177   0.191   3.502  0.1464 -0.4540 -0.0600
 2094SOL    HW3 8422   3.113   0.055   3.489  0.2105 -0.4755 -0.1535
 2094SOL    MW4 8423   3.174   0.107   3.523  0.2909 -0.5081 -0.2458
 2095SOL     OW 8424   3.143   0.352   3.418 -0.4769  0.5426  0.3641
 2095SOL    HW2 8425   3.066   0.405   3.439 -0.9544  0.2958 -0.7237
 2095SOL    HW3 8426   3.166   0.378   3.329  0.1445 -0.0544  0.3474
 2095SOL    MW4 8427   3.135   0.363   3.409 -0.4582  0.4312  0.2184
 2096SOL     OW 8428   3.339   0.526   3.507  0.0446 -0.5217 -0.0316
 2096SOL    HW2 8429   3.381   0.503   3.590 -0.3625  1.8801  0.8990
 2096SOL    HW3 8430   3.268   0.463   3.498  0.8968 -1.6144  0.7932
 2096SOL    MW4 8431   3.335   0.515   3.517  0.1035 -0.3490  0.2000
 2097SOL     OW 8432   3.355   0.759   3.359  0.2236 -0.1870  0.3766
 2097SOL    HW2 8433   3.441   0.794   3.383  0.4786 -0.5488 -0.0034
 2097SOL    HW3 8434   3.354   0.671   3.399  0.7032 -0.8523 -1.0342
 2097SOL    MW4 8435   3.366   0.752   3.368  0.3204 -0.3225  0.1402
 2098SOL     OW 8436   3.147   0.896   3.474 -0.0003  0.0031  0.2147
 2098SOL    HW2 8437   3.153   0.986   3.442 -1.3776 -0.3758 -1.1539
 2098SOL    HW3 8438   3.215   0.848   3.427  0.1172  0.1207  0.2636
 2098SOL    MW4 8439   3.157   0.901   3.464 -0.1664 -0.0314  0.0405
 2099SOL     OW 8440   3.165   1.147   3.367  0.0455  0.2181  0.2389
 2099SOL    HW2 8441   3.249   1.182   3.399  0.2480  1.1753 -1.3090
 2099SOL    HW3 8442   3.181   1.126   3.275 -0.5928 -2.3597  0.6801
 2099SOL    MW4 8443   3.178   1.149   3.359 -0.0119  0.0042  0.0925
 2100SOL     OW 8444   3.380   1.250   3.485 -0.0227 -0.2987  0.1466
 2100SOL    HW2 8445   3.472   1.235   3.462 -0.4153 -0.6066 -1.2725
 2100SOL    HW3 8446   3.354   1.326   3.433 -1.1868 -1.5632 -1.1493
 2100SOL    MW4 8447   3.388   1.258   3.475 -0.2282 -0.5063 -0.2117
 2101SOL     OW 8448   3.397   1.520   3.378  0.5304 -0.4201 -0.1466
 2101SOL    HW2 8449   3.471   1.565   3.418  1.4013 -0.7202 -1.3848
 2101SOL    HW3 8450   3.322   1.577   3.397  1.0605 -0.1598  1.1892
 2101SOL    MW4 8451   3.397   1.534   3.386  0.7153 -0.4255 -0.1335
 2102SOL     OW 8452   3.159   1.674   3.421  0.1367  0.0630 -0.2435
 2102SOL    HW2 8453   3.154   1.768   3.404  0.6310  0.2741  0.7491
 2102SOL    HW3 8454   3.073   1.640   3.396  0.1507  0.6790 -1.1650
 2102SOL    MW4 8455   3.147   1.682   3.415  0.2038  0.1721 -0.2339
 2103SOL     OW 8456   3.119   1.954   3.393 -0.1028  0.3211 -0.0307
 2103SOL    HW2 8457   3.040   1.998   3.424 -0.2936  0.5496 -0.8490
 2103SOL    HW3 8458   3.121   1.970   3.299  0.4182 -0.4784 -0.1620
 2103SOL    MW4 8459   3.109   1.962   3.385 -0.0591  0.2458 -0.1562
 2104SOL     OW 8460   3.380   2.034   3.497  0.5555 -0.0729  0.1560
 2104SOL    HW2 8461   3.388   2.127   3.480 -0.5445  0.1298  0.7269
 2104SOL    HW3 8462   3.289   2.013   3.476  0.6161 -0.8779  0.6679
 2104SOL    MW4 8463   3.369   2.043   3.492  0.4182 -0.1523  0.2987
 2105SOL     OW 8464   3.348   2.310   3.436  0.1738  0.5993 -0.4049
 2105SOL    HW2 8465   3.423   2.358   3.471 -0.0328 -0.0583  0.9816
 2105SOL    HW3 8466   3.272   2.363   3.460  0.0367  0.1926  0.0615
 2105SOL    MW4 8467   3.347   2.324   3.444  0.1283  0.4590 -0.1602
 2106SOL     OW 8468   3.150   2.456   3.523  0.2014  0.4727 -0.2104
 2106SOL    HW2 8469   3.160   2.533   3.468  1.3204  0.0599 -0.6117
 2106SOL    HW3 8470   3.087   2.401   3.476  0.1634  0.6994 -0.4278
 2106SOL    MW4 8471   3.143   2.459   3.510  0.3440  0.4482 -0.2923
 2107SOL     OW 8472   3.205   2.688   3.366 -0.2511 -0.0066 -0.0768
 2107SOL    HW2 8473   3.282   2.707   3.420 -0.4651 -0.8611  0.5400
 2107SOL    HW3 8474   3.134   2.736   3.409 -0.3515 -0.4046  0.2049
 2107SOL    MW4 8475   3.205   2.697   3.379 -0.2928 -0.1721  0.0417
 2108SOL     OW 8476   3.409   2.781   3.559  0.3909 -0.2442 -0.3335
 2108SOL    HW2 8477   3.492   2.747   3.528  0.3541 -1.8356  1.2268
 2108SOL    HW3 8478   3.394   2.860   3.507  2.7848 -0.0169 -0.7218
 2108SOL    MW4 8479   3.418   2.787   3.548  0.7019 -0.4241 -0.1786
 2109SOL     OW 8480   3.386   3.045   3.395  0.1199 -0.0126  0.4530
 2109SOL    HW2 8481   3.461   3.095   3.427  0.9462 -2.3922  2.3719
 2109SOL    HW3 8482   3.310   3.090   3.433  0.6856  1.2458  0.1102
 2109SOL    MW4 8483   3.386   3.058   3.404  0.3037 -0.1605  0.6611
 2110SOL     OW 8484   3.193   3.208   3.522  0.0778  0.8538  0.0802
 2110SOL    HW2 8485   3.179   3.298   3.491 -0.7663  1.1832  1.3545
 2110SOL    HW3 8486   3.115   3.160   3.496 -0.8411  1.2417  2.0176
 2110SOL    MW4 8487   3.181   3.214   3.515 -0.1547  0.9487  0.5040
 2111SOL     OW 8488   3.203   3.461   3.404 -0.0819  0.1296  0.2993
 2111SOL    HW2 8489   3.128   3.518   3.421 -0.8796 -1.2695  1.6271
 2111SOL    HW3 8490   3.206   3.452   3.309 -0.3833  1.7818  0.1195
 2111SOL    MW4 8491   3.194   3.468   3.394 -0.2270  0.1633  0.4508
 2112SOL     OW 8492   3.408   3.631   3.523  0.0789  0.4033 -0.6018
 2112SOL    HW2 8493   3.406   3.711   3.471 -1.0962  0.9750  0.3012
 2112SOL    HW3 8494   3.339   3.576   3.486 -0.4723  0.6355  0.0834
 2112SOL    MW4 8495   3.399   3.634   3.511 -0.1488  0.5093 -0.3922
 2113SOL     OW 8496   3.368   3.861   3.380  0.1369  0.4631  0.4112
 2113SOL    HW2 8497   3.444   3.910   3.410  0.3141  0.5092 -0.1130
 2113SOL    HW3 8498   3.294   3.901   3.426  0.6700 -1.0541  2.7062
 2113SOL    MW4 8499   3.368   3.873   3.390  0.2308  0.2689  0.6449
 2114SOL     OW 8500   3.147   3.951   3.516  0.1297 -0.2733  0.8187
 2114SOL    HW2 8501   3.172   3.962   3.607  2.6980 -0.9970  0.2384
 2114SOL    HW3 8502   3.149   4.039   3.479 -1.2343  0.0596  1.5165
 2114SOL    MW4 8503   3.151   3.964   3.523  0.2887 -0.3250  0.8342
 2115SOL     OW 8504   3.168   4.225   3.409 -0.4829  0.1996 -0.1149
 2115SOL    HW2 8505   3.249   4.253   3.451 -0.3619 -1.1503  0.5837
 2115SOL    HW3 8506   3.105   4.293   3.432  0.3055  0.9640 -0.1809
 2115SOL    MW4 8507   3.170   4.238   3.418 -0.3629  0.1225 -0.0315
 2116SOL     OW 8508   3.373   4.401   3.540  0.5342 -0.3493  0.0695
 2116SOL    HW2 8509   3.385   4.429   3.631  0.8579 -0.9221  0.2097
 2116SOL    HW3 8510   3.363   4.482   3.490  0.0372 -0.0394  0.6614
 2116SOL    MW4 8511   3.373   4.415   3.546  0.5114 -0.3843  0.1659
 2117SOL     OW 8512   3.824   4.656   3.401 -0.2644  0.1314 -0.5179
 2117SOL    HW2 8513   3.744   4.700   3.431 -0.5693 -0.4325 -0.4949
 2117SOL    HW3 8514   3.819   4.661   3.306 -0.4117 -0.0413 -0.5210
 2117SOL    MW4 8515   3.813   4.662   3.392 -0.3245  0.0339 -0.5152
 2118SOL     OW 8516   3.589   0.110   3.495 -0.0558  0.0556 -0.3794
 2118SOL    HW2 8517   3.574   0.204   3.482 -1.6438 -0.3181 -1.4376
 2118SOL    HW3 8518   3.518   0.068   3.447  0.8392 -1.7053 -0.1955
 2118SOL    MW4 8519   3.578   0.117   3.487 -0.1471 -0.2260 -0.4947
 2119SOL     OW 8520   3.553   0.375   3.404 -0.0195  0.1775 -0.2093
 2119SOL    HW2 8521   3.632   0.416   3.438  0.4952  0.5574 -1.7872
 2119SOL    HW3 8522   3.481   0.430   3.435  0.6214  2.0233 -1.8573
 2119SOL    MW4 8523   3.554   0.387   3.412  0.1330  0.4711 -0.6349
 2120SOL     OW 8524   3.780   0.494   3.522 -0.1729  0.0908  0.1982
 2120SOL    HW2 8525   3.786   0.501   3.617  0.6939 -1.1068  0.2396
 2120SOL    HW3 8526   3.853   0.438   3.497  1.0437  2.3123 -1.4365
 2120SOL    MW4 8527   3.790   0.488   3.531  0.1018  0.2258 -0.0122
 2121SOL     OW 8528   3.838   0.733   3.392  0.0452  0.3806 -0.3871
 2121SOL    HW2 8529   3.916   0.760   3.440 -0.4475  0.8478  0.1510
 2121SOL    HW3 8530   3.815   0.648   3.429 -0.8161  1.1166  0.7799
 2121SOL    MW4 8531   3.845   0.725   3.403 -0.1333  0.5393 -0.1619
 2122SOL     OW 8532   3.597   0.878   3.463  0.4074  0.0373  0.4677
 2122SOL    HW2 8533   3.594   0.878   3.558 -0.4462 -0.8299  0.4470
 2122SOL    HW3 8534   3.677   0.830   3.441 -0.0330 -0.8154  0.7322
 2122SOL    MW4 8535   3.607   0.872   3.472  0.2370 -0.1896  0.4997
 2123SOL     OW 8536   3.635   1.152   3.398  0.2666 -0.2452  0.2759
 2123SOL    HW2 8537   3.619   1.061   3.423 -1.0201  0.0542  0.6143
 2123SOL    HW3 8538   3.620   1.155   3.304 -0.0770 -0.3132  0.3272
 2123SOL    MW4 8539   3.631   1.141   3.389  0.0515 -0.2148  0.3271
 2124SOL     OW 8540   3.884   1.296   3.436 -0.0835  0.2427 -0.0371
 2124SOL    HW2 8541   3.880   1.307   3.531  1.8520  0.4935  0.0429
 2124SOL    HW3 8542   3.803   1.251   3.414 -0.6665  0.3690  1.6991
 2124SOL    MW4 8543   3.873   1.292   3.446  0.0951  0.2923  0.2027
 2125SOL     OW 8544   3.852   1.564   3.369 -0.2339 -0.3165  0.0679
 2125SOL    HW2 8545   3.911   1.595   3.438 -0.8060  0.5928  0.1637
 2125SOL    HW3 8546   3.842   1.471   3.386  0.6571 -0.3556  0.4396
 2125SOL    MW4 8547   3.859   1.556   3.380 -0.1919 -0.2017  0.1297
 2126SOL     OW 8548   3.617   1.653   3.472  0.3054 -0.0362  0.1749
 2126SOL    HW2 8549   3.612   1.745   3.446 -1.7290  0.3948  1.9300
 2126SOL    HW3 8550   3.695   1.620   3.428  0.0679  2.0641 -1.9108
 2126SOL    MW4 8551   3.627   1.661   3.463  0.0057  0.2978  0.1311
 2127SOL     OW 8552   3.609   1.931   3.380 -0.0857  0.0264  0.1089
 2127SOL    HW2 8553   3.683   1.983   3.408 -0.8892  1.6921 -0.8070
 2127SOL    HW3 8554   3.536   1.961   3.434 -0.2182 -1.2379  0.6531
 2127SOL    MW4 8555   3.609   1.941   3.391 -0.2093  0.0795  0.0598
 2128SOL     OW 8556   3.812   2.073   3.483  0.3340 -0.0303 -0.5003
 2128SOL    HW2 8557   3.814   2.068   3.579 -1.0078 -1.4603 -0.5319
 2128SOL    HW3 8558   3.882   2.016   3.454  0.3207 -0.1045 -0.3868
 2128SOL    MW4 8559   3.821   2.065   3.492  0.1552 -0.2289 -0.4895
 2129SOL     OW 8560   3.875   2.349   3.427  0.3299  0.1499  0.0629
 2129SOL    HW2 8561   3.966   2.358   3.455  0.4137 -0.8408  0.1358
 2129SOL    HW3 8562   3.854   2.257   3.444 -0.1037 -0.0875 -1.6448
 2129SOL    MW4 8563   3.884   2.338   3.433  0.2840 -0.0124 -0.1531
 2130SOL     OW 8564   3.608   2.438   3.492  0.0981  0.3942 -0.5296
 2130SOL    HW2 8565   3.616   2.530   3.467  0.8087 -0.0130 -1.8443
 2130SOL    HW3 8566   3.696   2.403   3.480  0.0292 -0.2573  0.8163
 2130SOL    MW4 8567   3.620   2.446   3.487  0.1826  0.2544 -0.5255
 2131SOL     OW 8568   3.629   2.690   3.430 -0.1356 -0.3983 -0.1591
 2131SOL    HW2 8569   3.703   2.748   3.448 -0.5689 -0.0482  0.4678
 2131SOL    HW3 8570   3.623   2.688   3.334  1.6024 -1.5742 -0.2751
 2131SOL    MW4 8571   3.638   2.697   3.420  0.0365 -0.5071 -0.0918
 2132SOL     OW 8572   3.860   2.829   3.485 -0.3986  0.0401 -0.4799
 2132SOL    HW2 8573   3.864   2.845   3.579  1.7229 -2.1793 -0.1425
 2132SOL    HW3 8574   3.864   2.916   3.446  0.0316  0.9160  1.4536
 2132SOL    MW4 8575   3.861   2.843   3.492 -0.0620 -0.1371 -0.1802
 2133SOL     OW 8576   3.838   3.091   3.378 -0.4061 -0.3171  0.3277
 2133SOL    HW2 8577   3.908   3.149   3.409 -0.5584  0.1534 -0.1968
 2133SOL    HW3 8578   3.845   3.096   3.282 -1.0196 -0.4412  0.2789
 2133SOL    MW4 8579   3.848   3.099   3.369 -0.5069 -0.2711  0.2522
 2134SOL     OW 8580   3.597   3.220   3.469  0.2460  0.0042 -0.0607
 2134SOL    HW2 8581   3.610   3.315   3.459 -0.6636 -0.0092 -1.6272
 2134SOL    HW3 8582   3.679   3.181   3.440  1.4530  0.3824  2.7601
 2134SOL    MW4 8583   3.609   3.228   3.464  0.2854  0.0522  0.1049
 2135SOL     OW 8584   3.630   3.487   3.450 -0.0505  0.2381  0.2563
 2135SOL    HW2 8585   3.548   3.529   3.475 -0.5426 -0.8445  0.4845
 2135SOL    HW3 8586   3.623   3.474   3.355 -0.7077 -1.0611  0.4815
 2135SOL    MW4 8587   3.618   3.491   3.441 -0.2019 -0.0761  0.3161
 2136SOL     OW 8588   3.856   3.621   3.522  0.1943 -0.1337 -0.1531
 2136SOL    HW2 8589   3.871   3.612   3.616  0.3982 -0.9209 -0.2616
 2136SOL    HW3 8590   3.775   3.573   3.505 -0.6681  1.2904 -0.1283
 2136SOL    MW4 8591   3.847   3.614   3.532  0.1075 -0.0498 -0.1643
 2137SOL     OW 8592   3.802   3.879   3.428 -0.4740 -0.5035 -0.2270
 2137SOL    HW2 8593   3.712   3.899   3.455  0.0089  0.6123  0.6114
 2137SOL    HW3 8594   3.818   3.790   3.460 -1.7913 -1.2912 -1.7255
 2137SOL    MW4 8595   3.792   3.870   3.436 -0.5841 -0.4601 -0.3140
 2138SOL     OW 8596   3.557   4.012   3.522  0.1036  0.1121 -0.0273
 2138SOL    HW2 8597   3.583   4.011   3.614  1.0287 -0.7623 -0.2861
 2138SOL    HW3 8598   3.579   4.100   3.492  0.8382  0.0535  0.3110
 2138SOL    MW4 8599   3.563   4.024   3.530  0.3223 -0.0105 -0.0167
 2139SOL     OW 8600   3.590   4.264   3.416  0.2775 -0.1876  0.0546
 2139SOL    HW2 8601   3.510   4.306   3.446  0.6535 -0.0797  0.9295
 2139SOL    HW3 8602   3.583   4.264   3.321 -0.3505  0.6263  0.0921
 2139SOL    MW4 8603   3.578   4.270   3.408  0.2441 -0.0658  0.1750
 2140SOL     OW 8604   3.819   4.409   3.538  0.1802 -0.0070  0.9539
 2140SOL    HW2 8605   3.739   4.363   3.511 -0.3740  0.2031  2.2004
 2140SOL    HW3 8606   3.828   4.479   3.474 -1.2957  0.6916  1.4797
 2140SOL    MW4 8607   3.809   4.412   3.526 -0.0875  0.1125  1.1876
 2141SOL     OW 8608   4.291   4.634   3.398  0.1029 -0.3250 -0.0478
 2141SOL    HW2 8609   4.291   4.547   3.439  1.3237 -0.5310 -0.4546
 2141SOL    HW3 8610   4.367   4.678   3.436  0.6319 -0.1465 -1.2730
 2141SOL    MW4 8611   4.301   4.628   3.408  0.3333 -0.3290 -0.2630
 2142SOL     OW 8612   4.063   0.085   3.513 -0.1857  0.0072  0.3094
 2142SOL    HW2 8613   4.136   0.035   3.478 -0.0816  0.3769 -0.0038
 2142SOL    HW3 8614   3.985   0.040   3.480 -0.0899  0.2497 -0.2563
 2142SOL    MW4 8615   4.062   0.072   3.504 -0.1593  0.0880  0.1931
 2143SOL     OW 8616   4.035   0.369   3.456 -0.1962 -0.5535  0.2320
 2143SOL    HW2 8617   4.050   0.276   3.471  0.9234 -0.5412 -0.6788
 2143SOL    HW3 8618   4.030   0.377   3.360 -0.1476  0.3284  0.3003
 2143SOL    MW4 8619   4.037   0.358   3.445 -0.0424 -0.4356  0.1209
 2144SOL     OW 8620   4.284   0.494   3.549 -0.1518  0.0001 -0.7431
 2144SOL    HW2 8621   4.291   0.582   3.514 -0.6111 -0.0005 -0.8365
 2144SOL    HW3 8622   4.197   0.464   3.522 -0.1943 -0.2911 -0.2838
 2144SOL    MW4 8623   4.273   0.502   3.541 -0.2174 -0.0384 -0.6948
 2145SOL     OW 8624   4.303   0.740   3.444 -0.0998  0.0845  0.0626
 2145SOL    HW2 8625   4.387   0.781   3.467  0.4934 -0.8321 -0.4233
 2145SOL    HW3 8626   4.297   0.751   3.349  0.3970 -1.5619 -0.1638
 2145SOL    MW4 8627   4.313   0.747   3.434  0.0443 -0.2537 -0.0315
 2146SOL     OW 8628   4.057   0.837   3.526  0.1284  0.1963 -0.2750
 2146SOL    HW2 8629   4.048   0.923   3.485  0.4264  0.1561 -0.4262
 2146SOL    HW3 8630   4.135   0.799   3.485 -0.4577 -0.4646 -0.7850
 2146SOL    MW4 8631   4.066   0.843   3.515  0.0896  0.1038 -0.3622
 2147SOL     OW 8632   4.069   1.102   3.405  0.3250  0.0691 -0.0777
 2147SOL    HW2 8633   4.142   1.156   3.436  0.2767 -0.1545  0.4411
 2147SOL    HW3 8634   3.993   1.161   3.406  0.0244 -0.3293  1.6708
 2147SOL    MW4 8635   4.069   1.117   3.409  0.2794 -0.0130  0.2213
 2148SOL     OW 8636   4.288   1.292   3.493  0.4600 -0.0460 -0.1539
 2148SOL    HW2 8637   4.301   1.383   3.467  0.5750  0.6001  2.0785
 2148SOL    HW3 8638   4.362   1.245   3.456  0.4586  0.7832 -1.2271
 2148SOL    MW4 8639   4.299   1.298   3.485  0.4754  0.1485 -0.0010
 2149SOL     OW 8640   4.277   1.563   3.413 -0.2038  0.2917 -0.6133
 2149SOL    HW2 8641   4.202   1.616   3.439 -0.2111  0.4845 -1.0289
 2149SOL    HW3 8642   4.265   1.547   3.319  0.1893  0.1850 -0.6494
 2149SOL    MW4 8643   4.266   1.568   3.404 -0.1531  0.3031 -0.6728
 2150SOL     OW 8644   4.053   1.710   3.500 -0.2136  0.2527  0.1577
 2150SOL    HW2 8645   4.083   1.720   3.590  0.4167 -0.4185  0.0199
 2150SOL    HW3 8646   4.063   1.797   3.462 -1.1796  0.7233  0.9430
 2150SOL    MW4 8647   4.058   1.723   3.507 -0.2580  0.2263  0.2432
 2151SOL     OW 8648   4.045   1.970   3.392 -0.4626  0.4131  0.5451
 2151SOL    HW2 8649   4.139   1.980   3.409 -0.5055 -0.6740  1.4453
 2151SOL    HW3 8650   4.040   1.949   3.299  0.1409  1.0534  0.3571
 2151SOL    MW4 8651   4.057   1.969   3.382 -0.3886  0.3542  0.6392
 2152SOL     OW 8652   4.286   2.042   3.516 -0.4367 -0.3918 -0.3293
 2152SOL    HW2 8653   4.290   2.131   3.483 -1.6842 -0.0806  0.3227
 2152SOL    HW3 8654   4.360   1.997   3.476  1.4347  1.4878  0.9556
 2152SOL    MW4 8655   4.296   2.048   3.507 -0.3548 -0.1028 -0.0737
 2153SOL     OW 8656   4.366   2.300   3.423  0.1019  0.0366  0.0219
 2153SOL    HW2 8657   4.285   2.340   3.455  0.3469  1.2752 -0.8615
 2153SOL    HW3 8658   4.351   2.288   3.329  1.0723  0.6192 -0.2129
 2153SOL    MW4 8659   4.353   2.304   3.414  0.2623  0.2768 -0.1254
 2154SOL     OW 8660   4.132   2.421   3.514 -0.1352 -0.1239  0.5079
 2154SOL    HW2 8661   4.107   2.433   3.606 -2.1124 -0.2745  0.0127
 2154SOL    HW3 8662   4.115   2.506   3.473  1.7379  0.2640  0.4629
 2154SOL    MW4 8663   4.127   2.434   3.521 -0.1488 -0.0925  0.4363
 2155SOL     OW 8664   4.092   2.672   3.411 -0.5738  0.4367  0.6646
 2155SOL    HW2 8665   4.159   2.730   3.448 -0.2498  0.7678 -0.4126
 2155SOL    HW3 8666   4.009   2.712   3.437 -0.3690  0.1588  1.8015
 2155SOL    MW4 8667   4.090   2.685   3.420 -0.5040  0.4439  0.6723
 2156SOL     OW 8668   4.273   2.839   3.549 -0.0368 -0.8467  0.3028
 2156SOL    HW2 8669   4.278   2.824   3.643 -0.5665 -1.3379  0.2580
 2156SOL    HW3 8670   4.358   2.810   3.515  0.7790  0.9038  0.8276
 2156SOL    MW4 8671   4.285   2.833   3.557  0.0010 -0.6804  0.3664
 2157SOL     OW 8672   4.286   3.106   3.448  0.0520 -0.4341  0.5040
 2157SOL    HW2 8673   4.277   3.022   3.493  2.2600 -0.7632  0.4038
 2157SOL    HW3 8674   4.294   3.082   3.355  2.2119 -0.2617  0.6156
 2157SOL    MW4 8675   4.286   3.092   3.441  0.6285 -0.4551  0.5057
 2158SOL     OW 8676   4.050   3.214   3.531 -0.0162  0.0575  0.0398
 2158SOL    HW2 8677   4.063   3.294   3.481  1.1063  0.0684  0.3341
 2158SOL    HW3 8678   4.129   3.162   3.515  0.4897  0.1680  1.9916
 2158SOL    MW4 8679   4.062   3.217   3.522  0.1979  0.0734  0.3359
 2159SOL     OW 8680   4.056   3.472   3.421  0.3130 -0.1813  0.0809
 2159SOL    HW2 8681   4.134   3.518   3.450  0.8308 -0.8313 -0.2640
 2159SOL    HW3 8682   3.983   3.523   3.456  0.8807  0.7260 -0.0595
 2159SOL    MW4 8683   4.057   3.485   3.430  0.4563 -0.1471  0.0169
 2160SOL     OW 8684   4.282   3.596   3.524 -0.6252  0.4439 -0.4323
 2160SOL    HW2 8685   4.290   3.585   3.619 -1.3489 -1.3051 -0.5510
 2160SOL    HW3 8686   4.279   3.691   3.511 -0.8151  0.6973  1.3116
 2160SOL    MW4 8687   4.283   3.607   3.535 -0.7463  0.2465 -0.2179
 2161SOL     OW 8688   4.246   3.866   3.408 -0.3389 -0.4662 -0.4964
 2161SOL    HW2 8689   4.335   3.898   3.421  0.6854 -3.0948 -0.7897
 2161SOL    HW3 8690   4.242   3.843   3.315 -0.6689 -2.3017 -0.0342
 2161SOL    MW4 8691   4.257   3.867   3.398 -0.2470 -1.0552 -0.4742
 2162SOL     OW 8692   4.030   4.005   3.535  0.2862  0.4248  0.0672
 2162SOL    HW2 8693   4.092   3.953   3.482  1.1767  0.7888  0.7271
 2162SOL    HW3 8694   3.944   3.974   3.508  0.7723 -0.5037 -0.4711
 2162SOL    MW4 8695   4.027   3.994   3.524  0.4673  0.3502  0.0834
 2163SOL     OW 8696   4.031   4.242   3.409  0.1699  0.0134  0.0327
 2163SOL    HW2 8697   4.048   4.166   3.464  0.7317 -0.3497 -0.6348
 2163SOL    HW3 8698   3.962   4.290   3.454  1.9766  0.7601  2.0927
 2163SOL    MW4 8699   4.024   4.238   3.422  0.4821  0.0644  0.2165
 2164SOL     OW 8700   4.276   4.364   3.466 -0.2138 -0.3432 -0.5889
 2164SOL    HW2 8701   4.273   4.366   3.561  1.7612 -0.8024 -0.4944
 2164SOL    HW3 8702   4.192   4.326   3.440 -1.0773  0.4688  0.9195
 2164SOL    MW4 8703   4.265   4.359   3.475 -0.0672 -0.2966 -0.3774
 2165SOL     OW 8704   0.258   4.630   3.897  0.1799 -0.6832 -0.2103
 2165SOL    HW2 8705   0.238   4.636   3.990  1.1827 -0.7575  0.0190
 2165SOL    HW3 8706   0.182   4.668   3.853  0.4151  0.8461  0.6996
 2165SOL    MW4 8707   0.245   4.636   3.904  0.3433 -0.4916 -0.0598
 2166SOL     OW 8708   0.019   0.077   3.801 -0.1367  0.2180  0.3126
 2166SOL    HW2 8709   0.010   0.162   3.843 -2.2404 -0.2260  0.8238
 2166SOL    HW3 8710  -0.006   0.092   3.710  1.8970  0.6372 -0.2017
 2166SOL    MW4 8711   0.014   0.090   3.794 -0.1460  0.2147  0.3119
 2167SOL     OW 8712   0.045   0.320   3.938  0.6669  0.1610 -0.0397
 2167SOL    HW2 8713  -0.020   0.387   3.914  0.6997  0.0026 -0.5669
 2167SOL    HW3 8714   0.125   0.347   3.893  0.8395  0.0913  0.2246
 2167SOL    MW4 8715   0.047   0.333   3.929  0.6940  0.1310 -0.0744
 2168SOL     OW 8716   0.247   0.482   3.785 -0.0438  0.3641 -0.3737
 2168SOL    HW2 8717   0.235   0.569   3.822 -0.1008  0.3909 -0.4543
 2168SOL    HW3 8718   0.242   0.495   3.690  0.1752  0.3055 -0.3932
 2168SOL    MW4 8719   0.244   0.495   3.777 -0.0225  0.3599 -0.3870
 2169SOL     OW 8720   0.236   0.739   3.895  0.0289 -0.0058 -0.7622
 2169SOL    HW2 8721   0.241   0.766   3.987 -0.3767 -1.8016 -0.1971
 2169SOL    HW3 8722   0.166   0.793   3.858 -1.2223 -0.7325  0.5083
 2169SOL    MW4 8723   0.227   0.750   3.903 -0.1897 -0.3386 -0.5200
 2170SOL     OW 8724   0.036   0.919   3.778 -0.0384  0.0416  0.1306
 2170SOL    HW2 8725  -0.046   0.878   3.805 -0.1241 -0.7750 -1.3181
 2170SOL    HW3 8726   0.039   1.001   3.828 -1.3377 -0.2946  0.7927
 2170SOL    MW4 8727   0.025   0.925   3.788 -0.2211 -0.1105  0.0269
 2171SOL     OW 8728   0.021   1.158   3.909  0.1383 -0.3891  0.3793
 2171SOL    HW2 8729  -0.049   1.201   3.859 -0.0675 -1.1181  0.0405
 2171SOL    HW3 8730   0.101   1.181   3.862 -0.1388 -1.8089 -0.8068
 2171SOL    MW4 8731   0.022   1.167   3.896  0.0746 -0.6726  0.1783
 2172SOL     OW 8732   0.251   1.264   3.807 -0.0750  0.1899  0.3256
 2172SOL    HW2 8733   0.261   1.351   3.846 -0.3845 -0.6394  2.3079
 2172SOL    HW3 8734   0.253   1.280   3.713 -0.2633  2.3621  0.6568
 2172SOL    MW4 8735   0.252   1.278   3.800 -0.1407  0.3670  0.6311
 2173SOL     OW 8736   0.263   1.533   3.890 -0.2110  0.1977 -0.0093
 2173SOL    HW2 8737   0.278   1.529   3.985  1.2279 -1.1814 -0.2652
 2173SOL    HW3 8738   0.183   1.583   3.880 -1.1653 -0.8648  2.0286
 2173SOL    MW4 8739   0.255   1.539   3.901 -0.1470 -0.1243  0.2258
 2174SOL     OW 8740   0.025   1.689   3.769  0.2267 -0.1920  0.1993
 2174SOL    HW2 8741   0.017   1.783   3.784 -1.3313 -0.3547  0.5530
 2174SOL    HW3 8742   0.042   1.681   3.675 -1.6879  0.3862 -0.2315
 2174SOL    MW4 8743   0.026   1.700   3.758 -0.2315 -0.1372  0.1891
 2175SOL     OW 8744   0.063   1.955   3.849 -0.0227 -0.0060  0.0766
 2175SOL    HW2 8745   0.064   1.949   3.944 -0.9071 -1.5247  0.0012
 2175SOL    HW3 8746  -0.012   2.010   3.829  0.3203  0.5336  0.2577
 2175SOL    MW4 8747   0.053   1.961   3.859 -0.0942 -0.1351  0.0904
 2176SOL     OW 8748   0.268   2.096   3.701  0.0119  0.0466 -0.0231
 2176SOL    HW2 8749   0.270   2.173   3.758  0.6466  0.1006 -0.1038
 2176SOL    HW3 8750   0.199   2.041   3.737 -1.9074  1.5890 -1.2167
 2176SOL    MW4 8751   0.259   2.099   3.713 -0.1576  0.2575 -0.1915
 2177SOL     OW 8752   0.234   2.337   3.867  0.2225 -0.3643  0.5868
 2177SOL    HW2 8753   0.219   2.337   3.962 -1.1251  2.7121  0.4084
 2177SOL    HW3 8754   0.166   2.394   3.831  1.9496  0.1380 -2.0326
 2177SOL    MW4 8755   0.223   2.344   3.875  0.2725  0.1075  0.2177
 2178SOL     OW 8756   0.012   2.505   3.784  0.2991 -0.4022 -0.3573
 2178SOL    HW2 8757  -0.057   2.458   3.831  1.0078 -1.0739  0.0290
 2178SOL    HW3 8758   0.027   2.584   3.836  0.1461 -0.4814 -0.1920
 2178SOL    MW4 8759   0.005   2.509   3.797  0.3724 -0.5012 -0.2844
 2179SOL     OW 8760   0.088   2.722   3.928 -0.0619  0.2981  0.8055
 2179SOL    HW2 8761   0.095   2.744   4.021  1.2909 -1.0040  1.0219
 2179SOL    HW3 8762   0.160   2.770   3.886  0.1170 -0.1236  0.6240
 2179SOL    MW4 8763   0.099   2.731   3.935  0.1402  0.0710  0.8101
 2180SOL     OW 8764   0.253   2.864   3.759 -0.2739  0.5490 -0.1200
 2180SOL    HW2 8765   0.340   2.824   3.765 -1.2484 -1.6803 -0.3402
 2180SOL    HW3 8766   0.235   2.867   3.665 -0.3705  1.1584 -0.0815
 2180SOL    MW4 8767   0.262   2.859   3.748 -0.4152  0.3350 -0.1440
 2181SOL     OW 8768   0.306   3.108   3.865  0.0277 -0.2012 -0.2454
 2181SOL    HW2 8769   0.308   3.108   3.960  0.1986  0.5405 -0.2455
 2181SOL    HW3 8770   0.274   3.021   3.841 -0.4848 -0.2151  0.4946
 2181SOL    MW4 8771   0.302   3.096   3.874 -0.0174 -0.1051 -0.1478
 2182SOL     OW 8772   0.066   3.226   3.768  0.3308  0.1998 -0.1823
 2182SOL    HW2 8773   0.148   3.183   3.790 -0.1957 -0.9901 -0.4871
 2182SOL    HW3 8774   0.069   3.236   3.673  0.7134  1.3970 -0.0494
 2182SOL    MW4 8775   0.077   3.222   3.758  0.3118  0.2007 -0.2050
 2183SOL     OW 8776   0.032   3.478   3.907  0.5064 -0.5601 -0.4196
 2183SOL    HW2 8777   0.114   3.518   3.881  0.3622 -0.5278 -0.8271
 2183SOL    HW3 8778   0.041   3.386   3.882  0.6677 -0.6988  0.1212
 2183SOL    MW4 8779   0.044   3.471   3.901  0.5086 -0.5744 -0.4022
 2184SOL     OW 8780   0.264   3.605   3.819 -0.2646 -0.7091  0.4838
 2184SOL    HW2 8781   0.346   3.589   3.866  0.0720  0.6674  0.4040
 2184SOL    HW3 8782   0.248   3.699   3.832 -1.4492 -0.8235 -0.1103
 2184SOL    MW4 8783   0.273   3.615   3.827 -0.3765 -0.5424  0.3948
 2185SOL     OW 8784   0.231   3.873   3.902 -0.2329 -0.0014 -0.0057
 2185SOL    HW2 8785   0.243   3.875   3.997  0.7142  0.0108 -0.1142
 2185SOL    HW3 8786   0.316   3.901   3.867 -0.5065 -0.2155 -0.8579
 2185SOL    MW4 8787   0.244   3.877   3.910 -0.1440 -0.0281 -0.1323
 2186SOL     OW 8788   0.027   4.029   3.792 -0.3125 -0.1618 -0.1251
 2186SOL    HW2 8789  -0.042   3.981   3.838  0.2879  0.8974  1.9294
 2186SOL    HW3 8790   0.109   3.989   3.823  0.0950  0.4756 -0.3697
 2186SOL    MW4 8791   0.029   4.017   3.802 -0.1795  0.0620  0.1135
 2187SOL     OW 8792   0.032   4.275   3.894 -0.0347  0.0248  0.4538
 2187SOL    HW2 8793   0.114   4.304   3.854  0.1495 -0.1746  0.6880
 2187SOL    HW3 8794   0.015   4.190   3.853 -0.5420  0.4302 -0.1865
 2187SOL    MW4 8795   0.041   4.268   3.883 -0.0773  0.0520  0.4003
 2188SOL     OW 8796   0.271   4.378   3.778 -0.2109 -0.2318  0.1328
 2188SOL    HW2 8797   0.342   4.343   3.831  0.0711 -0.6624 -0.5307
 2188SOL    HW3 8798   0.257   4.467   3.813  0.3321 -0.3136  0.5644
 2188SOL    MW4 8799   0.278   4.385   3.790 -0.1020 -0.2995  0.1023
 2189SOL     OW 8800   0.699   4.643   3.850  0.0316 -0.0113  0.2599
 2189SOL    HW2 8801   0.668   4.555   3.827  0.0327 -0.0051  0.2353
 2189SOL    HW3 8802   0.623   4.699   3.838  0.1505  0.0619 -0.1597
 2189SOL    MW4 8803   0.685   4.638   3.845  0.0474 -0.0010  0.2012
 2190SOL     OW 8804   0.469   0.115   3.805  0.2441  0.1229  0.2060
 2190SOL    HW2 8805   0.465   0.200   3.850 -0.7645  0.1684  0.0471
 2190SOL    HW3 8806   0.399   0.064   3.845  0.3675 -0.3778 -0.2157
 2190SOL    MW4 8807   0.459   0.119   3.816  0.1273  0.0629  0.1295
 2191SOL     OW 8808   0.469   0.377   3.900 -0.3078 -0.0884  0.4689
 2191SOL    HW2 8809   0.549   0.381   3.847 -0.2613  0.1270  0.5553
 2191SOL    HW3 8810   0.403   0.423   3.848  0.0867  1.3594  1.2108
 2191SOL    MW4 8811   0.471   0.384   3.886 -0.2496  0.1310  0.5784
 2192SOL     OW 8812   0.684   0.428   3.756  0.6587  0.0558 -0.2484
 2192SOL    HW2 8813   0.764   0.385   3.785 -0.3544 -0.9716  1.1190
 2192SOL    HW3 8814   0.688   0.516   3.796 -0.1824 -0.9533  2.1760
 2192SOL    MW4 8815   0.695   0.434   3.765  0.4140 -0.2129  0.2518
 2193SOL     OW 8816   0.701   0.708   3.865 -0.2832  0.4622  0.6953
 2193SOL    HW2 8817   0.781   0.754   3.840 -0.2013  0.0604  0.2201
 2193SOL    HW3 8818   0.631   0.758   3.823 -0.0106 -1.3483 -2.0298
 2193SOL    MW4 8819   0.702   0.721   3.856 -0.2365  0.1703  0.2732
 2194SOL     OW 8820   0.484   0.855   3.780  0.4118  0.1603  0.1741
 2194SOL    HW2 8821   0.481   0.933   3.835 -0.2751  0.3990 -0.1956
 2194SOL    HW3 8822   0.405   0.807   3.803  0.0019  0.3764 -0.7783
 2194SOL    MW4 8823   0.473   0.859   3.790  0.2671  0.2204  0.0000
 2195SOL     OW 8824   0.471   1.110   3.884  0.1417  0.1000 -0.2880
 2195SOL    HW2 8825   0.545   1.162   3.853  0.7602  0.3819  1.5631
 2195SOL    HW3 8826   0.393   1.155   3.851  0.7733  0.4824 -1.2484
 2195SOL    MW4 8827   0.470   1.123   3.876  0.3067  0.1875 -0.1705
 2196SOL     OW 8828   0.684   1.284   3.803  0.0233  0.0533  0.2739
 2196SOL    HW2 8829   0.763   1.232   3.822  1.3488  1.5229 -1.0971
 2196SOL    HW3 8830   0.684   1.293   3.708 -0.9955  1.3289  0.3890
 2196SOL    MW4 8831   0.694   1.278   3.793  0.0638  0.4153  0.1082
 2197SOL     OW 8832   0.682   1.547   3.870  0.0962  0.0459 -0.4278
 2197SOL    HW2 8833   0.752   1.588   3.818  0.2069  0.4761  0.0628
 2197SOL    HW3 8834   0.691   1.454   3.851  1.7238 -0.0539  0.7225
 2197SOL    MW4 8835   0.693   1.540   3.860  0.3256  0.0895 -0.2115
 2198SOL     OW 8836   0.461   1.677   3.748  0.2618 -0.2740 -0.0847
 2198SOL    HW2 8837   0.549   1.654   3.776  0.6229  1.5087  0.3433
 2198SOL    HW3 8838   0.404   1.622   3.801  1.0536  0.3629  1.4746
 2198SOL    MW4 8839   0.465   1.667   3.759  0.4139  0.0453  0.1776
 2199SOL     OW 8840   0.470   1.941   3.857 -0.1191  0.3090  0.2069
 2199SOL    HW2 8841   0.461   1.851   3.826  0.4077  0.0681  0.7532
 2199SOL    HW3 8842   0.413   1.992   3.799 -0.6893 -0.4248  0.1156
 2199SOL    MW4 8843   0.461   1.936   3.845 -0.1248  0.1802  0.2668
 2200SOL     OW 8844   0.715   2.059   3.787 -0.0136 -0.0448  0.0526
 2200SOL    HW2 8845   0.712   2.151   3.813  0.8514 -0.7065  2.6171
 2200SOL    HW3 8846   0.631   2.024   3.817 -0.4928 -0.0321 -1.2434
 2200SOL    MW4 8847   0.703   2.067   3.795  0.0374 -0.1304  0.2201
 2201SOL     OW 8848   0.703   2.338   3.857 -0.3451  0.5183  0.0407
 2201SOL    HW2 8849   0.773   2.390   3.817  0.1027 -0.1326 -0.0284
 2201SOL    HW3 8850   0.623   2.377   3.824 -0.0049  0.9602 -0.2750
 2201SOL    MW4 8851   0.702   2.350   3.847 -0.2411  0.4907 -0.0100
 2202SOL     OW 8852   0.467   2.470   3.774 -0.3461  0.0561  0.2299
 2202SOL    HW2 8853   0.388   2.426   3.805  0.6226 -1.8291  0.1486
 2202SOL    HW3 8854   0.463   2.461   3.678 -0.1393  0.1470  0.2124
 2202SOL    MW4 8855   0.456   2.463   3.765 -0.1910 -0.1807  0.2167
 2203SOL     OW 8856   0.483   2.722   3.820 -0.6208 -0.6254 -0.0797
 2203SOL    HW2 8857   0.566   2.755   3.785  0.4555 -1.8069  1.2980
 2203SOL    HW3 8858   0.481   2.630   3.795 -2.4346 -0.1828 -1.7260
 2203SOL    MW4 8859   0.493   2.714   3.812 -0.7181 -0.7231 -0.1152
 2204SOL     OW 8860   0.691   2.883   3.742  0.0803 -0.0797  0.3973
 2204SOL    HW2 8861   0.779   2.849   3.763 -0.4413 -1.6493  0.1402
 2204SOL    HW3 8862   0.685   2.874   3.647 -0.5956 -0.5950  0.4863
 2204SOL    MW4 8863   0.702   2.877   3.732 -0.0777 -0.3548  0.3753
 2205SOL     OW 8864   0.722   3.139   3.809 -0.2403 -0.0151 -0.1517
 2205SOL    HW2 8865   0.715   3.142   3.905 -1.2667 -0.2516 -0.2047
 2205SOL    HW3 8866   0.702   3.048   3.787  0.9043 -0.1798 -0.5355
 2205SOL    MW4 8867   0.718   3.127   3.819 -0.2247 -0.0679 -0.2093
 2206SOL     OW 8868   0.492   3.288   3.742  0.4769 -0.3843  0.2223
 2206SOL    HW2 8869   0.575   3.246   3.763 -0.0662 -0.6051  1.9839
 2206SOL    HW3 8870   0.426   3.223   3.764 -0.2024  0.0978 -0.3796
 2206SOL    MW4 8871   0.494   3.274   3.748  0.3156 -0.3495  0.3753
 2207SOL     OW 8872   0.498   3.509   3.913  0.4158  0.0811 -0.5834
 2207SOL    HW2 8873   0.576   3.555   3.883 -0.6387  0.4706 -2.7843
 2207SOL    HW3 8874   0.494   3.430   3.860  0.1917 -0.7459  0.6443
 2207SOL    MW4 8875   0.508   3.505   3.902  0.2471  0.0231 -0.7117
 2208SOL     OW 8876   0.725   3.621   3.796 -0.0786  0.0956 -0.1423
 2208SOL    HW2 8877   0.712   3.711   3.827  1.9560  0.0416  0.9392
 2208SOL    HW3 8878   0.701   3.624   3.703 -2.3883  1.1794  0.4447
 2208SOL    MW4 8879   0.720   3.633   3.788 -0.1148  0.2315  0.0780
 2209SOL     OW 8880   0.694   3.888   3.889 -0.6847 -0.3144 -0.0762
 2209SOL    HW2 8881   0.690   3.884   3.984  0.4597 -0.1734 -0.0210
 2209SOL    HW3 8882   0.777   3.930   3.870 -0.3592 -1.4232 -1.1571
 2209SOL    MW4 8883   0.704   3.893   3.899 -0.4907 -0.4420 -0.2115
 2210SOL     OW 8884   0.459   4.005   3.795  0.0524  0.4148  0.2349
 2210SOL    HW2 8885   0.537   3.960   3.828 -1.3805 -2.7627 -0.5053
 2210SOL    HW3 8886   0.463   3.994   3.700 -1.4842 -0.1316  0.2189
 2210SOL    MW4 8887   0.470   3.998   3.787 -0.3394 -0.0765  0.1349
 2211SOL     OW 8888   0.475   4.251   3.943  0.7370  0.2343 -0.0909
 2211SOL    HW2 8889   0.553   4.283   3.899  0.2916  0.5018 -0.6984
 2211SOL    HW3 8890   0.455   4.168   3.900  2.1264 -1.0903  1.7554
 2211SOL    MW4 8891   0.482   4.244   3.932  0.8616  0.0949  0.0725
 2212SOL     OW 8892   0.656   4.386   3.791  0.0219  0.0933  0.3836
 2212SOL    HW2 8893   0.744   4.354   3.814 -0.2303 -0.6540  0.3330
 2212SOL    HW3 8894   0.656   4.387   3.695  0.7896  2.4071  0.3823
 2212SOL    MW4 8895   0.668   4.382   3.781  0.0899  0.2999  0.3767
 2213SOL     OW 8896   1.144   4.586   3.914 -0.1995 -0.0264  0.1623
 2213SOL    HW2 8897   1.203   4.638   3.860 -1.2028  0.3138 -0.6240
 2213SOL    HW3 8898   1.143   4.500   3.873  0.7816 -0.4305  0.9583
 2213SOL    MW4 8899   1.152   4.581   3.902 -0.2024 -0.0348  0.1638
 2214SOL     OW 8900   0.948   0.035   3.735 -0.2809 -0.5152 -0.3868
 2214SOL    HW2 8901   0.996  -0.012   3.803 -1.1879  2.0744  2.1600
 2214SOL    HW3 8902   0.856   0.022   3.758 -0.5668  1.4694 -0.3646
 2214SOL    MW4 8903   0.942   0.027   3.747 -0.4383  0.0883 -0.0482
 2215SOL     OW 8904   0.926   0.288   3.830 -0.2540  0.0912  0.0982
 2215SOL    HW2 8905   0.904   0.279   3.923 -0.0959 -2.2871 -0.0724
 2215SOL    HW3 8906   0.926   0.199   3.797  0.7279  0.8385 -1.9695
 2215SOL    MW4 8907   0.923   0.275   3.838 -0.1037 -0.1239 -0.1969
 2216SOL     OW 8908   1.107   0.490   3.798 -0.0185 -0.1933  0.2581
 2216SOL    HW2 8909   1.187   0.441   3.814 -0.9216 -2.1218 -0.9427
 2216SOL    HW3 8910   1.038   0.423   3.799 -1.5534  1.3739  0.8514
 2216SOL    MW4 8911   1.108   0.474   3.801 -0.3401 -0.2409  0.1779
 2217SOL     OW 8912   1.139   0.744   3.836  0.1093  0.3905  0.2130
 2217SOL    HW2 8913   1.142   0.750   3.932 -0.1420 -0.3461  0.2703
 2217SOL    HW3 8914   1.127   0.651   3.818 -1.7568  0.7336 -0.4872
 2217SOL    MW4 8915   1.138   0.733   3.846 -0.1700  0.3386  0.1283
 2218SOL     OW 8916   0.923   0.879   3.729  0.4086 -0.2412  0.1135
 2218SOL    HW2 8917   0.995   0.824   3.761  0.6988 -0.2801 -0.6165
 2218SOL    HW3 8918   0.915   0.858   3.636 -0.4138 -0.0843  0.1421
 2218SOL    MW4 8919   0.932   0.869   3.721  0.3384 -0.2256  0.0210
 2219SOL     OW 8920   0.916   1.157   3.845 -0.1036 -0.3909 -0.2652
 2219SOL    HW2 8921   0.912   1.156   3.940 -0.0707  0.4460 -0.2498
 2219SOL    HW3 8922   0.923   1.065   3.820 -0.2714 -0.6231  0.5315
 2219SOL    MW4 8923   0.916   1.144   3.854 -0.1214 -0.3110 -0.1578
 2220SOL     OW 8924   1.187   1.241   3.789  0.2090 -0.1706  0.4409
 2220SOL    HW2 8925   1.177   1.333   3.817 -1.0161  0.0966 -0.8273
 2220SOL    HW3 8926   1.104   1.200   3.814  0.1275 -0.5469 -0.4286
 2220SOL    MW4 8927   1.174   1.248   3.796  0.0367 -0.1849  0.1590
 2221SOL     OW 8928   1.104   1.511   3.838  0.5311  0.0510  0.1027
 2221SOL    HW2 8929   1.128   1.519   3.931  0.9032 -1.2041  0.1185
 2221SOL    HW3 8930   1.174   1.556   3.791  2.3314 -2.5123  0.2252
 2221SOL    MW4 8931   1.116   1.518   3.844  0.8175 -0.4528  0.1211
 2222SOL     OW 8932   0.897   1.660   3.747  0.5393  0.3812 -0.6595
 2222SOL    HW2 8933   0.964   1.601   3.783 -0.4571 -0.5610 -0.3324
 2222SOL    HW3 8934   0.922   1.671   3.655  2.2906  1.6605 -0.0746
 2222SOL    MW4 8935   0.909   1.654   3.740  0.6390  0.4258 -0.5391
 2223SOL     OW 8936   0.922   1.916   3.875  0.1007 -0.3731  0.2771
 2223SOL    HW2 8937   0.911   1.832   3.832 -0.0302  0.0482 -0.5221
 2223SOL    HW3 8938   0.849   1.969   3.844  1.1797  0.6081 -0.6472
 2223SOL    MW4 8939   0.911   1.912   3.865  0.2258 -0.1881  0.0498
 2224SOL     OW 8940   1.159   2.032   3.774  0.0859  0.2648  0.1844
 2224SOL    HW2 8941   1.082   1.993   3.816 -1.3058  2.6756 -0.0535
 2224SOL    HW3 8942   1.133   2.044   3.683  0.6866  1.2808  0.1486
 2224SOL    MW4 8943   1.145   2.028   3.767 -0.0184  0.7167  0.1485
 2225SOL     OW 8944   1.181   2.316   3.832 -0.0084  0.0670 -0.1783
 2225SOL    HW2 8945   1.181   2.312   3.928 -0.7867  0.4347 -0.1583
 2225SOL    HW3 8946   1.180   2.225   3.803 -1.8502 -0.0428  0.1738
 2225SOL    MW4 8947   1.181   2.304   3.841 -0.3539  0.1009 -0.1290
 2226SOL     OW 8948   0.935   2.470   3.765 -0.4301  0.4568  0.6702
 2226SOL    HW2 8949   0.939   2.564   3.783 -0.9227  0.3799  1.1775
 2226SOL    HW3 8950   1.016   2.436   3.804  0.3286  0.8367 -0.5455
 2226SOL    MW4 8951   0.946   2.478   3.773 -0.3950  0.4966  0.5767
 2227SOL     OW 8952   0.951   2.744   3.807  0.2746 -0.3774  0.1302
 2227SOL    HW2 8953   0.954   2.744   3.903  1.8165  1.6953  0.1212
 2227SOL    HW3 8954   1.034   2.783   3.781 -0.4525 -0.2432 -2.0586
 2227SOL    MW4 8955   0.962   2.749   3.816  0.3821 -0.0863 -0.1595
 2228SOL     OW 8956   1.188   2.885   3.746  0.1248  0.3625  0.0629
 2228SOL    HW2 8957   1.265   2.855   3.794 -0.2219 -0.3359  0.1912
 2228SOL    HW3 8958   1.169   2.971   3.783  1.3872  0.9349 -0.6114
 2228SOL    MW4 8959   1.196   2.892   3.757  0.2457  0.3462 -0.0091
 2229SOL     OW 8960   1.140   3.112   3.916 -0.0665  0.2642  0.2046
 2229SOL    HW2 8961   1.223   3.152   3.889  0.2462  0.1132  0.9261
 2229SOL    HW3 8962   1.073   3.166   3.875  0.3532  1.3394  0.9040
 2229SOL    MW4 8963   1.142   3.124   3.907  0.0302  0.3862  0.3920
 2230SOL     OW 8964   0.966   3.263   3.761 -0.0692  0.0878  0.2758
 2230SOL    HW2 8965   0.886   3.215   3.781 -0.8699  2.0245  1.8725
 2230SOL    HW3 8966   0.972   3.261   3.665 -1.4872 -0.9269  0.1948
 2230SOL    MW4 8967   0.957   3.257   3.751 -0.3619  0.2093  0.4756
 2231SOL     OW 8968   0.960   3.499   3.900 -0.2231  0.5238  0.4148
 2231SOL    HW2 8969   0.951   3.416   3.852 -0.8577 -0.0998  1.5814
 2231SOL    HW3 8970   0.880   3.548   3.879 -1.6999 -0.7802  2.7382
 2231SOL    MW4 8971   0.948   3.494   3.891 -0.5018  0.2697  0.8755
 2232SOL     OW 8972   1.177   3.578   3.755  0.6231 -0.4113  0.0631
 2232SOL    HW2 8973   1.196   3.671   3.771  1.8183 -0.8019  0.9963
 2232SOL    HW3 8974   1.096   3.561   3.803  0.4129  0.1433 -0.0947
 2232SOL    MW4 8975   1.169   3.588   3.763  0.7529 -0.3896  0.1657
 2233SOL     OW 8976   1.156   3.836   3.871  0.2690 -0.4026 -0.1031
 2233SOL    HW2 8977   1.161   3.837   3.966 -0.3902 -0.6709 -0.0619
 2233SOL    HW3 8978   1.225   3.896   3.842 -1.4076  1.9289  0.6267
 2233SOL    MW4 8979   1.166   3.844   3.880 -0.0391 -0.1304 -0.0014
 2234SOL     OW 8980   0.942   4.009   3.817  0.3588 -0.7360  0.1174
 2234SOL    HW2 8981   1.015   3.951   3.840  1.0437 -0.1742 -0.6165
 2234SOL    HW3 8982   0.945   4.013   3.721  0.1065  0.2465  0.1495
 2234SOL    MW4 8983   0.952   4.002   3.807  0.4159 -0.5317  0.0248
 2235SOL     OW 8984   0.890   4.290   3.909 -0.3806  0.0312 -0.4030
 2235SOL    HW2 8985   0.908   4.286   4.003 -0.6604 -0.4079 -0.3654
 2235SOL    HW3 8986   0.907   4.201   3.878  1.0209  0.5084 -1.0111
 2235SOL    MW4 8987   0.894   4.278   3.917 -0.2326  0.0362 -0.4783
 2236SOL     OW 8988   1.133   4.330   3.787 -0.5977 -0.3519  0.2731
 2236SOL    HW2 8989   1.042   4.319   3.816 -0.4169 -1.0003  0.6094
 2236SOL    HW3 8990   1.128   4.328   3.692 -0.9961  0.1207  0.2795
 2236SOL    MW4 8991   1.120   4.328   3.778 -0.6263 -0.3748  0.3183
 2237SOL     OW 8992   1.585   4.653   3.815  0.0561 -0.0477 -0.2440
 2237SOL    HW2 8993   1.587   4.656   3.911  0.5006  1.2065 -0.2830
 2237SOL    HW3 8994   1.586   4.559   3.794  0.3364 -0.3272  0.9666
 2237SOL    MW4 8995   1.585   4.641   3.825  0.1516  0.0806 -0.0892
 2238SOL     OW 8996   1.326   0.073   3.749  0.1652  0.9800 -0.1230
 2238SOL    HW2 8997   1.320   0.159   3.791 -0.2935 -0.0143  1.9155
 2238SOL    HW3 8998   1.409   0.037   3.781 -0.2424  0.1569  0.0115
 2238SOL    MW4 8999   1.336   0.079   3.759  0.0509  0.7402  0.1636
 2239SOL     OW 9000   1.330   0.339   3.847  0.1553 -0.0978 -0.0059
 2239SOL    HW2 9001   1.350   0.322   3.940  0.6277 -0.6484 -0.2072
 2239SOL    HW3 9002   1.399   0.398   3.818 -0.0726  0.1858  0.0304
 2239SOL    MW4 9003   1.341   0.345   3.856  0.1875 -0.1330 -0.0277
 2240SOL     OW 9004   1.542   0.494   3.727 -0.1370  0.1840 -0.0815
 2240SOL    HW2 9005   1.616   0.443   3.761 -0.1923  0.4433  0.4314
 2240SOL    HW3 9006   1.558   0.583   3.758  0.2078  0.5811 -1.3704
 2240SOL    MW4 9007   1.554   0.499   3.735 -0.0988  0.2705 -0.1836
 2241SOL     OW 9008   1.571   0.742   3.829  0.2268 -0.1916 -0.6052
 2241SOL    HW2 9009   1.658   0.780   3.814 -0.0910  0.2765 -1.2833
 2241SOL    HW3 9010   1.510   0.813   3.806 -0.3469 -0.7996 -0.9519
 2241SOL    MW4 9011   1.574   0.757   3.824  0.1091 -0.2100 -0.7405
 2242SOL     OW 9012   1.373   0.911   3.756 -0.3332 -0.4364 -0.0768
 2242SOL    HW2 9013   1.377   0.988   3.812 -0.2473  0.4213 -1.2435
 2242SOL    HW3 9014   1.302   0.858   3.793 -0.4107  0.2089  0.7091
 2242SOL    MW4 9015   1.364   0.914   3.768 -0.3321 -0.2382 -0.1266
 2243SOL     OW 9016   1.402   1.150   3.903  0.2289  0.4872  0.0530
 2243SOL    HW2 9017   1.471   1.187   3.847  0.5562 -1.7250 -1.1085
 2243SOL    HW3 9018   1.321   1.180   3.863  0.4844 -0.1487 -0.9934
 2243SOL    MW4 9019   1.401   1.159   3.890  0.3058  0.1113 -0.2384
 2244SOL     OW 9020   1.590   1.249   3.746 -0.0759 -0.2496  0.3850
 2244SOL    HW2 9021   1.674   1.214   3.776 -0.1467  0.3459  1.2781
 2244SOL    HW3 9022   1.598   1.344   3.755  0.0663 -0.0081 -1.9168
 2244SOL    MW4 9023   1.602   1.257   3.751 -0.0665 -0.1394  0.1993
 2245SOL     OW 9024   1.583   1.520   3.792 -0.3435 -0.0055 -0.7355
 2245SOL    HW2 9025   1.595   1.500   3.885 -0.5747  0.9626 -0.4966
 2245SOL    HW3 9026   1.663   1.565   3.766  0.1351 -1.1324 -1.2533
 2245SOL    MW4 9027   1.595   1.523   3.801 -0.3108 -0.0265 -0.7725
 2246SOL     OW 9028   1.329   1.618   3.710 -0.3082  0.3500 -0.0435
 2246SOL    HW2 9029   1.336   1.703   3.753 -0.8943  0.0478  0.6637
 2246SOL    HW3 9030   1.407   1.571   3.736 -0.1126  0.5771 -0.2192
 2246SOL    MW4 9031   1.340   1.623   3.719 -0.3598  0.3402  0.0265
 2247SOL     OW 9032   1.372   1.865   3.846  0.7410  0.1725  0.0154
 2247SOL    HW2 9033   1.364   1.868   3.941 -0.2718  0.0328 -0.0543
 2247SOL    HW3 9034   1.298   1.917   3.814  1.9161  1.4441 -0.6828
 2247SOL    MW4 9035   1.361   1.872   3.854  0.7625  0.3220 -0.0858
 2248SOL     OW 9036   1.567   2.044   3.771  0.2144 -0.2520 -0.2678
 2248SOL    HW2 9037   1.506   1.979   3.807  0.5031  0.3695  1.3709
 2248SOL    HW3 9038   1.563   2.031   3.676 -0.5515 -1.9286 -0.0161
 2248SOL    MW4 9039   1.558   2.034   3.763  0.1516 -0.3912 -0.0184
 2249SOL     OW 9040   1.622   2.317   3.888 -0.3333 -0.0438 -0.0592
 2249SOL    HW2 9041   1.688   2.371   3.844 -1.9884  2.0857  0.0289
 2249SOL    HW3 9042   1.627   2.232   3.843  0.9017  0.7895 -1.5408
 2249SOL    MW4 9043   1.631   2.313   3.877 -0.3886  0.3469 -0.2429
 2250SOL     OW 9044   1.417   2.479   3.798 -0.1855  0.1880  0.5169
 2250SOL    HW2 9045   1.481   2.422   3.840 -0.3779 -0.0148  0.5370
 2250SOL    HW3 9046   1.334   2.431   3.804 -0.5786  0.9729  1.5652
 2250SOL    MW4 9047   1.414   2.465   3.805 -0.2627  0.2649  0.6578
 2251SOL     OW 9048   1.413   2.745   3.865  0.0306  0.2352  0.1132
 2251SOL    HW2 9049   1.415   2.753   3.960 -1.1379  0.5678  0.1224
 2251SOL    HW3 9050   1.396   2.653   3.848 -0.9169  0.3789  0.2529
 2251SOL    MW4 9051   1.411   2.734   3.875 -0.2487  0.2980  0.1328
 2252SOL     OW 9052   1.664   2.804   3.738  0.0838 -0.4821  0.2504
 2252SOL    HW2 9053   1.591   2.760   3.781 -0.0635 -0.3292  0.1571
 2252SOL    HW3 9054   1.638   2.810   3.646 -0.2355  0.4723  0.3898
 2252SOL    MW4 9055   1.651   2.799   3.731  0.0223 -0.3359  0.2565
 2253SOL     OW 9056   1.605   3.076   3.833 -0.0452 -0.0464 -0.2091
 2253SOL    HW2 9057   1.597   3.059   3.927  0.8044  0.9020  0.0455
 2253SOL    HW3 9058   1.618   2.990   3.794 -0.8895 -0.4953  0.4868
 2253SOL    MW4 9059   1.606   3.062   3.840 -0.0446  0.0196 -0.0839
 2254SOL     OW 9060   1.363   3.210   3.813  0.1219  0.0216  0.6134
 2254SOL    HW2 9061   1.381   3.291   3.861 -0.8235 -0.0411  1.0774
 2254SOL    HW3 9062   1.447   3.164   3.812  0.5568  0.7997  0.7329
 2254SOL    MW4 9063   1.377   3.215   3.819  0.0545  0.1159  0.6905
 2255SOL     OW 9064   1.385   3.474   3.903 -0.4838  0.4781  0.0077
 2255SOL    HW2 9065   1.460   3.523   3.868  0.2282 -1.7605 -1.8132
 2255SOL    HW3 9066   1.310   3.504   3.852 -0.7112  2.2407  1.3691
 2255SOL    MW4 9067   1.385   3.484   3.892 -0.4200  0.4153 -0.0529
 2256SOL     OW 9068   1.628   3.624   3.789  0.2090 -0.0976  0.3223
 2256SOL    HW2 9069   1.708   3.586   3.824  0.3628 -0.7295 -0.7020
 2256SOL    HW3 9070   1.631   3.716   3.817  0.7633 -0.3785  1.1854
 2256SOL    MW4 9071   1.639   3.631   3.797  0.3023 -0.2182  0.3011
 2257SOL     OW 9072   1.604   3.877   3.876 -0.3543  0.3445  0.0065
 2257SOL    HW2 9073   1.597   3.891   3.971  0.3533  1.4198 -0.0903
 2257SOL    HW3 9074   1.521   3.910   3.842 -1.2892 -1.5481  0.4014
 2257SOL    MW4 9075   1.592   3.883   3.884 -0.3842  0.2367  0.0458
 2258SOL     OW 9076   1.353   3.980   3.779 -0.0876  0.1813  0.4023
 2258SOL    HW2 9077   1.365   4.066   3.819  1.1089  0.6318 -0.8624
 2258SOL    HW3 9078   1.356   3.997   3.685  1.1386 -1.3496  0.1413
 2258SOL    MW4 9079   1.355   3.993   3.772  0.2321  0.0386  0.2012
 2259SOL     OW 9080   1.356   4.235   3.901 -0.2899  0.4306 -0.6125
 2259SOL    HW2 9081   1.438   4.270   3.865  0.5584 -2.2296 -1.4772
 2259SOL    HW3 9082   1.288   4.272   3.845  0.2554  3.0394  0.3971
 2259SOL    MW4 9083   1.358   4.244   3.889 -0.1060  0.4239 -0.5932
 2260SOL     OW 9084   1.575   4.355   3.769  0.3059 -0.2563  0.3815
 2260SOL    HW2 9085   1.658   4.318   3.799  0.5682 -0.1832 -0.2578
 2260SOL    HW3 9086   1.578   4.348   3.674 -0.9182 -1.3171  0.3994
 2260SOL    MW4 9087   1.586   4.349   3.761  0.1789 -0.3872  0.2995
 2261SOL     OW 9088   2.048   4.662   3.857  0.2637 -0.3113  0.1232
 2261SOL    HW2 9089   2.119   4.711   3.814 -1.4626  0.7693 -1.5860
 2261SOL    HW3 9090   2.055   4.574   3.820 -0.0933  0.1438 -1.0632
 2261SOL    MW4 9091   2.058   4.657   3.846 -0.0110 -0.1087 -0.2589
 2262SOL     OW 9092   1.828   0.107   3.744 -0.4466  0.0926  0.5428
 2262SOL    HW2 9093   1.904   0.077   3.794  0.0275  0.3415 -0.0187
 2262SOL    HW3 9094   1.753   0.066   3.787  0.0905 -0.9214  0.5224
 2262SOL    MW4 9095   1.828   0.097   3.756 -0.3133 -0.0083  0.4661
 2263SOL     OW 9096   1.762   0.362   3.838 -0.1254 -0.0529 -0.1945
 2263SOL    HW2 9097   1.759   0.359   3.933 -2.2568 -0.5702 -0.2489
 2263SOL    HW3 9098   1.787   0.274   3.811 -2.3972 -0.7401 -0.1630
 2263SOL    MW4 9099   1.764   0.350   3.847 -0.7064 -0.2118 -0.1976
 2264SOL     OW 9100   2.017   0.494   3.785 -0.5157  0.2031 -0.1146
 2264SOL    HW2 9101   1.938   0.442   3.801 -0.3472  0.1081  0.3977
 2264SOL    HW3 9102   2.035   0.480   3.692 -0.4006 -0.7660  0.0425
 2264SOL    MW4 9103   2.009   0.485   3.775 -0.4780  0.0627 -0.0265
 2265SOL     OW 9104   2.087   0.751   3.859 -0.3586  0.0207  0.2576
 2265SOL    HW2 9105   2.065   0.775   3.949 -1.1787 -1.0537  0.3637
 2265SOL    HW3 9106   2.072   0.656   3.856 -0.1479  0.0206 -0.9546
 2265SOL    MW4 9107   2.082   0.741   3.871 -0.4389 -0.1211  0.1118
 2266SOL     OW 9108   1.835   0.840   3.756  0.1481 -0.2989  0.4969
 2266SOL    HW2 9109   1.924   0.813   3.779  0.3029 -0.3963 -0.2327
 2266SOL    HW3 9110   1.827   0.822   3.663 -0.5027  0.0868  0.4748
 2266SOL    MW4 9111   1.846   0.834   3.747  0.0826 -0.2609  0.3977
 2267SOL     OW 9112   1.813   1.115   3.829 -0.1568 -0.2095  0.3145
 2267SOL    HW2 9113   1.822   1.115   3.924  1.0384 -1.9793  0.2151
 2267SOL    HW3 9114   1.820   1.023   3.804 -1.2948  0.1627 -1.4137
 2267SOL    MW4 9115   1.815   1.103   3.838 -0.1493 -0.3939  0.0734
 2268SOL     OW 9116   2.016   1.275   3.684 -0.0432  0.0490  0.0623
 2268SOL    HW2 9117   2.103   1.240   3.704  0.4470  0.9094 -0.5171
 2268SOL    HW3 9118   1.956   1.217   3.730  0.9031  0.2476  1.6123
 2268SOL    MW4 9119   2.020   1.263   3.693  0.1464  0.1887  0.1903
 2269SOL     OW 9120   2.041   1.511   3.814 -0.1434 -0.2358 -0.3716
 2269SOL    HW2 9121   1.980   1.582   3.795  0.0135 -0.1667 -0.6186
 2269SOL    HW3 9122   2.005   1.435   3.769  0.3826 -0.0035 -1.1869
 2269SOL    MW4 9123   2.028   1.510   3.806 -0.0534 -0.1960 -0.5116
 2270SOL     OW 9124   1.834   1.672   3.762 -0.1922 -0.1528  0.2413
 2270SOL    HW2 9125   1.823   1.762   3.795  0.2554 -0.0378  0.0876
 2270SOL    HW3 9126   1.812   1.678   3.669  2.2090  0.3317 -0.3524
 2270SOL    MW4 9127   1.830   1.685   3.754  0.1836 -0.0737  0.1426
 2271SOL     OW 9128   1.825   1.948   3.812  0.2189 -0.0083  0.1681
 2271SOL    HW2 9129   1.817   1.925   3.904 -0.2642 -1.4858 -0.2254
 2271SOL    HW3 9130   1.743   1.991   3.790  0.8591  1.5369  0.7436
 2271SOL    MW4 9131   1.813   1.950   3.821  0.2396  0.0006  0.1919
 2272SOL     OW 9132   2.084   2.033   3.715 -0.1526  0.3698 -0.0906
 2272SOL    HW2 9133   1.999   2.003   3.746 -0.2550  1.8438  1.0660
 2272SOL    HW3 9134   2.072   2.046   3.621 -0.5703 -1.5496 -0.3229
 2272SOL    MW4 9135   2.071   2.031   3.707 -0.2210  0.3114  0.0315
 2273SOL     OW 9136   2.065   2.307   3.867  0.0835  0.6079  0.2347
 2273SOL    HW2 9137   1.977   2.337   3.843  0.0409 -0.2148 -0.6663
 2273SOL    HW3 9138   2.074   2.222   3.825  1.5702  0.9833 -0.2587
 2273SOL    MW4 9139   2.055   2.300   3.858  0.2737  0.5491  0.0505
 2274SOL     OW 9140   1.848   2.441   3.757  0.0531 -0.4617  0.3813
 2274SOL    HW2 9141   1.867   2.529   3.790  0.4963 -0.1778 -0.6131
 2274SOL    HW3 9142   1.841   2.452   3.662  1.2570 -1.7027  0.1423
 2274SOL    MW4 9143   1.850   2.454   3.749  0.2702 -0.5879  0.2184
 2275SOL     OW 9144   1.864   2.697   3.891 -0.1886 -0.2559  0.0030
 2275SOL    HW2 9145   1.833   2.660   3.974  0.0170 -1.1582 -0.3096
 2275SOL    HW3 9146   1.792   2.751   3.859 -0.7828 -0.9812  0.1088
 2275SOL    MW4 9147   1.851   2.699   3.898 -0.2398 -0.4706 -0.0243
 2276SOL     OW 9148   2.101   2.812   3.810  0.4198  0.1024  0.1626
 2276SOL    HW2 9149   2.186   2.770   3.823 -0.7456 -2.1676  0.7268
 2276SOL    HW3 9150   2.040   2.759   3.861 -1.4823  1.1364 -0.9778
 2276SOL    MW4 9151   2.104   2.799   3.818  0.0153 -0.0603  0.0865
 2277SOL     OW 9152   2.080   3.083   3.851 -0.0540 -0.0466  0.3730
 2277SOL    HW2 9153   2.166   3.116   3.826 -0.0859 -0.5572 -0.4472
 2277SOL    HW3 9154   2.088   2.988   3.843 -0.8809 -0.0570 -0.3380
 2277SOL    MW4 9155   2.092   3.074   3.847 -0.1674 -0.1154  0.1707
 2278SOL     OW 9156   1.832   3.215   3.764 -0.2412  0.1529 -0.2959
 2278SOL    HW2 9157   1.907   3.162   3.792 -0.5224 -1.0034 -1.6526
 2278SOL    HW3 9158   1.756   3.167   3.797 -0.4609  0.2541 -0.6580
 2278SOL    MW4 9159   1.832   3.201   3.772 -0.3073  0.0136 -0.5226
 2279SOL     OW 9160   1.863   3.485   3.893  0.2827 -0.6094 -0.0524
 2279SOL    HW2 9161   1.948   3.522   3.870 -1.6245  1.9736 -3.4546
 2279SOL    HW3 9162   1.861   3.401   3.847  1.7482 -1.6480  1.7195
 2279SOL    MW4 9163   1.874   3.479   3.884  0.2244 -0.4055 -0.2677
 2280SOL     OW 9164   2.092   3.618   3.807  0.9066  0.0462  0.2919
 2280SOL    HW2 9165   2.168   3.560   3.814  1.5518  0.9517  0.9579
 2280SOL    HW3 9166   2.067   3.614   3.715  1.0910 -1.1037  0.2857
 2280SOL    MW4 9167   2.099   3.610   3.796  1.0161  0.0138  0.3791
 2281SOL     OW 9168   2.073   3.876   3.892  0.2613 -0.5410 -0.1748
 2281SOL    HW2 9169   2.144   3.930   3.856 -0.5563  0.1069 -0.8450
 2281SOL    HW3 9170   2.095   3.787   3.866  1.8880 -0.6360  1.3546
 2281SOL    MW4 9171   2.086   3.872   3.884  0.3679 -0.4675 -0.0613
 2282SOL     OW 9172   1.838   4.002   3.810 -0.0188 -0.4939  0.2018
 2282SOL    HW2 9173   1.910   3.949   3.843 -0.1301 -0.2455  0.8541
 2282SOL    HW3 9174   1.759   3.956   3.837 -0.1222  0.3288  1.3327
 2282SOL    MW4 9175   1.837   3.989   3.818 -0.0471 -0.3529  0.4373
 2283SOL     OW 9176   1.830   4.273   3.854  0.0691  0.1163  0.0572
 2283SOL    HW2 9177   1.918   4.311   3.842  1.0159 -1.9220  0.3596
 2283SOL    HW3 9178   1.841   4.180   3.834 -1.9691 -0.2239  0.4237
 2283SOL    MW4 9179   1.843   4.266   3.850 -0.0749 -0.1979  0.1452
 2284SOL     OW 9180   2.073   4.398   3.764  0.3044 -0.4228 -0.3625
 2284SOL    HW2 9181   2.159   4.360   3.781  0.4915  0.5610  1.0405
 2284SOL    HW3 9182   2.060   4.388   3.669  1.8670 -0.7649 -0.5520
 2284SOL    MW4 9183   2.082   4.392   3.754  0.5352 -0.3376 -0.2027
 2285SOL     OW 9184   2.490   4.654   3.841 -0.2684  0.5650  0.1607
 2285SOL    HW2 9185   2.487   4.649   3.936  0.6645  2.8841  0.3381
 2285SOL    HW3 9186   2.575   4.694   3.821 -1.3424  2.1102 -1.5242
 2285SOL    MW4 9187   2.501   4.659   3.851 -0.2868  1.0753 -0.0384
 2286SOL     OW 9188   2.263   0.135   3.761 -0.1258  0.0599  0.2404
 2286SOL    HW2 9189   2.336   0.081   3.793 -0.5073 -0.8524 -0.4096
 2286SOL    HW3 9190   2.273   0.134   3.666 -0.4373  0.7247  0.2001
 2286SOL    MW4 9191   2.274   0.127   3.752 -0.2172  0.0273  0.1495
 2287SOL     OW 9192   2.277   0.365   3.887 -0.4103  0.0026 -0.0163
 2287SOL    HW2 9193   2.283   0.279   3.846  1.1885  1.1800 -2.3091
 2287SOL    HW3 9194   2.190   0.397   3.862  0.1096  0.2330 -1.5923
 2287SOL    MW4 9195   2.266   0.358   3.878 -0.1307  0.1884 -0.5264
 2288SOL     OW 9196   2.486   0.495   3.762 -0.4577 -0.2515 -0.1759
 2288SOL    HW2 9197   2.407   0.451   3.793 -0.6912 -1.8509 -2.8943
 2288SOL    HW3 9198   2.489   0.476   3.668  2.2381  1.2446 -0.4462
 2288SOL    MW4 9199   2.476   0.487   3.753 -0.1328 -0.2651 -0.5701
 2289SOL     OW 9200   2.495   0.740   3.895  0.0668  0.2379  0.3748
 2289SOL    HW2 9201   2.431   0.781   3.837  0.8817  0.4268 -0.3977
 2289SOL    HW3 9202   2.498   0.648   3.867 -1.3121 -0.2322  1.7080
 2289SOL    MW4 9203   2.487   0.733   3.884 -0.0076  0.2007  0.4485
 2290SOL     OW 9204   2.307   0.877   3.744  0.3090  0.5221 -0.1596
 2290SOL    HW2 9205   2.237   0.834   3.794 -0.4471  0.9376 -0.8464
 2290SOL    HW3 9206   2.290   0.851   3.653  1.5114 -0.0007 -0.2409
 2290SOL    MW4 9207   2.295   0.868   3.739  0.3681  0.5080 -0.2608
 2291SOL     OW 9208   2.271   1.160   3.778  0.1054 -0.5105 -0.1116
 2291SOL    HW2 9209   2.282   1.159   3.873 -1.6016  1.5130  0.1170
 2291SOL    HW3 9210   2.270   1.067   3.754  0.0144 -1.0542  1.8908
 2291SOL    MW4 9211   2.272   1.147   3.787 -0.1318 -0.3152  0.1829
 2292SOL     OW 9212   2.513   1.286   3.719  0.1796 -0.1548 -0.2121
 2292SOL    HW2 9213   2.496   1.372   3.756  0.2544  0.8896 -2.5257
 2292SOL    HW3 9214   2.431   1.238   3.731 -0.1940  0.5701  0.1575
 2292SOL    MW4 9215   2.500   1.291   3.725  0.1404  0.0787 -0.4687
 2293SOL     OW 9216   2.485   1.544   3.824 -0.0979 -0.1896 -0.2129
 2293SOL    HW2 9217   2.568   1.574   3.787 -0.9303  0.4346 -1.5885
 2293SOL    HW3 9218   2.418   1.585   3.770 -1.2969 -1.4781  0.2648
 2293SOL    MW4 9219   2.487   1.553   3.812 -0.3660 -0.2773 -0.3314
 2294SOL     OW 9220   2.240   1.653   3.709  0.3306  0.4265 -0.3931
 2294SOL    HW2 9221   2.244   1.731   3.764 -3.1045  0.4447 -0.0989
 2294SOL    HW3 9222   2.181   1.593   3.756 -0.5783 -0.5863 -2.7579
 2294SOL    MW4 9223   2.233   1.655   3.723 -0.2425  0.2953 -0.6659
 2295SOL     OW 9224   2.262   1.882   3.842 -0.2603  0.4228  0.0670
 2295SOL    HW2 9225   2.232   1.893   3.933 -0.7296 -0.3601  0.0102
 2295SOL    HW3 9226   2.192   1.922   3.789 -0.8571 -0.7363 -0.0307
 2295SOL    MW4 9227   2.249   1.889   3.847 -0.4008  0.1665  0.0465
 2296SOL     OW 9228   2.480   2.029   3.714 -0.0014  0.1586 -0.0591
 2296SOL    HW2 9229   2.489   2.106   3.770 -0.7844 -0.6654  1.2632
 2296SOL    HW3 9230   2.401   1.985   3.748 -0.0959 -0.7184 -1.3887
 2296SOL    MW4 9231   2.471   2.033   3.726 -0.1173 -0.0660 -0.0598
 2297SOL     OW 9232   2.523   2.267   3.845 -0.1270 -0.1270  0.4542
 2297SOL    HW2 9233   2.602   2.308   3.810  0.2647 -1.1170  0.1645
 2297SOL    HW3 9234   2.451   2.318   3.808  0.3582  0.3891  0.2208
 2297SOL    MW4 9235   2.524   2.279   3.836 -0.0114 -0.1893  0.3848
 2298SOL     OW 9236   2.296   2.416   3.743 -0.2421  0.6503  0.3967
 2298SOL    HW2 9237   2.214   2.386   3.782 -0.0652  0.2661  0.4737
 2298SOL    HW3 9238   2.280   2.413   3.648 -0.2196  0.2982  0.4043
 2298SOL    MW4 9239   2.283   2.412   3.735 -0.2155  0.5531  0.4079
 2299SOL     OW 9240   2.338   2.671   3.839  0.3002 -0.2872 -0.7234
 2299SOL    HW2 9241   2.329   2.661   3.934  0.4052  1.3114 -0.5346
 2299SOL    HW3 9242   2.328   2.582   3.805 -0.9301 -0.7113  0.6845
 2299SOL    MW4 9243   2.336   2.658   3.847  0.1516 -0.1321 -0.5126
 2300SOL     OW 9244   2.552   2.824   3.755 -0.2514  0.1538 -0.5003
 2300SOL    HW2 9245   2.481   2.761   3.771  1.3107 -1.7316 -0.8094
 2300SOL    HW3 9246   2.548   2.841   3.661 -0.8060  0.6684 -0.3822
 2300SOL    MW4 9247   2.542   2.818   3.745 -0.1187 -0.0274 -0.5255
 2301SOL     OW 9248   2.525   3.093   3.891 -0.0399 -0.0520  0.1487
 2301SOL    HW2 9249   2.526   3.098   3.987  1.8437  2.0876  0.0652
 2301SOL    HW3 9250   2.534   3.000   3.872  3.2143 -0.2114  2.0598
 2301SOL    MW4 9251   2.527   3.082   3.901  0.6380  0.2091  0.3896
 2302SOL     OW 9252   2.330   3.219   3.737 -0.2373  0.3097 -0.4588
 2302SOL    HW2 9253   2.327   3.311   3.763 -1.5112  0.4162 -0.9497
 2302SOL    HW3 9254   2.402   3.182   3.787  0.8587  1.7900 -0.9182
 2302SOL    MW4 9255   2.339   3.226   3.747 -0.2608  0.5190 -0.5844
 2303SOL     OW 9256   2.323   3.468   3.843  0.3121 -0.1601  0.0655
 2303SOL    HW2 9257   2.311   3.474   3.938 -0.7710  2.4019 -0.1837
 2303SOL    HW3 9258   2.404   3.516   3.826  0.0747  0.0882 -0.3767
 2303SOL    MW4 9259   2.332   3.475   3.853  0.1378  0.2105 -0.0257
 2304SOL     OW 9260   2.550   3.617   3.777 -0.6751 -0.2666  0.1747
 2304SOL    HW2 9261   2.631   3.575   3.807 -1.5839 -1.4928  0.9740
 2304SOL    HW3 9262   2.548   3.601   3.683 -0.3290 -0.8385  0.2612
 2304SOL    MW4 9263   2.561   3.609   3.769 -0.7493 -0.5035  0.2916
 2305SOL     OW 9264   2.486   3.876   3.876  0.0384 -0.0194  0.1599
 2305SOL    HW2 9265   2.564   3.929   3.862 -0.2065  0.3086  0.0444
 2305SOL    HW3 9266   2.511   3.788   3.847 -0.2977  0.5231 -1.8309
 2305SOL    MW4 9267   2.499   3.872   3.871 -0.0381  0.0954 -0.1178
 2306SOL     OW 9268   2.275   4.011   3.725 -0.3593  0.0637  0.4680
 2306SOL    HW2 9269   2.348   3.953   3.749  0.1501  0.4974 -0.0052
 2306SOL    HW3 9270   2.265   3.998   3.630  0.2628  1.3114  0.2228
 2306SOL    MW4 9271   2.283   4.001   3.715 -0.2100  0.2851  0.3731
 2307SOL     OW 9272   2.311   4.264   3.838 -0.0632 -0.2661 -0.4262
 2307SOL    HW2 9273   2.281   4.248   3.927  0.2392 -0.0314 -0.2799
 2307SOL    HW3 9274   2.312   4.178   3.797  1.5345 -0.6271  0.3425
 2307SOL    MW4 9275   2.307   4.251   3.844  0.1876 -0.2823 -0.3054
 2308SOL     OW 9276   2.542   4.383   3.745  0.2360 -0.4739 -0.0561
 2308SOL    HW2 9277   2.469   4.337   3.785  0.7287 -1.3350 -0.1466
 2308SOL    HW3 9278   2.528   4.475   3.767  0.1859 -0.8689  1.5952
 2308SOL    MW4 9279   2.531   4.389   3.753  0.2942 -0.6399  0.1497
 2309SOL     OW 9280   2.924   4.613   3.866 -0.2728  0.2144  0.0491
 2309SOL    HW2 9281   2.920   4.595   3.960 -0.7081 -0.7007 -0.1497
 2309SOL    HW3 9282   3.002   4.669   3.857 -1.2829  1.8889  1.2041
 2309SOL    MW4 9283   2.934   4.618   3.877 -0.4635  0.3142  0.1752
 2310SOL     OW 9284   2.725   0.089   3.753 -0.1109 -0.2105  0.4070
 2310SOL    HW2 9285   2.798   0.034   3.782  1.2180  0.7770 -1.0008
 2310SOL    HW3 9286   2.716   0.069   3.660  0.6298  2.2408 -0.2005
 2310SOL    MW4 9287   2.733   0.079   3.745  0.1621  0.2432  0.1411
 2311SOL     OW 9288   2.678   0.343   3.872 -0.3059 -0.0223  0.2222
 2311SOL    HW2 9289   2.687   0.266   3.815 -0.0203  0.1831 -0.0088
 2311SOL    HW3 9290   2.610   0.396   3.830  0.8060  0.7553 -0.6337
 2311SOL    MW4 9291   2.670   0.340   3.859 -0.1216  0.1074  0.0787
 2312SOL     OW 9292   2.935   0.490   3.780  0.1685 -0.4168  0.5687
 2312SOL    HW2 9293   3.013   0.437   3.797 -0.2368 -1.1111  0.2676
 2312SOL    HW3 9294   2.864   0.442   3.821 -0.0295  0.4641  1.2626
 2312SOL    MW4 9295   2.936   0.476   3.787  0.0889 -0.3922  0.6204
 2313SOL     OW 9296   2.946   0.739   3.893  0.3156 -0.0767 -0.8319
 2313SOL    HW2 9297   3.011   0.782   3.838  1.3810 -0.9435 -0.2575
 2313SOL    HW3 9298   2.937   0.651   3.856  0.1015 -0.2483 -0.3805
 2313SOL    MW4 9299   2.953   0.733   3.881  0.4280 -0.2137 -0.6967
 2314SOL     OW 9300   2.724   0.843   3.789 -0.0369 -0.1380 -0.3007
 2314SOL    HW2 9301   2.801   0.803   3.827  0.4532 -0.8459 -2.0003
 2314SOL    HW3 9302   2.650   0.794   3.826  0.4076 -0.5397  0.0490
 2314SOL    MW4 9303   2.724   0.831   3.798  0.0865 -0.2844 -0.4790
 2315SOL     OW 9304   2.703   1.117   3.853 -0.2540 -0.0653  0.3624
 2315SOL    HW2 9305   2.703   1.024   3.830 -1.7569 -0.3680  1.5621
 2315SOL    HW3 9306   2.631   1.154   3.802 -0.5078  0.1893  0.9087
 2315SOL    MW4 9307   2.694   1.110   3.843 -0.4859 -0.0716  0.5927
 2316SOL     OW 9308   2.925   1.262   3.721 -0.1157 -0.2307  0.2366
 2316SOL    HW2 9309   2.951   1.347   3.756  2.0982 -0.6697 -0.2046
 2316SOL    HW3 9310   2.868   1.224   3.787  0.1229  0.9649  1.1349
 2316SOL    MW4 9311   2.921   1.268   3.734  0.2079 -0.1309  0.2971
 2317SOL     OW 9312   2.985   1.526   3.839 -0.2233 -0.2424 -0.1142
 2317SOL    HW2 9313   3.007   1.518   3.932 -1.1995  0.5450  0.1972
 2317SOL    HW3 9314   3.060   1.570   3.800 -0.9546  1.9160  0.8302
 2317SOL    MW4 9315   2.998   1.531   3.846 -0.4487  0.1463  0.0515
 2318SOL     OW 9316   2.745   1.637   3.744 -0.1223 -0.0870 -0.6990
 2318SOL    HW2 9317   2.825   1.589   3.764 -0.7317 -0.4683  0.9099
 2318SOL    HW3 9318   2.746   1.647   3.649  1.5026 -0.6578 -0.7577
 2318SOL    MW4 9319   2.756   1.632   3.734  0.0117 -0.2127 -0.4942
 2319SOL     OW 9320   2.713   1.894   3.833  0.0959 -0.1673 -0.2092
 2319SOL    HW2 9321   2.729   1.802   3.810  0.8224 -0.2446  0.6141
 2319SOL    HW3 9322   2.623   1.910   3.804 -0.1797 -1.2567  0.0331
 2319SOL    MW4 9323   2.703   1.884   3.826  0.1557 -0.3213 -0.0687
 2320SOL     OW 9324   2.930   2.045   3.747 -0.0070  0.1322 -0.1525
 2320SOL    HW2 9325   2.931   2.119   3.809 -0.0523  1.4674 -1.7101
 2320SOL    HW3 9326   2.853   1.994   3.772 -0.3936  1.0073  0.4967
 2320SOL    MW4 9327   2.920   2.048   3.758 -0.0639  0.4239 -0.2723
 2321SOL     OW 9328   2.938   2.276   3.886 -0.2199  0.1342  0.1040
 2321SOL    HW2 9329   2.930   2.303   3.977  1.1965  0.3127  0.1811
 2321SOL    HW3 9330   3.028   2.297   3.862 -0.4540 -0.3019 -1.2112
 2321SOL    MW4 9331   2.949   2.282   3.895 -0.0637  0.1001 -0.0591
 2322SOL     OW 9332   2.740   2.436   3.770 -0.3851 -0.7020  0.3310
 2322SOL    HW2 9333   2.741   2.518   3.818  1.8192 -0.5309  0.0435
 2322SOL    HW3 9334   2.824   2.395   3.790 -1.0373 -2.4360 -0.3139
 2322SOL    MW4 9335   2.751   2.441   3.779 -0.1802 -0.9084  0.2079
 2323SOL     OW 9336   2.741   2.671   3.900  0.0112  0.4445  0.7899
 2323SOL    HW2 9337   2.739   2.682   3.995 -0.6010  0.6140  0.7585
 2323SOL    HW3 9338   2.667   2.723   3.868 -0.6309 -0.7249  0.3334
 2323SOL    MW4 9339   2.731   2.679   3.908 -0.1545  0.3128  0.7257
 2324SOL     OW 9340   2.936   2.832   3.771 -0.1543  0.2270  0.5550
 2324SOL    HW2 9341   2.956   2.910   3.823 -0.5839  1.5988 -1.2776
 2324SOL    HW3 9342   2.874   2.783   3.825  1.1442  0.4587  2.3201
 2324SOL    MW4 9343   2.931   2.836   3.785 -0.0398  0.4387  0.5460
 2325SOL     OW 9344   2.959   3.064   3.919 -0.0190  0.0286  0.3447
 2325SOL    HW2 9345   3.030   3.128   3.916 -0.0260  0.0064 -0.3971
 2325SOL    HW3 9346   2.887   3.105   3.873 -0.1556 -0.3581  0.2080
 2325SOL    MW4 9347   2.959   3.078   3.913 -0.0377 -0.0255  0.2291
 2326SOL     OW 9348   2.756   3.223   3.778  0.4542  0.0594  0.0231
 2326SOL    HW2 9349   2.765   3.306   3.826 -0.4153  1.2276 -1.7648
 2326SOL    HW3 9350   2.668   3.192   3.800  1.0265 -0.7434  1.2153
 2326SOL    MW4 9351   2.746   3.230   3.787  0.4148  0.1075 -0.0553
 2327SOL     OW 9352   2.776   3.468   3.887 -0.6334  0.0365 -0.1719
 2327SOL    HW2 9353   2.760   3.452   3.980  0.7323  0.2495  0.1193
 2327SOL    HW3 9354   2.854   3.524   3.886 -0.6074 -0.0072 -1.4498
 2327SOL    MW4 9355   2.784   3.473   3.900 -0.4497  0.0589 -0.3021
 2328SOL     OW 9356   2.973   3.616   3.789  0.0769 -0.4143  0.7818
 2328SOL    HW2 9357   3.052   3.571   3.819  0.4059 -1.0396 -0.9518
 2328SOL    HW3 9358   2.977   3.610   3.693 -1.5723  0.4065  0.6440
 2328SOL    MW4 9359   2.984   3.609   3.780 -0.0973 -0.3886  0.5348
 2329SOL     OW 9360   2.965   3.865   3.884  0.3616  0.3456  0.3379
 2329SOL    HW2 9361   2.945   3.863   3.978  0.9711 -0.3622  0.4617
 2329SOL    HW3 9362   2.971   3.773   3.859  1.7040  0.5242 -0.0589
 2329SOL    MW4 9363   2.963   3.852   3.893  0.6192  0.2759  0.3021
 2330SOL     OW 9364   2.719   4.007   3.824 -0.1849  0.6177  0.0270
 2330SOL    HW2 9365   2.742   4.094   3.857 -0.4482  0.1962  1.3706
 2330SOL    HW3 9366   2.800   3.956   3.831 -0.1679  0.6040 -0.2569
 2330SOL    MW4 9367   2.733   4.012   3.829 -0.2172  0.5608  0.1669
 2331SOL     OW 9368   2.760   4.273   3.856 -0.1683  0.5105  0.4974
 2331SOL    HW2 9369   2.830   4.297   3.795 -1.1580  2.1139 -0.0331
 2331SOL    HW3 9370   2.683   4.321   3.825 -1.5753 -1.3778  0.9583
 2331SOL    MW4 9371   2.759   4.283   3.844 -0.4845  0.4725  0.4883
 2332SOL     OW 9372   2.980   4.381   3.720 -0.1614 -0.3611  1.2530
 2332SOL    HW2 9373   3.050   4.334   3.765  0.0606 -0.3779  0.8901
 2332SOL    HW3 9374   2.974   4.465   3.766  0.0439 -0.3900  1.3307
 2332SOL    MW4 9375   2.988   4.386   3.732 -0.1049 -0.3667  1.2155
 2333SOL     OW 9376   3.421   0.006   3.895 -0.2571  0.5531 -0.0541
 2333SOL    HW2 9377   3.415   0.017   3.990  1.7230 -0.3189  0.1957
 2333SOL    HW3 9378   3.498   0.057   3.870 -0.8082  0.8338 -1.2146
 2333SOL    MW4 9379   3.431   0.014   3.904 -0.0687  0.4749 -0.1743
 2334SOL     OW 9380   3.164   0.068   3.818 -0.1771  0.0327  0.4889
 2334SOL    HW2 9381   3.251   0.034   3.838  0.9759  2.0337 -0.8971
 2334SOL    HW3 9382   3.156   0.059   3.723 -1.2748  0.3200  0.5473
 2334SOL    MW4 9383   3.174   0.062   3.808 -0.1700  0.3346  0.3135
 2335SOL     OW 9384   3.163   0.353   3.864  0.0797  0.1452 -0.2348
 2335SOL    HW2 9385   3.149   0.358   3.959  0.2518 -0.6728 -0.1598
 2335SOL    HW3 9386   3.159   0.259   3.844  0.1146  0.3079 -1.0262
 2335SOL    MW4 9387   3.161   0.341   3.874  0.1073  0.0588 -0.3295
 2336SOL     OW 9388   3.416   0.472   3.763 -0.1201 -0.3169  0.6355
 2336SOL    HW2 9389   3.484   0.412   3.792 -0.1857 -0.6648  0.0811
 2336SOL    HW3 9390   3.334   0.429   3.789 -0.2337 -1.3070 -1.2943
 2336SOL    MW4 9391   3.414   0.458   3.770 -0.1435 -0.4935  0.3078
 2337SOL     OW 9392   3.370   0.751   3.853  0.6505  0.2976 -0.2063
 2337SOL    HW2 9393   3.380   0.748   3.948  0.8744  0.8140 -0.2165
 2337SOL    HW3 9394   3.385   0.660   3.825 -1.6363 -0.3261  0.4698
 2337SOL    MW4 9395   3.373   0.738   3.861  0.3781  0.2835 -0.1185
 2338SOL     OW 9396   3.139   0.850   3.747  0.6477 -0.2226  0.0071
 2338SOL    HW2 9397   3.220   0.809   3.779 -0.2036 -1.6235  0.4040
 2338SOL    HW3 9398   3.156   0.866   3.654  2.0447  1.1731  0.4768
 2338SOL    MW4 9399   3.152   0.846   3.739  0.7195 -0.2233  0.1216
 2339SOL     OW 9400   3.136   1.127   3.830  0.0611  0.2369  0.2316
 2339SOL    HW2 9401   3.145   1.036   3.803 -0.3781 -0.0290  0.9630
 2339SOL    HW3 9402   3.062   1.160   3.779  0.0392  0.1075  0.1800
 2339SOL    MW4 9403   3.128   1.119   3.820  0.0005  0.1849  0.3214
 2340SOL     OW 9404   3.398   1.259   3.774 -0.3665 -0.6894 -0.4636
 2340SOL    HW2 9405   3.317   1.212   3.792 -0.3665 -0.5853 -0.1813
 2340SOL    HW3 9406   3.401   1.268   3.679  0.6839 -3.1190 -0.6837
 2340SOL    MW4 9407   3.388   1.254   3.764 -0.2277 -0.9964 -0.4554
 2341SOL     OW 9408   3.438   1.537   3.823 -0.1453  0.0327  0.3528
 2341SOL    HW2 9409   3.361   1.568   3.775  0.4521  0.5078 -0.3254
 2341SOL    HW3 9410   3.425   1.442   3.831 -0.6848  0.0756  0.0313
 2341SOL    MW4 9411   3.426   1.529   3.817 -0.1376  0.1011  0.2208
 2342SOL     OW 9412   3.188   1.649   3.703 -0.2231  0.3674 -0.3394
 2342SOL    HW2 9413   3.181   1.734   3.747 -0.0233  0.7451 -1.0281
 2342SOL    HW3 9414   3.178   1.670   3.610  0.3347 -0.3041 -0.5506
 2342SOL    MW4 9415   3.186   1.663   3.696 -0.1233  0.3287 -0.4582
 2343SOL     OW 9416   3.154   1.884   3.858 -0.3567 -0.0205  0.6295
 2343SOL    HW2 9417   3.137   1.875   3.952 -0.7728  0.5392  0.6157
 2343SOL    HW3 9418   3.089   1.948   3.828 -0.8226 -0.8630 -0.2138
 2343SOL    MW4 9419   3.143   1.891   3.866 -0.4730 -0.0578  0.5164
 2344SOL     OW 9420   3.377   2.036   3.782 -0.3174 -0.0990 -0.1623
 2344SOL    HW2 9421   3.299   1.998   3.821 -1.3523  1.0282 -1.0944
 2344SOL    HW3 9422   3.366   2.024   3.688 -0.2737  1.7193 -0.4219
 2344SOL    MW4 9423   3.365   2.029   3.775 -0.4485  0.2894 -0.3197
 2345SOL     OW 9424   3.411   2.300   3.865 -0.0356  0.4983 -0.2375
 2345SOL    HW2 9425   3.331   2.344   3.837 -0.2786  0.7758  0.8700
 2345SOL    HW3 9426   3.402   2.210   3.835 -0.8972  0.4567  0.1463
 2345SOL    MW4 9427   3.400   2.294   3.858 -0.1814  0.5295 -0.0408
 2346SOL     OW 9428   3.162   2.414   3.791 -0.0568  0.3338 -0.1332
 2346SOL    HW2 9429   3.165   2.501   3.833 -1.7193  0.2848  0.1425
 2346SOL    HW3 9430   3.135   2.432   3.701 -0.1201  0.1355 -0.1545
 2346SOL    MW4 9431   3.159   2.428   3.785 -0.2847  0.3011 -0.0999
 2347SOL     OW 9432   3.144   2.685   3.908 -0.0558  0.2860 -0.0070
 2347SOL    HW2 9433   3.123   2.689   4.001  1.3734 -0.6272  0.3619
 2347SOL    HW3 9434   3.066   2.721   3.865 -0.7875  0.5834  1.5180
 2347SOL    MW4 9435   3.131   2.691   3.914  0.0362  0.2050  0.2427
 2348SOL     OW 9436   3.390   2.807   3.853 -0.1278 -0.0872  0.0589
 2348SOL    HW2 9437   3.309   2.775   3.893  0.2372 -0.2234  0.7019
 2348SOL    HW3 9438   3.372   2.811   3.759 -1.6818  2.1339  0.4098
 2348SOL    MW4 9439   3.377   2.803   3.846 -0.2847  0.1879  0.1903
 2349SOL     OW 9440   3.406   3.096   3.896 -0.0658 -1.0498 -0.4746
 2349SOL    HW2 9441   3.482   3.122   3.844  0.4472 -0.6215  0.4740
 2349SOL    HW3 9442   3.408   3.001   3.894  0.2165 -1.0402 -0.8637
 2349SOL    MW4 9443   3.417   3.087   3.889  0.0393 -0.9921 -0.4008
 2350SOL     OW 9444   3.186   3.239   3.792  0.1710 -0.1452 -0.0337
 2350SOL    HW2 9445   3.266   3.190   3.812 -0.1254 -0.7110 -0.2163
 2350SOL    HW3 9446   3.176   3.230   3.697  0.9892  1.6194 -0.2981
 2350SOL    MW4 9447   3.195   3.232   3.782  0.2398  0.0131 -0.0927
 2351SOL     OW 9448   3.198   3.496   3.915 -0.2845  0.3331  0.4311
 2351SOL    HW2 9449   3.289   3.519   3.894 -0.6902  1.7107  0.1292
 2351SOL    HW3 9450   3.190   3.404   3.890  1.1639  0.0574  0.9182
 2351SOL    MW4 9451   3.209   3.487   3.909 -0.1469  0.4787  0.4554
 2352SOL     OW 9452   3.428   3.607   3.794  0.2794  0.6071  0.1341
 2352SOL    HW2 9453   3.423   3.698   3.823  0.3069  0.7562 -0.3177
 2352SOL    HW3 9454   3.440   3.613   3.699 -0.7932  0.1236 -0.0428
 2352SOL    MW4 9455   3.429   3.619   3.785  0.1414  0.5629  0.0513
 2353SOL     OW 9456   3.417   3.880   3.929 -0.0123  0.3654  0.1045
 2353SOL    HW2 9457   3.484   3.933   3.886 -0.0312  0.7201  0.5195
 2353SOL    HW3 9458   3.335   3.907   3.887  0.1504 -0.3603 -0.6916
 2353SOL    MW4 9459   3.415   3.891   3.918  0.0064  0.3164  0.0544
 2354SOL     OW 9460   3.183   3.970   3.795  0.0311 -0.4434  0.5178
 2354SOL    HW2 9461   3.168   4.061   3.821  1.5595 -0.0712  0.1104
 2354SOL    HW3 9462   3.110   3.922   3.835 -1.4972  1.1326 -0.2940
 2354SOL    MW4 9463   3.171   3.976   3.804  0.0310 -0.1864  0.3572
 2355SOL     OW 9464   3.205   4.255   3.847 -0.5803 -0.1799 -0.3477
 2355SOL    HW2 9465   3.199   4.239   3.941  0.7390  0.0566 -0.2100
 2355SOL    HW3 9466   3.288   4.302   3.836 -0.8783  0.0653 -1.5889
 2355SOL    MW4 9467   3.215   4.259   3.858 -0.4456 -0.1163 -0.4933
 2356SOL     OW 9468   3.439   4.414   3.815  0.0733  0.5493  0.4396
 2356SOL    HW2 9469   3.523   4.370   3.829  0.5009  0.2317 -2.9015
 2356SOL    HW3 9470   3.447   4.497   3.862  2.2798  0.5422  0.1053
 2356SOL    MW4 9471   3.451   4.419   3.823  0.4210  0.5064 -0.0453
 2357SOL     OW 9472   3.847   4.653   3.914 -0.2315  0.0726  0.0594
 2357SOL    HW2 9473   3.910   4.712   3.873 -0.3102  0.7653  0.9145
 2357SOL    HW3 9474   3.864   4.568   3.874 -0.4663  0.7709 -1.5861
 2357SOL    MW4 9475   3.858   4.650   3.903 -0.2728  0.2561 -0.0451
 2358SOL     OW 9476   3.634   0.124   3.778 -0.1030 -0.3641 -0.4915
 2358SOL    HW2 9477   3.705   0.074   3.819 -1.5273 -1.1091  1.1169
 2358SOL    HW3 9478   3.625   0.086   3.691  0.8265 -0.9135 -0.3555
 2358SOL    MW4 9479   3.642   0.112   3.772 -0.1681 -0.5349 -0.2611
 2359SOL     OW 9480   3.629   0.360   3.909  0.3438  0.3076 -0.8033
 2359SOL    HW2 9481   3.704   0.403   3.867  0.6069  0.3670 -0.2795
 2359SOL    HW3 9482   3.629   0.271   3.873  0.1128  0.5850 -1.4952
 2359SOL    MW4 9483   3.639   0.354   3.899  0.3479  0.3520 -0.8254
 2360SOL     OW 9484   3.846   0.497   3.796 -0.0878  0.2609  0.3476
 2360SOL    HW2 9485   3.923   0.450   3.828  0.2060  1.5459  1.5634
 2360SOL    HW3 9486   3.850   0.581   3.840 -1.9997  0.4725  0.1188
 2360SOL    MW4 9487   3.857   0.502   3.806 -0.3011  0.4584  0.4778
 2361SOL     OW 9488   3.833   0.752   3.878 -0.5017 -0.1292 -0.0768
 2361SOL    HW2 9489   3.920   0.784   3.852  0.2839 -1.4936  0.8148
 2361SOL    HW3 9490   3.772   0.802   3.824  0.7570  1.9438  0.3672
 2361SOL    MW4 9491   3.837   0.763   3.867 -0.2317 -0.0358  0.0992
 2362SOL     OW 9492   3.604   0.882   3.751 -0.5185 -0.0638  0.1783
 2362SOL    HW2 9493   3.611   0.972   3.783  0.2834  0.1218 -0.4954
 2362SOL    HW3 9494   3.525   0.847   3.793 -1.4138  1.2825 -0.3720
 2362SOL    MW4 9495   3.594   0.889   3.761 -0.5307  0.1383  0.0165
 2363SOL     OW 9496   3.639   1.143   3.849  0.4284 -0.1070  0.3913
 2363SOL    HW2 9497   3.711   1.182   3.799  1.0937 -0.0358  1.3931
 2363SOL    HW3 9498   3.560   1.187   3.816  0.9399  0.4969 -0.0363
 2363SOL    MW4 9499   3.638   1.154   3.838  0.5836 -0.0179  0.4671
 2364SOL     OW 9500   3.868   1.262   3.736 -0.1641 -0.1456 -0.0960
 2364SOL    HW2 9501   3.929   1.205   3.783  0.4013  0.6300  0.1273
 2364SOL    HW3 9502   3.882   1.349   3.775 -0.5515  0.2671 -0.8699
 2364SOL    MW4 9503   3.878   1.266   3.747 -0.1407  0.0111 -0.1688
 2365SOL     OW 9504   3.902   1.540   3.829  0.0799  0.1646 -0.4664
 2365SOL    HW2 9505   3.919   1.540   3.923  0.3817  0.2990 -0.5214
 2365SOL    HW3 9506   3.819   1.587   3.819 -0.8501 -1.3824 -0.1004
 2365SOL    MW4 9507   3.893   1.546   3.840 -0.0031 -0.0218 -0.4253
 2366SOL     OW 9508   3.662   1.668   3.743  0.0130 -0.0377  0.2221
 2366SOL    HW2 9509   3.594   1.619   3.790 -0.4077  0.5318  0.2184
 2366SOL    HW3 9510   3.638   1.660   3.651 -0.0039  0.0861  0.2149
 2366SOL    MW4 9511   3.650   1.661   3.737 -0.0446  0.0539  0.2208
 2367SOL     OW 9512   3.625   1.924   3.861 -0.2185  0.1765 -0.3702
 2367SOL    HW2 9513   3.648   1.849   3.807  0.0795 -0.2949  0.4009
 2367SOL    HW3 9514   3.539   1.951   3.829 -0.4146 -0.6149 -0.5232
 2367SOL    MW4 9515   3.617   1.918   3.850 -0.2050  0.0099 -0.2885
 2368SOL     OW 9516   3.857   2.065   3.785 -0.4847  0.0750 -0.0180
 2368SOL    HW2 9517   3.937   2.020   3.813  0.0611  1.0335 -0.0431
 2368SOL    HW3 9518   3.786   2.015   3.827  0.0447 -1.5142 -0.9768
 2368SOL    MW4 9519   3.858   2.052   3.795 -0.3428 -0.0081 -0.1481
 2369SOL     OW 9520   3.853   2.322   3.883 -0.1522 -0.1717 -0.0488
 2369SOL    HW2 9521   3.773   2.355   3.841  0.7160  1.4654 -0.4406
 2369SOL    HW3 9522   3.859   2.230   3.854 -1.6432 -0.1718 -0.3727
 2369SOL    MW4 9523   3.843   2.314   3.873 -0.2344  0.0443 -0.1431
 2370SOL     OW 9524   3.625   2.453   3.772 -0.2514  0.3337 -0.3370
 2370SOL    HW2 9525   3.554   2.394   3.799 -0.0253 -0.2521 -0.9857
 2370SOL    HW3 9526   3.631   2.441   3.677  0.0420  1.1411 -0.4269
 2370SOL    MW4 9527   3.617   2.443   3.763 -0.1831  0.3631 -0.4344
 2371SOL     OW 9528   3.642   2.702   3.867 -0.3396 -0.4037  0.2907
 2371SOL    HW2 9529   3.638   2.613   3.830  1.2569 -0.3946  0.0513
 2371SOL    HW3 9530   3.556   2.739   3.847 -0.7956 -1.6616 -0.2037
 2371SOL    MW4 9531   3.630   2.695   3.859 -0.1888 -0.5686  0.1938
 2372SOL     OW 9532   3.871   2.831   3.777  0.0882  0.1170 -0.0292
 2372SOL    HW2 9533   3.937   2.789   3.831 -0.3013 -0.2017  0.2026
 2372SOL    HW3 9534   3.795   2.773   3.782 -0.1239  0.3521 -0.4947
 2372SOL    MW4 9535   3.870   2.818   3.785  0.0086  0.1061 -0.0601
 2373SOL     OW 9536   3.831   3.102   3.882 -0.3795 -0.2636 -0.1982
 2373SOL    HW2 9537   3.756   3.136   3.833 -0.2195 -1.0275 -0.9806
 2373SOL    HW3 9538   3.839   3.010   3.855 -0.1272 -0.6360  1.0632
 2373SOL    MW4 9539   3.822   3.094   3.872 -0.3247 -0.4134 -0.1349
 2374SOL     OW 9540   3.596   3.216   3.751 -0.1799  0.1633  0.1509
 2374SOL    HW2 9541   3.618   3.306   3.774  3.4401 -0.8103  0.8235
 2374SOL    HW3 9542   3.565   3.221   3.660 -0.5475  2.1164  0.3742
 2374SOL    MW4 9543   3.595   3.228   3.742  0.2489  0.2928  0.2694
 2375SOL     OW 9544   3.665   3.476   3.880 -0.2711  0.0604  0.4309
 2375SOL    HW2 9545   3.672   3.474   3.975  0.4997  0.6746  0.3868
 2375SOL    HW3 9546   3.586   3.528   3.863 -2.0022 -2.3620  0.7895
 2375SOL    MW4 9547   3.655   3.483   3.890 -0.3977 -0.1781  0.4721
 2376SOL     OW 9548   3.907   3.599   3.805 -0.5674 -0.0870  0.1763
 2376SOL    HW2 9549   3.899   3.685   3.847 -0.2790 -0.3110  0.6980
 2376SOL    HW3 9550   3.830   3.551   3.834 -1.7735  0.6671 -1.7276
 2376SOL    MW4 9551   3.896   3.604   3.814 -0.6883 -0.0172 -0.0062
 2377SOL     OW 9552   3.859   3.849   3.888  0.0345  0.0292  0.4804
 2377SOL    HW2 9553   3.842   3.868   3.981  0.9013  0.8417  0.4923
 2377SOL    HW3 9554   3.942   3.895   3.870 -0.2433  0.0583 -0.7530
 2377SOL    MW4 9555   3.868   3.858   3.898  0.1125  0.1402  0.3195
 2378SOL     OW 9556   3.637   3.994   3.806  0.0265  0.2756 -0.3715
 2378SOL    HW2 9557   3.638   4.087   3.827  0.0636  0.0463  0.7223
 2378SOL    HW3 9558   3.718   3.960   3.844 -0.4896 -0.3798  0.1716
 2378SOL    MW4 9559   3.648   4.002   3.814 -0.0365  0.1588 -0.1557
 2379SOL     OW 9560   3.665   4.261   3.875 -0.3026  0.2222  0.2066
 2379SOL    HW2 9561   3.645   4.269   3.968 -0.3231 -0.4904  0.2674
 2379SOL    HW3 9562   3.751   4.302   3.866 -1.6816  3.1592 -0.0308
 2379SOL    MW4 9563   3.674   4.267   3.886 -0.4871  0.5159  0.1833
 2380SOL     OW 9564   3.888   4.404   3.796 -0.0763 -0.3637 -0.4529
 2380SOL    HW2 9565   3.970   4.357   3.809  2.1743  3.2586 -0.9947
 2380SOL    HW3 9566   3.869   4.395   3.703  1.0722  0.9172 -0.8166
 2380SOL    MW4 9567   3.896   4.396   3.786  0.3722  0.2828 -0.5724
 2381SOL     OW 9568   4.270   4.648   3.913  0.3565  0.3028  0.2575
 2381SOL    HW2 9569   4.277   4.646   4.008  1.3482 -2.4042  0.1771
 2381SOL    HW3 9570   4.356   4.676   3.882  0.2685  0.4487  0.1401
 2381SOL    MW4 9571   4.282   4.651   3.921  0.4759 -0.0353  0.2315
 2382SOL     OW 9572   4.047   0.130   3.790  0.1337 -0.1014 -0.5647
 2382SOL    HW2 9573   4.120   0.077   3.822  0.6800  0.2095 -1.2874
 2382SOL    HW3 9574   4.037   0.106   3.698 -0.5936 -0.0506 -0.5073
 2382SOL    MW4 9575   4.055   0.120   3.782  0.1092 -0.0537 -0.6528
 2383SOL     OW 9576   4.102   0.397   3.882  0.0608  0.2586 -0.0997
 2383SOL    HW2 9577   4.083   0.399   3.976  0.4446  2.5904 -0.0455
 2383SOL    HW3 9578   4.093   0.305   3.858 -1.3477 -0.1691  1.9492
 2383SOL    MW4 9579   4.099   0.385   3.891 -0.0749  0.5099  0.1776
 2384SOL     OW 9580   4.342   0.488   3.827  0.1874  0.0140 -0.2249
 2384SOL    HW2 9581   4.250   0.471   3.847  0.1905 -0.7646 -0.8851
 2384SOL    HW3 9582   4.347   0.486   3.732  0.5971  1.6013 -0.2591
 2384SOL    MW4 9583   4.330   0.486   3.817  0.2418  0.1207 -0.3164
 2385SOL     OW 9584   4.330   0.780   3.880 -0.5031 -0.2015  0.5127
 2385SOL    HW2 9585   4.235   0.778   3.869 -0.7684 -3.0321  2.8345
 2385SOL    HW3 9586   4.360   0.694   3.851  1.1985  0.1760  1.0790
 2385SOL    MW4 9587   4.321   0.768   3.875 -0.3138 -0.5252  0.8938
 2386SOL     OW 9588   4.071   0.836   3.802  0.4356  0.4249  0.0579
 2386SOL    HW2 9589   4.092   0.928   3.821  1.4030  0.5322 -1.4557
 2386SOL    HW3 9590   4.051   0.835   3.708 -0.3664 -0.7726  0.2316
 2386SOL    MW4 9591   4.071   0.848   3.792  0.4573  0.2811 -0.1190
 2387SOL     OW 9592   4.095   1.105   3.858  0.3624 -0.3418 -0.6271
 2387SOL    HW2 9593   4.096   1.121   3.953 -0.8203 -1.3675 -0.4291
 2387SOL    HW3 9594   4.162   1.163   3.823  1.6641 -0.8336  0.9881
 2387SOL    MW4 9595   4.104   1.115   3.866  0.3777 -0.5420 -0.3874
 2388SOL     OW 9596   4.306   1.276   3.774  0.0645  0.2944  0.0768
 2388SOL    HW2 9597   4.308   1.369   3.794  0.8798  0.1841  0.5301
 2388SOL    HW3 9598   4.299   1.272   3.678 -1.6811  0.8153  0.1605
 2388SOL    MW4 9599   4.305   1.287   3.764 -0.0587  0.3487  0.1476
 2389SOL     OW 9600   4.302   1.535   3.855  0.4915  0.0424 -0.2742
 2389SOL    HW2 9601   4.232   1.597   3.837 -0.0749 -0.7546 -0.8831
 2389SOL    HW3 9602   4.379   1.572   3.814 -0.1454 -0.3228 -1.8122
 2389SOL    MW4 9603   4.303   1.548   3.848  0.3324 -0.1110 -0.5577
 2390SOL     OW 9604   4.108   1.695   3.761 -0.0770 -0.0565 -0.1515
 2390SOL    HW2 9605   4.103   1.781   3.803 -0.7310  0.3838 -1.1284
 2390SOL    HW3 9606   4.030   1.649   3.792  0.5050 -0.4751  0.7296
 2390SOL    MW4 9607   4.097   1.701   3.771 -0.0863 -0.0538 -0.1643
 2391SOL     OW 9608   4.084   1.933   3.896 -0.1176  0.2410  0.3410
 2391SOL    HW2 9609   4.073   1.936   3.991  0.8202 -0.4581  0.4754
 2391SOL    HW3 9610   4.170   1.971   3.879 -1.2137  2.5155 -0.4430
 2391SOL    MW4 9611   4.094   1.938   3.906 -0.1383  0.4489  0.2556
 2392SOL     OW 9612   4.312   2.069   3.795 -0.0833  0.4378  0.3433
 2392SOL    HW2 9613   4.309   2.158   3.831 -1.9410  0.5056  0.1056
 2392SOL    HW3 9614   4.292   2.080   3.702  0.7251 -0.1373  0.0983
 2392SOL    MW4 9615   4.309   2.083   3.788 -0.2222  0.3707  0.2794
 2393SOL     OW 9616   4.300   2.330   3.898 -0.1955  0.5628 -0.2103
 2393SOL    HW2 9617   4.290   2.358   3.989  1.6816 -0.0248  0.1875
 2393SOL    HW3 9618   4.218   2.357   3.856 -2.1687 -1.3630  2.2087
 2393SOL    MW4 9619   4.288   2.337   3.905 -0.2089  0.2313  0.1614
 2394SOL     OW 9620   4.080   2.450   3.777  0.2839 -0.0699 -0.1435
 2394SOL    HW2 9621   4.073   2.538   3.814 -0.1924 -0.5886  1.0138
 2394SOL    HW3 9622   4.008   2.401   3.817  1.0572 -1.2128 -0.1330
 2394SOL    MW4 9623   4.069   2.455   3.787  0.3228 -0.2890  0.0103
 2395SOL     OW 9624   4.053   2.699   3.925 -0.0935  0.3079 -0.3011
 2395SOL    HW2 9625   4.065   2.686   4.019 -0.5077  0.1300 -0.2721
 2395SOL    HW3 9626   4.140   2.722   3.893  0.2978 -0.7734 -0.0555
 2395SOL    MW4 9627   4.066   2.700   3.933 -0.0963  0.1414 -0.2649
 2396SOL     OW 9628   4.306   2.793   3.834 -0.4560 -0.7686 -0.0639
 2396SOL    HW2 9629   4.305   2.889   3.844  0.0746 -0.7154 -0.4342
 2396SOL    HW3 9630   4.387   2.766   3.878  0.3811 -0.8349 -1.5956
 2396SOL    MW4 9631   4.317   2.802   3.841 -0.2756 -0.7703 -0.3147
 2397SOL     OW 9632   4.328   3.066   3.858  0.0523  0.2036 -0.0113
 2397SOL    HW2 9633   4.260   3.133   3.848  0.4392  0.2251 -3.1726
 2397SOL    HW3 9634   4.409   3.111   3.834  1.0773 -0.0901  2.7579
 2397SOL    MW4 9635   4.330   3.081   3.853  0.2384  0.1676 -0.0629
 2398SOL     OW 9636   4.096   3.208   3.797  0.1348 -0.2111  0.1367
 2398SOL    HW2 9637   4.013   3.171   3.828  0.0718 -0.0797  0.1259
 2398SOL    HW3 9638   4.080   3.226   3.704  0.4192 -0.8847 -0.0507
 2398SOL    MW4 9639   4.083   3.205   3.789  0.1645 -0.2828  0.1106
 2399SOL     OW 9640   4.103   3.450   3.920 -0.2930  0.5334  0.2595
 2399SOL    HW2 9641   4.089   3.365   3.879  0.1241  0.3338  0.5298
 2399SOL    HW3 9642   4.042   3.509   3.876 -1.9641 -0.3266  1.3563
 2399SOL    MW4 9643   4.093   3.446   3.909 -0.4587  0.3936  0.4396
 2400SOL     OW 9644   4.288   3.615   3.811  0.1079  0.2717 -0.3363
 2400SOL    HW2 9645   4.223   3.570   3.864  0.2952  1.2471  0.7489
 2400SOL    HW3 9646   4.372   3.578   3.838  0.1157  0.0000 -0.7323
 2400SOL    MW4 9647   4.291   3.604   3.822  0.1340  0.3648 -0.2456
 2401SOL     OW 9648   4.306   3.878   3.898 -0.1978 -0.0155 -0.2282
 2401SOL    HW2 9649   4.233   3.920   3.853  0.2159  0.1161 -0.7796
 2401SOL    HW3 9650   4.309   3.790   3.860 -0.6628 -0.3281  0.4677
 2401SOL    MW4 9651   4.297   3.872   3.887 -0.2041 -0.0393 -0.2091
 2402SOL     OW 9652   4.084   4.000   3.822  0.0132 -0.3970  0.1906
 2402SOL    HW2 9653   4.111   4.088   3.849  0.3416 -0.8687  1.4189
 2402SOL    HW3 9654   4.074   4.007   3.727  1.0312  0.7087  0.1414
 2402SOL    MW4 9655   4.086   4.013   3.813  0.1912 -0.3138  0.3459
 2403SOL     OW 9656   4.138   4.276   3.872  0.3095 -0.2171 -0.1326
 2403SOL    HW2 9657   4.126   4.311   3.960 -1.2783 -1.0982  0.0136
 2403SOL    HW3 9658   4.206   4.332   3.833  1.1698  0.0376  1.7000
 2403SOL    MW4 9659   4.146   4.288   3.878  0.2136 -0.2995  0.1285
 2404SOL     OW 9660   4.346   4.419   3.744  0.3361  0.2431  0.5762
 2404SOL    HW2 9661   4.320   4.499   3.789  0.1466 -0.4247  1.6772
 2404SOL    HW3 9662   4.410   4.379   3.802  0.2358 -0.5413  0.1539
 2404SOL    MW4 9663   4.351   4.424   3.757  0.2975  0.0515  0.6659
 2405SOL     OW 9664   0.197   4.657   4.185 -0.1747  0.1961 -0.1407
 2405SOL    HW2 9665   0.282   4.693   4.207 -0.4262  0.3966  0.5259
 2405SOL    HW3 9666   0.200   4.567   4.219 -0.2252  0.2044 -0.1131
 2405SOL    MW4 9667   0.208   4.650   4.193 -0.2145  0.2236 -0.0491
 2406SOL     OW 9668   0.002   0.115   4.330 -0.2332  0.3158 -0.2504
 2406SOL    HW2 9669   0.026   0.108   4.422  0.2771 -0.4644 -0.4378
 2406SOL    HW3 9670   0.073   0.071   4.283 -0.1954  1.2096 -1.0592
 2406SOL    MW4 9671   0.014   0.108   4.336 -0.1609  0.3308 -0.3819
 2407SOL     OW 9672   0.024   0.366   4.208  0.1942 -0.1559 -0.3991
 2407SOL    HW2 9673   0.030   0.281   4.250 -0.4955 -0.3625 -0.7123
 2407SOL    HW3 9674   0.043   0.349   4.115  0.6849  0.1341 -0.3547
 2407SOL    MW4 9675   0.028   0.353   4.201  0.1679 -0.1449 -0.4349
 2408SOL     OW 9676   0.254   0.520   4.259 -0.0459 -0.3334 -0.0013
 2408SOL    HW2 9677   0.334   0.471   4.239  0.4204 -0.0965  1.2326
 2408SOL    HW3 9678   0.183   0.460   4.235  0.5118 -1.1992  0.4592
 2408SOL    MW4 9679   0.256   0.505   4.253  0.0892 -0.4164  0.2227
 2409SOL     OW 9680   0.244   0.792   4.172  0.1451  0.6680  0.0276
 2409SOL    HW2 9681   0.180   0.850   4.213 -0.6904  0.0774 -0.4118
 2409SOL    HW3 9682   0.242   0.713   4.226 -0.3343  0.2155 -0.6373
 2409SOL    MW4 9683   0.235   0.789   4.184 -0.0284  0.5305 -0.1183
 2410SOL     OW 9684   0.041   0.937   4.290 -0.8563  0.2453  0.1491
 2410SOL    HW2 9685  -0.020   0.878   4.246  0.1465 -0.6793 -0.0050
 2410SOL    HW3 9686   0.025   1.023   4.249 -2.8291  0.2646  0.8877
 2410SOL    MW4 9687   0.031   0.941   4.279 -0.9842  0.1259  0.2260
 2411SOL     OW 9688   4.468   1.180   4.172  0.5560  0.0717 -0.3940
 2411SOL    HW2 9689   4.539   1.242   4.192 -0.6607  1.7287 -1.1059
 2411SOL    HW3 9690   4.483   1.155   4.081  1.3428 -1.1099  0.0448
 2411SOL    MW4 9691   4.479   1.185   4.162  0.4992  0.1343 -0.4296
 2412SOL     OW 9692   0.200   1.329   4.241  0.0001  0.0724  0.2065
 2412SOL    HW2 9693   0.210   1.316   4.335 -1.1909 -3.5656 -0.0708
 2412SOL    HW3 9694   0.277   1.286   4.203 -0.2019  0.3480 -0.5160
 2412SOL    MW4 9695   0.211   1.321   4.248 -0.1837 -0.3712  0.0749
 2413SOL     OW 9696   0.103   1.540   4.611 -0.2888 -0.3426 -0.2171
 2413SOL    HW2 9697   0.185   1.544   4.661 -0.9225 -0.5226  0.8574
 2413SOL    HW3 9698   0.092   1.628   4.576  0.5330 -0.4037 -0.6539
 2413SOL    MW4 9699   0.112   1.552   4.613 -0.2640 -0.3746 -0.1330
 2414SOL     OW 9700   0.041   1.716   4.252 -0.2859  0.0380  0.2437
 2414SOL    HW2 9701  -0.020   1.651   4.217  0.4428  0.0868 -1.1212
 2414SOL    HW3 9702   0.034   1.790   4.192 -1.0680  1.2222  1.7531
 2414SOL    MW4 9703   0.032   1.717   4.240 -0.2930  0.2007  0.2627
 2415SOL     OW 9704   0.264   2.046   4.247  0.0380 -0.7047 -0.1133
 2415SOL    HW2 9705   0.285   2.057   4.339  1.4055 -0.1550 -0.4823
 2415SOL    HW3 9706   0.347   2.021   4.206 -0.4425 -0.4198 -1.2814
 2415SOL    MW4 9707   0.278   2.044   4.254  0.1550 -0.5946 -0.3161
 2416SOL     OW 9708   0.593   1.713   4.530  0.2838  0.0522  0.6713
 2416SOL    HW2 9709   0.597   1.803   4.564  1.1066  0.0299  0.6360
 2416SOL    HW3 9710   0.547   1.721   4.446 -0.3550  0.3248  1.0388
 2416SOL    MW4 9711   0.587   1.726   4.524  0.3081  0.0854  0.7153
 2417SOL     OW 9712   0.240   2.329   4.146 -0.3845  0.9074  0.2481
 2417SOL    HW2 9713   0.320   2.380   4.160  0.2141  0.2607 -0.8150
 2417SOL    HW3 9714   0.260   2.242   4.180 -0.5634  0.6790 -0.2330
 2417SOL    MW4 9715   0.253   2.324   4.152 -0.3291  0.7920  0.0448
 2418SOL     OW 9716   0.049   2.474   4.266  0.1336  0.0688 -0.6618
 2418SOL    HW2 9717  -0.041   2.449   4.242 -0.0295 -0.2724  0.2632
 2418SOL    HW3 9718   0.105   2.414   4.217 -0.1386  0.4849 -1.4795
 2418SOL    MW4 9719   0.044   2.463   4.257  0.0762  0.0787 -0.6475
 2419SOL     OW 9720   0.070   2.746   4.191  0.1003  0.2632 -0.5110
 2419SOL    HW2 9721   0.153   2.784   4.218 -0.2256  1.3214 -0.9451
 2419SOL    HW3 9722   0.075   2.654   4.216  1.4943  0.2676 -0.7605
 2419SOL    MW4 9723   0.081   2.739   4.198  0.2412  0.4036 -0.6008
 2420SOL     OW 9724   0.320   2.867   4.238  0.1582  0.7199 -0.0263
 2420SOL    HW2 9725   0.378   2.819   4.179 -1.2626 -0.6652 -0.3363
 2420SOL    HW3 9726   0.308   2.952   4.196  0.6890  0.4369 -0.7634
 2420SOL    MW4 9727   0.326   2.871   4.225  0.0407  0.4997 -0.1645
 2421SOL     OW 9728   0.267   3.132   4.142 -0.0457 -0.5812 -0.2035
 2421SOL    HW2 9729   0.339   3.186   4.175 -0.5275 -0.4628  0.6870
 2421SOL    HW3 9730   0.189   3.168   4.184 -0.9065  0.5298 -2.6809
 2421SOL    MW4 9731   0.266   3.144   4.152 -0.2228 -0.4187 -0.4125
 2422SOL     OW 9732   0.041   3.213   4.265  0.5429  0.1743 -0.5328
 2422SOL    HW2 9733  -0.047   3.187   4.239  0.8214 -1.3765  0.0018
 2422SOL    HW3 9734   0.041   3.308   4.260 -0.8287  0.1291 -1.6004
 2422SOL    MW4 9735   0.030   3.222   4.261  0.3987 -0.0362 -0.6027
 2423SOL     OW 9736   0.046   3.478   4.180  0.4782 -0.4684 -0.1995
 2423SOL    HW2 9737  -0.023   3.535   4.214  1.3984  0.9634 -0.6853
 2423SOL    HW3 9738   0.037   3.483   4.085 -0.1604 -2.0662 -0.2372
 2423SOL    MW4 9739   0.036   3.486   4.172  0.5155 -0.4904 -0.2685
 2424SOL     OW 9740   0.259   3.593   4.319  0.4711 -0.1170  0.4227
 2424SOL    HW2 9741   0.341   3.556   4.284  0.9817  1.5092 -0.1416
 2424SOL    HW3 9742   0.190   3.550   4.268  1.0436 -0.4132 -0.1125
 2424SOL    MW4 9743   0.261   3.582   4.308  0.6140  0.0584  0.2780
 2425SOL     OW 9744   0.290   3.868   4.191  0.2108  0.3762 -0.2703
 2425SOL    HW2 9745   0.212   3.918   4.214  1.3813  1.1138  2.2190
 2425SOL    HW3 9746   0.268   3.777   4.212 -0.7726  0.2375 -1.7915
 2425SOL    MW4 9747   0.277   3.863   4.197  0.2355  0.4554 -0.1431
 2426SOL     OW 9748   0.055   3.997   4.262  0.0559 -0.0903 -0.3487
 2426SOL    HW2 9749   0.045   4.010   4.356  3.0580 -0.2852  0.0389
 2426SOL    HW3 9750  -0.029   3.961   4.234 -0.5716 -0.8977  2.4152
 2426SOL    MW4 9751   0.043   3.994   4.270  0.3691 -0.2224  0.0672
 2427SOL     OW 9752   4.463   4.251   4.175  0.2697  0.4926 -0.0565
 2427SOL    HW2 9753   4.476   4.160   4.200  3.8755  1.1622  0.8379
 2427SOL    HW3 9754   4.480   4.253   4.081 -3.1255 -0.2756 -0.7345
 2427SOL    MW4 9755   4.467   4.239   4.166  0.2975  0.4792 -0.0277
 2428SOL     OW 9756   0.194   4.398   4.280 -0.4989 -0.4538  0.0739
 2428SOL    HW2 9757   0.180   4.385   4.374 -1.3993 -1.8845 -0.2399
 2428SOL    HW3 9758   0.134   4.336   4.238  0.7736 -0.7042 -1.4278
 2428SOL    MW4 9759   0.184   4.388   4.287 -0.4499 -0.6757 -0.1655
 2429SOL     OW 9760   0.694   4.604   4.146 -0.0355  0.4020  0.6347
 2429SOL    HW2 9761   0.620   4.661   4.168 -1.2825 -0.4001 -1.3222
 2429SOL    HW3 9762   0.698   4.606   4.050  2.0386 -0.1524  0.6743
 2429SOL    MW4 9763   0.685   4.612   4.136  0.0736  0.2232  0.3819
 2430SOL     OW 9764   0.465   0.087   4.206 -0.2550 -0.1043  0.0470
 2430SOL    HW2 9765   0.473   0.074   4.300 -1.8608  0.4076  0.2739
 2430SOL    HW3 9766   0.475   0.181   4.194 -1.3872  0.0097 -0.1174
 2430SOL    MW4 9767   0.467   0.098   4.217 -0.6163 -0.0217  0.0553
 2431SOL     OW 9768   0.487   0.374   4.177 -0.3539 -0.1468  0.1649
 2431SOL    HW2 9769   0.568   0.410   4.212  0.1900 -0.2280 -1.0213
 2431SOL    HW3 9770   0.492   0.389   4.083 -2.4135  1.2585  0.2438
 2431SOL    MW4 9771   0.498   0.380   4.169 -0.5539  0.0279  0.0191
 2432SOL     OW 9772   0.708   0.495   4.271 -0.4458 -0.2492  0.1220
 2432SOL    HW2 9773   0.767   0.451   4.210 -1.7365 -0.3021 -1.1028
 2432SOL    HW3 9774   0.706   0.586   4.242 -0.4572 -0.1078  0.5605
 2432SOL    MW4 9775   0.716   0.501   4.259 -0.6175 -0.2376  0.0186
 2433SOL     OW 9776   0.702   0.755   4.157 -0.0306 -0.3133 -0.3990
 2433SOL    HW2 9777   0.626   0.806   4.184  0.5645  0.1840  0.3657
 2433SOL    HW3 9778   0.688   0.738   4.064 -0.7066  0.4136 -0.4312
 2433SOL    MW4 9779   0.690   0.759   4.148 -0.0412 -0.1518 -0.3023
 2434SOL     OW 9780   0.488   0.932   4.172 -0.1755 -0.0404  0.1766
 2434SOL    HW2 9781   0.453   1.019   4.152 -0.0003 -0.0789 -0.3231
 2434SOL    HW3 9782   0.413   0.873   4.163 -0.5036  0.1692  1.4257
 2434SOL    MW4 9783   0.474   0.935   4.168 -0.1957 -0.0178  0.2756
 2435SOL     OW 9784   0.448   1.195   4.143 -0.2289  0.4944 -0.1375
 2435SOL    HW2 9785   0.526   1.219   4.193 -0.1593  1.4506 -0.7091
 2435SOL    HW3 9786   0.479   1.186   4.053 -1.2000  3.1119 -0.7759
 2435SOL    MW4 9787   0.462   1.197   4.138 -0.3479  0.9661 -0.2971
 2436SOL     OW 9788   0.690   1.281   4.264 -0.2895  0.0505  0.1973
 2436SOL    HW2 9789   0.724   1.286   4.353 -0.6976 -0.5430  0.3943
 2436SOL    HW3 9790   0.686   1.372   4.234  0.4807  0.1980  0.5426
 2436SOL    MW4 9791   0.694   1.294   4.272 -0.2417 -0.0083  0.2685
 2437SOL     OW 9792   0.676   1.531   4.152  0.0474 -0.4981  0.2249
 2437SOL    HW2 9793   0.761   1.567   4.175 -0.2208  0.1463  0.2107
 2437SOL    HW3 9794   0.675   1.530   4.056 -0.4763  0.7197  0.2181
 2437SOL    MW4 9795   0.687   1.535   4.142 -0.0570 -0.2524  0.2222
 2438SOL     OW 9796   0.259   1.582   4.158 -0.1841  0.2622  0.2110
 2438SOL    HW2 9797   0.242   1.494   4.192  0.3076  0.7849  1.8369
 2438SOL    HW3 9798   0.178   1.630   4.174 -0.0980  0.3913  0.2574
 2438SOL    MW4 9799   0.246   1.577   4.165 -0.1079  0.3481  0.4315
 2439SOL     OW 9800   0.514   1.976   4.146  0.6426 -0.0507  0.1714
 2439SOL    HW2 9801   0.506   1.889   4.185  0.1446 -0.0779  0.0118
 2439SOL    HW3 9802   0.500   1.961   4.053 -3.1406  0.7127  0.5631
 2439SOL    MW4 9803   0.511   1.962   4.139  0.0777  0.0465  0.2022
 2440SOL     OW 9804   0.739   2.094   4.268  0.6227 -0.2891 -0.2071
 2440SOL    HW2 9805   0.697   2.100   4.353  1.1912  1.3739 -0.0158
 2440SOL    HW3 9806   0.672   2.058   4.210  0.2230 -1.3751  0.9292
 2440SOL    MW4 9807   0.725   2.090   4.271  0.6450 -0.2129 -0.0319
 2441SOL     OW 9808   0.715   2.352   4.139 -0.0480  0.2624  0.1526
 2441SOL    HW2 9809   0.710   2.266   4.179 -0.4098  0.3951  0.3910
 2441SOL    HW3 9810   0.702   2.336   4.046  0.8190 -0.0481  0.0773
 2441SOL    MW4 9811   0.712   2.339   4.132  0.0187  0.2391  0.1740
 2442SOL     OW 9812   0.474   2.477   4.200  0.5369  0.3448 -0.3118
 2442SOL    HW2 9813   0.495   2.563   4.163  1.6407  0.4684  0.5636
 2442SOL    HW3 9814   0.548   2.422   4.174  0.9122  0.2279  0.9941
 2442SOL    MW4 9815   0.487   2.481   4.192  0.7321  0.3455 -0.0238
 2443SOL     OW 9816   0.499   2.720   4.091  0.2998 -0.4330  0.0418
 2443SOL    HW2 9817   0.579   2.770   4.110  0.4698 -0.5681 -0.3240
 2443SOL    HW3 9818   0.495   2.715   3.996 -1.3081  1.4552 -0.0316
 2443SOL    MW4 9819   0.509   2.726   4.081  0.1101 -0.2017 -0.0157
 2444SOL     OW 9820   0.726   2.849   4.157  0.0847  0.3824  0.0122
 2444SOL    HW2 9821   0.744   2.852   4.251  1.2516  0.8740 -0.2126
 2444SOL    HW3 9822   0.721   2.941   4.131  0.5845  0.2548 -0.5498
 2444SOL    MW4 9823   0.728   2.861   4.166  0.3045  0.4306 -0.0911
 2445SOL     OW 9824   0.694   3.117   4.094  0.3201 -0.1706  0.4337
 2445SOL    HW2 9825   0.775   3.151   4.131 -0.0687  0.0673  1.0717
 2445SOL    HW3 9826   0.625   3.160   4.144 -0.2092  0.0007 -0.4268
 2445SOL    MW4 9827   0.696   3.127   4.105  0.1990 -0.1166  0.4039
 2446SOL     OW 9828   0.493   3.246   4.253  0.0785 -0.2928  0.2114
 2446SOL    HW2 9829   0.518   3.237   4.345 -0.0532  0.1359  0.2904
 2446SOL    HW3 9830   0.487   3.341   4.239 -3.2143 -0.3669  0.6684
 2446SOL    MW4 9831   0.495   3.258   4.263 -0.3733 -0.2460  0.2823
 2447SOL     OW 9832   0.502   3.523   4.189  0.2995  0.2299 -0.3613
 2447SOL    HW2 9833   0.580   3.573   4.212  0.3614  0.2132 -0.5325
 2447SOL    HW3 9834   0.496   3.531   4.093  0.6013 -0.5119 -0.4473
 2447SOL    MW4 9835   0.511   3.530   4.179  0.3474  0.1299 -0.3948
 2448SOL     OW 9836   0.733   3.633   4.327 -0.3100 -0.0424  0.4948
 2448SOL    HW2 9837   0.778   3.638   4.411  0.6389 -1.1406  0.0540
 2448SOL    HW3 9838   0.777   3.563   4.279 -1.1464  0.2501 -0.7421
 2448SOL    MW4 9839   0.745   3.624   4.332 -0.2952 -0.1485  0.2737
 2449SOL     OW 9840   0.668   3.867   4.182  0.3529  0.0496  0.3364
 2449SOL    HW2 9841   0.615   3.920   4.242 -0.5521 -0.4472 -0.0053
 2449SOL    HW3 9842   0.677   3.783   4.226  0.1388 -0.1416  0.0166
 2449SOL    MW4 9843   0.662   3.863   4.196  0.2053 -0.0412  0.2494
 2450SOL     OW 9844   0.485   4.002   4.344 -0.2674 -0.1166 -0.0585
 2450SOL    HW2 9845   0.475   4.094   4.319  0.6007  0.2086  0.7444
 2450SOL    HW3 9846   0.427   3.954   4.285  0.1029  0.8378 -1.1954
 2450SOL    MW4 9847   0.476   4.008   4.333 -0.1040  0.0525 -0.1025
 2451SOL     OW 9848   0.431   4.261   4.243 -0.1709  0.1167 -0.2315
 2451SOL    HW2 9849   0.349   4.308   4.258  0.2819  0.6132  0.7449
 2451SOL    HW3 9850   0.446   4.266   4.148 -0.8900  0.6489 -0.3127
 2451SOL    MW4 9851   0.422   4.268   4.232 -0.2061  0.2522 -0.1135
 2452SOL     OW 9852   0.690   4.352   4.254 -0.4272 -0.1584  0.2271
 2452SOL    HW2 9853   0.597   4.329   4.251 -0.4462  0.0982 -1.0462
 2452SOL    HW3 9854   0.692   4.445   4.231  0.0592  0.1070  1.2790
 2452SOL    MW4 9855   0.678   4.362   4.251 -0.3655 -0.0896  0.1979
 2453SOL     OW 9856   1.115   4.582   4.194 -0.1746 -0.3719 -0.0753
 2453SOL    HW2 9857   1.148   4.498   4.226  1.1526 -0.1389 -0.7950
 2453SOL    HW3 9858   1.115   4.573   4.099 -2.8507 -0.5956 -0.0819
 2453SOL    MW4 9859   1.119   4.570   4.186 -0.3526 -0.3710 -0.1712
 2454SOL     OW 9860   0.909   0.084   4.244 -0.3643  0.0870  0.1399
 2454SOL    HW2 9861   0.984   0.029   4.221 -0.7523  0.3858 -1.9693
 2454SOL    HW3 9862   0.834   0.038   4.206 -0.6736  2.0996 -1.7737
 2454SOL    MW4 9863   0.909   0.070   4.236 -0.4563  0.3920 -0.3915
 2455SOL     OW 9864   0.887   0.325   4.110  0.5962  0.3748  0.4973
 2455SOL    HW2 9865   0.961   0.381   4.135  2.5327 -1.8317 -0.1478
 2455SOL    HW3 9866   0.895   0.249   4.167 -1.1667  0.0877  0.3725
 2455SOL    MW4 9867   0.898   0.323   4.121  0.6191  0.0458  0.3958
 2456SOL     OW 9868   1.123   0.451   4.188 -0.3882  0.0023 -0.2225
 2456SOL    HW2 9869   1.143   0.480   4.277  0.4277  0.0712 -0.4271
 2456SOL    HW3 9870   1.197   0.396   4.164 -0.2797  0.5258 -1.1073
 2456SOL    MW4 9871   1.135   0.448   4.197 -0.2663  0.0805 -0.3662
 2457SOL     OW 9872   1.130   0.732   4.114  0.6518  0.1690  0.3653
 2457SOL    HW2 9873   1.210   0.765   4.156  1.4459 -2.2431  0.7751
 2457SOL    HW3 9874   1.131   0.638   4.129 -1.2963 -0.1594 -1.3155
 2457SOL    MW4 9875   1.141   0.724   4.121  0.4995 -0.1926  0.1974
 2458SOL     OW 9876   0.914   0.888   4.228  0.3825  0.4829 -0.1229
 2458SOL    HW2 9877   0.986   0.838   4.188  0.0521  0.4985 -0.7556
 2458SOL    HW3 9878   0.835   0.839   4.204 -0.0056  1.6634 -1.3186
 2458SOL    MW4 9879   0.913   0.875   4.219  0.2877  0.6407 -0.3643
 2459SOL     OW 9880   0.896   1.133   4.114  0.0859  0.1115 -0.0535
 2459SOL    HW2 9881   0.906   1.045   4.153  1.4142  0.6155  0.7834
 2459SOL    HW3 9882   0.832   1.176   4.170 -0.5988 -0.3302 -0.4874
 2459SOL    MW4 9883   0.889   1.127   4.126  0.1708  0.1198 -0.0010
 2460SOL     OW 9884   1.155   1.241   4.170  0.0236 -0.7674 -0.8788
 2460SOL    HW2 9885   1.162   1.256   4.264  1.3639 -0.0267 -1.0813
 2460SOL    HW3 9886   1.067   1.206   4.158 -0.3923 -0.2690  0.5710
 2460SOL    MW4 9887   1.144   1.238   4.181  0.1454 -0.6040 -0.7143
 2461SOL     OW 9888   1.137   1.515   4.138 -0.4397  0.1504 -0.4496
 2461SOL    HW2 9889   1.053   1.531   4.182  1.3667  1.1791  2.7499
 2461SOL    HW3 9890   1.149   1.420   4.142 -0.0856  0.2557  1.8112
 2461SOL    MW4 9891   1.127   1.505   4.144 -0.1547  0.3000  0.2713
 2462SOL     OW 9892   0.901   1.645   4.266  0.4804  0.3386  0.4325
 2462SOL    HW2 9893   0.908   1.656   4.361 -1.1274 -0.7537  0.6907
 2462SOL    HW3 9894   0.933   1.728   4.231  0.9267  0.8255  1.9297
 2462SOL    MW4 9895   0.906   1.658   4.274  0.3271  0.2588  0.6647
 2463SOL     OW 9896   0.935   1.916   4.168 -0.0002  0.0845  0.2027
 2463SOL    HW2 9897   0.859   1.954   4.211 -0.5844 -1.8873  0.9321
 2463SOL    HW3 9898   0.920   1.932   4.074 -1.2488 -0.2149  0.3475
 2463SOL    MW4 9899   0.923   1.923   4.161 -0.2419 -0.2152  0.3185
 2464SOL     OW 9900   1.171   2.059   4.228 -0.5044  0.4041 -0.0567
 2464SOL    HW2 9901   1.218   2.028   4.305  0.6082  0.8702 -0.5362
 2464SOL    HW3 9902   1.094   2.002   4.222  0.3421 -0.8023  0.3535
 2464SOL    MW4 9903   1.167   2.047   4.237 -0.2460  0.3064 -0.0658
 2465SOL     OW 9904   1.166   2.313   4.113  0.0542  0.2722  0.9621
 2465SOL    HW2 9905   1.228   2.372   4.157  1.5490 -0.9570  0.5269
 2465SOL    HW3 9906   1.186   2.226   4.148 -1.7664 -0.0977  1.1822
 2465SOL    MW4 9907   1.176   2.309   4.124  0.0113  0.0610  0.9336
 2466SOL     OW 9908   0.962   2.453   4.206 -0.1148 -0.0777  0.1267
 2466SOL    HW2 9909   1.026   2.398   4.161 -0.3666 -0.4295  0.1943
 2466SOL    HW3 9910   0.878   2.413   4.185 -0.3380  0.5727 -0.2273
 2466SOL    MW4 9911   0.960   2.440   4.197 -0.1774 -0.0381  0.0887
 2467SOL     OW 9912   0.992   2.713   4.115 -0.1986  0.3743 -0.0551
 2467SOL    HW2 9913   0.971   2.627   4.152 -0.2308 -0.3870 -1.8373
 2467SOL    HW3 9914   0.913   2.765   4.128  0.0621  0.3763  1.6792
 2467SOL    MW4 9915   0.979   2.708   4.122 -0.1685  0.2742 -0.0615
 2468SOL     OW 9916   1.210   2.796   4.251 -0.3412  0.4026  0.0200
 2468SOL    HW2 9917   1.205   2.889   4.230 -0.7966  0.6948  1.3555
 2468SOL    HW3 9918   1.132   2.758   4.210 -0.2596  0.6404 -0.3582
 2468SOL    MW4 9919   1.199   2.803   4.243 -0.3904  0.4723  0.1469
 2469SOL     OW 9920   1.175   3.068   4.185  0.7995 -0.3588  0.0225
 2469SOL    HW2 9921   1.250   3.121   4.212  0.5284  0.4675 -0.8245
 2469SOL    HW3 9922   1.168   3.081   4.091 -0.9844  0.3517  0.2174
 2469SOL    MW4 9923   1.184   3.077   4.176  0.5285 -0.1562 -0.0634
 2470SOL     OW 9924   0.940   3.191   4.225 -0.0307 -0.2638 -0.2720
 2470SOL    HW2 9925   0.928   3.173   4.319  0.7057 -0.4295 -0.2063
 2470SOL    HW3 9926   1.029   3.161   4.206 -0.7859 -1.8469 -1.4290
 2470SOL    MW4 9927   0.950   3.185   4.235 -0.0332 -0.4945 -0.4168
 2471SOL     OW 9928   0.869   3.442   4.178 -0.1827  0.2994  0.4159
 2471SOL    HW2 9929   0.898   3.356   4.206 -1.8368  0.0269  1.3923
 2471SOL    HW3 9930   0.907   3.454   4.091 -0.0313 -1.4509  0.2347
 2471SOL    MW4 9931   0.878   3.433   4.170 -0.3809  0.0324  0.5207
 2472SOL     OW 9932   1.120   3.560   4.223 -0.3329 -0.0618 -0.0575
 2472SOL    HW2 9933   1.118   3.649   4.188 -1.4087 -0.0221  0.0844
 2472SOL    HW3 9934   1.029   3.531   4.220 -0.0490 -1.0084  0.2809
 2472SOL    MW4 9935   1.108   3.568   4.218 -0.4373 -0.1814  0.0062
 2473SOL     OW 9936   1.128   3.837   4.160  0.3066 -0.1671  0.0578
 2473SOL    HW2 9937   1.199   3.884   4.204  0.2217  0.5486 -0.5574
 2473SOL    HW3 9938   1.048   3.877   4.193  0.1077 -2.1217  2.0549
 2473SOL    MW4 9939   1.127   3.848   4.170  0.2692 -0.3304  0.2398
 2474SOL     OW 9940   0.912   3.983   4.238  0.3437 -0.2993  0.1315
 2474SOL    HW2 9941   0.913   4.078   4.231  0.4283 -0.2111  1.2621
 2474SOL    HW3 9942   0.824   3.958   4.209 -0.3606  0.2864  1.6991
 2474SOL    MW4 9943   0.900   3.992   4.233  0.2620 -0.2103  0.4873
 2475SOL     OW 9944   0.938   4.268   4.189  0.3047  0.1592 -0.3070
 2475SOL    HW2 9945   0.999   4.294   4.258  2.3694 -1.5179 -1.4315
 2475SOL    HW3 9946   0.852   4.292   4.222  1.3845  0.6449  2.2490
 2475SOL    MW4 9947   0.935   4.274   4.203  0.7196  0.0019 -0.1178
 2476SOL     OW 9948   1.187   4.381   4.360  0.0328  0.2574  0.2899
 2476SOL    HW2 9949   1.151   4.325   4.428  1.7703 -0.6298  0.4840
 2476SOL    HW3 9950   1.252   4.327   4.316 -0.4573  1.1030 -1.5252
 2476SOL    MW4 9951   1.191   4.366   4.363  0.1974  0.2518  0.0763
 2477SOL     OW 9952   1.565   4.653   4.097  0.4692 -0.2222 -0.4867
 2477SOL    HW2 9953   1.636   4.687   4.151  1.3679  0.8401 -2.2848
 2477SOL    HW3 9954   1.486   4.674   4.146  1.3537 -1.2622  1.4591
 2477SOL    MW4 9955   1.564   4.660   4.110  0.7045 -0.2189 -0.4673
 2478SOL     OW 9956   1.358   0.068   4.265  0.5324  0.2782  0.1681
 2478SOL    HW2 9957   1.367   0.072   4.360  0.4093  0.7020  0.1647
 2478SOL    HW3 9958   1.273   0.025   4.251  0.1466  1.0041  0.2617
 2478SOL    MW4 9959   1.348   0.063   4.275  0.4653  0.4299  0.1798
 2479SOL     OW 9960   1.353   0.314   4.129  0.5679  0.8998  0.2668
 2479SOL    HW2 9961   1.435   0.360   4.147  1.1033 -0.3756  1.1537
 2479SOL    HW3 9962   1.367   0.225   4.163 -0.5473  0.1569 -1.1362
 2479SOL    MW4 9963   1.365   0.308   4.135  0.4915  0.6335  0.1988
 2480SOL     OW 9964   1.592   0.432   4.241 -0.3754 -0.7019  0.2378
 2480SOL    HW2 9965   1.612   0.470   4.327 -1.8615 -1.0678  0.7601
 2480SOL    HW3 9966   1.590   0.508   4.182 -0.1605 -0.3420  0.6845
 2480SOL    MW4 9967   1.594   0.447   4.244 -0.5430 -0.7027  0.3657
 2481SOL     OW 9968   1.586   0.657   4.084 -0.4862  0.3499  0.2987
 2481SOL    HW2 9969   1.638   0.725   4.128  0.2299 -0.4643  0.7185
 2481SOL    HW3 9970   1.591   0.680   3.991 -0.0233  0.7237  0.4146
 2481SOL    MW4 9971   1.594   0.669   4.078 -0.3307  0.2918  0.3695
 2482SOL     OW 9972   1.382   0.789   4.237  0.1538  0.0264  0.5231
 2482SOL    HW2 9973   1.405   0.881   4.227 -0.5999  0.2017  0.3548
 2482SOL    HW3 9974   1.437   0.743   4.174 -0.0223  0.4473  0.0593
 2482SOL    MW4 9975   1.392   0.795   4.227  0.0311  0.1050  0.4396
 2483SOL     OW 9976   1.386   1.084   4.174  0.2415 -0.3400 -0.4849
 2483SOL    HW2 9977   1.304   1.128   4.192  1.0503  0.8930  0.2858
 2483SOL    HW3 9978   1.398   1.094   4.079 -0.4933 -0.5312 -0.5999
 2483SOL    MW4 9979   1.377   1.091   4.164  0.2512 -0.2023 -0.3986
 2484SOL     OW 9980   1.603   1.237   4.234  0.3851  0.4376  0.1522
 2484SOL    HW2 9981   1.610   1.215   4.327  0.4485  2.0029  0.5249
 2484SOL    HW3 9982   1.528   1.186   4.204  1.7674 -1.9007  0.4941
 2484SOL    MW4 9983   1.594   1.227   4.243  0.5759  0.3358  0.2460
 2485SOL     OW 9984   1.576   1.468   4.060  0.2890  0.2144  0.1813
 2485SOL    HW2 9985   1.513   1.526   4.105  1.4524  1.7213 -0.0847
 2485SOL    HW3 9986   1.581   1.390   4.116 -0.3686  0.8951  1.2155
 2485SOL    MW4 9987   1.568   1.466   4.073  0.3557  0.5031  0.2823
 2486SOL     OW 9988   1.380   1.623   4.209  0.2764 -0.3673  0.0829
 2486SOL    HW2 9989   1.372   1.714   4.181 -0.2869 -0.3579  0.2681
 2486SOL    HW3 9990   1.297   1.583   4.184  1.0595 -1.1754 -1.2756
 2486SOL    MW4 9991   1.368   1.630   4.202  0.3054 -0.4728 -0.0725
 2487SOL     OW 9992   1.374   1.899   4.119 -0.2245 -0.1734 -0.4891
 2487SOL    HW2 9993   1.453   1.938   4.157 -0.1803  0.6035 -1.3672
 2487SOL    HW3 9994   1.304   1.958   4.146 -0.1432  0.5829 -1.9176
 2487SOL    MW4 9995   1.375   1.912   4.128 -0.2079  0.0290 -0.7935
 2488SOL     OW 9996   1.608   2.003   4.212  0.7862 -0.3864 -0.5083
 2488SOL    HW2 9997   1.649   2.020   4.297 -0.2922 -1.2876  0.1991
 2488SOL    HW3 9998   1.575   2.088   4.183  1.5030 -0.0088 -0.2186
 2488SOL    MW4 9999   1.609   2.016   4.219  0.7384 -0.4556 -0.3772
 2489SOL     OW10000   1.559   2.267   4.150  0.0452  0.1543  0.2834
 2489SOL    HW210001   1.630   2.293   4.208  0.1869 -0.0536  0.2059
 2489SOL    HW310002   1.585   2.299   4.064 -0.0473  0.2472  0.2902
 2489SOL    MW410003   1.572   2.274   4.146  0.0516  0.1392  0.2732
 2490SOL     OW10004   1.370   2.459   4.230 -0.2250 -0.7416 -0.0621
 2490SOL    HW210005   1.405   2.539   4.190  1.5324 -0.1880  2.4961
 2490SOL    HW310006   1.440   2.394   4.219  0.0558 -0.7376  1.5525
 2490SOL    MW410007   1.384   2.461   4.223  0.0440 -0.6678  0.4883
 2491SOL     OW10008   1.446   2.720   4.131  0.2298  1.2430 -0.1905
 2491SOL    HW210009   1.515   2.750   4.191  0.5690  0.9912 -0.4511
 2491SOL    HW310010   1.365   2.751   4.171  0.4243  0.8273  0.5621
 2491SOL    MW410011   1.445   2.728   4.144  0.3003  1.1549 -0.1254
 2492SOL     OW10012   1.661   2.838   4.268 -0.0555  0.0690  0.1019
 2492SOL    HW210013   1.662   2.860   4.361 -3.8806  0.1206  0.2467
 2492SOL    HW310014   1.653   2.922   4.223  1.6849  0.0391 -0.2898
 2492SOL    MW410015   1.660   2.852   4.274 -0.3303  0.0718  0.0696
 2493SOL     OW10016   1.611   3.080   4.106  0.1337 -0.6428 -0.3339
 2493SOL    HW210017   1.689   3.121   4.142 -0.2130 -0.2795  0.0046
 2493SOL    HW310018   1.539   3.112   4.160 -0.1561 -1.6313 -0.1152
 2493SOL    MW410019   1.612   3.089   4.118  0.0497 -0.7255 -0.2604
 2494SOL     OW10020   1.403   3.202   4.268  0.1359  0.2630  0.6178
 2494SOL    HW210021   1.402   3.187   4.363 -1.7568 -0.2790  0.5340
 2494SOL    HW310022   1.393   3.296   4.259  0.9768  0.3892  0.9697
 2494SOL    MW410023   1.402   3.212   4.279 -0.0029  0.2081  0.6533
 2495SOL     OW10024   1.385   3.463   4.182 -0.0224 -0.4595  0.1964
 2495SOL    HW210025   1.298   3.494   4.208 -0.8438 -2.7286  0.2245
 2495SOL    HW310026   1.385   3.471   4.086  0.0174  0.2428  0.2531
 2495SOL    MW410027   1.374   3.469   4.172 -0.1254 -0.6661  0.2074
 2496SOL     OW10028   1.618   3.601   4.250  0.2099 -0.2500 -0.0020
 2496SOL    HW210029   1.636   3.560   4.335  0.1465 -1.3937 -0.5347
 2496SOL    HW310030   1.544   3.553   4.214 -0.1512  0.6174 -0.4517
 2496SOL    MW410031   1.611   3.590   4.256  0.1538 -0.2866 -0.1316
 2497SOL     OW10032   1.568   3.855   4.161  0.1293  0.7775 -0.3717
 2497SOL    HW210033   1.491   3.897   4.201 -0.2119  0.4818 -0.7167
 2497SOL    HW310034   1.574   3.770   4.204 -0.0519  0.5847 -0.7307
 2497SOL    MW410035   1.559   3.850   4.172  0.0604  0.7129 -0.4649
 2498SOL     OW10036   1.333   3.967   4.277  0.2211 -0.1239 -0.0691
 2498SOL    HW210037   1.296   3.947   4.363  2.7441 -0.0420  1.0778
 2498SOL    HW310038   1.348   4.061   4.279  0.8997 -0.2248 -0.3318
 2498SOL    MW410039   1.330   3.977   4.289  0.6435 -0.1264  0.0477
 2499SOL     OW10040   1.362   4.244   4.196 -0.8007 -0.2815  0.2757
 2499SOL    HW210041   1.449   4.282   4.181 -0.1722 -0.9576  2.1083
 2499SOL    HW310042   1.327   4.230   4.108  0.8004  0.3141 -0.4824
 2499SOL    MW410043   1.369   4.247   4.182 -0.5064 -0.2918  0.4182
 2500SOL     OW10044   1.600   4.410   4.237  0.1115  0.3956  0.5760
 2500SOL    HW210045   1.602   4.490   4.184  0.8665  0.5863  0.8771
 2500SOL    HW310046   1.671   4.357   4.201 -0.1285  0.0307  0.6426
 2500SOL    MW410047   1.610   4.414   4.225  0.1794  0.3729  0.6247
 2501SOL     OW10048   2.036   4.617   4.132  0.2040 -0.2506 -0.3537
 2501SOL    HW210049   1.961   4.653   4.179 -0.2119 -2.3744  0.6780
 2501SOL    HW310050   2.021   4.642   4.040 -2.3165 -1.4939 -0.3364
 2501SOL    MW410051   2.024   4.625   4.126 -0.1833 -0.6948 -0.2155
 2502SOL     OW10052   1.780   0.051   4.258 -0.1022  0.3191  0.0001
 2502SOL    HW210053   1.756   0.068   4.349 -3.3315 -0.4235 -0.6520
 2502SOL    HW310054   1.796   0.137   4.221  0.9594  0.6477  1.1545
 2502SOL    MW410055   1.779   0.064   4.265 -0.3883  0.2645  0.0668
 2503SOL     OW10056   1.821   0.325   4.138 -0.1047  0.1676 -0.1515
 2503SOL    HW210057   1.890   0.386   4.166 -0.7933  0.6334  0.5594
 2503SOL    HW310058   1.744   0.352   4.187 -0.5742 -0.9205 -0.2775
 2503SOL    MW410059   1.820   0.337   4.148 -0.2575  0.0855 -0.0744
 2504SOL     OW10060   2.043   0.494   4.203 -0.1160  0.0378 -0.4060
 2504SOL    HW210061   2.041   0.491   4.298 -0.8381  1.1246 -0.3758
 2504SOL    HW310062   2.127   0.454   4.179  0.0528 -0.2666  0.6795
 2504SOL    MW410063   2.054   0.488   4.212 -0.1891  0.1410 -0.2589
 2505SOL     OW10064   2.066   0.759   4.124 -0.2451 -0.2147  0.2029
 2505SOL    HW210065   2.137   0.806   4.166  0.1347 -1.2012  0.6740
 2505SOL    HW310066   2.076   0.668   4.153 -0.1837 -0.8496 -1.7101
 2505SOL    MW410067   2.076   0.753   4.133 -0.1869 -0.4287  0.0129
 2506SOL     OW10068   1.803   0.828   4.210  0.2314 -0.2431  0.0481
 2506SOL    HW210069   1.824   0.922   4.205 -0.7139 -0.1454 -2.6368
 2506SOL    HW310070   1.880   0.784   4.174 -0.1913 -0.3845 -0.6863
 2506SOL    MW410071   1.816   0.835   4.205  0.0510 -0.2489 -0.4029
 2507SOL     OW10072   1.818   1.095   4.123 -0.0440  0.4185  0.3967
 2507SOL    HW210073   1.893   1.145   4.154  0.7949 -0.0618 -0.7760
 2507SOL    HW310074   1.743   1.132   4.168  0.9679  0.5512  2.0057
 2507SOL    MW410075   1.818   1.106   4.133  0.2002  0.3726  0.4539
 2508SOL     OW10076   2.067   1.229   4.211  0.3952 -0.1948  0.0340
 2508SOL    HW210077   2.137   1.184   4.164 -0.0843 -0.4095 -0.4730
 2508SOL    HW310078   2.069   1.319   4.177 -1.3353 -0.8828 -1.9598
 2508SOL    MW410079   2.076   1.235   4.200  0.1037 -0.3139 -0.2956
 2509SOL     OW10080   2.012   1.497   4.104  0.1805 -0.4342 -0.1460
 2509SOL    HW210081   2.098   1.535   4.122 -0.7439  2.0021 -0.6980
 2509SOL    HW310082   2.011   1.483   4.010  0.0394 -0.5795 -0.1226
 2509SOL    MW410083   2.023   1.500   4.094  0.0396 -0.1320 -0.2155
 2510SOL     OW10084   1.793   1.641   4.182 -0.1799 -0.0548  0.0202
 2510SOL    HW210085   1.872   1.594   4.155 -0.0253 -0.2332  0.7615
 2510SOL    HW310086   1.721   1.587   4.148 -0.0196 -1.3727  1.6775
 2510SOL    MW410087   1.794   1.627   4.174 -0.1383 -0.2522  0.3366
 2511SOL     OW10088   1.824   1.897   4.072  0.4480  0.2164 -0.6865
 2511SOL    HW210089   1.826   1.808   4.107  1.0932  0.0927 -1.0286
 2511SOL    HW310090   1.741   1.933   4.102 -0.4367 -0.9635 -1.6502
 2511SOL    MW410091   1.813   1.890   4.080  0.4164  0.0445 -0.8588
 2512SOL     OW10092   2.021   2.041   4.214 -0.0789  0.4656 -0.1880
 2512SOL    HW210093   2.094   1.999   4.169 -0.1880 -1.8969  1.7812
 2512SOL    HW310094   1.945   2.018   4.161  0.2797  0.9752 -0.9420
 2512SOL    MW410095   2.021   2.033   4.201 -0.0458  0.2210 -0.0277
 2513SOL     OW10096   2.016   2.360   4.335  0.2772  0.5048  0.2146
 2513SOL    HW210097   2.033   2.279   4.382 -1.4055 -0.1434 -0.2733
 2513SOL    HW310098   2.080   2.361   4.264  0.6923 -0.0937  0.5746
 2513SOL    MW410099   2.027   2.350   4.332  0.1101  0.3405  0.1974
 2514SOL     OW10100   1.749   2.390   4.301  0.0076 -0.1363 -0.1464
 2514SOL    HW210101   1.723   2.434   4.382  0.7363  0.3202 -0.1566
 2514SOL    HW310102   1.842   2.371   4.312  0.3600  0.8284 -1.2793
 2514SOL    MW410103   1.758   2.394   4.313  0.1503  0.0513 -0.2971
 2515SOL     OW10104   1.835   2.638   4.179 -0.9744  0.0537 -0.3383
 2515SOL    HW210105   1.829   2.551   4.217  0.9662  0.4283  0.9410
 2515SOL    HW310106   1.761   2.686   4.217 -0.5940 -0.3375  0.9514
 2515SOL    MW410107   1.824   2.633   4.189 -0.6682  0.0513  0.0010
 2516SOL     OW10108   2.029   2.831   4.174  0.0503  0.2017  0.1330
 2516SOL    HW210109   2.039   2.842   4.269  1.3709  0.2178  0.0115
 2516SOL    HW310110   1.956   2.770   4.164 -0.5262  0.7124  1.1351
 2516SOL    MW410111   2.021   2.825   4.186  0.1483  0.2713  0.2494
 2517SOL     OW10112   2.056   3.097   4.129 -0.1482 -0.2731 -0.0377
 2517SOL    HW210113   2.044   3.003   4.143 -0.8083 -0.6267 -2.7662
 2517SOL    HW310114   2.062   3.107   4.034  0.3440  2.4074  0.2320
 2517SOL    MW410115   2.055   3.086   4.119 -0.1705  0.0341 -0.3614
 2518SOL     OW10116   1.817   3.210   4.223  0.8174  0.4667 -0.2092
 2518SOL    HW210117   1.823   3.304   4.203  1.0374  0.4700 -0.1318
 2518SOL    HW310118   1.900   3.174   4.191  0.7185  0.2929 -0.2691
 2518SOL    MW410119   1.829   3.218   4.216  0.8333  0.4442 -0.2074
 2519SOL     OW10120   1.826   3.468   4.159  0.0254 -0.1879 -0.1047
 2519SOL    HW210121   1.749   3.519   4.183 -0.3177 -0.3512 -0.8354
 2519SOL    HW310122   1.827   3.469   4.063  0.8828 -0.2583 -0.1018
 2519SOL    MW410123   1.816   3.475   4.150  0.0932 -0.2189 -0.2007
 2520SOL     OW10124   2.050   3.585   4.250  0.3731 -0.1165 -0.4943
 2520SOL    HW210125   2.055   3.677   4.224  1.1015 -0.1509 -0.4848
 2520SOL    HW310126   1.966   3.555   4.214  0.7151  0.2076 -1.5994
 2520SOL    MW410127   2.039   3.593   4.242  0.5145 -0.0782 -0.6390
 2521SOL     OW10128   2.048   3.857   4.185 -0.3442 -0.3792  0.1486
 2521SOL    HW210129   1.972   3.909   4.212  0.9618  1.4023  0.4816
 2521SOL    HW310130   2.065   3.884   4.095  0.1721 -0.4563  0.2208
 2521SOL    MW410131   2.040   3.867   4.177 -0.1042 -0.1545  0.2022
 2522SOL     OW10132   1.807   3.982   4.252 -0.4515 -0.2952 -0.2036
 2522SOL    HW210133   1.794   4.071   4.220  0.3269  0.1402  0.6575
 2522SOL    HW310134   1.732   3.933   4.219 -0.3249  0.4295 -1.6025
 2522SOL    MW410135   1.796   3.988   4.243 -0.3321 -0.1423 -0.2747
 2523SOL     OW10136   1.795   4.246   4.131 -0.0746 -0.2075 -0.2264
 2523SOL    HW210137   1.871   4.292   4.168 -0.3677  1.0173 -1.1290
 2523SOL    HW310138   1.813   4.244   4.037 -0.3556 -1.4246 -0.2571
 2523SOL    MW410139   1.808   4.252   4.124 -0.1503 -0.2060 -0.3495
 2524SOL     OW10140   2.030   4.361   4.255 -0.2203 -0.8323  0.4800
 2524SOL    HW210141   2.064   4.384   4.341  0.0857 -1.4907  0.5451
 2524SOL    HW310142   2.019   4.444   4.210  0.5405 -0.5398  0.8178
 2524SOL    MW410143   2.033   4.375   4.260 -0.0796 -0.8802  0.5336
 2525SOL     OW10144   2.482   4.637   4.113 -0.0700  0.1089  0.5685
 2525SOL    HW210145   2.560   4.675   4.153  0.1450 -0.4242  0.6666
 2525SOL    HW310146   2.485   4.544   4.138  0.6888 -0.4781 -1.6354
 2525SOL    MW410147   2.493   4.629   4.122  0.0584 -0.0391  0.2904
 2526SOL     OW10148   2.263   0.101   4.237  0.0041  0.1924  0.6912
 2526SOL    HW210149   2.336   0.075   4.181  0.5824  2.1413  0.5176
 2526SOL    HW310150   2.190   0.046   4.208  0.9609 -0.5713 -0.2896
 2526SOL    MW410151   2.263   0.090   4.225  0.2067  0.3488  0.5393
 2527SOL     OW10152   2.289   0.388   4.166  0.2696 -0.0874  0.2419
 2527SOL    HW210153   2.275   0.303   4.209 -1.0642  0.1335  0.2568
 2527SOL    HW310154   2.285   0.368   4.073  0.6370 -0.1527  0.2394
 2527SOL    MW410155   2.287   0.374   4.160  0.1421 -0.0669  0.2432
 2528SOL     OW10156   2.525   0.471   4.259  0.6986  0.1924 -0.6480
 2528SOL    HW210157   2.521   0.503   4.349 -0.3943  0.2909 -0.7209
 2528SOL    HW310158   2.433   0.455   4.235  1.0907 -1.3487 -1.2008
 2528SOL    MW410159   2.512   0.473   4.268  0.6061  0.0021 -0.7310
 2529SOL     OW10160   2.529   0.747   4.159  0.0202 -0.2483 -0.1832
 2529SOL    HW210161   2.534   0.653   4.177 -2.3200 -0.2629  0.5000
 2529SOL    HW310162   2.511   0.752   4.065 -0.2336 -0.4835 -0.1472
 2529SOL    MW410163   2.527   0.735   4.149 -0.3219 -0.2813 -0.0882
 2530SOL     OW10164   2.304   0.898   4.168 -0.0499  0.2831  0.3292
 2530SOL    HW210165   2.296   0.918   4.261  1.0635  0.7824  0.3305
 2530SOL    HW310166   2.376   0.835   4.164 -0.5396 -0.2563 -0.1364
 2530SOL    MW410167   2.313   0.892   4.180  0.0324  0.2777  0.2680
 2531SOL     OW10168   2.289   1.144   4.048  0.0880 -0.4332  0.3982
 2531SOL    HW210169   2.361   1.197   4.083  0.1711 -0.3761  0.1410
 2531SOL    HW310170   2.296   1.060   4.094 -2.2089  0.9610  3.4644
 2531SOL    MW410171   2.299   1.140   4.058 -0.2038 -0.2419  0.7691
 2532SOL     OW10172   2.505   1.265   4.182  0.0610 -0.0529  0.2096
 2532SOL    HW210173   2.510   1.280   4.276 -0.5794 -1.6819  0.5219
 2532SOL    HW310174   2.590   1.227   4.159  0.4588  0.9436  0.0042
 2532SOL    MW410175   2.517   1.262   4.191  0.0291 -0.1365  0.2246
 2533SOL     OW10176   2.532   1.543   4.108  0.3186 -0.2023  0.1913
 2533SOL    HW210177   2.522   1.449   4.120  0.1216 -0.3828 -1.2660
 2533SOL    HW310178   2.506   1.559   4.017 -1.1666  1.4861  0.8730
 2533SOL    MW410179   2.527   1.533   4.098  0.0966 -0.0033  0.0892
 2534SOL     OW10180   2.257   1.621   4.155  0.2445 -0.1558  0.2288
 2534SOL    HW210181   2.245   1.619   4.250 -0.7770 -1.1702  0.0979
 2534SOL    HW310182   2.339   1.574   4.140 -0.1660 -0.9771  0.5354
 2534SOL    MW410183   2.266   1.615   4.165  0.0553 -0.3980  0.2518
 2535SOL     OW10184   2.249   1.892   4.119  0.5113 -0.1085  0.4074
 2535SOL    HW210185   2.335   1.921   4.149  0.4321  0.4596  0.0884
 2535SOL    HW310186   2.248   1.798   4.137  1.4755 -0.2498 -0.2740
 2535SOL    MW410187   2.260   1.883   4.126  0.6282 -0.0522  0.2761
 2536SOL     OW10188   2.504   2.009   4.190 -0.0900 -0.0708  0.2610
 2536SOL    HW210189   2.503   1.979   4.281  2.3600  1.5166  0.8309
 2536SOL    HW310190   2.589   1.982   4.156 -0.8835 -0.4405 -1.5255
 2536SOL    MW410191   2.515   2.001   4.197  0.1285  0.0901  0.1001
 2537SOL     OW10192   2.453   2.253   4.115 -0.1658  0.1595 -0.0318
 2537SOL    HW210193   2.459   2.165   4.151  2.4259  0.0152 -0.7009
 2537SOL    HW310194   2.490   2.245   4.027 -1.5056  1.5724 -0.7431
 2537SOL    MW410195   2.459   2.241   4.108 -0.0010  0.3269 -0.2141
 2538SOL     OW10196   2.195   2.383   4.107  0.7480  0.2914  0.3288
 2538SOL    HW210197   2.279   2.338   4.115 -0.0306 -1.0241  1.1276
 2538SOL    HW310198   2.161   2.356   4.022  0.1538 -0.8671  0.9259
 2538SOL    MW410199   2.202   2.374   4.097  0.5667 -0.0348  0.5131
 2539SOL     OW10200   2.263   2.679   4.111 -0.4751 -0.1402 -0.2049
 2539SOL    HW210201   2.233   2.588   4.109 -0.3217 -0.1792 -1.3886
 2539SOL    HW310202   2.195   2.726   4.158 -0.0604 -1.0415  1.3218
 2539SOL    MW410203   2.250   2.673   4.117 -0.3998 -0.2644 -0.1597
 2540SOL     OW10204   2.479   2.808   4.192  0.4231  0.4721 -0.2492
 2540SOL    HW210205   2.456   2.806   4.285  1.5088  0.2648  0.0156
 2540SOL    HW310206   2.406   2.764   4.149  0.5934 -0.7273  0.6515
 2540SOL    MW410207   2.466   2.802   4.199  0.5889  0.2863 -0.0954
 2541SOL     OW10208   2.520   3.075   4.161  0.3952  0.0658  0.5904
 2541SOL    HW210209   2.450   3.118   4.210  1.1634  0.5265  1.2973
 2541SOL    HW310210   2.505   2.981   4.176  0.1351  0.1759  1.0432
 2541SOL    MW410211   2.509   3.068   4.170  0.4625  0.1411  0.7434
 2542SOL     OW10212   2.274   3.213   4.245  0.4336  0.4905  0.1261
 2542SOL    HW210213   2.268   3.289   4.188 -0.9379  0.6980  0.5400
 2542SOL    HW310214   2.217   3.148   4.204  0.9080 -0.0059  0.2535
 2542SOL    MW410215   2.266   3.214   4.232  0.3150  0.4523  0.1984
 2543SOL     OW10216   2.244   3.469   4.101  0.3723  0.2990  0.1063
 2543SOL    HW210217   2.323   3.501   4.144  0.4867  0.4648 -0.2275
 2543SOL    HW310218   2.173   3.520   4.140  0.4053  0.0184  0.5441
 2543SOL    MW410219   2.245   3.480   4.112  0.3920  0.2840  0.1202
 2544SOL     OW10220   2.461   3.591   4.248  0.0310  0.7857 -0.1220
 2544SOL    HW210221   2.495   3.616   4.334 -1.5993 -0.7001  0.9910
 2544SOL    HW310222   2.443   3.674   4.204  0.4245  1.5609  1.1521
 2544SOL    MW410223   2.464   3.605   4.253 -0.1321  0.6921  0.1926
 2545SOL     OW10224   2.457   3.871   4.156 -0.0393 -0.1346 -0.4086
 2545SOL    HW210225   2.538   3.906   4.194 -0.0398 -0.9536  0.3866
 2545SOL    HW310226   2.474   3.869   4.062  0.7318  0.0632 -0.2813
 2545SOL    MW410227   2.470   3.875   4.149  0.0622 -0.2165 -0.2871
 2546SOL     OW10228   2.247   4.008   4.305  0.1721  0.0609  0.3715
 2546SOL    HW210229   2.320   3.972   4.254  1.0800  1.1476  0.8803
 2546SOL    HW310230   2.169   3.966   4.269  0.7531  1.1557 -2.1952
 2546SOL    MW410231   2.247   3.998   4.294  0.3684  0.3490  0.1001
 2547SOL     OW10232   2.223   4.213   4.122 -0.2132 -0.0779 -0.6159
 2547SOL    HW210233   2.240   4.132   4.171  1.4960  0.2506 -0.6106
 2547SOL    HW310234   2.154   4.257   4.172 -0.8515 -1.3240 -0.3811
 2547SOL    MW410235   2.216   4.209   4.135 -0.0718 -0.1988 -0.5846
 2548SOL     OW10236   2.444   4.387   4.205  0.1498 -0.0786  0.4226
 2548SOL    HW210237   2.524   4.342   4.177  0.2702  1.9057 -2.6960
 2548SOL    HW310238   2.373   4.331   4.174  0.3231  0.5670 -1.1951
 2548SOL    MW410239   2.446   4.373   4.197  0.1884  0.2680 -0.2027
 2549SOL     OW10240   2.936   4.627   4.162  0.0965  0.3103  0.5130
 2549SOL    HW210241   2.994   4.683   4.213 -1.1457  0.9050  1.3267
 2549SOL    HW310242   2.948   4.540   4.200  2.0923 -0.0228 -0.8081
 2549SOL    MW410243   2.945   4.623   4.174  0.1962  0.3448  0.4463
 2550SOL     OW10244   2.708   0.088   4.226  0.4387 -0.4078 -0.3311
 2550SOL    HW210245   2.715   0.183   4.214  1.2231 -0.4189  0.0013
 2550SOL    HW310246   2.787   0.053   4.185 -0.2692 -0.9901 -1.2097
 2550SOL    MW410247   2.719   0.096   4.219  0.4489 -0.4861 -0.4029
 2551SOL     OW10248   2.764   0.345   4.155 -0.2375 -0.2966  0.2608
 2551SOL    HW210249   2.682   0.390   4.178 -0.0712  0.0844  0.1148
 2551SOL    HW310250   2.760   0.337   4.059 -0.6146 -1.2696  0.3462
 2551SOL    MW410251   2.753   0.350   4.145 -0.2651 -0.3748  0.2532
 2552SOL     OW10252   2.933   0.489   4.337  0.6743  0.4283  0.3778
 2552SOL    HW210253   2.945   0.565   4.280 -0.2394  0.4460  0.2049
 2552SOL    HW310254   2.855   0.445   4.302  0.2693  0.2939  1.4576
 2552SOL    MW410255   2.924   0.493   4.325  0.5004  0.4129  0.4978
 2553SOL     OW10256   2.947   0.723   4.188  0.1530 -0.3309 -0.6612
 2553SOL    HW210257   3.030   0.763   4.215 -1.0653  2.1075 -0.4080
 2553SOL    HW310258   2.953   0.718   4.093 -0.1724  1.6689 -0.8128
 2553SOL    MW410259   2.959   0.728   4.179 -0.0505  0.2546 -0.6475
 2554SOL     OW10260   2.742   0.895   4.217  0.2027  0.1862 -0.2305
 2554SOL    HW210261   2.808   0.825   4.222 -1.2843 -1.3676 -1.8755
 2554SOL    HW310262   2.663   0.852   4.185 -1.2485  2.3054  0.3839
 2554SOL    MW410263   2.740   0.880   4.214 -0.1850  0.2608 -0.3667
 2555SOL     OW10264   2.749   1.152   4.119 -0.3137  0.1014 -0.3356
 2555SOL    HW210265   2.756   1.062   4.151  0.0283 -0.0101 -0.7152
 2555SOL    HW310266   2.745   1.143   4.023  1.6685  0.5801 -0.4869
 2555SOL    MW410267   2.749   1.139   4.110 -0.0069  0.1498 -0.4053
 2556SOL     OW10268   2.954   1.269   4.249 -0.1154  0.5502 -0.1606
 2556SOL    HW210269   3.020   1.217   4.204  0.4842 -0.2583  1.5840
 2556SOL    HW310270   2.871   1.239   4.213  0.4073  0.7737 -1.5732
 2556SOL    MW410271   2.952   1.258   4.239  0.0324  0.4731 -0.1168
 2557SOL     OW10272   3.010   1.512   4.119 -0.2760 -0.0170 -0.0120
 2557SOL    HW210273   3.072   1.545   4.184 -0.8591 -0.3232  0.7047
 2557SOL    HW310274   2.989   1.423   4.149  0.8799 -0.8544 -1.6333
 2557SOL    MW410275   3.015   1.504   4.132 -0.2005 -0.1677 -0.1316
 2558SOL     OW10276   2.770   1.656   4.182  0.1502  0.2535  0.6505
 2558SOL    HW210277   2.849   1.605   4.161 -1.1555 -1.2404 -0.8384
 2558SOL    HW310278   2.698   1.599   4.155 -1.4855  1.1110  3.0581
 2558SOL    MW410279   2.771   1.641   4.175 -0.2379  0.1695  0.7720
 2559SOL     OW10280   2.771   1.919   4.117 -0.1340  0.0746 -0.0372
 2559SOL    HW210281   2.758   1.826   4.136  1.5159 -0.1768 -0.0471
 2559SOL    HW310282   2.777   1.923   4.022  0.7526  0.0490  0.0132
 2559SOL    MW410283   2.770   1.907   4.107  0.2005  0.0380 -0.0324
 2560SOL     OW10284   2.950   2.057   4.257 -0.2204  0.0726  0.6309
 2560SOL    HW210285   2.947   2.150   4.237  0.1895 -0.2621 -1.0259
 2560SOL    HW310286   2.873   2.020   4.213  0.4338 -0.6055  0.0480
 2560SOL    MW410287   2.939   2.064   4.249 -0.0801 -0.0610  0.3357
 2561SOL     OW10288   2.908   2.319   4.162  0.3302  0.0617 -0.2414
 2561SOL    HW210289   2.982   2.379   4.170  1.2417 -1.0415 -0.2406
 2561SOL    HW310290   2.837   2.361   4.211  1.3003  0.5674  0.7322
 2561SOL    MW410291   2.908   2.333   4.169  0.5782 -0.0174 -0.1130
 2562SOL     OW10292   2.622   2.420   4.301 -0.3560 -0.0805  0.2001
 2562SOL    HW210293   2.552   2.470   4.343 -0.6598 -2.0363  2.1251
 2562SOL    HW310294   2.576   2.354   4.248  0.0458  0.4785 -0.8654
 2562SOL    MW410295   2.607   2.418   4.299 -0.3431 -0.2649  0.3133
 2563SOL     OW10296   2.727   2.695   4.167 -0.4406  0.4403 -0.0513
 2563SOL    HW210297   2.712   2.623   4.228  0.4111 -0.1219 -0.4881
 2563SOL    HW310298   2.646   2.744   4.167 -2.5546 -2.8204 -2.8176
 2563SOL    MW410299   2.715   2.692   4.175 -0.6070 -0.0641 -0.4740
 2564SOL     OW10300   2.921   2.829   4.328 -0.4579  0.3784  0.2333
 2564SOL    HW210301   2.907   2.776   4.407  0.3863 -0.3486 -0.0919
 2564SOL    HW310302   2.849   2.805   4.270  0.8173 -1.6768 -0.5612
 2564SOL    MW410303   2.910   2.819   4.331 -0.1783  0.0114  0.0858
 2565SOL     OW10304   2.968   3.077   4.187 -0.1975  0.0315  0.4119
 2565SOL    HW210305   2.948   2.988   4.214  1.2477 -0.7243 -0.9123
 2565SOL    HW310306   2.975   3.072   4.091  0.0023  1.5400  0.3282
 2565SOL    MW410307   2.966   3.065   4.178  0.0196  0.1309  0.2255
 2566SOL     OW10308   2.735   3.206   4.293 -0.2166 -0.0449 -0.6727
 2566SOL    HW210309   2.818   3.179   4.253 -0.6487 -0.6558 -1.1624
 2566SOL    HW310310   2.668   3.156   4.246 -0.6986 -1.0375  1.0600
 2566SOL    MW410311   2.737   3.196   4.281 -0.3371 -0.2563 -0.5088
 2567SOL     OW10312   2.712   3.460   4.173 -0.2616  0.1722 -0.0695
 2567SOL    HW210313   2.722   3.376   4.219  0.9813  1.2352  1.6716
 2567SOL    HW310314   2.635   3.501   4.214 -1.0363 -0.2118 -1.1092
 2567SOL    MW410315   2.703   3.454   4.184 -0.2000  0.2615  0.0229
 2568SOL     OW10316   2.943   3.568   4.291 -0.2138  0.2087  0.4039
 2568SOL    HW210317   2.917   3.578   4.383 -1.0703 -0.7950  0.2819
 2568SOL    HW310318   2.870   3.520   4.251  0.3280  0.3091 -0.7133
 2568SOL    MW410319   2.930   3.563   4.298 -0.2553  0.0894  0.2408
 2569SOL     OW10320   2.920   3.843   4.159 -0.2088 -0.4228 -0.4075
 2569SOL    HW210321   2.996   3.886   4.199  0.7716 -1.1235 -1.5207
 2569SOL    HW310322   2.920   3.755   4.196 -1.6682  0.1815  1.1314
 2569SOL    MW410323   2.930   3.837   4.169 -0.2723 -0.4354 -0.3514
 2570SOL     OW10324   2.696   3.990   4.246 -0.6893 -0.2483 -0.2387
 2570SOL    HW210325   2.730   4.075   4.218 -1.3566 -0.4046 -1.5640
 2570SOL    HW310326   2.761   3.927   4.217 -1.6059 -0.4556 -1.9208
 2570SOL    MW410327   2.709   3.993   4.239 -0.8981 -0.2961 -0.6361
 2571SOL     OW10328   2.690   4.276   4.146  0.8314  0.1813  0.2454
 2571SOL    HW210329   2.759   4.325   4.190  1.9354 -0.2980 -0.9073
 2571SOL    HW310330   2.720   4.270   4.055 -0.7603  0.0171 -0.2758
 2571SOL    MW410331   2.703   4.282   4.140  0.7670  0.0963  0.0238
 2572SOL     OW10332   2.892   4.393   4.317 -0.2338  0.2327 -0.0351
 2572SOL    HW210333   2.828   4.425   4.381  0.8141  0.6017  0.8454
 2572SOL    HW310334   2.927   4.313   4.358  2.2660  1.8243  1.0434
 2572SOL    MW410335   2.888   4.386   4.331  0.2341  0.4916  0.2232
 2573SOL     OW10336   3.365   0.037   4.193 -0.0598  0.1341 -0.4413
 2573SOL    HW210337   3.440   0.078   4.236 -0.0865  0.7937 -1.0132
 2573SOL    HW310338   3.370  -0.055   4.219 -0.2022  0.5609  1.1448
 2573SOL    MW410339   3.376   0.030   4.202 -0.0820  0.2774 -0.3076
 2574SOL     OW10340   3.119   0.116   4.293  0.2667  1.0027 -0.2553
 2574SOL    HW210341   3.118   0.098   4.388 -1.3658 -2.2338 -0.7963
 2574SOL    HW310342   3.203   0.082   4.263 -0.4121 -0.5961 -0.3832
 2574SOL    MW410343   3.130   0.109   4.302 -0.0381  0.3647 -0.3438
 2575SOL     OW10344   3.142   0.370   4.155  0.3011 -0.1656  0.7216
 2575SOL    HW210345   3.142   0.282   4.194 -0.4047 -0.5339 -0.0927
 2575SOL    HW310346   3.075   0.418   4.203 -0.0084 -0.3738  0.4952
 2575SOL    MW410347   3.133   0.365   4.167  0.1669 -0.2417  0.5841
 2576SOL     OW10348   3.352   0.483   4.273 -0.1018  0.2624 -0.0351
 2576SOL    HW210349   3.433   0.450   4.233  0.7764  2.0782  0.1593
 2576SOL    HW310350   3.282   0.440   4.225  0.9667 -1.8749  0.2411
 2576SOL    MW410351   3.354   0.473   4.262  0.1550  0.2200  0.0272
 2577SOL     OW10352   3.392   0.742   4.148  0.3622 -0.1152 -0.3833
 2577SOL    HW210353   3.321   0.786   4.196  0.5076  0.8217 -1.0222
 2577SOL    HW310354   3.402   0.658   4.193  0.3176  0.6367  1.0611
 2577SOL    MW410355   3.384   0.736   4.161  0.3755  0.1076 -0.2770
 2578SOL     OW10356   3.190   0.877   4.253  0.4918 -0.2288  0.0675
 2578SOL    HW210357   3.169   0.895   4.344 -0.4645 -0.7558 -0.0373
 2578SOL    HW310358   3.165   0.957   4.207 -0.0445 -0.3616  0.1254
 2578SOL    MW410359   3.184   0.890   4.259  0.2947 -0.3158  0.0615
 2579SOL     OW10360   3.151   1.123   4.117 -0.1353 -0.1497  0.3286
 2579SOL    HW210361   3.227   1.180   4.131  0.2294 -0.6380  0.3570
 2579SOL    HW310362   3.142   1.119   4.022 -1.5097  1.7180  0.3537
 2579SOL    MW410363   3.160   1.130   4.106 -0.2685  0.0323  0.3362
 2580SOL     OW10364   3.381   1.282   4.184 -0.0070  0.3793  0.0722
 2580SOL    HW210365   3.387   1.269   4.279 -0.7958 -1.1339 -0.0773
 2580SOL    HW310366   3.401   1.375   4.172  1.4628  0.2838  1.5895
 2580SOL    MW410367   3.384   1.293   4.195  0.0830  0.1670  0.2522
 2581SOL     OW10368   3.464   1.543   4.130  0.2861  0.2005 -0.3649
 2581SOL    HW210369   3.394   1.600   4.162 -0.7320 -0.6405 -1.0547
 2581SOL    HW310370   3.469   1.560   4.037  1.4535  0.7236 -0.2147
 2581SOL    MW410371   3.455   1.553   4.122  0.3057  0.1585 -0.4363
 2582SOL     OW10372   3.225   1.639   4.264  0.0667 -0.7419  0.2505
 2582SOL    HW210373   3.229   1.647   4.359 -1.9501 -1.4971  0.4265
 2582SOL    HW310374   3.209   1.728   4.233 -1.7899 -0.8550  0.8047
 2582SOL    MW410375   3.224   1.652   4.273 -0.4444 -0.8565  0.3467
 2583SOL     OW10376   3.161   1.894   4.143  0.0410  0.7806  0.4158
 2583SOL    HW210377   3.237   1.930   4.188 -0.0656  0.9132  0.4925
 2583SOL    HW310378   3.087   1.946   4.175 -0.2656 -0.2175  1.3718
 2583SOL    MW410379   3.161   1.906   4.153 -0.0134  0.6665  0.5527
 2584SOL     OW10380   3.375   2.004   4.260 -0.3092 -0.1351 -0.4361
 2584SOL    HW210381   3.452   1.980   4.210 -0.6625  0.8692 -1.4742
 2584SOL    HW310382   3.364   2.098   4.244 -0.4273  0.2065  1.5076
 2584SOL    MW410383   3.384   2.013   4.252 -0.3715  0.0424 -0.3166
 2585SOL     OW10384   3.360   2.281   4.172 -0.2108 -0.1267  0.0087
 2585SOL    HW210385   3.427   2.339   4.208 -1.2987  1.4700 -0.5193
 2585SOL    HW310386   3.381   2.275   4.079 -1.0145  0.6434 -0.2173
 2585SOL    MW410387   3.372   2.288   4.165 -0.4601  0.1857 -0.0906
 2586SOL     OW10388   3.136   2.433   4.242  0.3465 -0.1783 -0.3823
 2586SOL    HW210389   3.156   2.524   4.218  1.3245 -0.3815 -0.3735
 2586SOL    HW310390   3.214   2.384   4.216  0.4714 -0.7707  1.0844
 2586SOL    MW410391   3.149   2.439   4.235  0.4919 -0.2832 -0.1879
 2587SOL     OW10392   3.167   2.696   4.199 -0.1267 -0.3893 -0.2529
 2587SOL    HW210393   3.247   2.743   4.224 -1.3382  0.9515  1.2182
 2587SOL    HW310394   3.098   2.737   4.251 -1.3803 -3.2536  0.4392
 2587SOL    MW410395   3.168   2.708   4.210 -0.4520 -0.5903  0.0324
 2588SOL     OW10396   3.399   2.843   4.264 -0.2178 -0.0388 -0.0578
 2588SOL    HW210397   3.482   2.810   4.229 -0.8469  0.2920 -1.8967
 2588SOL    HW310398   3.399   2.935   4.240 -0.6421  0.2080  0.8861
 2588SOL    MW410399   3.410   2.851   4.257 -0.3567  0.0377 -0.1755
 2589SOL     OW10400   3.416   3.100   4.168 -0.1818 -0.3779  0.3690
 2589SOL    HW210401   3.335   3.136   4.205  0.2149 -0.0322  0.9096
 2589SOL    HW310402   3.405   3.111   4.074  0.1646  1.7385  0.5395
 2589SOL    MW410403   3.404   3.106   4.161 -0.0837 -0.0532  0.4625
 2590SOL     OW10404   3.192   3.193   4.277  0.1705 -0.5654 -0.0993
 2590SOL    HW210405   3.191   3.288   4.261 -0.0985 -0.5174  0.1916
 2590SOL    HW310406   3.105   3.163   4.253  0.4110 -0.8237 -0.6609
 2590SOL    MW410407   3.181   3.202   4.272  0.1669 -0.5932 -0.1345
 2591SOL     OW10408   3.185   3.471   4.212  0.2300 -0.2719  0.1502
 2591SOL    HW210409   3.111   3.519   4.250 -0.1963  0.0221 -1.0063
 2591SOL    HW310410   3.171   3.479   4.117  0.6386 -1.9522 -0.0562
 2591SOL    MW410411   3.173   3.478   4.204  0.2275 -0.4549 -0.0296
 2592SOL     OW10412   3.427   3.594   4.286 -0.2144 -0.0603  0.3735
 2592SOL    HW210413   3.418   3.586   4.381 -0.4645 -1.3484  0.2534
 2592SOL    HW310414   3.344   3.562   4.251 -0.0040  0.1052 -0.2938
 2592SOL    MW410415   3.415   3.589   4.294 -0.2196 -0.2084  0.2699
 2593SOL     OW10416   3.398   3.905   4.201 -0.2610  0.3453 -0.0463
 2593SOL    HW210417   3.408   3.815   4.233  1.8922  0.4632 -0.2879
 2593SOL    HW310418   3.399   3.896   4.105 -1.2976  0.4994 -0.0673
 2593SOL    MW410419   3.400   3.892   4.192 -0.1135  0.3810 -0.0811
 2594SOL     OW10420   3.144   3.961   4.297 -0.0640  0.0880  0.0405
 2594SOL    HW210421   3.129   3.898   4.367  0.8552  0.1684  0.3146
 2594SOL    HW310422   3.233   3.943   4.267  0.2819  1.3832  0.2596
 2594SOL    MW410423   3.154   3.950   4.302  0.1028  0.2692  0.1054
 2595SOL     OW10424   3.233   4.182   4.120  0.2093 -0.3141 -0.0190
 2595SOL    HW210425   3.274   4.256   4.164  0.1428 -0.2462 -0.0701
 2595SOL    HW310426   3.204   4.125   4.192 -0.5348  0.1364  0.0444
 2595SOL    MW410427   3.234   4.184   4.136  0.1025 -0.2456 -0.0167
 2596SOL     OW10428   3.374   4.434   4.243  0.2782 -0.2226  0.5423
 2596SOL    HW210429   3.374   4.439   4.339  0.1686  2.8552  0.4175
 2596SOL    HW310430   3.458   4.393   4.222  0.3791 -0.7850  1.9348
 2596SOL    MW410431   3.385   4.429   4.253  0.2773  0.1092  0.7095
 2597SOL     OW10432   3.796   0.037   4.202 -0.3979  0.4103 -0.2928
 2597SOL    HW210433   3.878   0.075   4.234  0.9962 -2.7370  0.0266
 2597SOL    HW310434   3.813   0.018   4.110 -0.4665 -1.0238 -0.0152
 2597SOL    MW410435   3.809   0.039   4.194 -0.2229 -0.1942 -0.2141
 2598SOL     OW10436   3.589   0.154   4.328 -0.3327  0.0852 -0.1223
 2598SOL    HW210437   3.590   0.228   4.268 -1.0046 -0.8439 -1.2960
 2598SOL    HW310438   3.654   0.093   4.292 -0.6142 -0.4020  0.1955
 2598SOL    MW410439   3.598   0.155   4.315 -0.4585 -0.1017 -0.2356
 2599SOL     OW10440   3.586   0.398   4.184 -0.2544 -0.6682  0.1986
 2599SOL    HW210441   3.662   0.434   4.229 -0.6896  0.8422 -0.2365
 2599SOL    HW310442   3.611   0.395   4.092 -0.7969  0.0672  0.0206
 2599SOL    MW410443   3.599   0.402   4.178 -0.3836 -0.3719  0.1183
 2600SOL     OW10444   3.826   0.532   4.254 -0.2736  0.1126 -0.5415
 2600SOL    HW210445   3.840   0.544   4.348  0.4943 -1.2174 -0.4816
 2600SOL    HW310446   3.838   0.619   4.217  1.4947  0.2555  0.3355
 2600SOL    MW410447   3.829   0.545   4.262  0.0613 -0.0439 -0.4177
 2601SOL     OW10448   3.853   0.781   4.164 -0.1397 -0.5587 -0.2872
 2601SOL    HW210449   3.772   0.817   4.200  0.2595 -0.8405  0.9226
 2601SOL    HW310450   3.839   0.780   4.069 -1.3404 -0.1137 -0.1233
 2601SOL    MW410451   3.840   0.786   4.156 -0.2453 -0.5372 -0.1063
 2602SOL     OW10452   3.613   0.874   4.236 -0.2096  0.1045  0.2889
 2602SOL    HW210453   3.610   0.962   4.198  0.5669  0.2928  0.6474
 2602SOL    HW310454   3.543   0.826   4.192  0.5291  0.3759 -1.2198
 2602SOL    MW410455   3.603   0.879   4.225 -0.0098  0.1652  0.1373
 2603SOL     OW10456   3.609   1.127   4.137  0.1317 -0.2636 -0.3112
 2603SOL    HW210457   3.527   1.176   4.152  1.2190  1.4927  0.0955
 2603SOL    HW310458   3.611   1.112   4.042 -0.7542 -0.4869 -0.2981
 2603SOL    MW410459   3.598   1.132   4.126  0.1583 -0.0614 -0.2556
 2604SOL     OW10460   3.843   1.281   4.246  0.3360  0.8116 -0.3874
 2604SOL    HW210461   3.765   1.226   4.233 -0.0324  1.3374 -0.3994
 2604SOL    HW310462   3.841   1.343   4.174  1.1567  0.3814 -0.7903
 2604SOL    MW410463   3.833   1.282   4.235  0.3958  0.8242 -0.4425
 2605SOL     OW10464   3.909   1.547   4.133  0.4673  0.3154  0.5769
 2605SOL    HW210465   3.994   1.578   4.165  0.2045  0.8643  0.7645
 2605SOL    HW310466   3.845   1.599   4.183  0.0406  0.9330 -0.6043
 2605SOL    MW410467   3.912   1.558   4.144  0.3760  0.4694  0.4458
 2606SOL     OW10468   3.683   1.663   4.250  0.4795  0.1800  0.2266
 2606SOL    HW210469   3.608   1.628   4.203 -0.5774  1.5753  0.8202
 2606SOL    HW310470   3.667   1.640   4.342 -0.3289  2.3319  0.6463
 2606SOL    MW410471   3.671   1.655   4.256  0.2334  0.6480  0.3600
 2607SOL     OW10472   3.606   1.922   4.150  0.3877  0.1092  0.0356
 2607SOL    HW210473   3.641   1.838   4.180  0.7243  0.5207  0.8116
 2607SOL    HW310474   3.620   1.921   4.056  0.8702 -0.4896  0.1070
 2607SOL    MW410475   3.613   1.910   4.142  0.4957  0.0844  0.1478
 2608SOL     OW10476   3.694   2.131   4.314  0.2059 -0.0504 -0.3221
 2608SOL    HW210477   3.780   2.103   4.346  0.5196  0.0440 -1.0723
 2608SOL    HW310478   3.660   2.056   4.266  0.3409  0.2802 -0.9459
 2608SOL    MW410479   3.701   2.118   4.312  0.2649  0.0060 -0.5035
 2609SOL     OW10480   3.794   2.373   4.163  0.6959 -0.2747 -0.7767
 2609SOL    HW210481   3.771   2.286   4.196 -0.2447  0.0424 -0.5722
 2609SOL    HW310482   3.799   2.362   4.068 -0.9932 -0.2098 -0.8841
 2609SOL    MW410483   3.792   2.360   4.155  0.3490 -0.2244 -0.7634
 2610SOL     OW10484   3.550   2.469   4.260  0.0638 -0.2288  0.1342
 2610SOL    HW210485   3.545   2.489   4.354  0.7669  0.4435  0.0289
 2610SOL    HW310486   3.635   2.428   4.248  0.2491  0.2850 -0.3243
 2610SOL    MW410487   3.560   2.466   4.271  0.1807 -0.0725  0.0596
 2611SOL     OW10488   3.634   2.719   4.151  0.3495 -0.5072  0.1783
 2611SOL    HW210489   3.607   2.632   4.179 -0.9645 -0.4656 -0.8655
 2611SOL    HW310490   3.630   2.716   4.055 -0.1345  0.8096  0.1401
 2611SOL    MW410491   3.630   2.707   4.142  0.1125 -0.3281  0.0358
 2612SOL     OW10492   3.859   2.855   4.268  0.2917  0.0201 -0.5076
 2612SOL    HW210493   3.822   2.883   4.352 -0.0218  0.6803 -0.8527
 2612SOL    HW310494   3.789   2.805   4.227  0.7585 -1.0439 -0.0033
 2612SOL    MW410495   3.845   2.852   4.273  0.3116 -0.0331 -0.4869
 2613SOL     OW10496   3.857   3.111   4.158 -0.0674  0.0508  0.3752
 2613SOL    HW210497   3.845   3.017   4.176 -2.7116  0.5632  1.5609
 2613SOL    HW310498   3.831   3.122   4.067  0.0519 -0.3327  0.2941
 2613SOL    MW410499   3.852   3.100   4.149 -0.4005  0.0682  0.5212
 2614SOL     OW10500   3.668   3.254   4.274 -0.4938 -0.1673  0.1678
 2614SOL    HW210501   3.747   3.206   4.247  0.1598  0.6578  0.5996
 2614SOL    HW310502   3.596   3.205   4.234  0.1530 -1.5596  0.6488
 2614SOL    MW410503   3.669   3.241   4.265 -0.3223 -0.2422  0.2880
 2615SOL     OW10504   3.668   3.504   4.163  0.1577 -0.2762 -0.2922
 2615SOL    HW210505   3.675   3.419   4.206  0.4131 -0.3593 -0.5001
 2615SOL    HW310506   3.581   3.537   4.189  0.3184 -0.3133  0.3081
 2615SOL    MW410507   3.657   3.497   4.172  0.2124 -0.2921 -0.2403
 2616SOL     OW10508   3.861   3.642   4.307 -0.5609  0.1550  0.3565
 2616SOL    HW210509   3.945   3.609   4.276 -0.9555  0.0361 -0.6064
 2616SOL    HW310510   3.796   3.581   4.272 -1.0597  0.2398  1.0963
 2616SOL    MW410511   3.863   3.630   4.299 -0.6788  0.1504  0.3266
 2617SOL     OW10512   3.808   3.903   4.177  0.2265  0.8633 -0.3739
 2617SOL    HW210513   3.734   3.948   4.219 -1.8838 -1.7248 -1.1591
 2617SOL    HW310514   3.825   3.828   4.234  0.9492  0.3542 -1.2546
 2617SOL    MW410515   3.800   3.899   4.190  0.0432  0.4544 -0.5937
 2618SOL     OW10516   3.598   4.068   4.270  0.4014  0.0882  0.3835
 2618SOL    HW210517   3.578   4.075   4.363  0.9560 -1.9965  0.6714
 2618SOL    HW310518   3.522   4.024   4.232 -0.6083  2.4721 -0.4778
 2618SOL    MW410519   3.585   4.063   4.277  0.3412  0.1278  0.3080
 2619SOL     OW10520   3.621   4.323   4.163 -0.4535 -0.0728  0.1053
 2619SOL    HW210521   3.678   4.376   4.219  0.6106  0.2898 -1.2807
 2619SOL    HW310522   3.610   4.241   4.211  2.2730 -0.6304 -0.1227
 2619SOL    MW410523   3.627   4.319   4.176  0.0465 -0.0987 -0.1073
 2620SOL     OW10524   3.832   4.438   4.305  0.1508 -0.5716 -0.1318
 2620SOL    HW210525   3.896   4.380   4.262 -0.3561 -1.0346 -0.2700
 2620SOL    HW310526   3.846   4.523   4.263  1.6797 -0.2962  0.8645
 2620SOL    MW410527   3.843   4.442   4.293  0.2861 -0.5960 -0.0191
 2621SOL     OW10528   4.264   0.014   4.183 -0.2919  0.2283 -0.3414
 2621SOL    HW210529   4.265  -0.074   4.221  0.0916 -0.4016 -1.7555
 2621SOL    HW310530   4.333   0.061   4.229  0.3273 -0.5867 -0.4181
 2621SOL    MW410531   4.273   0.008   4.194 -0.1597  0.0377 -0.5383
 2622SOL     OW10532   4.035   0.126   4.272 -0.3853  0.0512 -0.0119
 2622SOL    HW210533   4.048   0.220   4.258  0.7764 -0.2965 -1.4126
 2622SOL    HW310534   4.113   0.086   4.235 -0.8509 -1.4735  0.6295
 2622SOL    MW410535   4.047   0.133   4.265 -0.2937 -0.1959 -0.1125
 2623SOL     OW10536   4.036   0.390   4.168  0.6451 -0.1325  0.2469
 2623SOL    HW210537   4.113   0.421   4.216  1.0191 -0.5395 -0.1043
 2623SOL    HW310538   3.963   0.438   4.209  0.9570 -0.4942  1.2491
 2623SOL    MW410539   4.036   0.401   4.180  0.7353 -0.2339  0.3324
 2624SOL     OW10540   4.266   0.501   4.262 -0.3522 -0.1409 -0.6091
 2624SOL    HW210541   4.284   0.590   4.233  0.0486  0.1101  0.3772
 2624SOL    HW310542   4.346   0.453   4.241  0.4566  0.3430  1.2463
 2624SOL    MW410543   4.279   0.506   4.256 -0.1926 -0.0439 -0.2341
 2625SOL     OW10544   4.312   0.757   4.160  0.0630 -0.1041  0.2290
 2625SOL    HW210545   4.235   0.810   4.179 -0.9770 -1.7186  0.5576
 2625SOL    HW310546   4.326   0.768   4.066 -1.3231 -0.7946 -0.0651
 2625SOL    MW410547   4.304   0.765   4.150 -0.2575 -0.4082  0.2337
 2626SOL     OW10548   4.092   0.895   4.252 -0.0263  0.0367 -0.3217
 2626SOL    HW210549   4.095   0.988   4.228  0.1333  0.1782  0.2427
 2626SOL    HW310550   4.015   0.861   4.206 -0.1634  0.4775 -0.4243
 2626SOL    MW410551   4.082   0.903   4.243 -0.0234  0.1135 -0.2613
 2627SOL     OW10552   4.077   1.155   4.163 -0.3069  0.2785  0.1226
 2627SOL    HW210553   4.140   1.216   4.201  0.6287 -1.1710  0.9492
 2627SOL    HW310554   3.991   1.194   4.183  0.2180  0.2980  2.4835
 2627SOL    MW410555   4.074   1.168   4.171 -0.1144  0.0899  0.5431
 2628SOL     OW10556   4.265   1.336   4.278 -0.0706  0.1124 -0.1367
 2628SOL    HW210557   4.297   1.354   4.367 -0.5529 -1.2264  0.3130
 2628SOL    HW310558   4.333   1.281   4.239 -0.0468  0.3735 -0.4681
 2628SOL    MW410559   4.279   1.331   4.285 -0.1316 -0.0296 -0.1211
 2629SOL     OW10560   4.336   1.554   4.144 -0.4006 -0.1944  0.3369
 2629SOL    HW210561   4.300   1.474   4.183  0.7297 -1.2710 -0.7931
 2629SOL    HW310562   4.338   1.535   4.050  0.6620  0.8463  0.1462
 2629SOL    MW410563   4.331   1.541   4.137 -0.1111 -0.1992  0.1621
 2630SOL     OW10564   4.133   1.688   4.257  0.4224 -0.1240 -0.8087
 2630SOL    HW210565   4.156   1.653   4.343  0.6937 -0.3392 -0.9700
 2630SOL    HW310566   4.207   1.665   4.201  0.4680  0.4472 -0.9846
 2630SOL    MW410567   4.146   1.681   4.261  0.4640 -0.0770 -0.8535
 2631SOL     OW10568   4.032   1.946   4.172 -0.2159  0.0435  0.2256
 2631SOL    HW210569   4.043   1.854   4.196 -1.9179 -0.2534 -0.0584
 2631SOL    HW310570   3.983   1.984   4.245 -0.3044  0.5094 -0.0739
 2631SOL    MW410571   4.027   1.939   4.184 -0.4520  0.0659  0.1488
 2632SOL     OW10572   0.034   1.965   4.120 -0.1481 -0.7931  0.3077
 2632SOL    HW210573   0.114   1.994   4.165  0.1351  0.0639 -0.7102
 2632SOL    HW310574  -0.036   2.018   4.159 -0.1156 -1.0608  0.7274
 2632SOL    MW410575   0.035   1.976   4.131 -0.1064 -0.7154  0.2289
 2633SOL     OW10576   4.293   2.343   4.182 -0.3893  0.0358  0.2514
 2633SOL    HW210577   4.206   2.366   4.214 -0.4322 -0.4962  0.5293
 2633SOL    HW310578   4.303   2.250   4.205  0.8663  0.4867  1.6390
 2633SOL    MW410579   4.283   2.334   4.190 -0.2289  0.0253  0.4711
 2634SOL     OW10580   4.043   2.438   4.248 -0.2041 -0.6463 -0.0195
 2634SOL    HW210581   4.042   2.411   4.340  0.1594 -0.4156  0.0502
 2634SOL    HW310582   3.960   2.406   4.213 -0.1671 -1.0813  0.2914
 2634SOL    MW410583   4.032   2.430   4.256 -0.1502 -0.6733  0.0305
 2635SOL     OW10584   4.086   2.711   4.210 -0.1335  0.2323  0.1229
 2635SOL    HW210585   4.073   2.623   4.246  1.2557 -0.0547 -0.0409
 2635SOL    HW310586   4.001   2.754   4.220 -1.1369 -1.4979 -0.8222
 2635SOL    MW410587   4.073   2.705   4.216 -0.0825 -0.0339 -0.0234
 2636SOL     OW10588   4.326   2.852   4.278  0.1712 -0.1669 -0.1714
 2636SOL    HW210589   4.262   2.785   4.255 -0.0539  0.2053 -0.6150
 2636SOL    HW310590   4.409   2.818   4.246  0.2080 -0.6593  0.4225
 2636SOL    MW410591   4.328   2.839   4.271  0.1464 -0.1826 -0.1516
 2637SOL     OW10592   4.296   3.099   4.155  0.1105  0.3685 -0.0745
 2637SOL    HW210593   4.287   3.011   4.192 -0.3359  0.7128  0.6468
 2637SOL    HW310594   4.331   3.085   4.066  0.0347 -0.5287  0.0384
 2637SOL    MW410595   4.300   3.085   4.148  0.0415  0.2952  0.0353
 2638SOL     OW10596   4.077   3.230   4.254 -0.3205 -0.3239 -0.0699
 2638SOL    HW210597   4.160   3.193   4.224 -0.2485 -0.0724 -0.1779
 2638SOL    HW310598   4.011   3.190   4.198 -0.0015  1.6398 -1.8684
 2638SOL    MW410599   4.080   3.220   4.243 -0.2685 -0.0315 -0.3214
 2639SOL     OW10600   4.071   3.500   4.200 -0.1442 -0.0486  0.5291
 2639SOL    HW210601   4.058   3.407   4.218  4.0396 -0.8957 -0.3818
 2639SOL    HW310602   4.067   3.506   4.105  0.1753  0.6110  0.5567
 2639SOL    MW410603   4.068   3.488   4.190  0.4506 -0.0734  0.4125
 2640SOL     OW10604   4.315   3.629   4.252 -0.1321  0.0817 -0.3025
 2640SOL    HW210605   4.299   3.717   4.219 -1.7210 -0.2423 -0.4345
 2640SOL    HW310606   4.237   3.579   4.227  1.0505 -1.5357 -0.8249
 2640SOL    MW410607   4.303   3.634   4.244 -0.1855 -0.1743 -0.3886
 2641SOL     OW10608   4.299   3.908   4.177  0.7444  0.1923 -0.5473
 2641SOL    HW210609   4.225   3.962   4.203  1.5534  1.5954 -1.1044
 2641SOL    HW310610   4.293   3.903   4.081  0.3515 -1.1854 -0.4630
 2641SOL    MW410611   4.289   3.915   4.168  0.7992  0.1955 -0.6099
 2642SOL     OW10612   4.045   4.036   4.227  0.0898  0.8513  0.0367
 2642SOL    HW210613   4.047   4.041   4.322  1.1009 -1.4703  0.1681
 2642SOL    HW310614   3.955   4.011   4.206  0.1904  0.1367  0.4562
 2642SOL    MW410615   4.033   4.033   4.237  0.2365  0.4511  0.1092
 2643SOL     OW10616   4.072   4.310   4.159  0.2408 -1.2743 -0.0307
 2643SOL    HW210617   4.135   4.345   4.222 -0.3069 -1.3810  0.5680
 2643SOL    HW310618   4.053   4.222   4.189 -1.0386 -0.8546  0.4161
 2643SOL    MW410619   4.078   4.303   4.171  0.0000 -1.2331  0.1073
 2644SOL     OW10620   4.315   0.057   4.634  0.2159 -0.1006 -0.1824
 2644SOL    HW210621   4.342   0.149   4.634  0.7190 -0.2525  0.9482
 2644SOL    HW310622   4.228   0.059   4.594  0.4397  0.8023 -0.6500
 2644SOL    MW410623   4.307   0.070   4.628  0.3119 -0.0015 -0.0944
 2645SOL     OW10624   4.458   0.307   4.607  0.6492  0.2798  0.2100
 2645SOL    HW210625   4.527   0.353   4.560  0.0397  1.8011  0.7424
 2645SOL    HW310626   4.378   0.354   4.583 -0.0629 -0.8395  0.3671
 2645SOL    MW410627   4.456   0.319   4.597  0.4749  0.3329  0.3009
 2646SOL     OW10628   4.351   4.450   4.574  0.2913 -0.1312 -0.0476
 2646SOL    HW210629   4.289   4.395   4.622 -0.8766  0.7242 -0.5256
 2646SOL    HW310630   4.342   4.536   4.614 -0.1065  0.3994 -1.2377
 2646SOL    MW410631   4.341   4.454   4.585  0.0849  0.0520 -0.2670
 2647SOL     OW10632   4.038   0.114   4.549 -0.5753  0.2369 -0.2869
 2647SOL    HW210633   4.026   0.118   4.454 -0.2209 -1.2974 -0.4170
 2647SOL    HW310634   3.955   0.081   4.582 -1.2794  2.3695  0.1104
 2647SOL    MW410635   4.026   0.110   4.541 -0.6218  0.3158 -0.2518
 2648SOL     OW10636   4.324   1.113   4.634 -0.0708  0.3350 -0.1622
 2648SOL    HW210637   4.272   1.051   4.582  0.5495 -0.3712  0.0361
 2648SOL    HW310638   4.401   1.062   4.661  0.0930  0.9831  0.6204
 2648SOL    MW410639   4.328   1.098   4.631  0.0324  0.3273 -0.0329
 2649SOL     OW10640   0.091   0.146   4.808 -0.8457  0.0759  0.1582
 2649SOL    HW210641   0.027   0.078   4.828 -0.6033  0.1814  1.2961
 2649SOL    HW310642   0.045   0.205   4.748 -1.1996 -0.8439 -0.4898
 2649SOL    MW410643   0.077   0.145   4.803 -0.8604 -0.0316  0.2227
 2650SOL     OW10644   0.870   1.355   4.479  0.3456 -0.4913 -0.3278
 2650SOL    HW210645   0.834   1.278   4.524 -0.3788  0.2345  0.3475
 2650SOL    HW310646   0.906   1.409   4.549 -0.5055  0.4985 -0.6369
 2650SOL    MW410647   0.870   1.352   4.494  0.1378 -0.2649 -0.2799
 2651SOL     OW10648   0.052   0.915   4.614  0.3665  0.4514  0.1171
 2651SOL    HW210649   0.053   0.826   4.650 -0.7195  0.4844  0.2560
 2651SOL    HW310650   0.044   0.903   4.520 -0.5186  0.3941  0.1895
 2651SOL    MW410651   0.051   0.902   4.606  0.1065  0.4482  0.1445
 2652SOL     OW10652   0.378   1.556   4.683  0.2781 -0.2166  0.2507
 2652SOL    HW210653   0.432   1.479   4.703 -0.3075 -1.0850 -1.4662
 2652SOL    HW310654   0.438   1.617   4.640  0.1468 -0.7189 -0.6372
 2652SOL    MW410655   0.393   1.554   4.680  0.1835 -0.3974 -0.0925
 2653SOL     OW10656   0.611   2.185   4.516  0.0348  0.1074  0.2379
 2653SOL    HW210657   0.699   2.204   4.551 -0.3790  0.1089  1.2803
 2653SOL    HW310658   0.578   2.115   4.571 -0.9085  0.5948  0.3030
 2653SOL    MW410659   0.619   2.179   4.528 -0.1442  0.1719  0.3839
 2654SOL     OW10660   4.352   1.385   4.558 -0.1363  0.0719  0.0632
 2654SOL    HW210661   4.364   1.294   4.586 -2.2204 -0.5169 -0.8196
 2654SOL    HW310662   4.431   1.430   4.586  0.5487 -1.8411  1.2792
 2654SOL    MW410663   4.364   1.379   4.566 -0.3214 -0.2581  0.1068
 2655SOL     OW10664   0.301   1.947   4.520 -0.1154  0.3345 -0.0865
 2655SOL    HW210665   0.221   1.895   4.527  0.4488 -0.3704  1.2929
 2655SOL    HW310666   0.276   2.034   4.549 -0.7793  0.5655 -1.2907
 2655SOL    MW410667   0.288   1.952   4.524 -0.1286  0.2720 -0.0634
 2656SOL     OW10668   0.488   1.705   4.255  0.1561 -0.2383  0.1414
 2656SOL    HW210669   0.402   1.663   4.250 -0.2258  0.5128  0.3160
 2656SOL    HW310670   0.547   1.642   4.214 -0.4806 -0.7438 -0.0251
 2656SOL    MW410671   0.484   1.691   4.249  0.0217 -0.2060  0.1426
 2657SOL     OW10672   0.225   2.195   4.573  0.2487 -0.3537 -0.3272
 2657SOL    HW210673   0.276   2.276   4.579  0.2124 -0.2957 -0.7493
 2657SOL    HW310674   0.136   2.222   4.593  0.7183 -0.8547  2.6324
 2657SOL    MW410675   0.220   2.209   4.576  0.3059 -0.4120  0.0076
 2658SOL     OW10676   4.134   2.391   4.746 -0.0231  0.2355  0.1958
 2658SOL    HW210677   4.188   2.469   4.760 -1.1578  1.2474 -0.9129
 2658SOL    HW310678   4.044   2.421   4.761 -0.4718 -0.8583 -0.2370
 2658SOL    MW410679   4.129   2.405   4.749 -0.2317  0.2248 -0.0076
 2659SOL     OW10680   0.636   2.787   4.568 -0.6542  0.2333  0.0347
 2659SOL    HW210681   0.557   2.834   4.541 -1.0618 -1.1100 -1.2191
 2659SOL    HW310682   0.611   2.694   4.566  0.7940 -0.1814  0.1701
 2659SOL    MW410683   0.622   2.781   4.564 -0.5169  0.0012 -0.1130
 2660SOL     OW10684   0.418   2.944   4.500 -0.1149 -0.3863  0.3010
 2660SOL    HW210685   0.339   2.930   4.553  0.2688  0.2985  1.0737
 2660SOL    HW310686   0.389   2.931   4.410 -1.3587  0.9121  0.5003
 2660SOL    MW410687   0.404   2.940   4.495 -0.2284 -0.1247  0.4296
 2661SOL     OW10688   4.283   2.636   4.750  0.0398  0.0366  0.0312
 2661SOL    HW210689   4.332   2.717   4.767 -1.8281  0.8708  1.6730
 2661SOL    HW310690   4.210   2.664   4.694 -0.2671 -0.6120  0.1028
 2661SOL    MW410691   4.280   2.651   4.745 -0.2470  0.0610  0.2575
 2662SOL     OW10692   4.280   3.321   4.591  0.0581  0.8227 -0.0411
 2662SOL    HW210693   4.358   3.265   4.591 -0.8159 -0.4326  1.2746
 2662SOL    HW310694   4.207   3.260   4.583 -0.8679  1.8812  0.1976
 2662SOL    MW410695   4.281   3.306   4.590 -0.1788  0.7968  0.1640
 2663SOL     OW10696   0.379   3.380   4.663 -0.3476  0.3654  0.1346
 2663SOL    HW210697   0.328   3.461   4.662 -0.7550  0.1087 -1.0328
 2663SOL    HW310698   0.314   3.312   4.682 -0.6095 -0.0487 -2.0714
 2663SOL    MW410699   0.364   3.382   4.665 -0.4359  0.2768 -0.3099
 2664SOL     OW10700   4.298   4.021   4.580 -0.0651  0.2857  0.0187
 2664SOL    HW210701   4.208   3.993   4.567 -0.6338  1.1310  1.9551
 2664SOL    HW310702   4.337   3.953   4.636  0.6811 -0.3928 -1.3139
 2664SOL    MW410703   4.292   4.009   4.586 -0.0410  0.3076  0.0987
 2665SOL     OW10704   4.283   0.524   4.537  0.0044  0.1692 -0.0022
 2665SOL    HW210705   4.208   0.481   4.578  1.1856 -1.8009  0.1400
 2665SOL    HW310706   4.270   0.508   4.443 -0.9594  1.8543 -0.1840
 2665SOL    MW410707   4.271   0.516   4.530  0.0324  0.1316 -0.0072
 2666SOL     OW10708   3.877   0.500   4.532  0.4375 -0.3753 -0.0678
 2666SOL    HW210709   3.789   0.471   4.554  0.4634 -0.0716  0.4410
 2666SOL    HW310710   3.884   0.588   4.570  1.6997 -1.2368  1.7631
 2666SOL    MW410711   3.866   0.508   4.540  0.6075 -0.4489  0.2413
 2667SOL     OW10712   4.127   3.733   4.709  0.3943  0.0647  0.4926
 2667SOL    HW210713   4.156   3.666   4.647  1.1415 -1.4611  2.4184
 2667SOL    HW310714   4.208   3.772   4.741 -0.0416  1.8011 -0.5102
 2667SOL    MW410715   4.142   3.729   4.705  0.4358  0.0925  0.6146
 2668SOL     OW10716   3.911   4.209   4.649 -0.1647  0.4741  0.3905
 2668SOL    HW210717   3.870   4.294   4.638 -0.4401  0.1991 -0.8229
 2668SOL    HW310718   3.853   4.161   4.708 -0.1631  1.0213  0.8323
 2668SOL    MW410719   3.898   4.214   4.656 -0.2007  0.5102  0.2890
 2669SOL     OW10720   0.385   0.163   4.833 -0.4173 -0.1547 -0.5194
 2669SOL    HW210721   0.294   0.134   4.829 -0.3996 -0.1846 -0.7208
 2669SOL    HW310722   0.433   0.089   4.869 -0.2619 -0.6387 -1.7046
 2669SOL    MW410723   0.380   0.150   4.837 -0.3944 -0.2225 -0.7024
 2670SOL     OW10724   0.318   1.066   4.606 -0.0652 -0.3598  0.2021
 2670SOL    HW210725   0.272   1.133   4.556  0.8071 -1.1193 -1.6325
 2670SOL    HW310726   0.253   0.998   4.621  0.2743 -1.1614 -1.8700
 2670SOL    MW410727   0.303   1.066   4.602  0.0946 -0.5659 -0.3128
 2671SOL     OW10728   1.466   0.911   4.604 -0.4441  0.0653 -0.7385
 2671SOL    HW210729   1.473   0.877   4.693 -1.3441 -0.6572 -0.9385
 2671SOL    HW310730   1.458   0.833   4.549  0.4897  0.4948 -1.4915
 2671SOL    MW410731   1.466   0.896   4.608 -0.4398  0.0267 -0.8636
 2672SOL     OW10732   0.452   0.319   4.591 -0.3934 -0.4241  0.1275
 2672SOL    HW210733   0.435   0.266   4.669  0.0589 -0.2941  0.3155
 2672SOL    HW310734   0.370   0.366   4.576  0.0036  0.7379  1.4451
 2672SOL    MW410735   0.439   0.318   4.600 -0.2813 -0.2536  0.3257
 2673SOL     OW10736   1.090   0.812   4.519 -0.3587  0.0177 -0.2409
 2673SOL    HW210737   1.111   0.768   4.437  0.5271 -0.6731  0.3513
 2673SOL    HW310738   1.037   0.749   4.568  0.7621 -0.3378  0.5343
 2673SOL    MW410739   1.085   0.798   4.515 -0.0939 -0.1204 -0.0606
 2674SOL     OW10740   0.538   0.912   4.467 -0.0839 -0.2976 -0.0391
 2674SOL    HW210741   0.504   0.929   4.379  0.2839 -1.2463 -0.3732
 2674SOL    HW310742   0.460   0.915   4.523 -0.2634  0.6968 -0.3414
 2674SOL    MW410743   0.523   0.914   4.463 -0.0590 -0.2916 -0.1225
 2675SOL     OW10744   2.063   1.174   4.478 -0.1009  0.1967  0.2159
 2675SOL    HW210745   2.066   1.200   4.386  1.8940  0.1760  0.2592
 2675SOL    HW310746   2.096   1.251   4.526  0.8195 -0.5192  0.7474
 2675SOL    MW410747   2.068   1.188   4.472  0.2840  0.0997  0.2918
 2676SOL     OW10748   0.870   1.695   4.550 -0.1134 -0.4511 -0.3639
 2676SOL    HW210749   0.900   1.785   4.538 -0.1646 -0.2504  0.9399
 2676SOL    HW310750   0.774   1.701   4.544 -0.1292 -0.3773 -0.0617
 2676SOL    MW410751   0.861   1.707   4.548 -0.1222 -0.4150 -0.1521
 2677SOL     OW10752   1.186   1.324   4.430 -0.4472 -0.0752 -0.4872
 2677SOL    HW210753   1.204   1.245   4.481 -0.5803  0.4600  0.3949
 2677SOL    HW310754   1.104   1.358   4.466  0.3765  1.2742  0.1450
 2677SOL    MW410755   1.178   1.318   4.441 -0.3561  0.1736 -0.2875
 2678SOL     OW10756   0.996   1.948   4.522 -0.2431 -0.1512  0.9132
 2678SOL    HW210757   0.984   2.034   4.563  0.0692  0.8525 -1.0477
 2678SOL    HW310758   1.087   1.947   4.494 -0.0462 -1.4244  1.5653
 2678SOL    MW410759   1.006   1.959   4.524 -0.1760 -0.1868  0.7405
 2679SOL     OW10760   0.879   2.200   4.612 -0.1762 -0.5816 -0.1519
 2679SOL    HW210761   0.927   2.216   4.531 -0.4691  0.1843 -0.1790
 2679SOL    HW310762   0.921   2.255   4.677  0.5520 -1.7844  0.4103
 2679SOL    MW410763   0.891   2.209   4.610 -0.1188 -0.6392 -0.0811
 2680SOL     OW10764   1.102   2.356   4.693 -0.0338 -0.2638  0.3406
 2680SOL    HW210765   1.169   2.291   4.711 -0.8369 -1.3840 -0.6441
 2680SOL    HW310766   1.095   2.358   4.597 -1.5688 -0.3423  0.4293
 2680SOL    MW410767   1.110   2.348   4.682 -0.3424 -0.4220  0.2227
 2681SOL     OW10768   0.237   2.579   4.495  0.4716 -0.3164 -0.1328
 2681SOL    HW210769   0.192   2.560   4.412  1.2980 -0.4388 -0.5577
 2681SOL    HW310770   0.323   2.538   4.485  1.5652  1.9439 -0.2730
 2681SOL    MW410771   0.242   2.571   4.482  0.7249 -0.0343 -0.2074
 2682SOL     OW10772   1.082   2.837   4.487  0.5625 -0.3559  0.0330
 2682SOL    HW210773   1.133   2.829   4.407 -0.2610 -0.6181 -0.4729
 2682SOL    HW310774   1.104   2.758   4.537 -0.0990 -0.9687 -0.6279
 2682SOL    MW410775   1.092   2.825   4.483  0.3666 -0.4711 -0.1206
 2683SOL     OW10776   0.497   2.457   4.480  0.2739 -0.9808  0.1375
 2683SOL    HW210777   0.532   2.370   4.494 -0.6680 -1.6195 -1.3016
 2683SOL    HW310778   0.497   2.468   4.385 -1.0538 -0.0230  0.2270
 2683SOL    MW410779   0.502   2.447   4.469 -0.0255 -0.9387 -0.0405
 2684SOL     OW10780   1.234   2.869   4.810 -0.3340  0.2661 -0.2727
 2684SOL    HW210781   1.216   2.775   4.799 -0.0115  0.2498 -0.6861
 2684SOL    HW310782   1.151   2.911   4.789 -0.4969  0.0658 -0.0304
 2684SOL    MW410783   1.220   2.862   4.805 -0.3129  0.2375 -0.2952
 2685SOL     OW10784   0.554   3.199   4.513 -0.0842  0.1926 -0.3049
 2685SOL    HW210785   0.492   3.262   4.550  0.1740 -0.1725  0.7713
 2685SOL    HW310786   0.508   3.115   4.516  0.8693 -0.2852  1.5801
 2685SOL    MW410787   0.540   3.196   4.518  0.0757  0.0813  0.0863
 2686SOL     OW10788   1.351   4.493   4.579 -0.3522  0.1354  0.0663
 2686SOL    HW210789   1.317   4.453   4.499  0.2849 -0.2940  0.0043
 2686SOL    HW310790   1.442   4.464   4.583  0.0402  1.3664  0.1642
 2686SOL    MW410791   1.359   4.484   4.569 -0.2165  0.2408  0.0715
 2687SOL     OW10792   0.200   2.840   4.622  0.5590  0.6959 -0.0906
 2687SOL    HW210793   0.221   2.752   4.589  2.0462  0.5023  1.2999
 2687SOL    HW310794   0.106   2.850   4.605  0.3747 -1.1522 -0.3060
 2687SOL    MW410795   0.190   2.829   4.615  0.7309  0.4265  0.0648
 2688SOL     OW10796   4.323   3.595   4.538  0.0644  0.4307  0.2476
 2688SOL    HW210797   4.321   3.503   4.563 -2.6203  0.4382  0.1297
 2688SOL    HW310798   4.324   3.595   4.442  1.5168  0.5308  0.2477
 2688SOL    MW410799   4.323   3.583   4.529 -0.0987  0.4447  0.2322
 2689SOL     OW10800   0.790   4.337   4.522  0.1412 -0.1168 -0.1770
 2689SOL    HW210801   0.791   4.419   4.571  1.3094 -1.0099  1.3612
 2689SOL    HW310802   0.737   4.355   4.445 -0.0176  1.9333  0.3906
 2689SOL    MW410803   0.783   4.350   4.518  0.2744  0.0358  0.1011
 2690SOL     OW10804   0.138   4.372   4.555  0.5366  0.4365  0.1393
 2690SOL    HW210805   0.132   4.277   4.553 -0.5962  0.4988 -0.0281
 2690SOL    HW310806   0.047   4.401   4.564  0.6690  1.5579 -1.9132
 2690SOL    MW410807   0.125   4.363   4.556  0.4046  0.5927 -0.1535
 2691SOL     OW10808   0.060   4.105   4.540 -0.1504  0.2204 -0.3138
 2691SOL    HW210809   0.103   4.035   4.588 -1.2460 -0.2121  0.0566
 2691SOL    HW310810  -0.033   4.082   4.542 -0.4553  1.3750 -0.7013
 2691SOL    MW410811   0.053   4.092   4.546 -0.3353  0.3152 -0.3161
 2692SOL     OW10812   0.200   4.641   4.588 -0.3389  0.6234  0.0187
 2692SOL    HW210813   0.186   4.546   4.587 -0.2748  0.6178 -0.4670
 2692SOL    HW310814   0.158   4.670   4.668  0.5793  0.0363  0.7308
 2692SOL    MW410815   0.193   4.632   4.598 -0.2093  0.5455  0.0486
 2693SOL     OW10816   1.162   0.240   4.590 -0.9043 -0.0253 -0.0532
 2693SOL    HW210817   1.137   0.288   4.668 -1.7616  2.9001 -2.0505
 2693SOL    HW310818   1.089   0.179   4.575 -1.2759  0.2184  0.7613
 2693SOL    MW410819   1.149   0.238   4.598 -1.0664  0.3929 -0.2089
 2694SOL     OW10820   0.926   0.109   4.539 -0.0395  0.3235  0.2280
 2694SOL    HW210821   0.859   0.175   4.555 -0.0250  0.1039  1.1885
 2694SOL    HW310822   0.921   0.093   4.444 -1.0062  0.6642  0.2175
 2694SOL    MW410823   0.916   0.115   4.528 -0.1652  0.3395  0.3538
 2695SOL     OW10824   0.739   0.352   4.508 -0.3188  0.0086 -0.1025
 2695SOL    HW210825   0.726   0.385   4.419 -1.7703  1.6181  0.6898
 2695SOL    HW310826   0.651   0.337   4.542  0.1843  0.4682  1.4616
 2695SOL    MW410827   0.726   0.354   4.501 -0.4439  0.2816  0.2084
 2696SOL     OW10828   1.638   1.125   4.535  0.3948 -0.3590 -0.2019
 2696SOL    HW210829   1.576   1.058   4.565 -0.2196  0.0507 -0.5292
 2696SOL    HW310830   1.720   1.103   4.578  0.2257 -1.3851 -0.3898
 2696SOL    MW410831   1.640   1.113   4.544  0.2915 -0.4402 -0.2699
 2697SOL     OW10832   1.847   0.791   4.473 -0.7014  0.1114 -0.4721
 2697SOL    HW210833   1.844   0.879   4.509 -2.5988 -0.1613  0.0860
 2697SOL    HW310834   1.846   0.803   4.378  1.3303  0.7390 -0.4355
 2697SOL    MW410835   1.846   0.804   4.465 -0.6838  0.1583 -0.3934
 2698SOL     OW10836   0.488   1.272   4.658 -0.1244 -0.1045  0.3738
 2698SOL    HW210837   0.576   1.248   4.629 -0.4761 -0.8647 -0.1150
 2698SOL    HW310838   0.443   1.188   4.669 -0.7264  0.2702  0.8093
 2698SOL    MW410839   0.493   1.258   4.655 -0.2503 -0.1553  0.3667
 2699SOL     OW10840   1.090   1.520   4.624 -0.2937 -0.0697  0.0573
 2699SOL    HW210841   1.025   1.587   4.602 -0.9720 -1.2636 -1.6366
 2699SOL    HW310842   1.172   1.554   4.590 -0.7620 -0.4010 -1.4411
 2699SOL    MW410843   1.092   1.533   4.617 -0.4450 -0.2708 -0.3638
 2700SOL     OW10844   0.805   0.824   4.495  0.5654 -0.3174 -0.2446
 2700SOL    HW210845   0.714   0.848   4.477 -0.1912 -0.3484  3.2693
 2700SOL    HW310846   0.854   0.861   4.422 -2.1754  0.2740 -1.8646
 2700SOL    MW410847   0.799   0.832   4.483  0.1040 -0.2434  0.0052
 2701SOL     OW10848   1.891   1.027   4.625  0.1412 -0.1135  0.2299
 2701SOL    HW210849   1.936   1.019   4.709 -0.9565  1.6901  1.0085
 2701SOL    HW310850   1.946   1.087   4.575 -0.6906  1.0338  0.6907
 2701SOL    MW410851   1.905   1.034   4.629 -0.1135  0.2756  0.3934
 2702SOL     OW10852   1.251   1.072   4.520  0.1285  0.1998  0.3836
 2702SOL    HW210853   1.332   1.034   4.552  0.4947  0.6169 -0.0494
 2702SOL    HW310854   1.190   0.998   4.514  0.7809 -0.2889 -0.2796
 2702SOL    MW410855   1.253   1.057   4.523  0.2630  0.1904  0.2389
 2703SOL     OW10856   1.388   2.234   4.600 -0.1862 -0.0243 -0.0307
 2703SOL    HW210857   1.378   2.326   4.575 -0.3018 -0.1837 -0.6001
 2703SOL    HW310858   1.478   2.227   4.632  0.3123 -0.0200 -1.3822
 2703SOL    MW410859   1.398   2.245   4.601 -0.1358 -0.0451 -0.2847
 2704SOL     OW10860   1.180   2.625   4.665  0.2682 -0.1246 -0.6630
 2704SOL    HW210861   1.255   2.588   4.619 -0.8669 -1.9536 -1.0981
 2704SOL    HW310862   1.126   2.550   4.689 -1.8212  1.1857 -1.0593
 2704SOL    MW410863   1.183   2.611   4.662 -0.1570 -0.1929 -0.7730
 2705SOL     OW10864   1.494   3.014   4.743 -0.1070 -0.1344  0.1240
 2705SOL    HW210865   1.414   2.967   4.767  0.0628  0.0568  1.0474
 2705SOL    HW310866   1.507   3.078   4.812  0.7182  0.0012 -0.1478
 2705SOL    MW410867   1.485   3.016   4.755  0.0244 -0.0913  0.2103
 2706SOL     OW10868   1.418   3.432   4.559  0.3152  0.4584 -0.7157
 2706SOL    HW210869   1.507   3.437   4.524  0.8761 -1.9066  0.2966
 2706SOL    HW310870   1.394   3.340   4.553 -1.4055  0.7829  0.6136
 2706SOL    MW410871   1.427   3.421   4.554  0.1620  0.1893 -0.4067
 2707SOL     OW10872   0.835   2.902   4.414  0.2531 -0.0473 -0.1099
 2707SOL    HW210873   0.927   2.880   4.430  0.0075 -2.0070 -1.1523
 2707SOL    HW310874   0.787   2.859   4.485  0.0495  0.1248 -0.1422
 2707SOL    MW410875   0.841   2.893   4.425  0.1938 -0.2832 -0.2522
 2708SOL     OW10876   0.465   4.007   4.632 -0.0102  0.3646 -0.2670
 2708SOL    HW210877   0.527   4.068   4.672  1.5965 -1.1880 -0.3453
 2708SOL    HW310878   0.479   4.016   4.538 -1.4436  1.5727 -0.3886
 2708SOL    MW410879   0.475   4.016   4.625  0.0126  0.3190 -0.2937
 2709SOL     OW10880   1.097   3.061   4.639  0.0362 -0.1739  0.3270
 2709SOL    HW210881   1.097   2.978   4.592 -0.0432 -2.3167  3.8718
 2709SOL    HW310882   1.020   3.108   4.607  0.6179 -0.9940 -2.4059
 2709SOL    MW410883   1.087   3.056   4.629  0.1024 -0.5651  0.4344
 2710SOL     OW10884   0.861   3.152   4.476  0.0819  0.0012 -0.8225
 2710SOL    HW210885   0.776   3.181   4.509  0.5267 -1.0978  1.2936
 2710SOL    HW310886   0.848   3.061   4.451  0.6561 -0.1690 -0.4962
 2710SOL    MW410887   0.848   3.144   4.477  0.2163 -0.1664 -0.4997
 2711SOL     OW10888   1.687   3.457   4.471  0.7670 -0.5429 -0.0599
 2711SOL    HW210889   1.758   3.518   4.489  1.1689 -0.3910 -2.0539
 2711SOL    HW310890   1.723   3.371   4.491  1.2551 -0.4003 -0.3292
 2711SOL    MW410891   1.701   3.454   4.476  0.8844 -0.5040 -0.3586
 2712SOL     OW10892   0.272   3.631   4.609  0.6867 -0.4390 -0.1755
 2712SOL    HW210893   0.247   3.635   4.517  0.5378  1.5103 -0.0724
 2712SOL    HW310894   0.362   3.664   4.612 -0.1037  1.8074  0.6182
 2712SOL    MW410895   0.280   3.636   4.597  0.5628  0.1147 -0.0572
 2713SOL     OW10896   0.465   0.055   4.477  0.1340  0.3810  0.5276
 2713SOL    HW210897   0.391   0.003   4.510 -1.8632  1.3622 -2.2134
 2713SOL    HW310898   0.462   0.136   4.529 -0.3841  0.2097  0.7675
 2713SOL    MW410899   0.455   0.059   4.488 -0.1979  0.4878  0.1974
 2714SOL     OW10900   0.820   3.704   4.583  0.2221 -0.4412  0.3352
 2714SOL    HW210901   0.882   3.650   4.633  0.5735 -1.7845 -1.4719
 2714SOL    HW310902   0.869   3.784   4.562  0.3964 -0.2965  1.2993
 2714SOL    MW410903   0.835   3.707   4.587  0.2915 -0.5994  0.2236
 2715SOL     OW10904   0.698   4.613   4.608  0.5780  0.0944 -0.5602
 2715SOL    HW210905   0.627   4.641   4.550  0.7755  1.9410  0.0492
 2715SOL    HW310906   0.771   4.670   4.585  1.6299 -1.2744 -0.6442
 2715SOL    MW410907   0.698   4.624   4.597  0.7428  0.1574 -0.4911
 2716SOL     OW10908   1.414   4.043   4.704  0.4322 -0.0954  0.3949
 2716SOL    HW210909   1.365   4.124   4.713  1.6035  0.7004 -0.2719
 2716SOL    HW310910   1.468   4.038   4.782  0.4644 -0.1758  0.3679
 2716SOL    MW410911   1.415   4.053   4.716  0.5909 -0.0010  0.3028
 2717SOL     OW10912   1.602   4.374   4.514 -0.2029  0.1991  0.1925
 2717SOL    HW210913   1.683   4.424   4.524 -1.1747  1.9557 -0.3413
 2717SOL    HW310914   1.584   4.377   4.420 -1.9573  1.6607  0.5340
 2717SOL    MW410915   1.610   4.381   4.503 -0.5624  0.6242  0.1669
 2718SOL     OW10916   1.041   4.222   4.531  0.2131  0.0595  0.5849
 2718SOL    HW210917   1.019   4.129   4.536 -0.0304  0.1009  0.3051
 2718SOL    HW310918   0.956   4.267   4.535  0.3763  0.2976  1.4520
 2718SOL    MW410919   1.027   4.216   4.532  0.2024  0.0963  0.6618
 2719SOL     OW10920   1.166   0.518   4.450  0.2203 -0.0538 -0.5166
 2719SOL    HW210921   1.080   0.538   4.485 -0.1436 -0.5073 -1.1500
 2719SOL    HW310922   1.185   0.429   4.480 -0.0184 -0.3805 -1.3054
 2719SOL    MW410923   1.157   0.509   4.458  0.1409 -0.1567 -0.7038
 2720SOL     OW10924   1.692   0.094   4.516  0.8069  0.2695 -0.6080
 2720SOL    HW210925   1.601   0.097   4.545  0.7150 -0.8214 -0.7715
 2720SOL    HW310926   1.730   0.021   4.564  1.9476  1.5228  0.4469
 2720SOL    MW410927   1.685   0.085   4.526  0.9452  0.2910 -0.4902
 2721SOL     OW10928   1.401   0.680   4.479 -0.1227 -0.6801 -0.2121
 2721SOL    HW210929   1.320   0.630   4.486 -0.7073  0.0855 -1.2034
 2721SOL    HW310930   1.392   0.728   4.396  0.9118  0.1758  0.1535
 2721SOL    MW410931   1.389   0.680   4.469 -0.0633 -0.4662 -0.2947
 2722SOL     OW10932   1.801   1.587   4.681 -0.8318  0.2402  0.5028
 2722SOL    HW210933   1.799   1.629   4.594 -0.9284  1.4543  1.0774
 2722SOL    HW310934   1.737   1.517   4.675 -3.5305  2.6149  0.7253
 2722SOL    MW410935   1.792   1.584   4.669 -1.2006  0.7137  0.6080
 2723SOL     OW10936   0.908   0.563   4.533  0.0274  0.2971  0.2031
 2723SOL    HW210937   0.847   0.636   4.542 -0.3065  0.2531 -1.5652
 2723SOL    HW310938   0.853   0.486   4.526  0.3476  0.0253  0.6416
 2723SOL    MW410939   0.893   0.563   4.534  0.0256  0.2554  0.0281
 2724SOL     OW10940   2.071   0.403   4.497 -0.4566 -0.3093  0.0766
 2724SOL    HW210941   2.153   0.386   4.542 -0.6734  0.1356  0.6467
 2724SOL    HW310942   2.005   0.355   4.547 -0.5787 -0.4770 -0.2427
 2724SOL    MW410943   2.073   0.394   4.509 -0.5016 -0.2727  0.1097
 2725SOL     OW10944   1.602   1.390   4.602  0.1074 -0.2150 -0.3045
 2725SOL    HW210945   1.530   1.438   4.561  0.5920  0.6241 -0.1773
 2725SOL    HW310946   1.588   1.299   4.574 -2.2515 -0.4439  1.4777
 2725SOL    MW410947   1.591   1.385   4.593 -0.1398 -0.1346 -0.0529
 2726SOL     OW10948   1.485   1.790   4.540  1.1687 -0.3828  0.8627
 2726SOL    HW210949   1.439   1.706   4.545  0.8591 -0.1859  1.3172
 2726SOL    HW310950   1.568   1.769   4.496  0.3528 -0.6125 -0.6192
 2726SOL    MW410951   1.490   1.776   4.535  1.0201 -0.3872  0.7272
 2727SOL     OW10952   1.669   2.486   4.554  0.2892  0.0220  0.6807
 2727SOL    HW210953   1.715   2.553   4.604  1.4910  0.5818 -1.1138
 2727SOL    HW310954   1.690   2.404   4.599  0.1940  0.6597  1.9069
 2727SOL    MW410955   1.678   2.484   4.566  0.4351  0.1802  0.6056
 2728SOL     OW10956   2.075   2.586   4.750 -0.1028  0.3245  0.2485
 2728SOL    HW210957   2.141   2.653   4.770 -0.1132  0.7965 -1.2347
 2728SOL    HW310958   2.103   2.510   4.801 -0.2576  1.5154  2.1912
 2728SOL    MW410959   2.088   2.585   4.760 -0.1247  0.5438  0.3085
 2729SOL     OW10960   1.052   2.255   4.416 -0.1698  0.0688 -0.0682
 2729SOL    HW210961   1.093   2.209   4.343  1.3107  0.6668  0.3727
 2729SOL    HW310962   1.022   2.338   4.378 -1.4377 -0.5761 -0.5018
 2729SOL    MW410963   1.054   2.260   4.401 -0.1417  0.0627 -0.0672
 2730SOL     OW10964   1.225   3.917   4.541 -0.1541 -0.6476  0.1430
 2730SOL    HW210965   1.237   3.822   4.548 -0.0325 -0.7906 -1.7587
 2730SOL    HW310966   1.303   3.954   4.582  0.5169 -1.3970 -0.4553
 2730SOL    MW410967   1.237   3.909   4.547 -0.0495 -0.7651 -0.1869
 2731SOL     OW10968   1.395   2.500   4.507 -0.2259  0.5751  0.2455
 2731SOL    HW210969   1.489   2.503   4.529 -0.0612  0.3496 -0.4074
 2731SOL    HW310970   1.394   2.493   4.412 -0.8858 -1.4113  0.3980
 2731SOL    MW410971   1.408   2.500   4.498 -0.2913  0.2832  0.1793
 2732SOL     OW10972   1.678   2.913   4.561 -0.2369  0.2344 -0.1811
 2732SOL    HW210973   1.627   2.944   4.636  0.0992 -0.0584  0.1686
 2732SOL    HW310974   1.724   2.835   4.594  1.7615  1.4571  0.0018
 2732SOL    MW410975   1.677   2.907   4.575  0.0712  0.3572 -0.1106
 2733SOL     OW10976   1.353   3.163   4.559 -0.2193  0.5766 -0.3099
 2733SOL    HW210977   1.422   3.125   4.613  0.1932 -0.4637 -1.5519
 2733SOL    HW310978   1.271   3.134   4.599  0.0790  0.7028  0.3854
 2733SOL    MW410979   1.351   3.154   4.571 -0.1256  0.4559 -0.3815
 2734SOL     OW10980   1.216   3.633   4.525  0.2045  0.4466 -0.1245
 2734SOL    HW210981   1.288   3.576   4.551 -1.2559 -0.7212  1.4919
 2734SOL    HW310982   1.187   3.598   4.441  0.8639  0.3084 -0.2982
 2734SOL    MW410983   1.222   3.621   4.517  0.0987  0.2742  0.0658
 2735SOL     OW10984   0.546   3.731   4.654 -0.3865 -0.0056  0.3233
 2735SOL    HW210985   0.635   3.711   4.626 -0.5676  0.3900 -0.5446
 2735SOL    HW310986   0.546   3.826   4.667 -0.4183 -0.1315  1.2595
 2735SOL    MW410987   0.558   3.741   4.652 -0.4146  0.0300  0.3324
 2736SOL     OW10988   1.912   3.637   4.530 -0.2953  0.2213 -0.0958
 2736SOL    HW210989   1.948   3.654   4.443 -2.0489  0.8227 -0.7304
 2736SOL    HW310990   1.860   3.715   4.550 -0.3384 -0.1462  1.2676
 2736SOL    MW410991   1.910   3.650   4.521 -0.5323  0.2522  0.0000
 2737SOL     OW10992   1.770   3.185   4.497 -0.4785 -0.0674  0.1170
 2737SOL    HW210993   1.734   3.100   4.521  0.0834  0.0676  1.4426
 2737SOL    HW310994   1.793   3.175   4.404 -3.0488 -0.4264 -0.5089
 2737SOL    MW410995   1.768   3.172   4.488 -0.7434 -0.0970  0.2093
 2738SOL     OW10996   2.123   3.532   4.716  0.1762 -0.1615  0.1584
 2738SOL    HW210997   2.073   3.543   4.634 -0.1701  0.4658  0.4506
 2738SOL    HW310998   2.108   3.441   4.741  2.6282 -1.2374 -2.0099
 2738SOL    MW410999   2.114   3.521   4.708  0.4539 -0.2205 -0.0892
 2739SOL     OW11000   0.951   3.962   4.509  0.0279 -0.2157  0.1553
 2739SOL    HW211001   0.934   3.963   4.415  0.1537  0.3044  0.1370
 2739SOL    HW311002   1.043   3.937   4.518  0.6163  1.8447  0.0449
 2739SOL    MW411003   0.961   3.959   4.498  0.1222  0.1249  0.1383
 2740SOL     OW11004   1.851   4.300   4.769 -0.0895 -0.0734 -0.3687
 2740SOL    HW211005   1.799   4.234   4.723 -0.1641  0.5986 -1.2447
 2740SOL    HW311006   1.942   4.275   4.750 -0.1169  0.0433 -0.6488
 2740SOL    MW411007   1.856   4.288   4.760 -0.1030  0.0305 -0.5207
 2741SOL     OW11008   2.283   0.320   4.652  0.6622 -0.5909 -0.1654
 2741SOL    HW211009   2.314   0.326   4.743 -1.3800  1.4964  0.4543
 2741SOL    HW311010   2.340   0.380   4.604 -0.3088  0.7962  0.3739
 2741SOL    MW411011   2.295   0.329   4.658  0.2644 -0.1325 -0.0124
 2742SOL     OW11012   1.400   0.097   4.544 -0.0579  0.0937 -0.2109
 2742SOL    HW211013   1.320   0.149   4.554  1.0513  1.6645  0.6656
 2742SOL    HW311014   1.374   0.008   4.568 -1.3794  0.7296  0.7593
 2742SOL    MW411015   1.386   0.092   4.548 -0.0859  0.3848  0.0324
 2743SOL     OW11016   1.811   0.339   4.616 -0.0702  0.0251  0.0711
 2743SOL    HW211017   1.778   0.252   4.594 -0.9297  0.5153 -0.5996
 2743SOL    HW311018   1.739   0.398   4.596  0.8627  1.0097 -0.4527
 2743SOL    MW411019   1.797   0.335   4.610 -0.0604  0.2196 -0.0868
 2744SOL     OW11020   2.272   0.039   4.510 -0.0886  0.0445 -0.0407
 2744SOL    HW211021   2.263   0.064   4.418 -0.7473 -0.4600 -0.1236
 2744SOL    HW311022   2.282   0.122   4.557  1.3301  0.2454 -0.6692
 2744SOL    MW411023   2.272   0.053   4.504  0.0114  0.0044 -0.1345
 2745SOL     OW11024   2.105   0.694   4.460 -0.3653  0.4221  0.5788
 2745SOL    HW211025   2.100   0.602   4.485  0.6526 -0.2686 -1.5918
 2745SOL    HW311026   2.016   0.727   4.473 -0.1886 -0.2197  3.6750
 2745SOL    MW411027   2.092   0.686   4.465 -0.2077  0.2463  0.7014
 2746SOL     OW11028   1.661   0.555   4.482 -0.0833  0.0305  0.2140
 2746SOL    HW211029   1.725   0.623   4.505 -0.1412  0.5954 -1.2169
 2746SOL    HW311030   1.578   0.602   4.475  0.0067 -0.0332 -1.5126
 2746SOL    MW411031   1.658   0.570   4.484 -0.0792  0.0966 -0.2027
 2747SOL     OW11032   2.065   1.488   4.766  0.0988  0.1419  0.1369
 2747SOL    HW211033   2.104   1.464   4.683  0.1205 -2.2110  0.8073
 2747SOL    HW311034   1.976   1.514   4.744  0.6779  1.3807 -0.8352
 2747SOL    MW411035   2.059   1.489   4.752  0.1781 -0.0051  0.0973
 2748SOL     OW11036   1.303   1.989   4.481 -0.6338 -0.0203 -0.0014
 2748SOL    HW211037   1.358   1.915   4.508 -0.0126  0.3353 -0.2722
 2748SOL    HW311038   1.349   2.066   4.514  0.9008  0.5428 -3.2122
 2748SOL    MW411039   1.316   1.990   4.489 -0.3494  0.1010 -0.4601
 2749SOL     OW11040   1.770   1.725   4.437 -0.5357 -0.3785 -0.1803
 2749SOL    HW211041   1.763   1.684   4.351 -0.8000 -1.2853  0.2561
 2749SOL    HW311042   1.856   1.766   4.438 -0.1410 -1.1754 -0.5404
 2749SOL    MW411043   1.780   1.725   4.426 -0.5186 -0.6033 -0.1702
 2750SOL     OW11044   1.879   2.064   4.848 -0.0022  0.0656 -0.3789
 2750SOL    HW211045   1.828   1.996   4.805  0.2179 -0.4977  0.2488
 2750SOL    HW311046   1.946   2.016   4.897 -0.2582  0.7012  0.6050
 2750SOL    MW411047   1.881   2.049   4.849 -0.0070  0.0751 -0.1659
 2751SOL     OW11048   1.736   1.864   4.708  0.3316 -0.3202 -0.0490
 2751SOL    HW211049   1.764   1.781   4.747 -0.1383 -0.4625 -0.0167
 2751SOL    HW311050   1.640   1.860   4.710  0.3049  0.5177  0.6002
 2751SOL    MW411051   1.727   1.852   4.714  0.2661 -0.2284  0.0410
 2752SOL     OW11052   1.734   2.028   4.476 -0.0589  0.2685 -0.1134
 2752SOL    HW211053   1.733   1.966   4.550  1.1680  0.3786  0.0053
 2752SOL    HW311054   1.826   2.033   4.451 -0.5215 -0.0762 -1.9306
 2752SOL    MW411055   1.746   2.020   4.483  0.0418  0.2375 -0.3371
 2753SOL     OW11056   1.718   2.236   4.637  0.5617  0.4384  0.1726
 2753SOL    HW211057   1.760   2.191   4.711  0.2568 -0.7260 -0.3376
 2753SOL    HW311058   1.723   2.173   4.565 -0.9350  0.7531 -0.2357
 2753SOL    MW411059   1.724   2.221   4.637  0.3240  0.3262  0.0515
 2754SOL     OW11060   1.819   2.683   4.636  0.1993  0.5427  0.3505
 2754SOL    HW211061   1.882   2.705   4.567  0.4908  0.6585  0.6498
 2754SOL    HW311062   1.874   2.649   4.707 -0.3010 -2.1457 -0.4805
 2754SOL    MW411063   1.835   2.681   4.636  0.1717  0.2036  0.2804
 2755SOL     OW11064   2.178   2.933   4.611  0.0560  0.6220  0.4632
 2755SOL    HW211065   2.261   2.927   4.564 -0.5471 -0.6096 -0.4943
 2755SOL    HW311066   2.161   3.026   4.618  0.9328  0.8540 -0.4111
 2755SOL    MW411067   2.187   2.944   4.605  0.0920  0.4902  0.2213
 2756SOL     OW11068   1.681   4.126   4.602  0.1434  0.1602 -0.6150
 2756SOL    HW211069   1.645   4.209   4.571 -0.8599 -0.7657 -2.0051
 2756SOL    HW311070   1.605   4.076   4.632  0.7961 -0.0506  0.7397
 2756SOL    MW411071   1.666   4.130   4.602  0.0970  0.0105 -0.6194
 2757SOL     OW11072   2.142   3.388   4.411  0.3250  0.1787 -0.3382
 2757SOL    HW211073   2.176   3.318   4.355 -2.2386 -0.2389 -1.4265
 2757SOL    HW311074   2.115   3.457   4.350 -1.1073  0.3518  0.4594
 2757SOL    MW411075   2.143   3.388   4.396 -0.2022  0.1466 -0.3762
 2758SOL     OW11076   2.031   3.191   4.613  0.7179 -0.1280 -0.3700
 2758SOL    HW211077   1.942   3.177   4.581  0.2319 -0.6835  1.1520
 2758SOL    HW311078   2.072   3.248   4.549 -0.9822  0.7533 -0.6840
 2758SOL    MW411079   2.025   3.197   4.600  0.4294 -0.0851 -0.2108
 2759SOL     OW11080   2.563   3.654   4.532 -0.5232 -0.2860 -0.3127
 2759SOL    HW211081   2.482   3.605   4.549 -0.1218 -0.6244  0.6339
 2759SOL    HW311082   2.545   3.743   4.560 -0.4882 -0.4136  0.1074
 2759SOL    MW411083   2.550   3.659   4.538 -0.4654 -0.3474 -0.1326
 2760SOL     OW11084   2.124   3.972   4.566 -0.6830  0.4174 -0.4868
 2760SOL    HW211085   2.032   3.947   4.554 -0.7077  0.5060 -0.4862
 2760SOL    HW311086   2.158   3.983   4.477 -0.1998 -1.2729 -0.5329
 2760SOL    MW411087   2.116   3.970   4.553 -0.6225  0.2060 -0.4926
 2761SOL     OW11088   2.275   3.772   4.691 -0.0488  0.1324  0.1108
 2761SOL    HW211089   2.205   3.836   4.675  0.4846  0.6497 -0.1682
 2761SOL    HW311090   2.230   3.696   4.728 -0.7721  0.4363 -0.1341
 2761SOL    MW411091   2.260   3.770   4.693 -0.0737  0.2408  0.0415
 2762SOL     OW11092   1.859   3.916   4.517  0.5700 -0.6201 -0.3276
 2762SOL    HW211093   1.809   3.981   4.566  1.6979 -0.5328  0.7318
 2762SOL    HW311094   1.843   3.938   4.425  1.4605  1.5921  0.0115
 2762SOL    MW411095   1.850   3.928   4.511  0.8364 -0.3164 -0.1431
 2763SOL     OW11096   2.110   4.228   4.669  0.6070 -0.0170 -0.1154
 2763SOL    HW211097   2.206   4.231   4.673  0.6457 -0.7613 -0.3613
 2763SOL    HW311098   2.091   4.147   4.621 -0.1642 -0.4794  0.9427
 2763SOL    MW411099   2.120   4.217   4.663  0.5105 -0.1760 -0.0081
 2764SOL     OW11100   1.828   4.509   4.608  0.1361 -0.7803  0.3543
 2764SOL    HW211101   1.912   4.501   4.563 -0.2732 -2.2539 -0.1735
 2764SOL    HW311102   1.829   4.441   4.674 -0.0808  0.1076  1.2917
 2764SOL    MW411103   1.839   4.499   4.611  0.0535 -0.8578  0.4082
 2765SOL     OW11104   2.098   4.474   4.505 -0.0250 -0.3040 -0.0406
 2765SOL    HW211105   2.102   4.399   4.564  0.0964  0.2129  0.6209
 2765SOL    HW311106   2.165   4.534   4.539  0.9323 -0.5518 -1.4699
 2765SOL    MW411107   2.108   4.472   4.517  0.1178 -0.2685 -0.1416
 2766SOL     OW11108   2.455   4.494   4.479 -0.0174 -0.3529 -0.3602
 2766SOL    HW211109   2.448   4.458   4.391  0.7387  1.0424 -1.0040
 2766SOL    HW311110   2.391   4.565   4.482 -0.4310 -0.7516  0.3938
 2766SOL    MW411111   2.446   4.499   4.468  0.0277 -0.2213 -0.3457
 2767SOL     OW11112   1.342   1.566   4.479 -0.6182  0.0238  0.3369
 2767SOL    HW211113   1.306   1.480   4.456  2.1981 -1.1279  0.0012
 2767SOL    HW311114   1.362   1.607   4.394  0.6576 -0.1861  0.5194
 2767SOL    MW411115   1.340   1.560   4.465 -0.0782 -0.1558  0.3166
 2768SOL     OW11116   2.716   4.571   4.426  0.0970 -0.0174  0.0056
 2768SOL    HW211117   2.627   4.550   4.452 -0.0531 -0.3031 -0.7177
 2768SOL    HW311118   2.706   4.639   4.360  0.5614  2.0988  2.0536
 2768SOL    MW411119   2.703   4.577   4.421  0.1383  0.2241  0.1802
 2769SOL     OW11120   2.448   0.793   4.540  0.0567 -0.1492 -0.1955
 2769SOL    HW211121   2.374   0.836   4.496 -0.1978 -0.7140 -0.3244
 2769SOL    HW311122   2.521   0.854   4.530 -0.8316  1.2094  1.4598
 2769SOL    MW411123   2.448   0.807   4.533 -0.0939 -0.0444  0.0057
 2770SOL     OW11124   2.903   0.828   4.611  0.1023 -0.1416 -0.6460
 2770SOL    HW211125   2.991   0.837   4.575  0.7500 -0.7840  0.7203
 2770SOL    HW311126   2.881   0.736   4.597 -0.7207  0.2261 -1.7903
 2770SOL    MW411127   2.912   0.817   4.605  0.0792 -0.1778 -0.6166
 2771SOL     OW11128   2.203   1.431   4.536 -0.1068  0.2893 -0.2837
 2771SOL    HW211129   2.294   1.404   4.522 -0.4232 -0.6194 -0.6227
 2771SOL    HW311130   2.200   1.521   4.504  1.1184  0.9723  1.4210
 2771SOL    MW411131   2.215   1.439   4.530  0.0131  0.2594 -0.1035
 2772SOL     OW11132   2.475   1.359   4.445 -0.2732 -0.2227 -0.3975
 2772SOL    HW211133   2.525   1.298   4.498  1.2642 -0.2923 -1.8836
 2772SOL    HW311134   2.510   1.446   4.468 -1.7474  0.0449  0.9531
 2772SOL    MW411135   2.486   1.363   4.455 -0.2649 -0.1966 -0.4158
 2773SOL     OW11136   2.593   1.613   4.541  0.2337  0.1835 -0.5222
 2773SOL    HW211137   2.679   1.636   4.506  0.8750 -0.8076  0.3573
 2773SOL    HW311138   2.610   1.592   4.633 -1.1456  1.0910 -0.0479
 2773SOL    MW411139   2.607   1.613   4.549  0.1366  0.1724 -0.3443
 2774SOL     OW11140   2.271   1.688   4.429 -0.2978 -0.1820 -0.1975
 2774SOL    HW211141   2.350   1.740   4.416 -0.4037  0.2458  0.7891
 2774SOL    HW311142   2.205   1.752   4.457 -1.0494 -0.5030 -1.2335
 2774SOL    MW411143   2.273   1.703   4.431 -0.4110 -0.1680 -0.2036
 2775SOL     OW11144   2.033   1.841   4.435  0.2086 -0.1227  0.0302
 2775SOL    HW211145   2.047   1.876   4.523 -1.8020 -0.6627  0.5865
 2775SOL    HW311146   2.046   1.916   4.377  0.9605  0.3633  0.8194
 2775SOL    MW411147   2.037   1.856   4.439  0.0424 -0.1298  0.2074
 2776SOL     OW11148   2.494   1.854   4.436  0.1645 -0.4283  0.0963
 2776SOL    HW211149   2.560   1.794   4.470  1.5153  1.0725  0.1845
 2776SOL    HW311150   2.469   1.907   4.512 -0.0516 -0.0135 -0.2650
 2776SOL    MW411151   2.500   1.853   4.451  0.3140 -0.1755  0.0601
 2777SOL     OW11152   2.695   2.253   4.505  0.3049  0.0447 -0.0217
 2777SOL    HW211153   2.763   2.307   4.545  0.6681 -0.2145 -0.2844
 2777SOL    HW311154   2.660   2.307   4.435  0.8000 -0.1281 -0.4069
 2777SOL    MW411155   2.699   2.267   4.501  0.4184 -0.0122 -0.1073
 2778SOL     OW11156   2.438   2.564   4.452  0.2358 -0.3901  0.6329
 2778SOL    HW211157   2.345   2.545   4.464  0.4500 -1.1509  1.1133
 2778SOL    HW311158   2.459   2.627   4.521 -0.5521  1.9363 -1.1627
 2778SOL    MW411159   2.429   2.570   4.463  0.1602 -0.1833  0.4592
 2779SOL     OW11160   2.028   2.771   4.440 -0.0208  0.3712 -0.1070
 2779SOL    HW211161   2.059   2.840   4.499 -0.5677 -0.5200  1.2490
 2779SOL    HW311162   2.093   2.701   4.450 -0.5192 -0.0780  0.0159
 2779SOL    MW411163   2.041   2.771   4.449 -0.1588  0.1943  0.0882
 2780SOL     OW11164   2.417   2.907   4.468  0.0819 -0.2310 -0.3994
 2780SOL    HW211165   2.472   2.852   4.524 -1.3271 -1.1650  0.0873
 2780SOL    HW311166   2.432   2.996   4.500 -0.2649 -0.6968  1.0905
 2780SOL    MW411167   2.426   2.911   4.479 -0.1500 -0.4158 -0.1392
 2781SOL     OW11168   2.471   3.179   4.580 -0.0790 -0.4228 -0.0421
 2781SOL    HW211169   2.559   3.196   4.614  0.4716 -0.4022 -1.4279
 2781SOL    HW311170   2.439   3.264   4.552 -0.7027 -0.3703  0.8136
 2781SOL    MW411171   2.478   3.192   4.581 -0.0887 -0.4129 -0.1121
 2782SOL     OW11172   1.262   4.278   4.735 -0.0347 -0.0889 -0.0847
 2782SOL    HW211173   1.182   4.255   4.688 -1.0794  0.5371  1.3410
 2782SOL    HW311174   1.291   4.359   4.695 -0.2815 -0.1555 -0.4037
 2782SOL    MW411175   1.255   4.285   4.724 -0.2052 -0.0153  0.0620
 2783SOL     OW11176   2.758   4.016   4.521  0.0805  0.2084  0.1931
 2783SOL    HW211177   2.689   4.035   4.584  0.4052  2.4492 -0.0905
 2783SOL    HW311178   2.716   4.023   4.435  0.5827  1.3508  0.0280
 2783SOL    MW411179   2.743   4.020   4.518  0.1895  0.6552  0.1340
 2784SOL     OW11180   2.365   3.452   4.561  0.0954  0.5169  0.2727
 2784SOL    HW211181   2.283   3.428   4.518  0.9879 -1.5455 -0.3062
 2784SOL    HW311182   2.338   3.497   4.641 -1.5832  0.7375 -0.3983
 2784SOL    MW411183   2.350   3.455   4.566 -0.0083  0.2739  0.1073
 2785SOL     OW11184   3.456   3.994   4.852  0.3268  0.0615 -0.3013
 2785SOL    HW211185   3.404   4.073   4.835  0.1578 -0.1547 -0.8104
 2785SOL    HW311186   3.407   3.948   4.920  1.2589  1.1764  1.1506
 2785SOL    MW411187   3.442   3.999   4.858  0.4275  0.1800 -0.1769
 2786SOL     OW11188   3.114   3.782   4.507 -0.5038  0.1251 -0.1727
 2786SOL    HW211189   3.042   3.774   4.570  0.2240 -0.1010  0.6400
 2786SOL    HW311190   3.192   3.790   4.561  0.1135  0.1314 -1.0566
 2786SOL    MW411191   3.114   3.782   4.522 -0.3266  0.0963 -0.1817
 2787SOL     OW11192   2.471   3.949   4.661  0.0266  0.1091 -0.5276
 2787SOL    HW211193   2.420   4.016   4.615 -1.1047 -0.6342 -0.3789
 2787SOL    HW311194   2.405   3.896   4.706  0.9390 -0.8476 -0.3086
 2787SOL    MW411195   2.455   3.951   4.661 -0.0021 -0.1149 -0.4792
 2788SOL     OW11196   2.401   4.255   4.615 -0.1417 -0.0139 -0.1955
 2788SOL    HW211197   2.414   4.336   4.565 -1.1065  0.0730 -0.3214
 2788SOL    HW311198   2.462   4.262   4.688  0.1481  0.5957 -0.4871
 2788SOL    MW411199   2.411   4.267   4.618 -0.2306  0.0777 -0.2503
 2789SOL     OW11200   3.093   0.408   4.573 -0.2793  0.0322 -0.2843
 2789SOL    HW211201   3.064   0.446   4.490 -0.0732  1.6503  0.3553
 2789SOL    HW311202   3.183   0.439   4.584 -0.0871 -0.6872  0.2419
 2789SOL    MW411203   3.101   0.417   4.564 -0.2265  0.1508 -0.1307
 2790SOL     OW11204   2.946   4.578   4.614  0.2481 -0.0930  0.1923
 2790SOL    HW211205   2.992   4.662   4.609 -0.0928  0.0381 -1.0744
 2790SOL    HW311206   2.858   4.598   4.582  0.2264 -0.9742 -0.3109
 2790SOL    MW411207   2.941   4.592   4.609  0.2003 -0.1922 -0.0410
 2791SOL     OW11208   3.127   0.137   4.578 -0.1056 -0.1499  0.2763
 2791SOL    HW211209   3.124   0.232   4.586  0.8860 -0.0021 -1.1229
 2791SOL    HW311210   3.200   0.110   4.634 -0.3026 -0.0856  0.5667
 2791SOL    MW411211   3.136   0.146   4.587 -0.0010 -0.1219  0.1297
 2792SOL     OW11212   2.664   0.939   4.496  0.1851  0.3023  0.4674
 2792SOL    HW211213   2.739   0.896   4.536  0.2482  0.2049  0.2412
 2792SOL    HW311214   2.675   0.926   4.402 -1.0341 -1.2431  0.5167
 2792SOL    MW411215   2.675   0.932   4.489  0.0327  0.0855  0.4439
 2793SOL     OW11216   3.612   0.698   4.749 -0.1643 -0.2216 -0.1383
 2793SOL    HW211217   3.700   0.736   4.738 -0.5059  0.2422 -1.3296
 2793SOL    HW311218   3.623   0.606   4.727  0.1243 -0.2775  0.2240
 2793SOL    MW411219   3.625   0.691   4.745 -0.1712 -0.1678 -0.2480
 2794SOL     OW11220   2.231   0.947   4.432 -0.1621 -0.1410  0.3229
 2794SOL    HW211221   2.186   1.028   4.455 -0.0350  0.6312 -1.9897
 2794SOL    HW311222   2.167   0.878   4.451 -0.9548  0.6405  0.5478
 2794SOL    MW411223   2.217   0.949   4.437 -0.2499  0.0640  0.0472
 2795SOL     OW11224   2.657   1.213   4.596  0.4303  0.1785 -0.5799
 2795SOL    HW211225   2.747   1.237   4.575  0.5005  0.0039 -0.4764
 2795SOL    HW311226   2.650   1.121   4.570  1.0776 -0.6123  1.9612
 2795SOL    MW411227   2.668   1.204   4.590  0.5248  0.0510 -0.2308
 2796SOL     OW11228   2.907   1.286   4.526 -0.1906  0.0483  0.2266
 2796SOL    HW211229   2.922   1.379   4.543 -0.0682 -0.0332  0.5673
 2796SOL    HW311230   2.935   1.273   4.436  0.8500  0.1052  0.5386
 2796SOL    MW411231   2.912   1.297   4.516 -0.0374  0.0451  0.3128
 2797SOL     OW11232   2.991   1.554   4.608 -0.1938  0.0644 -0.4696
 2797SOL    HW211233   2.938   1.605   4.547 -1.3653 -0.6807 -0.0975
 2797SOL    HW311234   2.931   1.532   4.679  0.8839  0.0562  0.4582
 2797SOL    MW411235   2.976   1.558   4.610 -0.2060 -0.0349 -0.2980
 2798SOL     OW11236   2.838   1.704   4.445  0.1033 -0.3260 -0.0925
 2798SOL    HW211237   2.826   1.797   4.461  0.3562 -0.5426  1.4485
 2798SOL    HW311238   2.812   1.691   4.354  0.7411  1.3672 -0.5296
 2798SOL    MW411239   2.833   1.715   4.435  0.2208 -0.1312  0.0534
 2799SOL     OW11240   2.777   1.988   4.485 -0.2191 -0.0064  0.2348
 2799SOL    HW211241   2.744   2.077   4.497 -0.4128 -0.2949  1.9750
 2799SOL    HW311242   2.864   2.000   4.445 -0.7076  0.9006 -0.5872
 2799SOL    MW411243   2.784   2.002   4.481 -0.3095  0.0753  0.3562
 2800SOL     OW11244   3.066   2.267   4.487  0.3803 -0.2943 -0.0444
 2800SOL    HW211245   2.991   2.316   4.522  1.7967  1.9170  0.0111
 2800SOL    HW311246   3.065   2.287   4.393  0.3748 -1.0224 -0.2060
 2800SOL    MW411247   3.056   2.276   4.479  0.5665 -0.0987 -0.0587
 2801SOL     OW11248   3.220   2.138   4.691  0.0187  0.3511  0.2305
 2801SOL    HW211249   3.223   2.188   4.772 -0.9207 -0.3294  0.6975
 2801SOL    HW311250   3.160   2.187   4.634  0.5135  0.7174  0.0244
 2801SOL    MW411251   3.212   2.151   4.694 -0.0403  0.3097  0.2651
 2802SOL     OW11252   2.171   2.538   4.475 -0.1171  0.0613 -0.6544
 2802SOL    HW211253   2.132   2.542   4.563  0.9309  0.3922 -0.1969
 2802SOL    HW311254   2.109   2.487   4.423  0.1749 -1.7541  0.7576
 2802SOL    MW411255   2.157   2.532   4.480  0.0596 -0.1345 -0.4072
 2803SOL     OW11256   3.301   2.459   4.593 -0.1249 -0.2503 -0.1257
 2803SOL    HW211257   3.250   2.403   4.535 -0.4956  0.2678 -0.3054
 2803SOL    HW311258   3.283   2.426   4.681 -1.9576  0.8603 -0.0663
 2803SOL    MW411259   3.292   2.447   4.597 -0.4156 -0.0355 -0.1411
 2804SOL     OW11260   2.947   3.004   4.604 -0.7201 -0.2143 -0.0274
 2804SOL    HW211261   2.989   2.935   4.551  1.1826  0.4797  0.5290
 2804SOL    HW311262   2.941   2.966   4.692 -1.2391 -0.2909 -0.0934
 2804SOL    MW411263   2.952   2.990   4.608 -0.5376 -0.1330  0.0372
 2805SOL     OW11264   2.744   3.253   4.569  0.4588  0.5670  0.0610
 2805SOL    HW211265   2.814   3.191   4.594 -1.5165 -1.7086  0.1169
 2805SOL    HW311266   2.738   3.243   4.474 -1.5249 -1.1978  0.3416
 2805SOL    MW411267   2.753   3.243   4.559 -0.0634  0.0341  0.1049
 2806SOL     OW11268   2.999   2.742   4.763  0.0370  0.0778  0.0381
 2806SOL    HW211269   2.993   2.649   4.786  0.8218  0.0576  0.1817
 2806SOL    HW311270   3.072   2.747   4.701 -0.8268  0.4218 -0.9572
 2806SOL    MW411271   3.008   2.730   4.758  0.0267  0.1206 -0.0744
 2807SOL     OW11272   2.909   3.773   4.687 -0.3060 -0.2970  0.1465
 2807SOL    HW211273   2.855   3.851   4.685 -0.0180 -0.1165 -0.6227
 2807SOL    HW311274   2.852   3.703   4.656  0.3092  0.1481 -2.0396
 2807SOL    MW411275   2.894   3.774   4.683 -0.1867 -0.2143 -0.2427
 2808SOL     OW11276   3.388   3.854   4.627 -0.2653 -0.0994 -0.1228
 2808SOL    HW211277   3.442   3.775   4.618 -0.5238 -0.2706 -0.1825
 2808SOL    HW311278   3.421   3.898   4.705 -0.2254 -0.3496 -0.0008
 2808SOL    MW411279   3.399   3.849   4.636 -0.2937 -0.1547 -0.1144
 2809SOL     OW11280   3.874   3.824   4.640 -0.2227 -0.1200  0.1789
 2809SOL    HW211281   3.955   3.792   4.679 -0.3288  0.5314  0.9374
 2809SOL    HW311282   3.826   3.744   4.617 -0.3349 -0.5177  1.7266
 2809SOL    MW411283   3.878   3.809   4.642 -0.2518 -0.0865  0.4830
 2810SOL     OW11284   2.817   3.538   4.550 -0.5572  0.5033  0.3420
 2810SOL    HW211285   2.735   3.587   4.541 -0.7297  0.3394  1.0088
 2810SOL    HW311286   2.790   3.450   4.575 -0.2314  0.1338 -0.5768
 2810SOL    MW411287   2.802   3.533   4.552 -0.5369  0.4330  0.3085
 2811SOL     OW11288   2.977   4.151   4.419  0.2453  0.2299 -0.3205
 2811SOL    HW211289   2.905   4.098   4.454  1.3128  0.1806  1.8819
 2811SOL    HW311290   3.041   4.088   4.388  0.5480  0.2352  0.2815
 2811SOL    MW411291   2.976   4.136   4.420  0.4261  0.2241  0.0496
 2812SOL     OW11292   3.109   4.352   4.600  0.4607 -0.3932  0.1828
 2812SOL    HW211293   3.071   4.305   4.526  1.1853 -0.2587 -0.2798
 2812SOL    HW311294   3.051   4.427   4.613 -0.2790 -1.0079  0.4449
 2812SOL    MW411295   3.097   4.356   4.592  0.4585 -0.4568  0.1559
 2813SOL     OW11296   3.371   0.506   4.547 -0.1209 -0.7203 -0.9097
 2813SOL    HW211297   3.373   0.498   4.452 -0.3334 -0.2276 -0.9603
 2813SOL    HW311298   3.366   0.601   4.562  1.0222 -0.7357 -0.3943
 2813SOL    MW411299   3.370   0.518   4.536  0.0021 -0.6574 -0.8483
 2814SOL     OW11300   2.508   0.519   4.540  0.1561 -0.1969 -0.1496
 2814SOL    HW211301   2.603   0.529   4.536  0.1543 -0.7189 -1.9115
 2814SOL    HW311302   2.474   0.608   4.535  0.5681  0.0214  0.9413
 2814SOL    MW411303   2.516   0.532   4.539  0.2100 -0.2369 -0.2375
 2815SOL     OW11304   2.642   1.287   4.877 -0.3093  0.6844 -0.4067
 2815SOL    HW211305   2.591   1.220   4.923 -0.2075  1.0095  0.1811
 2815SOL    HW311306   2.652   1.252   4.788  2.0560 -1.3615  0.6087
 2815SOL    MW411307   2.637   1.273   4.871  0.0162  0.4575 -0.1950
 2816SOL     OW11308   2.800   0.573   4.571  0.3475  0.1972  0.4127
 2816SOL    HW211309   2.842   0.554   4.487 -0.4595  1.9582 -0.4272
 2816SOL    HW311310   2.836   0.508   4.631  0.1461 -1.7683 -1.5271
 2816SOL    MW411311   2.810   0.562   4.568  0.2141  0.1702  0.0453
 2817SOL     OW11312   3.379   0.769   4.605  0.2202 -0.3374 -0.1435
 2817SOL    HW211313   3.432   0.843   4.574  1.0172 -1.2660 -1.0134
 2817SOL    HW311314   3.422   0.741   4.686  0.9499 -0.9572 -0.7384
 2817SOL    MW411315   3.392   0.775   4.612  0.4218 -0.5417 -0.3366
 2818SOL     OW11316   3.393   1.217   4.459  0.2208 -0.0547  0.1976
 2818SOL    HW211317   3.306   1.212   4.500 -0.8172 -0.3513 -1.9829
 2818SOL    HW311318   3.435   1.134   4.482 -0.5801 -0.4715  0.1880
 2818SOL    MW411319   3.387   1.205   4.468 -0.0219 -0.1488 -0.0911
 2819SOL     OW11320   2.768   1.521   4.781  0.0034  0.2120  0.0339
 2819SOL    HW211321   2.784   1.593   4.840 -0.5120  0.5598 -0.2424
 2819SOL    HW311322   2.731   1.452   4.836 -0.2919  0.4628  0.1485
 2819SOL    MW411323   2.765   1.521   4.796 -0.1035  0.2910  0.0124
 2820SOL     OW11324   3.790   1.022   4.643 -0.0427 -0.0690  0.6201
 2820SOL    HW211325   3.859   1.085   4.622 -1.3331  1.4314  0.8381
 2820SOL    HW311326   3.795   1.011   4.738 -0.5756  0.5633  0.7145
 2820SOL    MW411327   3.800   1.029   4.653 -0.2832  0.2123  0.6609
 2821SOL     OW11328   3.460   1.446   4.594  0.0901 -0.2572 -0.2908
 2821SOL    HW211329   3.383   1.498   4.570 -0.5786 -0.9214  0.4025
 2821SOL    HW311330   3.460   1.373   4.532  0.2253 -0.2010 -0.3581
 2821SOL    MW411331   3.450   1.443   4.582  0.0198 -0.3375 -0.2084
 2822SOL     OW11332   3.254   1.627   4.544  0.1110  0.3474  0.1793
 2822SOL    HW211333   3.285   1.697   4.601 -1.4314  1.0148  0.2239
 2822SOL    HW311334   3.165   1.609   4.574 -0.6053  0.4778 -1.7791
 2822SOL    MW411335   3.247   1.634   4.555 -0.1872  0.4526 -0.0730
 2823SOL     OW11336   3.393   1.936   4.552  0.2130 -0.0208  0.4150
 2823SOL    HW211337   3.340   2.004   4.594  0.6860  0.6294 -0.0385
 2823SOL    HW311338   3.390   1.958   4.459  0.4889 -0.5439  0.2827
 2823SOL    MW411339   3.385   1.948   4.546  0.3116 -0.0041  0.3381
 2824SOL     OW11340   3.795   1.851   4.662  0.0029 -0.0868 -0.2442
 2824SOL    HW211341   3.737   1.916   4.622 -1.9966 -1.5102  0.2376
 2824SOL    HW311342   3.784   1.862   4.756  1.2174  0.2365 -0.1371
 2824SOL    MW411343   3.786   1.861   4.669 -0.1006 -0.2321 -0.1664
 2825SOL     OW11344   2.829   2.682   4.542 -0.0167  0.2022 -0.1948
 2825SOL    HW211345   2.878   2.715   4.617 -0.9858  1.0388  0.0743
 2825SOL    HW311346   2.843   2.587   4.544  1.4420  0.4148 -0.0230
 2825SOL    MW411347   2.837   2.674   4.552  0.0477  0.3409 -0.1364
 2826SOL     OW11348   3.545   2.542   4.530 -0.0641  0.2218 -0.0453
 2826SOL    HW211349   3.453   2.531   4.554 -0.1971  1.0217 -0.1782
 2826SOL    HW311350   3.575   2.618   4.580  0.5567 -0.0968  0.0768
 2826SOL    MW411351   3.537   2.551   4.539  0.0005  0.2849 -0.0472
 2827SOL     OW11352   3.255   2.378   4.850  0.2159  0.0132  0.3894
 2827SOL    HW211353   3.167   2.416   4.845 -0.3785 -1.3759 -0.1018
 2827SOL    HW311354   3.291   2.411   4.932 -1.2897 -0.4786  1.2612
 2827SOL    MW411355   3.248   2.387   4.860 -0.0610 -0.2351  0.4396
 2828SOL     OW11356   3.632   2.764   4.665  0.0859  0.3982  0.0098
 2828SOL    HW211357   3.705   2.813   4.627  0.0688  0.2069 -0.2699
 2828SOL    HW311358   3.556   2.820   4.650 -0.1041 -0.1906 -1.2568
 2828SOL    MW411359   3.632   2.778   4.658  0.0587  0.2952 -0.1936
 2829SOL     OW11360   3.210   3.109   4.560 -0.5371  0.0607 -0.3524
 2829SOL    HW211361   3.117   3.087   4.566 -0.5468  0.1855 -0.0382
 2829SOL    HW311362   3.221   3.145   4.472 -1.0976  1.5118  0.1648
 2829SOL    MW411363   3.199   3.110   4.549 -0.6123  0.2685 -0.2427
 2830SOL     OW11364   3.392   2.878   4.575  0.2052  0.0322 -0.4339
 2830SOL    HW211365   3.400   2.866   4.480 -0.0614  1.3261 -0.6272
 2830SOL    HW311366   3.327   2.948   4.585 -1.3317 -1.5202  0.7562
 2830SOL    MW411367   3.384   2.886   4.563 -0.0327 -0.0019 -0.3028
 2831SOL     OW11368   3.856   2.571   4.758  0.2936  0.1879  0.1931
 2831SOL    HW211369   3.798   2.504   4.722  2.2338 -0.4343 -1.9676
 2831SOL    HW311370   3.799   2.633   4.801 -1.7326 -1.7840  0.4297
 2831SOL    MW411371   3.841   2.570   4.759  0.2823 -0.1543 -0.0606
 2832SOL     OW11372   3.669   3.177   4.551  0.1265  0.0902  0.0280
 2832SOL    HW211373   3.739   3.230   4.590  1.2493 -1.1104 -0.3383
 2832SOL    HW311374   3.654   3.216   4.465  0.1841  0.4903  0.1985
 2832SOL    MW411375   3.676   3.189   4.545  0.2823 -0.0157  0.0024
 2833SOL     OW11376   3.555   4.059   4.530  0.5987  0.3520  0.1327
 2833SOL    HW211377   3.610   4.044   4.607  0.7486 -0.2125 -0.0857
 2833SOL    HW311378   3.492   3.987   4.531 -0.2283  1.0714  0.4573
 2833SOL    MW411379   3.554   4.048   4.540  0.5095  0.3724  0.1469
 2834SOL     OW11380   3.314   4.253   4.815 -0.5053 -0.1615 -0.3611
 2834SOL    HW211381   3.392   4.287   4.771  0.1028 -0.3739  0.5465
 2834SOL    HW311382   3.241   4.297   4.771  0.2085  1.3652 -0.0563
 2834SOL    MW411383   3.315   4.263   4.803 -0.3307  0.0114 -0.2007
 2835SOL     OW11384   3.343   4.495   4.520  0.0001 -0.2730 -0.2753
 2835SOL    HW211385   3.402   4.434   4.565 -0.2614  0.3453  0.9520
 2835SOL    HW311386   3.256   4.461   4.538 -0.1864  0.8450  1.0547
 2835SOL    MW411387   3.340   4.483   4.528 -0.0587 -0.0443  0.0625
 2836SOL     OW11388   3.514   4.313   4.648  0.0351 -0.4214  0.4367
 2836SOL    HW211389   3.510   4.223   4.615 -0.2058 -0.4392  0.5135
 2836SOL    HW311390   3.600   4.344   4.620  0.5299 -1.0091  1.2738
 2836SOL    MW411391   3.525   4.305   4.640  0.0687 -0.5012  0.5574
 2837SOL     OW11392   3.720   4.025   4.746 -0.9182 -0.2860  0.3253
 2837SOL    HW211393   3.767   3.944   4.728  1.1790  0.4273  2.4193
 2837SOL    HW311394   3.648   3.999   4.803 -0.0873 -0.6624  1.2171
 2837SOL    MW411395   3.716   4.011   4.751 -0.5317 -0.2408  0.7191
 2838SOL     OW11396   3.575   0.159   4.623  0.2521  0.4216  0.2974
 2838SOL    HW211397   3.499   0.108   4.651  1.3186 -0.6737  1.1953
 2838SOL    HW311398   3.555   0.182   4.532 -0.2763 -1.5062 -0.0887
 2838SOL    MW411399   3.562   0.156   4.614  0.3231  0.0228  0.3653
 2839SOL     OW11400   3.156   0.921   4.512  0.3660  0.0972  0.2642
 2839SOL    HW211401   3.155   1.010   4.548  0.9498  0.1500  0.1555
 2839SOL    HW311402   3.233   0.880   4.552 -0.4374 -0.6715  1.0535
 2839SOL    MW411403   3.166   0.927   4.522  0.3371  0.0027  0.3543
 2840SOL     OW11404   3.158   1.170   4.615  0.1714  0.2805 -0.3173
 2840SOL    HW211405   3.177   1.180   4.709 -0.1663  0.7131 -0.2955
 2840SOL    HW311406   3.072   1.209   4.604  0.3015  0.4148 -0.8499
 2840SOL    MW411407   3.149   1.176   4.626  0.1440  0.3552 -0.3848
 2841SOL     OW11408   4.146   1.600   4.523  0.1101  0.2351 -0.1720
 2841SOL    HW211409   4.216   1.541   4.551  0.9754  0.9229 -0.8937
 2841SOL    HW311410   4.075   1.541   4.497  0.4422 -0.4629  0.4715
 2841SOL    MW411411   4.146   1.584   4.523  0.2685  0.2339 -0.1826
 2842SOL     OW11412   4.006   1.185   4.583 -0.3878 -0.6762  0.3133
 2842SOL    HW211413   4.088   1.169   4.630  0.2534  0.4216 -0.4013
 2842SOL    HW311414   4.010   1.278   4.559 -0.7461 -1.1676 -1.7862
 2842SOL    MW411415   4.017   1.195   4.586 -0.3505 -0.5963 -0.0582
 2843SOL     OW11416   4.156   0.841   4.525 -0.6112  0.0490  0.0237
 2843SOL    HW211417   4.228   0.777   4.523 -0.1663  0.4565  1.9638
 2843SOL    HW311418   4.142   0.864   4.434 -0.0215 -2.0001 -0.6110
 2843SOL    MW411419   4.163   0.835   4.513 -0.4740 -0.1677  0.1960
 2844SOL     OW11420   0.020   0.647   4.672 -0.0509  0.2198 -0.1774
 2844SOL    HW211421  -0.050   0.594   4.635  0.0701 -0.5391  0.6576
 2844SOL    HW311422   0.023   0.622   4.764  0.0818  1.6069  0.2045
 2844SOL    MW411423   0.011   0.637   4.679 -0.0174  0.3027 -0.0167
 2845SOL     OW11424   3.688   1.598   4.538  0.4522 -0.1944  0.4054
 2845SOL    HW211425   3.691   1.673   4.598  0.3582 -0.2552  0.4869
 2845SOL    HW311426   3.619   1.542   4.574 -0.3089  0.2556 -0.3390
 2845SOL    MW411427   3.680   1.601   4.551  0.3393 -0.1431  0.3185
 2846SOL     OW11428   4.056   1.867   4.607  0.1770  0.0251 -0.1753
 2846SOL    HW211429   3.963   1.852   4.624  0.5410  0.0291  1.9080
 2846SOL    HW311430   4.096   1.780   4.615  0.6788  0.3749  1.1565
 2846SOL    MW411431   4.049   1.853   4.610  0.2909  0.0719  0.2756
 2847SOL     OW11432   3.636   2.073   4.591 -0.3587  0.9130 -0.3437
 2847SOL    HW211433   3.650   2.099   4.500 -1.3195  0.3209 -0.6762
 2847SOL    HW311434   3.554   2.023   4.589  0.5728 -0.7017  0.5275
 2847SOL    MW411435   3.627   2.070   4.579 -0.3626  0.6220 -0.2728
 2848SOL     OW11436   4.322   2.224   4.608  0.0638 -0.0531 -0.6320
 2848SOL    HW211437   4.383   2.297   4.593  0.9170 -0.8629 -1.1320
 2848SOL    HW311438   4.258   2.259   4.670 -0.2104  1.5083 -1.7589
 2848SOL    MW411439   4.322   2.238   4.614  0.1402  0.0460 -0.8469
 2849SOL     OW11440   0.053   1.794   4.526 -0.1076 -0.4766  0.1799
 2849SOL    HW211441   0.032   1.764   4.437 -0.2817  0.2849 -0.0399
 2849SOL    HW311442  -0.020   1.852   4.548  0.2995 -0.1165  0.5529
 2849SOL    MW411443   0.040   1.798   4.517 -0.0769 -0.3287  0.2003
 2850SOL     OW11444   4.015   2.335   4.502 -0.3932 -0.1175 -0.1949
 2850SOL    HW211445   4.084   2.366   4.560 -0.2500 -1.3794  0.3317
 2850SOL    HW311446   3.935   2.338   4.555 -0.4218 -0.3944 -0.2195
 2850SOL    MW411447   4.014   2.340   4.516 -0.3777 -0.3209 -0.1287
 2851SOL     OW11448   4.005   2.675   4.547 -0.6638  0.1572 -0.6132
 2851SOL    HW211449   3.956   2.674   4.465 -0.1958 -0.6013 -0.8866
 2851SOL    HW311450   3.945   2.637   4.611 -0.0828 -1.7209 -1.1540
 2851SOL    MW411451   3.991   2.670   4.544 -0.5252 -0.1910 -0.7205
 2852SOL     OW11452   3.822   2.941   4.542  0.0816  0.5848  0.7111
 2852SOL    HW211453   3.903   2.958   4.590  0.2975  0.9808  0.2100
 2852SOL    HW311454   3.775   3.025   4.546  0.3214  0.7642 -0.1942
 2852SOL    MW411455   3.826   2.955   4.549  0.1416  0.6604  0.5255
 2853SOL     OW11456   4.106   2.942   4.600  0.1587 -0.0122  0.2319
 2853SOL    HW211457   4.068   2.859   4.572  0.3605 -0.3040  0.8046
 2853SOL    HW311458   4.199   2.935   4.576  0.0521  0.2857 -0.2533
 2853SOL    MW411459   4.114   2.930   4.593  0.1717 -0.0114  0.2432
 2854SOL     OW11460   3.415   3.310   4.650 -0.7918  0.5783 -0.1948
 2854SOL    HW211461   3.342   3.248   4.648  0.0510 -0.4215 -1.6367
 2854SOL    HW311462   3.491   3.257   4.627  0.3416  1.6677  1.0031
 2854SOL    MW411463   3.415   3.295   4.646 -0.5312  0.5901 -0.2265
 2855SOL     OW11464   3.854   3.365   4.672  0.4012  0.1260  0.2863
 2855SOL    HW211465   3.876   3.382   4.764  0.1666  0.5292  0.2734
 2855SOL    HW311466   3.921   3.305   4.642  0.8189  0.4464  0.5644
 2855SOL    MW411467   3.866   3.359   4.680  0.4251  0.2215  0.3214
 2856SOL     OW11468   3.467   3.580   4.577  0.0036  0.1473  0.5338
 2856SOL    HW211469   3.449   3.502   4.629  1.3631 -1.9526 -2.0226
 2856SOL    HW311470   3.562   3.589   4.577 -0.0201  0.6397 -0.8008
 2856SOL    MW411471   3.477   3.571   4.584  0.1800 -0.0646  0.0210
 2857SOL     OW11472   3.748   3.599   4.564  0.3888  0.1323  0.1296
 2857SOL    HW211473   3.778   3.616   4.475 -1.4556 -0.5434 -0.6318
 2857SOL    HW311474   3.786   3.514   4.587  0.1842 -0.0835 -0.3256
 2857SOL    MW411475   3.757   3.590   4.555  0.1185  0.0150 -0.0310
 2858SOL     OW11476   0.012   3.147   4.556 -0.1957 -0.3866  0.5331
 2858SOL    HW211477   0.036   3.165   4.465 -1.5355 -0.4998  0.1419
 2858SOL    HW311478   0.095   3.138   4.602  0.4884 -0.3712 -0.6929
 2858SOL    MW411479   0.026   3.148   4.550 -0.2823 -0.3996  0.3200
 2859SOL     OW11480   4.033   4.013   4.495 -0.4982 -0.0953 -0.4515
 2859SOL    HW211481   3.983   4.077   4.546  0.4814 -0.6244  1.2277
 2859SOL    HW311482   3.995   3.928   4.518 -1.1384 -0.2061 -1.8986
 2859SOL    MW411483   4.021   4.010   4.505 -0.4539 -0.1793 -0.4206
 2860SOL     OW11484   3.764   4.434   4.588 -0.1357 -0.1551 -0.0621
 2860SOL    HW211485   3.794   4.450   4.498  1.1997  0.9085  0.5671
 2860SOL    HW311486   3.765   4.520   4.630 -1.8351 -0.4662  0.6736
 2860SOL    MW411487   3.768   4.447   4.581 -0.1836 -0.0563  0.1178
 2861SOL     OW11488   3.341   0.021   4.723 -0.4111 -0.2871  0.9798
 2861SOL    HW211489   3.343  -0.046   4.654  0.5572  0.9850 -0.2714
 2861SOL    HW311490   3.301  -0.023   4.798 -1.0025 -1.8675 -0.2221
 2861SOL    MW411491   3.336   0.006   4.724 -0.3617 -0.3278  0.6561
 2862SOL     OW11492   3.541   0.979   4.495 -0.1891 -0.0585  0.6041
 2862SOL    HW211493   3.623   0.991   4.544 -0.5229 -0.0942  1.1743
 2862SOL    HW311494   3.569   0.944   4.411  0.3815 -0.1836  0.8405
 2862SOL    MW411495   3.556   0.976   4.491 -0.1578 -0.0797  0.7110
 2863SOL     OW11496   3.888   0.768   4.609 -0.2183 -0.1518 -0.0445
 2863SOL    HW211497   3.852   0.856   4.620 -0.1477 -0.2447  0.9751
 2863SOL    HW311498   3.982   0.781   4.594 -0.4993  0.0365 -1.6916
 2863SOL    MW411499   3.896   0.781   4.609 -0.2460 -0.1393 -0.1273
 2864SOL     OW11500   0.200   0.459   4.528  0.1503 -0.1832  0.0476
 2864SOL    HW211501   0.167   0.535   4.575  1.1376 -0.4977  1.2832
 2864SOL    HW311502   0.206   0.487   4.437  0.3532  1.1672  0.4723
 2864SOL    MW411503   0.197   0.473   4.522  0.3074 -0.0466  0.2666
 2865SOL     OW11504   0.718   1.130   4.549  0.2235  0.0396 -0.0593
 2865SOL    HW211505   0.646   1.078   4.513  0.5114 -1.2764  1.2151
 2865SOL    HW311506   0.784   1.065   4.574  1.5362  1.1798 -0.5169
 2865SOL    MW411507   0.717   1.114   4.548  0.4345  0.0165  0.0486
 2866SOL     OW11508   4.107   0.358   4.648  0.3196  0.1679  0.3518
 2866SOL    HW211509   4.086   0.266   4.630  0.0759  0.4900 -1.0091
 2866SOL    HW311510   4.028   0.406   4.622 -0.4368  0.5681  3.1734
 2866SOL    MW411511   4.094   0.352   4.642  0.1879  0.2632  0.5445
 2867SOL     OW11512   3.925   1.440   4.460 -0.1650  0.1263 -0.3546
 2867SOL    HW211513   3.901   1.380   4.389 -1.1524 -1.2555  1.1011
 2867SOL    HW311514   3.842   1.482   4.484 -0.5854 -2.1076  2.3873
 2867SOL    MW411515   3.911   1.438   4.454 -0.3505 -0.3510  0.1993
 2868SOL     OW11516   0.238   1.309   4.505 -0.2677  0.3919  0.2377
 2868SOL    HW211517   0.326   1.314   4.541 -0.2097 -1.0726  0.3363
 2868SOL    HW311518   0.194   1.388   4.536  0.7996  0.7962  0.7323
 2868SOL    MW411519   0.244   1.320   4.514 -0.1192  0.2520  0.3161
 2869SOL     OW11520   0.542   1.959   4.650 -0.0243 -0.6595 -0.8291
 2869SOL    HW211521   0.461   1.959   4.600 -0.0550  0.9931 -0.8063
 2869SOL    HW311522   0.515   1.952   4.741 -0.1372 -0.1029 -0.8215
 2869SOL    MW411523   0.528   1.958   4.655 -0.0432 -0.3681 -0.8249
 2870SOL     OW11524   4.306   1.973   4.486 -0.4064 -0.1433 -0.1097
 2870SOL    HW211525   4.217   1.949   4.510 -0.3139 -0.0076  0.3683
 2870SOL    HW311526   4.321   2.056   4.531  0.3000 -0.6439  0.5647
 2870SOL    MW411527   4.296   1.981   4.495 -0.3004 -0.1915  0.0420
 2871SOL     OW11528   3.173   2.734   4.535 -0.1860 -0.1780 -0.0990
 2871SOL    HW211529   3.247   2.795   4.535  0.9831 -1.5741 -0.1920
 2871SOL    HW311530   3.212   2.649   4.553 -1.8427 -0.8652  0.3352
 2871SOL    MW411531   3.188   2.731   4.537 -0.2503 -0.4530 -0.0539
 2872SOL     OW11532   4.294   2.070   4.229 -0.0047 -0.7347 -0.5034
 2872SOL    HW211533   4.204   2.048   4.204 -0.0234 -1.3399  0.0912
 2872SOL    HW311534   4.307   2.027   4.313  0.5892 -0.0044 -0.2154
 2872SOL    MW411535   4.284   2.061   4.237  0.0720 -0.7184 -0.3877
 2873SOL     OW11536   0.022   2.435   4.625  0.4919 -0.5655  0.6061
 2873SOL    HW211537   0.085   2.490   4.579 -0.0480 -0.1857  0.3180
 2873SOL    HW311538  -0.022   2.494   4.686 -0.8842 -0.4224 -0.5029
 2873SOL    MW411539   0.025   2.450   4.627  0.2394 -0.4966  0.4220
 2874SOL     OW11540   3.962   2.063   4.406  0.0422 -0.2211 -0.0129
 2874SOL    HW211541   3.975   1.993   4.470  1.9916 -0.5087 -0.6890
 2874SOL    HW311542   4.009   2.138   4.442  0.4525 -0.1384 -0.7171
 2874SOL    MW411543   3.970   2.064   4.419  0.3536 -0.2482 -0.1950
 2875SOL     OW11544   3.727   2.363   4.640  0.1052 -0.1206 -0.6717
 2875SOL    HW211545   3.653   2.408   4.599 -0.7321 -0.6833  0.2156
 2875SOL    HW311546   3.697   2.273   4.652  0.4821 -0.0711  0.7828
 2875SOL    MW411547   3.713   2.357   4.636  0.0443 -0.1886 -0.3624
 2876SOL     OW11548   0.218   3.174   4.744  0.0075  0.4226  0.5991
 2876SOL    HW211549   0.152   3.177   4.813 -1.8745 -0.3177 -1.1450
 2876SOL    HW311550   0.273   3.099   4.767 -0.1116  0.6733  1.7249
 2876SOL    MW411551   0.217   3.164   4.756 -0.2565  0.3576  0.5174
 2877SOL     OW11552   4.391   2.897   4.548  0.8316  0.1497  0.1129
 2877SOL    HW211553   4.412   2.988   4.567  1.1990  0.2173 -0.6036
 2877SOL    HW311554   4.375   2.895   4.454 -1.2165 -0.1381  0.4525
 2877SOL    MW411555   4.392   2.908   4.538  0.6094  0.1206  0.0634
 2878SOL     OW11556   4.035   3.206   4.520  0.4709  0.2972  0.4813
 2878SOL    HW211557   4.035   3.221   4.425 -0.3648  0.1941  0.4616
 2878SOL    HW311558   4.053   3.113   4.529 -0.7034  0.0483  0.3705
 2878SOL    MW411559   4.037   3.196   4.508  0.2055  0.2506  0.4635
 2879SOL     OW11560   0.215   3.881   4.701 -0.0308 -0.1440  0.2950
 2879SOL    HW211561   0.301   3.923   4.704 -0.1513  0.2348 -1.1959
 2879SOL    HW311562   0.234   3.789   4.682  0.0954 -0.2564  0.9591
 2879SOL    MW411563   0.229   3.874   4.699 -0.0300 -0.1090  0.1860
 2880SOL     OW11564   4.198   4.255   4.722 -0.2274  0.2625 -0.3478
 2880SOL    HW211565   4.246   4.179   4.689  0.0715 -0.6385  2.0884
 2880SOL    HW311566   4.109   4.245   4.688 -0.4696 -1.7575  0.8246
 2880SOL    MW411567   4.193   4.244   4.713 -0.2198 -0.1230  0.1278
 2881SOL     OW11568   3.810   0.031   4.669  0.1146 -0.1718  0.0363
 2881SOL    HW211569   3.840   0.050   4.758  0.3198 -1.0591  0.1624
 2881SOL    HW311570   3.741   0.095   4.653  0.0203 -0.0580  0.8671
 2881SOL    MW411571   3.805   0.042   4.679  0.1290 -0.2739  0.1626
 2882SOL     OW11572   4.413   3.813   4.724  0.4342 -0.1495  0.3415
 2882SOL    HW211573   4.395   3.740   4.665  0.3457 -0.6764  1.0123
 2882SOL    HW311574   4.509   3.820   4.725  0.4553 -0.4474  0.4961
 2882SOL    MW411575   4.424   3.804   4.717  0.4249 -0.2584  0.4497
 2883SOL     OW11576   3.626   0.437   4.641  0.6149 -0.1316  0.2686
 2883SOL    HW211577   3.543   0.452   4.595 -0.0561  1.6662  2.0250
 2883SOL    HW311578   3.622   0.345   4.668  0.6166 -0.9630 -2.3777
 2883SOL    MW411579   3.615   0.427   4.639  0.5267 -0.0041  0.1516
 2884SOL     OW11580   4.304   4.427   4.299 -0.1370 -0.2971 -0.2063
 2884SOL    HW211581   4.370   4.366   4.267  0.6949 -0.0258  0.9711
 2884SOL    HW311582   4.326   4.442   4.390 -0.5265  1.4918 -0.3705
 2884SOL    MW411583   4.315   4.421   4.306 -0.0787 -0.0253 -0.0730
 2885NA      NA11584   2.700   3.186   0.458  0.0529 -0.5724 -0.0129
   4.49070   4.66690  10.00000
