Gromacs Runs On Most of All Computer Systems
   63
    1RU5    O5'    1  -0.023  -0.097   0.093
    1RU5    H5T    2   0.068  -0.101   0.134
    1RU5    C5'    3  -0.054   0.037   0.059
    1RU5   H5'1    4   0.015   0.069  -0.005
    1RU5   H5'2    5  -0.050   0.092   0.143
    1RU5    C4'    6  -0.192   0.043  -0.003
    1RU5    H4'    7  -0.217   0.138  -0.020
    1RU5    O4'    8  -0.191  -0.031  -0.128
    1RU5    C1'    9  -0.327  -0.083  -0.141
    1RU5    H1'   10  -0.371  -0.031  -0.214
    1RU5     N1   11  -0.324  -0.225  -0.180
    1RU5     C6   12  -0.241  -0.298  -0.101
    1RU5     H6   13  -0.191  -0.253  -0.027
    1RU5     C5   14  -0.225  -0.431  -0.122
    1RU5     H5   15  -0.164  -0.486  -0.065
    1RU5     C4   16  -0.300  -0.489  -0.229
    1RU5     O4   17  -0.289  -0.620  -0.254
    1RU5     N3   18  -0.382  -0.415  -0.305
    1RU5     H3   19  -0.433  -0.458  -0.379
    1RU5     C2   20  -0.396  -0.282  -0.283
    1RU5     O2   21  -0.471  -0.214  -0.353
    1RU5    C3'   22  -0.291  -0.031   0.087
    1RU5    H3'   23  -0.254  -0.107   0.140
    1RU5    C2'   24  -0.403  -0.067  -0.010
    1RU5   H2'1   25  -0.461  -0.144   0.016
    1RU5    O2'   26  -0.493   0.042  -0.020
    1RU5   HO'2   27  -0.543   0.052   0.066
    1RU5    O3'   28  -0.340   0.058   0.186
    2RG3      P   29  -0.314   0.026   0.342
    2RG3    O1P   30  -0.354   0.145   0.420
    2RG3    O2P   31  -0.176  -0.028   0.355
    2RG3    O5'   32  -0.417  -0.093   0.375
    2RG3    C5'   33  -0.554  -0.065   0.405
    2RG3   H5'1   34  -0.592  -0.011   0.330
    2RG3   H5'2   35  -0.558  -0.012   0.490
    2RG3    C4'   36  -0.629  -0.195   0.421
    2RG3    H4'   37  -0.724  -0.175   0.444
    2RG3    O4'   38  -0.625  -0.270   0.297
    2RG3    C1'   39  -0.616  -0.408   0.332
    2RG3    H1'   40  -0.700  -0.452   0.299
    2RG3     N9   41  -0.498  -0.465   0.265
    2RG3     C8   42  -0.368  -0.418   0.265
    2RG3     H8   43  -0.339  -0.335   0.314
    2RG3     N7   44  -0.286  -0.492   0.195
    2RG3     C5   45  -0.367  -0.594   0.146
    2RG3     C6   46  -0.339  -0.705   0.064
    2RG3     O6   47  -0.227  -0.729   0.020
    2RG3     N1   48  -0.450  -0.785   0.037
    2RG3     H1   49  -0.435  -0.865  -0.021
    2RG3     C2   50  -0.583  -0.764   0.083
    2RG3     N2   51  -0.686  -0.845   0.054
    2RG3    H21   52  -0.672  -0.926  -0.003
    2RG3    H22   53  -0.777  -0.825   0.090
    2RG3     N3   54  -0.602  -0.658   0.160
    2RG3     C4   55  -0.496  -0.578   0.188
    2RG3    C3'   56  -0.558  -0.282   0.524
    2RG3    H3'   57  -0.460  -0.267   0.532
    2RG3    C2'   58  -0.600  -0.423   0.483
    2RG3   H2'1   59  -0.541  -0.498   0.514
    2RG3    O2'   60  -0.726  -0.452   0.540
    2RG3   HO'2   61  -0.716  -0.462   0.639
    2RG3    O3'   62  -0.608  -0.253   0.654
    2RG3    H3T   63  -0.561  -0.310   0.721
   0.84538   1.07077   1.10014
