Gromacs Runs On Most of All Computer Systems
   63
    1RU5    O5'    1   2.539   2.355   5.411
    1RU5    H5T    2   2.630   2.351   5.452
    1RU5    C5'    3   2.508   2.489   5.377
    1RU5   H5'1    4   2.577   2.521   5.313
    1RU5   H5'2    5   2.512   2.544   5.461
    1RU5    C4'    6   2.370   2.495   5.315
    1RU5    H4'    7   2.345   2.590   5.298
    1RU5    O4'    8   2.371   2.421   5.190
    1RU5    C1'    9   2.235   2.369   5.177
    1RU5    H1'   10   2.191   2.421   5.104
    1RU5     N1   11   2.238   2.227   5.138
    1RU5     C6   12   2.321   2.154   5.217
    1RU5     H6   13   2.371   2.199   5.291
    1RU5     C5   14   2.337   2.021   5.196
    1RU5     H5   15   2.398   1.966   5.253
    1RU5     C4   16   2.262   1.963   5.089
    1RU5     O4   17   2.273   1.832   5.064
    1RU5     N3   18   2.180   2.037   5.013
    1RU5     H3   19   2.129   1.994   4.939
    1RU5     C2   20   2.166   2.170   5.035
    1RU5     O2   21   2.091   2.238   4.965
    1RU5    C3'   22   2.271   2.421   5.405
    1RU5    H3'   23   2.308   2.345   5.458
    1RU5    C2'   24   2.159   2.385   5.308
    1RU5   H2'1   25   2.101   2.308   5.334
    1RU5    O2'   26   2.069   2.494   5.298
    1RU5   HO'2   27   2.019   2.504   5.384
    1RU5    O3'   28   2.222   2.510   5.504
    2RG3      P   29   2.248   2.478   5.660
    2RG3    O1P   30   2.208   2.597   5.738
    2RG3    O2P   31   2.386   2.424   5.673
    2RG3    O5'   32   2.145   2.359   5.693
    2RG3    C5'   33   2.008   2.387   5.723
    2RG3   H5'1   34   1.970   2.441   5.648
    2RG3   H5'2   35   2.004   2.440   5.808
    2RG3    C4'   36   1.933   2.257   5.739
    2RG3    H4'   37   1.838   2.277   5.762
    2RG3    O4'   38   1.937   2.182   5.615
    2RG3    C1'   39   1.946   2.044   5.650
    2RG3    H1'   40   1.862   2.000   5.617
    2RG3     N9   41   2.064   1.987   5.583
    2RG3     C8   42   2.194   2.034   5.583
    2RG3     H8   43   2.223   2.117   5.632
    2RG3     N7   44   2.276   1.960   5.513
    2RG3     C5   45   2.195   1.858   5.464
    2RG3     C6   46   2.223   1.747   5.382
    2RG3     O6   47   2.335   1.723   5.338
    2RG3     N1   48   2.112   1.667   5.355
    2RG3     H1   49   2.127   1.587   5.297
    2RG3     C2   50   1.979   1.688   5.401
    2RG3     N2   51   1.876   1.607   5.372
    2RG3    H21   52   1.890   1.526   5.315
    2RG3    H22   53   1.785   1.627   5.408
    2RG3     N3   54   1.960   1.794   5.478
    2RG3     C4   55   2.066   1.874   5.506
    2RG3    C3'   56   2.004   2.170   5.842
    2RG3    H3'   57   2.102   2.185   5.850
    2RG3    C2'   58   1.962   2.029   5.801
    2RG3   H2'1   59   2.021   1.954   5.832
    2RG3    O2'   60   1.836   2.000   5.858
    2RG3   HO'2   61   1.846   1.990   5.957
    2RG3    O3'   62   1.954   2.199   5.972
    2RG3    H3T   63   2.001   2.142   6.039
   4.49070   4.66690  10.00000
