Gromacs Runs On Most of All Computer Systems
   63
    1RU5    O5'    1  -0.023  -0.097   0.093
    1RU5    C5'    2  -0.054   0.037   0.059
    1RU5    H5'    3   0.020   0.075  -0.014
    1RU5   H5''    4  -0.052   0.100   0.150
    1RU5    C4'    5  -0.192   0.043  -0.003
    1RU5    H4'    6  -0.220   0.148  -0.022
    1RU5    O4'    7  -0.191  -0.031  -0.128
    1RU5    C3'    8  -0.291  -0.031   0.087
    1RU5    H3'    9  -0.240  -0.117   0.136
    1RU5    O3'   10  -0.340   0.058   0.186
    1RU5    C2'   11  -0.403  -0.067  -0.010
    1RU5    C1'   12  -0.327  -0.083  -0.141
    1RU5    H1'   13  -0.374  -0.019  -0.219
    1RU5    H2'   14  -0.447  -0.165   0.019
    1RU5    O2'   15  -0.493   0.042  -0.020
    1RU5   HO'2   16  -0.490   0.091   0.062
    1RU5     N1   17  -0.324  -0.225  -0.180
    1RU5     C2   18  -0.396  -0.282  -0.283
    1RU5     O2   19  -0.471  -0.214  -0.353
    1RU5     N3   20  -0.382  -0.415  -0.305
    1RU5     H3   21  -0.432  -0.495  -0.385
    1RU5     C4   22  -0.300  -0.489  -0.229
    1RU5     O4   23  -0.289  -0.620  -0.254
    1RU5     C5   24  -0.225  -0.431  -0.122
    1RU5     H5   25  -0.160  -0.493  -0.063
    1RU5     C6   26  -0.241  -0.298  -0.101
    1RU5     H6   27  -0.186  -0.250  -0.022
    1RU5    H5T   28  -0.043  -0.132   0.181
    2RG3      P   29  -0.314   0.026   0.342
    2RG3    OP1   30  -0.354   0.145   0.420
    2RG3    OP2   31  -0.176  -0.028   0.355
    2RG3    O5'   32  -0.417  -0.093   0.375
    2RG3    C5'   33  -0.554  -0.065   0.405
    2RG3   H5'1   34  -0.598  -0.007   0.321
    2RG3   H5'2   35  -0.560  -0.006   0.499
    2RG3    C4'   36  -0.629  -0.195   0.421
    2RG3    H4'   37  -0.735  -0.173   0.448
    2RG3    O4'   38  -0.625  -0.270   0.297
    2RG3    C3'   39  -0.558  -0.282   0.524
    2RG3    H3'   40  -0.449  -0.262   0.520
    2RG3    O3'   41  -0.608  -0.253   0.654
    2RG3    C2'   42  -0.600  -0.423   0.483
    2RG3    C1'   43  -0.616  -0.408   0.332
    2RG3    H1'   44  -0.710  -0.456   0.299
    2RG3    H2'   45  -0.518  -0.495   0.505
    2RG3    O2'   46  -0.726  -0.452   0.540
    2RG3   HO'2   47  -0.736  -0.401   0.621
    2RG3     N9   48  -0.498  -0.465   0.265
    2RG3     C8   49  -0.368  -0.418   0.265
    2RG3     H8   50  -0.338  -0.329   0.318
    2RG3     N7   51  -0.286  -0.492   0.195
    2RG3     C5   52  -0.367  -0.594   0.146
    2RG3     C4   53  -0.496  -0.578   0.188
    2RG3     C6   54  -0.339  -0.705   0.064
    2RG3     N3   55  -0.602  -0.658   0.160
    2RG3     C2   56  -0.583  -0.764   0.083
    2RG3     N1   57  -0.450  -0.785   0.037
    2RG3     H1   58  -0.434  -0.866  -0.021
    2RG3     N2   59  -0.686  -0.845   0.054
    2RG3    H21   60  -0.778  -0.824   0.090
    2RG3    H22   61  -0.672  -0.926  -0.004
    2RG3     O6   62  -0.227  -0.729   0.020
    2RG3    H3T   63  -0.577  -0.175   0.700
   0.00000   0.00000   0.00000
