Gravel Rubs Often Many Awfully Cauterized Sores
  169
    1G      O5'    1   0.025  -0.084  -0.067
    1G      H5T    2   0.014  -0.079  -0.166
    1G      C5'    3   0.136  -0.003  -0.027
    1G     H5'1    4   0.117   0.091  -0.057
    1G     H5'2    5   0.217  -0.037  -0.074
    1G      C4'    6   0.157  -0.007   0.123
    1G      H4'    7   0.250   0.027   0.138
    1G      O4'    8   0.056   0.075   0.187
    1G      C1'    9   0.024   0.020   0.314
    1G      H1'   10   0.046   0.086   0.386
    1G       N9   11  -0.120   0.000   0.320
    1G       C8   12  -0.211   0.012   0.217
    1G       H8   13  -0.185   0.036   0.124
    1G       N7   14  -0.334  -0.011   0.253
    1G       C5   15  -0.324  -0.040   0.389
    1G       C6   16  -0.425  -0.073   0.483
    1G       O6   17  -0.547  -0.083   0.466
    1G       N1   18  -0.371  -0.095   0.610
    1G       H1   19  -0.434  -0.119   0.684
    1G       C2   20  -0.238  -0.086   0.641
    1G       N2   21  -0.206  -0.110   0.769
    1G      H21   22  -0.278  -0.133   0.835
    1G      H22   23  -0.111  -0.105   0.798
    1G       N3   24  -0.144  -0.055   0.555
    1G       C4   25  -0.193  -0.033   0.431
    1G      C3'   26   0.139  -0.144   0.187
    1G      H3'   27   0.073  -0.204   0.141
    1G      C2'   28   0.105  -0.109   0.332
    1G     H2'1   29   0.064  -0.183   0.385
    1G      O2'   30   0.221  -0.079   0.406
    1G     HO'2   31   0.275  -0.162   0.419
    1G      O3'   32   0.258  -0.222   0.178
    2G        P   33   0.248  -0.381   0.158
    2G      O1P   34   0.383  -0.437   0.184
    2G      O2P   35   0.181  -0.408   0.029
    2G      O5'   36   0.152  -0.429   0.276
    2G      C5'   37   0.197  -0.433   0.411
    2G     H5'1   38   0.228  -0.341   0.436
    2G     H5'2   39   0.274  -0.497   0.416
    2G      C4'   40   0.084  -0.478   0.502
    2G      H4'   41   0.125  -0.492   0.592
    2G      O4'   42  -0.018  -0.375   0.503
    2G      C1'   43  -0.147  -0.435   0.500
    2G      H1'   44  -0.205  -0.399   0.573
    2G       N9   45  -0.212  -0.397   0.375
    2G       C8   46  -0.152  -0.376   0.254
    2G       H8   47  -0.054  -0.386   0.239
    2G       N7   48  -0.236  -0.342   0.160
    2G       C5   49  -0.359  -0.341   0.224
    2G       C6   50  -0.489  -0.312   0.173
    2G       O6   51  -0.522  -0.280   0.058
    2G       N1   52  -0.586  -0.322   0.272
    2G       H1   53  -0.681  -0.302   0.246
    2G       C2   54  -0.562  -0.357   0.403
    2G       N2   55  -0.669  -0.362   0.483
    2G      H21   56  -0.760  -0.341   0.447
    2G      H22   57  -0.658  -0.387   0.579
    2G       N3   58  -0.442  -0.385   0.451
    2G       C4   59  -0.346  -0.375   0.357
    2G      C3'   60   0.013  -0.605   0.459
    2G      H3'   61   0.016  -0.624   0.361
    2G      C2'   62  -0.127  -0.586   0.516
    2G     H2'1   63  -0.197  -0.646   0.477
    2G      O2'   64  -0.131  -0.618   0.654
    2G     HO'2   65  -0.118  -0.716   0.666
    2G      O3'   66   0.077  -0.721   0.511
    3G        P   67   0.131  -0.835   0.411
    3G      O1P   68   0.240  -0.907   0.482
    3G      O2P   69   0.157  -0.775   0.278
    3G      O5'   70   0.008  -0.936   0.398
    3G      C5'   71  -0.060  -0.984   0.513
    3G     H5'1   72  -0.050  -0.916   0.585
    3G     H5'2   73  -0.016  -1.069   0.542
    3G      C4'   74  -0.206  -1.008   0.482
    3G      H4'   75  -0.251  -1.022   0.570
    3G      O4'   76  -0.258  -0.892   0.411
    3G      C1'   77  -0.301  -0.929   0.282
    3G      H1'   78  -0.401  -0.932   0.279
    3G       N9   79  -0.262  -0.825   0.188
    3G       C8   80  -0.135  -0.794   0.146
    3G       H8   81  -0.053  -0.842   0.177
    3G       N7   82  -0.132  -0.695   0.061
    3G       C5   83  -0.265  -0.658   0.045
    3G       C6   84  -0.324  -0.557  -0.035
    3G       O6   85  -0.268  -0.477  -0.111
    3G       N1   86  -0.462  -0.554  -0.020
    3G       H1   87  -0.513  -0.485  -0.072
    3G       C2   88  -0.534  -0.638   0.061
    3G       N2   89  -0.666  -0.620   0.061
    3G      H21   90  -0.707  -0.549   0.004
    3G      H22   91  -0.724  -0.678   0.118
    3G       N3   92  -0.481  -0.733   0.136
    3G       C4   93  -0.347  -0.737   0.123
    3G      C3'   94  -0.234  -1.127   0.391
    3G      H3'   95  -0.170  -1.203   0.399
    3G      C2'   96  -0.238  -1.065   0.252
    3G     H2'1   97  -0.151  -1.066   0.202
    3G      O2'   98  -0.324  -1.138   0.166
    3G     HO'2   99  -0.283  -1.227   0.146
    3G      O3'  100  -0.357  -1.191   0.426
    4G        P  101  -0.364  -1.351   0.440
    4G      O1P  102  -0.252  -1.393   0.529
    4G      O2P  103  -0.374  -1.408   0.303
    4G      O5'  104  -0.501  -1.377   0.515
    4G      C5'  105  -0.509  -1.373   0.658
    4G     H5'1  106  -0.484  -1.281   0.688
    4G     H5'2  107  -0.444  -1.439   0.695
    4G      C4'  108  -0.649  -1.407   0.703
    4G      H4'  109  -0.639  -1.444   0.795
    4G      O4'  110  -0.729  -1.286   0.701
    4G      C1'  111  -0.851  -1.310   0.633
    4G      H1'  112  -0.928  -1.269   0.682
    4G       N9  113  -0.847  -1.241   0.505
    4G       C8  114  -0.735  -1.205   0.434
    4G       H8  115  -0.642  -1.224   0.465
    4G       N7  116  -0.762  -1.144   0.322
    4G       C5  117  -0.901  -1.139   0.319
    4G       C6  118  -0.989  -1.084   0.221
    4G       O6  119  -0.961  -1.027   0.116
    4G       N1  120  -1.122  -1.101   0.258
    4G       H1  121  -1.192  -1.066   0.196
    4G       C2  122  -1.165  -1.162   0.373
    4G       N2  123  -1.297  -1.169   0.389
    4G      H21  124  -1.358  -1.131   0.319
    4G      H22  125  -1.335  -1.212   0.471
    4G       N3  126  -1.085  -1.214   0.464
    4G       C4  127  -0.955  -1.199   0.431
    4G      C3'  128  -0.723  -1.507   0.614
    4G      H3'  129  -0.689  -1.515   0.520
    4G      C2'  130  -0.868  -1.461   0.623
    4G     H2'1  131  -0.928  -1.496   0.551
    4G      O2'  132  -0.929  -1.508   0.742
    4G     HO'2  133  -0.941  -1.607   0.737
    4G      O3'  134  -0.705  -1.640   0.661
    5G        P  135  -0.684  -1.760   0.555
    5G      O1P  136  -0.641  -1.879   0.633
    5G      O2P  137  -0.599  -1.711   0.444
    5G      O5'  138  -0.831  -1.789   0.500
    5G      C5'  139  -0.861  -1.778   0.361
    5G     H5'1  140  -0.877  -1.870   0.325
    5G     H5'2  141  -0.782  -1.737   0.315
    5G      C4'  142  -0.984  -1.692   0.342
    5G      H4'  143  -1.047  -1.718   0.416
    5G      O4'  144  -0.946  -1.553   0.350
    5G      C1'  145  -1.012  -1.478   0.250
    5G      H1'  146  -1.055  -1.397   0.290
    5G       N9  147  -0.911  -1.428   0.156
    5G       C8  148  -0.776  -1.449   0.161
    5G       H8  149  -0.731  -1.503   0.233
    5G       N7  150  -0.711  -1.392   0.063
    5G       C5  151  -0.810  -1.329  -0.011
    5G       C6  152  -0.801  -1.250  -0.128
    5G       O6  153  -0.700  -1.219  -0.193
    5G       N1  154  -0.925  -1.205  -0.170
    5G       H1  155  -0.928  -1.149  -0.253
    5G       C2  156  -1.044  -1.232  -0.106
    5G       N2  157  -1.153  -1.179  -0.162
    5G      H21  158  -1.145  -1.124  -0.245
    5G      H22  159  -1.243  -1.194  -0.121
    5G       N3  160  -1.054  -1.305   0.003
    5G       C4  161  -0.934  -1.350   0.045
    5G      C3'  162  -1.052  -1.707   0.206
    5G      H3'  163  -0.992  -1.737   0.131
    5G      C2'  164  -1.116  -1.570   0.186
    5G     H2'1  165  -1.144  -1.550   0.092
    5G      O2'  166  -1.237  -1.558   0.258
    5G     HO'2  167  -1.306  -1.618   0.217
    5G      O3'  168  -1.149  -1.813   0.206
    5G      H3T  169  -1.191  -1.820   0.116
   1.74089   1.96969   1.08771
