Gravel Rubs Often Many Awfully Cauterized Sores
  169
    1G     HO5'    1  -0.030  -0.097   0.010
    1G      O5'    2   0.025  -0.084  -0.067
    1G      C5'    3   0.136  -0.003  -0.027
    1G      H5'    4   0.119   0.101  -0.057
    1G     H5''    5   0.227  -0.038  -0.076
    1G      C4'    6   0.157  -0.007   0.123
    1G      H4'    7   0.259   0.024   0.143
    1G      O4'    8   0.056   0.075   0.187
    1G      C1'    9   0.024   0.020   0.314
    1G      H1'   10   0.051   0.095   0.388
    1G       N9   11  -0.120   0.000   0.320
    1G       C4   12  -0.193  -0.033   0.431
    1G       N3   13  -0.144  -0.055   0.555
    1G       C2   14  -0.238  -0.086   0.641
    1G       N2   15  -0.206  -0.110   0.769
    1G      H21   16  -0.109  -0.105   0.797
    1G      H22   17  -0.278  -0.134   0.836
    1G       N1   18  -0.371  -0.095   0.610
    1G       H1   19  -0.436  -0.119   0.683
    1G       C6   20  -0.425  -0.073   0.483
    1G       O6   21  -0.547  -0.083   0.466
    1G       C5   22  -0.324  -0.040   0.389
    1G       N7   23  -0.334  -0.011   0.253
    1G       C8   24  -0.211   0.012   0.217
    1G       H8   25  -0.182   0.038   0.116
    1G      C2'   26   0.105  -0.109   0.332
    1G      H2'   27   0.045  -0.188   0.378
    1G      O2'   28   0.221  -0.079   0.406
    1G     HO2'   29   0.290  -0.138   0.376
    1G      C3'   30   0.139  -0.144   0.187
    1G      H3'   31   0.061  -0.202   0.139
    1G      O3'   32   0.258  -0.222   0.178
    2G        P   33   0.248  -0.381   0.158
    2G      OP1   34   0.383  -0.437   0.184
    2G      OP2   35   0.181  -0.408   0.029
    2G      O5'   36   0.152  -0.429   0.276
    2G      C5'   37   0.197  -0.433   0.411
    2G      H5'   38   0.231  -0.334   0.442
    2G     H5''   39   0.280  -0.503   0.420
    2G      C4'   40   0.084  -0.478   0.502
    2G      H4'   41   0.127  -0.498   0.600
    2G      O4'   42  -0.018  -0.375   0.503
    2G      C1'   43  -0.147  -0.435   0.500
    2G      H1'   44  -0.204  -0.393   0.582
    2G       N9   45  -0.212  -0.397   0.375
    2G       C4   46  -0.346  -0.375   0.357
    2G       N3   47  -0.442  -0.385   0.451
    2G       C2   48  -0.562  -0.357   0.403
    2G       N2   49  -0.669  -0.362   0.483
    2G      H21   50  -0.656  -0.387   0.580
    2G      H22   51  -0.760  -0.340   0.447
    2G       N1   52  -0.586  -0.322   0.272
    2G       H1   53  -0.681  -0.302   0.245
    2G       C6   54  -0.489  -0.312   0.173
    2G       O6   55  -0.522  -0.280   0.058
    2G       C5   56  -0.359  -0.341   0.224
    2G       N7   57  -0.236  -0.342   0.160
    2G       C8   58  -0.152  -0.376   0.254
    2G       H8   59  -0.046  -0.387   0.237
    2G      C2'   60  -0.127  -0.586   0.516
    2G      H2'   61  -0.201  -0.643   0.458
    2G      O2'   62  -0.131  -0.618   0.654
    2G     HO2'   63  -0.072  -0.692   0.666
    2G      C3'   64   0.013  -0.605   0.459
    2G      H3'   65   0.013  -0.617   0.351
    2G      O3'   66   0.077  -0.721   0.511
    3G        P   67   0.131  -0.835   0.411
    3G      OP1   68   0.240  -0.907   0.482
    3G      OP2   69   0.157  -0.775   0.278
    3G      O5'   70   0.008  -0.936   0.398
    3G      C5'   71  -0.060  -0.984   0.513
    3G      H5'   72  -0.053  -0.911   0.594
    3G     H5''   73  -0.016  -1.077   0.546
    3G      C4'   74  -0.206  -1.008   0.482
    3G      H4'   75  -0.257  -1.027   0.576
    3G      O4'   76  -0.258  -0.892   0.411
    3G      C1'   77  -0.301  -0.929   0.282
    3G      H1'   78  -0.410  -0.934   0.284
    3G       N9   79  -0.262  -0.825   0.188
    3G       C4   80  -0.347  -0.737   0.123
    3G       N3   81  -0.481  -0.733   0.136
    3G       C2   82  -0.534  -0.638   0.061
    3G       N2   83  -0.666  -0.620   0.061
    3G      H21   84  -0.724  -0.679   0.119
    3G      H22   85  -0.708  -0.548   0.004
    3G       N1   86  -0.462  -0.554  -0.020
    3G       H1   87  -0.512  -0.485  -0.074
    3G       C6   88  -0.324  -0.557  -0.035
    3G       O6   89  -0.268  -0.477  -0.111
    3G       C5   90  -0.265  -0.658   0.045
    3G       N7   91  -0.132  -0.695   0.061
    3G       C8   92  -0.135  -0.794   0.146
    3G       H8   93  -0.047  -0.846   0.180
    3G      C2'   94  -0.238  -1.065   0.252
    3G      H2'   95  -0.137  -1.055   0.212
    3G      O2'   96  -0.324  -1.138   0.166
    3G     HO2'   97  -0.401  -1.162   0.217
    3G      C3'   98  -0.234  -1.127   0.391
    3G      H3'   99  -0.157  -1.204   0.401
    3G      O3'  100  -0.357  -1.191   0.426
    4G        P  101  -0.364  -1.351   0.440
    4G      OP1  102  -0.252  -1.393   0.529
    4G      OP2  103  -0.374  -1.408   0.303
    4G      O5'  104  -0.501  -1.377   0.515
    4G      C5'  105  -0.509  -1.373   0.658
    4G      H5'  106  -0.483  -1.274   0.693
    4G     H5''  107  -0.440  -1.446   0.701
    4G      C4'  108  -0.649  -1.407   0.703
    4G      H4'  109  -0.642  -1.453   0.802
    4G      O4'  110  -0.729  -1.286   0.701
    4G      C1'  111  -0.851  -1.310   0.633
    4G      H1'  112  -0.930  -1.264   0.693
    4G       N9  113  -0.847  -1.241   0.505
    4G       C4  114  -0.955  -1.199   0.431
    4G       N3  115  -1.085  -1.214   0.464
    4G       C2  116  -1.165  -1.162   0.373
    4G       N2  117  -1.297  -1.169   0.389
    4G      H21  118  -1.334  -1.213   0.472
    4G      H22  119  -1.360  -1.130   0.320
    4G       N1  120  -1.122  -1.101   0.258
    4G       H1  121  -1.192  -1.065   0.195
    4G       C6  122  -0.989  -1.084   0.221
    4G       O6  123  -0.961  -1.027   0.116
    4G       C5  124  -0.901  -1.139   0.319
    4G       N7  125  -0.762  -1.144   0.322
    4G       C8  126  -0.735  -1.205   0.434
    4G       H8  127  -0.634  -1.226   0.467
    4G      C2'  128  -0.868  -1.461   0.623
    4G      H2'  129  -0.923  -1.490   0.533
    4G      O2'  130  -0.929  -1.508   0.742
    4G     HO2'  131  -0.868  -1.571   0.780
    4G      C3'  132  -0.723  -1.507   0.614
    4G      H3'  133  -0.685  -1.505   0.512
    4G      O3'  134  -0.705  -1.640   0.661
    5G        P  135  -0.684  -1.760   0.555
    5G      OP1  136  -0.641  -1.879   0.633
    5G      OP2  137  -0.599  -1.711   0.444
    5G      O5'  138  -0.831  -1.789   0.500
    5G      C5'  139  -0.861  -1.778   0.361
    5G      H5'  140  -0.880  -1.877   0.320
    5G     H5''  141  -0.778  -1.732   0.308
    5G      C4'  142  -0.984  -1.692   0.342
    5G      H4'  143  -1.058  -1.722   0.417
    5G      O4'  144  -0.946  -1.553   0.350
    5G      C1'  145  -1.012  -1.478   0.250
    5G      H1'  146  -1.058  -1.392   0.299
    5G       N9  147  -0.911  -1.428   0.156
    5G       C4  148  -0.934  -1.350   0.045
    5G       N3  149  -1.054  -1.305   0.003
    5G       C2  150  -1.044  -1.232  -0.106
    5G       N2  151  -1.153  -1.179  -0.162
    5G      H21  152  -1.244  -1.196  -0.120
    5G      H22  153  -1.146  -1.123  -0.246
    5G       N1  154  -0.925  -1.205  -0.170
    5G       H1  155  -0.928  -1.148  -0.253
    5G       C6  156  -0.801  -1.250  -0.128
    5G       O6  157  -0.700  -1.219  -0.193
    5G       C5  158  -0.810  -1.329  -0.011
    5G       N7  159  -0.711  -1.392   0.063
    5G       C8  160  -0.776  -1.449   0.161
    5G       H8  161  -0.728  -1.508   0.238
    5G      C2'  162  -1.116  -1.570   0.186
    5G      H2'  163  -1.128  -1.549   0.079
    5G      O2'  164  -1.237  -1.558   0.258
    5G     HO2'  165  -1.283  -1.642   0.250
    5G      H3'  166  -0.981  -1.731   0.128
    5G      C3'  167  -1.052  -1.707   0.206
    5G      O3'  168  -1.149  -1.813   0.206
    5G     HO3'  169  -1.139  -1.860   0.289
   0.00000   0.00000   0.00000
