Gravel Rubs Often Many Awfully Cauterized Sores
  169
    1G      O5'    1   2.638   2.918   5.076
    1G      H5T    2   2.627   2.923   4.977
    1G      C5'    3   2.749   2.999   5.116
    1G     H5'1    4   2.730   3.093   5.086
    1G     H5'2    5   2.830   2.965   5.069
    1G      C4'    6   2.770   2.995   5.266
    1G      H4'    7   2.863   3.029   5.281
    1G      O4'    8   2.669   3.077   5.330
    1G      C1'    9   2.637   3.022   5.457
    1G      H1'   10   2.659   3.088   5.529
    1G       N9   11   2.493   3.002   5.463
    1G       C8   12   2.402   3.014   5.360
    1G       H8   13   2.428   3.038   5.267
    1G       N7   14   2.279   2.991   5.396
    1G       C5   15   2.289   2.962   5.532
    1G       C6   16   2.188   2.929   5.626
    1G       O6   17   2.066   2.919   5.609
    1G       N1   18   2.242   2.907   5.753
    1G       H1   19   2.179   2.883   5.827
    1G       C2   20   2.375   2.916   5.784
    1G       N2   21   2.407   2.892   5.912
    1G      H21   22   2.335   2.869   5.978
    1G      H22   23   2.502   2.897   5.941
    1G       N3   24   2.469   2.947   5.698
    1G       C4   25   2.420   2.969   5.574
    1G      C3'   26   2.752   2.858   5.330
    1G      H3'   27   2.686   2.798   5.284
    1G      C2'   28   2.718   2.893   5.475
    1G     H2'1   29   2.677   2.819   5.528
    1G      O2'   30   2.834   2.923   5.549
    1G     HO'2   31   2.888   2.840   5.562
    1G      O3'   32   2.871   2.780   5.321
    2G        P   33   2.861   2.621   5.301
    2G      O1P   34   2.996   2.565   5.327
    2G      O2P   35   2.794   2.594   5.172
    2G      O5'   36   2.765   2.573   5.419
    2G      C5'   37   2.810   2.569   5.554
    2G     H5'1   38   2.841   2.661   5.579
    2G     H5'2   39   2.887   2.505   5.559
    2G      C4'   40   2.697   2.524   5.645
    2G      H4'   41   2.738   2.510   5.735
    2G      O4'   42   2.595   2.627   5.646
    2G      C1'   43   2.466   2.567   5.643
    2G      H1'   44   2.408   2.603   5.716
    2G       N9   45   2.401   2.605   5.518
    2G       C8   46   2.461   2.626   5.397
    2G       H8   47   2.559   2.616   5.382
    2G       N7   48   2.377   2.660   5.303
    2G       C5   49   2.254   2.661   5.367
    2G       C6   50   2.124   2.690   5.316
    2G       O6   51   2.091   2.722   5.201
    2G       N1   52   2.027   2.680   5.415
    2G       H1   53   1.932   2.700   5.389
    2G       C2   54   2.051   2.645   5.546
    2G       N2   55   1.944   2.640   5.626
    2G      H21   56   1.853   2.661   5.590
    2G      H22   57   1.955   2.615   5.722
    2G       N3   58   2.171   2.617   5.594
    2G       C4   59   2.267   2.627   5.500
    2G      C3'   60   2.626   2.397   5.602
    2G      H3'   61   2.629   2.378   5.504
    2G      C2'   62   2.486   2.416   5.659
    2G     H2'1   63   2.416   2.356   5.620
    2G      O2'   64   2.482   2.384   5.797
    2G     HO'2   65   2.495   2.286   5.809
    2G      O3'   66   2.690   2.281   5.654
    3G        P   67   2.744   2.167   5.554
    3G      O1P   68   2.853   2.095   5.625
    3G      O2P   69   2.770   2.227   5.421
    3G      O5'   70   2.621   2.066   5.541
    3G      C5'   71   2.553   2.018   5.656
    3G     H5'1   72   2.563   2.086   5.728
    3G     H5'2   73   2.597   1.933   5.685
    3G      C4'   74   2.407   1.994   5.625
    3G      H4'   75   2.362   1.980   5.713
    3G      O4'   76   2.355   2.110   5.554
    3G      C1'   77   2.312   2.073   5.425
    3G      H1'   78   2.212   2.070   5.422
    3G       N9   79   2.351   2.177   5.331
    3G       C8   80   2.478   2.208   5.289
    3G       H8   81   2.560   2.160   5.320
    3G       N7   82   2.481   2.307   5.204
    3G       C5   83   2.348   2.344   5.188
    3G       C6   84   2.289   2.445   5.108
    3G       O6   85   2.345   2.525   5.032
    3G       N1   86   2.151   2.448   5.123
    3G       H1   87   2.100   2.517   5.071
    3G       C2   88   2.079   2.364   5.204
    3G       N2   89   1.947   2.382   5.204
    3G      H21   90   1.906   2.453   5.147
    3G      H22   91   1.889   2.324   5.261
    3G       N3   92   2.132   2.269   5.279
    3G       C4   93   2.266   2.265   5.266
    3G      C3'   94   2.379   1.875   5.534
    3G      H3'   95   2.443   1.799   5.542
    3G      C2'   96   2.375   1.937   5.395
    3G     H2'1   97   2.462   1.936   5.345
    3G      O2'   98   2.289   1.864   5.309
    3G     HO'2   99   2.330   1.775   5.289
    3G      O3'  100   2.256   1.811   5.569
    4G        P  101   2.249   1.651   5.583
    4G      O1P  102   2.361   1.609   5.672
    4G      O2P  103   2.239   1.594   5.446
    4G      O5'  104   2.112   1.625   5.658
    4G      C5'  105   2.104   1.629   5.801
    4G     H5'1  106   2.129   1.721   5.831
    4G     H5'2  107   2.169   1.563   5.838
    4G      C4'  108   1.964   1.595   5.846
    4G      H4'  109   1.974   1.558   5.938
    4G      O4'  110   1.884   1.716   5.844
    4G      C1'  111   1.762   1.692   5.776
    4G      H1'  112   1.685   1.733   5.825
    4G       N9  113   1.766   1.761   5.648
    4G       C8  114   1.878   1.797   5.577
    4G       H8  115   1.971   1.778   5.608
    4G       N7  116   1.851   1.858   5.465
    4G       C5  117   1.712   1.863   5.462
    4G       C6  118   1.624   1.918   5.364
    4G       O6  119   1.652   1.975   5.259
    4G       N1  120   1.491   1.901   5.401
    4G       H1  121   1.421   1.936   5.339
    4G       C2  122   1.448   1.840   5.516
    4G       N2  123   1.316   1.833   5.532
    4G      H21  124   1.255   1.871   5.462
    4G      H22  125   1.278   1.790   5.614
    4G       N3  126   1.528   1.788   5.607
    4G       C4  127   1.658   1.803   5.574
    4G      C3'  128   1.890   1.495   5.757
    4G      H3'  129   1.924   1.487   5.663
    4G      C2'  130   1.745   1.541   5.766
    4G     H2'1  131   1.685   1.506   5.694
    4G      O2'  132   1.684   1.494   5.885
    4G     HO'2  133   1.672   1.395   5.880
    4G      O3'  134   1.908   1.362   5.804
    5G        P  135   1.929   1.242   5.698
    5G      O1P  136   1.972   1.123   5.776
    5G      O2P  137   2.014   1.291   5.587
    5G      O5'  138   1.782   1.213   5.643
    5G      C5'  139   1.752   1.224   5.504
    5G     H5'1  140   1.736   1.132   5.468
    5G     H5'2  141   1.831   1.265   5.458
    5G      C4'  142   1.629   1.310   5.485
    5G      H4'  143   1.566   1.284   5.559
    5G      O4'  144   1.667   1.449   5.493
    5G      C1'  145   1.601   1.524   5.393
    5G      H1'  146   1.558   1.605   5.433
    5G       N9  147   1.702   1.574   5.299
    5G       C8  148   1.837   1.553   5.304
    5G       H8  149   1.882   1.499   5.376
    5G       N7  150   1.902   1.610   5.206
    5G       C5  151   1.803   1.673   5.132
    5G       C6  152   1.812   1.752   5.015
    5G       O6  153   1.913   1.783   4.950
    5G       N1  154   1.688   1.797   4.973
    5G       H1  155   1.685   1.853   4.890
    5G       C2  156   1.569   1.770   5.037
    5G       N2  157   1.460   1.823   4.981
    5G      H21  158   1.468   1.878   4.898
    5G      H22  159   1.370   1.808   5.022
    5G       N3  160   1.559   1.697   5.146
    5G       C4  161   1.679   1.652   5.188
    5G      C3'  162   1.561   1.295   5.349
    5G      H3'  163   1.621   1.265   5.274
    5G      C2'  164   1.497   1.432   5.329
    5G     H2'1  165   1.469   1.452   5.235
    5G      O2'  166   1.376   1.444   5.401
    5G     HO'2  167   1.307   1.384   5.360
    5G      O3'  168   1.464   1.189   5.349
    5G      H3T  169   1.422   1.182   5.259
   4.49070   4.66690  10.00000
