;
;	File 'topol.top' was generated
;	By user: root (1000)
;	On host: Cas2
;	At date: Tue Jul  8 16:11:29 2025
;
;	This is a standalone topology file
;
;	Created by:
;	                    :-) GROMACS - gmx pdb2gmx, 2020.3 (-:
;	
;	Executable:   /usr/local/gromacs/bin/gmx
;	Data prefix:  /usr/local/gromacs
;	Working dir:  /home/chemistry/MD/GGGGG_RNA
;	Command line:
;	  gmx pdb2gmx -f GGGGG.gro -ignh -o conf.gro
;	Force field was read from the standard GROMACS share directory.
;

; Include forcefield parameters
#include "amber_na_desres.ff/forcefield.itp"

[ moleculetype ]
; Name            nrexcl
RNA                 3

[ atoms ]
;   nr       type  resnr residue  atom   cgnr     charge       mass  typeB    chargeB      massB
; residue   1 G   rtp RG5  q -0.3
     1         OH      1      G    O5'      1    -0.6223         16
     2         HO      1      G    H5T      2     0.4295      1.008
     3         CI      1      G    C5'      3     0.0558      12.01
     4         H1      1      G   H5'1      4     0.0679      1.008
     5         H1      1      G   H5'2      5     0.0679      1.008
     6         CT      1      G    C4'      6     0.1065      12.01
     7         H1      1      G    H4'      7     0.1174      1.008
     8         OS      1      G    O4'      8    -0.3548         16
     9         CT      1      G    C1'      9     0.0191      12.01
    10         H2      1      G    H1'     10     0.2006      1.008
    11    N*_desA      1      G     N9     11     0.0492      14.01
    12    CK_desN      1      G     C8     12     0.1374      12.01
    13         H5      1      G     H8     13      0.164      1.008
    14    NB_desA      1      G     N7     14    -0.5709      14.01
    15    CB_desN      1      G     C5     15     0.1744      12.01
    16     C_desN      1      G     C6     16      0.477      12.01
    17          O      1      G     O6     17    -0.5597         16
    18    NA_desN      1      G     N1     18    -0.5606      14.01
    19      H_des      1      G     H1     19     0.4243      1.008
    20    CA_desN      1      G     C2     20     0.7657      12.01
    21    N2_desN      1      G     N2     21    -1.0158      14.01
    22      H_des      1      G    H21     22     0.4607      1.008
    23      H_des      1      G    H22     23     0.4607      1.008
    24    NC_desN      1      G     N3     24    -0.6323      14.01
    25    CB_desN      1      G     C4     25     0.1222      12.01
    26         CT      1      G    C3'     26     0.2022      12.01
    27         H1      1      G    H3'     27     0.0615      1.008
    28         CT      1      G    C2'     28      0.067      12.01
    29         H1      1      G   H2'1     29     0.0972      1.008
    30         OH      1      G    O2'     30    -0.6139         16
    31         HO      1      G   HO'2     31     0.4186      1.008
    32    OS_case      1      G    O3'     32    -0.5246         16   ; qtot -0.3081
; residue   2 G   rtp RG   q -1.0
    33          P      2      G      P     33     1.1662      30.97
    34    O2_case      2      G    O1P     34     -0.776         16
    35    O2_case      2      G    O2P     35     -0.776         16
    36    OS_case      2      G    O5'     36    -0.4989         16
    37         CI      2      G    C5'     37     0.0558      12.01
    38         H1      2      G   H5'1     38     0.0679      1.008
    39         H1      2      G   H5'2     39     0.0679      1.008
    40         CT      2      G    C4'     40     0.1065      12.01
    41         H1      2      G    H4'     41     0.1174      1.008
    42         OS      2      G    O4'     42    -0.3548         16
    43         CT      2      G    C1'     43     0.0191      12.01
    44         H2      2      G    H1'     44     0.2006      1.008
    45    N*_desA      2      G     N9     45     0.0492      14.01
    46    CK_desN      2      G     C8     46     0.1374      12.01
    47         H5      2      G     H8     47      0.164      1.008
    48    NB_desA      2      G     N7     48    -0.5709      14.01
    49    CB_desN      2      G     C5     49     0.1744      12.01
    50     C_desN      2      G     C6     50      0.477      12.01
    51          O      2      G     O6     51    -0.5597         16
    52    NA_desN      2      G     N1     52    -0.5606      14.01
    53      H_des      2      G     H1     53     0.4243      1.008
    54    CA_desN      2      G     C2     54     0.7657      12.01
    55    N2_desN      2      G     N2     55    -1.0158      14.01
    56      H_des      2      G    H21     56     0.4607      1.008
    57      H_des      2      G    H22     57     0.4607      1.008
    58    NC_desN      2      G     N3     58    -0.6323      14.01
    59    CB_desN      2      G     C4     59     0.1222      12.01
    60         CT      2      G    C3'     60     0.2022      12.01
    61         H1      2      G    H3'     61     0.0615      1.008
    62         CT      2      G    C2'     62      0.067      12.01
    63         H1      2      G   H2'1     63     0.0972      1.008
    64         OH      2      G    O2'     64    -0.6139         16
    65         HO      2      G   HO'2     65     0.4186      1.008
    66    OS_case      2      G    O3'     66    -0.5246         16   ; qtot -1.308
; residue   3 G   rtp RG   q -1.0
    67          P      3      G      P     67     1.1662      30.97
    68    O2_case      3      G    O1P     68     -0.776         16
    69    O2_case      3      G    O2P     69     -0.776         16
    70    OS_case      3      G    O5'     70    -0.4989         16
    71         CI      3      G    C5'     71     0.0558      12.01
    72         H1      3      G   H5'1     72     0.0679      1.008
    73         H1      3      G   H5'2     73     0.0679      1.008
    74         CT      3      G    C4'     74     0.1065      12.01
    75         H1      3      G    H4'     75     0.1174      1.008
    76         OS      3      G    O4'     76    -0.3548         16
    77         CT      3      G    C1'     77     0.0191      12.01
    78         H2      3      G    H1'     78     0.2006      1.008
    79    N*_desA      3      G     N9     79     0.0492      14.01
    80    CK_desN      3      G     C8     80     0.1374      12.01
    81         H5      3      G     H8     81      0.164      1.008
    82    NB_desA      3      G     N7     82    -0.5709      14.01
    83    CB_desN      3      G     C5     83     0.1744      12.01
    84     C_desN      3      G     C6     84      0.477      12.01
    85          O      3      G     O6     85    -0.5597         16
    86    NA_desN      3      G     N1     86    -0.5606      14.01
    87      H_des      3      G     H1     87     0.4243      1.008
    88    CA_desN      3      G     C2     88     0.7657      12.01
    89    N2_desN      3      G     N2     89    -1.0158      14.01
    90      H_des      3      G    H21     90     0.4607      1.008
    91      H_des      3      G    H22     91     0.4607      1.008
    92    NC_desN      3      G     N3     92    -0.6323      14.01
    93    CB_desN      3      G     C4     93     0.1222      12.01
    94         CT      3      G    C3'     94     0.2022      12.01
    95         H1      3      G    H3'     95     0.0615      1.008
    96         CT      3      G    C2'     96      0.067      12.01
    97         H1      3      G   H2'1     97     0.0972      1.008
    98         OH      3      G    O2'     98    -0.6139         16
    99         HO      3      G   HO'2     99     0.4186      1.008
   100    OS_case      3      G    O3'    100    -0.5246         16   ; qtot -2.308
; residue   4 G   rtp RG   q -1.0
   101          P      4      G      P    101     1.1662      30.97
   102    O2_case      4      G    O1P    102     -0.776         16
   103    O2_case      4      G    O2P    103     -0.776         16
   104    OS_case      4      G    O5'    104    -0.4989         16
   105         CI      4      G    C5'    105     0.0558      12.01
   106         H1      4      G   H5'1    106     0.0679      1.008
   107         H1      4      G   H5'2    107     0.0679      1.008
   108         CT      4      G    C4'    108     0.1065      12.01
   109         H1      4      G    H4'    109     0.1174      1.008
   110         OS      4      G    O4'    110    -0.3548         16
   111         CT      4      G    C1'    111     0.0191      12.01
   112         H2      4      G    H1'    112     0.2006      1.008
   113    N*_desA      4      G     N9    113     0.0492      14.01
   114    CK_desN      4      G     C8    114     0.1374      12.01
   115         H5      4      G     H8    115      0.164      1.008
   116    NB_desA      4      G     N7    116    -0.5709      14.01
   117    CB_desN      4      G     C5    117     0.1744      12.01
   118     C_desN      4      G     C6    118      0.477      12.01
   119          O      4      G     O6    119    -0.5597         16
   120    NA_desN      4      G     N1    120    -0.5606      14.01
   121      H_des      4      G     H1    121     0.4243      1.008
   122    CA_desN      4      G     C2    122     0.7657      12.01
   123    N2_desN      4      G     N2    123    -1.0158      14.01
   124      H_des      4      G    H21    124     0.4607      1.008
   125      H_des      4      G    H22    125     0.4607      1.008
   126    NC_desN      4      G     N3    126    -0.6323      14.01
   127    CB_desN      4      G     C4    127     0.1222      12.01
   128         CT      4      G    C3'    128     0.2022      12.01
   129         H1      4      G    H3'    129     0.0615      1.008
   130         CT      4      G    C2'    130      0.067      12.01
   131         H1      4      G   H2'1    131     0.0972      1.008
   132         OH      4      G    O2'    132    -0.6139         16
   133         HO      4      G   HO'2    133     0.4186      1.008
   134    OS_case      4      G    O3'    134    -0.5246         16   ; qtot -3.308
; residue   5 G   rtp RG3  q -0.7
   135          P      5      G      P    135     1.1662      30.97
   136    O2_case      5      G    O1P    136     -0.776         16
   137    O2_case      5      G    O2P    137     -0.776         16
   138    OS_case      5      G    O5'    138    -0.4989         16
   139         CI      5      G    C5'    139     0.0558      12.01
   140         H1      5      G   H5'1    140     0.0679      1.008
   141         H1      5      G   H5'2    141     0.0679      1.008
   142         CT      5      G    C4'    142     0.1065      12.01
   143         H1      5      G    H4'    143     0.1174      1.008
   144         OS      5      G    O4'    144    -0.3548         16
   145         CT      5      G    C1'    145     0.0191      12.01
   146         H2      5      G    H1'    146     0.2006      1.008
   147    N*_desA      5      G     N9    147     0.0492      14.01
   148    CK_desN      5      G     C8    148     0.1374      12.01
   149         H5      5      G     H8    149      0.164      1.008
   150    NB_desA      5      G     N7    150    -0.5709      14.01
   151    CB_desN      5      G     C5    151     0.1744      12.01
   152     C_desN      5      G     C6    152      0.477      12.01
   153          O      5      G     O6    153    -0.5597         16
   154    NA_desN      5      G     N1    154    -0.5606      14.01
   155      H_des      5      G     H1    155     0.4243      1.008
   156    CA_desN      5      G     C2    156     0.7657      12.01
   157    N2_desN      5      G     N2    157    -1.0158      14.01
   158      H_des      5      G    H21    158     0.4607      1.008
   159      H_des      5      G    H22    159     0.4607      1.008
   160    NC_desN      5      G     N3    160    -0.6323      14.01
   161    CB_desN      5      G     C4    161     0.1222      12.01
   162         CT      5      G    C3'    162     0.2022      12.01
   163         H1      5      G    H3'    163     0.0615      1.008
   164         CT      5      G    C2'    164      0.067      12.01
   165         H1      5      G   H2'1    165     0.0972      1.008
   166         OH      5      G    O2'    166    -0.6139         16
   167         HO      5      G   HO'2    167     0.4186      1.008
   168         OH      5      G    O3'    168    -0.6541         16
   169         HO      5      G    H3T    169     0.4376      1.008   ; qtot -4

[ bonds ]
;  ai    aj funct            c0            c1            c2            c3
    1     2     1 
    1     3     1 
    3     4     1 
    3     5     1 
    3     6     1 
    6     7     1 
    6     8     1 
    6    26     1 
    8     9     1 
    9    10     1 
    9    11     1 
    9    28     1 
   11    12     1 
   11    25     1 
   12    13     1 
   12    14     1 
   14    15     1 
   15    16     1 
   15    25     1 
   16    17     1 
   16    18     1 
   18    19     1 
   18    20     1 
   20    21     1 
   20    24     1 
   21    22     1 
   21    23     1 
   24    25     1 
   26    27     1 
   26    28     1 
   26    32     1 
   28    29     1 
   28    30     1 
   30    31     1 
   32    33     1 
   33    34     1 
   33    35     1 
   33    36     1 
   36    37     1 
   37    38     1 
   37    39     1 
   37    40     1 
   40    41     1 
   40    42     1 
   40    60     1 
   42    43     1 
   43    44     1 
   43    45     1 
   43    62     1 
   45    46     1 
   45    59     1 
   46    47     1 
   46    48     1 
   48    49     1 
   49    50     1 
   49    59     1 
   50    51     1 
   50    52     1 
   52    53     1 
   52    54     1 
   54    55     1 
   54    58     1 
   55    56     1 
   55    57     1 
   58    59     1 
   60    61     1 
   60    62     1 
   60    66     1 
   62    63     1 
   62    64     1 
   64    65     1 
   66    67     1 
   67    68     1 
   67    69     1 
   67    70     1 
   70    71     1 
   71    72     1 
   71    73     1 
   71    74     1 
   74    75     1 
   74    76     1 
   74    94     1 
   76    77     1 
   77    78     1 
   77    79     1 
   77    96     1 
   79    80     1 
   79    93     1 
   80    81     1 
   80    82     1 
   82    83     1 
   83    84     1 
   83    93     1 
   84    85     1 
   84    86     1 
   86    87     1 
   86    88     1 
   88    89     1 
   88    92     1 
   89    90     1 
   89    91     1 
   92    93     1 
   94    95     1 
   94    96     1 
   94   100     1 
   96    97     1 
   96    98     1 
   98    99     1 
  100   101     1 
  101   102     1 
  101   103     1 
  101   104     1 
  104   105     1 
  105   106     1 
  105   107     1 
  105   108     1 
  108   109     1 
  108   110     1 
  108   128     1 
  110   111     1 
  111   112     1 
  111   113     1 
  111   130     1 
  113   114     1 
  113   127     1 
  114   115     1 
  114   116     1 
  116   117     1 
  117   118     1 
  117   127     1 
  118   119     1 
  118   120     1 
  120   121     1 
  120   122     1 
  122   123     1 
  122   126     1 
  123   124     1 
  123   125     1 
  126   127     1 
  128   129     1 
  128   130     1 
  128   134     1 
  130   131     1 
  130   132     1 
  132   133     1 
  134   135     1 
  135   136     1 
  135   137     1 
  135   138     1 
  138   139     1 
  139   140     1 
  139   141     1 
  139   142     1 
  142   143     1 
  142   144     1 
  142   162     1 
  144   145     1 
  145   146     1 
  145   147     1 
  145   164     1 
  147   148     1 
  147   161     1 
  148   149     1 
  148   150     1 
  150   151     1 
  151   152     1 
  151   161     1 
  152   153     1 
  152   154     1 
  154   155     1 
  154   156     1 
  156   157     1 
  156   160     1 
  157   158     1 
  157   159     1 
  160   161     1 
  162   163     1 
  162   164     1 
  162   168     1 
  164   165     1 
  164   166     1 
  166   167     1 
  168   169     1 

[ pairs ]
;  ai    aj funct            c0            c1            c2            c3
    1     7     1 
    1     8     1 
    1    26     1 
    2     4     1 
    2     5     1 
    2     6     1 
    3     9     1 
    3    27     1 
    3    28     1 
    3    32     1 
    4     7     1 
    4     8     1 
    4    26     1 
    5     7     1 
    5     8     1 
    5    26     1 
    6    10     1 
    6    11     1 
    6    29     1 
    6    30     1 
    6    33     1 
    7     9     1 
    7    27     1 
    7    28     1 
    7    32     1 
    8    12     1 
    8    25     1 
    8    27     1 
    8    29     1 
    8    30     1 
    8    32     1 
    9    13     1 
    9    14     1 
    9    15     1 
    9    24     1 
    9    27     1 
    9    31     1 
    9    32     1 
   10    12     1 
   10    25     1 
   10    26     1 
   10    29     1 
   10    30     1 
   11    16     1 
   11    20     1 
   11    26     1 
   11    29     1 
   11    30     1 
   12    16     1 
   12    24     1 
   12    28     1 
   13    15     1 
   13    25     1 
   14    17     1 
   14    18     1 
   14    24     1 
   15    19     1 
   15    20     1 
   16    21     1 
   16    24     1 
   17    19     1 
   17    20     1 
   17    25     1 
   18    22     1 
   18    23     1 
   18    25     1 
   19    21     1 
   19    24     1 
   21    25     1 
   22    24     1 
   23    24     1 
   25    28     1 
   26    31     1 
   26    34     1 
   26    35     1 
   26    36     1 
   27    29     1 
   27    30     1 
   27    33     1 
   28    33     1 
   29    31     1 
   29    32     1 
   30    32     1 
   32    37     1 
   33    38     1 
   33    39     1 
   33    40     1 
   34    37     1 
   35    37     1 
   36    41     1 
   36    42     1 
   36    60     1 
   37    43     1 
   37    61     1 
   37    62     1 
   37    66     1 
   38    41     1 
   38    42     1 
   38    60     1 
   39    41     1 
   39    42     1 
   39    60     1 
   40    44     1 
   40    45     1 
   40    63     1 
   40    64     1 
   40    67     1 
   41    43     1 
   41    61     1 
   41    62     1 
   41    66     1 
   42    46     1 
   42    59     1 
   42    61     1 
   42    63     1 
   42    64     1 
   42    66     1 
   43    47     1 
   43    48     1 
   43    49     1 
   43    58     1 
   43    61     1 
   43    65     1 
   43    66     1 
   44    46     1 
   44    59     1 
   44    60     1 
   44    63     1 
   44    64     1 
   45    50     1 
   45    54     1 
   45    60     1 
   45    63     1 
   45    64     1 
   46    50     1 
   46    58     1 
   46    62     1 
   47    49     1 
   47    59     1 
   48    51     1 
   48    52     1 
   48    58     1 
   49    53     1 
   49    54     1 
   50    55     1 
   50    58     1 
   51    53     1 
   51    54     1 
   51    59     1 
   52    56     1 
   52    57     1 
   52    59     1 
   53    55     1 
   53    58     1 
   55    59     1 
   56    58     1 
   57    58     1 
   59    62     1 
   60    65     1 
   60    68     1 
   60    69     1 
   60    70     1 
   61    63     1 
   61    64     1 
   61    67     1 
   62    67     1 
   63    65     1 
   63    66     1 
   64    66     1 
   66    71     1 
   67    72     1 
   67    73     1 
   67    74     1 
   68    71     1 
   69    71     1 
   70    75     1 
   70    76     1 
   70    94     1 
   71    77     1 
   71    95     1 
   71    96     1 
   71   100     1 
   72    75     1 
   72    76     1 
   72    94     1 
   73    75     1 
   73    76     1 
   73    94     1 
   74    78     1 
   74    79     1 
   74    97     1 
   74    98     1 
   74   101     1 
   75    77     1 
   75    95     1 
   75    96     1 
   75   100     1 
   76    80     1 
   76    93     1 
   76    95     1 
   76    97     1 
   76    98     1 
   76   100     1 
   77    81     1 
   77    82     1 
   77    83     1 
   77    92     1 
   77    95     1 
   77    99     1 
   77   100     1 
   78    80     1 
   78    93     1 
   78    94     1 
   78    97     1 
   78    98     1 
   79    84     1 
   79    88     1 
   79    94     1 
   79    97     1 
   79    98     1 
   80    84     1 
   80    92     1 
   80    96     1 
   81    83     1 
   81    93     1 
   82    85     1 
   82    86     1 
   82    92     1 
   83    87     1 
   83    88     1 
   84    89     1 
   84    92     1 
   85    87     1 
   85    88     1 
   85    93     1 
   86    90     1 
   86    91     1 
   86    93     1 
   87    89     1 
   87    92     1 
   89    93     1 
   90    92     1 
   91    92     1 
   93    96     1 
   94    99     1 
   94   102     1 
   94   103     1 
   94   104     1 
   95    97     1 
   95    98     1 
   95   101     1 
   96   101     1 
   97    99     1 
   97   100     1 
   98   100     1 
  100   105     1 
  101   106     1 
  101   107     1 
  101   108     1 
  102   105     1 
  103   105     1 
  104   109     1 
  104   110     1 
  104   128     1 
  105   111     1 
  105   129     1 
  105   130     1 
  105   134     1 
  106   109     1 
  106   110     1 
  106   128     1 
  107   109     1 
  107   110     1 
  107   128     1 
  108   112     1 
  108   113     1 
  108   131     1 
  108   132     1 
  108   135     1 
  109   111     1 
  109   129     1 
  109   130     1 
  109   134     1 
  110   114     1 
  110   127     1 
  110   129     1 
  110   131     1 
  110   132     1 
  110   134     1 
  111   115     1 
  111   116     1 
  111   117     1 
  111   126     1 
  111   129     1 
  111   133     1 
  111   134     1 
  112   114     1 
  112   127     1 
  112   128     1 
  112   131     1 
  112   132     1 
  113   118     1 
  113   122     1 
  113   128     1 
  113   131     1 
  113   132     1 
  114   118     1 
  114   126     1 
  114   130     1 
  115   117     1 
  115   127     1 
  116   119     1 
  116   120     1 
  116   126     1 
  117   121     1 
  117   122     1 
  118   123     1 
  118   126     1 
  119   121     1 
  119   122     1 
  119   127     1 
  120   124     1 
  120   125     1 
  120   127     1 
  121   123     1 
  121   126     1 
  123   127     1 
  124   126     1 
  125   126     1 
  127   130     1 
  128   133     1 
  128   136     1 
  128   137     1 
  128   138     1 
  129   131     1 
  129   132     1 
  129   135     1 
  130   135     1 
  131   133     1 
  131   134     1 
  132   134     1 
  134   139     1 
  135   140     1 
  135   141     1 
  135   142     1 
  136   139     1 
  137   139     1 
  138   143     1 
  138   144     1 
  138   162     1 
  139   145     1 
  139   163     1 
  139   164     1 
  139   168     1 
  140   143     1 
  140   144     1 
  140   162     1 
  141   143     1 
  141   144     1 
  141   162     1 
  142   146     1 
  142   147     1 
  142   165     1 
  142   166     1 
  142   169     1 
  143   145     1 
  143   163     1 
  143   164     1 
  143   168     1 
  144   148     1 
  144   161     1 
  144   163     1 
  144   165     1 
  144   166     1 
  144   168     1 
  145   149     1 
  145   150     1 
  145   151     1 
  145   160     1 
  145   163     1 
  145   167     1 
  145   168     1 
  146   148     1 
  146   161     1 
  146   162     1 
  146   165     1 
  146   166     1 
  147   152     1 
  147   156     1 
  147   162     1 
  147   165     1 
  147   166     1 
  148   152     1 
  148   160     1 
  148   164     1 
  149   151     1 
  149   161     1 
  150   153     1 
  150   154     1 
  150   160     1 
  151   155     1 
  151   156     1 
  152   157     1 
  152   160     1 
  153   155     1 
  153   156     1 
  153   161     1 
  154   158     1 
  154   159     1 
  154   161     1 
  155   157     1 
  155   160     1 
  157   161     1 
  158   160     1 
  159   160     1 
  161   164     1 
  162   167     1 
  163   165     1 
  163   166     1 
  163   169     1 
  164   169     1 
  165   167     1 
  165   168     1 
  166   168     1 

[ angles ]
;  ai    aj    ak funct            c0            c1            c2            c3
    2     1     3     1 
    1     3     4     1 
    1     3     5     1 
    1     3     6     1 
    4     3     5     1 
    4     3     6     1 
    5     3     6     1 
    3     6     7     1 
    3     6     8     1 
    3     6    26     1 
    7     6     8     1 
    7     6    26     1 
    8     6    26     1 
    6     8     9     1 
    8     9    10     1 
    8     9    11     1 
    8     9    28     1 
   10     9    11     1 
   10     9    28     1 
   11     9    28     1 
    9    11    12     1 
    9    11    25     1 
   12    11    25     1 
   11    12    13     1 
   11    12    14     1 
   13    12    14     1 
   12    14    15     1 
   14    15    16     1 
   14    15    25     1 
   16    15    25     1 
   15    16    17     1 
   15    16    18     1 
   17    16    18     1 
   16    18    19     1 
   16    18    20     1 
   19    18    20     1 
   18    20    21     1 
   18    20    24     1 
   21    20    24     1 
   20    21    22     1 
   20    21    23     1 
   22    21    23     1 
   20    24    25     1 
   11    25    15     1 
   11    25    24     1 
   15    25    24     1 
    6    26    27     1 
    6    26    28     1 
    6    26    32     1 
   27    26    28     1 
   27    26    32     1 
   28    26    32     1 
    9    28    26     1 
    9    28    29     1 
    9    28    30     1 
   26    28    29     1 
   26    28    30     1 
   29    28    30     1 
   28    30    31     1 
   26    32    33     1 
   32    33    34     1 
   32    33    35     1 
   32    33    36     1 
   34    33    35     1 
   34    33    36     1 
   35    33    36     1 
   33    36    37     1 
   36    37    38     1 
   36    37    39     1 
   36    37    40     1 
   38    37    39     1 
   38    37    40     1 
   39    37    40     1 
   37    40    41     1 
   37    40    42     1 
   37    40    60     1 
   41    40    42     1 
   41    40    60     1 
   42    40    60     1 
   40    42    43     1 
   42    43    44     1 
   42    43    45     1 
   42    43    62     1 
   44    43    45     1 
   44    43    62     1 
   45    43    62     1 
   43    45    46     1 
   43    45    59     1 
   46    45    59     1 
   45    46    47     1 
   45    46    48     1 
   47    46    48     1 
   46    48    49     1 
   48    49    50     1 
   48    49    59     1 
   50    49    59     1 
   49    50    51     1 
   49    50    52     1 
   51    50    52     1 
   50    52    53     1 
   50    52    54     1 
   53    52    54     1 
   52    54    55     1 
   52    54    58     1 
   55    54    58     1 
   54    55    56     1 
   54    55    57     1 
   56    55    57     1 
   54    58    59     1 
   45    59    49     1 
   45    59    58     1 
   49    59    58     1 
   40    60    61     1 
   40    60    62     1 
   40    60    66     1 
   61    60    62     1 
   61    60    66     1 
   62    60    66     1 
   43    62    60     1 
   43    62    63     1 
   43    62    64     1 
   60    62    63     1 
   60    62    64     1 
   63    62    64     1 
   62    64    65     1 
   60    66    67     1 
   66    67    68     1 
   66    67    69     1 
   66    67    70     1 
   68    67    69     1 
   68    67    70     1 
   69    67    70     1 
   67    70    71     1 
   70    71    72     1 
   70    71    73     1 
   70    71    74     1 
   72    71    73     1 
   72    71    74     1 
   73    71    74     1 
   71    74    75     1 
   71    74    76     1 
   71    74    94     1 
   75    74    76     1 
   75    74    94     1 
   76    74    94     1 
   74    76    77     1 
   76    77    78     1 
   76    77    79     1 
   76    77    96     1 
   78    77    79     1 
   78    77    96     1 
   79    77    96     1 
   77    79    80     1 
   77    79    93     1 
   80    79    93     1 
   79    80    81     1 
   79    80    82     1 
   81    80    82     1 
   80    82    83     1 
   82    83    84     1 
   82    83    93     1 
   84    83    93     1 
   83    84    85     1 
   83    84    86     1 
   85    84    86     1 
   84    86    87     1 
   84    86    88     1 
   87    86    88     1 
   86    88    89     1 
   86    88    92     1 
   89    88    92     1 
   88    89    90     1 
   88    89    91     1 
   90    89    91     1 
   88    92    93     1 
   79    93    83     1 
   79    93    92     1 
   83    93    92     1 
   74    94    95     1 
   74    94    96     1 
   74    94   100     1 
   95    94    96     1 
   95    94   100     1 
   96    94   100     1 
   77    96    94     1 
   77    96    97     1 
   77    96    98     1 
   94    96    97     1 
   94    96    98     1 
   97    96    98     1 
   96    98    99     1 
   94   100   101     1 
  100   101   102     1 
  100   101   103     1 
  100   101   104     1 
  102   101   103     1 
  102   101   104     1 
  103   101   104     1 
  101   104   105     1 
  104   105   106     1 
  104   105   107     1 
  104   105   108     1 
  106   105   107     1 
  106   105   108     1 
  107   105   108     1 
  105   108   109     1 
  105   108   110     1 
  105   108   128     1 
  109   108   110     1 
  109   108   128     1 
  110   108   128     1 
  108   110   111     1 
  110   111   112     1 
  110   111   113     1 
  110   111   130     1 
  112   111   113     1 
  112   111   130     1 
  113   111   130     1 
  111   113   114     1 
  111   113   127     1 
  114   113   127     1 
  113   114   115     1 
  113   114   116     1 
  115   114   116     1 
  114   116   117     1 
  116   117   118     1 
  116   117   127     1 
  118   117   127     1 
  117   118   119     1 
  117   118   120     1 
  119   118   120     1 
  118   120   121     1 
  118   120   122     1 
  121   120   122     1 
  120   122   123     1 
  120   122   126     1 
  123   122   126     1 
  122   123   124     1 
  122   123   125     1 
  124   123   125     1 
  122   126   127     1 
  113   127   117     1 
  113   127   126     1 
  117   127   126     1 
  108   128   129     1 
  108   128   130     1 
  108   128   134     1 
  129   128   130     1 
  129   128   134     1 
  130   128   134     1 
  111   130   128     1 
  111   130   131     1 
  111   130   132     1 
  128   130   131     1 
  128   130   132     1 
  131   130   132     1 
  130   132   133     1 
  128   134   135     1 
  134   135   136     1 
  134   135   137     1 
  134   135   138     1 
  136   135   137     1 
  136   135   138     1 
  137   135   138     1 
  135   138   139     1 
  138   139   140     1 
  138   139   141     1 
  138   139   142     1 
  140   139   141     1 
  140   139   142     1 
  141   139   142     1 
  139   142   143     1 
  139   142   144     1 
  139   142   162     1 
  143   142   144     1 
  143   142   162     1 
  144   142   162     1 
  142   144   145     1 
  144   145   146     1 
  144   145   147     1 
  144   145   164     1 
  146   145   147     1 
  146   145   164     1 
  147   145   164     1 
  145   147   148     1 
  145   147   161     1 
  148   147   161     1 
  147   148   149     1 
  147   148   150     1 
  149   148   150     1 
  148   150   151     1 
  150   151   152     1 
  150   151   161     1 
  152   151   161     1 
  151   152   153     1 
  151   152   154     1 
  153   152   154     1 
  152   154   155     1 
  152   154   156     1 
  155   154   156     1 
  154   156   157     1 
  154   156   160     1 
  157   156   160     1 
  156   157   158     1 
  156   157   159     1 
  158   157   159     1 
  156   160   161     1 
  147   161   151     1 
  147   161   160     1 
  151   161   160     1 
  142   162   163     1 
  142   162   164     1 
  142   162   168     1 
  163   162   164     1 
  163   162   168     1 
  164   162   168     1 
  145   164   162     1 
  145   164   165     1 
  145   164   166     1 
  162   164   165     1 
  162   164   166     1 
  165   164   166     1 
  164   166   167     1 
  162   168   169     1 

[ dihedrals ]
;  ai    aj    ak    al funct            c0            c1            c2            c3            c4            c5
    2     1     3     4     9 
    2     1     3     5     9 
    2     1     3     6     9 
    1     3     6     7     9 
    1     3     6     8     9 
    1     3     6    26     9 
    4     3     6     7     9 
    4     3     6     8     9 
    4     3     6    26     9 
    5     3     6     7     9 
    5     3     6     8     9 
    5     3     6    26     9 
    3     6     8     9     9 
    7     6     8     9     9 
   26     6     8     9     9 
    3     6    26    27     9 
    3     6    26    28     9 
    3     6    26    32     9 
    7     6    26    27     9 
    7     6    26    28     9 
    7     6    26    32     9 
    8     6    26    27     9 
    8     6    26    28     9 
    8     6    26    32     9 
    6     8     9    10     9 
    6     8     9    11     9 
    6     8     9    28     9 
    8     9    11    12     9    torsion_RG_O4S_C1S_N9_C8_mult1
    8     9    11    12     9    torsion_RG_O4S_C1S_N9_C8_mult2
    8     9    11    12     9    torsion_RG_O4S_C1S_N9_C8_mult3
    8     9    11    12     9    torsion_RG_O4S_C1S_N9_C8_mult4
    8     9    11    25     9 
   10     9    11    12     9 
   10     9    11    25     9 
   28     9    11    12     9 
   28     9    11    25     9 
    8     9    28    26     9 
    8     9    28    29     9 
    8     9    28    30     9 
   10     9    28    26     9 
   10     9    28    29     9 
   10     9    28    30     9 
   11     9    28    26     9 
   11     9    28    29     9 
   11     9    28    30     9 
    9    11    12    13     9 
    9    11    12    14     9 
   25    11    12    13     9 
   25    11    12    14     9 
    9    11    25    15     9 
    9    11    25    24     9 
   12    11    25    15     9 
   12    11    25    24     9 
   11    12    14    15     9 
   13    12    14    15     9 
   12    14    15    16     9 
   12    14    15    25     9 
   14    15    16    17     9 
   14    15    16    18     9 
   25    15    16    17     9 
   25    15    16    18     9 
   14    15    25    11     9 
   14    15    25    24     9 
   16    15    25    11     9 
   16    15    25    24     9 
   15    16    18    19     9 
   15    16    18    20     9 
   17    16    18    19     9 
   17    16    18    20     9 
   16    18    20    21     9 
   16    18    20    24     9 
   19    18    20    21     9 
   19    18    20    24     9 
   18    20    21    22     9 
   18    20    21    23     9 
   24    20    21    22     9 
   24    20    21    23     9 
   18    20    24    25     9 
   21    20    24    25     9 
   20    24    25    11     9 
   20    24    25    15     9 
    6    26    28     9     9 
    6    26    28    29     9 
    6    26    28    30     9 
   27    26    28     9     9 
   27    26    28    29     9 
   27    26    28    30     9 
   32    26    28     9     9 
   32    26    28    29     9 
   32    26    28    30     9 
    6    26    32    33     9 
   27    26    32    33     9 
   28    26    32    33     9 
    9    28    30    31     9 
   26    28    30    31     9 
   29    28    30    31     9 
   26    32    33    34     9 
   26    32    33    35     9 
   26    32    33    36     9 
   32    33    36    37     9 
   34    33    36    37     9 
   35    33    36    37     9 
   33    36    37    38     9 
   33    36    37    39     9 
   33    36    37    40     9 
   36    37    40    41     9 
   36    37    40    42     9 
   36    37    40    60     9 
   38    37    40    41     9 
   38    37    40    42     9 
   38    37    40    60     9 
   39    37    40    41     9 
   39    37    40    42     9 
   39    37    40    60     9 
   37    40    42    43     9 
   41    40    42    43     9 
   60    40    42    43     9 
   37    40    60    61     9 
   37    40    60    62     9 
   37    40    60    66     9 
   41    40    60    61     9 
   41    40    60    62     9 
   41    40    60    66     9 
   42    40    60    61     9 
   42    40    60    62     9 
   42    40    60    66     9 
   40    42    43    44     9 
   40    42    43    45     9 
   40    42    43    62     9 
   42    43    45    46     9    torsion_RG_O4S_C1S_N9_C8_mult1
   42    43    45    46     9    torsion_RG_O4S_C1S_N9_C8_mult2
   42    43    45    46     9    torsion_RG_O4S_C1S_N9_C8_mult3
   42    43    45    46     9    torsion_RG_O4S_C1S_N9_C8_mult4
   42    43    45    59     9 
   44    43    45    46     9 
   44    43    45    59     9 
   62    43    45    46     9 
   62    43    45    59     9 
   42    43    62    60     9 
   42    43    62    63     9 
   42    43    62    64     9 
   44    43    62    60     9 
   44    43    62    63     9 
   44    43    62    64     9 
   45    43    62    60     9 
   45    43    62    63     9 
   45    43    62    64     9 
   43    45    46    47     9 
   43    45    46    48     9 
   59    45    46    47     9 
   59    45    46    48     9 
   43    45    59    49     9 
   43    45    59    58     9 
   46    45    59    49     9 
   46    45    59    58     9 
   45    46    48    49     9 
   47    46    48    49     9 
   46    48    49    50     9 
   46    48    49    59     9 
   48    49    50    51     9 
   48    49    50    52     9 
   59    49    50    51     9 
   59    49    50    52     9 
   48    49    59    45     9 
   48    49    59    58     9 
   50    49    59    45     9 
   50    49    59    58     9 
   49    50    52    53     9 
   49    50    52    54     9 
   51    50    52    53     9 
   51    50    52    54     9 
   50    52    54    55     9 
   50    52    54    58     9 
   53    52    54    55     9 
   53    52    54    58     9 
   52    54    55    56     9 
   52    54    55    57     9 
   58    54    55    56     9 
   58    54    55    57     9 
   52    54    58    59     9 
   55    54    58    59     9 
   54    58    59    45     9 
   54    58    59    49     9 
   40    60    62    43     9 
   40    60    62    63     9 
   40    60    62    64     9 
   61    60    62    43     9 
   61    60    62    63     9 
   61    60    62    64     9 
   66    60    62    43     9 
   66    60    62    63     9 
   66    60    62    64     9 
   40    60    66    67     9 
   61    60    66    67     9 
   62    60    66    67     9 
   43    62    64    65     9 
   60    62    64    65     9 
   63    62    64    65     9 
   60    66    67    68     9 
   60    66    67    69     9 
   60    66    67    70     9 
   66    67    70    71     9 
   68    67    70    71     9 
   69    67    70    71     9 
   67    70    71    72     9 
   67    70    71    73     9 
   67    70    71    74     9 
   70    71    74    75     9 
   70    71    74    76     9 
   70    71    74    94     9 
   72    71    74    75     9 
   72    71    74    76     9 
   72    71    74    94     9 
   73    71    74    75     9 
   73    71    74    76     9 
   73    71    74    94     9 
   71    74    76    77     9 
   75    74    76    77     9 
   94    74    76    77     9 
   71    74    94    95     9 
   71    74    94    96     9 
   71    74    94   100     9 
   75    74    94    95     9 
   75    74    94    96     9 
   75    74    94   100     9 
   76    74    94    95     9 
   76    74    94    96     9 
   76    74    94   100     9 
   74    76    77    78     9 
   74    76    77    79     9 
   74    76    77    96     9 
   76    77    79    80     9    torsion_RG_O4S_C1S_N9_C8_mult1
   76    77    79    80     9    torsion_RG_O4S_C1S_N9_C8_mult2
   76    77    79    80     9    torsion_RG_O4S_C1S_N9_C8_mult3
   76    77    79    80     9    torsion_RG_O4S_C1S_N9_C8_mult4
   76    77    79    93     9 
   78    77    79    80     9 
   78    77    79    93     9 
   96    77    79    80     9 
   96    77    79    93     9 
   76    77    96    94     9 
   76    77    96    97     9 
   76    77    96    98     9 
   78    77    96    94     9 
   78    77    96    97     9 
   78    77    96    98     9 
   79    77    96    94     9 
   79    77    96    97     9 
   79    77    96    98     9 
   77    79    80    81     9 
   77    79    80    82     9 
   93    79    80    81     9 
   93    79    80    82     9 
   77    79    93    83     9 
   77    79    93    92     9 
   80    79    93    83     9 
   80    79    93    92     9 
   79    80    82    83     9 
   81    80    82    83     9 
   80    82    83    84     9 
   80    82    83    93     9 
   82    83    84    85     9 
   82    83    84    86     9 
   93    83    84    85     9 
   93    83    84    86     9 
   82    83    93    79     9 
   82    83    93    92     9 
   84    83    93    79     9 
   84    83    93    92     9 
   83    84    86    87     9 
   83    84    86    88     9 
   85    84    86    87     9 
   85    84    86    88     9 
   84    86    88    89     9 
   84    86    88    92     9 
   87    86    88    89     9 
   87    86    88    92     9 
   86    88    89    90     9 
   86    88    89    91     9 
   92    88    89    90     9 
   92    88    89    91     9 
   86    88    92    93     9 
   89    88    92    93     9 
   88    92    93    79     9 
   88    92    93    83     9 
   74    94    96    77     9 
   74    94    96    97     9 
   74    94    96    98     9 
   95    94    96    77     9 
   95    94    96    97     9 
   95    94    96    98     9 
  100    94    96    77     9 
  100    94    96    97     9 
  100    94    96    98     9 
   74    94   100   101     9 
   95    94   100   101     9 
   96    94   100   101     9 
   77    96    98    99     9 
   94    96    98    99     9 
   97    96    98    99     9 
   94   100   101   102     9 
   94   100   101   103     9 
   94   100   101   104     9 
  100   101   104   105     9 
  102   101   104   105     9 
  103   101   104   105     9 
  101   104   105   106     9 
  101   104   105   107     9 
  101   104   105   108     9 
  104   105   108   109     9 
  104   105   108   110     9 
  104   105   108   128     9 
  106   105   108   109     9 
  106   105   108   110     9 
  106   105   108   128     9 
  107   105   108   109     9 
  107   105   108   110     9 
  107   105   108   128     9 
  105   108   110   111     9 
  109   108   110   111     9 
  128   108   110   111     9 
  105   108   128   129     9 
  105   108   128   130     9 
  105   108   128   134     9 
  109   108   128   129     9 
  109   108   128   130     9 
  109   108   128   134     9 
  110   108   128   129     9 
  110   108   128   130     9 
  110   108   128   134     9 
  108   110   111   112     9 
  108   110   111   113     9 
  108   110   111   130     9 
  110   111   113   114     9    torsion_RG_O4S_C1S_N9_C8_mult1
  110   111   113   114     9    torsion_RG_O4S_C1S_N9_C8_mult2
  110   111   113   114     9    torsion_RG_O4S_C1S_N9_C8_mult3
  110   111   113   114     9    torsion_RG_O4S_C1S_N9_C8_mult4
  110   111   113   127     9 
  112   111   113   114     9 
  112   111   113   127     9 
  130   111   113   114     9 
  130   111   113   127     9 
  110   111   130   128     9 
  110   111   130   131     9 
  110   111   130   132     9 
  112   111   130   128     9 
  112   111   130   131     9 
  112   111   130   132     9 
  113   111   130   128     9 
  113   111   130   131     9 
  113   111   130   132     9 
  111   113   114   115     9 
  111   113   114   116     9 
  127   113   114   115     9 
  127   113   114   116     9 
  111   113   127   117     9 
  111   113   127   126     9 
  114   113   127   117     9 
  114   113   127   126     9 
  113   114   116   117     9 
  115   114   116   117     9 
  114   116   117   118     9 
  114   116   117   127     9 
  116   117   118   119     9 
  116   117   118   120     9 
  127   117   118   119     9 
  127   117   118   120     9 
  116   117   127   113     9 
  116   117   127   126     9 
  118   117   127   113     9 
  118   117   127   126     9 
  117   118   120   121     9 
  117   118   120   122     9 
  119   118   120   121     9 
  119   118   120   122     9 
  118   120   122   123     9 
  118   120   122   126     9 
  121   120   122   123     9 
  121   120   122   126     9 
  120   122   123   124     9 
  120   122   123   125     9 
  126   122   123   124     9 
  126   122   123   125     9 
  120   122   126   127     9 
  123   122   126   127     9 
  122   126   127   113     9 
  122   126   127   117     9 
  108   128   130   111     9 
  108   128   130   131     9 
  108   128   130   132     9 
  129   128   130   111     9 
  129   128   130   131     9 
  129   128   130   132     9 
  134   128   130   111     9 
  134   128   130   131     9 
  134   128   130   132     9 
  108   128   134   135     9 
  129   128   134   135     9 
  130   128   134   135     9 
  111   130   132   133     9 
  128   130   132   133     9 
  131   130   132   133     9 
  128   134   135   136     9 
  128   134   135   137     9 
  128   134   135   138     9 
  134   135   138   139     9 
  136   135   138   139     9 
  137   135   138   139     9 
  135   138   139   140     9 
  135   138   139   141     9 
  135   138   139   142     9 
  138   139   142   143     9 
  138   139   142   144     9 
  138   139   142   162     9 
  140   139   142   143     9 
  140   139   142   144     9 
  140   139   142   162     9 
  141   139   142   143     9 
  141   139   142   144     9 
  141   139   142   162     9 
  139   142   144   145     9 
  143   142   144   145     9 
  162   142   144   145     9 
  139   142   162   163     9 
  139   142   162   164     9 
  139   142   162   168     9 
  143   142   162   163     9 
  143   142   162   164     9 
  143   142   162   168     9 
  144   142   162   163     9 
  144   142   162   164     9 
  144   142   162   168     9 
  142   144   145   146     9 
  142   144   145   147     9 
  142   144   145   164     9 
  144   145   147   148     9    torsion_RG_O4S_C1S_N9_C8_mult1
  144   145   147   148     9    torsion_RG_O4S_C1S_N9_C8_mult2
  144   145   147   148     9    torsion_RG_O4S_C1S_N9_C8_mult3
  144   145   147   148     9    torsion_RG_O4S_C1S_N9_C8_mult4
  144   145   147   161     9 
  146   145   147   148     9 
  146   145   147   161     9 
  164   145   147   148     9 
  164   145   147   161     9 
  144   145   164   162     9 
  144   145   164   165     9 
  144   145   164   166     9 
  146   145   164   162     9 
  146   145   164   165     9 
  146   145   164   166     9 
  147   145   164   162     9 
  147   145   164   165     9 
  147   145   164   166     9 
  145   147   148   149     9 
  145   147   148   150     9 
  161   147   148   149     9 
  161   147   148   150     9 
  145   147   161   151     9 
  145   147   161   160     9 
  148   147   161   151     9 
  148   147   161   160     9 
  147   148   150   151     9 
  149   148   150   151     9 
  148   150   151   152     9 
  148   150   151   161     9 
  150   151   152   153     9 
  150   151   152   154     9 
  161   151   152   153     9 
  161   151   152   154     9 
  150   151   161   147     9 
  150   151   161   160     9 
  152   151   161   147     9 
  152   151   161   160     9 
  151   152   154   155     9 
  151   152   154   156     9 
  153   152   154   155     9 
  153   152   154   156     9 
  152   154   156   157     9 
  152   154   156   160     9 
  155   154   156   157     9 
  155   154   156   160     9 
  154   156   157   158     9 
  154   156   157   159     9 
  160   156   157   158     9 
  160   156   157   159     9 
  154   156   160   161     9 
  157   156   160   161     9 
  156   160   161   147     9 
  156   160   161   151     9 
  142   162   164   145     9 
  142   162   164   165     9 
  142   162   164   166     9 
  163   162   164   145     9 
  163   162   164   165     9 
  163   162   164   166     9 
  168   162   164   145     9 
  168   162   164   165     9 
  168   162   164   166     9 
  142   162   168   169     9 
  163   162   168   169     9 
  164   162   168   169     9 
  145   164   166   167     9 
  162   164   166   167     9 
  165   164   166   167     9 

[ dihedrals ]
;  ai    aj    ak    al funct            c0            c1            c2            c3
    9    11    12    25     4 
   11    14    12    13     4 
   15    18    16    17     4 
   16    20    18    19     4 
   20    22    21    23     4 
   21    18    20    24     4 
   43    45    46    59     4 
   45    48    46    47     4 
   49    52    50    51     4 
   50    54    52    53     4 
   54    56    55    57     4 
   55    52    54    58     4 
   77    79    80    93     4 
   79    82    80    81     4 
   83    86    84    85     4 
   84    88    86    87     4 
   88    90    89    91     4 
   89    86    88    92     4 
  111   113   114   127     4 
  113   116   114   115     4 
  117   120   118   119     4 
  118   122   120   121     4 
  122   124   123   125     4 
  123   120   122   126     4 
  145   147   148   161     4 
  147   150   148   149     4 
  151   154   152   153     4 
  152   156   154   155     4 
  156   158   157   159     4 
  157   154   156   160     4 

; Include Position restraint file
#ifdef POSRES
#include "posre.itp"
#endif

; Include water topology
#include "amber_na_desres.ff/tip4pd.itp"

#ifdef POSRES_WATER
; Position restraint for each water oxygen
[ position_restraints ]
;  i funct       fcx        fcy        fcz
   1    1       1000       1000       1000
#endif

; Include topology for ions
#include "amber_na_desres.ff/ions.itp"

[ system ]
; Name
Gravel Rubs Often Many Awfully Cauterized Sores in water

[ molecules ]
; Compound        #mols
RNA                 1
SOL              2880
NA                  4
