Gromacs Runs On Most of All Computer Systems in water
11584
    1RU5    O5'    1   3.228   1.915   4.165 -0.1912  0.0320  0.0418
    1RU5    H5T    2   3.149   1.963   4.193  0.0489  0.8145 -0.6141
    1RU5    C5'    3   3.337   2.006   4.168  0.0587  0.2140 -0.0849
    1RU5   H5'1    4   3.305   2.092   4.109  2.1668  0.5219 -0.8106
    1RU5   H5'2    5   3.431   1.966   4.131 -0.5826 -0.7612 -0.6719
    1RU5    C4'    6   3.343   2.062   4.314 -0.0161 -0.1393  0.1300
    1RU5    H4'    7   3.425   2.133   4.330 -1.6751  2.1919 -1.3069
    1RU5    O4'    8   3.227   2.130   4.347  0.4819 -0.3203 -0.4152
    1RU5    C1'    9   3.191   2.111   4.479  0.3273 -0.1237 -0.5682
    1RU5    H1'   10   3.225   2.203   4.528 -0.0384 -0.3351  0.0933
    1RU5     N1   11   3.044   2.111   4.490 -0.2072 -0.6372 -0.6426
    1RU5     C6   12   2.972   2.006   4.452  0.1696  0.4120 -0.4106
    1RU5     H6   13   3.027   1.918   4.423  0.2473 -0.0965  1.2869
    1RU5     C5   14   2.838   2.005   4.456  0.0971  0.0196  0.4584
    1RU5     H5   15   2.776   1.926   4.415 -0.3397  1.3442 -1.4798
    1RU5     C4   16   2.761   2.122   4.495 -0.4745 -0.3981  0.4054
    1RU5     O4   17   2.639   2.136   4.502  0.2576 -0.4396  0.2217
    1RU5     N3   18   2.842   2.230   4.527 -0.1073  0.1608  0.1808
    1RU5     H3   19   2.793   2.317   4.544 -0.9164  0.2658 -2.3786
    1RU5     C2   20   2.979   2.226   4.539  0.1516  0.2873  0.7516
    1RU5     O2   21   3.039   2.329   4.572  0.1730  0.1550 -0.4021
    1RU5    C3'   22   3.364   1.950   4.417 -0.5050 -0.1481  0.1569
    1RU5    H3'   23   3.320   1.861   4.374  0.2982 -0.3682 -0.2064
    1RU5    C2'   24   3.278   2.003   4.535  0.3136 -0.1338 -0.3381
    1RU5   H2'1   25   3.224   1.921   4.582  0.4771 -0.9356 -1.5316
    1RU5    O2'   26   3.356   2.057   4.638 -0.1176  0.4415 -0.3406
    1RU5   HO'2   27   3.436   2.004   4.642  0.0567  0.6836 -0.6123
    1RU5    O3'   28   3.504   1.940   4.470 -0.1702  0.2631  0.0439
    2RG3      P   29   3.598   1.815   4.426  0.2271 -0.2829 -0.2833
    2RG3    O1P   30   3.730   1.812   4.495 -0.0099 -0.4737 -0.0106
    2RG3    O2P   31   3.598   1.801   4.277  0.3434  0.5448 -0.2340
    2RG3    O5'   32   3.510   1.697   4.491  0.2692  0.0556  0.5808
    2RG3    C5'   33   3.494   1.689   4.634  0.2045 -1.2715 -0.1124
    2RG3   H5'1   34   3.495   1.791   4.672 -0.5091 -0.6482 -1.7135
    2RG3   H5'2   35   3.584   1.643   4.674  0.7734 -1.6557 -1.7892
    2RG3    C4'   36   3.375   1.617   4.680 -0.3354  0.4130 -0.0962
    2RG3    H4'   37   3.378   1.620   4.789 -1.3611 -0.9709 -0.0203
    2RG3    O4'   38   3.260   1.682   4.634 -0.2499 -0.6331 -0.1790
    2RG3    C1'   39   3.154   1.589   4.637 -0.2023  0.1622 -0.2205
    2RG3    H1'   40   3.091   1.600   4.725 -0.2507 -0.0668 -0.2255
    2RG3     N9   41   3.059   1.616   4.520 -0.5683 -0.0802 -0.5599
    2RG3     C8   42   3.087   1.662   4.395 -0.4703  0.3747  0.3665
    2RG3     H8   43   3.188   1.670   4.356 -0.0332 -0.1090  1.3715
    2RG3     N7   44   2.978   1.676   4.320  0.1229 -0.3406  0.0216
    2RG3     C5   45   2.871   1.644   4.406 -0.2925 -0.2176  0.5751
    2RG3     C6   46   2.731   1.650   4.380 -0.5913 -0.0713 -0.3867
    2RG3     O6   47   2.675   1.683   4.273 -0.0405 -0.0461 -0.2587
    2RG3     N1   48   2.656   1.618   4.494  0.1472 -0.2517 -0.5414
    2RG3     H1   49   2.557   1.604   4.484  0.2253 -0.1363 -1.5650
    2RG3     C2   50   2.714   1.573   4.612  0.5928  0.1703 -0.3900
    2RG3     N2   51   2.634   1.523   4.701 -0.1585 -0.2682  0.0355
    2RG3    H21   52   2.535   1.506   4.685 -0.0101 -0.8032 -0.3329
    2RG3    H22   53   2.671   1.477   4.784  0.7755  1.3438  0.5243
    2RG3     N3   54   2.842   1.567   4.638 -0.3629  0.1117 -0.1215
    2RG3     C4   55   2.918   1.598   4.526  0.0017  0.0105 -0.0655
    2RG3    C3'   56   3.361   1.474   4.620 -0.4141 -0.3486  0.4832
    2RG3    H3'   57   3.385   1.475   4.514  0.6056 -1.9490  0.6913
    2RG3    C2'   58   3.213   1.444   4.638 -0.1594 -0.0298 -0.4342
    2RG3   H2'1   59   3.180   1.384   4.553 -0.3400  1.7758 -1.6787
    2RG3    O2'   60   3.190   1.381   4.768 -0.3144 -0.1810  0.2223
    2RG3   HO'2   61   3.280   1.373   4.800 -1.1101 -1.6349  2.1491
    2RG3    O3'   62   3.446   1.375   4.680  0.2121  0.4513 -0.0168
    2RG3    H3T   63   3.539   1.385   4.659  0.3973 -0.7201  0.2341
    5SOL     OW   64   1.128   3.161   0.825  0.3004 -0.4664  0.2443
    5SOL    HW2   65   1.046   3.194   0.789 -0.5080 -1.4843  1.1064
    5SOL    HW3   66   1.124   3.182   0.919  1.4071  0.2316  0.1423
    5SOL    MW4   67   1.117   3.168   0.833  0.3397 -0.5085  0.3445
    6SOL     OW   68   3.884   2.097   0.717 -0.7402  0.3998  0.3098
    6SOL    HW2   69   3.800   2.074   0.756 -1.0221 -0.0946 -0.5950
    6SOL    HW3   70   3.886   2.052   0.633  0.9970 -0.6735  0.8953
    6SOL    MW4   71   3.873   2.088   0.711 -0.5481  0.1931  0.2677
    7SOL     OW   72   0.875   0.191   0.480 -0.1693 -0.2151 -0.2447
    7SOL    HW2   73   0.901   0.272   0.436  1.4568 -0.7050 -0.2244
    7SOL    HW3   74   0.946   0.130   0.460 -1.2226 -1.5394  0.0167
    7SOL    MW4   75   0.888   0.193   0.471 -0.0936 -0.4544 -0.2075
    8SOL     OW   76   1.793   4.017   0.775  0.2160  0.2478 -0.1992
    8SOL    HW2   77   1.789   4.106   0.812  0.6096  0.3286 -0.3564
    8SOL    HW3   78   1.718   3.972   0.815 -0.5804  0.9386 -0.8809
    8SOL    MW4   79   1.782   4.023   0.786  0.1630  0.3495 -0.3099
    9SOL     OW   80   1.821   3.203   0.771  0.0500  0.0550  0.4057
    9SOL    HW2   81   1.735   3.181   0.808  0.9620  0.2694  2.7037
    9SOL    HW3   82   1.835   3.294   0.796  1.1186 -0.0856  0.3387
    9SOL    MW4   83   1.811   3.212   0.779  0.3114  0.0646  0.7000
   10SOL     OW   84   0.268   0.459   0.548  0.1857 -0.1167  0.3264
   10SOL    HW2   85   0.251   0.483   0.639  0.1106 -0.1089  0.3101
   10SOL    HW3   86   0.300   0.539   0.508  1.0763 -0.3457  0.5682
   10SOL    MW4   87   0.270   0.473   0.555  0.2933 -0.1459  0.3561
   11SOL     OW   88   0.185   4.403   0.737  0.2567  0.7285  0.3136
   11SOL    HW2   89   0.272   4.371   0.764  0.0376 -1.5832 -1.5861
   11SOL    HW3   90   0.125   4.364   0.800  0.4556  1.3327  0.8863
   11SOL    MW4   91   0.189   4.394   0.749  0.2540  0.5035  0.1386
   12SOL     OW   92   0.886   0.376   0.856  0.1781  0.0346 -0.0626
   12SOL    HW2   93   0.878   0.370   0.952  1.2641 -0.6015 -0.0044
   12SOL    HW3   94   0.900   0.285   0.828  0.0189  0.2435 -0.8037
   12SOL    MW4   95   0.887   0.363   0.865  0.3003 -0.0218 -0.1528
   13SOL     OW   96   1.130   3.065   0.444 -0.0937  0.5007 -0.1037
   13SOL    HW2   97   1.109   3.003   0.373 -0.2503  0.4641 -0.0263
   13SOL    HW3   98   1.113   3.016   0.524  0.1122  0.5333 -0.0400
   13SOL    MW4   99   1.125   3.050   0.445 -0.0873  0.5002 -0.0851
   14SOL     OW  100   3.698   0.332   0.399  0.4055 -0.0712 -0.1070
   14SOL    HW2  101   3.611   0.347   0.437 -0.0728 -0.3115 -1.0990
   14SOL    HW3  102   3.701   0.389   0.322  1.1763  0.0247 -0.0124
   14SOL    MW4  103   3.687   0.341   0.394  0.4442 -0.0903 -0.2254
   15SOL     OW  104   0.442   0.363   1.197  0.4782 -0.3873 -0.0367
   15SOL    HW2  105   0.450   0.359   1.101  0.9749  2.0013 -0.1379
   15SOL    HW3  106   0.363   0.416   1.212  0.8567 -0.0759  0.8679
   15SOL    MW4  107   0.432   0.370   1.186  0.5937 -0.0311  0.0694
   16SOL     OW  108   3.177   4.242   0.530 -0.1220  0.0113 -0.2345
   16SOL    HW2  109   3.219   4.189   0.598 -0.7589  0.4246  0.4922
   16SOL    HW3  110   3.168   4.183   0.455  0.5144 -0.4702  0.0707
   16SOL    MW4  111   3.181   4.227   0.529 -0.1221  0.0029 -0.0982
   17SOL     OW  112   4.161   4.646   0.423 -0.1958  0.2678  0.4253
   17SOL    HW2  113   4.143   4.737   0.446 -1.3236 -0.0142  0.6850
   17SOL    HW3  114   4.084   4.619   0.373 -0.5885 -1.0263  1.7167
   17SOL    MW4  115   4.148   4.655   0.419 -0.3958  0.0596  0.6300
   18SOL     OW  116   3.636   3.960   0.493 -0.3628 -0.2459  0.8144
   18SOL    HW2  117   3.545   3.946   0.468 -0.4509  0.0898  0.9441
   18SOL    HW3  118   3.682   3.884   0.458 -0.5663 -0.0314  0.0530
   18SOL    MW4  119   3.630   3.948   0.485 -0.4008 -0.1733  0.7311
   19SOL     OW  120   3.453   1.641   0.419  0.4166  0.1666 -0.1263
   19SOL    HW2  121   3.471   1.547   0.416 -0.0951  0.0609  0.0956
   19SOL    HW3  122   3.361   1.648   0.445  0.9256  0.7647  1.5726
   19SOL    MW4  123   3.443   1.630   0.422  0.4160  0.2316  0.1271
   20SOL     OW  124   3.170   1.188   0.846 -0.0367  0.0331  0.4270
   20SOL    HW2  125   3.149   1.173   0.938  0.8349  0.0837  0.6339
   20SOL    HW3  126   3.169   1.100   0.807 -0.5631  0.0278  0.4461
   20SOL    MW4  127   3.167   1.174   0.853  0.0088  0.0390  0.4568
   21SOL     OW  128   1.609   3.454   0.352  0.1111 -0.1914  0.0766
   21SOL    HW2  129   1.679   3.389   0.354  1.0005  0.7522  0.1901
   21SOL    HW3  130   1.529   3.403   0.342  0.9172 -1.2256 -1.4039
   21SOL    MW4  131   1.608   3.439   0.351  0.3349 -0.2034 -0.1038
   22SOL     OW  132   3.176   3.207   0.792 -0.0194 -0.3486 -0.0124
   22SOL    HW2  133   3.237   3.134   0.802  1.7601  1.2130  0.7739
   22SOL    HW3  134   3.093   3.173   0.824  0.6711 -2.1694 -0.0933
   22SOL    MW4  135   3.173   3.193   0.797  0.3064 -0.3829  0.0806
   23SOL     OW  136   1.433   2.521   0.442 -0.2634  0.2740 -0.2675
   23SOL    HW2  137   1.357   2.465   0.427  0.7874 -1.2980  0.1496
   23SOL    HW3  138   1.431   2.539   0.536 -0.5360  0.8518 -0.3830
   23SOL    MW4  139   1.423   2.516   0.452 -0.1608  0.1428 -0.2277
   24SOL     OW  140   2.943   4.401   0.514  0.4545  0.3632  0.0129
   24SOL    HW2  141   3.025   4.352   0.504  0.9758  1.4242 -0.9851
   24SOL    HW3  142   2.946   4.467   0.445 -0.4695  1.4853  1.0312
   24SOL    MW4  143   2.954   4.403   0.504  0.4017  0.6509  0.0157
   25SOL     OW  144   2.735   1.612   0.485 -0.3072  0.0361 -0.2471
   25SOL    HW2  145   2.803   1.674   0.460 -1.3200  1.8119  1.3444
   25SOL    HW3  146   2.731   1.617   0.580 -1.5131 -1.2880 -0.2156
   25SOL    MW4  147   2.743   1.621   0.494 -0.5999  0.0956 -0.0330
   26SOL     OW  148   1.105   2.850   0.282 -0.3102  0.5766 -0.7359
   26SOL    HW2  149   1.026   2.813   0.319  0.0570  1.1821  0.6675
   26SOL    HW3  150   1.148   2.777   0.238 -0.0536 -0.4400  1.2006
   26SOL    MW4  151   1.100   2.836   0.281 -0.2278  0.5224 -0.2952
   27SOL     OW  152   4.067   0.861   0.414 -0.3094  0.2705  0.0931
   27SOL    HW2  153   4.159   0.843   0.398 -0.3227  0.3449 -0.0691
   27SOL    HW3  154   4.055   0.845   0.508 -0.1599  0.1432  0.0901
   27SOL    MW4  155   4.077   0.857   0.424 -0.2913  0.2635  0.0713
   28SOL     OW  156   0.269   2.356   0.400 -0.2615 -0.1186 -0.6232
   28SOL    HW2  157   0.197   2.373   0.460  0.0619  0.9910 -0.5338
   28SOL    HW3  158   0.323   2.291   0.444  0.2379  1.0359  0.5265
   28SOL    MW4  159   0.267   2.350   0.413 -0.1530  0.1802 -0.4597
   29SOL     OW  160   3.171   1.648   0.479 -0.1007 -0.4687  0.3481
   29SOL    HW2  161   3.144   1.557   0.469 -1.8647 -0.1330  1.8391
   29SOL    HW3  162   3.104   1.698   0.433  0.5902  0.1003 -0.0405
   29SOL    MW4  163   3.159   1.643   0.472 -0.2425 -0.3494  0.4935
   30SOL     OW  164   2.420   2.098   0.513 -0.4697  0.0234 -0.0601
   30SOL    HW2  165   2.325   2.093   0.499 -0.3384  0.2409 -1.0120
   30SOL    HW3  166   2.452   2.010   0.493 -0.4579 -0.0235  0.1657
   30SOL    MW4  167   2.412   2.086   0.509 -0.4506  0.0463 -0.1559
   31SOL     OW  168   3.763   3.708   0.449  0.2174  0.3858 -0.4632
   31SOL    HW2  169   3.851   3.670   0.451 -0.5885 -1.5264  0.6882
   31SOL    HW3  170   3.707   3.637   0.417 -1.2044  0.8304  0.9559
   31SOL    MW4  171   3.768   3.693   0.445 -0.0765  0.1922 -0.1240
   32SOL     OW  172   2.460   2.866   0.467  0.0290 -0.1751 -0.3485
   32SOL    HW2  173   2.443   2.772   0.459  1.1513 -0.2984 -1.3330
   32SOL    HW3  174   2.552   2.872   0.490 -0.2091  0.6684  0.3997
   32SOL    MW4  175   2.470   2.854   0.469  0.1457 -0.0801 -0.3797
   33SOL     OW  176   3.688   2.879   0.581 -0.3394  0.3980 -0.2058
   33SOL    HW2  177   3.696   2.842   0.669  0.2064 -0.3005 -0.5448
   33SOL    HW3  178   3.595   2.869   0.559 -0.2613 -0.4607 -0.1543
   33SOL    MW4  179   3.677   2.873   0.590 -0.2570  0.1924 -0.2438
   34SOL     OW  180   3.797   1.303   0.701 -0.3336 -0.0503  0.0077
   34SOL    HW2  181   3.722   1.269   0.751 -0.8951  0.1262 -0.7162
   34SOL    HW3  182   3.818   1.386   0.743  0.4581 -0.8241  1.2039
   34SOL    MW4  183   3.790   1.309   0.713 -0.3035 -0.1292  0.0700
   35SOL     OW  184   4.266   3.652   0.765  0.2296 -0.0976 -0.2759
   35SOL    HW2  185   4.193   3.591   0.778 -0.0471  0.5006  0.9737
   35SOL    HW3  186   4.254   3.719   0.831  2.1014 -0.1650  0.1654
   35SOL    MW4  187   4.255   3.653   0.775  0.4396 -0.0277 -0.0528
   36SOL     OW  188   2.005   1.317   0.771  0.2838 -0.2343 -0.5263
   36SOL    HW2  189   1.987   1.335   0.678  0.1038  0.4321 -0.3609
   36SOL    HW3  190   1.937   1.254   0.796 -0.8684  1.0416 -0.3400
   36SOL    MW4  191   1.993   1.311   0.762  0.1079  0.0221 -0.4799
   37SOL     OW  192   2.052   2.064   0.786 -0.3184 -0.7098 -0.2841
   37SOL    HW2  193   2.055   2.159   0.801  0.8067 -0.8008  0.1595
   37SOL    HW3  194   2.029   2.055   0.694  1.5857  0.0445 -0.8645
   37SOL    MW4  195   2.049   2.076   0.776  0.0813 -0.6223 -0.3021
   38SOL     OW  196   3.951   4.228   0.493  0.0272 -0.1101 -0.6264
   38SOL    HW2  197   4.027   4.284   0.511 -1.2374  0.8925  1.8736
   38SOL    HW3  198   3.989   4.146   0.462  2.0545  0.9400 -1.0847
   38SOL    MW4  199   3.966   4.225   0.491  0.1276  0.1607 -0.3570
   39SOL     OW  200   4.276   3.758   0.504 -0.1499  0.2286  0.5060
   39SOL    HW2  201   4.365   3.791   0.494 -0.3522  0.6730  0.1627
   39SOL    HW3  202   4.273   3.722   0.592  0.7554 -0.9706  0.0610
   39SOL    MW4  203   4.287   3.758   0.514 -0.0572  0.1290  0.4020
   40SOL     OW  204   0.649   0.467   0.719 -1.0228  0.6841  0.2609
   40SOL    HW2  205   0.737   0.431   0.732 -1.2444 -0.5753 -1.5443
   40SOL    HW3  206   0.598   0.431   0.792 -0.4457  0.0347  0.3568
   40SOL    MW4  207   0.654   0.457   0.730 -0.9758  0.4323  0.0353
   41SOL     OW  208   4.252   2.848   0.654  0.0844 -0.6269 -0.2446
   41SOL    HW2  209   4.237   2.764   0.699  0.0436 -0.4678  0.0409
   41SOL    HW3  210   4.336   2.836   0.610 -0.9928 -1.6068 -2.0640
   41SOL    MW4  211   4.261   2.835   0.654 -0.0634 -0.7350 -0.4469
   42SOL     OW  212   1.831   0.894   0.759 -0.0635 -0.0108  0.4080
   42SOL    HW2  213   1.905   0.852   0.803 -0.0377 -1.0178 -0.6043
   42SOL    HW3  214   1.754   0.856   0.801 -0.0425 -1.1897 -0.5992
   42SOL    MW4  215   1.831   0.884   0.771 -0.0573 -0.2992  0.1415
   43SOL     OW  216   4.444   0.088   0.471 -0.0385 -0.1651  0.3712
   43SOL    HW2  217   4.513   0.075   0.407 -0.6109 -0.0220 -0.2817
   43SOL    HW3  218   4.368   0.040   0.435 -0.5704  0.5126  0.5815
   43SOL    MW4  219   4.443   0.080   0.458 -0.1845 -0.0568  0.3129
   44SOL     OW  220   1.166   3.132   1.122  0.1325 -0.2843 -0.3921
   44SOL    HW2  221   1.242   3.176   1.160  0.6430 -0.6670 -0.9639
   44SOL    HW3  222   1.176   3.040   1.146  0.7607 -0.6264 -1.9269
   44SOL    MW4  223   1.177   3.126   1.130  0.2828 -0.3798 -0.6701
   45SOL     OW  224   4.098   2.598   0.371  0.1927 -0.3309 -0.1038
   45SOL    HW2  225   4.056   2.602   0.285  0.4935 -0.0660 -0.2402
   45SOL    HW3  226   4.054   2.665   0.423  0.4914 -0.0045 -0.2682
   45SOL    MW4  227   4.087   2.607   0.367  0.2723 -0.2532 -0.1435
   46SOL     OW  228   3.088   0.945   0.225 -0.2952  0.0187  0.3060
   46SOL    HW2  229   3.027   1.018   0.215 -0.8691 -0.3027  1.3620
   46SOL    HW3  230   3.104   0.941   0.319  0.5274 -0.5827  0.1450
   46SOL    MW4  231   3.082   0.954   0.236 -0.2625 -0.1031  0.4241
   47SOL     OW  232   3.666   0.922   0.488  0.1668  0.1645  0.0149
   47SOL    HW2  233   3.583   0.876   0.474 -0.4674  1.1470  0.4689
   47SOL    HW3  234   3.733   0.856   0.472 -0.7326 -1.3771  2.3396
   47SOL    MW4  235   3.664   0.907   0.484 -0.0355  0.0907  0.3814
   48SOL     OW  236   1.558   4.116   0.391  0.1620 -0.6560 -0.1996
   48SOL    HW2  237   1.545   4.042   0.332  1.3303 -0.8230 -0.2581
   48SOL    HW3  238   1.646   4.103   0.427  0.1543  0.3989  0.2222
   48SOL    MW4  239   1.568   4.105   0.388  0.3152 -0.5388 -0.1517
   49SOL     OW  240   3.672   0.094   0.925  0.0574  0.0934 -0.0741
   49SOL    HW2  241   3.592   0.051   0.899  0.5437 -1.7791  1.4154
   49SOL    HW3  242   3.728   0.090   0.847 -0.7505  0.1231 -0.6645
   49SOL    MW4  243   3.669   0.088   0.911  0.0150 -0.1497  0.0445
   50SOL     OW  244   4.098   1.971   0.858 -0.2855  0.0372  0.0124
   50SOL    HW2  245   4.175   2.018   0.827  0.0861  0.2706  1.2434
   50SOL    HW3  246   4.024   2.021   0.825  0.0738 -0.8654 -2.1907
   50SOL    MW4  247   4.098   1.984   0.850 -0.1888 -0.0511 -0.1159
   51SOL     OW  248   1.407   1.137   0.859 -0.1127 -0.1945  0.0791
   51SOL    HW2  249   1.394   1.057   0.808 -0.8556  1.2284 -1.9957
   51SOL    HW3  250   1.494   1.167   0.833 -0.2492  0.2177  0.1071
   51SOL    MW4  251   1.417   1.130   0.849 -0.2288  0.0476 -0.1910
   52SOL     OW  252   1.154   1.226   0.505 -0.2691  0.7849  0.0885
   52SOL    HW2  253   1.163   1.247   0.598  0.4994 -0.5775  0.3303
   52SOL    HW3  254   1.182   1.306   0.460 -0.8737  1.5319  1.0227
   52SOL    MW4  255   1.159   1.240   0.512 -0.2475  0.7038  0.2436
   53SOL     OW  256   0.849   2.956   0.204 -0.2625 -0.2170  0.3797
   53SOL    HW2  257   0.787   2.892   0.238 -1.2836  0.4529 -0.1889
   53SOL    HW3  258   0.930   2.907   0.189 -0.4526 -0.9606  1.7331
   53SOL    MW4  259   0.852   2.941   0.206 -0.4224 -0.2267  0.4833
   54SOL     OW  260   4.264   0.769   0.812 -0.4724 -0.4625  0.0885
   54SOL    HW2  261   4.179   0.802   0.782  0.3182  0.2849 -1.3553
   54SOL    HW3  262   4.268   0.680   0.777 -0.6262 -0.4756  0.1028
   54SOL    MW4  263   4.253   0.761   0.803 -0.3881 -0.3656 -0.1001
   55SOL     OW  264   2.488   2.595   0.736 -0.1184 -0.0373 -0.0264
   55SOL    HW2  265   2.414   2.643   0.774  0.8638  1.3528  0.1754
   55SOL    HW3  266   2.466   2.587   0.643 -0.0784  1.2368 -0.1553
   55SOL    MW4  267   2.475   2.600   0.729  0.0167  0.3140 -0.0169
   56SOL     OW  268   2.529   3.062   0.843 -0.1964  0.2931 -0.6057
   56SOL    HW2  269   2.522   3.068   0.939  1.1895 -0.1128 -0.4605
   56SOL    HW3  270   2.561   2.973   0.828  0.0332  0.5175 -1.4266
   56SOL    MW4  271   2.532   3.051   0.854  0.0169  0.2692 -0.6948
   57SOL     OW  272   0.902   1.157   0.374  0.3692  0.3496  0.5556
   57SOL    HW2  273   0.903   1.062   0.385  0.1600  0.3861  0.9151
   57SOL    HW3  274   0.980   1.188   0.419  0.8787  0.2773 -0.2728
   57SOL    MW4  275   0.912   1.148   0.381  0.4089  0.3449  0.4937
   58SOL     OW  276   0.359   0.211   0.494  0.3081  0.1454 -0.1849
   58SOL    HW2  277   0.442   0.228   0.450  0.1758  1.0983 -0.0799
   58SOL    HW3  278   0.325   0.298   0.514 -0.7916 -0.2404 -0.3751
   58SOL    MW4  279   0.366   0.224   0.491  0.1456  0.2202 -0.1961
   59SOL     OW  280   0.068   1.698   0.764 -0.3187  0.6709  0.3474
   59SOL    HW2  281   0.064   1.709   0.669  0.4977  0.2879  0.2661
   59SOL    HW3  282  -0.013   1.652   0.786  0.4801 -1.1362 -0.4303
   59SOL    MW4  283   0.057   1.694   0.754 -0.1055  0.3819  0.2340
   60SOL     OW  284   1.981   1.380   0.482  0.4762  0.3972 -0.2263
   60SOL    HW2  285   1.913   1.373   0.415 -0.8720  0.3328  1.1051
   60SOL    HW3  286   2.029   1.298   0.476  1.2582  0.9752 -2.0340
   60SOL    MW4  287   1.978   1.368   0.473  0.4016  0.4648 -0.2892
   61SOL     OW  288   4.255   3.889   0.893 -0.0963 -0.3845 -0.0591
   61SOL    HW2  289   4.337   3.917   0.853 -0.1694 -0.7447 -0.4697
   61SOL    HW3  290   4.272   3.892   0.987  0.6939 -1.3524 -0.1624
   61SOL    MW4  291   4.268   3.893   0.900 -0.0014 -0.5600 -0.1269
   62SOL     OW  292   2.760   2.904   0.427  0.2589 -0.0417  0.3228
   62SOL    HW2  293   2.790   2.828   0.477  0.8719 -0.4942 -0.7362
   62SOL    HW3  294   2.727   2.868   0.345  0.3861  0.8161 -0.1068
   62SOL    MW4  295   2.760   2.889   0.423  0.3567  0.0119  0.1264
   63SOL     OW  296   0.022   4.252   0.906  0.1961  0.1304 -0.2373
   63SOL    HW2  297   0.010   4.161   0.880 -0.2139  0.1484 -0.1152
   63SOL    HW3  298   0.018   4.250   1.002  1.5355  0.0844 -0.1780
   63SOL    MW4  299   0.020   4.240   0.915  0.3185  0.1264 -0.2133
   64SOL     OW  300   0.335   1.657   0.319 -0.5521 -0.3204  0.1894
   64SOL    HW2  301   0.257   1.613   0.353 -1.1892  1.6266  1.3471
   64SOL    HW3  302   0.305   1.745   0.297  0.9921 -0.0250 -0.8090
   64SOL    MW4  303   0.320   1.663   0.321 -0.4324 -0.0247  0.2104
   65SOL     OW  304   1.236   4.422   0.490  0.0616  0.2249  0.0864
   65SOL    HW2  305   1.331   4.434   0.485  0.3876 -2.1221 -0.1570
   65SOL    HW3  306   1.211   4.402   0.400 -0.2547 -1.6566  0.5655
   65SOL    MW4  307   1.245   4.421   0.477  0.0627 -0.3324  0.1175
   66SOL     OW  308   1.876   3.471   0.854 -0.5421  0.6696 -0.3610
   66SOL    HW2  309   1.866   3.466   0.949 -0.4568  1.8382 -0.2855
   66SOL    HW3  310   1.965   3.506   0.842 -0.0471 -0.7228 -0.8932
   66SOL    MW4  311   1.887   3.475   0.865 -0.4654  0.6402 -0.4212
   67SOL     OW  312   2.082   1.570   0.824 -0.3066 -0.6562 -0.2330
   67SOL    HW2  313   2.071   1.482   0.790  1.2607 -1.2777  0.8001
   67SOL    HW3  314   2.151   1.608   0.769  0.3391 -0.7280  0.5328
   67SOL    MW4  315   2.090   1.564   0.812 -0.0145 -0.7477  0.0043
   68SOL     OW  316   4.345   2.300   0.849  0.0146  0.4376  0.0482
   68SOL    HW2  317   4.267   2.348   0.821  0.1909  1.6986  1.5915
   68SOL    HW3  318   4.417   2.361   0.835  0.5258 -0.1793 -0.0116
   68SOL    MW4  319   4.344   2.314   0.844  0.1049  0.5226  0.2440
   69SOL     OW  320   1.362   0.110   0.757 -0.0932 -0.2159 -0.1874
   69SOL    HW2  321   1.319   0.136   0.675  0.3769 -0.1198 -0.4080
   69SOL    HW3  322   1.291   0.087   0.816 -0.5420  1.8292  0.1019
   69SOL    MW4  323   1.347   0.110   0.754 -0.0905  0.0666 -0.1784
   70SOL     OW  324   1.145   4.430   0.800  0.0008 -0.1863  0.3414
   70SOL    HW2  325   1.159   4.432   0.705 -0.8192  1.7116  0.2529
   70SOL    HW3  326   1.062   4.384   0.811 -0.0454 -0.1534  0.1364
   70SOL    MW4  327   1.136   4.424   0.789 -0.1135  0.0687  0.3027
   71SOL     OW  328   4.267   1.616   0.374 -0.2520 -0.2559  0.0411
   71SOL    HW2  329   4.216   1.593   0.296 -0.2634  1.4849 -0.4900
   71SOL    HW3  330   4.225   1.695   0.407  1.1334  0.2848  0.5183
   71SOL    MW4  331   4.255   1.623   0.368 -0.0706  0.0449  0.0340
   72SOL     OW  332   0.475   2.703   0.896 -0.2525 -0.2531  0.0159
   72SOL    HW2  333   0.509   2.623   0.856  1.3020  0.0209  0.7553
   72SOL    HW3  334   0.544   2.768   0.884 -1.4196  0.9427 -0.4154
   72SOL    MW4  335   0.488   2.701   0.889 -0.2014 -0.0594  0.0566
   73SOL     OW  336   3.431   2.568   0.427  0.2405  0.2925  0.2516
   73SOL    HW2  337   3.374   2.531   0.494  1.6147  0.1820  1.3831
   73SOL    HW3  338   3.503   2.506   0.419  0.7637  0.9628 -0.3831
   73SOL    MW4  339   3.433   2.555   0.435  0.4907  0.3662  0.3171
   74SOL     OW  340   1.097   0.431   0.465  0.0373  0.1341  0.3667
   74SOL    HW2  341   1.107   0.441   0.560  0.7634 -0.5224  0.3671
   74SOL    HW3  342   1.150   0.501   0.427  0.0710  0.1482  0.4402
   74SOL    MW4  343   1.106   0.441   0.472  0.1374  0.0493  0.3765
   75SOL     OW  344   2.775   0.441   0.392 -0.2067 -0.0599  0.0461
   75SOL    HW2  345   2.796   0.359   0.436 -0.8977 -0.3161 -0.1070
   75SOL    HW3  346   2.852   0.497   0.408  0.4149 -0.8523 -0.1508
   75SOL    MW4  347   2.788   0.438   0.400 -0.2155 -0.1982 -0.0001
   76SOL     OW  348   1.201   0.849   0.365 -0.1449 -0.1292 -0.3294
   76SOL    HW2  349   1.113   0.870   0.397 -0.4342 -0.5986 -0.7995
   76SOL    HW3  350   1.259   0.907   0.414 -0.4897 -1.4317  1.6978
   76SOL    MW4  351   1.197   0.859   0.376 -0.2286 -0.3629 -0.1240
   77SOL     OW  352   3.076   1.382   0.455 -0.0639 -0.2563  0.1711
   77SOL    HW2  353   3.163   1.345   0.470  0.3360  1.5855  2.5048
   77SOL    HW3  354   3.025   1.354   0.531 -1.1258 -0.1152 -0.4862
   77SOL    MW4  355   3.081   1.373   0.467 -0.1509  0.0052  0.3922
   78SOL     OW  356   3.607   0.937   0.761 -0.4319  0.2547 -0.0692
   78SOL    HW2  357   3.619   0.943   0.666  1.3111 -0.6860  0.0608
   78SOL    HW3  358   3.675   0.876   0.789 -1.4087 -0.0413  1.7011
   78SOL    MW4  359   3.618   0.930   0.752 -0.3309  0.0916  0.1815
   79SOL     OW  360   2.965   0.221   0.045  0.0874 -0.0797  0.0746
   79SOL    HW2  361   2.970   0.315   0.063 -2.4869 -0.1203  1.2679
   79SOL    HW3  362   3.039   0.203  -0.012  1.3106  2.4497  0.8070
   79SOL    MW4  363   2.976   0.231   0.040 -0.0906  0.2486  0.3286
   80SOL     OW  364   1.140   2.097   0.437 -0.2363  0.0096  0.0486
   80SOL    HW2  365   1.154   2.073   0.528  0.3391  0.5942  0.1145
   80SOL    HW3  366   1.048   2.123   0.433 -0.2986 -0.1537  0.4255
   80SOL    MW4  367   1.130   2.097   0.449 -0.1687  0.0651  0.1071
   81SOL     OW  368   0.617   1.998   0.470  0.7335 -0.2872  0.6568
   81SOL    HW2  369   0.601   1.906   0.448 -1.5745  0.1239  0.4795
   81SOL    HW3  370   0.649   1.996   0.560  0.2534 -1.2487  0.8102
   81SOL    MW4  371   0.619   1.986   0.479  0.3656 -0.3598  0.6536
   82SOL     OW  372   1.802   3.037   0.358 -0.2580  0.1448  0.1584
   82SOL    HW2  373   1.714   3.054   0.392  0.2795 -0.2517  1.7815
   82SOL    HW3  374   1.790   2.966   0.295 -0.9168 -0.6721  1.2033
   82SOL    MW4  375   1.788   3.030   0.354 -0.2738 -0.0153  0.5104
   83SOL     OW  376   1.366   3.736   0.375 -0.3656 -0.0720  0.1535
   83SOL    HW2  377   1.337   3.646   0.357  0.9808 -0.7017  1.0485
   83SOL    HW3  378   1.285   3.785   0.388 -1.1141 -1.1913 -0.1852
   83SOL    MW4  379   1.352   3.731   0.374 -0.2867 -0.3028  0.2269
   84SOL     OW  380   0.479   0.892   0.729  0.5296  0.1169 -0.3604
   84SOL    HW2  381   0.436   0.922   0.650  1.2433  0.5357 -0.5942
   84SOL    HW3  382   0.408   0.858   0.784 -0.1584  1.2861 -0.5094
   84SOL    MW4  383   0.464   0.891   0.726  0.5330  0.3265 -0.4110
   85SOL     OW  384   3.112   4.051   0.325  0.1433 -0.3082  0.0066
   85SOL    HW2  385   3.057   3.992   0.376 -0.7052  0.0868 -0.4502
   85SOL    HW3  386   3.052   4.098   0.268  0.9549  0.0793 -0.5514
   85SOL    MW4  387   3.097   4.049   0.324  0.1385 -0.2050 -0.1273
   86SOL     OW  388   1.567   4.378   0.761  0.0979  0.6563  0.2461
   86SOL    HW2  389   1.581   4.471   0.783 -0.0214  0.5391  0.8057
   86SOL    HW3  390   1.648   4.335   0.788  0.3474  0.6660 -0.4560
   86SOL    MW4  391   1.579   4.385   0.767  0.1149  0.6418  0.2273
   87SOL     OW  392   1.138   3.556   0.718 -0.2451 -0.0069 -0.2547
   87SOL    HW2  393   1.162   3.526   0.631  0.0684  0.7518 -0.4280
   87SOL    HW3  394   1.212   3.533   0.774  0.4351  1.3428 -0.5804
   87SOL    MW4  395   1.151   3.549   0.714 -0.1141  0.2713 -0.3205
   88SOL     OW  396   0.451   0.356   0.915 -0.0910 -0.0685 -0.2476
   88SOL    HW2  397   0.380   0.410   0.879  1.1960  0.5686 -1.8636
   88SOL    HW3  398   0.449   0.276   0.861 -0.2588 -0.5132  0.4083
   88SOL    MW4  399   0.441   0.352   0.903  0.0567 -0.0432 -0.3743
   89SOL     OW  400   1.846   1.678   0.732 -0.1743 -0.9171 -0.0739
   89SOL    HW2  401   1.832   1.757   0.784  0.3416 -0.8264 -0.0685
   89SOL    HW3  402   1.932   1.646   0.760  0.6736 -0.1878 -1.7344
   89SOL    MW4  403   1.855   1.684   0.742  0.0056 -0.8088 -0.2923
   90SOL     OW  404   2.765   0.130   0.757  0.0146  0.2076  0.2910
   90SOL    HW2  405   2.725   0.216   0.767  1.3141  0.6349  2.0377
   90SOL    HW3  406   2.695   0.068   0.778 -0.2441  0.8988  1.5110
   90SOL    MW4  407   2.750   0.133   0.761  0.1521  0.3552  0.6824
   91SOL     OW  408   4.028   0.355   0.866  0.0929 -0.3403 -0.1044
   91SOL    HW2  409   4.104   0.407   0.841 -0.1433  0.6310  1.1320
   91SOL    HW3  410   4.044   0.269   0.828  0.1606  0.8043 -2.8358
   91SOL    MW4  411   4.040   0.351   0.857  0.0706 -0.0611 -0.3017
   92SOL     OW  412   2.516   3.942   0.842  0.0690 -0.1557  0.0576
   92SOL    HW2  413   2.516   3.847   0.828 -0.8827 -0.0838 -0.4634
   92SOL    HW3  414   2.440   3.973   0.794  2.1713  1.2752 -2.5056
   92SOL    MW4  415   2.506   3.933   0.833  0.2210  0.0424 -0.3493
   93SOL     OW  416   2.717   0.763   0.384 -0.4414  0.2223 -0.1728
   93SOL    HW2  417   2.726   0.722   0.298  0.8011 -0.0782  0.0875
   93SOL    HW3  418   2.720   0.857   0.366 -1.1236  0.1744 -0.5511
   93SOL    MW4  419   2.718   0.770   0.370 -0.3672  0.1764 -0.1884
   94SOL     OW  420   1.188   3.492   0.440  0.1069 -0.0259  0.2277
   94SOL    HW2  421   1.243   3.414   0.453  1.3875  0.6122 -1.1382
   94SOL    HW3  422   1.105   3.457   0.408 -0.0333 -0.9633  1.5873
   94SOL    MW4  423   1.184   3.477   0.437  0.2575 -0.0656  0.2268
   95SOL     OW  424   2.979   1.542   0.888 -0.0622 -0.0363 -0.2992
   95SOL    HW2  425   3.037   1.606   0.848  0.1134 -0.2151 -0.3328
   95SOL    HW3  426   2.973   1.471   0.824 -0.2250 -0.0713 -0.2466
   95SOL    MW4  427   2.986   1.541   0.874 -0.0606 -0.0645 -0.2967
   96SOL     OW  428   0.463   2.559   0.537  0.0162 -0.0199  0.0782
   96SOL    HW2  429   0.419   2.483   0.498  0.6887 -0.2416 -0.2588
   96SOL    HW3  430   0.497   2.526   0.620 -0.0704  0.0361  0.1366
   96SOL    MW4  431   0.462   2.545   0.543  0.0935 -0.0415  0.0414
   97SOL     OW  432   3.389   0.601   0.307  0.3457  0.0859 -0.2799
   97SOL    HW2  433   3.466   0.607   0.251 -0.7902  0.7731 -1.7803
   97SOL    HW3  434   3.398   0.516   0.351  0.6715 -0.9715 -2.3491
   97SOL    MW4  435   3.401   0.591   0.305  0.2387  0.0371 -0.7509
   98SOL     OW  436   1.661   1.619   0.437  0.2330 -0.0301 -0.3794
   98SOL    HW2  437   1.572   1.649   0.416  0.5941  0.6069 -1.0427
   98SOL    HW3  438   1.660   1.606   0.531 -0.2916  0.9434 -0.2419
   98SOL    MW4  439   1.649   1.622   0.446  0.2114  0.1823 -0.4488
   99SOL     OW  440   2.053   0.762   0.873 -0.3856  0.1973  0.5509
   99SOL    HW2  441   2.123   0.796   0.817 -1.9451  0.5317 -1.2154
   99SOL    HW3  442   2.037   0.674   0.839  0.9737 -0.9051  2.6512
   99SOL    MW4  443   2.060   0.755   0.861 -0.4120  0.0960  0.5950
  100SOL     OW  444   1.395   1.920   0.803 -0.0241 -0.2993 -0.3798
  100SOL    HW2  445   1.417   1.900   0.894 -0.7203 -0.2205 -0.1892
  100SOL    HW3  446   1.378   1.834   0.763 -2.0676 -0.1892  0.1904
  100SOL    MW4  447   1.396   1.906   0.810 -0.3855 -0.2744 -0.2795
  101SOL     OW  448   2.475   0.545   0.731 -0.0529 -0.7898 -0.4453
  101SOL    HW2  449   2.545   0.489   0.764  1.7914  0.3270 -2.3399
  101SOL    HW3  450   2.487   0.628   0.777 -1.4594 -1.2353  0.7698
  101SOL    MW4  451   2.486   0.548   0.742  0.0048 -0.7012 -0.5350
  102SOL     OW  452   0.956   2.766   0.825  0.4443  0.2999 -0.2931
  102SOL    HW2  453   0.973   2.752   0.918  0.3530 -2.2158 -0.6154
  102SOL    HW3  454   0.862   2.779   0.819  0.4942  0.8130 -0.0104
  102SOL    MW4  455   0.946   2.766   0.837  0.4389  0.0358 -0.2984
  103SOL     OW  456   3.847   1.946   0.480  0.0518  0.2297  0.5455
  103SOL    HW2  457   3.769   1.896   0.503  0.2935 -0.1137  0.6105
  103SOL    HW3  458   3.919   1.884   0.487  0.3539  0.5880  0.6417
  103SOL    MW4  459   3.846   1.932   0.484  0.1235  0.2316  0.5668
  104SOL     OW  460   4.356   2.248   0.384 -0.0379 -0.0223 -0.1217
  104SOL    HW2  461   4.400   2.305   0.447  0.5194 -0.3167 -0.2412
  104SOL    HW3  462   4.423   2.226   0.320 -0.4524 -0.1901 -0.5057
  104SOL    MW4  463   4.370   2.252   0.383 -0.0191 -0.0834 -0.1882
  105SOL     OW  464   0.228   0.787   0.853  0.5732  0.4454  0.4045
  105SOL    HW2  465   0.205   0.782   0.946  2.2791  2.3821  0.9788
  105SOL    HW3  466   0.155   0.833   0.813  0.1381  0.1980  0.9101
  105SOL    MW4  467   0.216   0.792   0.860  0.7408  0.6683  0.5469
  106SOL     OW  468   4.455   3.144   0.486 -0.2632  0.5827 -0.2771
  106SOL    HW2  469   4.497   3.217   0.441  0.9322 -0.7895 -1.4263
  106SOL    HW3  470   4.440   3.176   0.575 -0.0081  2.3156 -0.8392
  106SOL    MW4  471   4.458   3.158   0.492 -0.0715  0.6304 -0.5029
  107SOL     OW  472   2.124   0.181   0.284  0.6354 -0.3592 -0.5269
  107SOL    HW2  473   2.130   0.101   0.233 -0.8807 -0.5340 -0.4498
  107SOL    HW3  474   2.195   0.236   0.252  0.1521 -0.7533 -2.3221
  107SOL    MW4  475   2.134   0.178   0.273  0.3715 -0.4342 -0.7536
  108SOL     OW  476   2.129   4.617   0.113 -0.2002  0.0595  0.3332
  108SOL    HW2  477   2.088   4.563   0.046 -0.8618  1.5162 -0.4740
  108SOL    HW3  478   2.222   4.595   0.108  0.0527  1.5064 -2.4121
  108SOL    MW4  479   2.136   4.607   0.103 -0.2542  0.4425 -0.1355
  109SOL     OW  480   1.679   2.174   0.493 -0.1538  0.2429 -0.0510
  109SOL    HW2  481   1.685   2.269   0.498  0.9558  0.1278  1.1364
  109SOL    HW3  482   1.605   2.157   0.435 -0.7683  1.8255  0.2638
  109SOL    MW4  483   1.670   2.184   0.486 -0.0885  0.4365  0.1472
  110SOL     OW  484   4.076   1.712   0.751  0.1192  0.0930  0.2292
  110SOL    HW2  485   4.149   1.656   0.777 -0.6783 -0.7375  0.7336
  110SOL    HW3  486   4.089   1.793   0.800  0.9432  0.1086 -0.0192
  110SOL    MW4  487   4.087   1.715   0.761  0.1225 -0.0144  0.2630
  111SOL     OW  488   0.040   3.875   0.528  0.3490 -0.4671  0.0958
  111SOL    HW2  489   0.108   3.808   0.516  0.6300 -0.0793 -0.5290
  111SOL    HW3  490   0.055   3.936   0.456  0.3419  0.4763  0.8915
  111SOL    MW4  491   0.051   3.874   0.517  0.3853 -0.2913  0.1184
  112SOL     OW  492   3.411   3.053   0.870 -0.4778  0.3024 -0.0221
  112SOL    HW2  493   3.426   3.080   0.961  1.8150  0.0831 -0.3036
  112SOL    HW3  494   3.475   3.103   0.820  0.0359 -1.5349 -1.2092
  112SOL    MW4  495   3.421   3.064   0.876 -0.1078  0.0312 -0.2159
  113SOL     OW  496   1.607   2.103   0.757 -0.3158 -0.0273  0.2221
  113SOL    HW2  497   1.541   2.033   0.759 -0.0821 -0.2717 -0.4496
  113SOL    HW3  498   1.617   2.124   0.664 -0.6877  1.2006  0.4525
  113SOL    MW4  499   1.600   2.096   0.745 -0.3341  0.1023  0.1639
  114SOL     OW  500   2.702   1.908   0.840 -0.0508  0.2281  0.1150
  114SOL    HW2  501   2.683   1.914   0.933 -0.2460  0.3587  0.0656
  114SOL    HW3  502   2.639   1.966   0.798 -0.2298 -0.1428 -0.1335
  114SOL    MW4  503   2.691   1.916   0.847 -0.1004  0.1962  0.0757
  115SOL     OW  504   4.264   1.291   0.770  0.0897 -0.2714  0.0090
  115SOL    HW2  505   4.179   1.251   0.788  0.5969 -1.8210 -0.8776
  115SOL    HW3  506   4.275   1.283   0.675  1.5895 -0.8895  0.2182
  115SOL    MW4  507   4.255   1.284   0.760  0.3548 -0.5574 -0.0804
  116SOL     OW  508   2.845   0.206   0.494 -0.2795 -0.3458 -0.3829
  116SOL    HW2  509   2.785   0.147   0.447 -0.4223  0.4185 -1.1851
  116SOL    HW3  510   2.840   0.178   0.585 -1.3853 -0.6979 -0.5429
  116SOL    MW4  511   2.836   0.194   0.499 -0.4444 -0.2914 -0.5098
  117SOL     OW  512   3.288   0.146   0.491 -0.5337  0.0561  0.3692
  117SOL    HW2  513   3.213   0.160   0.434  0.6035  1.0376 -0.9367
  117SOL    HW3  514   3.254   0.158   0.580 -1.8161  0.9552 -0.2296
  117SOL    MW4  515   3.274   0.149   0.495 -0.5529  0.3042  0.1179
  118SOL     OW  516   3.789   0.478   0.799 -0.0027  0.0043 -0.6788
  118SOL    HW2  517   3.854   0.426   0.847  0.2451  1.3336  0.4708
  118SOL    HW3  518   3.706   0.457   0.840  0.1235  0.6569 -0.0854
  118SOL    MW4  519   3.787   0.469   0.810  0.0470  0.2658 -0.4489
  119SOL     OW  520   2.963   4.416   0.788 -0.4549 -0.5939 -0.4659
  119SOL    HW2  521   2.971   4.509   0.809  1.6759 -1.0576  1.0314
  119SOL    HW3  522   2.948   4.414   0.694  1.6841  1.2251 -0.8980
  119SOL    MW4  523   2.962   4.428   0.779  0.1087 -0.4148 -0.3253
  120SOL     OW  524   3.918   3.328   0.505  0.1408 -0.2059  0.5626
  120SOL    HW2  525   3.939   3.420   0.492 -0.3238 -0.1799 -0.0397
  120SOL    HW3  526   3.992   3.281   0.467 -0.2052 -0.0962 -0.2586
  120SOL    MW4  527   3.930   3.334   0.498  0.0339 -0.1881  0.3748
  121SOL     OW  528   0.004   2.861   0.496  0.3965  0.3321 -0.2058
  121SOL    HW2  529   0.098   2.844   0.496  0.4309  0.5137  0.8405
  121SOL    HW3  530  -0.004   2.956   0.489  0.3321  0.4562  1.3041
  121SOL    MW4  531   0.015   2.871   0.495  0.3926  0.3726  0.1315
  122SOL     OW  532   3.641   1.730   0.791  0.0997  0.3364 -0.2513
  122SOL    HW2  533   3.628   1.751   0.699  0.5141 -1.0677 -0.6520
  122SOL    HW3  534   3.563   1.680   0.815  0.2816  0.1619 -0.0214
  122SOL    MW4  535   3.629   1.726   0.782  0.1783  0.1281 -0.2739
  123SOL     OW  536   0.943   0.886   0.461 -0.3177  0.1184 -0.0625
  123SOL    HW2  537   0.940   0.876   0.556  0.8200 -0.6196 -0.0914
  123SOL    HW3  538   0.905   0.806   0.427 -1.1356  0.5752 -0.2296
  123SOL    MW4  539   0.938   0.874   0.469 -0.2755  0.0813 -0.0883
  124SOL     OW  540   3.162   0.931   0.768 -0.3364 -0.1196 -0.2092
  124SOL    HW2  541   3.073   0.903   0.790 -1.0266  0.7040 -1.8700
  124SOL    HW3  542   3.166   0.925   0.672  1.2407  0.3246 -0.1898
  124SOL    MW4  543   3.151   0.926   0.758 -0.2193  0.0477 -0.4258
  125SOL     OW  544   1.193   1.505   0.378  0.3316 -0.2156 -0.5015
  125SOL    HW2  545   1.125   1.551   0.427  1.7844  1.4988 -0.0348
  125SOL    HW3  546   1.151   1.482   0.295 -1.3288 -0.7340  0.4581
  125SOL    MW4  547   1.179   1.508   0.373  0.3041 -0.0578 -0.3133
  126SOL     OW  548   3.529   1.352   0.334  0.1412 -0.6682 -0.0087
  126SOL    HW2  549   3.588   1.282   0.362 -0.2278 -1.4550 -1.2017
  126SOL    HW3  550   3.558   1.375   0.246  0.1186  0.5261  0.2913
  126SOL    MW4  551   3.540   1.346   0.326  0.0892 -0.6144 -0.1265
  127SOL     OW  552   2.528   1.449   0.371 -0.0060 -0.1377 -0.0656
  127SOL    HW2  553   2.607   1.503   0.371  0.2457 -0.5061  0.1715
  127SOL    HW3  554   2.463   1.502   0.324  0.2557  0.3465  0.1132
  127SOL    MW4  555   2.529   1.463   0.365  0.0615 -0.1224 -0.0108
  128SOL     OW  556   0.911   3.475   0.865 -0.1010  0.6327 -0.1440
  128SOL    HW2  557   0.834   3.521   0.833 -1.8808 -1.0166  1.6117
  128SOL    HW3  558   0.984   3.510   0.814 -1.9904  2.3332 -1.7189
  128SOL    MW4  559   0.911   3.485   0.854 -0.5851  0.6394 -0.1201
  129SOL     OW  560   2.751   4.287   0.885 -0.0682 -0.3019  0.1978
  129SOL    HW2  561   2.832   4.336   0.869 -1.5551  2.3657  0.6338
  129SOL    HW3  562   2.743   4.285   0.981 -0.9427  0.1831  0.1393
  129SOL    MW4  563   2.761   4.293   0.896 -0.3798  0.1140  0.2476
  130SOL     OW  564   2.543   2.333   0.433  0.1959  0.0754 -0.5814
  130SOL    HW2  565   2.478   2.267   0.457  0.0506  0.1107 -0.8761
  130SOL    HW3  566   2.601   2.338   0.509  0.9419 -1.2881 -1.0373
  130SOL    MW4  567   2.542   2.325   0.446  0.2749 -0.0999 -0.6804
  131SOL     OW  568   1.510   0.658   0.557 -0.1169 -0.1519  0.0139
  131SOL    HW2  569   1.470   0.729   0.607  2.4471  0.5008  1.1921
  131SOL    HW3  570   1.528   0.590   0.622  1.3556 -0.1297 -0.3698
  131SOL    MW4  571   1.507   0.658   0.572  0.4158 -0.0628  0.1187
  132SOL     OW  572   2.953   1.796   0.363  0.4992 -0.1265  0.4390
  132SOL    HW2  573   2.946   1.847   0.282  1.2735 -0.1865  0.3242
  132SOL    HW3  574   2.969   1.862   0.431  0.0077 -0.0897  0.5188
  132SOL    MW4  575   2.954   1.812   0.361  0.5369 -0.1297  0.4344
  133SOL     OW  576   0.415   3.234   0.667  0.3354  0.6073 -0.0084
  133SOL    HW2  577   0.438   3.301   0.731 -1.6887  1.1509  0.1777
  133SOL    HW3  578   0.341   3.188   0.707 -0.2074  0.2225 -1.4528
  133SOL    MW4  579   0.408   3.237   0.681 -0.0033  0.6282 -0.1745
  134SOL     OW  580   0.066   2.455   0.783  0.0197 -0.4383 -0.5228
  134SOL    HW2  581   0.155   2.433   0.810 -0.6985 -2.2714  0.4126
  134SOL    HW3  582   0.053   2.545   0.813  1.7108  0.0334 -1.1122
  134SOL    MW4  583   0.076   2.464   0.790  0.1480 -0.6180 -0.4772
  135SOL     OW  584   2.496   1.201   0.478 -0.4919 -0.1115 -0.3968
  135SOL    HW2  585   2.513   1.287   0.440  1.1752 -1.3262 -2.4936
  135SOL    HW3  586   2.489   1.217   0.572  0.0914  2.2677 -0.7351
  135SOL    MW4  587   2.497   1.214   0.485 -0.1945  0.0422 -0.7181
  136SOL     OW  588   4.077   3.442   0.813 -0.0865  0.4226 -0.1115
  136SOL    HW2  589   4.056   3.440   0.906  1.3022  0.0988  0.2018
  136SOL    HW3  590   4.009   3.497   0.774 -0.6689  0.5631  1.0824
  136SOL    MW4  591   4.065   3.449   0.820  0.0205  0.3982  0.0874
  137SOL     OW  592   2.713   1.179   0.835  0.1926 -0.1829  0.4505
  137SOL    HW2  593   2.625   1.208   0.812  1.0577  0.6047 -2.0357
  137SOL    HW3  594   2.721   1.093   0.795  0.3413 -0.5519  1.2532
  137SOL    MW4  595   2.702   1.171   0.827  0.3264 -0.1278  0.2284
  138SOL     OW  596   1.770   3.798   0.413  0.2087 -0.3924  0.0317
  138SOL    HW2  597   1.722   3.741   0.473  0.2125 -0.3924  0.0346
  138SOL    HW3  598   1.702   3.834   0.356 -0.1402  1.4735  1.5449
  138SOL    MW4  599   1.754   3.795   0.414  0.1632 -0.1462  0.2317
  139SOL     OW  600   1.770   1.385   0.296  0.3255 -0.0005  0.0285
  139SOL    HW2  601   1.801   1.408   0.209 -0.2022  3.0042  0.6013
  139SOL    HW3  602   1.722   1.462   0.326 -0.2355 -1.3099  2.6359
  139SOL    MW4  603   1.768   1.398   0.289  0.1818  0.2233  0.4480
  140SOL     OW  604   3.224   0.412   1.106 -0.2400 -0.1013  0.0174
  140SOL    HW2  605   3.206   0.416   1.013 -0.6404 -1.1555  0.0467
  140SOL    HW3  606   3.198   0.324   1.132 -2.0327  0.8426  1.5216
  140SOL    MW4  607   3.218   0.401   1.097 -0.5291 -0.1158  0.2197
  141SOL     OW  608   0.685   0.727   0.829  0.1601 -0.0586  0.1296
  141SOL    HW2  609   0.671   0.651   0.772  0.3332  0.3221 -0.4208
  141SOL    HW3  610   0.625   0.793   0.795  0.5600  0.3061  0.1300
  141SOL    MW4  611   0.675   0.726   0.817  0.2357  0.0397  0.0570
  142SOL     OW  612   4.106   2.343   0.486 -0.2696  0.1540  0.1841
  142SOL    HW2  613   4.187   2.309   0.448 -0.7823 -1.1878  0.2817
  142SOL    HW3  614   4.092   2.427   0.442 -0.2585 -0.8443 -1.7672
  142SOL    MW4  615   4.115   2.350   0.475 -0.3357 -0.1547 -0.0605
  143SOL     OW  616   1.652   3.591   0.804  0.1104 -0.2954  0.0246
  143SOL    HW2  617   1.741   3.557   0.809 -0.1795 -1.1140 -0.4694
  143SOL    HW3  618   1.634   3.598   0.710  0.4170  1.8769  0.0927
  143SOL    MW4  619   1.662   3.588   0.792  0.1125 -0.1168 -0.0316
  144SOL     OW  620   0.689   1.495   0.407 -0.3124  0.4967 -0.0174
  144SOL    HW2  621   0.639   1.567   0.447 -0.9554  0.8400 -1.4054
  144SOL    HW3  622   0.671   1.503   0.313  0.9319 -0.4810 -0.3472
  144SOL    MW4  623   0.680   1.506   0.400 -0.2331  0.4129 -0.2440
  145SOL     OW  624   4.442   1.155   0.425  0.1080  0.1294  0.1491
  145SOL    HW2  625   4.382   1.227   0.442  0.7126  0.4654  0.8291
  145SOL    HW3  626   4.529   1.192   0.436  0.4336 -0.5212 -0.2094
  145SOL    MW4  627   4.445   1.169   0.428  0.2308  0.0880  0.1915
  146SOL     OW  628   2.543   3.162   0.410 -0.0003  0.6102  0.7706
  146SOL    HW2  629   2.454   3.198   0.411 -0.4639 -0.5104  0.5615
  146SOL    HW3  630   2.531   3.067   0.415  1.1719  0.4204  0.2320
  146SOL    MW4  631   2.530   3.154   0.411  0.0930  0.4373  0.6719
  147SOL     OW  632   0.727   2.057   0.718  0.2147  0.0484 -0.0799
  147SOL    HW2  633   0.663   2.015   0.776 -0.6408 -1.0489 -1.7480
  147SOL    HW3  634   0.746   2.141   0.758  0.8164 -1.3013  2.5846
  147SOL    MW4  635   0.721   2.062   0.731  0.1813 -0.2744  0.0516
  148SOL     OW  636   0.687   3.604   0.749 -0.3529  0.1743 -0.3341
  148SOL    HW2  637   0.621   3.544   0.785 -0.6314  1.2766  1.0405
  148SOL    HW3  638   0.669   3.605   0.655  0.0228 -2.3326 -0.4634
  148SOL    MW4  639   0.676   3.596   0.741 -0.3400 -0.0110 -0.1698
  149SOL     OW  640   4.148   3.998   0.486 -0.0447  0.1547  0.7382
  149SOL    HW2  641   4.210   4.064   0.454 -0.1188 -0.0334  0.2080
  149SOL    HW3  642   4.198   3.916   0.485 -0.3565 -0.0252  0.1552
  149SOL    MW4  643   4.163   3.996   0.482 -0.0958  0.1063  0.5913
  150SOL     OW  644   1.007   4.059   0.174 -0.5123 -0.2429 -0.1258
  150SOL    HW2  645   1.011   4.150   0.203 -2.3624 -0.1281 -0.1589
  150SOL    HW3  646   1.066   4.012   0.232  0.4348  0.9741 -0.0924
  150SOL    MW4  647   1.015   4.064   0.185 -0.6315 -0.0672 -0.1258
  151SOL     OW  648   0.738   1.258   0.804  0.2140 -0.4585 -0.1895
  151SOL    HW2  649   0.732   1.260   0.708  1.3502  0.5060 -0.2579
  151SOL    HW3  650   0.826   1.224   0.822  0.8424  1.3954  0.4458
  151SOL    MW4  651   0.749   1.254   0.793  0.4469 -0.0867 -0.1147
  152SOL     OW  652   0.009   3.503   0.807 -0.3258 -0.1868  0.1116
  152SOL    HW2  653  -0.073   3.546   0.783  0.0590 -0.6481 -2.2227
  152SOL    HW3  654  -0.011   3.409   0.801  0.1835 -0.3016  0.1879
  152SOL    MW4  655  -0.004   3.496   0.803 -0.2079 -0.2625 -0.1864
  153SOL     OW  656   2.047   2.855   0.731 -0.1308  0.0027 -0.1214
  153SOL    HW2  657   2.034   2.888   0.642  0.5982  0.8660  0.0840
  153SOL    HW3  658   1.983   2.785   0.740 -0.1565 -0.1467 -1.3565
  153SOL    MW4  659   2.037   2.850   0.720 -0.0379  0.0970 -0.2573
  154SOL     OW  660   3.676   2.709   0.867  0.4396  0.1243 -0.3526
  154SOL    HW2  661   3.649   2.624   0.832  1.4598  0.1046 -1.0905
  154SOL    HW3  662   3.655   2.703   0.961  0.8639 -1.0828 -0.3231
  154SOL    MW4  663   3.670   2.697   0.875  0.6301 -0.0377 -0.4460
  155SOL     OW  664   3.060   0.127   0.325  0.0189 -0.0103 -0.4119
  155SOL    HW2  665   3.028   0.158   0.240  0.4572 -0.5367 -0.7685
  155SOL    HW3  666   2.998   0.164   0.388  0.8408  2.0991 -0.7689
  155SOL    MW4  667   3.048   0.136   0.322  0.1853  0.1985 -0.5060
  156SOL     OW  668   2.249   0.392   0.813 -0.4522  0.7483 -0.3708
  156SOL    HW2  669   2.285   0.308   0.787 -2.1867  0.2522 -1.2391
  156SOL    HW3  670   2.318   0.455   0.794  0.0896 -0.2288 -1.6440
  156SOL    MW4  671   2.263   0.389   0.807 -0.6094  0.5540 -0.6533
  157SOL     OW  672   2.911   1.208   0.304 -0.2143 -0.2100  0.6827
  157SOL    HW2  673   2.861   1.272   0.253  0.3383 -1.5163 -1.5478
  157SOL    HW3  674   2.977   1.260   0.349 -0.7830  0.9779  0.1680
  157SOL    MW4  675   2.913   1.224   0.303 -0.2167 -0.2257  0.3205
  158SOL     OW  676   0.915   0.853   0.736 -0.4957 -0.0099  0.1077
  158SOL    HW2  677   0.996   0.811   0.763 -0.5185  1.2597  2.2833
  158SOL    HW3  678   0.846   0.802   0.780 -0.6945  0.6542  0.5626
  158SOL    MW4  679   0.916   0.841   0.746 -0.5250  0.2453  0.4548
  159SOL     OW  680   4.233   0.489   0.751 -0.2277 -0.2723  0.1052
  159SOL    HW2  681   4.321   0.453   0.763  0.2258  0.4641 -0.9846
  159SOL    HW3  682   4.225   0.502   0.656 -0.7296  1.6325  0.3971
  159SOL    MW4  683   4.243   0.486   0.740 -0.2346  0.0762  0.0000
  160SOL     OW  684   0.952   1.099   0.859 -0.3081 -0.4241  0.3213
  160SOL    HW2  685   1.037   1.129   0.828  0.1694 -0.2079  1.7693
  160SOL    HW3  686   0.936   1.018   0.812  0.3561 -0.0790 -0.5129
  160SOL    MW4  687   0.961   1.093   0.849 -0.1575 -0.3501  0.4023
  161SOL     OW  688   0.390   0.674   0.414  0.1023  0.0621 -0.0758
  161SOL    HW2  689   0.367   0.677   0.321  1.8149  1.3228 -0.4922
  161SOL    HW3  690   0.365   0.760   0.447 -1.6497 -0.8241  0.9289
  161SOL    MW4  691   0.384   0.686   0.406  0.0971  0.1115  0.0018
  162SOL     OW  692   0.614   4.198   0.358 -0.4388 -0.1434  0.2099
  162SOL    HW2  693   0.663   4.120   0.329 -0.6969 -0.8632  1.6450
  162SOL    HW3  694   0.536   4.162   0.401 -0.5673  0.9087  0.8578
  162SOL    MW4  695   0.610   4.183   0.360 -0.4897 -0.0997  0.4847
  163SOL     OW  696   0.011   0.909   0.743  0.1060  0.8814 -0.2636
  163SOL    HW2  697  -0.008   0.988   0.794 -0.1406  0.9028 -0.3837
  163SOL    HW3  698  -0.059   0.848   0.767  0.8342  0.3586  0.5406
  163SOL    MW4  699  -0.001   0.912   0.753  0.1698  0.8152 -0.1733
  164SOL     OW  700   3.422   4.382   0.505  0.2006 -0.0315 -0.4326
  164SOL    HW2  701   3.342   4.330   0.511  0.0268  0.1894 -0.7864
  164SOL    HW3  702   3.491   4.318   0.488 -0.0214 -0.1453 -0.9199
  164SOL    MW4  703   3.420   4.367   0.503  0.1483 -0.0167 -0.5435
  165SOL     OW  704   0.252   3.606   0.752  0.0309 -0.1246  0.1148
  165SOL    HW2  705   0.250   3.641   0.663  0.4024  0.8791  0.4942
  165SOL    HW3  706   0.170   3.557   0.761  0.1557 -0.5330 -0.8918
  165SOL    MW4  707   0.241   3.604   0.742  0.0964 -0.0460  0.0321
  166SOL     OW  708   3.396   0.020   0.899 -0.3703 -0.2299  0.4412
  166SOL    HW2  709   3.361   0.009   0.988  0.1764 -0.4150  0.6361
  166SOL    HW3  710   3.407  -0.069   0.866 -1.3432 -0.1501 -0.1244
  166SOL    MW4  711   3.392   0.007   0.907 -0.4263 -0.2438  0.3923
  167SOL     OW  712   0.937   2.439   0.431 -0.0963  0.4811 -0.1397
  167SOL    HW2  713   0.901   2.351   0.441  1.5124 -0.2987 -0.9511
  167SOL    HW3  714   0.930   2.478   0.518  1.6983 -1.4658  0.9349
  167SOL    MW4  715   0.931   2.432   0.443  0.3527  0.1216 -0.1050
  168SOL     OW  716   1.558   0.515   0.788 -0.6929  0.1745  0.2775
  168SOL    HW2  717   1.633   0.459   0.809 -1.0792 -0.3275  0.3418
  168SOL    HW3  718   1.482   0.461   0.808 -1.0795  0.9770  1.0000
  168SOL    MW4  719   1.558   0.500   0.793 -0.7949  0.2142  0.3814
  169SOL     OW  720   0.431   1.217   0.419  0.1807  0.0461  0.0747
  169SOL    HW2  721   0.466   1.196   0.332  0.6609 -1.1313  0.5415
  169SOL    HW3  722   0.509   1.227   0.474 -0.1545 -1.0056  0.7635
  169SOL    MW4  723   0.446   1.215   0.415  0.1999 -0.2480  0.2272
  170SOL     OW  724   0.878   0.609   0.374 -0.1635  0.0055  0.1525
  170SOL    HW2  725   0.925   0.527   0.389  0.3038 -0.2474 -2.4681
  170SOL    HW3  726   0.786   0.586   0.388  0.0483 -0.7253  0.3795
  170SOL    MW4  727   0.872   0.595   0.378 -0.0740 -0.1243 -0.1633
  171SOL     OW  728   2.015   4.394   0.664 -0.3917  0.1594 -0.0359
  171SOL    HW2  729   2.103   4.378   0.697 -0.9576 -0.2877  1.2578
  171SOL    HW3  730   2.013   4.350   0.579  1.2659  1.8389 -0.9856
  171SOL    MW4  731   2.026   4.386   0.657 -0.2480  0.3223  0.0095
  172SOL     OW  732   2.753   4.213   0.401 -0.3702 -0.1327 -0.3701
  172SOL    HW2  733   2.810   4.276   0.446 -0.8621  0.4697 -0.5924
  172SOL    HW3  734   2.664   4.239   0.425 -0.5462 -1.4735  0.5079
  172SOL    MW4  735   2.749   4.224   0.410 -0.4585 -0.2298 -0.2836
  173SOL     OW  736   0.990   1.732   0.264 -0.5067 -0.3956 -0.2614
  173SOL    HW2  737   0.911   1.735   0.211 -0.6350 -0.6069 -0.0806
  173SOL    HW3  738   0.962   1.695   0.348 -0.7449  1.8208  0.6893
  173SOL    MW4  739   0.976   1.728   0.268 -0.5550 -0.1310 -0.1121
  174SOL     OW  740   2.485   0.800   0.835  0.0403  0.1087  0.4623
  174SOL    HW2  741   2.404   0.841   0.805 -0.5947 -0.8811  0.8270
  174SOL    HW3  742   2.554   0.854   0.796 -0.7791  2.0316  1.5986
  174SOL    MW4  743   2.483   0.813   0.826 -0.1514  0.2318  0.6603
  175SOL     OW  744   1.851   0.091   0.845  0.1932  0.4844  0.1992
  175SOL    HW2  745   1.880   0.078   0.755 -1.1368  1.0979 -0.3288
  175SOL    HW3  746   1.759   0.064   0.845  0.2006  0.4337  1.3891
  175SOL    MW4  747   1.842   0.086   0.833  0.0186  0.5587  0.2865
  176SOL     OW  748   2.746   0.587   0.174  0.3440 -0.2629 -0.5105
  176SOL    HW2  749   2.745   0.527   0.248  0.0084  0.5929  0.1925
  176SOL    HW3  750   2.691   0.545   0.108 -1.9524  0.4255  0.9070
  176SOL    MW4  751   2.739   0.574   0.175 -0.0031 -0.0591 -0.2307
  177SOL     OW  752   2.506   3.746   0.474  0.2092 -0.1550  0.2617
  177SOL    HW2  753   2.553   3.829   0.468  0.4208 -0.3955 -1.9707
  177SOL    HW3  754   2.509   3.723   0.566  2.6217  0.9229  0.4871
  177SOL    MW4  755   2.513   3.754   0.485  0.5553 -0.0446 -0.0031
  178SOL     OW  756   3.831   4.666   0.734  0.1015  0.2252 -0.3226
  178SOL    HW2  757   3.924   4.687   0.744 -0.1211  1.7949 -1.3998
  178SOL    HW3  758   3.813   4.681   0.641 -1.3633  0.5434  0.0006
  178SOL    MW4  759   3.841   4.671   0.723 -0.1214  0.4740 -0.4221
  179SOL     OW  760   2.971   3.894   0.497 -0.1408  0.0026  0.1946
  179SOL    HW2  761   2.878   3.882   0.513  0.3233 -0.5841  2.5774
  179SOL    HW3  762   3.005   3.805   0.487 -0.0245  0.2582 -1.9446
  179SOL    MW4  763   2.964   3.880   0.497 -0.0641 -0.0408  0.2267
  180SOL     OW  764   2.289   4.047   0.731  0.4116 -0.0785 -0.3518
  180SOL    HW2  765   2.215   3.988   0.746  1.0987 -0.5076  1.4889
  180SOL    HW3  766   2.288   4.063   0.637 -2.2590  0.2410 -0.3094
  180SOL    MW4  767   2.279   4.042   0.721  0.1500 -0.0935 -0.1034
  181SOL     OW  768   2.001   0.523   0.779 -0.0836 -0.1129  0.5777
  181SOL    HW2  769   2.078   0.466   0.789  1.2225  1.4534 -0.3101
  181SOL    HW3  770   1.995   0.539   0.685 -1.3331  0.0199  0.6708
  181SOL    MW4  771   2.011   0.518   0.768 -0.0763  0.1112  0.4728
  182SOL     OW  772   0.648   3.119   0.816 -0.0470 -0.5618 -0.6787
  182SOL    HW2  773   0.725   3.157   0.773 -0.6122  2.8243  1.1432
  182SOL    HW3  774   0.574   3.145   0.761 -0.5607  2.1060  1.1932
  182SOL    MW4  775   0.648   3.127   0.803 -0.1894  0.2370 -0.1913
  183SOL     OW  776   0.523   4.419   0.515  0.1392  0.4566 -0.1497
  183SOL    HW2  777   0.573   4.362   0.456  0.8715 -0.0185  0.9319
  183SOL    HW3  778   0.432   4.408   0.487  0.6899  1.9324 -2.6641
  183SOL    MW4  779   0.517   4.410   0.503  0.3085  0.5889 -0.3387
  184SOL     OW  780   2.895   3.177   0.430  0.2142 -0.1227 -0.0533
  184SOL    HW2  781   2.873   3.085   0.448 -1.7351  0.3575  0.1474
  184SOL    HW3  782   2.985   3.186   0.460  0.5673 -2.0598 -0.4038
  184SOL    MW4  783   2.904   3.166   0.436  0.0038 -0.3147 -0.0730
  185SOL     OW  784   3.896   0.473   0.528 -0.0493 -0.3938  0.2915
  185SOL    HW2  785   3.893   0.489   0.622  0.7270  0.1303  0.2289
  185SOL    HW3  786   3.822   0.414   0.512  0.7086 -1.7002  1.4611
  185SOL    MW4  787   3.886   0.467   0.538  0.1531 -0.4970  0.4375
  186SOL     OW  788   2.249   0.906   0.733 -0.2636  0.5228  0.2795
  186SOL    HW2  789   2.220   0.985   0.778 -0.4498  1.2526 -1.0793
  186SOL    HW3  790   2.248   0.930   0.640  0.4569 -0.8236 -0.0901
  186SOL    MW4  791   2.245   0.920   0.726 -0.1931  0.4415  0.0514
  187SOL     OW  792   1.805   1.943   0.850  0.5186 -0.3291  0.2678
  187SOL    HW2  793   1.889   1.981   0.825  0.5825 -0.6934 -0.0820
  187SOL    HW3  794   1.740   2.009   0.826  0.7412  0.1617  0.9969
  187SOL    MW4  795   1.808   1.957   0.844  0.5563 -0.3124  0.3178
  188SOL     OW  796   2.702   0.010   0.320  0.4951 -0.9337  0.3105
  188SOL    HW2  797   2.611  -0.002   0.347  0.1251  0.6349 -0.1687
  188SOL    HW3  798   2.696   0.056   0.236  1.7443 -0.0749  0.6808
  188SOL    MW4  799   2.689   0.015   0.312  0.6113 -0.6134  0.2962
  189SOL     OW  800   2.647   2.803   0.832 -0.2126  0.0163  0.4283
  189SOL    HW2  801   2.683   2.783   0.918  0.1007 -0.8661  0.0878
  189SOL    HW3  802   2.593   2.727   0.810 -1.0361  0.6426  0.2506
  189SOL    MW4  803   2.644   2.791   0.840 -0.2799 -0.0174  0.3600
  190SOL     OW  804   0.616   0.517   0.454  0.0481 -0.5438  0.0196
  190SOL    HW2  805   0.543   0.575   0.436  0.0245 -0.6115 -0.1077
  190SOL    HW3  806   0.609   0.497   0.547  0.7574  0.6100  0.3240
  190SOL    MW4  807   0.606   0.522   0.464  0.1385 -0.4005  0.0430
  191SOL     OW  808   2.512   0.379   0.028 -0.2141 -0.0157 -0.2645
  191SOL    HW2  809   2.456   0.397   0.104  0.8220  0.5802  0.3632
  191SOL    HW3  810   2.451   0.351  -0.041 -1.3601  1.4305  0.1569
  191SOL    MW4  811   2.497   0.377   0.029 -0.2286  0.2537 -0.1262
  192SOL     OW  812   3.834   4.382   0.741  0.2241  0.3924 -0.2272
  192SOL    HW2  813   3.850   4.343   0.655 -1.6564 -0.4191 -0.2444
  192SOL    HW3  814   3.839   4.476   0.726  1.5121  0.2253 -0.8937
  192SOL    MW4  815   3.836   4.389   0.727  0.1459  0.2632 -0.3174
  193SOL     OW  816   3.402   0.487   0.740  0.3900  0.0276  0.1402
  193SOL    HW2  817   3.439   0.445   0.818 -1.5684 -0.2472  0.9427
  193SOL    HW3  818   3.404   0.581   0.761 -0.5210 -0.0739  0.7080
  193SOL    MW4  819   3.407   0.494   0.753  0.0112 -0.0221  0.3210
  194SOL     OW  820   2.071   3.110   0.847 -0.6308 -0.0169 -0.4695
  194SOL    HW2  821   2.073   3.021   0.815 -0.3542 -0.4734  0.7692
  194SOL    HW3  822   1.981   3.139   0.834 -0.5778 -0.2568 -1.4223
  194SOL    MW4  823   2.059   3.102   0.841 -0.5875 -0.1090 -0.4318
  195SOL     OW  824   0.303   2.342   0.855  0.1746  0.7062  0.2745
  195SOL    HW2  825   0.278   2.330   0.947 -1.7959  1.7962 -0.1019
  195SOL    HW3  826   0.299   2.254   0.818  0.7466  0.2918  1.1758
  195SOL    MW4  827   0.299   2.329   0.862 -0.0099  0.7954  0.3438
  196SOL     OW  828   2.954   1.315   0.723  0.3536  0.0763 -0.1187
  196SOL    HW2  829   2.871   1.292   0.765 -0.3479 -1.6788 -2.3778
  196SOL    HW3  830   3.017   1.255   0.762  0.3631  0.7256  0.8692
  196SOL    MW4  831   2.951   1.304   0.734  0.2620 -0.0694 -0.2865
  197SOL     OW  832   2.699   3.971   0.520 -0.6203  0.2737  0.0110
  197SOL    HW2  833   2.721   4.006   0.607  2.5631 -2.1845  0.2732
  197SOL    HW3  834   2.721   4.041   0.460 -0.6355  1.1551  1.0117
  197SOL    MW4  835   2.705   3.985   0.524 -0.2022  0.0656  0.1776
  198SOL     OW  836   3.141   0.654   0.239  0.1156  0.2003  0.2513
  198SOL    HW2  837   3.233   0.639   0.260 -0.0830 -1.7864 -0.1974
  198SOL    HW3  838   3.137   0.747   0.216  2.0024  0.3142  0.2761
  198SOL    MW4  839   3.152   0.664   0.239  0.3383 -0.0468  0.1954
  199SOL     OW  840   1.926   4.423   0.245  0.1743 -0.0998  0.2249
  199SOL    HW2  841   2.011   4.467   0.237  0.0532  0.4185  1.5401
  199SOL    HW3  842   1.871   4.487   0.289 -0.9270 -0.4064 -0.7047
  199SOL    MW4  843   1.930   4.437   0.250  0.0129 -0.0720  0.2758
  200SOL     OW  844   4.018   3.167   0.736 -0.2292  0.4032  0.1466
  200SOL    HW2  845   4.044   3.149   0.646 -0.7844  1.8237 -0.3256
  200SOL    HW3  846   4.040   3.260   0.749 -0.0692  0.1889  1.5029
  200SOL    MW4  847   4.024   3.177   0.726 -0.2813  0.5624  0.2632
  201SOL     OW  848   1.798   1.128   0.896 -0.0872 -0.2414 -0.2038
  201SOL    HW2  849   1.729   1.160   0.838  0.3665  0.2148 -0.4987
  201SOL    HW3  850   1.821   1.042   0.861 -0.1434 -0.1708 -0.4132
  201SOL    MW4  851   1.792   1.121   0.884 -0.0347 -0.1719 -0.2704
  202SOL     OW  852   1.310   0.592   0.382  0.1197 -0.3414 -0.0253
  202SOL    HW2  853   1.381   0.611   0.443 -0.7697  1.6222  0.4350
  202SOL    HW3  854   1.277   0.678   0.355 -0.8381 -1.2039 -1.7030
  202SOL    MW4  855   1.315   0.606   0.387 -0.1239 -0.1962 -0.1859
  203SOL     OW  856   0.900   0.128   0.758 -0.1712 -0.1227 -0.1902
  203SOL    HW2  857   0.888   0.143   0.664 -0.4908 -1.6147 -0.3996
  203SOL    HW3  858   0.825   0.075   0.784 -0.0214  0.1737  0.8943
  203SOL    MW4  859   0.889   0.123   0.749 -0.1936 -0.2804 -0.0748
  204SOL     OW  860   1.295   4.129   0.491 -0.2710 -0.5140  0.3256
  204SOL    HW2  861   1.384   4.133   0.455 -0.4101 -1.4442 -0.1337
  204SOL    HW3  862   1.268   4.220   0.499  0.0492 -0.2715 -1.2198
  204SOL    MW4  863   1.303   4.141   0.487 -0.2471 -0.6046  0.0611
  205SOL     OW  864   3.821   0.712   0.403  0.0122 -0.0639  0.2031
  205SOL    HW2  865   3.897   0.770   0.392  0.1021  0.2813  2.3873
  205SOL    HW3  866   3.857   0.634   0.446 -0.4126 -1.0795 -1.2294
  205SOL    MW4  867   3.836   0.709   0.407 -0.0319 -0.1523  0.3023
  206SOL     OW  868   0.221   1.950   0.328 -0.0850 -0.2494  0.4687
  206SOL    HW2  869   0.169   1.907   0.396  0.1641  1.1356  1.5733
  206SOL    HW3  870   0.169   2.026   0.303  0.6879  0.2809  0.4569
  206SOL    MW4  871   0.207   1.955   0.334  0.0499  0.0033  0.6129
  207SOL     OW  872   3.576   1.138   1.146  0.3555  0.3831 -0.0563
  207SOL    HW2  873   3.650   1.191   1.177  0.2281 -0.1431  1.1501
  207SOL    HW3  874   3.499   1.179   1.185  0.1280  0.1018 -0.2063
  207SOL    MW4  875   3.575   1.151   1.155  0.3088  0.2766  0.0830
  208SOL     OW  876   3.422   3.319   0.392  0.2494 -0.5868 -0.3069
  208SOL    HW2  877   3.343   3.280   0.428  0.1060 -0.5000 -0.5257
  208SOL    HW3  878   3.493   3.261   0.421 -0.0927 -1.6810 -1.6154
  208SOL    MW4  879   3.421   3.306   0.400  0.1853 -0.7198 -0.5084
  209SOL     OW  880   4.047   3.574   0.412  0.2474 -0.3992 -0.0187
  209SOL    HW2  881   4.087   3.558   0.326 -0.1902  0.7904 -0.4488
  209SOL    HW3  882   4.109   3.633   0.456  0.1820 -0.5362  0.2521
  209SOL    MW4  883   4.061   3.580   0.406  0.1807 -0.2604 -0.0398
  210SOL     OW  884   0.031   2.393   0.536 -0.6475  0.1454 -0.7488
  210SOL    HW2  885  -0.013   2.470   0.499  1.4661  0.9865 -1.5862
  210SOL    HW3  886   0.052   2.418   0.626  1.0903  1.0387 -1.3723
  210SOL    MW4  887   0.028   2.406   0.543 -0.1394  0.3741 -0.9415
  211SOL     OW  888   3.150   0.415   0.837 -0.0984  0.4841  0.5154
  211SOL    HW2  889   3.233   0.442   0.800  0.3833 -0.1981  1.0771
  211SOL    HW3  890   3.145   0.321   0.819 -0.2624  0.3187  1.3838
  211SOL    MW4  891   3.160   0.406   0.830 -0.0563  0.3723  0.7040
  212SOL     OW  892   3.761   1.208   0.417  0.0764 -0.2295  0.1298
  212SOL    HW2  893   3.790   1.236   0.503  1.6100  1.1423 -0.8051
  212SOL    HW3  894   3.746   1.114   0.426  1.8104 -0.4007  1.4963
  212SOL    MW4  895   3.763   1.199   0.429  0.5076 -0.0710  0.1868
  213SOL     OW  896   1.747   0.695   0.374  0.3208 -0.3505  0.3013
  213SOL    HW2  897   1.673   0.692   0.435  0.3798  0.8752  0.4441
  213SOL    HW3  898   1.822   0.665   0.426  0.5671  1.6469  1.1621
  213SOL    MW4  899   1.747   0.691   0.389  0.3611  0.0748  0.4337
  214SOL     OW  900   1.810   4.048   0.498 -0.0102 -0.1617  0.0826
  214SOL    HW2  901   1.792   4.032   0.591 -0.9400  0.9502  0.1058
  214SOL    HW3  902   1.805   3.961   0.458  0.9354 -0.7293  1.1484
  214SOL    MW4  903   1.807   4.034   0.505 -0.0081 -0.0901  0.2264
  215SOL     OW  904   2.919   0.838   0.847 -0.8537  0.0926 -0.0132
  215SOL    HW2  905   2.922   0.823   0.941  2.2674  0.7393  0.0680
  215SOL    HW3  906   2.926   0.750   0.809 -0.5999 -0.0625  0.3852
  215SOL    MW4  907   2.921   0.824   0.854 -0.4082  0.1575  0.0501
  216SOL     OW  908   3.658   0.555   0.208 -0.1692 -0.0415  0.5439
  216SOL    HW2  909   3.725   0.595   0.262 -0.2968 -0.5080  1.0487
  216SOL    HW3  910   3.683   0.576   0.118  2.2423 -2.6491  0.5453
  216SOL    MW4  911   3.670   0.563   0.203  0.1323 -0.4471  0.6107
  217SOL     OW  912   2.262   4.320   0.803  0.2549 -0.0119  0.3099
  217SOL    HW2  913   2.252   4.225   0.796  0.2566 -0.0993  1.3698
  217SOL    HW3  914   2.346   4.339   0.760 -0.8121 -0.1943 -1.9419
  217SOL    MW4  915   2.272   4.310   0.796  0.1142 -0.0477  0.1526
  218SOL     OW  916   2.168   2.196   0.445 -0.5407 -0.0032  0.0244
  218SOL    HW2  917   2.087   2.147   0.463 -0.0164 -0.3332  1.5983
  218SOL    HW3  918   2.159   2.224   0.354 -2.6224  0.3385  0.3053
  218SOL    MW4  919   2.156   2.193   0.435 -0.7463 -0.0017  0.2691
  219SOL     OW  920   2.334   3.487   0.836  0.0824  0.3539  0.5728
  219SOL    HW2  921   2.255   3.532   0.809  1.4779  1.5846 -1.6073
  219SOL    HW3  922   2.322   3.397   0.806  0.5864  1.1471 -2.1589
  219SOL    MW4  923   2.322   3.481   0.829  0.3328  0.6208 -0.0752
  220SOL     OW  924   1.830   3.288   0.498 -0.1870  0.2309 -0.5739
  220SOL    HW2  925   1.823   3.213   0.439  0.9295 -0.5078  0.2118
  220SOL    HW3  926   1.820   3.251   0.586  0.7409  0.9400 -0.1596
  220SOL    MW4  927   1.828   3.274   0.502  0.0827  0.2272 -0.4156
  221SOL     OW  928   0.801   1.289   0.134 -0.4897 -0.3656 -0.5754
  221SOL    HW2  929   0.838   1.249   0.055  1.2334 -0.6623  0.3492
  221SOL    HW3  930   0.842   1.241   0.206 -1.7380  0.1710  0.5088
  221SOL    MW4  931   0.811   1.277   0.133 -0.4271 -0.3339 -0.3104
  222SOL     OW  932   0.420   4.280   0.836  0.2843  0.1614  0.0942
  222SOL    HW2  933   0.505   4.317   0.814 -1.1113  3.2785 -0.3572
  222SOL    HW3  934   0.425   4.263   0.930  1.1884  0.9565  0.2008
  222SOL    MW4  935   0.432   4.283   0.845  0.2195  0.6776  0.0488
  223SOL     OW  936   2.202   0.072   0.532 -0.0615 -0.3282  0.4344
  223SOL    HW2  937   2.201   0.103   0.441  1.1299 -0.6207  0.3137
  223SOL    HW3  938   2.112   0.041   0.548 -0.1056 -0.8987 -0.8601
  223SOL    MW4  939   2.190   0.072   0.522  0.0896 -0.4421  0.2477
  224SOL     OW  940   0.895   2.731   0.398 -0.1523 -0.0856  0.1843
  224SOL    HW2  941   0.818   2.755   0.450  0.6202 -0.7084  1.6464
  224SOL    HW3  942   0.886   2.637   0.382  0.4842 -0.2323  0.6675
  224SOL    MW4  943   0.884   2.722   0.403  0.0336 -0.1869  0.4410
  225SOL     OW  944   3.001   3.901   0.816  0.2123  0.8332  0.1525
  225SOL    HW2  945   3.008   3.903   0.912  0.0258  2.5308  0.1441
  225SOL    HW3  946   2.925   3.956   0.797 -0.0710  0.0651 -0.9395
  225SOL    MW4  947   2.992   3.909   0.826  0.1500  0.9558  0.0073
  226SOL     OW  948   3.379   2.114   0.769  0.1371 -0.4315  0.6870
  226SOL    HW2  949   3.309   2.059   0.804 -1.1032  0.2191 -0.7101
  226SOL    HW3  950   3.369   2.197   0.815 -0.6814 -0.0047 -0.2225
  226SOL    MW4  951   3.368   2.118   0.780 -0.1349 -0.2894  0.3827
  227SOL     OW  952   3.118   3.581   0.528 -0.2324 -0.6536  0.2889
  227SOL    HW2  953   3.115   3.602   0.621 -1.2071  1.2651 -0.1617
  227SOL    HW3  954   3.207   3.603   0.501 -0.1923 -0.4556  0.5831
  227SOL    MW4  955   3.130   3.586   0.537 -0.3555 -0.3743  0.2682
  228SOL     OW  956   1.717   4.582   0.419 -0.4210 -0.1130 -0.6367
  228SOL    HW2  957   1.684   4.673   0.420 -0.8195 -0.2603 -0.2866
  228SOL    HW3  958   1.643   4.530   0.449  0.2751 -0.4124  0.5869
  228SOL    MW4  959   1.703   4.587   0.423 -0.3817 -0.1721 -0.4290
  229SOL     OW  960   0.051   1.791   0.493  0.0751 -0.1082 -0.4828
  229SOL    HW2  961  -0.027   1.845   0.484 -0.0464  0.5335  3.5354
  229SOL    HW3  962   0.023   1.704   0.464 -1.6586  0.4717 -0.6289
  229SOL    MW4  963   0.037   1.786   0.488 -0.1697  0.0530  0.0281
  230SOL     OW  964   2.684   0.146   0.086  0.3798  0.0308  0.0040
  230SOL    HW2  965   2.773   0.169   0.059  0.3944  0.1674  0.1638
  230SOL    HW3  966   2.629   0.211   0.043  0.3311 -0.2283 -0.3246
  230SOL    MW4  967   2.689   0.158   0.077  0.3755  0.0146 -0.0183
  231SOL     OW  968   3.293   2.821   0.790  0.0247  0.2676 -0.3657
  231SOL    HW2  969   3.335   2.815   0.705 -0.4756  2.0570 -0.7685
  231SOL    HW3  970   3.333   2.897   0.831 -0.5869  0.1289  0.5082
  231SOL    MW4  971   3.304   2.830   0.784 -0.1221  0.4854 -0.3035
  232SOL     OW  972   1.690   2.436   0.498 -0.4177 -0.1530  0.5979
  232SOL    HW2  973   1.608   2.473   0.466  0.9071  1.4382 -1.0025
  232SOL    HW3  974   1.755   2.504   0.484  1.1914 -1.3575  1.9464
  232SOL    MW4  975   1.687   2.449   0.492 -0.0305 -0.1020  0.5646
  233SOL     OW  976   0.557   1.712   0.515 -0.5230  0.3618 -0.1041
  233SOL    HW2  977   0.479   1.712   0.460 -0.3953 -0.0835 -0.2829
  233SOL    HW3  978   0.523   1.714   0.605 -0.7421  0.0536 -0.1796
  233SOL    MW4  979   0.542   1.713   0.520 -0.5351  0.2624 -0.1376
  234SOL     OW  980   0.654   3.887   1.139 -0.0399 -0.2563  0.3815
  234SOL    HW2  981   0.643   3.882   1.044 -0.7344 -1.1970  0.5018
  234SOL    HW3  982   0.586   3.948   1.168  1.9710  2.2543 -0.0083
  234SOL    MW4  983   0.644   3.894   1.130  0.1337 -0.0491  0.3461
  235SOL     OW  984   2.065   3.471   0.489 -0.3166  0.5900 -0.2653
  235SOL    HW2  985   2.138   3.419   0.457  0.1307  1.2298 -0.2951
  235SOL    HW3  986   1.989   3.414   0.480  0.3090 -0.4062  0.6170
  235SOL    MW4  987   2.064   3.457   0.484 -0.1752  0.5429 -0.1528
  236SOL     OW  988   1.175   1.258   0.799 -0.2505 -0.6626 -0.2345
  236SOL    HW2  989   1.248   1.207   0.833  0.5544  0.3814 -0.3668
  236SOL    HW3  990   1.201   1.349   0.814 -0.5007 -0.2147 -2.3520
  236SOL    MW4  991   1.188   1.264   0.806 -0.1774 -0.4658 -0.5313
  237SOL     OW  992   3.148   3.278   0.535 -0.7500  0.2901 -0.1097
  237SOL    HW2  993   3.134   3.267   0.629 -0.1873 -0.8245 -0.1476
  237SOL    HW3  994   3.146   3.373   0.522 -4.4374  0.3349  0.4466
  237SOL    MW4  995   3.146   3.289   0.546 -1.1623  0.1490 -0.0413
  238SOL     OW  996   2.288   2.750   0.846  0.2617  0.5006 -0.1670
  238SOL    HW2  997   2.216   2.793   0.798  0.8599  1.5853 -0.0937
  238SOL    HW3  998   2.262   2.756   0.938 -0.5759 -1.0141 -0.2793
  238SOL    MW4  999   2.275   2.757   0.851  0.2301  0.4439 -0.1721
  239SOL     OW 1000   2.279   3.288   0.432 -0.0177 -0.1779  0.0403
  239SOL    HW2 1001   2.238   3.213   0.388 -1.6643  1.7173 -1.7735
  239SOL    HW3 1002   2.284   3.263   0.524 -2.7080 -1.5933 -0.1517
  239SOL    MW4 1003   2.274   3.275   0.438 -0.5898 -0.1147 -0.2243
  240SOL     OW 1004   1.103   0.020   0.492 -0.1668 -0.2394 -0.4926
  240SOL    HW2 1005   1.178   0.079   0.500 -0.4791  0.0377  0.5582
  240SOL    HW3 1006   1.142  -0.068   0.493  0.1425 -0.1010  0.2100
  240SOL    MW4 1007   1.118   0.016   0.493 -0.1671 -0.1845 -0.2613
  241SOL     OW 1008   2.501   4.311   0.472 -0.2332 -0.3547  0.1726
  241SOL    HW2 1009   2.505   4.333   0.565 -1.3133 -1.7966  0.5812
  241SOL    HW3 1010   2.415   4.271   0.460 -0.0677 -0.2897 -1.4348
  241SOL    MW4 1011   2.490   4.309   0.482 -0.3541 -0.5364  0.0145
  242SOL     OW 1012   1.796   0.365   0.863  0.2542 -0.1582  0.3019
  242SOL    HW2 1013   1.830   0.278   0.841  1.6483  0.7035 -1.0277
  242SOL    HW3 1014   1.858   0.426   0.822 -0.3484  1.4691  1.7614
  242SOL    MW4 1015   1.809   0.362   0.855  0.3587  0.1702  0.3190
  243SOL     OW 1016   2.307   3.224   0.735 -0.2025 -0.2304 -0.2043
  243SOL    HW2 1017   2.368   3.154   0.757 -0.4986 -1.3129 -2.6497
  243SOL    HW3 1018   2.224   3.197   0.772  0.5062  0.6758  2.1129
  243SOL    MW4 1019   2.304   3.211   0.742 -0.1481 -0.2534 -0.2212
  244SOL     OW 1020   3.421   4.412   0.788 -0.4194 -0.3004  0.3931
  244SOL    HW2 1021   3.336   4.370   0.799 -1.2110  1.2249  0.3120
  244SOL    HW3 1022   3.432   4.419   0.693 -0.6149  0.2699  0.4062
  244SOL    MW4 1023   3.411   4.408   0.777 -0.5496 -0.0238  0.3841
  245SOL     OW 1024   2.341   1.663   0.263 -0.2369 -0.5344  0.5371
  245SOL    HW2 1025   2.392   1.720   0.321 -1.5704  1.7504 -0.4763
  245SOL    HW3 1026   2.257   1.653   0.307 -1.0556  0.7519 -0.7204
  245SOL    MW4 1027   2.337   1.669   0.276 -0.5209 -0.0633  0.2374
  246SOL     OW 1028   2.828   2.708   0.614  0.7149  0.5658  0.7472
  246SOL    HW2 1029   2.776   2.750   0.682 -0.1793 -0.6474  0.8405
  246SOL    HW3 1030   2.872   2.636   0.659 -0.5414 -0.7640 -0.1039
  246SOL    MW4 1031   2.827   2.704   0.629  0.4311  0.2306  0.6471
  247SOL     OW 1032   3.185   2.995   0.477 -0.1963  0.0893  0.1530
  247SOL    HW2 1033   3.192   3.090   0.485 -2.2666  0.2904 -0.3917
  247SOL    HW3 1034   3.136   2.967   0.555 -1.6241 -0.2653 -0.8520
  247SOL    MW4 1035   3.180   3.004   0.488 -0.6580  0.0689 -0.0514
  248SOL     OW 1036   2.539   3.675   0.742 -0.1740 -0.0747  0.2631
  248SOL    HW2 1037   2.470   3.619   0.779 -0.0941 -0.1629  0.2786
  248SOL    HW3 1038   2.620   3.641   0.780 -0.0887 -0.1808 -0.0074
  248SOL    MW4 1039   2.540   3.663   0.752 -0.1521 -0.1004  0.2294
  249SOL     OW 1040   2.274   1.675   0.683 -0.3753 -0.0784 -0.2454
  249SOL    HW2 1041   2.268   1.762   0.723  1.2888  0.5793 -1.3567
  249SOL    HW3 1042   2.216   1.679   0.608  0.0719  0.2485 -0.5778
  249SOL    MW4 1043   2.266   1.687   0.678 -0.0968  0.0515 -0.4359
  250SOL     OW 1044   1.197   1.538   0.819  0.0112 -0.2032  0.7557
  250SOL    HW2 1045   1.106   1.562   0.803  0.0024  0.5379  1.8770
  250SOL    HW3 1046   1.248   1.598   0.766 -0.1491 -0.5575  0.1992
  250SOL    MW4 1047   1.192   1.549   0.810 -0.0111 -0.1520  0.8302
  251SOL     OW 1048   2.232   1.155   0.850  0.0755 -0.0749 -0.3121
  251SOL    HW2 1049   2.158   1.211   0.829  0.6711  0.9811  0.3484
  251SOL    HW3 1050   2.240   1.161   0.945  1.2370  0.1214 -0.4134
  251SOL    MW4 1051   2.223   1.163   0.860  0.3073  0.0902 -0.2383
  252SOL     OW 1052   3.237   4.022   0.719  0.4751 -0.5949  0.4693
  252SOL    HW2 1053   3.290   3.964   0.773 -0.2685 -0.7966  0.9868
  252SOL    HW3 1054   3.151   3.979   0.713  0.4543 -0.4345 -0.6304
  252SOL    MW4 1055   3.232   4.009   0.725  0.3746 -0.6003  0.3925
  253SOL     OW 1056   2.981   0.495   0.072  0.0890 -0.1201 -0.2357
  253SOL    HW2 1057   3.049   0.536   0.127 -0.4455  1.2820 -0.5806
  253SOL    HW3 1058   2.900   0.537   0.101 -0.6269 -1.7046  0.0914
  253SOL    MW4 1059   2.979   0.506   0.083 -0.0761 -0.1441 -0.2381
  254SOL     OW 1060   4.096   1.807   0.498 -0.2059  0.2723  0.3973
  254SOL    HW2 1061   4.159   1.880   0.501 -1.0724  1.0099  0.8647
  254SOL    HW3 1062   4.096   1.772   0.586  0.6815 -0.7142  0.0154
  254SOL    MW4 1063   4.104   1.812   0.510 -0.2031  0.2395  0.4085
  255SOL     OW 1064   1.281   0.246   0.523  0.0849  0.6657  0.2395
  255SOL    HW2 1065   1.355   0.268   0.467  0.7766  2.0492  1.6525
  255SOL    HW3 1066   1.210   0.302   0.492  0.0416  0.3703 -0.1949
  255SOL    MW4 1067   1.282   0.256   0.511  0.1705  0.8093  0.3687
  256SOL     OW 1068   0.474   3.459   0.873  0.3300 -0.0790 -0.4926
  256SOL    HW2 1069   0.399   3.511   0.844 -0.2848  0.0063  1.2148
  256SOL    HW3 1070   0.476   3.469   0.968  2.5420 -0.0507 -0.4985
  256SOL    MW4 1071   0.465   3.467   0.881  0.5407 -0.0637 -0.2681
  257SOL     OW 1072   0.464   3.022   0.449 -0.1114  0.3939  0.4196
  257SOL    HW2 1073   0.436   3.082   0.518 -0.3800  1.9647 -1.0143
  257SOL    HW3 1074   0.394   2.958   0.443  0.2849 -0.2279  2.1260
  257SOL    MW4 1075   0.451   3.022   0.457 -0.0945  0.5193  0.4556
  258SOL     OW 1076   4.198   2.675   0.854  0.1070  0.5503  0.2970
  258SOL    HW2 1077   4.168   2.589   0.824  0.4704  0.2531  0.7932
  258SOL    HW3 1078   4.122   2.732   0.840  0.1976  0.3803 -1.0275
  258SOL    MW4 1079   4.184   2.671   0.848  0.1669  0.4888  0.1878
  259SOL     OW 1080   0.262   2.840   0.765 -0.1357 -0.0074 -0.0727
  259SOL    HW2 1081   0.342   2.803   0.801  0.0067 -1.7694 -2.1041
  259SOL    HW3 1082   0.192   2.782   0.797 -0.3834  0.3718  0.0840
  259SOL    MW4 1083   0.263   2.827   0.774 -0.1496 -0.1898 -0.3201
  260SOL     OW 1084   1.180   2.053   0.730 -0.4143 -0.2104 -0.9248
  260SOL    HW2 1085   1.261   2.008   0.754  0.6101  1.6282 -0.7827
  260SOL    HW3 1086   1.110   2.002   0.771  0.7909 -1.0061  0.1670
  260SOL    MW4 1087   1.182   2.040   0.739 -0.1202 -0.0727 -0.7620
  261SOL     OW 1088   0.230   3.105   0.849 -0.1379  0.2607  0.1448
  261SOL    HW2 1089   0.234   3.011   0.831 -2.3536  0.1112  0.3261
  261SOL    HW3 1090   0.265   3.114   0.938  2.2747 -0.0772 -0.7245
  261SOL    MW4 1091   0.235   3.094   0.858 -0.1119  0.1962  0.0540
  262SOL     OW 1092   1.931   4.662   0.594 -0.6494 -0.2237 -0.0356
  262SOL    HW2 1093   1.851   4.649   0.543 -1.4745 -0.0275  1.1711
  262SOL    HW3 1094   1.953   4.575   0.626  0.0709 -0.4023 -1.0380
  262SOL    MW4 1095   1.923   4.649   0.592 -0.6633 -0.2213 -0.0086
  263SOL     OW 1096   4.251   1.340   0.505 -0.3305  0.3652 -0.0423
  263SOL    HW2 1097   4.185   1.283   0.465  0.0401  0.7389 -1.2063
  263SOL    HW3 1098   4.219   1.429   0.488  0.3285  0.5409 -0.3713
  263SOL    MW4 1099   4.238   1.344   0.497 -0.1945  0.4377 -0.2393
  264SOL     OW 1100   0.557   4.608   0.316  0.4328 -0.7779  0.0761
  264SOL    HW2 1101   0.552   4.701   0.339 -1.0322 -0.6442 -0.7553
  264SOL    HW3 1102   0.547   4.563   0.400 -1.4358 -0.2203  0.1799
  264SOL    MW4 1103   0.555   4.614   0.330 -0.0070 -0.6866 -0.0198
  265SOL     OW 1104   0.675   3.884   0.852  0.1403 -0.7445  0.3405
  265SOL    HW2 1105   0.599   3.920   0.807  0.6778  0.3185  0.2758
  265SOL    HW3 1106   0.683   3.795   0.817 -0.3964 -0.4746 -0.4909
  265SOL    MW4 1107   0.666   3.877   0.842  0.1404 -0.5686  0.2223
  266SOL     OW 1108   3.412   0.806   0.519 -0.1282  0.3909  0.2210
  266SOL    HW2 1109   3.396   0.727   0.468 -0.2444  1.0991 -0.8549
  266SOL    HW3 1110   3.413   0.776   0.610 -1.9979 -0.5676 -0.0425
  266SOL    MW4 1111   3.410   0.792   0.524 -0.3903  0.3579  0.0443
  267SOL     OW 1112   3.432   0.380   0.471  0.0288  0.1684 -0.1243
  267SOL    HW2 1113   3.382   0.299   0.473 -0.1794  0.3093  0.4787
  267SOL    HW3 1114   3.438   0.407   0.562  0.1689  0.7858 -0.3102
  267SOL    MW4 1115   3.426   0.373   0.483  0.0200  0.2685 -0.0693
  268SOL     OW 1116   4.490   0.385   0.490  0.0436 -0.1650  0.0847
  268SOL    HW2 1117   4.581   0.411   0.498  0.1125  0.0821 -1.4363
  268SOL    HW3 1118   4.491   0.290   0.501  0.2620  0.0121  1.7387
  268SOL    MW4 1119   4.502   0.376   0.493  0.0815 -0.1090  0.1023
  269SOL     OW 1120   0.803   4.406   0.295 -0.0751  0.1701  0.2358
  269SOL    HW2 1121   0.744   4.477   0.272  0.5619  1.0650  1.3325
  269SOL    HW3 1122   0.745   4.331   0.309 -0.6242  0.0747 -2.3395
  269SOL    MW4 1123   0.787   4.405   0.294 -0.0635  0.2756  0.0407
  270SOL     OW 1124   4.024   0.878   0.705  0.2081 -0.0317  0.0559
  270SOL    HW2 1125   3.948   0.840   0.750  1.1892 -0.5891  1.2972
  270SOL    HW3 1126   4.031   0.966   0.742  1.1346 -0.5598  1.1916
  270SOL    MW4 1127   4.015   0.884   0.716  0.4592 -0.1749  0.3695
  271SOL     OW 1128   0.160   4.271   0.489 -0.2540 -0.0553  0.2439
  271SOL    HW2 1129   0.214   4.326   0.431 -0.9916  1.0956  0.6314
  271SOL    HW3 1130   0.165   4.314   0.574  1.0177 -1.8704  1.1177
  271SOL    MW4 1131   0.168   4.284   0.493 -0.1836 -0.1426  0.4103
  272SOL     OW 1132   4.252   0.535   0.478 -0.0924 -0.0455  0.0146
  272SOL    HW2 1133   4.248   0.610   0.418  0.8122  1.1751  1.4390
  272SOL    HW3 1134   4.342   0.504   0.472 -0.3123 -0.6512 -0.1366
  272SOL    MW4 1135   4.263   0.541   0.469 -0.0024  0.0357  0.1826
  273SOL     OW 1136   4.361   2.605   0.444 -0.2944 -0.1262 -0.1253
  273SOL    HW2 1137   4.389   2.695   0.429  1.5726 -1.0246 -2.4463
  273SOL    HW3 1138   4.269   2.604   0.419  0.1286  0.7876 -1.8051
  273SOL    MW4 1139   4.353   2.617   0.438  0.0076 -0.1242 -0.6531
  274SOL     OW 1140   1.070   4.341   0.256 -0.2374  0.4399 -0.0320
  274SOL    HW2 1141   0.983   4.378   0.272  0.3602  2.5052 -1.3630
  274SOL    HW3 1142   1.086   4.356   0.163  1.6389  0.3242  0.2535
  274SOL    MW4 1143   1.060   4.348   0.246  0.0888  0.6971 -0.1699
  275SOL     OW 1144   1.474   0.365   0.361 -0.4348 -0.4303 -0.3405
  275SOL    HW2 1145   1.412   0.431   0.330  1.4961  1.2528 -0.7151
  275SOL    HW3 1146   1.556   0.388   0.319  0.7306 -1.9284  1.0694
  275SOL    MW4 1147   1.476   0.377   0.352 -0.0263 -0.4059 -0.2039
  276SOL     OW 1148   1.596   3.857   0.877 -0.1577  0.6811 -0.6852
  276SOL    HW2 1149   1.521   3.888   0.826 -0.3764 -0.0934 -0.8429
  276SOL    HW3 1150   1.607   3.765   0.850  0.9199  0.8199 -0.7607
  276SOL    MW4 1151   1.588   3.849   0.866 -0.0443  0.5972 -0.7160
  277SOL     OW 1152   4.484   0.099   0.743 -0.0622 -0.1609 -0.0631
  277SOL    HW2 1153   4.475   0.088   0.648 -0.0623 -1.0941  0.0371
  277SOL    HW3 1154   4.418   0.040   0.780  0.9922 -0.9870  0.5328
  277SOL    MW4 1155   4.474   0.090   0.735  0.0769 -0.3930  0.0287
  278SOL     OW 1156   0.266   1.527   0.879 -0.1683  0.3252 -0.6535
  278SOL    HW2 1157   0.236   1.445   0.840 -0.4629  0.0424  0.1547
  278SOL    HW3 1158   0.203   1.593   0.848 -1.2577 -0.1459  0.4847
  278SOL    MW4 1159   0.253   1.525   0.870 -0.3509  0.2258 -0.3967
  279SOL     OW 1160   0.383   2.118   0.467  0.0582  0.4013  0.0205
  279SOL    HW2 1161   0.472   2.089   0.451  0.5021  0.8049  1.6784
  279SOL    HW3 1162   0.329   2.065   0.408  1.3204 -0.2769 -0.5292
  279SOL    MW4 1163   0.387   2.107   0.457  0.2833  0.3650  0.1667
  280SOL     OW 1164   0.323   2.095   0.746  0.2255  1.1893  0.1284
  280SOL    HW2 1165   0.346   2.099   0.653  0.2755  1.1558  0.1396
  280SOL    HW3 1166   0.390   2.039   0.785 -1.6916 -1.5638 -0.3917
  280SOL    MW4 1167   0.335   2.089   0.739 -0.0209  0.8216  0.0613
  281SOL     OW 1168   0.772   2.307   0.804 -0.2133 -0.1800 -0.0641
  281SOL    HW2 1169   0.773   2.316   0.900  1.0665  0.8955 -0.1627
  281SOL    HW3 1170   0.844   2.363   0.774  0.0170 -1.2623 -1.5935
  281SOL    MW4 1171   0.782   2.315   0.813 -0.0141 -0.1810 -0.2789
  282SOL     OW 1172   2.117   1.627   0.445 -0.4863  0.4738 -0.5748
  282SOL    HW2 1173   2.033   1.672   0.433 -1.9182 -1.6123  1.2677
  282SOL    HW3 1174   2.097   1.535   0.434  2.1344  0.1124 -2.7402
  282SOL    MW4 1175   2.103   1.621   0.442 -0.3295  0.1509 -0.6174
  283SOL     OW 1176   0.575   1.568   0.150  0.2957  0.3654 -0.0629
  283SOL    HW2 1177   0.497   1.578   0.204 -0.3865 -1.2372 -0.7113
  283SOL    HW3 1178   0.562   1.628   0.077 -0.5125 -0.1749 -0.3657
  283SOL    MW4 1179   0.563   1.577   0.148  0.0991  0.0826 -0.1884
  284SOL     OW 1180   2.050   3.892   0.810  0.0188 -0.3055  0.2732
  284SOL    HW2 1181   1.972   3.941   0.786  0.6099  0.6360  0.2611
  284SOL    HW3 1182   2.042   3.878   0.905 -0.7870 -1.3286  0.0639
  284SOL    MW4 1183   2.039   3.897   0.820 -0.0098 -0.3164  0.2440
  285SOL     OW 1184   0.106   2.192   0.236 -0.2400 -0.3040 -0.2610
  285SOL    HW2 1185   0.097   2.210   0.142  0.3176  0.9753 -0.0766
  285SOL    HW3 1186   0.162   2.262   0.269  1.7914 -2.2371  0.5425
  285SOL    MW4 1187   0.112   2.203   0.228  0.1016 -0.3903 -0.1306
  286SOL     OW 1188   0.900   4.003   0.733  0.1730  0.5608  0.1723
  286SOL    HW2 1189   0.834   3.966   0.792 -0.2181 -0.1961 -0.7360
  286SOL    HW3 1190   0.976   3.946   0.743  0.0070  0.2606 -0.2708
  286SOL    MW4 1191   0.901   3.991   0.742  0.0996  0.4218 -0.0059
  287SOL     OW 1192   1.828   2.721   0.814  0.7080  0.1707 -0.0700
  287SOL    HW2 1193   1.758   2.759   0.762 -0.7330 -1.0320  0.9441
  287SOL    HW3 1194   1.829   2.628   0.790  0.5548 -0.2375  1.4101
  287SOL    MW4 1195   1.819   2.713   0.804  0.4976 -0.0417  0.2591
  288SOL     OW 1196   1.381   0.899   0.730 -0.0577  0.0544 -0.1448
  288SOL    HW2 1197   1.369   0.937   0.643  1.2558  1.4803  0.2796
  288SOL    HW3 1198   1.301   0.849   0.745 -1.5994  2.1818 -0.9665
  288SOL    MW4 1199   1.369   0.898   0.721 -0.0879  0.5232 -0.1972
  289SOL     OW 1200   0.313   0.944   0.496  0.3342 -0.2426 -0.5806
  289SOL    HW2 1201   0.343   1.023   0.452  0.8017 -1.0506 -1.7389
  289SOL    HW3 1202   0.217   0.951   0.495  0.3445 -0.2414 -1.6960
  289SOL    MW4 1203   0.304   0.955   0.490  0.3972 -0.3490 -0.8806
  290SOL     OW 1204   1.524   4.387   0.478 -0.3183  0.3067 -0.1014
  290SOL    HW2 1205   1.555   4.305   0.439 -1.0362 -0.2711  0.5347
  290SOL    HW3 1206   1.535   4.374   0.572  0.0456  1.1409 -0.0275
  290SOL    MW4 1207   1.529   4.374   0.485 -0.3650  0.3405 -0.0077
  291SOL     OW 1208   2.958   4.526   0.259 -0.0726  0.3042 -0.2240
  291SOL    HW2 1209   2.865   4.543   0.239  0.0889 -0.2170 -1.5095
  291SOL    HW3 1210   2.995   4.612   0.276 -1.1901  0.3459  2.1208
  291SOL    MW4 1211   2.950   4.539   0.258 -0.1988  0.2418 -0.0843
  292SOL     OW 1212   0.067   1.532   0.361  0.4396 -0.0660 -0.2199
  292SOL    HW2 1213   0.094   1.449   0.401 -0.2919  0.3597  1.1792
  292SOL    HW3 1214  -0.028   1.523   0.351  0.2609  0.9094  0.6312
  292SOL    MW4 1215   0.058   1.520   0.365  0.3195  0.1187  0.0770
  293SOL     OW 1216   0.950   1.905   0.807  0.2629 -0.7607  0.0377
  293SOL    HW2 1217   0.867   1.944   0.779  2.1230  1.9906 -1.9426
  293SOL    HW3 1218   0.946   1.907   0.903 -1.3754  0.6368 -0.0361
  293SOL    MW4 1219   0.939   1.911   0.816  0.2921 -0.2134 -0.2334
  294SOL     OW 1220   0.205   4.630   0.869  0.0496  0.4214 -0.7473
  294SOL    HW2 1221   0.209   4.540   0.837  0.9926 -0.1854  1.0410
  294SOL    HW3 1222   0.126   4.666   0.828 -1.0936 -1.6213 -0.4218
  294SOL    MW4 1223   0.195   4.623   0.859  0.0232  0.0715 -0.4684
  295SOL     OW 1224   2.956   0.617   0.459  0.1303 -0.1052 -0.6629
  295SOL    HW2 1225   2.900   0.693   0.440 -0.0592 -0.1798 -0.4168
  295SOL    HW3 1226   3.014   0.610   0.384  0.1717  0.3072 -0.6692
  295SOL    MW4 1227   2.956   0.626   0.446  0.1109 -0.0606 -0.6313
  296SOL     OW 1228   3.638   3.464   0.878 -0.7367 -0.1445  0.1625
  296SOL    HW2 1229   3.569   3.500   0.822  0.3077  1.2038 -0.2826
  296SOL    HW3 1230   3.719   3.496   0.840  0.1341 -1.4969  0.8425
  296SOL    MW4 1231   3.640   3.473   0.866 -0.4840 -0.1452  0.1935
  297SOL     OW 1232   0.882   3.242   0.716  0.0999 -0.6302  0.2967
  297SOL    HW2 1233   0.875   3.330   0.753  1.3829 -0.7071  0.7073
  297SOL    HW3 1234   0.897   3.257   0.622 -0.7837 -0.4311  0.1776
  297SOL    MW4 1235   0.883   3.256   0.708  0.1526 -0.6139  0.3352
  298SOL     OW 1236   0.711   1.536   0.853  0.5039 -0.5159 -0.1574
  298SOL    HW2 1237   0.706   1.545   0.948 -1.3427 -1.2206 -0.1745
  298SOL    HW3 1238   0.722   1.442   0.838 -0.3034 -0.5317 -0.6785
  298SOL    MW4 1239   0.712   1.525   0.864  0.1537 -0.6111 -0.2285
  299SOL     OW 1240   0.228   3.855   0.857  0.3239  0.1011  0.6601
  299SOL    HW2 1241   0.239   3.851   0.952  0.9749 -0.3555  0.5684
  299SOL    HW3 1242   0.212   3.765   0.831 -1.0775  0.3963  0.4761
  299SOL    MW4 1243   0.228   3.843   0.866  0.2248  0.0799  0.6238
  300SOL     OW 1244   2.466   2.060   0.780  0.3178 -0.1454 -0.1398
  300SOL    HW2 1245   2.453   2.078   0.687  0.7884  0.7392 -0.0455
  300SOL    HW3 1246   2.482   2.146   0.819  1.4910 -0.6480  0.5403
  300SOL    MW4 1247   2.466   2.074   0.773  0.5350 -0.0949 -0.0377
  301SOL     OW 1248   0.963   2.508   0.708 -0.2088  0.4116 -0.2004
  301SOL    HW2 1249   0.965   2.578   0.773  1.9538  0.6519 -0.4829
  301SOL    HW3 1250   1.050   2.470   0.710 -0.3056 -0.0371 -2.4519
  301SOL    MW4 1251   0.974   2.512   0.717  0.0638  0.3841 -0.5347
  302SOL     OW 1252   1.388   1.683   0.678  0.3794  0.1540 -0.2020
  302SOL    HW2 1253   1.470   1.634   0.689  1.0412  1.1325 -0.7412
  302SOL    HW3 1254   1.377   1.690   0.583 -0.3066  0.0845 -0.1301
  302SOL    MW4 1255   1.397   1.677   0.667  0.3762  0.2739 -0.2636
  303SOL     OW 1256   0.517   1.928   0.865 -0.1268 -0.5137  0.6451
  303SOL    HW2 1257   0.505   1.847   0.815 -0.1305 -1.3785  2.0204
  303SOL    HW3 1258   0.516   1.900   0.956 -0.2428  1.0627  1.1406
  303SOL    MW4 1259   0.516   1.914   0.870 -0.1426 -0.4199  0.8919
  304SOL     OW 1260   1.995   4.238   0.434  0.0324 -0.2202 -1.0888
  304SOL    HW2 1261   1.935   4.165   0.448  0.3173 -0.1837  0.4192
  304SOL    HW3 1262   1.962   4.281   0.355 -2.7168  0.5565  0.4052
  304SOL    MW4 1263   1.983   4.234   0.426 -0.2928 -0.1125 -0.6928
  305SOL     OW 1264   2.428   4.624   0.094  0.3646  0.0782 -0.3294
  305SOL    HW2 1265   2.521   4.634   0.074  0.8770  0.7830  2.1895
  305SOL    HW3 1266   2.425   4.603   0.188 -2.0356  0.6321 -0.2305
  305SOL    MW4 1267   2.440   4.622   0.104  0.1154  0.2446  0.0160
  306SOL     OW 1268   1.202   2.336   0.833  0.2389 -0.2860  0.1985
  306SOL    HW2 1269   1.216   2.319   0.926  1.7015  0.4987  0.1448
  306SOL    HW3 1270   1.183   2.251   0.795 -1.7315 -0.4122  1.4453
  306SOL    MW4 1271   1.202   2.323   0.840  0.1718 -0.1993  0.3558
  307SOL     OW 1272   0.681   2.853   0.805 -0.1833 -0.3580 -0.4995
  307SOL    HW2 1273   0.670   2.842   0.710 -0.6028 -0.6658 -0.4154
  307SOL    HW3 1274   0.682   2.948   0.818 -1.2070 -0.3103 -0.6937
  307SOL    MW4 1275   0.680   2.865   0.794 -0.3737 -0.3922 -0.5140
  308SOL     OW 1276   2.099   3.611   0.750  0.0983 -0.0761  0.3028
  308SOL    HW2 1277   2.066   3.701   0.757  0.0202 -0.0463 -0.3725
  308SOL    HW3 1278   2.075   3.584   0.661  0.0963 -0.7770  0.5165
  308SOL    MW4 1279   2.092   3.619   0.739  0.0877 -0.1647  0.2419
  309SOL     OW 1280   3.973   2.812   0.498 -0.3884  0.1815 -0.8101
  309SOL    HW2 1281   3.880   2.832   0.510 -0.7753 -2.3504  0.8467
  309SOL    HW3 1282   4.007   2.801   0.586  0.8584 -1.5085 -1.4669
  309SOL    MW4 1283   3.965   2.813   0.511 -0.2749 -0.3755 -0.6782
  310SOL     OW 1284   0.538   2.458   0.782 -0.4893  0.4834  0.4883
  310SOL    HW2 1285   0.608   2.393   0.776 -0.7206  0.1547  1.2689
  310SOL    HW3 1286   0.458   2.406   0.793 -0.8445  0.8596 -0.2930
  310SOL    MW4 1287   0.537   2.443   0.783 -0.5667  0.4897  0.4883
  311SOL     OW 1288   3.421   2.818   0.521 -0.3470 -0.1135 -0.1463
  311SOL    HW2 1289   3.407   2.730   0.486  0.4236 -0.8080  1.2453
  311SOL    HW3 1290   3.358   2.872   0.475 -0.7335 -1.3682 -1.1328
  311SOL    MW4 1291   3.411   2.813   0.510 -0.2964 -0.3705 -0.0929
  312SOL     OW 1292   0.655   4.383   0.752 -0.2751 -0.3461  0.0209
  312SOL    HW2 1293   0.644   4.468   0.795 -0.6370 -0.0835 -0.5856
  312SOL    HW3 1294   0.615   4.394   0.666 -0.0860 -1.0523 -0.1627
  312SOL    MW4 1295   0.648   4.396   0.746 -0.2978 -0.4048 -0.0834
  313SOL     OW 1296   2.308   0.973   0.463  0.1222 -0.4163  0.0453
  313SOL    HW2 1297   2.372   0.906   0.439  1.8988  0.5559  1.8857
  313SOL    HW3 1298   2.360   1.053   0.473 -1.8145  1.0383 -1.1516
  313SOL    MW4 1299   2.323   0.975   0.461  0.1011 -0.0961  0.1302
  314SOL     OW 1300   3.640   2.004   0.867 -0.4520  0.0399  0.5345
  314SOL    HW2 1301   3.652   1.911   0.848  0.5639 -0.1872  2.1241
  314SOL    HW3 1302   3.560   2.028   0.821  0.7988 -0.9001 -2.2437
  314SOL    MW4 1303   3.631   1.995   0.859 -0.1528 -0.1142  0.3777
  315SOL     OW 1304   0.644   4.658   0.837 -0.3770  0.1329 -0.4220
  315SOL    HW2 1305   0.578   4.715   0.798 -0.0513  0.5929 -0.3153
  315SOL    HW3 1306   0.628   4.663   0.931 -0.2077  0.2303 -0.3971
  315SOL    MW4 1307   0.633   4.666   0.844 -0.3117  0.2065 -0.4046
  316SOL     OW 1308   2.336   0.400   0.244 -0.8727  0.2920  0.1856
  316SOL    HW2 1309   2.387   0.391   0.325 -0.0241 -0.3475 -0.4023
  316SOL    HW3 1310   2.286   0.481   0.255 -0.0782  0.6810  0.9730
  316SOL    MW4 1311   2.336   0.409   0.256 -0.6561  0.2590  0.2119
  317SOL     OW 1312   0.867   2.148   0.451  0.4862  0.1641 -0.1067
  317SOL    HW2 1313   0.790   2.116   0.403  0.0587  0.0708  0.6330
  317SOL    HW3 1314   0.868   2.095   0.531  1.0363  0.5129  0.1148
  317SOL    MW4 1315   0.857   2.137   0.455  0.5023  0.1976  0.0201
  318SOL     OW 1316   0.956   1.628   0.771 -0.0018  0.0181  0.0453
  318SOL    HW2 1317   0.869   1.594   0.792 -1.3549  0.8458 -3.8012
  318SOL    HW3 1318   0.953   1.720   0.799 -0.6256  0.2280 -0.6930
  318SOL    MW4 1319   0.944   1.636   0.777 -0.2626  0.1550 -0.5596
  319SOL     OW 1320   2.221   0.641   0.327  0.3306 -0.1495 -0.2397
  319SOL    HW2 1321   2.190   0.724   0.290  0.4318 -0.6871 -1.5655
  319SOL    HW3 1322   2.299   0.664   0.378  0.4375  0.5438 -0.7147
  319SOL    MW4 1323   2.227   0.655   0.329  0.3581 -0.1290 -0.4773
  320SOL     OW 1324   3.550   3.543   0.324 -0.0989  0.4357  0.1218
  320SOL    HW2 1325   3.502   3.468   0.359 -0.1486  0.4424  0.0676
  320SOL    HW3 1326   3.547   3.531   0.229  1.7774 -0.6619  0.1891
  320SOL    MW4 1327   3.543   3.531   0.316  0.1419  0.2918  0.1235
  321SOL     OW 1328   4.013   1.135   0.803 -0.0528  0.2138  0.0803
  321SOL    HW2 1329   3.996   1.145   0.897 -1.5678  0.4323 -0.2162
  321SOL    HW3 1330   3.947   1.189   0.760  0.0678 -0.5796 -1.1394
  321SOL    MW4 1331   4.002   1.143   0.810 -0.2365  0.1378 -0.1197
  322SOL     OW 1332   1.826   0.976   0.470  0.5813 -0.0174 -0.1211
  322SOL    HW2 1333   1.834   0.954   0.563  0.4001  0.1725 -0.0612
  322SOL    HW3 1334   1.790   0.897   0.430  1.5265 -0.4273 -0.1822
  322SOL    MW4 1335   1.823   0.963   0.477  0.6821 -0.0465 -0.1213
  323SOL     OW 1336   1.621   1.249   0.731 -0.4557  0.6159  0.1486
  323SOL    HW2 1337   1.626   1.343   0.752 -2.6355  0.4842  1.4675
  323SOL    HW3 1338   1.599   1.246   0.638  1.1972  1.3726 -0.2820
  323SOL    MW4 1339   1.619   1.261   0.722 -0.5251  0.6982  0.2658
  324SOL     OW 1340   1.126   2.912   0.681 -0.2674 -0.0503  0.0994
  324SOL    HW2 1341   1.059   2.852   0.715  0.9219 -0.8280  1.1186
  324SOL    HW3 1342   1.118   2.990   0.736 -1.0789  0.3071 -0.5136
  324SOL    MW4 1343   1.116   2.915   0.693 -0.2176 -0.1059  0.1529
  325SOL     OW 1344   3.877   2.353   0.838  0.2808  0.5690 -0.0161
  325SOL    HW2 1345   3.887   2.276   0.782  1.5190  0.7062 -0.0079
  325SOL    HW3 1346   3.870   2.318   0.927 -1.2221  0.3730 -0.2049
  325SOL    MW4 1347   3.878   2.338   0.843  0.2460  0.5612 -0.0399
  326SOL     OW 1348   1.659   0.184   0.471  0.1995 -0.3246 -0.0285
  326SOL    HW2 1349   1.597   0.256   0.460  0.7097  0.3032  1.0945
  326SOL    HW3 1350   1.745   0.225   0.462  0.4808 -1.0465 -0.7570
  326SOL    MW4 1351   1.662   0.199   0.468  0.3039 -0.3370  0.0235
  327SOL     OW 1352   0.936   1.583   0.489 -0.0347 -0.4681  0.0618
  327SOL    HW2 1353   0.857   1.533   0.469  0.5140 -0.4958 -2.1710
  327SOL    HW3 1354   0.927   1.607   0.581 -1.8505 -1.8831  0.2715
  327SOL    MW4 1355   0.925   1.580   0.498 -0.2019 -0.6584 -0.2052
  328SOL     OW 1356   4.472   0.374   0.828 -0.6755 -0.5722  0.1073
  328SOL    HW2 1357   4.465   0.373   0.923 -2.8773 -0.1593 -0.0235
  328SOL    HW3 1358   4.483   0.282   0.804 -0.8826 -0.7617  0.7216
  328SOL    MW4 1359   4.472   0.362   0.837 -0.9933 -0.5427  0.1711
  329SOL     OW 1360   1.796   2.438   0.751 -0.0732 -0.4425 -0.2280
  329SOL    HW2 1361   1.766   2.435   0.660  0.4392 -2.9373 -0.3288
  329SOL    HW3 1362   1.718   2.414   0.802  0.3184 -1.5997 -0.1693
  329SOL    MW4 1363   1.781   2.435   0.745  0.0460 -0.9248 -0.2335
  330SOL     OW 1364   2.268   1.897   0.828  0.4208 -0.2760  0.7341
  330SOL    HW2 1365   2.348   1.947   0.811  1.5374 -2.2156  0.1585
  330SOL    HW3 1366   2.199   1.963   0.830  1.8827  1.3121  0.1914
  330SOL    MW4 1367   2.270   1.912   0.826  0.7610 -0.3225  0.5866
  331SOL     OW 1368   4.371   4.164   0.445 -0.1267 -0.4985 -0.2889
  331SOL    HW2 1369   4.305   4.229   0.470  0.3915 -0.2876  0.5493
  331SOL    HW3 1370   4.453   4.214   0.441 -0.0264 -0.7550 -1.3428
  331SOL    MW4 1371   4.373   4.179   0.448 -0.0448 -0.5045 -0.3174
  332SOL     OW 1372   1.133   3.844   0.788 -0.2758  0.1195  0.3404
  332SOL    HW2 1373   1.219   3.876   0.760 -0.5503  0.8005  0.2715
  332SOL    HW3 1374   1.140   3.749   0.783 -0.1542  0.2170 -1.5177
  332SOL    MW4 1375   1.146   3.836   0.784 -0.2960  0.2222  0.0862
  333SOL     OW 1376   2.020   2.876   0.452  0.2738 -0.0031  0.0897
  333SOL    HW2 1377   2.099   2.914   0.413  1.4799 -2.5103 -0.0063
  333SOL    HW3 1378   1.952   2.942   0.436  2.1196  1.8013 -0.6389
  333SOL    MW4 1379   2.022   2.890   0.445  0.6766 -0.0961 -0.0190
  334SOL     OW 1380   3.261   2.404   0.600 -0.0717  0.0237  0.1616
  334SOL    HW2 1381   3.287   2.369   0.685 -1.4088 -0.3047  0.4453
  334SOL    HW3 1382   3.180   2.451   0.617  0.3921  1.1649 -0.6767
  334SOL    MW4 1383   3.254   2.406   0.613 -0.1872  0.1309  0.0884
  335SOL     OW 1384   0.729   3.977   0.266 -0.1343  0.3138 -0.1019
  335SOL    HW2 1385   0.803   3.993   0.207 -1.0249 -0.3384 -1.4285
  335SOL    HW3 1386   0.769   3.957   0.350  1.1710  1.2651 -0.4782
  335SOL    MW4 1387   0.744   3.977   0.269 -0.0796  0.3536 -0.3266
  336SOL     OW 1388   0.516   1.144   0.864 -0.0268  0.0720 -0.4036
  336SOL    HW2 1389   0.600   1.184   0.841  0.6699 -2.4406 -2.3814
  336SOL    HW3 1390   0.515   1.060   0.818 -2.3787 -1.2531  1.9033
  336SOL    MW4 1391   0.527   1.138   0.855 -0.2452 -0.4343 -0.3601
  337SOL     OW 1392   2.528   3.454   0.436  0.1702 -0.3967  0.3079
  337SOL    HW2 1393   2.521   3.546   0.413  1.3944 -0.9907 -2.6260
  337SOL    HW3 1394   2.440   3.419   0.421  0.2557 -0.1659 -0.7762
  337SOL    MW4 1395   2.515   3.461   0.431  0.3428 -0.4447 -0.2223
  338SOL     OW 1396   0.693   1.250   0.538 -0.6377 -0.7423  0.0204
  338SOL    HW2 1397   0.685   1.323   0.477 -2.0371 -0.9846 -0.0956
  338SOL    HW3 1398   0.755   1.191   0.496  0.3231  0.2513  0.0032
  338SOL    MW4 1399   0.700   1.252   0.524 -0.6956 -0.6431  0.0028
  339SOL     OW 1400   2.997   2.515   0.730 -0.7120 -0.2916  0.2200
  339SOL    HW2 1401   3.062   2.548   0.792 -1.1586 -0.3124  0.7014
  339SOL    HW3 1402   2.953   2.444   0.776 -2.0933  0.6921  0.4572
  339SOL    MW4 1403   3.000   2.510   0.744 -0.9530 -0.1645  0.3148
  340SOL     OW 1404   4.113   3.094   0.490  0.1436 -0.3232  0.2785
  340SOL    HW2 1405   4.204   3.100   0.463  0.0024 -0.4577 -0.2296
  340SOL    HW3 1406   4.098   3.000   0.504 -0.4382 -0.4991 -1.4563
  340SOL    MW4 1407   4.123   3.082   0.489  0.0482 -0.3638 -0.0174
  341SOL     OW 1408   3.206   2.183   0.434 -0.1249 -0.4486 -0.1320
  341SOL    HW2 1409   3.220   2.264   0.484  2.8243 -0.8934 -0.1444
  341SOL    HW3 1410   3.174   2.212   0.349 -0.6220  0.5992  0.4001
  341SOL    MW4 1411   3.204   2.197   0.430  0.1984 -0.3688 -0.0634
  342SOL     OW 1412   1.624   1.526   0.768 -0.5164  1.0525 -0.8868
  342SOL    HW2 1413   1.702   1.581   0.765  0.2698 -0.0255 -0.4183
  342SOL    HW3 1414   1.604   1.518   0.861  1.7955 -2.7830 -0.6373
  342SOL    MW4 1415   1.632   1.532   0.780 -0.1075  0.4041 -0.7921
  343SOL     OW 1416   2.258   4.156   0.478  0.0258  0.4607 -0.2956
  343SOL    HW2 1417   2.168   4.184   0.460 -0.3196  0.0836  0.8028
  343SOL    HW3 1418   2.259   4.063   0.453  0.2947  0.6396 -0.9461
  343SOL    MW4 1419   2.246   4.147   0.472  0.0157  0.4344 -0.2365
  344SOL     OW 1420   4.271   1.557   0.848  0.0105  0.2290  0.2769
  344SOL    HW2 1421   4.272   1.461   0.842 -0.5180  0.1053  1.8075
  344SOL    HW3 1422   4.276   1.574   0.942  1.8922  1.7443 -0.0682
  344SOL    MW4 1423   4.272   1.547   0.860  0.1893  0.4126  0.4334
  345SOL     OW 1424   1.973   0.561   0.477 -0.5561 -0.1263  0.2840
  345SOL    HW2 1425   1.957   0.469   0.456 -0.9816 -0.5187  2.2220
  345SOL    HW3 1426   2.059   0.580   0.440 -0.9454 -0.9807 -1.0785
  345SOL    MW4 1427   1.982   0.552   0.469 -0.6638 -0.2908  0.3599
  346SOL     OW 1428   1.340   0.364   0.868  0.0675  0.5459  0.1160
  346SOL    HW2 1429   1.358   0.277   0.831  0.3601  0.8928 -0.5596
  346SOL    HW3 1430   1.359   0.354   0.962  0.5524  0.0010 -0.0328
  346SOL    MW4 1431   1.345   0.351   0.876  0.1700  0.5198  0.0072
  347SOL     OW 1432   0.225   1.273   0.769  0.1185 -0.1207 -0.4991
  347SOL    HW2 1433   0.156   1.235   0.823 -0.0805  1.0726  0.1032
  347SOL    HW3 1434   0.304   1.223   0.790 -0.3001 -0.6946 -0.2920
  347SOL    MW4 1435   0.226   1.262   0.779  0.0370 -0.0390 -0.3924
  348SOL     OW 1436   2.541   4.385   0.734 -0.1221 -0.1314 -0.2852
  348SOL    HW2 1437   2.531   4.477   0.759  0.5257  0.2650 -1.4761
  348SOL    HW3 1438   2.590   4.346   0.806  0.2560  0.6254 -0.1230
  348SOL    MW4 1439   2.546   4.392   0.747  0.0134  0.0200 -0.4209
  349SOL     OW 1440   4.377   2.035   0.759  0.3164  0.3801 -0.1111
  349SOL    HW2 1441   4.453   1.992   0.800 -0.6167 -0.8569  0.3617
  349SOL    HW3 1442   4.376   2.123   0.796  2.3856  0.9130 -1.2420
  349SOL    MW4 1443   4.387   2.041   0.769  0.4659  0.2873 -0.1979
  350SOL     OW 1444   2.849   2.341   0.905  0.0869  0.0202  0.2599
  350SOL    HW2 1445   2.864   2.252   0.876 -0.9558 -0.2392  0.4832
  350SOL    HW3 1446   2.895   2.348   0.989 -1.4312 -0.9178  1.1964
  350SOL    MW4 1447   2.857   2.330   0.913 -0.2511 -0.1378  0.4129
  351SOL     OW 1448   0.322   3.424   0.424  0.2383  0.1648  0.3828
  351SOL    HW2 1449   0.411   3.420   0.389 -0.3156  0.0321 -1.0266
  351SOL    HW3 1450   0.322   3.363   0.497  1.7760  1.4278  1.4871
  351SOL    MW4 1451   0.333   3.416   0.429  0.3681  0.3138  0.3426
  352SOL     OW 1452   0.589   3.435   0.318 -0.3012 -0.0267 -0.1068
  352SOL    HW2 1453   0.633   3.351   0.306  1.7352  0.8714  0.8664
  352SOL    HW3 1454   0.599   3.480   0.234 -1.4240 -0.7400 -0.6396
  352SOL    MW4 1455   0.596   3.430   0.305 -0.1806 -0.0024 -0.0487
  353SOL     OW 1456   3.523   4.650   0.449 -0.0182  0.0857 -0.4232
  353SOL    HW2 1457   3.443   4.702   0.441 -0.3628 -0.3186  0.4073
  353SOL    HW3 1458   3.492   4.559   0.450  0.2921 -0.0211  1.7452
  353SOL    MW4 1459   3.508   4.644   0.448 -0.0226  0.0176 -0.0276
  354SOL     OW 1460   1.369   2.803   0.405  0.5763  0.1151  0.1566
  354SOL    HW2 1461   1.393   2.710   0.398  0.9910  0.3920 -3.0423
  354SOL    HW3 1462   1.279   2.803   0.435  0.2093 -1.3827 -0.8920
  354SOL    MW4 1463   1.361   2.791   0.408  0.5827 -0.0460 -0.4038
  355SOL     OW 1464   2.953   4.235   0.192  0.2271  0.1368  0.0178
  355SOL    HW2 1465   2.864   4.211   0.218  0.1150 -0.2257 -0.6750
  355SOL    HW3 1466   2.953   4.330   0.190 -0.7804  0.1158 -2.0953
  355SOL    MW4 1467   2.941   4.244   0.195  0.0792  0.0863 -0.3524
  356SOL     OW 1468   0.242   0.519   0.817  0.5910  0.2211 -0.3750
  356SOL    HW2 1469   0.159   0.486   0.849  0.9477 -1.2896 -0.9696
  356SOL    HW3 1470   0.239   0.613   0.835 -0.1912 -0.2172  1.8706
  356SOL    MW4 1471   0.231   0.527   0.823  0.5349 -0.0361 -0.1572
  357SOL     OW 1472   1.173   0.752   0.811  0.1336 -0.2821 -0.3841
  357SOL    HW2 1473   1.154   0.667   0.772 -0.7270  0.0310 -0.6409
  357SOL    HW3 1474   1.171   0.736   0.905  0.5217 -0.6595 -0.4334
  357SOL    MW4 1475   1.170   0.739   0.818  0.0712 -0.2906 -0.4244
  358SOL     OW 1476   1.587   0.813   0.876 -0.5097 -0.1516  0.4446
  358SOL    HW2 1477   1.582   0.720   0.853 -0.0079  0.1243 -0.8588
  358SOL    HW3 1478   1.516   0.853   0.826 -1.6632 -0.0467  2.1615
  358SOL    MW4 1479   1.577   0.806   0.866 -0.5957 -0.1014  0.4991
  359SOL     OW 1480   1.401   1.688   0.389 -0.2080  0.0394 -0.1705
  359SOL    HW2 1481   1.334   1.621   0.373  0.9105 -0.8615 -1.1562
  359SOL    HW3 1482   1.363   1.768   0.352 -0.0098 -0.8552 -2.4369
  359SOL    MW4 1483   1.387   1.690   0.382 -0.0343 -0.1974 -0.5995
  360SOL     OW 1484   4.248   3.061   0.856  0.4651 -0.0252 -0.6363
  360SOL    HW2 1485   4.159   3.096   0.851  0.3471 -0.2394 -0.0941
  360SOL    HW3 1486   4.251   2.993   0.789  0.1307 -0.2115 -0.4628
  360SOL    MW4 1487   4.236   3.057   0.846  0.4053 -0.0777 -0.5419
  361SOL     OW 1488   4.176   4.382   0.510  0.2825  0.3806  0.5261
  361SOL    HW2 1489   4.155   4.466   0.468 -0.0268  0.9005  1.7069
  361SOL    HW3 1490   4.212   4.406   0.595  0.3208 -0.6855  0.8123
  361SOL    MW4 1491   4.178   4.396   0.516  0.2470  0.3085  0.7197
  362SOL     OW 1492   1.898   0.317   0.389  0.3955  0.3035  0.5451
  362SOL    HW2 1493   1.855   0.362   0.316 -0.8235 -1.4563  0.1391
  362SOL    HW3 1494   1.963   0.260   0.348  1.1968  0.8809  0.9876
  362SOL    MW4 1495   1.901   0.315   0.374  0.3403  0.1475  0.5499
  363SOL     OW 1496   1.831   4.253   1.120 -0.2601 -0.0872 -0.0207
  363SOL    HW2 1497   1.743   4.282   1.143 -0.7695  0.0722 -2.0807
  363SOL    HW3 1498   1.835   4.163   1.153 -1.2045 -0.1104  0.0605
  363SOL    MW4 1499   1.820   4.245   1.128 -0.4519 -0.0691 -0.2817
  364SOL     OW 1500   0.188   0.091   0.303  0.2456  0.2385 -0.1332
  364SOL    HW2 1501   0.242   0.131   0.371  0.5590  1.8312 -1.2983
  364SOL    HW3 1502   0.178   0.159   0.237 -0.9865 -0.9197 -1.1723
  364SOL    MW4 1503   0.193   0.105   0.303  0.1244  0.2958 -0.4240
  365SOL     OW 1504   4.288   4.632   0.862 -0.1562 -0.0994 -0.2150
  365SOL    HW2 1505   4.283   4.541   0.834  0.5467 -0.1145 -0.3087
  365SOL    HW3 1506   4.268   4.630   0.956 -0.9595 -0.2430 -0.3850
  365SOL    MW4 1507   4.285   4.620   0.871 -0.1698 -0.1202 -0.2497
  366SOL     OW 1508   3.774   0.074   0.467  0.5041 -0.3588 -0.5210
  366SOL    HW2 1509   3.684   0.042   0.460  0.4689 -0.2522 -0.5717
  366SOL    HW3 1510   3.767   0.168   0.447  0.3557  0.0374  1.3625
  366SOL    MW4 1511   3.761   0.082   0.463  0.4799 -0.2925 -0.2791
  367SOL     OW 1512   1.813   4.290   0.854 -0.5308 -0.0854  0.0290
  367SOL    HW2 1513   1.892   4.339   0.832 -0.7329  0.3951  0.3692
  367SOL    HW3 1514   1.823   4.270   0.947 -0.0854 -1.3584 -0.2800
  367SOL    MW4 1515   1.825   4.294   0.863 -0.4988 -0.1903  0.0331
  368SOL     OW 1516   3.383   2.350   0.873  0.1584 -0.3315 -0.2398
  368SOL    HW2 1517   3.391   2.342   0.968 -0.7977 -0.8786 -0.2017
  368SOL    HW3 1518   3.465   2.391   0.846  1.1573 -1.7125  0.6226
  368SOL    MW4 1519   3.395   2.354   0.882  0.1636 -0.5858 -0.1209
  369SOL     OW 1520   3.030   3.632   0.794 -0.1225  0.0913  0.0466
  369SOL    HW2 1521   3.028   3.727   0.807 -1.6393 -0.0434  0.8082
  369SOL    HW3 1522   3.098   3.601   0.855 -0.8541  0.4891  1.0631
  369SOL    MW4 1523   3.039   3.640   0.804 -0.4194  0.1264  0.2812
  370SOL     OW 1524   3.157   1.972   0.895 -0.3405 -0.0148 -0.5844
  370SOL    HW2 1525   3.171   1.950   0.987  0.3995  1.5498 -0.3179
  370SOL    HW3 1526   3.151   1.887   0.851 -0.5130 -0.7732  0.8681
  370SOL    MW4 1527   3.158   1.958   0.901 -0.2654  0.0917 -0.3576
  371SOL     OW 1528   1.383   3.982   0.733  0.2326  0.0815  0.3593
  371SOL    HW2 1529   1.355   4.061   0.780 -0.7921 -0.6591  1.0282
  371SOL    HW3 1530   1.366   4.001   0.641 -1.1871  0.1982  0.6217
  371SOL    MW4 1531   1.377   3.995   0.727 -0.0898 -0.0007  0.4822
  372SOL     OW 1532   3.854   1.534   0.824 -0.1309 -0.3469  0.3957
  372SOL    HW2 1533   3.937   1.579   0.808 -0.6521  0.3886 -0.3196
  372SOL    HW3 1534   3.787   1.600   0.804 -0.8747 -0.6538  1.7900
  372SOL    MW4 1535   3.856   1.549   0.819 -0.2980 -0.2904  0.4852
  373SOL     OW 1536   1.376   1.021   0.489  0.1023 -0.0955 -0.1470
  373SOL    HW2 1537   1.439   1.071   0.436 -0.8532  0.7212 -0.5268
  373SOL    HW3 1538   1.298   1.077   0.492 -1.0905 -1.6978 -0.8071
  373SOL    MW4 1539   1.374   1.035   0.483 -0.1812 -0.1991 -0.2842
  374SOL     OW 1540   2.469   1.266   0.763 -0.0818 -0.1366  0.2116
  374SOL    HW2 1541   2.467   1.359   0.786 -0.3926 -0.6534  2.4344
  374SOL    HW3 1542   2.385   1.232   0.793 -0.7146 -0.7918 -2.2252
  374SOL    MW4 1543   2.458   1.274   0.770 -0.2065 -0.2913  0.1833
  375SOL     OW 1544   0.480   1.673   0.777  0.2177 -0.0866 -0.2378
  375SOL    HW2 1545   0.555   1.621   0.806  0.4126 -0.4957 -1.4495
  375SOL    HW3 1546   0.404   1.619   0.800  0.3446 -0.2094 -0.1016
  375SOL    MW4 1547   0.480   1.659   0.784  0.2601 -0.1568 -0.3797
  376SOL     OW 1548   2.067   2.363   0.788  0.2026 -0.2984 -0.0330
  376SOL    HW2 1549   2.072   2.350   0.883 -1.1243  1.0015  0.2321
  376SOL    HW3 1550   1.975   2.386   0.772  0.7188  0.8168 -1.4616
  376SOL    MW4 1551   2.055   2.364   0.799  0.0958  0.0203 -0.1866
  377SOL     OW 1552   3.604   3.979   0.767  0.2361  0.0169  0.0971
  377SOL    HW2 1553   3.631   3.988   0.675  0.5667 -1.4939  0.0342
  377SOL    HW3 1554   3.608   4.068   0.802  1.7170  0.3668 -0.9094
  377SOL    MW4 1555   3.608   3.992   0.759  0.4749 -0.1364 -0.0440
  378SOL     OW 1556   2.720   3.270   0.729 -0.1736  0.2412 -0.2309
  378SOL    HW2 1557   2.711   3.354   0.772 -0.0100  1.0657 -1.7605
  378SOL    HW3 1558   2.643   3.220   0.755  0.6133  0.2017  2.1015
  378SOL    MW4 1559   2.709   3.274   0.738 -0.0484  0.3448 -0.1249
  379SOL     OW 1560   3.599   2.357   0.512 -0.6304  0.1970 -0.2419
  379SOL    HW2 1561   3.682   2.339   0.467  0.3378  0.4008  1.4431
  379SOL    HW3 1562   3.548   2.276   0.501  0.4424 -0.5438  0.1594
  379SOL    MW4 1563   3.603   2.344   0.504 -0.3610  0.1264  0.0334
  380SOL     OW 1564   3.340   3.964   0.455 -0.2099 -0.0738 -1.0440
  380SOL    HW2 1565   3.273   3.989   0.392 -0.2754 -0.0210 -0.9518
  380SOL    HW3 1566   3.304   3.988   0.540 -0.1281 -0.1628 -0.9842
  380SOL    MW4 1567   3.327   3.970   0.458 -0.2077 -0.0787 -1.0239
  381SOL     OW 1568   2.524   3.068   1.119 -0.0482 -0.2811  0.2448
  381SOL    HW2 1569   2.505   2.978   1.147  0.8392 -0.5482 -0.0094
  381SOL    HW3 1570   2.443   3.116   1.138 -1.7220 -1.8219 -2.6509
  381SOL    MW4 1571   2.511   3.062   1.125 -0.1521 -0.5195 -0.1708
  382SOL     OW 1572   1.586   3.126   0.850  0.4561 -0.2465 -0.3223
  382SOL    HW2 1573   1.587   3.038   0.811  0.0033 -0.5951  0.4340
  382SOL    HW3 1574   1.514   3.171   0.805  0.1461 -0.5434 -0.1298
  382SOL    MW4 1575   1.576   3.120   0.839  0.3555 -0.3319 -0.1971
  383SOL     OW 1576   1.147   3.911   0.373 -0.0565  0.1118 -0.3200
  383SOL    HW2 1577   1.057   3.910   0.404 -0.2711  1.1239 -0.8884
  383SOL    HW3 1578   1.188   3.984   0.420  0.4135 -0.2125 -0.2158
  383SOL    MW4 1579   1.141   3.920   0.383 -0.0229  0.2027 -0.3813
  384SOL     OW 1580   0.451   4.012   0.759  0.0206  0.2059 -0.1433
  384SOL    HW2 1581   0.388   3.965   0.814  0.2053 -0.9523 -0.8909
  384SOL    HW3 1582   0.452   4.101   0.794 -0.5882 -0.2590  1.1005
  384SOL    MW4 1583   0.443   4.017   0.771 -0.0353 -0.0091 -0.0778
  385SOL     OW 1584   4.280   4.369   0.776 -0.1017  0.2405  0.5295
  385SOL    HW2 1585   4.218   4.304   0.809 -0.0180  1.0254  2.2443
  385SOL    HW3 1586   4.365   4.342   0.811  0.3686 -0.1852 -0.8853
  385SOL    MW4 1587   4.283   4.357   0.785 -0.0291  0.2875  0.5691
  386SOL     OW 1588   3.838   3.608   0.730 -0.4049 -0.1908 -0.1849
  386SOL    HW2 1589   3.799   3.634   0.647  0.6773 -1.4412 -1.1039
  386SOL    HW3 1590   3.830   3.686   0.786 -1.7040  0.4473 -1.2412
  386SOL    MW4 1591   3.832   3.622   0.727 -0.4334 -0.2716 -0.4455
  387SOL     OW 1592   4.055   1.184   0.375 -0.1012 -0.2053  0.0355
  387SOL    HW2 1593   3.962   1.201   0.362 -0.2004  0.5504  1.5569
  387SOL    HW3 1594   4.061   1.089   0.382 -0.6124 -0.3206 -1.1186
  387SOL    MW4 1595   4.044   1.174   0.374 -0.1817 -0.1210  0.0840
  388SOL     OW 1596   2.544   4.653   0.826  0.2661 -0.3314 -0.3991
  388SOL    HW2 1597   2.491   4.723   0.787  0.7340 -0.5768 -1.4821
  388SOL    HW3 1598   2.525   4.659   0.919 -0.1580  0.8620 -0.5440
  388SOL    MW4 1599   2.534   4.663   0.833  0.2723 -0.2060 -0.5611
  389SOL     OW 1600   3.855   2.245   0.402  0.3444 -0.4160  0.4662
  389SOL    HW2 1601   3.834   2.153   0.418 -0.8980 -0.0084  1.2292
  389SOL    HW3 1602   3.927   2.264   0.462  0.2545 -0.7421  0.6802
  389SOL    MW4 1603   3.862   2.235   0.412  0.1688 -0.4051  0.5951
  390SOL     OW 1604   3.027   1.967   0.565 -0.0549 -0.1784  0.3064
  390SOL    HW2 1605   3.087   2.036   0.537  1.0162 -0.7197  1.1969
  390SOL    HW3 1606   3.002   1.991   0.654 -0.1548 -0.6177  0.4016
  390SOL    MW4 1607   3.032   1.979   0.573  0.0734 -0.3077  0.4365
  391SOL     OW 1608   4.044   4.239   0.849  0.4116 -0.3530  0.0566
  391SOL    HW2 1609   4.032   4.156   0.803 -0.4398 -0.1985 -0.0107
  391SOL    HW3 1610   3.973   4.295   0.816  0.5830  0.1806  0.5860
  391SOL    MW4 1611   4.033   4.236   0.838  0.3223 -0.2618  0.1176
  392SOL     OW 1612   4.331   1.981   0.500 -0.3885  0.5440  0.3539
  392SOL    HW2 1613   4.347   1.983   0.595  0.4163  0.9620  0.2094
  392SOL    HW3 1614   4.359   2.067   0.469 -1.6649  0.8080 -0.1142
  392SOL    MW4 1615   4.337   1.992   0.509 -0.4511  0.6340  0.2730
  393SOL     OW 1616   1.122   0.493   0.745  0.0436 -0.1371 -0.4833
  393SOL    HW2 1617   1.194   0.437   0.773 -0.5586 -0.5960  0.1732
  393SOL    HW3 1618   1.047   0.464   0.797 -0.8078 -0.1821 -1.7011
  393SOL    MW4 1619   1.121   0.482   0.755 -0.1483 -0.2036 -0.5572
  394SOL     OW 1620   4.084   0.101   0.759 -0.1082 -0.3587 -0.1624
  394SOL    HW2 1621   4.154   0.051   0.802 -0.7940 -1.3748 -0.2271
  394SOL    HW3 1622   4.127   0.138   0.682  0.1999 -1.5294 -0.5632
  394SOL    MW4 1623   4.099   0.099   0.755 -0.1578 -0.6472 -0.2238
  395SOL     OW 1624   0.535   1.190   0.159  0.0238  0.0355  0.1070
  395SOL    HW2 1625   0.626   1.220   0.161  0.0432 -0.0554  0.5511
  395SOL    HW3 1626   0.494   1.243   0.091 -0.1857  1.7825  1.5510
  395SOL    MW4 1627   0.541   1.201   0.150 -0.0013  0.2539  0.3561
  396SOL     OW 1628   3.169   1.713   0.763 -0.2521 -0.1304 -0.2742
  396SOL    HW2 1629   3.252   1.667   0.776 -0.7930 -1.2885 -0.8029
  396SOL    HW3 1630   3.150   1.702   0.670 -1.7514 -1.2052  0.1329
  396SOL    MW4 1631   3.177   1.705   0.753 -0.5214 -0.4251 -0.2902
  397SOL     OW 1632   2.931   0.578   0.748 -0.0786  0.3064  0.1956
  397SOL    HW2 1633   2.957   0.591   0.657  0.8720  0.0664  0.4288
  397SOL    HW3 1634   3.003   0.529   0.787 -0.7050 -0.0242  0.9538
  397SOL    MW4 1635   2.944   0.573   0.741 -0.0360  0.2311  0.3263
  398SOL     OW 1636   1.821   2.701   1.097 -0.3863  0.0208 -0.2181
  398SOL    HW2 1637   1.842   2.706   1.004 -0.3992  0.2600 -0.2099
  398SOL    HW3 1638   1.816   2.608   1.117 -0.3938 -0.0285 -0.4596
  398SOL    MW4 1639   1.823   2.690   1.088 -0.3891  0.0460 -0.2488
  399SOL     OW 1640   1.624   1.180   0.454 -0.2616  0.0979 -0.0476
  399SOL    HW2 1641   1.669   1.242   0.397 -0.4088  0.0128 -0.2584
  399SOL    HW3 1642   1.682   1.105   0.460 -0.5698 -0.1967 -0.6789
  399SOL    MW4 1643   1.637   1.178   0.447 -0.3216  0.0478 -0.1587
  400SOL     OW 1644   0.415   0.131   0.756 -0.4974 -0.1465  0.1874
  400SOL    HW2 1645   0.340   0.083   0.791 -1.2093  0.6643 -0.1982
  400SOL    HW3 1646   0.397   0.138   0.663 -0.1016  0.3351  0.1471
  400SOL    MW4 1647   0.402   0.126   0.749 -0.5391  0.0240  0.1312
  401SOL     OW 1648   2.486   1.535   0.858  0.2533  0.0781 -0.3093
  401SOL    HW2 1649   2.562   1.585   0.830  0.2330  0.5177  0.3986
  401SOL    HW3 1650   2.411   1.590   0.835  0.2491  0.5773  0.8451
  401SOL    MW4 1651   2.486   1.549   0.851  0.2496  0.2019 -0.0636
  402SOL     OW 1652   0.286   4.482   0.354  0.0646  0.0707  0.2828
  402SOL    HW2 1653   0.356   4.521   0.302 -1.1081 -1.0093 -2.1935
  402SOL    HW3 1654   0.222   4.552   0.365 -0.7194 -0.3084 -1.6963
  402SOL    MW4 1655   0.287   4.496   0.348 -0.1936 -0.1216 -0.3050
  403SOL     OW 1656   2.401   0.190   0.675 -0.4698 -0.2427 -0.0434
  403SOL    HW2 1657   2.334   0.152   0.619  0.6284 -0.0951 -1.5027
  403SOL    HW3 1658   2.454   0.243   0.616  0.7766 -0.1463  1.1288
  403SOL    MW4 1659   2.399   0.192   0.660 -0.1605 -0.2105 -0.0812
  404SOL     OW 1660   1.563   2.355   0.880  0.1271 -0.0253 -0.1898
  404SOL    HW2 1661   1.557   2.276   0.827  0.7424 -0.4203  0.3218
  404SOL    HW3 1662   1.519   2.422   0.828 -0.0787 -0.6185 -0.7881
  404SOL    MW4 1663   1.556   2.353   0.866  0.1812 -0.1559 -0.2012
  405SOL     OW 1664   2.898   3.081   0.849  0.0165  0.3470  0.6031
  405SOL    HW2 1665   2.916   3.014   0.784  3.1551  2.3996 -0.7915
  405SOL    HW3 1666   2.845   3.146   0.802 -1.2972 -0.1665  1.3549
  405SOL    MW4 1667   2.893   3.081   0.834  0.2573  0.5500  0.5183
  406SOL     OW 1668   2.907   2.087   0.806  0.0737 -0.2164 -0.3448
  406SOL    HW2 1669   2.989   2.078   0.854  0.1657  0.2626 -0.4098
  406SOL    HW3 1670   2.855   2.012   0.833 -0.5639  0.9769  1.8977
  406SOL    MW4 1671   2.911   2.076   0.816  0.0017  0.0043 -0.0575
  407SOL     OW 1672   2.771   3.536   0.837  0.1911 -0.3316  0.0460
  407SOL    HW2 1673   2.765   3.526   0.932 -0.6350  0.8131  0.1275
  407SOL    HW3 1674   2.856   3.579   0.823 -0.0303  0.1946  0.3238
  407SOL    MW4 1675   2.782   3.541   0.848  0.0529 -0.1111  0.0935
  408SOL     OW 1676   0.949   3.291   0.444  0.3425  0.4787 -0.3109
  408SOL    HW2 1677   0.999   3.212   0.425  0.4709  0.2742  0.8301
  408SOL    HW3 1678   0.877   3.289   0.381  0.0391 -0.8366  0.0539
  408SOL    MW4 1679   0.946   3.280   0.433  0.3194  0.2782 -0.1122
  409SOL     OW 1680   1.327   4.238   0.875  0.2121 -0.2067 -0.0311
  409SOL    HW2 1681   1.408   4.279   0.847  0.2581 -1.5082 -1.8567
  409SOL    HW3 1682   1.259   4.303   0.857  0.7166  0.4924  0.5737
  409SOL    MW4 1683   1.329   4.252   0.869  0.2849 -0.2871 -0.1922
  410SOL     OW 1684   2.766   4.039   0.775  0.4929  0.0313 -0.0828
  410SOL    HW2 1685   2.686   3.997   0.807  1.9483 -2.0481  0.9352
  410SOL    HW3 1686   2.762   4.128   0.811 -0.4238 -0.6595  1.6082
  410SOL    MW4 1687   2.755   4.045   0.784  0.5641 -0.3343  0.2746
  411SOL     OW 1688   3.322   1.235   0.492 -0.3194 -0.1508  0.7049
  411SOL    HW2 1689   3.379   1.278   0.429 -0.9794 -1.7942 -1.0856
  411SOL    HW3 1690   3.360   1.255   0.577  0.7847  1.8445 -0.2215
  411SOL    MW4 1691   3.334   1.243   0.494 -0.2608 -0.1043  0.3465
  412SOL     OW 1692   3.435   3.602   0.756  0.0557  0.3372  0.2552
  412SOL    HW2 1693   3.449   3.685   0.800  1.6413  0.1558  0.1011
  412SOL    HW3 1694   3.406   3.625   0.668 -0.4628  0.7139  0.5247
  412SOL    MW4 1695   3.433   3.616   0.751  0.1962  0.3626  0.2704
  413SOL     OW 1696   2.412   2.585   0.450 -0.2384 -0.4340  0.3679
  413SOL    HW2 1697   2.454   2.502   0.426 -1.7478 -0.5565 -1.9688
  413SOL    HW3 1698   2.318   2.566   0.449 -0.6774  1.5609 -1.3910
  413SOL    MW4 1699   2.405   2.572   0.447 -0.4957 -0.1872 -0.1725
  414SOL     OW 1700   0.893   4.264   0.845 -0.6941  0.2846 -0.2373
  414SOL    HW2 1701   0.893   4.177   0.806 -1.1797 -0.5010  1.4723
  414SOL    HW3 1702   0.819   4.309   0.803 -0.4234 -0.1056 -1.1406
  414SOL    MW4 1703   0.883   4.259   0.834 -0.7225  0.1297 -0.1309
  415SOL     OW 1704   2.705   0.929   0.722 -0.0206  0.3049 -0.3689
  415SOL    HW2 1705   2.789   0.894   0.754  0.8412  2.4494 -0.1644
  415SOL    HW3 1706   2.714   0.928   0.627 -0.5139 -1.1798 -0.4169
  415SOL    MW4 1707   2.718   0.924   0.714  0.0279  0.3920 -0.3482
  416SOL     OW 1708   2.728   1.030   0.429  0.6676 -0.2993  0.2248
  416SOL    HW2 1709   2.798   1.086   0.397 -1.0390  1.1131 -1.1516
  416SOL    HW3 1710   2.652   1.088   0.435 -0.5093 -1.8928  1.2476
  416SOL    MW4 1711   2.727   1.045   0.426  0.2873 -0.3231  0.1781
  417SOL     OW 1712   0.395   4.089   0.502 -0.1109 -0.1415  0.1399
  417SOL    HW2 1713   0.415   4.057   0.590  0.2215 -0.2672  0.0211
  417SOL    HW3 1714   0.317   4.143   0.513 -0.2184 -0.3619  0.4702
  417SOL    MW4 1715   0.387   4.091   0.515 -0.0812 -0.1874  0.1678
  418SOL     OW 1716   1.882   1.778   0.486  0.1668  0.3050  0.0546
  418SOL    HW2 1717   1.802   1.744   0.446  0.6505  0.0682 -0.7350
  418SOL    HW3 1718   1.884   1.739   0.574 -0.7364  0.5577  0.1905
  418SOL    MW4 1719   1.871   1.768   0.492  0.1113  0.3071 -0.0316
  419SOL     OW 1720   2.267   3.006   0.319 -0.0398 -0.2632 -0.0446
  419SOL    HW2 1721   2.335   2.957   0.366 -0.2402 -0.1572  0.3566
  419SOL    HW3 1722   2.293   3.000   0.227  0.6452 -0.0194  0.1277
  419SOL    MW4 1723   2.280   2.999   0.313  0.0241 -0.2172  0.0311
  420SOL     OW 1724   2.702   0.398   0.815 -0.1303 -0.1181  0.2016
  420SOL    HW2 1725   2.765   0.467   0.793  0.8421 -1.2708 -0.7036
  420SOL    HW3 1726   2.728   0.370   0.902  0.6896 -0.6739 -0.2195
  420SOL    MW4 1727   2.714   0.404   0.823  0.1063 -0.3435  0.0266
  421SOL     OW 1728   3.482   2.115   0.499  0.1195  0.4784  0.3368
  421SOL    HW2 1729   3.453   2.108   0.590 -1.1717 -1.5413 -0.1955
  421SOL    HW3 1730   3.402   2.131   0.450  0.8379  1.7396 -0.4246
  421SOL    MW4 1731   3.468   2.116   0.505  0.0439  0.3786  0.1661
  422SOL     OW 1732   4.104   0.255   0.498 -0.2264  0.1904  0.0967
  422SOL    HW2 1733   4.162   0.330   0.484 -0.7373  0.8278  1.3030
  422SOL    HW3 1734   4.016   0.291   0.496 -0.4833 -0.4004  0.5587
  422SOL    MW4 1735   4.100   0.269   0.496 -0.3276  0.1966  0.3168
  423SOL     OW 1736   1.398   2.509   0.731 -0.1618 -0.3239  0.5662
  423SOL    HW2 1737   1.325   2.457   0.765 -0.6751 -0.2808 -0.4422
  423SOL    HW3 1738   1.381   2.598   0.761 -1.0473 -0.1342 -0.4805
  423SOL    MW4 1739   1.386   2.513   0.739 -0.3464 -0.2930  0.2950
  424SOL     OW 1740   2.457   0.736   0.487 -0.2623 -0.4756  0.0001
  424SOL    HW2 1741   2.544   0.746   0.448 -0.7775 -0.9409 -1.3192
  424SOL    HW3 1742   2.473   0.738   0.581  1.1964 -0.6829 -0.2166
  424SOL    MW4 1743   2.471   0.737   0.494 -0.1380 -0.5643 -0.2026
  425SOL     OW 1744   3.045   2.895   0.704  0.0944 -0.0649 -0.0211
  425SOL    HW2 1745   3.008   2.826   0.651  0.8150  0.0819 -0.7240
  425SOL    HW3 1746   3.126   2.858   0.739 -1.3111 -0.8423  2.5552
  425SOL    MW4 1747   3.051   2.881   0.702  0.0041 -0.1478  0.2261
  426SOL     OW 1748   1.034   1.465   0.139  0.2205 -0.2044 -0.4875
  426SOL    HW2 1749   1.036   1.559   0.155  0.2080 -0.3135  0.1633
  426SOL    HW3 1750   0.943   1.439   0.153  0.3413 -0.4122 -0.0660
  426SOL    MW4 1751   1.022   1.474   0.143  0.2348 -0.2462 -0.3460
  427SOL     OW 1752   3.216   2.575   0.914 -0.5456 -0.2067  0.0849
  427SOL    HW2 1753   3.277   2.501   0.909  0.2672  0.3371  1.4191
  427SOL    HW3 1754   3.261   2.647   0.869 -0.9658 -0.2875 -0.4668
  427SOL    MW4 1755   3.230   2.575   0.908 -0.4940 -0.1454  0.1881
  428SOL     OW 1756   0.617   0.234   0.393  0.1566 -0.1350 -0.0220
  428SOL    HW2 1757   0.691   0.209   0.448  1.7904  0.7218 -1.7310
  428SOL    HW3 1758   0.617   0.330   0.396  0.7780 -0.0484 -2.1022
  428SOL    MW4 1759   0.627   0.244   0.400  0.4541 -0.0105 -0.5220
  429SOL     OW 1760   3.613   3.200   0.753 -0.5051 -0.2234  0.0281
  429SOL    HW2 1761   3.639   3.201   0.661 -0.1626 -0.7849  0.1151
  429SOL    HW3 1762   3.626   3.290   0.783 -0.1667 -0.1465 -0.3447
  429SOL    MW4 1763   3.618   3.212   0.745 -0.4153 -0.2873 -0.0095
  430SOL     OW 1764   4.489   2.711   0.873  0.3655 -0.1139  0.4831
  430SOL    HW2 1765   4.393   2.708   0.873  0.3652 -0.1761 -0.6692
  430SOL    HW3 1766   4.512   2.747   0.959 -0.7048  0.4939  0.5176
  430SOL    MW4 1767   4.479   2.715   0.884  0.2241 -0.0420  0.3356
  431SOL     OW 1768   3.179   4.267   0.859 -0.3225  0.2950 -0.0570
  431SOL    HW2 1769   3.182   4.184   0.811 -1.3034 -1.2819  2.4759
  431SOL    HW3 1770   3.102   4.312   0.823 -1.0179 -0.8303 -0.0282
  431SOL    MW4 1771   3.169   4.262   0.848 -0.5438 -0.0610  0.2810
  432SOL     OW 1772   4.325   0.780   0.343 -0.1973 -0.0683 -0.6332
  432SOL    HW2 1773   4.405   0.815   0.382 -0.4052 -1.0004  0.6722
  432SOL    HW3 1774   4.335   0.796   0.249  1.1915  0.4784 -0.4051
  432SOL    MW4 1775   4.337   0.787   0.336 -0.0415 -0.1191 -0.4309
  433SOL     OW 1776   3.171   0.969   0.491  0.3837  0.3603  0.1900
  433SOL    HW2 1777   3.210   1.055   0.473  0.7904 -0.2240 -1.8036
  433SOL    HW3 1778   3.243   0.907   0.483  0.1595 -0.1663  1.9322
  433SOL    MW4 1779   3.185   0.972   0.487  0.4077  0.2137  0.1568
  434SOL     OW 1780   2.073   1.126   0.401  0.2765 -0.1739  0.2190
  434SOL    HW2 1781   2.008   1.056   0.406 -0.0120  0.1544  1.4120
  434SOL    HW3 1782   2.158   1.080   0.403  0.0900 -0.6154 -1.6757
  434SOL    MW4 1783   2.076   1.111   0.402  0.2141 -0.1887  0.1264
  435SOL     OW 1784   3.905   4.568   0.288  0.0932 -0.0144 -0.0412
  435SOL    HW2 1785   3.857   4.632   0.341 -0.2353 -0.2850 -0.0064
  435SOL    HW3 1786   3.843   4.543   0.220  0.9088  1.1867 -1.2469
  435SOL    MW4 1787   3.890   4.573   0.286  0.1581  0.1092 -0.1957
  436SOL     OW 1788   0.695   3.181   0.311  0.1357 -0.3956  0.4293
  436SOL    HW2 1789   0.624   3.127   0.345  0.0438  0.7348  2.1086
  436SOL    HW3 1790   0.761   3.119   0.281 -0.4217 -1.4458  1.3339
  436SOL    MW4 1791   0.694   3.166   0.312  0.0501 -0.3850  0.7702
  437SOL     OW 1792   3.005   0.009   0.864 -0.1757 -0.1786  0.1195
  437SOL    HW2 1793   2.921   0.034   0.825  0.4175 -0.0111 -1.0583
  437SOL    HW3 1794   2.992   0.023   0.958 -2.0249 -1.7487  0.1319
  437SOL    MW4 1795   2.992   0.014   0.871 -0.3414 -0.3636 -0.0343
  438SOL     OW 1796   3.394   3.847   0.860  0.5179 -0.3028 -0.2342
  438SOL    HW2 1797   3.403   3.865   0.953 -0.9598  0.0531 -0.1566
  438SOL    HW3 1798   3.472   3.887   0.820 -0.3257  2.0939  0.4952
  438SOL    MW4 1799   3.406   3.854   0.867  0.2115  0.0601 -0.1277
  439SOL     OW 1800   3.575   0.363   0.945  0.3726 -0.2479  0.0381
  439SOL    HW2 1801   3.591   0.270   0.929 -1.4192 -0.4546 -0.6571
  439SOL    HW3 1802   3.582   0.372   1.040 -0.4397 -1.2925  0.2028
  439SOL    MW4 1803   3.578   0.352   0.956  0.0288 -0.4130 -0.0319
  440SOL     OW 1804   2.498   0.411   0.476 -0.0964 -0.0891  0.0020
  440SOL    HW2 1805   2.590   0.422   0.452  0.3611 -2.3072  0.6484
  440SOL    HW3 1806   2.482   0.480   0.541  0.7911  0.9889 -0.8955
  440SOL    MW4 1807   2.508   0.422   0.482  0.0808 -0.2395 -0.0311
  441SOL     OW 1808   0.300   2.809   0.498  0.0495  0.3978  0.0712
  441SOL    HW2 1809   0.299   2.830   0.591  0.3748 -0.1517  0.2016
  441SOL    HW3 1810   0.338   2.722   0.493 -0.2897  0.2772 -0.5513
  441SOL    MW4 1811   0.305   2.800   0.509  0.0477  0.3097  0.0063
  442SOL     OW 1812   1.351   3.273   0.430 -0.1542  0.0228 -0.2293
  442SOL    HW2 1813   1.281   3.210   0.413  0.4037 -0.4413 -0.8108
  442SOL    HW3 1814   1.365   3.269   0.525  0.2054 -1.0560 -0.3322
  442SOL    MW4 1815   1.344   3.264   0.440 -0.0333 -0.1807 -0.3196
  443SOL     OW 1816   3.688   3.179   0.484  0.3927 -0.1339  0.4579
  443SOL    HW2 1817   3.713   3.087   0.497 -0.4322 -0.4103  0.1370
  443SOL    HW3 1818   3.770   3.227   0.488  1.0754 -1.1134 -1.4117
  443SOL    MW4 1819   3.702   3.173   0.487  0.3738 -0.2997  0.1689
  444SOL     OW 1820   4.117   2.439   0.747 -0.3299  0.2299 -0.1367
  444SOL    HW2 1821   4.126   2.406   0.657 -0.1906 -1.0810  0.3386
  444SOL    HW3 1822   4.029   2.414   0.773 -0.3159  0.4676  0.1416
  444SOL    MW4 1823   4.107   2.431   0.739 -0.3099  0.0882 -0.0373
  445SOL     OW 1824   2.730   1.652   0.774 -0.3413  0.6657 -0.0887
  445SOL    HW2 1825   2.727   1.742   0.804 -0.0479  0.7275 -0.2508
  445SOL    HW3 1826   2.812   1.617   0.808  0.0718  0.7841 -0.9644
  445SOL    MW4 1827   2.740   1.659   0.782 -0.2480  0.6895 -0.2255
  446SOL     OW 1828   0.114   1.948   0.872  0.0250  0.2446 -0.3815
  446SOL    HW2 1829   0.104   1.868   0.822  1.6389  0.1359 -0.5556
  446SOL    HW3 1830   0.186   1.994   0.829  0.1629  1.0346  0.6830
  446SOL    MW4 1831   0.122   1.944   0.860  0.2562  0.3345 -0.2640
  447SOL     OW 1832   3.402   1.595   0.831 -0.0559 -0.1772  0.7956
  447SOL    HW2 1833   3.403   1.571   0.924 -0.8570 -0.5209  0.7145
  447SOL    HW3 1834   3.399   1.512   0.784  0.4898 -0.0091  0.4543
  447SOL    MW4 1835   3.402   1.581   0.837 -0.0894 -0.2004  0.7398
  448SOL     OW 1836   2.496   1.794   0.478 -0.3725 -0.2066  0.0370
  448SOL    HW2 1837   2.447   1.736   0.536 -1.1068 -0.8744 -1.2262
  448SOL    HW3 1838   2.579   1.748   0.464 -0.2669 -0.1312  0.4030
  448SOL    MW4 1839   2.500   1.780   0.484 -0.4554 -0.2848 -0.0813
  449SOL     OW 1840   2.160   2.453   0.541  0.0380  0.3494 -0.2518
  449SOL    HW2 1841   2.156   2.448   0.636  0.0022 -0.1917 -0.2828
  449SOL    HW3 1842   2.161   2.362   0.511 -0.5388  0.5185 -0.7933
  449SOL    MW4 1843   2.160   2.440   0.549 -0.0429  0.3006 -0.3273
  450SOL     OW 1844   0.677   3.666   0.476 -0.1556  0.2053 -0.2300
  450SOL    HW2 1845   0.643   3.592   0.425 -0.2731  0.7755 -0.9777
  450SOL    HW3 1846   0.619   3.739   0.456  0.5210  0.7537 -0.2204
  450SOL    MW4 1847   0.665   3.665   0.467 -0.0818  0.3531 -0.3274
  451SOL     OW 1848   1.376   2.757   0.802  0.1796  0.4114  0.0989
  451SOL    HW2 1849   1.375   2.752   0.898  0.9745  0.3818  0.1062
  451SOL    HW3 1850   1.300   2.811   0.781 -0.5632 -0.3684  0.6946
  451SOL    MW4 1851   1.366   2.763   0.812  0.1864  0.3047  0.1785
  452SOL     OW 1852   3.250   3.464   0.919 -0.0684 -0.1493 -0.0566
  452SOL    HW2 1853   3.320   3.498   0.864 -0.8909  1.0305 -0.4079
  452SOL    HW3 1854   3.224   3.382   0.878  0.0383  0.1983 -0.8289
  452SOL    MW4 1855   3.256   3.458   0.906 -0.1626  0.0525 -0.2048
  453SOL     OW 1856   1.731   0.465   0.203 -0.0526 -0.0047 -0.1927
  453SOL    HW2 1857   1.721   0.506   0.117  0.4240  0.2984 -0.0998
  453SOL    HW3 1858   1.748   0.537   0.263 -1.1328 -0.1300  0.2886
  453SOL    MW4 1859   1.732   0.480   0.199 -0.1322  0.0187 -0.1170
  454SOL     OW 1860   1.377   3.248   0.696 -0.2376 -0.0819 -0.0031
  454SOL    HW2 1861   1.373   3.330   0.746 -0.6787  0.4452 -0.8815
  454SOL    HW3 1862   1.298   3.201   0.722 -0.6141  0.3180 -0.4203
  454SOL    MW4 1863   1.366   3.253   0.706 -0.3455  0.0405 -0.1740
  455SOL     OW 1864   1.533   3.902   0.237  0.2536  0.1837 -0.3068
  455SOL    HW2 1865   1.463   3.837   0.248 -0.8294  1.1670 -1.2383
  455SOL    HW3 1866   1.559   3.895   0.145  0.0022  1.1870 -0.4631
  455SOL    MW4 1867   1.527   3.892   0.226  0.0775  0.4458 -0.4504
  456SOL     OW 1868   3.802   0.752   0.844 -0.3093  0.0363  0.0211
  456SOL    HW2 1869   3.798   0.663   0.810 -2.0692  0.2943 -0.5125
  456SOL    HW3 1870   3.756   0.748   0.928 -0.3806  0.4228  0.0049
  456SOL    MW4 1871   3.795   0.740   0.851 -0.5510  0.1214 -0.0514
  457SOL     OW 1872   0.484   3.861   0.376 -0.5856  0.1651 -0.2045
  457SOL    HW2 1873   0.433   3.936   0.407  0.6455  1.2695 -0.8451
  457SOL    HW3 1874   0.541   3.897   0.308  0.9209 -1.0938  0.3719
  457SOL    MW4 1875   0.485   3.876   0.371 -0.2244  0.1447 -0.2130
  458SOL     OW 1876   3.612   4.232   0.873 -0.0161 -0.1067  0.0262
  458SOL    HW2 1877   3.527   4.271   0.852  0.7213  1.7729  0.4000
  458SOL    HW3 1878   3.674   4.282   0.820  0.9306 -1.0070  0.2752
  458SOL    MW4 1879   3.609   4.244   0.863  0.2060  0.0229  0.1083
  459SOL     OW 1880   4.015   4.267   1.133  0.0402  0.2426  0.0484
  459SOL    HW2 1881   3.950   4.330   1.164 -0.2651 -0.3511  0.6231
  459SOL    HW3 1882   3.998   4.259   1.039 -0.8749 -0.0956  0.2370
  459SOL    MW4 1883   4.004   4.275   1.125 -0.1206  0.1197  0.1491
  460SOL     OW 1884   2.566   2.342   0.858 -0.3507 -0.2148 -0.2949
  460SOL    HW2 1885   2.660   2.355   0.874 -0.3798 -0.4528  0.0574
  460SOL    HW3 1886   2.537   2.426   0.821 -0.0967  0.0251  0.0410
  460SOL    MW4 1887   2.575   2.355   0.855 -0.3209 -0.2146 -0.2041
  461SOL     OW 1888   3.390   1.340   0.742 -0.4928  0.2171  0.4767
  461SOL    HW2 1889   3.470   1.295   0.771  0.4878 -0.4155 -3.0412
  461SOL    HW3 1890   3.319   1.291   0.784  0.7910 -1.7172  0.4783
  461SOL    MW4 1891   3.391   1.327   0.752 -0.1943 -0.1215  0.0128
  462SOL     OW 1892   4.033   3.975   0.738  0.5331  0.1883  0.0861
  462SOL    HW2 1893   4.103   3.952   0.799  0.6539 -0.4135 -0.2776
  462SOL    HW3 1894   4.074   3.968   0.652 -0.6611 -2.6868 -0.2807
  462SOL    MW4 1895   4.048   3.971   0.735  0.3915 -0.2704 -0.0103
  463SOL     OW 1896   2.412   4.566   0.371 -0.2765 -0.3156 -0.2352
  463SOL    HW2 1897   2.349   4.595   0.436  2.4571  1.7431  1.5989
  463SOL    HW3 1898   2.440   4.479   0.401 -1.3797 -0.7331 -0.4217
  463SOL    MW4 1899   2.408   4.558   0.383 -0.0615 -0.0992 -0.0178
  464SOL     OW 1900   3.612   2.474   0.778  0.3584  0.1056  0.1106
  464SOL    HW2 1901   3.686   2.420   0.804  0.4546  0.2416  0.1195
  464SOL    HW3 1902   3.603   2.458   0.684  0.0630 -0.3217  0.2099
  464SOL    MW4 1903   3.620   2.465   0.769  0.3324  0.0670  0.1248
  465SOL     OW 1904   1.946   2.057   0.523 -0.3166 -0.1040  0.0665
  465SOL    HW2 1905   1.855   2.088   0.520 -0.8286 -1.5927 -0.1879
  465SOL    HW3 1906   1.940   1.963   0.510  1.2448 -0.2806  0.4885
  465SOL    MW4 1907   1.933   2.049   0.521 -0.1781 -0.3240  0.0886
  466SOL     OW 1908   3.597   1.189   0.864  0.0317  0.2112 -0.1872
  466SOL    HW2 1909   3.605   1.094   0.850  1.4249  0.2895 -0.0034
  466SOL    HW3 1910   3.585   1.199   0.958  0.0567  0.2239 -0.1852
  466SOL    MW4 1911   3.596   1.178   0.874  0.2189  0.2232 -0.1627
  467SOL     OW 1912   1.529   3.028   0.467  0.1394  0.1249  0.2992
  467SOL    HW2 1913   1.472   3.103   0.449  0.2420  0.9543  3.1906
  467SOL    HW3 1914   1.476   2.952   0.443 -0.5728  1.0629 -1.1351
  467SOL    MW4 1915   1.514   3.028   0.462  0.0591  0.3581  0.4914
  468SOL     OW 1916   1.244   1.914   0.270 -0.6108  0.1117 -0.4191
  468SOL    HW2 1917   1.170   1.856   0.252 -0.9389  0.9226 -1.6773
  468SOL    HW3 1918   1.207   1.985   0.322 -0.4577 -0.1330  0.0301
  468SOL    MW4 1919   1.229   1.915   0.275 -0.6340  0.1863 -0.5259
  469SOL     OW 1920   3.368   3.679   0.467  0.0643 -0.0091  0.4167
  469SOL    HW2 1921   3.429   3.647   0.400  0.8774  0.3642  0.9721
  469SOL    HW3 1922   3.356   3.772   0.446  2.0317  0.6691  2.0348
  469SOL    MW4 1923   3.374   3.687   0.455  0.4311  0.1295  0.7035
  470SOL     OW 1924   4.469   1.171   0.877 -0.3554  0.5649 -0.0608
  470SOL    HW2 1925   4.400   1.229   0.845  1.4179  2.0353 -1.3268
  470SOL    HW3 1926   4.458   1.170   0.972 -2.2513  0.5957 -0.2703
  470SOL    MW4 1927   4.459   1.178   0.885 -0.3717  0.7629 -0.2555
  471SOL     OW 1928   1.597   3.111   1.135  0.3413 -0.0089 -0.1711
  471SOL    HW2 1929   1.588   3.138   1.044  0.5983 -0.6335 -0.3863
  471SOL    HW3 1930   1.685   3.137   1.159  0.0819  0.6473  0.0666
  471SOL    MW4 1931   1.607   3.118   1.126  0.3409 -0.0045 -0.1681
  472SOL     OW 1932   0.040   0.900   0.471  0.0858 -0.3320 -0.2795
  472SOL    HW2 1933   0.033   0.894   0.566  0.7182  0.3341 -0.1834
  472SOL    HW3 1934   0.002   0.985   0.450  1.3321  0.1960 -0.4593
  472SOL    MW4 1935   0.034   0.911   0.481  0.3337 -0.1744 -0.2905
  473SOL     OW 1936   1.608   2.884   0.692 -0.2566 -0.4820  0.3765
  473SOL    HW2 1937   1.537   2.825   0.717  0.5781 -1.8606 -0.4509
  473SOL    HW3 1938   1.572   2.936   0.620 -0.2313 -1.6188 -0.4734
  473SOL    MW4 1939   1.594   2.883   0.686 -0.1433 -0.8137  0.1552
  474SOL     OW 1940   0.882   3.896   0.473 -0.0715 -0.0534 -1.0431
  474SOL    HW2 1941   0.834   3.813   0.482  0.0009 -0.0332 -0.4194
  474SOL    HW3 1942   0.880   3.933   0.561 -0.4083  0.7793 -1.4005
  474SOL    MW4 1943   0.875   3.890   0.486 -0.1064  0.0591 -1.0080
  475SOL     OW 1944   3.599   1.848   0.542 -0.1635 -0.2421 -0.2568
  475SOL    HW2 1945   3.570   1.778   0.484 -0.0040  0.0966 -0.7511
  475SOL    HW3 1946   3.572   1.929   0.497  0.2668  0.0313 -0.0301
  475SOL    MW4 1947   3.591   1.850   0.528 -0.0858 -0.1613 -0.2921
  476SOL     OW 1948   3.957   2.796   0.810 -0.0026 -0.1645 -0.2803
  476SOL    HW2 1949   3.884   2.737   0.830 -0.2257 -0.7413 -2.6342
  476SOL    HW3 1950   3.924   2.883   0.833 -0.4008 -0.7310  1.3267
  476SOL    MW4 1951   3.943   2.800   0.815 -0.0844 -0.3154 -0.3788
  477SOL     OW 1952   4.464   3.227   0.752  0.2902 -0.7699  0.1029
  477SOL    HW2 1953   4.401   3.176   0.802 -0.0413  0.4034  0.9007
  477SOL    HW3 1954   4.546   3.177   0.758  0.2391 -0.6538  1.7690
  477SOL    MW4 1955   4.467   3.214   0.759  0.2398 -0.5996  0.4280
  478SOL     OW 1956   1.151   0.026   0.905 -0.2189  0.1333 -0.0382
  478SOL    HW2 1957   1.078   0.081   0.877  0.2794 -0.1863 -2.1010
  478SOL    HW3 1958   1.132  -0.060   0.868  0.4668 -0.3165  0.6571
  478SOL    MW4 1959   1.139   0.022   0.896 -0.0628  0.0315 -0.2186
  479SOL     OW 1960   3.817   3.054   0.876 -0.3289  0.2175  0.0915
  479SOL    HW2 1961   3.873   3.088   0.806  0.2787  0.5187  0.7210
  479SOL    HW3 1962   3.730   3.089   0.856 -0.2371  0.0209 -0.7047
  479SOL    MW4 1963   3.813   3.063   0.864 -0.2367  0.2313  0.0695
  480SOL     OW 1964   1.920   2.595   0.503 -0.5394  0.3675 -0.0719
  480SOL    HW2 1965   1.955   2.676   0.464 -1.4024  1.1916  0.8309
  480SOL    HW3 1966   1.996   2.539   0.514  0.2750  1.5754  0.5360
  480SOL    MW4 1967   1.935   2.599   0.499 -0.5457  0.6356  0.1274
  481SOL     OW 1968   0.012   3.990   0.779  0.1312  0.1143  0.4390
  481SOL    HW2 1969   0.008   3.973   0.685 -0.4248  0.4824  0.3943
  481SOL    HW3 1970   0.095   3.950   0.807 -0.3956 -1.2606  0.0643
  481SOL    MW4 1971   0.023   3.983   0.770 -0.0114 -0.0186  0.3837
  482SOL     OW 1972   0.170   1.300   0.478 -0.1775 -0.1252  0.2085
  482SOL    HW2 1973   0.259   1.302   0.444 -0.2893 -0.4917 -0.1077
  482SOL    HW3 1974   0.180   1.301   0.573  0.1620 -0.1063  0.1710
  482SOL    MW4 1975   0.183   1.301   0.486 -0.1475 -0.1709  0.1618
  483SOL     OW 1976   3.821   3.847   0.867  0.1448 -0.0515  0.3260
  483SOL    HW2 1977   3.893   3.884   0.815 -0.5100  2.5953  1.1890
  483SOL    HW3 1978   3.744   3.898   0.841 -1.2381 -2.1825  0.1457
  483SOL    MW4 1979   3.820   3.859   0.857 -0.1237  0.0162  0.4161
  484SOL     OW 1980   0.632   2.798   0.522  0.1611 -0.2009  0.1165
  484SOL    HW2 1981   0.589   2.712   0.525  0.1156 -0.2103 -0.8245
  484SOL    HW3 1982   0.569   2.854   0.478  0.2233  0.3058  0.6705
  484SOL    MW4 1983   0.618   2.794   0.517  0.1634 -0.1354  0.0655
  485SOL     OW 1984   0.196   4.667   1.148  0.0725  0.1277 -0.3065
  485SOL    HW2 1985   0.267   4.722   1.181  0.2143  0.5126 -1.2351
  485SOL    HW3 1986   0.222   4.646   1.058 -0.4510 -0.6556 -0.2774
  485SOL    MW4 1987   0.209   4.671   1.141  0.0221  0.0751 -0.4252
  486SOL     OW 1988   4.460   0.117   1.257 -0.0036 -0.5226 -0.0982
  486SOL    HW2 1989   4.388   0.064   1.220  0.2416 -1.7531  1.1454
  486SOL    HW3 1990   4.539   0.076   1.221  0.1475 -0.3754  0.0696
  486SOL    MW4 1991   4.461   0.104   1.247  0.0486 -0.6655  0.0882
  487SOL     OW 1992   4.475   0.379   1.124  0.0203  0.6888 -0.4627
  487SOL    HW2 1993   4.399   0.413   1.172 -0.1243 -0.0936 -0.1153
  487SOL    HW3 1994   4.485   0.289   1.157  1.7190  1.1053  0.2227
  487SOL    MW4 1995   4.466   0.371   1.135  0.2255  0.6405 -0.3264
  488SOL     OW 1996   0.175   0.736   1.141  0.2162  0.5341  0.2819
  488SOL    HW2 1997   0.252   0.776   1.183 -0.8883  0.5958  2.3206
  488SOL    HW3 1998   0.103   0.796   1.162 -1.0102 -1.2542  1.3060
  488SOL    MW4 1999   0.176   0.750   1.150 -0.0913  0.3063  0.6862
  489SOL     OW 2000   3.196   0.154   0.758 -0.0560 -0.0362 -0.4076
  489SOL    HW2 2001   3.270   0.119   0.807  0.0037  0.1591 -0.3572
  489SOL    HW3 2002   3.120   0.108   0.793  0.1291 -0.8320 -1.0243
  489SOL    MW4 2003   3.196   0.143   0.769 -0.0238 -0.1155 -0.4823
  490SOL     OW 2004   4.454   0.895   1.217  0.1920  0.0740  0.3621
  490SOL    HW2 2005   4.463   0.904   1.312  1.0237  2.4872  0.1105
  490SOL    HW3 2006   4.376   0.841   1.205 -0.2650  0.2177  2.4047
  490SOL    MW4 2007   4.445   0.889   1.228  0.2413  0.4114  0.5983
  491SOL     OW 2008   4.465   1.147   1.171 -0.1360 -0.3001  0.2497
  491SOL    HW2 2009   4.384   1.198   1.176  0.5046  0.7936 -0.3867
  491SOL    HW3 2010   4.437   1.056   1.185 -1.4234  0.1084  0.3891
  491SOL    MW4 2011   4.451   1.142   1.173 -0.2213 -0.1019  0.1841
  492SOL     OW 2012   0.241   1.221   1.245 -0.0922 -0.0824  0.2126
  492SOL    HW2 2013   0.309   1.167   1.204 -0.2234  1.2274 -1.7840
  492SOL    HW3 2014   0.158   1.183   1.214 -0.2029  0.5837 -0.3086
  492SOL    MW4 2015   0.239   1.209   1.235 -0.1241  0.1782 -0.1194
  493SOL     OW 2016   0.262   1.488   1.142 -0.1491  0.4456 -0.2001
  493SOL    HW2 2017   0.278   1.394   1.140 -0.6839  0.3507  0.1961
  493SOL    HW3 2018   0.286   1.517   1.053 -0.6372 -0.1646 -0.5364
  493SOL    MW4 2019   0.267   1.479   1.130 -0.2841  0.3525 -0.1922
  494SOL     OW 2020   0.044   1.628   1.246  0.0904 -0.1486  0.1063
  494SOL    HW2 2021   0.060   1.717   1.215  0.4310  0.5097  2.1272
  494SOL    HW3 2022   0.121   1.578   1.217  0.5081  0.5037  0.0907
  494SOL    MW4 2023   0.057   1.633   1.238  0.1904  0.0243  0.3710
  495SOL     OW 2024   0.076   1.902   1.165  0.0749  0.1833  0.5209
  495SOL    HW2 2025  -0.014   1.932   1.179  0.3453  0.9629  0.6014
  495SOL    HW3 2026   0.088   1.907   1.070  0.6431  1.8889  0.6593
  495SOL    MW4 2027   0.066   1.907   1.154  0.1855  0.5113  0.5498
  496SOL     OW 2028   0.300   2.057   1.222  0.3869  0.0030 -0.4005
  496SOL    HW2 2029   0.289   2.130   1.161 -0.3765  0.7588  0.6191
  496SOL    HW3 2030   0.222   2.003   1.208  0.1894  0.2004 -0.0624
  496SOL    MW4 2031   0.288   2.060   1.212  0.2601  0.1290 -0.2214
  497SOL     OW 2032   0.285   2.342   1.127 -0.5026 -0.3137  0.4396
  497SOL    HW2 2033   0.366   2.344   1.178  0.0356  1.9096 -0.4601
  497SOL    HW3 2034   0.222   2.390   1.181 -0.3213  0.8016 -0.3375
  497SOL    MW4 2035   0.287   2.349   1.141 -0.4076  0.1266  0.2183
  498SOL     OW 2036   0.072   2.484   1.233 -0.0305 -0.6414 -0.3194
  498SOL    HW2 2037   0.073   2.501   1.327 -0.8210 -0.8237 -0.2691
  498SOL    HW3 2038  -0.005   2.428   1.220  0.4921 -1.2195 -0.9726
  498SOL    MW4 2039   0.062   2.479   1.244 -0.0659 -0.7420 -0.3990
  499SOL     OW 2040   0.057   2.753   1.135 -0.2957  0.2569 -0.3129
  499SOL    HW2 2041  -0.017   2.787   1.185 -0.4693  0.9935 -1.0423
  499SOL    HW3 2042   0.056   2.659   1.151 -0.7791  0.3940  0.4870
  499SOL    MW4 2043   0.047   2.745   1.144 -0.3824  0.3724 -0.3035
  500SOL     OW 2044   0.295   2.843   1.263  0.3616  0.1403  0.1267
  500SOL    HW2 2045   0.272   2.843   1.356 -0.1802  1.9621  0.0265
  500SOL    HW3 2046   0.216   2.812   1.219  0.3825 -0.0540  0.2239
  500SOL    MW4 2047   0.282   2.839   1.269  0.2928  0.3550  0.1262
  501SOL     OW 2048   0.255   3.097   1.165  0.2382  0.1816 -0.5160
  501SOL    HW2 2049   0.328   3.153   1.191  0.9583 -0.1790 -1.7327
  501SOL    HW3 2050   0.273   3.013   1.206 -0.0051  0.3752 -0.0106
  501SOL    MW4 2051   0.267   3.093   1.174  0.3012  0.1595 -0.6098
  502SOL     OW 2052   0.018   3.223   1.226 -0.3656  0.2356 -0.2421
  502SOL    HW2 2053  -0.057   3.174   1.192 -0.6341 -0.8149  1.7621
  502SOL    HW3 2054   0.094   3.169   1.204 -0.4568 -0.0071  0.0265
  502SOL    MW4 2055   0.018   3.209   1.219 -0.4131  0.0651  0.0577
  503SOL     OW 2056   4.490   3.503   1.121 -0.0148 -0.0657  0.3199
  503SOL    HW2 2057   4.495   3.409   1.142 -0.2879 -0.3335 -0.7957
  503SOL    HW3 2058   4.505   3.507   1.026  0.5118  1.0693  0.4458
  503SOL    MW4 2059   4.493   3.491   1.111  0.0186  0.0486  0.1892
  504SOL     OW 2060   0.241   3.603   1.229 -0.0988 -0.0534 -0.3552
  504SOL    HW2 2061   0.236   3.615   1.324  1.0974  0.1075 -0.2940
  504SOL    HW3 2062   0.156   3.567   1.204 -0.6207  0.4245  0.6999
  504SOL    MW4 2063   0.229   3.600   1.238 -0.0098  0.0308 -0.2079
  505SOL     OW 2064   0.265   3.858   1.118 -0.4497  0.1783 -0.3023
  505SOL    HW2 2065   0.200   3.909   1.167 -1.1215  1.2090 -2.2015
  505SOL    HW3 2066   0.259   3.770   1.155  0.6556  1.4110  2.9794
  505SOL    MW4 2067   0.255   3.853   1.129 -0.3925  0.4771 -0.1199
  506SOL     OW 2068   0.052   3.981   1.256  0.6476  0.0352  0.0139
  506SOL    HW2 2069   0.039   3.997   1.349  0.2938  0.4247 -0.0986
  506SOL    HW3 2070  -0.034   3.956   1.223  0.3882  1.5581 -0.5306
  506SOL    MW4 2071   0.039   3.980   1.264  0.5667  0.2873 -0.0728
  507SOL     OW 2072   4.486   4.251   1.189  0.3431 -0.1852 -0.1828
  507SOL    HW2 2073   4.555   4.304   1.229 -2.1881  2.2567  1.0869
  507SOL    HW3 2074   4.504   4.162   1.218  2.3404  0.5729  0.9677
  507SOL    MW4 2075   4.498   4.246   1.198  0.2728  0.2370  0.1366
  508SOL     OW 2076   0.200   4.401   1.253  0.2296 -0.3866 -0.1578
  508SOL    HW2 2077   0.202   4.421   1.347 -0.1658 -0.7076 -0.0797
  508SOL    HW3 2078   0.197   4.487   1.210 -0.0354 -0.2485  0.1373
  508SOL    MW4 2079   0.200   4.415   1.260  0.1425 -0.4110 -0.1086
  509SOL     OW 2080   0.649   4.640   1.120  0.1433 -0.1615 -0.3182
  509SOL    HW2 2081   0.714   4.696   1.161 -0.1390 -0.1793  0.1603
  509SOL    HW3 2082   0.656   4.557   1.168 -0.1623 -0.1954 -0.3340
  509SOL    MW4 2083   0.659   4.636   1.132  0.0657 -0.1683 -0.2571
  510SOL     OW 2084   0.428   0.095   1.282 -0.3664 -0.7715 -0.4284
  510SOL    HW2 2085   0.451   0.187   1.275 -0.8755 -0.6117 -0.0384
  510SOL    HW3 2086   0.505   0.048   1.249 -0.1354 -0.2077 -0.6904
  510SOL    MW4 2087   0.441   0.101   1.277 -0.4031 -0.6760 -0.4116
  511SOL     OW 2088   0.189   0.488   1.260  0.1636  0.1007  0.2075
  511SOL    HW2 2089   0.190   0.578   1.228  0.1782  0.3880  1.0058
  511SOL    HW3 2090   0.112   0.449   1.219 -1.0614  1.1022  1.4972
  511SOL    MW4 2091   0.179   0.495   1.251  0.0039  0.2707  0.4832
  512SOL     OW 2092   0.651   0.526   1.253  0.3875  0.3425  0.2448
  512SOL    HW2 2093   0.649   0.603   1.197  1.6652  0.5990  0.5411
  512SOL    HW3 2094   0.573   0.476   1.228  1.1470  0.2463 -2.0381
  512SOL    MW4 2095   0.640   0.529   1.243  0.6562  0.3636 -0.0173
  513SOL     OW 2096   0.664   0.760   1.107 -0.3172  0.2306 -0.2423
  513SOL    HW2 2097   0.582   0.807   1.120  0.1341  1.2412 -0.9569
  513SOL    HW3 2098   0.669   0.746   1.012 -0.0408 -0.5116 -0.1216
  513SOL    MW4 2099   0.654   0.764   1.096 -0.2212  0.2660 -0.3207
  514SOL     OW 2100   0.429   0.839   1.236 -0.0292 -0.0418 -0.0543
  514SOL    HW2 2101   0.438   0.850   1.330 -1.2970 -0.3162  0.1033
  514SOL    HW3 2102   0.430   0.928   1.201 -1.6985  0.1687  0.4182
  514SOL    MW4 2103   0.430   0.852   1.243 -0.4167 -0.0502  0.0288
  515SOL     OW 2104   0.462   1.093   1.146 -0.1309 -0.3796 -0.2891
  515SOL    HW2 2105   0.529   1.146   1.190 -0.1197 -0.9648  0.4191
  515SOL    HW3 2106   0.479   1.104   1.053  1.1837 -0.8112 -0.1127
  515SOL    MW4 2107   0.473   1.101   1.140  0.0440 -0.5138 -0.1724
  516SOL     OW 2108   0.664   1.275   1.205  0.2275 -0.9579 -0.3256
  516SOL    HW2 2109   0.737   1.229   1.164  1.6348  1.1087 -0.1981
  516SOL    HW3 2110   0.693   1.366   1.212 -2.8447  0.1575 -1.3672
  516SOL    MW4 2111   0.677   1.281   1.201  0.0079 -0.5380 -0.4461
  517SOL     OW 2112   0.691   1.567   1.147  0.0394 -0.4993 -0.2802
  517SOL    HW2 2113   0.770   1.597   1.190 -0.5264  1.4287 -0.5633
  517SOL    HW3 2114   0.619   1.602   1.199 -0.6415 -0.6281 -1.1060
  517SOL    MW4 2115   0.692   1.575   1.159 -0.1251 -0.2620 -0.4265
  518SOL     OW 2116   0.449   1.657   1.260 -0.0578  0.1243  0.0376
  518SOL    HW2 2117   0.465   1.651   1.355  1.8615  1.3631 -0.1766
  518SOL    HW3 2118   0.391   1.584   1.241 -0.0936 -0.4255  2.1038
  518SOL    MW4 2119   0.444   1.647   1.270  0.1907  0.2152  0.2818
  519SOL     OW 2120   0.503   1.908   1.137  0.1358  0.2762  0.4263
  519SOL    HW2 2121   0.470   1.825   1.172  0.7663 -0.0584  0.2330
  519SOL    HW3 2122   0.435   1.971   1.157 -0.0030 -0.1372  1.2797
  519SOL    MW4 2123   0.490   1.905   1.144  0.2007  0.1776  0.5134
  520SOL     OW 2124   0.734   2.060   1.198 -0.6285 -0.2577  0.6111
  520SOL    HW2 2125   0.738   2.087   1.289 -1.8625  0.7611  0.3815
  520SOL    HW3 2126   0.660   1.999   1.193 -2.5601  2.0778 -0.2624
  520SOL    MW4 2127   0.725   2.056   1.209 -1.0461  0.1848  0.4656
  521SOL     OW 2128   0.772   2.321   1.085 -0.0933 -0.3066  0.4522
  521SOL    HW2 2129   0.700   2.349   1.141  0.7247  0.0946  1.3203
  521SOL    HW3 2130   0.778   2.227   1.097  0.1858 -0.1960  1.1666
  521SOL    MW4 2131   0.764   2.313   1.094  0.0515 -0.2394  0.6610
  522SOL     OW 2132   0.550   2.395   1.226  0.7034  0.1462  0.0086
  522SOL    HW2 2133   0.543   2.400   1.322 -0.4998 -2.1461  0.0680
  522SOL    HW3 2134   0.533   2.485   1.197 -0.8228  0.5035  1.8587
  522SOL    MW4 2135   0.547   2.408   1.235  0.3433 -0.1092  0.2605
  523SOL     OW 2136   0.526   2.685   1.166 -0.0347 -0.2742 -0.1175
  523SOL    HW2 2137   0.459   2.738   1.208  0.7886 -0.0307  0.9178
  523SOL    HW3 2138   0.504   2.687   1.073 -1.9259 -0.8759  0.2949
  523SOL    MW4 2139   0.514   2.692   1.160 -0.1756 -0.3214  0.0736
  524SOL     OW 2140   0.772   2.841   1.232 -0.3223  0.3557  0.2740
  524SOL    HW2 2141   0.763   2.925   1.187  0.5426 -0.2977 -1.1743
  524SOL    HW3 2142   0.693   2.792   1.208  0.6509 -0.4020 -1.4784
  524SOL    MW4 2143   0.760   2.845   1.223 -0.0798  0.1693 -0.1483
  525SOL     OW 2144   0.717   3.076   1.075 -0.1120  0.0350  0.0799
  525SOL    HW2 2145   0.792   3.130   1.101  0.2407 -0.2038 -0.4371
  525SOL    HW3 2146   0.688   3.114   0.992 -0.6747  0.2348  0.3649
  525SOL    MW4 2147   0.723   3.088   1.067 -0.1397  0.0298  0.0494
  526SOL     OW 2148   0.494   3.205   1.217 -0.1464  0.3332  0.3161
  526SOL    HW2 2149   0.506   3.297   1.196  2.6647  0.2541  1.3536
  526SOL    HW3 2150   0.579   3.165   1.199 -0.8855 -1.7626  1.2984
  526SOL    MW4 2151   0.507   3.212   1.212  0.1270  0.0460  0.5825
  527SOL     OW 2152   0.242   3.685   0.474 -0.0112 -0.2541  0.1892
  527SOL    HW2 2153   0.274   3.597   0.449 -0.3745 -0.4313  0.3506
  527SOL    HW3 2154   0.306   3.745   0.435  1.1179 -0.6444  1.3749
  527SOL    MW4 2155   0.255   3.681   0.466  0.0899 -0.3290  0.3669
  528SOL     OW 2156   0.490   3.492   1.150 -0.3641  0.1532  0.1309
  528SOL    HW2 2157   0.555   3.553   1.184 -1.3320  1.9451 -1.1182
  528SOL    HW3 2158   0.407   3.522   1.187 -0.8093 -0.6096 -0.2368
  528SOL    MW4 2159   0.488   3.504   1.159 -0.5506  0.2887 -0.0824
  529SOL     OW 2160   1.129   3.861   1.070 -0.2750 -0.4355  0.1192
  529SOL    HW2 2161   1.053   3.905   1.107  0.0680 -0.7726  1.2564
  529SOL    HW3 2162   1.114   3.861   0.975 -1.6649 -0.4750  0.3336
  529SOL    MW4 2163   1.117   3.867   1.062 -0.4131 -0.4852  0.2974
  530SOL     OW 2164   0.449   4.030   1.252  0.1327  0.2033  0.0540
  530SOL    HW2 2165   0.388   3.965   1.217 -0.2628  0.5156  0.1636
  530SOL    HW3 2166   0.423   4.112   1.210  0.7735  0.2529 -0.2516
  530SOL    MW4 2167   0.437   4.032   1.242  0.1650  0.2503  0.0281
  531SOL     OW 2168   0.412   4.294   1.151 -0.4842 -0.2632  0.4808
  531SOL    HW2 2169   0.487   4.336   1.194  0.4342  1.2384 -2.4454
  531SOL    HW3 2170   0.335   4.336   1.189  0.2476  0.1184  1.5524
  531SOL    MW4 2171   0.412   4.305   1.162 -0.2665 -0.0157  0.2363
  532SOL     OW 2172   0.664   4.388   1.245  0.4717  0.1955 -0.1386
  532SOL    HW2 2173   0.689   4.393   1.337  0.3364  0.7841 -0.1311
  532SOL    HW3 2174   0.736   4.340   1.203 -0.0921 -1.2319  0.4942
  532SOL    MW4 2175   0.677   4.382   1.251  0.3795  0.0849 -0.0540
  533SOL     OW 2176   1.113   4.633   1.173 -0.4527  0.2493  0.3183
  533SOL    HW2 2177   1.115   4.537   1.175 -1.8107  0.2205  2.8061
  533SOL    HW3 2178   1.127   4.656   1.081  0.0311 -2.3181 -0.2883
  533SOL    MW4 2179   1.115   4.623   1.161 -0.5679 -0.0935  0.5664
  534SOL     OW 2180   0.889   0.124   1.236  0.0706 -0.1634 -0.0175
  534SOL    HW2 2181   0.895   0.136   1.331  0.4317  0.3897 -0.1067
  534SOL    HW3 2182   0.962   0.067   1.214  1.8568  2.1705 -0.3670
  534SOL    MW4 2183   0.899   0.118   1.246  0.3540  0.2175 -0.0753
  535SOL     OW 2184   0.879   0.393   1.126 -0.0611  0.5738 -0.0913
  535SOL    HW2 2185   0.880   0.306   1.166  0.6394  1.0407  0.9329
  535SOL    HW3 2186   0.809   0.439   1.171  0.0607  0.7789 -0.1119
  535SOL    MW4 2187   0.870   0.387   1.137  0.0474  0.6625  0.0410
  536SOL     OW 2188   1.115   0.516   1.198  0.3990 -0.0317 -0.4114
  536SOL    HW2 2189   1.115   0.503   1.293 -0.9132  0.3039 -0.3586
  536SOL    HW3 2190   1.055   0.450   1.165  1.9128 -1.0631 -1.1562
  536SOL    MW4 2191   1.107   0.506   1.206  0.4255 -0.1235 -0.5026
  537SOL     OW 2192   1.163   0.766   1.102 -0.3312 -0.2175  0.3019
  537SOL    HW2 2193   1.078   0.809   1.108 -0.4685 -0.4962  0.3737
  537SOL    HW3 2194   1.149   0.679   1.140  0.2316  0.0855  1.2401
  537SOL    MW4 2195   1.150   0.760   1.108 -0.2751 -0.2143  0.4351
  538SOL     OW 2196   0.912   0.876   1.186 -0.1227 -0.1903  0.0900
  538SOL    HW2 2197   0.893   0.970   1.181  0.7750 -0.0106 -0.1119
  538SOL    HW3 2198   0.833   0.833   1.154 -1.0275  0.4637  1.4127
  538SOL    MW4 2199   0.899   0.883   1.181 -0.1236 -0.0803  0.2378
  539SOL     OW 2200   0.889   1.144   1.130 -0.3897  0.4220 -0.1072
  539SOL    HW2 2201   0.973   1.179   1.162  0.5486 -1.3423 -0.5755
  539SOL    HW3 2202   0.904   1.129   1.037 -0.8591 -0.9413  0.0328
  539SOL    MW4 2203   0.902   1.147   1.122 -0.3278  0.0093 -0.1506
  540SOL     OW 2204   1.143   1.543   1.106 -0.1776  0.1506 -0.3975
  540SOL    HW2 2205   1.166   1.531   1.014 -0.2841 -0.3851 -0.3519
  540SOL    HW3 2206   1.113   1.457   1.135 -1.3520  0.6226 -0.1985
  540SOL    MW4 2207   1.142   1.530   1.097 -0.3467  0.1423 -0.3653
  541SOL     OW 2208   1.126   1.280   1.197  0.0419  0.2237  0.3336
  541SOL    HW2 2209   1.123   1.288   1.293 -0.4759 -0.6565  0.4036
  541SOL    HW3 2210   1.209   1.235   1.180  0.2682  0.6337  0.3451
  541SOL    MW4 2211   1.137   1.275   1.208  0.0035  0.1618  0.3443
  542SOL     OW 2212   0.921   1.682   1.227  0.1560  0.1206 -0.0659
  542SOL    HW2 2213   0.910   1.770   1.190 -1.1085 -0.0567 -0.1200
  542SOL    HW3 2214   0.991   1.643   1.174  1.0455  1.2395  0.2412
  542SOL    MW4 2215   0.929   1.689   1.215  0.1066  0.2449 -0.0324
  543SOL     OW 2216   0.964   1.949   1.074 -0.3519 -0.1469 -0.0462
  543SOL    HW2 2217   1.036   1.990   1.121  1.0381 -1.8846 -0.5985
  543SOL    HW3 2218   0.885   1.987   1.112  0.7798 -0.3369  2.5629
  543SOL    MW4 2219   0.963   1.959   1.085 -0.0192 -0.4011  0.2251
  544SOL     OW 2220   1.192   2.031   1.198  0.1684 -0.0211  0.1409
  544SOL    HW2 2221   1.187   2.036   1.294  1.0421  1.2290  0.1419
  544SOL    HW3 2222   1.223   2.118   1.172  0.7149 -0.6125 -1.2173
  544SOL    MW4 2223   1.196   2.043   1.207  0.3558  0.0658 -0.0383
  545SOL     OW 2224   1.216   2.318   1.117 -0.3917 -0.1836  0.7053
  545SOL    HW2 2225   1.283   2.374   1.156  0.7293 -1.3215  0.4430
  545SOL    HW3 2226   1.133   2.355   1.147  0.3107  1.8861  0.1624
  545SOL    MW4 2227   1.214   2.330   1.126 -0.1512 -0.0606  0.5991
  546SOL     OW 2228   0.984   2.459   1.208  0.2751 -0.2959 -0.2090
  546SOL    HW2 2229   0.969   2.440   1.301  0.3629  0.1554 -0.1028
  546SOL    HW3 2230   0.908   2.421   1.164 -0.1739  0.2031  0.1302
  546SOL    MW4 2231   0.972   2.452   1.214  0.2275 -0.1705 -0.1502
  547SOL     OW 2232   0.975   2.693   1.086 -0.6189 -0.3403 -0.0712
  547SOL    HW2 2233   0.981   2.614   1.139  0.3068  0.7784  1.5243
  547SOL    HW3 2234   0.913   2.749   1.132  0.8857  1.0092  0.3718
  547SOL    MW4 2235   0.968   2.690   1.099 -0.2983 -0.0148  0.1978
  548SOL     OW 2236   1.179   2.838   1.207 -0.3988 -0.2827 -0.0605
  548SOL    HW2 2237   1.178   2.833   1.303 -1.7596  1.6923  0.0626
  548SOL    HW3 2238   1.105   2.783   1.180  0.5922 -1.6479 -0.0492
  548SOL    MW4 2239   1.169   2.830   1.216 -0.4476 -0.2022 -0.0427
  549SOL     OW 2240   1.387   3.234   1.254  0.4894  0.4410  0.1640
  549SOL    HW2 2241   1.460   3.178   1.228 -0.3970 -0.2416 -0.8868
  549SOL    HW3 2242   1.360   3.201   1.340 -0.4588 -1.1684 -0.7487
  549SOL    MW4 2243   1.393   3.222   1.262  0.2472  0.1383 -0.0950
  550SOL     OW 2244   0.912   3.229   1.210 -0.0273 -0.2757  0.1709
  550SOL    HW2 2245   0.913   3.321   1.186 -0.3843 -0.2921  0.0891
  550SOL    HW3 2246   0.999   3.197   1.187  0.0625  0.0181  0.1081
  550SOL    MW4 2247   0.923   3.237   1.204 -0.0626 -0.2391  0.1518
  551SOL     OW 2248   0.907   3.500   1.158  0.1795 -0.1333  0.2112
  551SOL    HW2 2249   0.829   3.544   1.192 -0.6095  0.1824 -1.9135
  551SOL    HW3 2250   0.891   3.494   1.064  2.3537 -0.8323 -0.1287
  551SOL    MW4 2251   0.895   3.505   1.150  0.3623 -0.1838 -0.1140
  552SOL     OW 2252   1.139   3.624   1.249  0.0362 -0.4359  0.2856
  552SOL    HW2 2253   1.160   3.697   1.190  1.8231 -0.9140  0.3110
  552SOL    HW3 2254   1.061   3.584   1.211  0.0002  0.4897 -0.6336
  552SOL    MW4 2255   1.131   3.628   1.236  0.2673 -0.3767  0.1676
  553SOL     OW 2256   0.906   4.003   1.159 -0.0085  0.3087  0.0606
  553SOL    HW2 2257   0.928   3.999   1.252 -0.4754  1.0849  0.2048
  553SOL    HW3 2258   0.825   3.953   1.150 -0.0336  0.3432  0.0946
  553SOL    MW4 2259   0.898   3.996   1.170 -0.0734  0.4158  0.0840
  554SOL     OW 2260   0.702   3.649   1.251 -0.2091  0.0867 -0.0221
  554SOL    HW2 2261   0.699   3.660   1.346 -1.4714  1.0789 -0.1522
  554SOL    HW3 2262   0.693   3.738   1.217 -0.1464 -0.3005 -1.0700
  554SOL    MW4 2263   0.700   3.662   1.259 -0.3674  0.1662 -0.1775
  555SOL     OW 2264   0.871   4.261   1.114 -0.1585 -0.0939 -0.2524
  555SOL    HW2 2265   0.873   4.165   1.117  0.6756 -0.1348 -1.7882
  555SOL    HW3 2266   0.874   4.283   1.021 -2.9342  1.4032 -0.0232
  555SOL    MW4 2267   0.872   4.251   1.102 -0.4147  0.0978 -0.4247
  556SOL     OW 2268   1.118   4.365   1.203 -0.2706  0.1667 -0.1713
  556SOL    HW2 2269   1.113   4.372   1.298  0.8434 -0.0319 -0.0810
  556SOL    HW3 2270   1.036   4.323   1.177 -0.2766 -0.4244  0.7782
  556SOL    MW4 2271   1.107   4.360   1.212 -0.1243  0.0629 -0.0341
  557SOL     OW 2272   1.546   4.640   1.120 -0.0568  0.4359 -0.4174
  557SOL    HW2 2273   1.623   4.690   1.145 -0.2595  0.4182  0.2653
  557SOL    HW3 2274   1.565   4.550   1.147 -0.4769  0.5060  0.1310
  557SOL    MW4 2275   1.559   4.635   1.127 -0.1389  0.4425 -0.2549
  558SOL     OW 2276   1.335   0.106   1.264  0.1314  0.2120  0.3607
  558SOL    HW2 2277   1.409   0.066   1.220  0.2801 -1.5292  2.1477
  558SOL    HW3 2278   1.259   0.055   1.236  0.0494 -0.0581  1.0541
  558SOL    MW4 2279   1.334   0.094   1.255  0.1403 -0.0534  0.6880
  559SOL     OW 2280   1.338   0.362   1.146  0.7830  0.2001  0.4208
  559SOL    HW2 2281   1.330   0.279   1.193  0.1354  0.4539  0.7724
  559SOL    HW3 2282   1.256   0.408   1.165  0.3727  0.1794 -1.1989
  559SOL    MW4 2283   1.326   0.358   1.155  0.6435  0.2309  0.2534
  560SOL     OW 2284   1.564   0.523   1.202  0.4062  0.1203 -0.0788
  560SOL    HW2 2285   1.542   0.616   1.200  0.0630  0.0405 -0.0777
  560SOL    HW3 2286   1.489   0.480   1.161  1.6023  0.0225 -2.2153
  560SOL    MW4 2287   1.551   0.530   1.197  0.5187  0.0969 -0.3606
  561SOL     OW 2288   1.567   0.793   1.155  0.1396 -0.2909 -0.4057
  561SOL    HW2 2289   1.642   0.837   1.195  0.1905 -0.6014 -0.1562
  561SOL    HW3 2290   1.568   0.821   1.064  0.5218 -0.2443 -0.3876
  561SOL    MW4 2291   1.577   0.803   1.148  0.1968 -0.3257 -0.3704
  562SOL     OW 2292   1.332   0.897   1.264  0.1499 -0.1123 -0.1086
  562SOL    HW2 2293   1.416   0.855   1.245  0.5017  1.0079 -1.1487
  562SOL    HW3 2294   1.268   0.847   1.214  0.6235  0.7921 -1.6799
  562SOL    MW4 2295   1.335   0.885   1.255  0.2588  0.1549 -0.4531
  563SOL     OW 2296   1.374   1.141   1.132 -0.0582  0.0296 -0.0007
  563SOL    HW2 2297   1.369   1.055   1.173 -0.0268  0.1843  0.3326
  563SOL    HW3 2298   1.385   1.123   1.039  0.2869 -0.3279  0.1076
  563SOL    MW4 2299   1.375   1.128   1.125 -0.0087  0.0027  0.0575
  564SOL     OW 2300   1.594   1.279   1.235  0.2401  0.3669  0.1690
  564SOL    HW2 2301   1.679   1.238   1.215  0.6331  0.7236  1.0734
  564SOL    HW3 2302   1.529   1.215   1.206  0.8327 -0.4112  0.5242
  564SOL    MW4 2303   1.597   1.265   1.229  0.3703  0.3111  0.3351
  565SOL     OW 2304   1.615   1.503   1.060 -0.3277  0.1568 -0.0529
  565SOL    HW2 2305   1.674   1.567   1.099  0.8908 -0.0133 -1.5684
  565SOL    HW3 2306   1.609   1.433   1.126  1.2841  0.1127  0.0714
  565SOL    MW4 2307   1.622   1.502   1.074  0.0457  0.1286 -0.2364
  566SOL     OW 2308   1.395   1.633   1.210 -0.3572  0.1106 -0.5633
  566SOL    HW2 2309   1.460   1.579   1.165 -0.0917  0.4492 -0.5884
  566SOL    HW3 2310   1.311   1.604   1.174 -0.3111 -1.1427  0.3420
  566SOL    MW4 2311   1.393   1.622   1.199 -0.3161 -0.0101 -0.4473
  567SOL     OW 2312   1.402   1.877   1.079 -0.1177  0.2119  0.0497
  567SOL    HW2 2313   1.399   1.796   1.130 -0.5656 -0.1365 -0.5318
  567SOL    HW3 2314   1.324   1.926   1.108  0.8910  1.0613  1.4210
  567SOL    MW4 2315   1.391   1.873   1.090 -0.0437  0.2781  0.1539
  568SOL     OW 2316   1.572   2.062   1.204  0.2235  0.3513 -0.5447
  568SOL    HW2 2317   1.547   2.151   1.183 -0.7434 -0.0391 -1.0781
  568SOL    HW3 2318   1.523   2.008   1.142 -0.4547 -0.6475  0.8346
  568SOL    MW4 2319   1.562   2.066   1.193  0.0067  0.1681 -0.4331
  569SOL     OW 2320   1.554   2.331   1.169  0.3706 -0.2998 -0.2551
  569SOL    HW2 2321   1.485   2.392   1.198  3.3639  2.9662  0.3968
  569SOL    HW3 2322   1.560   2.344   1.075  0.3817 -0.2612 -0.2491
  569SOL    MW4 2323   1.546   2.341   1.161  0.7670  0.1361 -0.1682
  570SOL     OW 2324   1.348   2.513   1.237 -0.1989  0.1134  0.0404
  570SOL    HW2 2325   1.376   2.524   1.327 -0.8397 -0.1916  0.2785
  570SOL    HW3 2326   1.376   2.594   1.194 -1.0865  0.8568  0.8256
  570SOL    MW4 2327   1.355   2.525   1.243 -0.4007  0.1709  0.1754
  571SOL     OW 2328   2.868   3.492   0.514  0.0833 -0.0287 -0.0115
  571SOL    HW2 2329   2.960   3.519   0.522  0.0080  0.3815 -0.4809
  571SOL    HW3 2330   2.822   3.547   0.578 -0.0749  1.0060 -0.9945
  571SOL    MW4 2331   2.874   3.503   0.523  0.0527  0.1621 -0.2031
  572SOL     OW 2332   1.413   2.737   1.077  0.3074  0.2792  0.2963
  572SOL    HW2 2333   1.492   2.768   1.121 -0.6350  1.0189  1.5030
  572SOL    HW3 2334   1.341   2.778   1.126 -0.8652 -1.4161  0.0303
  572SOL    MW4 2335   1.413   2.747   1.089  0.0284  0.1528  0.4205
  573SOL     OW 2336   1.829   3.212   1.210 -0.3022  0.1202  0.1349
  573SOL    HW2 2337   1.829   3.222   1.305  2.0807  0.5399  0.1431
  573SOL    HW3 2338   1.819   3.302   1.177  1.0733  0.2489  0.0315
  573SOL    MW4 2339   1.828   3.225   1.218  0.1938  0.1922  0.1223
  574SOL     OW 2340   1.388   3.483   1.152  0.0173 -0.0811 -0.2316
  574SOL    HW2 2341   1.394   3.394   1.188 -0.5015 -0.3778 -0.8589
  574SOL    HW3 2342   1.327   3.528   1.210 -1.0867 -0.6600 -0.9290
  574SOL    MW4 2343   1.381   3.477   1.164 -0.1968 -0.1969 -0.4064
  575SOL     OW 2344   1.390   3.479   0.873  0.2880 -0.1016 -0.1894
  575SOL    HW2 2345   1.473   3.523   0.853  0.7087 -0.6689  0.3132
  575SOL    HW3 2346   1.382   3.484   0.968 -0.9093  1.1165 -0.3268
  575SOL    MW4 2347   1.399   3.486   0.883  0.1855 -0.0160 -0.1412
  576SOL     OW 2348   1.611   3.605   1.254  0.1364 -0.0758 -0.7246
  576SOL    HW2 2349   1.607   3.688   1.206  1.2837  0.2689 -0.2274
  576SOL    HW3 2350   1.546   3.550   1.210 -0.7861  1.1415 -0.9300
  576SOL    MW4 2351   1.602   3.609   1.242  0.1661  0.1304 -0.6862
  577SOL     OW 2352   1.593   3.859   1.143 -0.1638  0.0727 -0.0164
  577SOL    HW2 2353   1.507   3.892   1.168 -0.4605 -1.4989  1.1177
  577SOL    HW3 2354   1.590   3.854   1.047 -2.1547 -2.0894  0.1127
  577SOL    MW4 2355   1.581   3.863   1.134 -0.4658 -0.4199  0.1503
  578SOL     OW 2356   1.337   3.969   1.228  0.0585 -0.0736 -0.0989
  578SOL    HW2 2357   1.348   4.060   1.202  0.0093 -0.0302  0.0305
  578SOL    HW3 2358   1.255   3.942   1.186 -0.1869  0.0908  0.2638
  578SOL    MW4 2359   1.328   3.977   1.219  0.0197 -0.0463 -0.0339
  579SOL     OW 2360   1.588   4.666   0.838 -0.0287 -0.0730  0.2655
  579SOL    HW2 2361   1.569   4.628   0.923  0.2322  1.4401  1.0181
  579SOL    HW3 2362   1.505   4.704   0.809 -0.3494 -1.3769 -0.5925
  579SOL    MW4 2363   1.574   4.666   0.845 -0.0366 -0.0448  0.2516
  580SOL     OW 2364   1.344   4.234   1.149  0.3150  0.5291  0.0278
  580SOL    HW2 2365   1.260   4.275   1.167  0.0842  0.8232 -1.6460
  580SOL    HW3 2366   1.347   4.225   1.053  0.7669 -2.4402  0.2739
  580SOL    MW4 2367   1.333   4.238   1.138  0.3442  0.1769 -0.1607
  581SOL     OW 2368   1.997   0.022   1.080  0.8591 -0.1883  0.4007
  581SOL    HW2 2369   2.019  -0.071   1.090  0.0752 -0.3517  0.6377
  581SOL    HW3 2370   1.966   0.030   0.990 -1.0457 -0.5759  0.9969
  581SOL    MW4 2371   1.996   0.011   1.069  0.5043 -0.2609  0.5106
  582SOL     OW 2372   1.768   0.130   1.222  0.2886 -0.3188 -0.0575
  582SOL    HW2 2373   1.765   0.223   1.201 -0.1725 -0.2700  0.2128
  582SOL    HW3 2374   1.840   0.095   1.170 -1.0504 -0.2747 -1.9673
  582SOL    MW4 2375   1.777   0.137   1.213  0.0510 -0.3066 -0.2738
  583SOL     OW 2376   1.805   0.391   1.150  0.0391 -0.2812  0.0838
  583SOL    HW2 2377   1.725   0.436   1.175  0.1931 -0.6155  1.1885
  583SOL    HW3 2378   1.811   0.404   1.055 -0.8110  0.5555  0.1389
  583SOL    MW4 2379   1.795   0.399   1.141 -0.0528 -0.2149  0.2369
  584SOL     OW 2380   2.059   0.451   1.227  0.2192 -0.6783  0.0945
  584SOL    HW2 2381   2.041   0.455   1.321  1.0692  0.8966  0.2214
  584SOL    HW3 2382   1.976   0.426   1.187  0.0359 -2.0669  1.3262
  584SOL    MW4 2383   2.046   0.448   1.234  0.3071 -0.6537  0.2737
  585SOL     OW 2384   2.037   0.731   1.156  0.0505  0.1858 -0.2772
  585SOL    HW2 2385   2.035   0.642   1.193  1.1668  0.2257 -0.1208
  585SOL    HW3 2386   2.047   0.717   1.062  0.3278  0.1510 -0.2420
  585SOL    MW4 2387   2.038   0.717   1.149  0.2344  0.1864 -0.2519
  586SOL     OW 2388   1.805   0.874   1.266  0.1891  0.1154 -0.4117
  586SOL    HW2 2389   1.827   0.873   1.359  0.5468  0.4686 -0.4887
  586SOL    HW3 2390   1.869   0.817   1.225  0.2280  0.2070 -0.4798
  586SOL    MW4 2391   1.817   0.867   1.273  0.2415  0.1740 -0.4308
  587SOL     OW 2392   1.819   1.128   1.166 -0.2307  0.1796  0.2963
  587SOL    HW2 2393   1.813   1.038   1.199 -2.5952  0.1345 -0.1406
  587SOL    HW3 2394   1.805   1.119   1.071 -1.0943  1.0688  0.3350
  587SOL    MW4 2395   1.816   1.115   1.158 -0.6565  0.2910  0.2438
  588SOL     OW 2396   2.011   1.314   1.216  0.2253 -0.1657 -0.1640
  588SOL    HW2 2397   2.091   1.264   1.198 -0.2394 -0.5782 -1.0849
  588SOL    HW3 2398   1.940   1.255   1.191 -0.3945 -0.0244  1.2084
  588SOL    MW4 2399   2.012   1.299   1.210  0.0823 -0.2015 -0.1044
  589SOL     OW 2400   2.049   1.585   1.103 -0.2992 -0.2625  0.2643
  589SOL    HW2 2401   2.027   1.494   1.123  0.2678 -0.5079 -0.1946
  589SOL    HW3 2402   2.067   1.585   1.009 -2.7484  0.8438 -0.2199
  589SOL    MW4 2403   2.049   1.573   1.094 -0.5474 -0.1490  0.1400
  590SOL     OW 2404   1.799   1.680   1.169  0.0962  0.0948  0.1242
  590SOL    HW2 2405   1.788   1.772   1.145  2.2386  0.5407  0.7229
  590SOL    HW3 2406   1.889   1.660   1.143  0.2604 -1.2889  1.7214
  590SOL    MW4 2407   1.810   1.690   1.162  0.4004 -0.0291  0.4139
  591SOL     OW 2408   1.817   1.975   1.120 -0.3731  0.2911 -0.4203
  591SOL    HW2 2409   1.727   1.998   1.146 -0.5596 -0.6285 -0.2282
  591SOL    HW3 2410   1.810   1.953   1.027 -0.3029  0.4596 -0.4649
  591SOL    MW4 2411   1.804   1.975   1.111 -0.3884  0.1920 -0.4008
  592SOL     OW 2412   2.071   2.074   1.217 -0.4334  0.2382  0.0772
  592SOL    HW2 2413   2.079   2.089   1.311 -0.0733  0.9839 -0.0641
  592SOL    HW3 2414   1.978   2.056   1.203 -0.4013 -0.3674  0.6405
  592SOL    MW4 2415   2.059   2.074   1.227 -0.3815  0.2568  0.1327
  593SOL     OW 2416   2.079   2.322   1.071 -0.0913  0.7005 -0.0270
  593SOL    HW2 2417   2.127   2.370   1.139 -0.7016  0.5352  0.5211
  593SOL    HW3 2418   2.091   2.230   1.093  1.1935  0.5748 -1.1575
  593SOL    MW4 2419   2.087   2.316   1.083 -0.0024  0.6621 -0.1038
  594SOL     OW 2420   1.848   2.438   1.174  0.1222 -0.3508  0.2764
  594SOL    HW2 2421   1.930   2.397   1.147 -0.7438 -1.6630 -0.4252
  594SOL    HW3 2422   1.783   2.368   1.169 -0.9718  0.5730  1.2038
  594SOL    MW4 2423   1.850   2.424   1.170 -0.1364 -0.4022  0.3061
  595SOL     OW 2424   1.622   2.854   1.201  0.4612  0.2754  0.4679
  595SOL    HW2 2425   1.689   2.823   1.140 -1.6916 -1.1003 -1.2649
  595SOL    HW3 2426   1.609   2.946   1.179 -0.1570 -0.1639 -1.0281
  595SOL    MW4 2427   1.629   2.862   1.190  0.0957  0.0358  0.0418
  596SOL     OW 2428   1.997   2.841   1.251  0.1765 -0.1022  0.6670
  596SOL    HW2 2429   2.012   2.912   1.189  1.4543  0.0192  1.1115
  596SOL    HW3 2430   1.920   2.795   1.217  0.0641  0.7753 -0.2667
  596SOL    MW4 2431   1.989   2.844   1.238  0.3303  0.0298  0.6025
  597SOL     OW 2432   1.572   3.640   0.541  0.3026 -0.2604 -0.3739
  597SOL    HW2 2433   1.602   3.574   0.479 -0.9416 -2.6659  1.4712
  597SOL    HW3 2434   1.498   3.682   0.497 -1.6978 -3.1568  0.1125
  597SOL    MW4 2435   1.566   3.637   0.527 -0.1255 -0.9601 -0.0663
  598SOL     OW 2436   2.058   3.085   1.125  0.2730  0.0538 -0.0242
  598SOL    HW2 2437   2.069   3.101   1.031  1.3733  1.3299  0.2986
  598SOL    HW3 2438   1.976   3.129   1.147 -0.4463 -1.0059 -0.5484
  598SOL    MW4 2439   2.049   3.093   1.115  0.3231  0.0823 -0.0508
  599SOL     OW 2440   1.837   3.474   1.138  0.5547 -0.2714  0.0047
  599SOL    HW2 2441   1.902   3.514   1.196 -0.5582  1.1429  0.3129
  599SOL    HW3 2442   1.757   3.523   1.155 -0.5558 -1.8918 -0.4842
  599SOL    MW4 2443   1.835   3.486   1.148  0.2613 -0.2985 -0.0191
  600SOL     OW 2444   2.077   3.611   1.209 -0.0426 -0.1311  0.7801
  600SOL    HW2 2445   2.088   3.629   1.302 -0.8889 -1.2186  1.0971
  600SOL    HW3 2446   2.158   3.568   1.183 -0.2928 -0.9321  1.2999
  600SOL    MW4 2447   2.089   3.608   1.218 -0.1874 -0.3803  0.8904
  601SOL     OW 2448   2.050   3.856   1.079 -0.6745 -0.1924  0.1662
  601SOL    HW2 2449   1.983   3.903   1.129  1.1438  0.2443  2.2657
  601SOL    HW3 2450   2.058   3.771   1.124  2.5824  1.0679  2.0726
  601SOL    MW4 2451   2.042   3.851   1.091 -0.0048  0.0317  0.6946
  602SOL     OW 2452   1.826   3.982   1.215 -0.1055 -0.2008 -0.6368
  602SOL    HW2 2453   1.836   3.991   1.310  1.5019 -1.2789 -0.6832
  602SOL    HW3 2454   1.744   3.934   1.204 -0.2935 -0.0841  0.1986
  602SOL    MW4 2455   1.816   3.977   1.226  0.0818 -0.3276 -0.5327
  603SOL     OW 2456   1.580   4.363   1.211  0.1017 -0.1927 -0.4970
  603SOL    HW2 2457   1.497   4.323   1.186  1.3684 -2.5307 -1.1809
  603SOL    HW3 2458   1.573   4.378   1.305 -0.5489 -1.7434 -0.2870
  603SOL    MW4 2459   1.568   4.360   1.220  0.1829 -0.7062 -0.5596
  604SOL     OW 2460   2.048   4.430   1.192 -0.4525 -0.4199  0.4390
  604SOL    HW2 2461   2.072   4.424   1.285 -0.2005 -1.4515  0.3092
  604SOL    HW3 2462   1.965   4.383   1.186  0.3303 -1.7247 -0.1557
  604SOL    MW4 2463   2.040   4.423   1.204 -0.3159 -0.7281  0.3433
  605SOL     OW 2464   2.490   4.651   1.096  0.2952 -0.1708  0.5957
  605SOL    HW2 2465   2.558   4.686   1.153 -0.1127 -0.6035  1.3602
  605SOL    HW3 2466   2.412   4.703   1.117  0.0663 -0.5322  0.6513
  605SOL    MW4 2467   2.489   4.663   1.106  0.2112 -0.2756  0.7037
  606SOL     OW 2468   2.242   0.112   1.187  0.4030  0.2598  0.1892
  606SOL    HW2 2469   2.250   0.191   1.133  0.6259  0.4891  0.5525
  606SOL    HW3 2470   2.150   0.086   1.177  0.1503  0.9540  0.5950
  606SOL    MW4 2471   2.231   0.119   1.178  0.3991  0.3816  0.2906
  607SOL     OW 2472   2.296   0.394   1.085 -0.1265  0.1020 -0.1353
  607SOL    HW2 2473   2.216   0.422   1.129 -0.0237  1.4078 -0.7806
  607SOL    HW3 2474   2.273   0.389   0.993  0.0957 -1.1067 -0.1388
  607SOL    MW4 2475   2.283   0.397   1.079 -0.0834  0.1148 -0.2209
  608SOL     OW 2476   2.529   0.513   1.204 -0.0283 -0.3529 -0.2792
  608SOL    HW2 2477   2.511   0.478   1.292  1.5662  0.0419  0.2276
  608SOL    HW3 2478   2.468   0.467   1.147  0.3273 -2.1659  0.7461
  608SOL    MW4 2479   2.519   0.502   1.208  0.2291 -0.5400 -0.0770
  609SOL     OW 2480   2.517   0.775   1.112  0.2965  0.0262 -0.0888
  609SOL    HW2 2481   2.510   0.683   1.137 -0.7015  0.4310  1.1844
  609SOL    HW3 2482   2.498   0.776   1.018  1.0642 -1.1553 -0.2655
  609SOL    MW4 2483   2.514   0.763   1.103  0.2661 -0.0763  0.0558
  610SOL     OW 2484   2.265   0.903   1.208 -0.1681  0.2715  0.2404
  610SOL    HW2 2485   2.342   0.863   1.167  0.9656  1.7950  0.8185
  610SOL    HW3 2486   2.198   0.835   1.205  0.5449 -0.3638 -2.1776
  610SOL    MW4 2487   2.266   0.889   1.202  0.0753  0.3887 -0.0023
  611SOL     OW 2488   2.226   1.167   1.135 -0.2919  0.2592 -0.2603
  611SOL    HW2 2489   2.313   1.196   1.162 -0.7131 -0.0921  1.5369
  611SOL    HW3 2490   2.220   1.076   1.164 -1.6036  0.5721  0.5032
  611SOL    MW4 2491   2.237   1.159   1.142 -0.5207  0.2542  0.0775
  612SOL     OW 2492   2.479   1.263   1.222  0.1828  0.5000  0.1166
  612SOL    HW2 2493   2.549   1.214   1.180  0.3185 -0.3191  1.2696
  612SOL    HW3 2494   2.497   1.354   1.202  0.5204  0.1628 -1.1665
  612SOL    MW4 2495   2.490   1.268   1.214  0.2453  0.3475  0.0994
  613SOL     OW 2496   2.490   1.519   1.142  0.4838  0.1842 -0.0760
  613SOL    HW2 2497   2.415   1.570   1.171  0.7827  0.9340 -0.6246
  613SOL    HW3 2498   2.488   1.524   1.047  0.3530 -1.0621 -0.1482
  613SOL    MW4 2499   2.480   1.526   1.133  0.5059  0.1186 -0.1580
  614SOL     OW 2500   2.292   1.666   1.219 -0.4217 -0.6496  0.3235
  614SOL    HW2 2501   2.303   1.752   1.179 -1.0517  0.3312  2.1643
  614SOL    HW3 2502   2.207   1.635   1.189 -0.5162 -0.3071  0.2453
  614SOL    MW4 2503   2.282   1.673   1.210 -0.5176 -0.4749  0.5561
  615SOL     OW 2504   2.301   1.924   1.105  0.2411 -0.0163  0.5766
  615SOL    HW2 2505   2.218   1.958   1.139 -0.9256 -2.8307  0.7238
  615SOL    HW3 2506   2.286   1.915   1.010  0.2777 -0.7025  0.6302
  615SOL    MW4 2507   2.288   1.927   1.097  0.0916 -0.4781  0.6032
  616SOL     OW 2508   2.491   2.089   1.211 -0.3947 -0.1031 -0.2771
  616SOL    HW2 2509   2.571   2.041   1.191  0.0549 -0.2581  1.8469
  616SOL    HW3 2510   2.421   2.032   1.181  0.2481 -0.1673 -1.7299
  616SOL    MW4 2511   2.492   2.075   1.204 -0.2506 -0.1323 -0.1884
  617SOL     OW 2512   2.491   2.362   1.142 -0.2726  0.1865  0.3395
  617SOL    HW2 2513   2.484   2.269   1.164 -0.0101  0.2226  0.5830
  617SOL    HW3 2514   2.509   2.363   1.048 -1.3841  0.0319  0.1157
  617SOL    MW4 2515   2.492   2.350   1.133 -0.3846  0.1705  0.3421
  618SOL     OW 2516   2.246   2.452   1.245  0.3831 -0.3261  0.3514
  618SOL    HW2 2517   2.270   2.474   1.335  0.7472  0.5296  0.0489
  618SOL    HW3 2518   2.327   2.417   1.206  0.2011 -0.7858  0.3870
  618SOL    MW4 2519   2.260   2.450   1.251  0.4072 -0.2739  0.3163
  619SOL     OW 2520   3.666   4.241   0.458  0.2267  0.4207 -0.0558
  619SOL    HW2 2521   3.761   4.242   0.453  0.1929  0.9285 -0.7316
  619SOL    HW3 2522   3.642   4.150   0.444  0.5432  0.5539 -1.5534
  619SOL    MW4 2523   3.675   4.229   0.455  0.2639  0.5050 -0.3425
  620SOL     OW 2524   2.213   2.712   1.128 -0.2068  0.2379  0.5079
  620SOL    HW2 2525   2.198   2.623   1.161  0.2437  0.5116  1.4683
  620SOL    HW3 2526   2.155   2.767   1.179 -0.9813  0.4279 -0.5523
  620SOL    MW4 2527   2.203   2.707   1.139 -0.2499  0.2990  0.4947
  621SOL     OW 2528   2.470   2.807   1.216  0.3289  0.1240 -0.0819
  621SOL    HW2 2529   2.401   2.744   1.195  0.2629  0.3739 -0.6425
  621SOL    HW3 2530   2.494   2.788   1.306 -0.9496  0.4748  0.3411
  621SOL    MW4 2531   2.464   2.796   1.225  0.1519  0.2031 -0.1000
  622SOL     OW 2532   2.300   3.198   1.207 -0.4498  0.0628  1.0153
  622SOL    HW2 2533   2.287   3.291   1.187  0.6385 -0.0651 -0.4007
  622SOL    HW3 2534   2.218   3.156   1.181  0.1564  0.2150 -1.1987
  622SOL    MW4 2535   2.287   3.205   1.201 -0.2263  0.0660  0.5364
  623SOL     OW 2536   2.308   3.478   1.120  0.4029 -0.2870 -0.3973
  623SOL    HW2 2537   2.387   3.528   1.140  0.6172 -0.4119 -0.9178
  623SOL    HW3 2538   2.309   3.470   1.025 -0.8683  0.7307 -0.5056
  623SOL    MW4 2539   2.319   3.484   1.110  0.2635 -0.1690 -0.4802
  624SOL     OW 2540   2.544   3.630   1.212  0.0343  0.1091 -0.0206
  624SOL    HW2 2541   2.522   3.633   1.305 -0.0298 -1.2922  0.0236
  624SOL    HW3 2542   2.541   3.722   1.184 -0.8811  0.4534  1.1307
  624SOL    MW4 2543   2.541   3.643   1.221 -0.0949 -0.0303  0.1371
  625SOL     OW 2544   2.521   3.885   1.115 -0.0401 -0.1813  0.1398
  625SOL    HW2 2545   2.437   3.907   1.155  0.0610  0.8954 -0.2159
  625SOL    HW3 2546   2.514   3.917   1.025  1.2966  1.3164  0.5355
  625SOL    MW4 2547   2.509   3.892   1.108  0.1497  0.1585  0.1452
  626SOL     OW 2548   2.275   4.001   1.190 -0.2306 -0.0244 -0.4261
  626SOL    HW2 2549   2.275   4.087   1.148 -0.4466  0.5227  0.6930
  626SOL    HW3 2550   2.206   3.953   1.144 -0.4621  0.5696 -0.7050
  626SOL    MW4 2551   2.266   4.006   1.178 -0.2894  0.1259 -0.3153
  627SOL     OW 2552   2.268   4.288   1.105  0.1744  0.0052  0.3323
  627SOL    HW2 2553   2.188   4.322   1.146  0.1970  1.0501 -0.4662
  627SOL    HW3 2554   2.265   4.322   1.016  1.5556  0.0940  0.3181
  627SOL    MW4 2555   2.257   4.297   1.099  0.3600  0.1550  0.2252
  628SOL     OW 2556   2.476   4.411   1.234  0.1419  0.3413 -0.1312
  628SOL    HW2 2557   2.395   4.374   1.201  0.7588 -0.5734 -0.6323
  628SOL    HW3 2558   2.491   4.489   1.179 -1.2295  1.4405  1.0259
  628SOL    MW4 2559   2.467   4.417   1.222  0.0424  0.3653 -0.0447
  629SOL     OW 2560   2.936   0.033   1.140  0.1364  0.4601  0.0375
  629SOL    HW2 2561   2.851   0.073   1.162 -0.0719  1.0143 -1.7041
  629SOL    HW3 2562   2.929  -0.057   1.173 -0.6861  0.8285  0.9234
  629SOL    MW4 2563   2.924   0.027   1.148  0.0005  0.5822 -0.0753
  630SOL     OW 2564   2.685   0.102   1.246 -0.2055 -0.2483  0.0388
  630SOL    HW2 2565   2.712   0.191   1.224 -0.7176 -0.2658 -0.6503
  630SOL    HW3 2566   2.696   0.097   1.341 -0.5738  0.6807  0.1342
  630SOL    MW4 2567   2.690   0.113   1.256 -0.3219 -0.1280 -0.0396
  631SOL     OW 2568   2.746   0.348   1.111 -0.2376  0.6604  0.5550
  631SOL    HW2 2569   2.664   0.393   1.131 -0.5606 -0.1955  1.1680
  631SOL    HW3 2570   2.812   0.395   1.163 -0.3068  1.4504 -0.0619
  631SOL    MW4 2571   2.744   0.360   1.121 -0.2890  0.6517  0.5546
  632SOL     OW 2572   1.212   2.364   0.427  0.3420  0.0264  0.1100
  632SOL    HW2 2573   1.123   2.400   0.436 -0.1684 -1.3094  0.5842
  632SOL    HW3 2574   1.199   2.269   0.425  1.8097 -0.1983  0.6904
  632SOL    MW4 2575   1.198   2.356   0.428  0.4683 -0.1795  0.2491
  633SOL     OW 2576   2.950   0.750   1.116 -0.1356  0.2354  0.4036
  633SOL    HW2 2577   3.032   0.794   1.139  0.3737 -0.9182  0.8271
  633SOL    HW3 2578   2.884   0.790   1.174  0.5163 -0.2894  1.5158
  633SOL    MW4 2579   2.952   0.761   1.127  0.0174  0.0139  0.6061
  634SOL     OW 2580   2.734   0.903   1.240 -0.2413 -0.4606 -0.2313
  634SOL    HW2 2581   2.720   0.987   1.197 -0.8034  0.4235  1.6445
  634SOL    HW3 2582   2.655   0.852   1.217 -0.4855 -0.0395 -0.3334
  634SOL    MW4 2583   2.721   0.907   1.231 -0.3479 -0.2884  0.0027
  635SOL     OW 2584   2.689   1.150   1.108 -0.3796  0.0284 -0.3199
  635SOL    HW2 2585   2.773   1.191   1.130  0.2148 -0.9863 -0.6398
  635SOL    HW3 2586   2.690   1.144   1.013 -1.0668  0.5385 -0.3553
  635SOL    MW4 2587   2.700   1.155   1.099 -0.3917 -0.0383 -0.3667
  636SOL     OW 2588   2.901   1.277   1.203 -0.0441  0.3035  0.1800
  636SOL    HW2 2589   2.920   1.278   1.296 -0.5023 -1.4828  0.3007
  636SOL    HW3 2590   2.900   1.370   1.178 -2.1359  0.9333  2.3977
  636SOL    MW4 2591   2.903   1.289   1.212 -0.3803  0.1509  0.4886
  637SOL     OW 2592   2.922   1.579   1.161  0.4053  0.4963 -0.3117
  637SOL    HW2 2593   3.000   1.626   1.193  0.8316 -0.6088  0.2980
  637SOL    HW3 2594   2.938   1.567   1.067  1.2725 -0.2663 -0.0797
  637SOL    MW4 2595   2.935   1.584   1.153  0.5763  0.2500 -0.2006
  638SOL     OW 2596   2.681   1.712   1.256  0.1446  0.0508 -0.0653
  638SOL    HW2 2597   2.765   1.687   1.215  0.2556  0.9676 -0.3986
  638SOL    HW3 2598   2.617   1.653   1.216  0.7299 -1.1129  0.6865
  638SOL    MW4 2599   2.684   1.701   1.245  0.2367  0.0182 -0.0101
  639SOL     OW 2600   2.712   1.964   1.125  0.4563  0.6657 -0.1583
  639SOL    HW2 2601   2.785   2.004   1.173  1.0206 -0.6056  0.0679
  639SOL    HW3 2602   2.701   1.878   1.166 -2.2131  1.4654  0.8622
  639SOL    MW4 2603   2.720   1.957   1.137  0.1786  0.6034  0.0061
  640SOL     OW 2604   2.942   2.101   1.215 -0.2784  0.2836  0.2109
  640SOL    HW2 2605   2.952   2.087   1.309 -1.5245 -1.5091  0.1082
  640SOL    HW3 2606   2.954   2.195   1.203  1.5031  0.3167  1.9393
  640SOL    MW4 2607   2.945   2.111   1.226 -0.2079  0.0517  0.4253
  641SOL     OW 2608   2.944   2.363   1.183 -0.2274 -0.3307 -0.4168
  641SOL    HW2 2609   3.026   2.399   1.218 -0.5271 -1.0757  1.1179
  641SOL    HW3 2610   2.879   2.432   1.198 -0.5076 -0.9262  1.2258
  641SOL    MW4 2611   2.946   2.377   1.190 -0.3040 -0.5076  0.0024
  642SOL     OW 2612   2.702   2.507   1.218  0.0547 -0.0609  0.1545
  642SOL    HW2 2613   2.685   2.511   1.312 -0.7264 -1.4235  0.0821
  642SOL    HW3 2614   2.639   2.443   1.185  0.0721  0.6784 -1.3544
  642SOL    MW4 2615   2.691   2.499   1.226 -0.0463 -0.1433 -0.0541
  643SOL     OW 2616   2.712   2.750   1.091 -0.0983 -0.4019 -0.4098
  643SOL    HW2 2617   2.715   2.658   1.116 -0.8348 -0.3432 -0.1081
  643SOL    HW3 2618   2.634   2.785   1.135  0.3964  0.4581 -0.1917
  643SOL    MW4 2619   2.702   2.743   1.100 -0.1302 -0.2806 -0.3412
  644SOL     OW 2620   2.958   2.845   1.223  0.5026 -0.0671 -0.1752
  644SOL    HW2 2621   2.951   2.841   1.318 -0.3111  1.6890 -0.1269
  644SOL    HW3 2622   2.872   2.818   1.191  0.0556  1.4531 -0.3139
  644SOL    MW4 2623   2.946   2.841   1.231  0.3364  0.3650 -0.1870
  645SOL     OW 2624   2.999   3.099   1.107  0.0584  0.1324  0.4974
  645SOL    HW2 2625   2.997   3.014   1.152  0.2326  0.1577  0.5537
  645SOL    HW3 2626   2.973   3.080   1.017  1.8065 -0.2618  0.0493
  645SOL    MW4 2627   2.995   3.085   1.101  0.3119  0.0837  0.4457
  646SOL     OW 2628   2.755   3.219   1.195  0.2347 -0.3499 -0.0771
  646SOL    HW2 2629   2.827   3.168   1.156  0.2524 -0.4121  0.0346
  646SOL    HW3 2630   2.676   3.177   1.163  0.2492 -0.2354 -0.2592
  646SOL    MW4 2631   2.754   3.206   1.186  0.2391 -0.3428 -0.0864
  647SOL     OW 2632   2.744   3.478   1.104  0.3300 -0.0281  0.2312
  647SOL    HW2 2633   2.759   3.393   1.147 -0.8665  0.8661  2.5088
  647SOL    HW3 2634   2.666   3.513   1.148  0.5505  2.0449 -1.0037
  647SOL    MW4 2635   2.736   3.471   1.116  0.2012  0.3633  0.3687
  648SOL     OW 2636   2.954   3.642   1.219  0.2048 -0.1778 -0.3883
  648SOL    HW2 2637   3.031   3.588   1.202  0.7599  0.5670 -0.3035
  648SOL    HW3 2638   2.880   3.592   1.185  0.6264 -1.3022  0.3597
  648SOL    MW4 2639   2.954   3.629   1.212  0.3335 -0.2279 -0.2784
  649SOL     OW 2640   2.978   3.909   1.099  0.0271  0.0803  0.3553
  649SOL    HW2 2641   3.054   3.948   1.142 -0.3030  0.4336  0.6258
  649SOL    HW3 2642   2.968   3.823   1.139  1.6851 -0.9068 -1.3276
  649SOL    MW4 2643   2.986   3.903   1.110  0.2024 -0.0033  0.1689
  650SOL     OW 2644   2.740   4.012   1.266  0.0404  0.1322 -0.0647
  650SOL    HW2 2645   2.809   3.989   1.203  0.5894  1.2672  0.1122
  650SOL    HW3 2646   2.666   3.956   1.241  0.1398  0.7739 -1.9146
  650SOL    MW4 2647   2.739   4.001   1.254  0.1261  0.3672 -0.2854
  651SOL     OW 2648   2.735   4.267   1.188 -0.2224 -0.0218  0.4659
  651SOL    HW2 2649   2.749   4.181   1.227  0.1681  0.1977  0.8211
  651SOL    HW3 2650   2.643   4.286   1.204 -0.2381 -0.2486  0.6488
  651SOL    MW4 2651   2.725   4.258   1.195 -0.1731 -0.0234  0.5370
  652SOL     OW 2652   2.945   4.450   1.231 -0.6347 -0.2150  0.2252
  652SOL    HW2 2653   3.012   4.387   1.205 -1.0155  0.0546 -1.4389
  652SOL    HW3 2654   2.862   4.408   1.205 -0.9680  0.4436  0.2182
  652SOL    MW4 2655   2.943   4.436   1.224 -0.7288 -0.0920  0.0050
  653SOL     OW 2656   3.343   0.012   1.185 -0.2356 -0.7347  0.0940
  653SOL    HW2 2657   3.425   0.055   1.212  0.5461 -1.1618 -1.5216
  653SOL    HW3 2658   3.274   0.070   1.217  0.7537  0.6892 -0.2743
  653SOL    MW4 2659   3.345   0.026   1.193 -0.0019 -0.6032 -0.1680
  654SOL     OW 2660   3.138   0.183   1.249  0.5621  0.0964  0.0784
  654SOL    HW2 2661   3.153   0.161   1.341  0.5589 -1.6119 -0.3055
  654SOL    HW3 2662   3.059   0.135   1.226  1.0148 -0.1386 -1.0202
  654SOL    MW4 2663   3.130   0.173   1.258  0.6218 -0.1600 -0.1172
  655SOL     OW 2664   2.955   0.495   1.233 -0.0691  0.4174 -0.5199
  655SOL    HW2 2665   2.950   0.574   1.180 -1.1585  0.2943 -0.6174
  655SOL    HW3 2666   3.041   0.458   1.212 -0.1424  0.8125 -1.5765
  655SOL    MW4 2667   2.966   0.500   1.223 -0.2224  0.4532 -0.6721
  656SOL     OW 2668   3.354   0.574   1.300 -0.2416 -0.1974  0.4383
  656SOL    HW2 2669   3.317   0.662   1.292 -1.9020 -0.8310  0.8128
  656SOL    HW3 2670   3.304   0.521   1.237  0.5840 -0.9161  0.3725
  656SOL    MW4 2671   3.342   0.578   1.290 -0.3517 -0.3758  0.4790
  657SOL     OW 2672   2.245   3.876   0.440  0.2841 -0.0432 -0.2712
  657SOL    HW2 2673   2.170   3.828   0.405  0.5002  0.4611 -1.4415
  657SOL    HW3 2674   2.315   3.811   0.446  0.7231  0.2160 -2.3232
  657SOL    MW4 2675   2.244   3.861   0.436  0.3707  0.0577 -0.6963
  658SOL     OW 2676   3.199   0.845   1.211 -0.3336 -0.1744 -0.4534
  658SOL    HW2 2677   3.186   0.858   1.305 -0.8864 -1.8268 -0.2872
  658SOL    HW3 2678   3.185   0.932   1.172 -0.2268  0.4840  0.9677
  658SOL    MW4 2679   3.195   0.858   1.218 -0.3922 -0.3056 -0.2439
  659SOL     OW 2680   3.148   1.095   1.121  0.3610  0.1903  0.0806
  659SOL    HW2 2681   3.225   1.139   1.157  0.4615  0.7280 -0.7808
  659SOL    HW3 2682   3.074   1.141   1.161  0.4813 -0.7623  1.4266
  659SOL    MW4 2683   3.148   1.107   1.131  0.3901  0.1354  0.1446
  660SOL     OW 2684   3.333   1.282   1.226 -0.1224 -0.4979  0.1571
  660SOL    HW2 2685   3.345   1.282   1.321  1.2195 -1.5342  0.0009
  660SOL    HW3 2686   3.346   1.373   1.200  0.8121 -0.4335  0.8266
  660SOL    MW4 2687   3.336   1.294   1.235  0.1781 -0.6261  0.2249
  661SOL     OW 2688   3.368   1.526   1.102  0.0964  0.3379 -0.2200
  661SOL    HW2 2689   3.442   1.577   1.134 -1.2876  1.2850  1.6039
  661SOL    HW3 2690   3.291   1.577   1.129 -1.3117 -2.4448  1.1769
  661SOL    MW4 2691   3.367   1.540   1.109 -0.2720  0.0957  0.2049
  662SOL     OW 2692   3.154   1.680   1.222  0.0050  0.1397 -0.0510
  662SOL    HW2 2693   3.151   1.680   1.318  1.9086  0.1530  0.0306
  662SOL    HW3 2694   3.153   1.772   1.198  0.5821  0.1597  0.0014
  662SOL    MW4 2695   3.154   1.692   1.232  0.3324  0.1441 -0.0333
  663SOL     OW 2696   3.162   1.941   1.164 -0.1968 -0.1521 -0.2087
  663SOL    HW2 2697   3.235   1.994   1.194  0.1388 -0.9681  0.4340
  663SOL    HW3 2698   3.088   2.002   1.160  0.1971  0.3767  0.4686
  663SOL    MW4 2699   3.162   1.956   1.168 -0.1004 -0.1899 -0.0346
  664SOL     OW 2700   3.379   2.070   1.245  0.0551 -0.0197 -0.4442
  664SOL    HW2 2701   3.459   2.023   1.220  0.9591  0.5466  1.2889
  664SOL    HW3 2702   3.394   2.160   1.217  0.9237  0.5407  1.7099
  664SOL    MW4 2703   3.392   2.075   1.238  0.2887  0.1290  0.0685
  665SOL     OW 2704   3.406   2.328   1.150  0.0933  0.0347  0.0433
  665SOL    HW2 2705   3.480   2.383   1.178  0.8175 -0.8861 -0.0459
  665SOL    HW3 2706   3.328   2.379   1.175  0.7426  1.6177 -1.0671
  665SOL    MW4 2707   3.405   2.342   1.157  0.2742  0.1221 -0.1149
  666SOL     OW 2708   3.207   2.493   1.224  0.5668  0.0834 -0.2433
  666SOL    HW2 2709   3.203   2.490   1.320 -0.1553 -1.6317 -0.3290
  666SOL    HW3 2710   3.206   2.587   1.204  2.4424  0.5294  1.4922
  666SOL    MW4 2711   3.207   2.505   1.234  0.7188 -0.0842 -0.0257
  667SOL     OW 2712   3.199   2.757   1.122  0.0589 -0.3523  0.0244
  667SOL    HW2 2713   3.108   2.777   1.141  0.2663  0.4914  0.1667
  667SOL    HW3 2714   3.196   2.693   1.051 -0.6363 -0.0295 -0.2386
  667SOL    MW4 2715   3.187   2.751   1.115 -0.0055 -0.1984  0.0083
  668SOL     OW 2716   3.422   2.871   1.246 -0.7245  0.0783 -0.0563
  668SOL    HW2 2717   3.431   2.961   1.216 -0.6440 -0.2240 -0.9492
  668SOL    HW3 2718   3.354   2.834   1.189 -0.7578 -0.4259  0.3082
  668SOL    MW4 2719   3.414   2.878   1.235 -0.7184 -0.0279 -0.1260
  669SOL     OW 2720   3.443   3.140   1.136 -0.1143 -0.5446 -0.3222
  669SOL    HW2 2721   3.516   3.171   1.190  0.3285 -0.3191 -1.0490
  669SOL    HW3 2722   3.365   3.162   1.187  0.3236 -0.8840  0.5081
  669SOL    MW4 2723   3.442   3.147   1.150  0.0021 -0.5596 -0.3086
  670SOL     OW 2724   3.205   3.197   1.267 -0.1849  0.4685  0.6485
  670SOL    HW2 2725   3.186   3.290   1.260  0.7989  0.5884 -0.4987
  670SOL    HW3 2726   3.141   3.154   1.210  0.9151  0.6337 -0.7277
  670SOL    MW4 2727   3.194   3.203   1.259  0.0901  0.5062  0.3155
  671SOL     OW 2728   3.180   3.497   1.187 -0.2251 -0.0205  0.2317
  671SOL    HW2 2729   3.250   3.544   1.233 -0.7128  0.6334  0.2974
  671SOL    HW3 2730   3.220   3.472   1.103 -0.4284  1.7678 -0.4010
  671SOL    MW4 2731   3.195   3.500   1.182 -0.3161  0.3018  0.1570
  672SOL     OW 2732   3.409   3.644   1.253 -0.1367  0.5874  0.2901
  672SOL    HW2 2733   3.415   3.618   1.345 -0.1364  0.9123  0.3827
  672SOL    HW3 2734   3.482   3.599   1.211 -0.0776  0.5166  0.4669
  672SOL    MW4 2735   3.419   3.635   1.259 -0.1290  0.6208  0.3257
  673SOL     OW 2736   3.429   3.898   1.126 -0.6904  0.2907  0.1861
  673SOL    HW2 2737   3.356   3.950   1.158 -0.4741  0.1317  0.9654
  673SOL    HW3 2738   3.425   3.817   1.177  0.9304  0.8980  1.3480
  673SOL    MW4 2739   3.419   3.894   1.137 -0.4478  0.3500  0.4423
  674SOL     OW 2740   3.190   4.014   1.249 -0.6306 -0.1480  0.3746
  674SOL    HW2 2741   3.175   4.012   1.344  0.3231  0.5591  0.5498
  674SOL    HW3 2742   3.162   4.102   1.223  0.0239 -0.0031  0.1588
  674SOL    MW4 2743   3.184   4.026   1.258 -0.4184 -0.0353  0.3693
  675SOL     OW 2744   3.162   4.292   1.152 -0.2457  0.0152 -0.1791
  675SOL    HW2 2745   3.238   4.339   1.188 -0.9416  1.2669 -0.3108
  675SOL    HW3 2746   3.172   4.302   1.057 -1.2420  1.2719 -0.1621
  675SOL    MW4 2747   3.174   4.300   1.144 -0.4687  0.3467 -0.1942
  676SOL     OW 2748   3.387   4.415   1.254  0.1823  0.0440 -0.1323
  676SOL    HW2 2749   3.462   4.401   1.197  1.4014  0.0611  1.4337
  676SOL    HW3 2750   3.368   4.508   1.247  0.1556 -0.0055 -0.7131
  676SOL    MW4 2751   3.394   4.425   1.245  0.3395  0.0401 -0.0023
  677SOL     OW 2752   3.847   0.046   1.136 -0.0784  0.1531 -0.1572
  677SOL    HW2 2753   3.846  -0.048   1.152 -0.3307  0.3556  1.0334
  677SOL    HW3 2754   3.789   0.058   1.060 -1.7707 -0.4288  1.0115
  677SOL    MW4 2755   3.839   0.035   1.128 -0.3350  0.1030  0.1539
  678SOL     OW 2756   3.610   0.113   1.272 -0.1566 -0.0463 -0.1739
  678SOL    HW2 2757   3.598   0.207   1.257 -0.5669  0.4063  2.7595
  678SOL    HW3 2758   3.700   0.096   1.243  0.2268  1.4395  0.0624
  678SOL    MW4 2759   3.620   0.123   1.266 -0.1602  0.2094  0.2441
  679SOL     OW 2760   3.577   0.404   1.227 -0.1292  0.3290 -0.2426
  679SOL    HW2 2761   3.660   0.450   1.229 -0.1433  0.3157  0.7061
  679SOL    HW3 2762   3.513   0.468   1.257 -0.4487  0.3065 -0.8650
  679SOL    MW4 2763   3.579   0.418   1.231 -0.1733  0.3243 -0.1996
  680SOL     OW 2764   3.813   0.531   1.245  0.1678  0.1439 -0.0380
  680SOL    HW2 2765   3.887   0.485   1.206  0.4488  0.5772 -0.0042
  680SOL    HW3 2766   3.808   0.614   1.198 -0.9777 -0.3434 -0.8070
  680SOL    MW4 2767   3.822   0.536   1.233  0.0536  0.1367 -0.1349
  681SOL     OW 2768   3.758   0.769   1.128 -0.1292  0.2078 -0.2744
  681SOL    HW2 2769   3.833   0.827   1.141  0.2973 -0.5967  0.8847
  681SOL    HW3 2770   3.689   0.807   1.184  0.0952 -0.3015  0.3484
  681SOL    MW4 2771   3.758   0.782   1.137 -0.0434  0.0345 -0.0392
  682SOL     OW 2772   3.395   0.762   0.799 -0.1544 -0.0880  0.1761
  682SOL    HW2 2773   3.475   0.814   0.802  0.4037 -0.9962  1.4718
  682SOL    HW3 2774   3.324   0.826   0.807  0.4667  0.6574 -0.2730
  682SOL    MW4 2775   3.396   0.777   0.801  0.0012 -0.1095  0.2878
  683SOL     OW 2776   3.536   0.893   1.247  0.1325 -0.0829 -0.4169
  683SOL    HW2 2777   3.452   0.869   1.207 -0.1028  0.4456 -0.2428
  683SOL    HW3 2778   3.551   0.983   1.218  0.2963  0.0640  0.1257
  683SOL    MW4 2779   3.527   0.902   1.238  0.1230  0.0062 -0.3222
  684SOL     OW 2780   3.795   1.314   1.222 -0.0304 -0.4493 -0.2122
  684SOL    HW2 2781   3.816   1.323   1.315 -0.0526  1.1033 -0.3545
  684SOL    HW3 2782   3.807   1.401   1.186 -0.6420 -0.9087 -1.5512
  684SOL    MW4 2783   3.799   1.327   1.230 -0.1140 -0.3051 -0.4077
  685SOL     OW 2784   3.837   1.572   1.110  0.1117 -0.4135  0.0876
  685SOL    HW2 2785   3.921   1.599   1.149 -0.3066  0.3918  0.4439
  685SOL    HW3 2786   3.852   1.579   1.016 -0.0254  1.2512  0.1653
  685SOL    MW4 2787   3.850   1.577   1.103  0.0384 -0.0879  0.1450
  686SOL     OW 2788   3.587   1.668   1.190 -0.0024 -0.0739  0.0071
  686SOL    HW2 2789   3.588   1.764   1.187 -1.6131 -0.0281  0.7764
  686SOL    HW3 2790   3.671   1.643   1.151  0.7652  1.6647  0.4740
  686SOL    MW4 2791   3.598   1.677   1.184 -0.1135  0.1616  0.1704
  687SOL     OW 2792   3.622   1.951   1.145  0.1564  0.6443  0.2459
  687SOL    HW2 2793   3.622   1.979   1.054  1.7552 -0.8354 -0.2385
  687SOL    HW3 2794   3.699   1.994   1.183  1.3256 -1.1965  0.0585
  687SOL    MW4 2795   3.632   1.960   1.138  0.5217  0.2061  0.1571
  688SOL     OW 2796   3.859   2.065   1.240 -0.2042 -0.0184  0.1440
  688SOL    HW2 2797   3.863   2.061   1.335 -0.0655  0.8789  0.1752
  688SOL    HW3 2798   3.931   2.008   1.211 -0.3051 -0.3647  0.5687
  688SOL    MW4 2799   3.869   2.057   1.248 -0.1993  0.0546  0.2042
  689SOL     OW 2800   3.873   2.334   1.114  0.0859 -0.0399 -0.1691
  689SOL    HW2 2801   3.945   2.381   1.156 -0.6655  1.0018 -0.0226
  689SOL    HW3 2802   3.878   2.245   1.148  0.8692  0.2172  0.3836
  689SOL    MW4 2803   3.883   2.329   1.124  0.0906  0.1316 -0.0768
  690SOL     OW 2804   3.631   2.444   1.226  0.5180 -0.1647 -0.3713
  690SOL    HW2 2805   3.637   2.448   1.321 -0.4471  0.5430 -0.3334
  690SOL    HW3 2806   3.715   2.406   1.198  0.6748 -0.6679  0.7714
  690SOL    MW4 2807   3.643   2.440   1.235  0.4115 -0.1376 -0.2155
  691SOL     OW 2808   3.626   2.711   1.150 -0.0702  0.1496 -0.1808
  691SOL    HW2 2809   3.613   2.620   1.176 -1.0703  0.1728 -0.5855
  691SOL    HW3 2810   3.548   2.757   1.181 -0.2582  0.5842 -1.2661
  691SOL    MW4 2811   3.614   2.705   1.157 -0.2270  0.2100 -0.3774
  692SOL     OW 2812   3.867   2.810   1.238  0.0700  0.1105 -0.0915
  692SOL    HW2 2813   3.859   2.823   1.332  0.3681 -0.7050  0.0443
  692SOL    HW3 2814   3.781   2.775   1.212  0.4227 -0.9035  0.0866
  692SOL    MW4 2815   3.854   2.807   1.247  0.1559 -0.1309 -0.0501
  693SOL     OW 2816   3.862   3.074   1.149 -0.2904  0.3680 -0.3075
  693SOL    HW2 2817   3.875   2.984   1.177 -0.1534  0.1459 -1.0720
  693SOL    HW3 2818   3.841   3.068   1.055 -0.9238  1.0750 -0.2272
  693SOL    MW4 2819   3.861   3.062   1.140 -0.3557  0.4323 -0.3979
  694SOL     OW 2820   3.669   3.236   1.286  0.0393 -0.3935 -0.4841
  694SOL    HW2 2821   3.651   3.316   1.237 -1.4255 -0.1678  0.3958
  694SOL    HW3 2822   3.729   3.187   1.230  1.4091  1.5539 -0.7797
  694SOL    MW4 2823   3.674   3.240   1.272  0.0267 -0.1068 -0.4070
  695SOL     OW 2824   3.613   3.477   1.153  0.4742 -0.1713  0.3996
  695SOL    HW2 2825   3.689   3.528   1.179  0.8128 -0.8776  0.8176
  695SOL    HW3 2826   3.612   3.482   1.057  0.8483  0.1278  0.4128
  695SOL    MW4 2827   3.623   3.484   1.144  0.5684 -0.2253  0.4565
  696SOL     OW 2828   3.832   3.625   1.234  0.4060  0.0684  0.1196
  696SOL    HW2 2829   3.829   3.633   1.329  1.2511  0.4352  0.1218
  696SOL    HW3 2830   3.843   3.715   1.203 -0.0896 -0.0295 -0.3293
  696SOL    MW4 2831   3.833   3.638   1.242  0.4518  0.1037  0.0607
  697SOL     OW 2832   2.036   3.718   0.349  0.2331  0.0608 -0.8569
  697SOL    HW2 2833   1.947   3.734   0.381  0.2595  0.5392 -1.0100
  697SOL    HW3 2834   2.060   3.633   0.386  0.7619  1.1943  1.4870
  697SOL    MW4 2835   2.027   3.709   0.358  0.3064  0.2732 -0.5678
  698SOL     OW 2836   3.625   4.059   1.234  0.1568 -0.1893  0.0866
  698SOL    HW2 2837   3.605   4.048   1.327 -0.5545 -1.2055 -0.1844
  698SOL    HW3 2838   3.554   4.014   1.188  0.9034 -0.3390 -0.9452
  698SOL    MW4 2839   3.613   4.052   1.240  0.1616 -0.3424 -0.0854
  699SOL     OW 2840   3.622   4.319   1.137 -0.0456 -0.3713 -0.5160
  699SOL    HW2 2841   3.614   4.240   1.190 -0.0239 -0.2093 -0.2698
  699SOL    HW3 2842   3.638   4.287   1.049 -0.1147 -0.6440 -0.4307
  699SOL    MW4 2843   3.623   4.305   1.133 -0.0520 -0.3858 -0.4723
  700SOL     OW 2844   3.837   4.452   1.250 -0.4078  0.4918 -0.3259
  700SOL    HW2 2845   3.847   4.432   1.343 -2.1800  0.3007 -0.1489
  700SOL    HW3 2846   3.758   4.404   1.224  1.4179 -1.4148 -2.5263
  700SOL    MW4 2847   3.828   4.443   1.259 -0.4005  0.2146 -0.5929
  701SOL     OW 2848   4.259   4.646   1.135  0.3389 -0.4536  0.2257
  701SOL    HW2 2849   4.254   4.561   1.179 -0.0068 -0.8597 -0.5955
  701SOL    HW3 2850   4.189   4.697   1.176  2.9343  0.7372  3.4327
  701SOL    MW4 2851   4.249   4.641   1.147  0.6356 -0.3495  0.5405
  702SOL     OW 2852   4.080   0.143   1.241  0.1717  0.0469 -0.2580
  702SOL    HW2 2853   4.077   0.126   1.335 -0.2869 -0.6317 -0.3894
  702SOL    HW3 2854   3.997   0.109   1.208 -0.0211  1.0290 -0.7875
  702SOL    MW4 2855   4.069   0.136   1.249  0.0858  0.0869 -0.3452
  703SOL     OW 2856   4.006   0.384   1.144  0.3485  0.7735  0.5945
  703SOL    HW2 2857   4.036   0.299   1.178  0.6992  0.4660 -0.4877
  703SOL    HW3 2858   4.002   0.372   1.049 -2.5778  0.9741  0.6286
  703SOL    MW4 2859   4.009   0.371   1.136  0.0081  0.7594  0.4562
  704SOL     OW 2860   4.259   0.497   1.242 -0.3120 -0.0802 -0.6046
  704SOL    HW2 2861   4.257   0.492   1.337 -0.9055  0.9182 -0.5636
  704SOL    HW3 2862   4.192   0.435   1.213  0.3675 -0.9185 -0.3961
  704SOL    MW4 2863   4.250   0.488   1.250 -0.3009 -0.0591 -0.5717
  705SOL     OW 2864   4.227   0.747   1.124 -0.4054 -0.2996  0.2612
  705SOL    HW2 2865   4.241   0.659   1.158 -1.2115 -0.7041 -0.4118
  705SOL    HW3 2866   4.248   0.739   1.030 -0.8731  0.1184  0.1211
  705SOL    MW4 2867   4.232   0.734   1.116 -0.5736 -0.2978  0.1539
  706SOL     OW 2868   3.994   0.914   1.222 -0.3290 -0.4040 -0.4422
  706SOL    HW2 2869   4.011   0.917   1.316 -0.4748  1.7198 -0.4533
  706SOL    HW3 2870   4.052   0.845   1.189  0.8739 -0.1003  0.9758
  706SOL    MW4 2871   4.004   0.906   1.230 -0.1893 -0.0837 -0.2564
  707SOL     OW 2872   3.978   1.166   1.088 -0.0662  0.0613 -0.4530
  707SOL    HW2 2873   3.981   1.079   1.128  0.4151  0.1882 -0.2138
  707SOL    HW3 2874   3.904   1.209   1.130 -0.9445 -0.5840 -1.2957
  707SOL    MW4 2875   3.968   1.160   1.099 -0.1190 -0.0069 -0.5325
  708SOL     OW 2876   4.209   1.275   1.226 -0.5525  0.4185 -0.1776
  708SOL    HW2 2877   4.194   1.248   1.317  0.4834  1.4676  0.3126
  708SOL    HW3 2878   4.132   1.244   1.179 -1.1364 -0.0606  1.0739
  708SOL    MW4 2879   4.197   1.267   1.232 -0.4926  0.4938  0.0522
  709SOL     OW 2880   4.291   1.535   1.153 -0.0301 -0.4265 -0.0282
  709SOL    HW2 2881   4.263   1.449   1.186  0.4367 -0.3811  0.5060
  709SOL    HW3 2882   4.376   1.549   1.194 -0.1309  0.3182 -0.0732
  709SOL    MW4 2883   4.298   1.525   1.163  0.0176 -0.3220  0.0364
  710SOL     OW 2884   4.057   1.664   1.210 -0.2759  0.4402  0.0255
  710SOL    HW2 2885   4.063   1.672   1.305 -0.3043  1.3716 -0.0473
  710SOL    HW3 2886   4.136   1.615   1.186  0.5448  1.5520  0.3786
  710SOL    MW4 2887   4.069   1.658   1.219 -0.1712  0.7099  0.0625
  711SOL     OW 2888   4.090   1.943   1.140  0.2560 -0.4019 -0.2801
  711SOL    HW2 2889   4.092   1.847   1.149 -0.1812 -0.4134 -0.2832
  711SOL    HW3 2890   4.100   1.958   1.046 -0.6799 -0.4841 -0.3989
  711SOL    MW4 2891   4.092   1.932   1.128  0.0749 -0.4143 -0.2961
  712SOL     OW 2892   4.332   2.041   1.248  0.0382 -0.2294 -0.1279
  712SOL    HW2 2893   4.341   2.129   1.209 -0.7587  0.7112  1.7601
  712SOL    HW3 2894   4.245   2.012   1.221 -0.2938  0.1955  0.4628
  712SOL    MW4 2895   4.322   2.049   1.239 -0.1106 -0.0494  0.1993
  713SOL     OW 2896   4.333   2.298   1.125 -0.0956  0.7962 -0.0861
  713SOL    HW2 2897   4.261   2.358   1.145 -1.7980 -1.1648 -0.1559
  713SOL    HW3 2898   4.335   2.295   1.029 -0.7877 -0.1445 -0.0767
  713SOL    MW4 2899   4.324   2.305   1.115 -0.4120  0.4134 -0.0939
  714SOL     OW 2900   4.080   2.475   1.241 -0.4380  0.0491  0.1690
  714SOL    HW2 2901   4.074   2.482   1.336 -2.2737  0.2595  0.0495
  714SOL    HW3 2902   4.074   2.565   1.210 -1.0027 -0.1067 -0.1934
  714SOL    MW4 2903   4.079   2.488   1.249 -0.7548  0.0563  0.1054
  715SOL     OW 2904   4.096   2.731   1.111 -0.1425 -0.0948  0.0394
  715SOL    HW2 2905   4.014   2.780   1.112  0.5005  1.0274 -0.6453
  715SOL    HW3 2906   4.100   2.692   1.023  0.5408  0.7079 -0.2936
  715SOL    MW4 2907   4.086   2.732   1.099  0.0324  0.1593 -0.0949
  716SOL     OW 2908   4.308   2.862   1.264 -0.0326 -0.3146 -0.1582
  716SOL    HW2 2909   4.305   2.945   1.216 -0.8453 -0.1951  0.0878
  716SOL    HW3 2910   4.235   2.811   1.228 -0.0216 -0.6154  0.2453
  716SOL    MW4 2911   4.298   2.866   1.253 -0.1383 -0.3386 -0.0725
  717SOL     OW 2912   4.288   3.111   1.129 -0.5109 -0.4562  0.2012
  717SOL    HW2 2913   4.211   3.151   1.169 -1.0344 -1.4884  0.2431
  717SOL    HW3 2914   4.263   3.097   1.037 -0.0812 -0.0594  0.0198
  717SOL    MW4 2915   4.275   3.114   1.122 -0.5236 -0.5400  0.1829
  718SOL     OW 2916   4.067   3.234   1.217 -0.5388 -0.1636 -0.2746
  718SOL    HW2 2917   4.061   3.237   1.313  1.2454 -1.1052 -0.1139
  718SOL    HW3 2918   3.993   3.179   1.191 -0.3109 -0.9577  0.6810
  718SOL    MW4 2919   4.056   3.227   1.226 -0.2732 -0.3924 -0.1273
  719SOL     OW 2920   4.032   3.478   1.082  0.0996  0.1754  0.5693
  719SOL    HW2 2921   4.030   3.399   1.136 -1.9097  0.0751  0.3933
  719SOL    HW3 2922   3.963   3.534   1.118  0.1044  0.9576 -0.6045
  719SOL    MW4 2923   4.023   3.475   1.094 -0.1645  0.2651  0.3914
  720SOL     OW 2924   4.253   3.625   1.218  0.4130  0.0620  0.9161
  720SOL    HW2 2925   4.192   3.584   1.157  0.3195  0.6761  0.5944
  720SOL    HW3 2926   4.337   3.585   1.198  0.5884  1.0369 -0.3585
  720SOL    MW4 2927   4.256   3.614   1.207  0.4234  0.2718  0.7055
  721SOL     OW 2928   4.303   3.901   1.193  0.1814  0.0448  0.1054
  721SOL    HW2 2929   4.221   3.949   1.205 -0.2398 -0.4840 -0.6259
  721SOL    HW3 2930   4.281   3.810   1.215  0.5482 -0.1156 -0.1934
  721SOL    MW4 2931   4.290   3.895   1.198  0.1745 -0.0458 -0.0305
  722SOL     OW 2932   3.843   3.885   1.156  0.2381  0.0537 -0.6133
  722SOL    HW2 2933   3.831   3.876   1.062 -0.4331 -1.8164 -0.3613
  722SOL    HW3 2934   3.774   3.946   1.183 -0.7371 -0.8377 -1.0610
  722SOL    MW4 2935   3.832   3.892   1.147  0.0212 -0.3107 -0.6392
  723SOL     OW 2936   4.061   4.020   1.239  0.0624  0.2710  0.4113
  723SOL    HW2 2937   4.041   4.108   1.206 -0.1759  0.3470  0.7546
  723SOL    HW3 2938   3.990   3.965   1.206  0.4685  0.1126 -0.2016
  723SOL    MW4 2939   4.049   4.024   1.230  0.0844  0.2599  0.3757
  724SOL     OW 2940   4.256   4.397   1.246 -0.2821  0.3515  0.3455
  724SOL    HW2 2941   4.177   4.356   1.211 -0.1422 -0.4549  0.9786
  724SOL    HW3 2942   4.328   4.344   1.212 -0.0512  0.5965  0.4507
  724SOL    MW4 2943   4.255   4.385   1.237 -0.2332  0.2775  0.4429
  725SOL     OW 2944   0.175   4.654   1.640  0.1725 -0.0490 -0.0251
  725SOL    HW2 2945   0.226   4.732   1.620 -0.5291 -0.0273 -1.8548
  725SOL    HW3 2946   0.087   4.675   1.609 -0.0292 -1.5534 -0.5100
  725SOL    MW4 2947   0.170   4.667   1.634  0.0533 -0.2451 -0.3306
  726SOL     OW 2948   4.416   0.126   1.525 -0.0060  0.0410  0.0469
  726SOL    HW2 2949   4.353   0.054   1.527  0.9164 -0.7433  1.4042
  726SOL    HW3 2950   4.440   0.133   1.433 -2.0207  0.3230 -0.4948
  726SOL    MW4 2951   4.411   0.118   1.513 -0.1502 -0.0253  0.1545
  727SOL     OW 2952   0.010   0.369   1.626 -0.1868 -0.1978  0.1232
  727SOL    HW2 2953  -0.008   0.355   1.719 -0.0825 -1.4742 -0.0443
  727SOL    HW3 2954  -0.014   0.286   1.585 -1.2943  0.7283 -1.1376
  727SOL    MW4 2955   0.004   0.356   1.633 -0.3185 -0.2440 -0.0653
  728SOL     OW 2956   0.217   0.519   1.538  0.3537 -0.2630  0.0090
  728SOL    HW2 2957   0.149   0.464   1.576  1.0773 -1.2734 -0.1561
  728SOL    HW3 2958   0.195   0.523   1.444  1.1469 -1.5100 -0.2391
  728SOL    MW4 2959   0.205   0.513   1.530  0.5538 -0.5608 -0.0455
  729SOL     OW 2960   0.208   0.786   1.650 -0.2826 -0.2716  0.2062
  729SOL    HW2 2961   0.280   0.839   1.616 -0.7862  0.5931  0.4588
  729SOL    HW3 2962   0.218   0.701   1.608  1.2831 -0.3756  0.7402
  729SOL    MW4 2963   0.219   0.782   1.640 -0.1425 -0.1712  0.3099
  730SOL     OW 2964   4.478   0.893   1.506 -0.8015  0.5718  0.4294
  730SOL    HW2 2965   4.473   0.984   1.535  1.7601  0.9073 -0.0202
  730SOL    HW3 2966   4.559   0.859   1.546 -1.3034 -1.2620 -0.0557
  730SOL    MW4 2967   4.488   0.900   1.515 -0.5297  0.3741  0.3061
  731SOL     OW 2968   4.478   1.160   1.600 -0.3741  0.1547  0.1622
  731SOL    HW2 2969   4.477   1.163   1.696  1.5521  0.1923  0.2130
  731SOL    HW3 2970   4.564   1.195   1.577 -0.9390  0.3950 -1.5976
  731SOL    MW4 2971   4.489   1.165   1.610 -0.1945  0.1913 -0.0633
  732SOL     OW 2972   0.231   1.292   1.547 -0.4386 -0.2553 -0.2303
  732SOL    HW2 2973   0.245   1.383   1.573 -1.7715 -0.3713  0.9250
  732SOL    HW3 2974   0.254   1.290   1.454  2.7968  0.5123  0.4993
  732SOL    MW4 2975   0.236   1.304   1.538 -0.1876 -0.1694  0.0185
  733SOL     OW 2976   0.242   1.565   1.597  0.0202 -0.0561  0.0546
  733SOL    HW2 2977   0.234   1.555   1.692 -0.1515  1.2241  0.1789
  733SOL    HW3 2978   0.159   1.604   1.570  0.3510  0.2523 -0.5213
  733SOL    MW4 2979   0.230   1.569   1.606  0.0412  0.1534 -0.0050
  734SOL     OW 2980   4.481   1.672   1.523 -0.8431  0.2444  0.0136
  734SOL    HW2 2981   4.489   1.767   1.524  0.0801  0.1867 -1.0216
  734SOL    HW3 2982   4.508   1.647   1.435 -0.0193 -1.0608  0.6290
  734SOL    MW4 2983   4.486   1.681   1.511 -0.6126  0.0644 -0.0418
  735SOL     OW 2984   0.034   1.935   1.573  0.4243 -0.4243 -0.4196
  735SOL    HW2 2985   0.050   1.945   1.667  0.2475  0.6020 -0.4915
  735SOL    HW3 2986  -0.044   1.989   1.557  0.3796 -0.7024 -1.1272
  735SOL    MW4 2987   0.026   1.944   1.584  0.3951 -0.3256 -0.5226
  736SOL     OW 2988   0.271   2.040   1.499 -0.1332  0.5690 -0.4005
  736SOL    HW2 2989   0.184   2.000   1.508  0.2160 -0.2492 -0.6884
  736SOL    HW3 2990   0.284   2.050   1.405 -0.6018  2.2192 -0.3155
  736SOL    MW4 2991   0.261   2.036   1.488 -0.1489  0.6788 -0.4274
  737SOL     OW 2992   0.268   2.315   1.593 -0.1389  0.1693  0.1784
  737SOL    HW2 2993   0.268   2.308   1.688  0.8450 -0.8588  0.1177
  737SOL    HW3 2994   0.256   2.225   1.562 -0.0308  0.4360 -0.6583
  737SOL    MW4 2995   0.267   2.302   1.601  0.0052  0.0687  0.0601
  738SOL     OW 2996   0.028   2.464   1.508 -0.1305  0.1267  0.2452
  738SOL    HW2 2997  -0.049   2.414   1.533  0.3204  0.3961  2.2126
  738SOL    HW3 2998   0.102   2.411   1.539  0.4172  0.8882  0.2442
  738SOL    MW4 2999   0.028   2.450   1.515  0.0012  0.2630  0.5047
  739SOL     OW 3000   0.021   2.692   1.675 -0.0168 -0.2939  0.2218
  739SOL    HW2 3001  -0.058   2.730   1.635 -0.8251 -1.0336  1.0865
  739SOL    HW3 3002   0.046   2.620   1.617  0.6914  0.6417 -0.6570
  739SOL    MW4 3003   0.014   2.688   1.662 -0.0300 -0.2680  0.2201
  740SOL     OW 3004   0.236   2.824   1.545  0.1124 -0.3303 -0.2160
  740SOL    HW2 3005   0.325   2.790   1.555  0.3299  0.7802  1.7772
  740SOL    HW3 3006   0.182   2.769   1.602  0.0753  1.0673  1.1231
  740SOL    MW4 3007   0.241   2.812   1.554  0.1362  0.0005  0.2236
  741SOL     OW 3008   0.245   3.114   1.645  0.1072 -0.1077 -0.2499
  741SOL    HW2 3009   0.174   3.152   1.593  1.1929  2.2476 -0.0698
  741SOL    HW3 3010   0.237   3.019   1.631 -2.0664  0.2346 -1.5067
  741SOL    MW4 3011   0.235   3.106   1.636 -0.0364  0.2484 -0.3921
  742SOL     OW 3012   0.039   3.217   1.499  0.3796  0.0617 -0.0391
  742SOL    HW2 3013   0.032   3.309   1.523 -0.9883 -0.1294  0.3545
  742SOL    HW3 3014   0.027   3.216   1.403  1.9715  0.4404 -0.2468
  742SOL    MW4 3015   0.036   3.229   1.489  0.4091  0.0863 -0.0148
  743SOL     OW 3016   0.013   3.478   1.604 -0.0463  0.1158 -0.1015
  743SOL    HW2 3017  -0.002   3.476   1.699  1.3354  3.9556  0.2856
  743SOL    HW3 3018  -0.068   3.515   1.568  0.5889  1.4857 -0.1175
  743SOL    MW4 3019   0.000   3.482   1.612  0.2198  0.8030 -0.0526
  744SOL     OW 3020   0.220   3.628   1.508  0.0690 -0.3375 -0.2483
  744SOL    HW2 3021   0.217   3.717   1.543  1.6906 -0.5523  0.5006
  744SOL    HW3 3022   0.146   3.583   1.550  0.5307  0.0855  1.0668
  744SOL    MW4 3023   0.210   3.634   1.518  0.3439 -0.3099  0.0241
  745SOL     OW 3024   0.230   3.884   1.586 -0.5407 -0.0620  0.1783
  745SOL    HW2 3025   0.245   3.867   1.679  1.0484 -1.2117 -0.2629
  745SOL    HW3 3026   0.311   3.924   1.555 -1.0142  0.2171 -0.7400
  745SOL    MW4 3027   0.243   3.887   1.594 -0.3935 -0.1769 -0.0012
  746SOL     OW 3028   0.006   4.029   1.524  0.4561  0.0769 -0.4604
  746SOL    HW2 3029   0.024   4.117   1.556 -0.3661 -0.2572  1.0135
  746SOL    HW3 3030   0.081   3.977   1.554 -0.2200 -0.1962  0.8172
  746SOL    MW4 3031   0.018   4.034   1.532  0.2584 -0.0033 -0.0974
  747SOL     OW 3032   0.012   4.273   1.617 -0.3527  0.2113  0.2507
  747SOL    HW2 3033   0.001   4.260   1.711 -1.2477  0.2329  0.1563
  747SOL    HW3 3034  -0.074   4.303   1.587 -1.0064 -2.8492 -1.0862
  747SOL    MW4 3035  -0.001   4.275   1.625 -0.5570 -0.1898  0.0619
  748SOL     OW 3036   0.256   4.405   1.547  0.1093  0.3413 -0.0460
  748SOL    HW2 3037   0.172   4.365   1.570  0.1658  0.8526  1.1087
  748SOL    HW3 3038   0.250   4.494   1.580  0.6211  0.7826 -1.1276
  748SOL    MW4 3039   0.244   4.411   1.555  0.1843  0.4668 -0.0362
  749SOL     OW 3040   0.623   4.638   1.612 -0.4521 -0.9259  0.3671
  749SOL    HW2 3041   0.689   4.688   1.566  0.1510 -1.0874  1.0462
  749SOL    HW3 3042   0.540   4.679   1.588 -0.1814 -1.2020 -1.0950
  749SOL    MW4 3043   0.621   4.650   1.603 -0.3368 -0.9837  0.2638
  750SOL     OW 3044   0.398   0.127   1.545 -0.1429 -0.8737 -0.2817
  750SOL    HW2 3045   0.432   0.215   1.560  0.0439 -1.1330  0.8996
  750SOL    HW3 3046   0.403   0.114   1.451 -0.5598  0.5415 -0.5092
  750SOL    MW4 3047   0.403   0.137   1.535 -0.1733 -0.7212 -0.1560
  751SOL     OW 3048   0.438   0.383   1.639  0.2605  0.0201  0.0192
  751SOL    HW2 3049   0.511   0.426   1.595 -0.1983  0.5478 -0.2328
  751SOL    HW3 3050   0.362   0.437   1.618 -0.5564 -1.6483 -1.4119
  751SOL    MW4 3051   0.438   0.396   1.631  0.0921 -0.1304 -0.2029
  752SOL     OW 3052   0.648   0.523   1.530  0.0770 -0.1253 -0.1453
  752SOL    HW2 3053   0.652   0.611   1.566 -0.7429  0.4411 -1.4136
  752SOL    HW3 3054   0.667   0.535   1.437  1.4898 -1.4785 -0.0574
  752SOL    MW4 3055   0.651   0.536   1.522  0.1552 -0.2291 -0.3009
  753SOL     OW 3056   0.672   0.787   1.604 -0.1112  0.9790 -0.1379
  753SOL    HW2 3057   0.698   0.768   1.694 -0.2009  0.0091 -0.3175
  753SOL    HW3 3058   0.753   0.815   1.561  0.0352  0.9280  0.1058
  753SOL    MW4 3059   0.686   0.789   1.610 -0.1037  0.8443 -0.1295
  754SOL     OW 3060   0.442   0.915   1.514 -0.1210 -0.3507 -0.2428
  754SOL    HW2 3061   0.451   1.007   1.536 -0.6917 -0.3415 -0.0331
  754SOL    HW3 3062   0.518   0.873   1.554  0.9554  0.2451 -1.6379
  754SOL    MW4 3063   0.453   0.921   1.522 -0.0543 -0.2709 -0.3992
  755SOL     OW 3064   0.460   1.162   1.635 -0.0084 -0.0863 -0.0356
  755SOL    HW2 3065   0.535   1.202   1.591  0.8540 -1.0518  0.5530
  755SOL    HW3 3066   0.385   1.213   1.604  0.5494 -0.7790 -2.6800
  755SOL    MW4 3067   0.460   1.174   1.625  0.1790 -0.3051 -0.3068
  756SOL     OW 3068   0.697   1.276   1.495 -0.1936 -0.0451  0.0600
  756SOL    HW2 3069   0.702   1.367   1.522 -0.1265 -0.0501  0.0659
  756SOL    HW3 3070   0.682   1.279   1.401 -1.6888 -0.0241  0.2946
  756SOL    MW4 3071   0.696   1.288   1.486 -0.3821 -0.0429  0.0918
  757SOL     OW 3072   0.728   1.531   1.603 -0.0781  0.1236 -0.4582
  757SOL    HW2 3073   0.804   1.580   1.573  0.6139 -0.2761  0.6048
  757SOL    HW3 3074   0.654   1.589   1.589  0.7933  1.6852  1.3132
  757SOL    MW4 3075   0.729   1.545   1.597  0.1281  0.2768 -0.0842
  758SOL     OW 3076   0.491   1.651   1.552 -0.5256  0.1553  0.1908
  758SOL    HW2 3077   0.488   1.746   1.561 -2.2099  0.0458  1.1124
  758SOL    HW3 3078   0.402   1.622   1.573 -0.5693 -1.4693 -2.0309
  758SOL    MW4 3079   0.479   1.659   1.556 -0.7536 -0.0737  0.0192
  759SOL     OW 3080   0.494   1.922   1.598 -0.1448  0.0605  0.1316
  759SOL    HW2 3081   0.494   1.917   1.694 -0.0767 -0.5886  0.0953
  759SOL    HW3 3082   0.412   1.968   1.578 -0.2129  0.1053  0.4925
  759SOL    MW4 3083   0.483   1.927   1.608 -0.1448 -0.0193  0.1743
  760SOL     OW 3084   0.726   2.082   1.480  0.3491 -0.2664  0.4597
  760SOL    HW2 3085   0.791   2.037   1.534 -0.8525  0.1243  2.2484
  760SOL    HW3 3086   0.643   2.041   1.502 -0.2811  0.5199 -0.4153
  760SOL    MW4 3087   0.724   2.071   1.490  0.1074 -0.1111  0.5803
  761SOL     OW 3088   0.728   2.338   1.627 -0.0215 -0.3514  0.2886
  761SOL    HW2 3089   0.657   2.380   1.577 -1.7222 -2.7222  0.6325
  761SOL    HW3 3090   0.740   2.254   1.584  2.3486 -0.1386  0.5004
  761SOL    MW4 3091   0.720   2.333   1.615  0.0669 -0.6359  0.3619
  762SOL     OW 3092   0.512   2.430   1.503 -0.4965  0.0593 -0.0313
  762SOL    HW2 3093   0.491   2.519   1.530  0.3716  0.3579 -0.3069
  762SOL    HW3 3094   0.448   2.375   1.546  0.8176  0.5130  2.5858
  762SOL    MW4 3095   0.501   2.434   1.512 -0.2085  0.1585  0.2776
  763SOL     OW 3096   0.483   2.698   1.593 -0.1429  0.4776 -0.1630
  763SOL    HW2 3097   0.473   2.709   1.687  0.7160 -2.8889  0.3696
  763SOL    HW3 3098   0.575   2.717   1.576  0.3614 -1.5638  0.1378
  763SOL    MW4 3099   0.494   2.702   1.603  0.0370 -0.2360 -0.0529
  764SOL     OW 3100   0.720   2.828   1.507 -0.1594  0.1691  0.2799
  764SOL    HW2 3101   0.697   2.913   1.543 -0.9505  0.1380 -0.1310
  764SOL    HW3 3102   0.733   2.844   1.413 -2.8435 -0.5889 -0.2851
  764SOL    MW4 3103   0.718   2.841   1.499 -0.6179  0.0651  0.1510
  765SOL     OW 3104   0.693   3.087   1.591  0.4154 -0.2960  0.1519
  765SOL    HW2 3105   0.759   3.143   1.551 -0.2204  0.9822  0.8413
  765SOL    HW3 3106   0.610   3.133   1.576  0.0870 -0.1517  2.2511
  765SOL    MW4 3107   0.690   3.101   1.584  0.2882 -0.1082  0.5198
  766SOL     OW 3108   0.476   3.218   1.516  0.1719  0.0509  0.3904
  766SOL    HW2 3109   0.394   3.177   1.544 -0.4894  1.3647  0.4138
  766SOL    HW3 3110   0.486   3.192   1.425  0.2072 -0.8643  0.6467
  766SOL    MW4 3111   0.467   3.209   1.508  0.0894  0.1035  0.4272
  767SOL     OW 3112   0.455   3.495   1.603 -0.5801 -0.6697 -0.3110
  767SOL    HW2 3113   0.456   3.403   1.578 -0.6101 -0.6967 -0.2168
  767SOL    HW3 3114   0.371   3.528   1.572 -0.4592 -0.6098 -0.5724
  767SOL    MW4 3115   0.444   3.487   1.596 -0.5681 -0.6657 -0.3331
  768SOL     OW 3116   0.683   3.647   1.533 -0.2470  0.9130  0.0839
  768SOL    HW2 3117   0.760   3.598   1.562  0.9366  2.1763 -0.8773
  768SOL    HW3 3118   0.609   3.590   1.555  0.9047 -0.0343  1.5984
  768SOL    MW4 3119   0.683   3.633   1.540  0.0610  0.9549  0.1569
  769SOL     OW 3120   0.705   3.923   1.579  0.8438  0.3194 -0.0868
  769SOL    HW2 3121   0.777   3.949   1.521  0.6202  0.8047 -0.1469
  769SOL    HW3 3122   0.693   3.830   1.562 -0.2822  0.7830 -1.9873
  769SOL    MW4 3123   0.713   3.914   1.569  0.6657  0.4442 -0.3455
  770SOL     OW 3124   0.466   4.037   1.523 -0.5559 -0.2530 -0.2414
  770SOL    HW2 3125   0.553   3.999   1.536 -1.3880 -2.3765 -0.6339
  770SOL    HW3 3126   0.458   4.047   1.428  0.3895  2.8009 -0.0659
  770SOL    MW4 3127   0.476   4.034   1.512 -0.5410 -0.1302 -0.2700
  771SOL     OW 3128   0.481   4.279   1.650 -0.0336 -0.1540 -0.3029
  771SOL    HW2 3129   0.464   4.193   1.611  0.5858 -0.3817 -0.0779
  771SOL    HW3 3130   0.405   4.332   1.625  0.6515 -0.1127 -2.3821
  771SOL    MW4 3131   0.469   4.275   1.641  0.1385 -0.1783 -0.5476
  772SOL     OW 3132   0.704   4.391   1.519 -0.3246 -0.0967  0.3430
  772SOL    HW2 3133   0.634   4.335   1.553  0.9240 -1.2396  1.0699
  772SOL    HW3 3134   0.691   4.475   1.563  0.0435 -0.9504  2.1337
  772SOL    MW4 3135   0.693   4.394   1.529 -0.1112 -0.3600  0.6751
  773SOL     OW 3136   1.094   4.660   1.588 -0.0695  0.2629  0.3401
  773SOL    HW2 3137   1.096   4.650   1.683  1.8291 -0.3657  0.2552
  773SOL    HW3 3138   1.166   4.721   1.569  1.1031 -1.4458 -0.8838
  773SOL    MW4 3139   1.104   4.667   1.598  0.3356 -0.0453  0.1675
  774SOL     OW 3140   0.850   0.095   1.493  0.5500  0.4034 -0.1794
  774SOL    HW2 3141   0.851   0.179   1.538  2.2128 -0.4735  1.5084
  774SOL    HW3 3142   0.928   0.049   1.526 -1.1279 -2.3767  0.1158
  774SOL    MW4 3143   0.860   0.100   1.504  0.5480 -0.0791  0.0823
  775SOL     OW 3144   0.888   0.372   1.601  0.6162  0.0698 -0.1490
  775SOL    HW2 3145   0.886   0.372   1.696  0.5464  2.0208 -0.1443
  775SOL    HW3 3146   0.817   0.430   1.575 -0.1267 -1.3503 -1.4251
  775SOL    MW4 3147   0.878   0.379   1.610  0.5090  0.1398 -0.3167
  776SOL     OW 3148   1.133   0.453   1.499  0.2772  0.1159  0.1420
  776SOL    HW2 3149   1.126   0.545   1.525  1.2684  0.0370  0.6729
  776SOL    HW3 3150   1.052   0.413   1.533  0.1207  0.6597  0.4201
  776SOL    MW4 3151   1.121   0.460   1.507  0.3874  0.1773  0.2488
  777SOL     OW 3152   1.122   0.721   1.575 -0.2457  0.4138 -0.1694
  777SOL    HW2 3153   1.110   0.718   1.670 -1.1916  0.9563 -0.2704
  777SOL    HW3 3154   1.208   0.761   1.563 -0.0108  0.1026  0.4622
  777SOL    MW4 3155   1.132   0.726   1.586 -0.3395  0.4444 -0.0994
  778SOL     OW 3156   0.907   0.855   1.461  0.2781  0.1487  0.0754
  778SOL    HW2 3157   0.990   0.816   1.488  0.3649 -0.2599 -0.7777
  778SOL    HW3 3158   0.904   0.842   1.366 -1.5203 -1.3573  0.3026
  778SOL    MW4 3159   0.918   0.848   1.452  0.0523 -0.1039 -0.0070
  779SOL     OW 3160   0.905   1.107   1.569  0.5810  0.1101 -0.5613
  779SOL    HW2 3161   0.903   1.030   1.513 -0.0260 -0.9802  0.9052
  779SOL    HW3 3162   0.821   1.150   1.555  0.0100 -0.7166  0.2322
  779SOL    MW4 3163   0.894   1.103   1.560  0.4256 -0.1427 -0.2632
  780SOL     OW 3164   1.106   1.286   1.486 -0.3832  0.1012 -0.2722
  780SOL    HW2 3165   1.181   1.244   1.529  0.1019  0.8953 -0.3379
  780SOL    HW3 3166   1.029   1.240   1.522  0.1335 -0.8455 -0.3543
  780SOL    MW4 3167   1.105   1.274   1.497 -0.2511  0.0812 -0.2918
  781SOL     OW 3168   1.129   1.529   1.630  0.3608 -0.0073 -0.4796
  781SOL    HW2 3169   1.208   1.541   1.577 -0.8130 -0.8262 -2.4744
  781SOL    HW3 3170   1.095   1.444   1.602 -0.6929 -0.1047  1.0807
  781SOL    MW4 3171   1.135   1.520   1.619  0.0670 -0.1281 -0.5370
  782SOL     OW 3172   0.943   1.678   1.502  0.2623  0.1585  0.1123
  782SOL    HW2 3173   1.016   1.633   1.544 -1.1045 -0.6891  1.6628
  782SOL    HW3 3174   0.967   1.682   1.409  2.1849 -0.2410  0.5680
  782SOL    MW4 3175   0.956   1.673   1.495  0.3356 -0.0060  0.3769
  783SOL     OW 3176   0.934   1.928   1.624  0.2822 -0.2896  0.0132
  783SOL    HW2 3177   1.015   1.972   1.596  1.4717 -2.7382 -0.5596
  783SOL    HW3 3178   0.933   1.847   1.574 -0.8509 -1.8162  2.4477
  783SOL    MW4 3179   0.945   1.923   1.614  0.2896 -0.8140  0.2588
  784SOL     OW 3180   1.167   2.027   1.492 -0.7790  0.3752  0.2376
  784SOL    HW2 3181   1.233   1.974   1.537  1.1694  1.2353 -1.5465
  784SOL    HW3 3182   1.181   2.115   1.527 -0.5522  0.6774 -0.6205
  784SOL    MW4 3183   1.178   2.032   1.503 -0.4920  0.5286 -0.1111
  785SOL     OW 3184   1.160   2.314   1.562  0.4597 -0.5089  0.0978
  785SOL    HW2 3185   1.244   2.356   1.544 -0.0585  0.7194  0.5242
  785SOL    HW3 3186   1.095   2.368   1.516 -0.3045 -0.3999  1.2949
  785SOL    MW4 3187   1.162   2.326   1.553  0.2906 -0.3324  0.3120
  786SOL     OW 3188   0.939   2.463   1.494  0.1188  0.1052  0.1959
  786SOL    HW2 3189   0.945   2.552   1.528 -1.3295  1.0666 -1.8732
  786SOL    HW3 3190   0.864   2.425   1.540 -0.3122  0.5536 -0.1249
  786SOL    MW4 3191   0.930   2.470   1.504 -0.1292  0.2911 -0.1193
  787SOL     OW 3192   0.951   2.702   1.618  0.0099 -0.3231  0.0524
  787SOL    HW2 3193   0.940   2.702   1.713  2.1624 -0.9048  0.3116
  787SOL    HW3 3194   0.871   2.744   1.585 -0.5673  0.2573  2.1271
  787SOL    MW4 3195   0.939   2.708   1.626  0.2178 -0.3231  0.3604
  788SOL     OW 3196   1.173   2.816   1.485  0.0568 -0.0141  0.5872
  788SOL    HW2 3197   1.122   2.894   1.504 -1.4765 -0.6606 -0.7969
  788SOL    HW3 3198   1.118   2.743   1.514  0.5005 -0.6928 -0.2477
  788SOL    MW4 3199   1.159   2.816   1.492 -0.0869 -0.1886  0.2943
  789SOL     OW 3200   1.115   3.074   1.587 -0.0914 -0.3128 -0.0106
  789SOL    HW2 3201   1.106   3.077   1.683  1.4674 -2.4053  0.2177
  789SOL    HW3 3202   1.201   3.112   1.570  0.0958 -0.9360 -0.4773
  789SOL    MW4 3203   1.125   3.079   1.597  0.1390 -0.6711 -0.0421
  790SOL     OW 3204   0.912   3.238   1.478 -0.3052 -0.3214  0.1008
  790SOL    HW2 3205   0.982   3.181   1.509 -0.3861 -0.4485  0.0491
  790SOL    HW3 3206   0.915   3.232   1.383  1.4191  1.8424 -0.0037
  790SOL    MW4 3207   0.921   3.230   1.470 -0.0883 -0.0527  0.0801
  791SOL     OW 3208   0.935   3.494   1.575  0.2801 -0.1672 -0.0161
  791SOL    HW2 3209   1.008   3.547   1.543 -0.2769  1.4338  1.3085
  791SOL    HW3 3210   0.947   3.409   1.532  0.0353  1.5866 -3.8100
  791SOL    MW4 3211   0.946   3.490   1.565  0.1742  0.2756 -0.3419
  792SOL     OW 3212   1.165   3.637   1.518  0.4890 -0.4009 -0.3234
  792SOL    HW2 3213   1.239   3.581   1.542  1.1227  0.7368  0.4441
  792SOL    HW3 3214   1.168   3.641   1.423  0.2596 -1.8945 -0.4058
  792SOL    MW4 3215   1.175   3.631   1.509  0.5424 -0.4475 -0.2331
  793SOL     OW 3216   1.152   3.897   1.583 -0.4778  0.1993  0.2381
  793SOL    HW2 3217   1.233   3.944   1.565 -0.7636 -0.0093 -1.8045
  793SOL    HW3 3218   1.170   3.806   1.559 -1.1571  0.0563  0.2402
  793SOL    MW4 3219   1.165   3.891   1.577 -0.6051  0.1528 -0.0311
  794SOL     OW 3220   0.946   4.021   1.439 -0.2880 -0.2449  0.1721
  794SOL    HW2 3221   0.945   4.095   1.499  0.7869 -0.0363 -0.0572
  794SOL    HW3 3222   1.017   3.965   1.471 -0.3360 -0.6014 -0.3326
  794SOL    MW4 3223   0.955   4.023   1.451 -0.1525 -0.2646  0.0753
  795SOL     OW 3224   0.933   4.258   1.611  0.0292  0.0936 -0.0632
  795SOL    HW2 3225   0.918   4.271   1.705 -0.5815  0.6746 -0.2372
  795SOL    HW3 3226   0.855   4.295   1.569  0.2987 -0.1701 -0.7999
  795SOL    MW4 3227   0.920   4.265   1.618 -0.0157  0.1349 -0.1833
  796SOL     OW 3228   1.108   4.409   1.478  0.2272  0.1705 -0.0382
  796SOL    HW2 3229   1.041   4.373   1.535  1.0959  0.5665  1.2398
  796SOL    HW3 3230   1.106   4.504   1.494  2.7722 -0.0545  1.8762
  796SOL    MW4 3231   1.099   4.417   1.487  0.6776  0.1926  0.3829
  797SOL     OW 3232   1.570   4.634   1.589 -0.1187  0.3768 -0.2352
  797SOL    HW2 3233   1.571   4.640   1.684  0.8901  0.8737 -0.2766
  797SOL    HW3 3234   1.492   4.683   1.563  0.2558  1.2477  0.2658
  797SOL    MW4 3235   1.560   4.641   1.598  0.0638  0.5569 -0.1746
  798SOL     OW 3236   1.340   0.127   1.547 -0.2897 -0.7187  0.2872
  798SOL    HW2 3237   1.359   0.219   1.566  0.1287 -0.7227 -0.0932
  798SOL    HW3 3238   1.344   0.121   1.451 -0.7056 -1.0491  0.2914
  798SOL    MW4 3239   1.343   0.138   1.537 -0.2894 -0.7628  0.2375
  799SOL     OW 3240   1.372   0.391   1.635 -0.2508 -0.3130  0.3916
  799SOL    HW2 3241   1.434   0.439   1.580  0.4202 -0.4997  0.9781
  799SOL    HW3 3242   1.286   0.413   1.599  0.2236 -1.1183 -1.2717
  799SOL    MW4 3243   1.369   0.401   1.623 -0.0998 -0.4438  0.2496
  800SOL     OW 3244   1.550   0.535   1.479  0.2052  0.0478 -0.2009
  800SOL    HW2 3245   1.612   0.466   1.500  2.5838  2.2743  0.4220
  800SOL    HW3 3246   1.553   0.543   1.383 -0.2350 -0.8448 -0.2877
  800SOL    MW4 3247   1.558   0.527   1.469  0.4609  0.2238 -0.1302
  801SOL     OW 3248   1.585   0.790   1.596  0.6159  0.5078 -0.2007
  801SOL    HW2 3249   1.582   0.773   1.691  3.4387  1.6145  0.1294
  801SOL    HW3 3250   1.578   0.703   1.556 -1.3961  0.0999  0.9882
  801SOL    MW4 3251   1.584   0.776   1.604  0.7230  0.6000 -0.0004
  802SOL     OW 3252   1.344   0.900   1.540 -0.0253  0.2029  0.3233
  802SOL    HW2 3253   1.434   0.874   1.558 -0.1908  0.0923  0.9902
  802SOL    HW3 3254   1.341   0.911   1.444  1.0674  1.5996  0.4308
  802SOL    MW4 3255   1.356   0.898   1.529  0.0970  0.3725  0.4255
  803SOL     OW 3256   1.337   1.172   1.591 -0.0560 -0.0780  0.4906
  803SOL    HW2 3257   1.343   1.166   1.686 -0.4497 -0.5900  0.4908
  803SOL    HW3 3258   1.334   1.080   1.562  0.6232  0.0661 -0.0515
  803SOL    MW4 3259   1.338   1.159   1.600 -0.0184 -0.1265  0.4191
  804SOL     OW 3260   1.571   1.312   1.515  0.6172  0.6615 -0.3366
  804SOL    HW2 3261   1.495   1.271   1.555  0.8868  1.4821  1.0311
  804SOL    HW3 3262   1.562   1.292   1.422 -1.0437  0.3916 -0.1377
  804SOL    MW4 3263   1.560   1.304   1.508  0.4338  0.7342 -0.1298
  805SOL     OW 3264   1.583   1.571   1.602 -0.0903  0.0200 -0.3378
  805SOL    HW2 3265   1.600   1.556   1.695  1.1292  1.0322 -0.3855
  805SOL    HW3 3266   1.591   1.485   1.562 -2.0828 -0.6810  0.7012
  805SOL    MW4 3267   1.586   1.558   1.609 -0.1923  0.0610 -0.2069
  806SOL     OW 3268   1.349   1.614   1.491 -0.3124  0.2086 -0.0246
  806SOL    HW2 3269   1.433   1.584   1.527 -0.8231  0.1316  1.1377
  806SOL    HW3 3270   1.360   1.607   1.396  0.5651 -0.9964  0.1460
  806SOL    MW4 3271   1.361   1.609   1.483 -0.2639  0.0395  0.1513
  807SOL     OW 3272   1.392   1.878   1.591  0.0089  0.2861  0.1921
  807SOL    HW2 3273   1.382   1.878   1.686  1.1867  0.3668  0.3263
  807SOL    HW3 3274   1.387   1.786   1.566 -2.0522  0.3975  0.1225
  807SOL    MW4 3275   1.390   1.866   1.600 -0.1078  0.3115  0.2006
  808SOL     OW 3276   1.577   2.064   1.481  0.4623 -0.6471  0.5457
  808SOL    HW2 3277   1.508   2.003   1.509  1.1872 -1.6960  0.0788
  808SOL    HW3 3278   1.578   2.057   1.386  0.6206  0.0331  0.4924
  808SOL    MW4 3279   1.568   2.055   1.473  0.5789 -0.6955  0.4771
  809SOL     OW 3280   1.621   2.333   1.571 -0.2460  0.2350 -0.4357
  809SOL    HW2 3281   1.700   2.367   1.529 -1.5554  0.7954 -2.5416
  809SOL    HW3 3282   1.614   2.243   1.539 -0.6259  0.2841 -0.4881
  809SOL    MW4 3283   1.630   2.325   1.561 -0.4690  0.3154 -0.7205
  810SOL     OW 3284   1.372   2.461   1.507 -0.0825  0.4362  0.1051
  810SOL    HW2 3285   1.383   2.541   1.558  1.3092  0.5702 -0.3746
  810SOL    HW3 3286   1.448   2.407   1.532 -0.7206 -0.4998  0.0259
  810SOL    MW4 3287   1.384   2.464   1.517  0.0170  0.3304  0.0314
  811SOL     OW 3288   1.377   2.711   1.629 -0.2945 -0.2657 -0.0052
  811SOL    HW2 3289   1.449   2.767   1.601  0.1054  0.4629  2.3622
  811SOL    HW3 3290   1.298   2.757   1.599  0.0907  0.9418  0.7553
  811SOL    MW4 3291   1.376   2.725   1.622 -0.1909 -0.0105  0.4076
  812SOL     OW 3292   1.618   2.808   1.475 -0.0269 -0.0907 -0.1577
  812SOL    HW2 3293   1.704   2.781   1.509 -0.3505 -0.5767  0.2715
  812SOL    HW3 3294   1.628   2.804   1.380  0.1491 -1.0135 -0.1024
  812SOL    MW4 3295   1.631   2.804   1.467 -0.0464 -0.2763 -0.0938
  813SOL     OW 3296   1.619   3.087   1.563 -0.3783 -0.3754  0.1023
  813SOL    HW2 3297   1.686   3.131   1.510 -1.7475  0.4430 -0.9871
  813SOL    HW3 3298   1.625   2.995   1.537  0.1884 -0.2833 -0.1124
  813SOL    MW4 3299   1.629   3.081   1.553 -0.4841 -0.2551 -0.0699
  814SOL     OW 3300   1.345   3.206   1.525 -0.0928 -0.0597 -0.3146
  814SOL    HW2 3301   1.366   3.296   1.550 -2.2022 -0.1926  2.2373
  814SOL    HW3 3302   1.413   3.154   1.568  0.1402  0.2054 -0.3572
  814SOL    MW4 3303   1.357   3.211   1.534 -0.3403 -0.0424  0.0165
  815SOL     OW 3304   1.377   3.471   1.613 -0.1496  0.6683 -0.1903
  815SOL    HW2 3305   1.357   3.479   1.707  0.4768  1.1642 -0.0921
  815SOL    HW3 3306   1.468   3.500   1.606 -0.6737  2.1126 -1.1756
  815SOL    MW4 3307   1.387   3.476   1.625 -0.1361  0.9241 -0.3072
  816SOL     OW 3308   1.605   3.614   1.531 -0.0273  0.1169 -1.0960
  816SOL    HW2 3309   1.578   3.702   1.558 -2.6575 -0.6409 -1.1342
  816SOL    HW3 3310   1.600   3.616   1.435  0.4073  0.0669 -1.1212
  816SOL    MW4 3311   1.601   3.626   1.522 -0.3170  0.0103 -1.1042
  817SOL     OW 3312   1.571   3.892   1.617 -0.0023 -0.3910 -0.9305
  817SOL    HW2 3313   1.571   3.901   1.712  2.7700 -0.0750 -0.9130
  817SOL    HW3 3314   1.500   3.950   1.587  0.1007  0.6899  0.8569
  817SOL    MW4 3315   1.562   3.901   1.625  0.3772 -0.2067 -0.6924
  818SOL     OW 3316   1.377   4.047   1.523 -0.0331  0.2480  0.1138
  818SOL    HW2 3317   1.352   4.137   1.545 -2.0063 -0.6212  1.6628
  818SOL    HW3 3318   1.369   4.042   1.428 -2.3232  1.0610  0.2357
  818SOL    MW4 3319   1.372   4.058   1.513 -0.5956  0.2408  0.3341
  819SOL     OW 3320   1.358   4.314   1.602  0.4150 -0.4354 -0.1906
  819SOL    HW2 3321   1.438   4.349   1.563 -0.2372  0.3361 -0.8390
  819SOL    HW3 3322   1.287   4.358   1.556 -0.3842 -0.6463  0.8130
  819SOL    MW4 3323   1.359   4.325   1.591  0.2234 -0.3619 -0.1436
  820SOL     OW 3324   1.616   4.378   1.484 -0.2158  0.1631 -0.1521
  820SOL    HW2 3325   1.701   4.344   1.512  0.4775  1.1856 -0.9581
  820SOL    HW3 3326   1.626   4.473   1.490 -1.2657  0.2883 -0.3882
  820SOL    MW4 3327   1.629   4.386   1.489 -0.2629  0.3142 -0.2896
  821SOL     OW 3328   2.052   4.634   1.610 -0.2288 -0.0365  0.1355
  821SOL    HW2 3329   2.058   4.623   1.705  0.1720 -0.7465  0.0349
  821SOL    HW3 3330   1.968   4.678   1.596  0.1259  0.8839  0.8725
  821SOL    MW4 3331   2.041   4.638   1.621 -0.1290 -0.0086  0.2193
  822SOL     OW 3332   1.813   0.090   1.496 -0.9236  0.6487  0.1457
  822SOL    HW2 3333   1.731   0.045   1.513 -0.6252 -0.2406 -0.6520
  822SOL    HW3 3334   1.814   0.103   1.401  0.8771 -1.4334 -0.1665
  822SOL    MW4 3335   1.803   0.086   1.485 -0.6466  0.2566 -0.0010
  823SOL     OW 3336   1.769   0.357   1.557  0.4318  0.1422  0.0090
  823SOL    HW2 3337   1.849   0.403   1.530  1.0921 -1.2098 -0.4120
  823SOL    HW3 3338   1.793   0.265   1.553 -1.3982 -0.3107 -0.8624
  823SOL    MW4 3339   1.783   0.351   1.553  0.2774 -0.0959 -0.1616
  824SOL     OW 3340   2.002   0.507   1.522 -0.0889  0.4703 -0.2314
  824SOL    HW2 3341   2.086   0.471   1.551  0.1365  1.2339  0.0697
  824SOL    HW3 3342   1.999   0.596   1.558 -1.6951 -0.0657  1.0338
  824SOL    MW4 3343   2.013   0.514   1.531 -0.2708  0.5004 -0.0247
  825SOL     OW 3344   2.051   0.770   1.602  0.3965  0.1068 -0.4968
  825SOL    HW2 3345   2.118   0.805   1.544  0.1068  0.3925 -0.6560
  825SOL    HW3 3346   1.977   0.828   1.591  0.0676 -0.2996 -0.4353
  825SOL    MW4 3347   2.050   0.782   1.593  0.3150  0.0909 -0.5096
  826SOL     OW 3348   1.826   0.915   1.551 -0.4285  0.7549 -0.4125
  826SOL    HW2 3349   1.813   1.008   1.570 -0.8158  0.4849  0.6507
  826SOL    HW3 3350   1.740   0.875   1.565  0.0403  0.0264  0.3808
  826SOL    MW4 3351   1.813   0.922   1.555 -0.4177  0.6232 -0.1676
  827SOL     OW 3352   1.801   1.178   1.612  0.2217  0.4514  0.3808
  827SOL    HW2 3353   1.870   1.226   1.567 -0.3039  0.3117 -0.5890
  827SOL    HW3 3354   1.720   1.222   1.587 -0.2074 -0.5289  0.0051
  827SOL    MW4 3355   1.799   1.190   1.603  0.0957  0.3036  0.2033
  828SOL     OW 3356   2.020   1.298   1.495 -0.2753 -0.4582 -0.3900
  828SOL    HW2 3357   2.023   1.388   1.528 -0.6115 -0.5235 -0.1774
  828SOL    HW3 3358   2.042   1.306   1.402  0.9625 -0.3038 -0.1003
  828SOL    MW4 3359   2.024   1.311   1.487 -0.1566 -0.4466 -0.3237
  829SOL     OW 3360   1.988   1.554   1.604  0.4187 -0.0092 -0.3686
  829SOL    HW2 3361   2.067   1.599   1.574 -0.0405  1.4110  0.4841
  829SOL    HW3 3362   1.917   1.593   1.554  0.1464 -0.6111 -0.4562
  829SOL    MW4 3363   1.989   1.565   1.594  0.3220  0.0989 -0.2676
  830SOL     OW 3364   1.798   1.709   1.464  0.2574 -0.2227  0.5616
  830SOL    HW2 3365   1.720   1.683   1.512  0.6982 -1.2308  0.7407
  830SOL    HW3 3366   1.782   1.682   1.373  0.2833 -0.2033  0.5512
  830SOL    MW4 3367   1.786   1.702   1.458  0.3188 -0.3532  0.5840
  831SOL     OW 3368   1.832   1.970   1.563 -0.3087  0.2149 -0.2014
  831SOL    HW2 3369   1.836   1.883   1.523 -0.3718  0.1162  0.0073
  831SOL    HW3 3370   1.746   2.003   1.537 -0.0482  0.4584 -0.7801
  831SOL    MW4 3371   1.821   1.963   1.554 -0.2826  0.2340 -0.2503
  832SOL     OW 3372   2.074   2.101   1.491  0.5923  0.5118  0.7934
  832SOL    HW2 3373   2.142   2.034   1.502  0.8998  0.8672  1.0939
  832SOL    HW3 3374   2.003   2.073   1.549  0.1284 -0.3163 -0.1709
  832SOL    MW4 3375   2.074   2.088   1.500  0.5717  0.4497  0.7058
  833SOL     OW 3376   2.055   2.365   1.595 -0.8149  0.3746  0.3488
  833SOL    HW2 3377   2.023   2.360   1.685  0.7019  0.1397  0.8885
  833SOL    HW3 3378   2.087   2.277   1.577  0.3379  0.8332  0.1331
  833SOL    MW4 3379   2.055   2.353   1.605 -0.4628  0.4041  0.3916
  834SOL     OW 3380   1.846   2.456   1.446 -0.2297 -0.2993 -0.0613
  834SOL    HW2 3381   1.931   2.426   1.477 -0.0679  0.3584  0.1575
  834SOL    HW3 3382   1.854   2.458   1.351 -0.5340 -1.7758 -0.1195
  834SOL    MW4 3383   1.858   2.452   1.438 -0.2486 -0.4075 -0.0402
  835SOL     OW 3384   1.855   2.703   1.564  0.5162 -0.2621 -0.5005
  835SOL    HW2 3385   1.941   2.737   1.538 -0.1916  0.5693 -1.8007
  835SOL    HW3 3386   1.847   2.620   1.517 -0.0022  0.3742 -1.5583
  835SOL    MW4 3387   1.866   2.697   1.554  0.3544 -0.0684 -0.8116
  836SOL     OW 3388   2.091   2.844   1.516 -0.0593 -0.0217 -0.1679
  836SOL    HW2 3389   2.091   2.933   1.550  0.8895  0.3879 -1.2132
  836SOL    HW3 3390   2.059   2.853   1.426  1.1866 -0.5675 -0.6784
  836SOL    MW4 3391   2.087   2.857   1.509  0.2301 -0.0396 -0.3732
  837SOL     OW 3392   2.077   3.093   1.618 -0.0099  0.2221 -0.1939
  837SOL    HW2 3393   2.073   3.109   1.712  0.6786 -1.9121  0.2322
  837SOL    HW3 3394   2.165   3.123   1.592  0.0979  0.0656 -0.0076
  837SOL    MW4 3395   2.088   3.099   1.627  0.0951 -0.0801 -0.1129
  838SOL     OW 3396   1.847   3.244   1.483  0.2713  0.0121 -0.3821
  838SOL    HW2 3397   1.849   3.329   1.527 -0.7151 -0.2366  0.1400
  838SOL    HW3 3398   1.913   3.192   1.530 -1.8854 -0.7668  1.8715
  838SOL    MW4 3399   1.856   3.249   1.495 -0.1434 -0.1235 -0.0157
  839SOL     OW 3400   1.848   3.493   1.602  0.5863  0.3526  0.3693
  839SOL    HW2 3401   1.846   3.481   1.697  1.0827  0.6663  0.4254
  839SOL    HW3 3402   1.767   3.538   1.581  0.2863 -0.0857  0.5922
  839SOL    MW4 3403   1.837   3.498   1.612  0.6123  0.3359  0.4061
  840SOL     OW 3404   2.065   3.643   1.495 -0.3065  0.4239  0.3563
  840SOL    HW2 3405   2.146   3.600   1.521 -0.2500  0.5041  0.3131
  840SOL    HW3 3406   1.995   3.588   1.532 -0.3552 -1.9638 -3.0531
  840SOL    MW4 3407   2.066   3.630   1.503 -0.3054  0.1194 -0.0993
  841SOL     OW 3408   2.058   3.912   1.602  0.2602 -0.2190 -0.1073
  841SOL    HW2 3409   2.125   3.950   1.544 -0.5575 -0.0119 -0.9317
  841SOL    HW3 3410   2.048   3.822   1.571 -0.1736 -0.1101 -0.2867
  841SOL    MW4 3411   2.066   3.905   1.590  0.0954 -0.1769 -0.2397
  842SOL     OW 3412   1.813   4.009   1.500  0.0770  0.1039  0.0027
  842SOL    HW2 3413   1.881   3.979   1.560 -0.5872  0.7398  1.1022
  842SOL    HW3 3414   1.731   3.978   1.540 -0.3790  0.6352 -0.5177
  842SOL    MW4 3415   1.811   4.001   1.513 -0.0707  0.2580  0.0792
  843SOL     OW 3416   1.852   4.274   1.579  0.8183  0.0877 -0.0610
  843SOL    HW2 3417   1.932   4.309   1.540  0.2020 -1.1121 -2.4904
  843SOL    HW3 3418   1.845   4.186   1.544 -0.9795 -0.2229  1.0260
  843SOL    MW4 3419   1.862   4.267   1.569  0.4998 -0.1121 -0.2382
  844SOL     OW 3420   2.087   4.397   1.465 -0.0578 -0.0328  0.0367
  844SOL    HW2 3421   2.143   4.339   1.516 -0.9245 -0.5778  0.3912
  844SOL    HW3 3422   2.074   4.474   1.522 -0.1445 -0.1637  0.1948
  844SOL    MW4 3423   2.093   4.400   1.479 -0.1836 -0.1221  0.1043
  845SOL     OW 3424   2.481   4.657   1.606 -0.6450  0.1928  0.1630
  845SOL    HW2 3425   2.453   4.645   1.696  0.2146  1.4385  0.6049
  845SOL    HW3 3426   2.409   4.704   1.564 -0.4331  0.8883  0.5733
  845SOL    MW4 3427   2.468   4.662   1.612 -0.5035  0.4487  0.2754
  846SOL     OW 3428   2.264   0.116   1.482 -0.2683 -0.1944  0.2077
  846SOL    HW2 3429   2.192   0.057   1.505 -0.2115 -0.1459  0.5033
  846SOL    HW3 3430   2.253   0.131   1.388  0.2599 -1.4093 -0.0514
  846SOL    MW4 3431   2.253   0.110   1.472 -0.1910 -0.3483  0.2126
  847SOL     OW 3432   2.250   0.378   1.590  0.0580  0.2833 -0.1239
  847SOL    HW2 3433   2.230   0.373   1.684  0.1525  1.0550 -0.0594
  847SOL    HW3 3434   2.256   0.287   1.562  1.2461  0.0451  0.8747
  847SOL    MW4 3435   2.248   0.366   1.599  0.2270  0.3537  0.0166
  848SOL     OW 3436   2.478   0.483   1.479  0.6347 -0.3503 -0.6868
  848SOL    HW2 3437   2.556   0.458   1.528 -0.2638  0.3775  1.1458
  848SOL    HW3 3438   2.409   0.426   1.513 -0.0337  0.2815 -0.9681
  848SOL    MW4 3439   2.479   0.472   1.490  0.4280 -0.1709 -0.4821
  849SOL     OW 3440   2.490   0.762   1.558  0.0141  0.1056  0.1798
  849SOL    HW2 3441   2.402   0.798   1.544 -0.1951 -0.4476  0.0373
  849SOL    HW3 3442   2.478   0.667   1.549  0.4947 -0.0214  0.8930
  849SOL    MW4 3443   2.477   0.754   1.555  0.0498  0.0159  0.2551
  850SOL     OW 3444   2.254   0.906   1.492 -0.0415 -0.0640 -0.1625
  850SOL    HW2 3445   2.261   0.998   1.518  0.8203 -0.4738  1.1297
  850SOL    HW3 3446   2.260   0.908   1.396 -0.3124  1.2473 -0.1677
  850SOL    MW4 3447   2.256   0.919   1.483  0.0365  0.0550  0.0073
  851SOL     OW 3448   2.260   1.173   1.556  0.2607 -0.0110 -0.2830
  851SOL    HW2 3449   2.262   1.179   1.651  0.1443 -1.6202 -0.1587
  851SOL    HW3 3450   2.174   1.207   1.531  0.5481  1.0234  0.1344
  851SOL    MW4 3451   2.249   1.178   1.565  0.2832 -0.0868 -0.2115
  852SOL     OW 3452   2.505   1.267   1.488  0.2289 -0.0727 -0.0721
  852SOL    HW2 3453   2.420   1.229   1.509 -0.4404  1.6496  0.4188
  852SOL    HW3 3454   2.511   1.261   1.393  0.2197 -1.5606  0.0106
  852SOL    MW4 3455   2.495   1.261   1.479  0.1395 -0.0417  0.0036
  853SOL     OW 3456   2.455   1.542   1.593  0.1428  0.2926 -0.2287
  853SOL    HW2 3457   2.544   1.575   1.581  0.4238  0.1085  1.2231
  853SOL    HW3 3458   2.457   1.454   1.555  0.7543  0.0673  0.2998
  853SOL    MW4 3459   2.467   1.535   1.587  0.2604  0.2385  0.0325
  854SOL     OW 3460   2.229   1.662   1.503 -0.0819  0.1889  0.1851
  854SOL    HW2 3461   2.314   1.634   1.537 -0.5237 -0.3382  0.8775
  854SOL    HW3 3462   2.237   1.652   1.408  0.4037 -0.5187  0.2910
  854SOL    MW4 3463   2.241   1.657   1.495 -0.0761  0.0260  0.2904
  855SOL     OW 3464   2.262   1.915   1.582 -0.0456  0.0485  0.0333
  855SOL    HW2 3465   2.242   1.901   1.674  0.2075 -0.0039  0.0824
  855SOL    HW3 3466   2.260   1.827   1.544  2.7025 -0.2889  0.5785
  855SOL    MW4 3467   2.259   1.901   1.589  0.3500 -0.0030  0.1116
  856SOL     OW 3468   2.501   2.061   1.516 -0.0524 -0.1581  0.2570
  856SOL    HW2 3469   2.423   2.007   1.526  1.2900 -2.3492 -0.7128
  856SOL    HW3 3470   2.507   2.077   1.422 -0.2674  1.4511  0.5071
  856SOL    MW4 3471   2.492   2.056   1.505  0.0963 -0.2346  0.1619
  857SOL     OW 3472   2.487   2.323   1.614  0.2799 -0.0467  0.0325
  857SOL    HW2 3473   2.484   2.327   1.710  3.7767 -0.1681  0.2327
  857SOL    HW3 3474   2.502   2.231   1.595  0.6946  0.1379 -0.5462
  857SOL    MW4 3475   2.489   2.312   1.624  0.7961 -0.0384 -0.0174
  858SOL     OW 3476   2.294   2.488   1.511 -0.6340  0.0126 -0.2342
  858SOL    HW2 3477   2.348   2.417   1.546  0.5045  1.3532  0.8209
  858SOL    HW3 3478   2.206   2.471   1.545 -0.4231 -0.9959 -0.1717
  858SOL    MW4 3479   2.290   2.476   1.520 -0.4559  0.0563 -0.0867
  859SOL     OW 3480   2.313   2.718   1.646 -0.1650  0.2944  0.1802
  859SOL    HW2 3481   2.314   2.628   1.615  1.6836  0.6925 -1.0049
  859SOL    HW3 3482   2.238   2.758   1.602 -0.5481 -0.4810  0.1339
  859SOL    MW4 3483   2.304   2.712   1.636  0.0281  0.2446  0.0176
  860SOL     OW 3484   2.522   2.821   1.500  0.2520  0.2934  0.3175
  860SOL    HW2 3485   2.535   2.903   1.547  0.8498  0.6146 -0.4025
  860SOL    HW3 3486   2.436   2.791   1.528  0.1802  0.9883  0.8545
  860SOL    MW4 3487   2.512   2.828   1.509  0.3216  0.4275  0.2935
  861SOL     OW 3488   2.545   3.082   1.605  0.0610 -0.0634 -0.1721
  861SOL    HW2 3489   2.607   3.139   1.560  0.8539 -1.4736 -0.8860
  861SOL    HW3 3490   2.460   3.123   1.589  0.7550  1.7105  0.5626
  861SOL    MW4 3491   2.542   3.095   1.597  0.2575 -0.0157 -0.1693
  862SOL     OW 3492   2.308   3.196   1.514 -0.9173  0.2116 -0.0204
  862SOL    HW2 3493   2.302   3.292   1.522  1.5138  0.4991 -1.0922
  862SOL    HW3 3494   2.321   3.181   1.420  1.2338 -0.9908  0.4437
  862SOL    MW4 3495   2.309   3.207   1.502 -0.3128  0.0906 -0.1005
  863SOL     OW 3496   2.291   3.492   1.537  0.2336 -0.2083 -0.5225
  863SOL    HW2 3497   2.277   3.495   1.631 -1.6360 -1.0218 -0.7542
  863SOL    HW3 3498   2.367   3.548   1.522 -1.3255  2.4122  1.1156
  863SOL    MW4 3499   2.300   3.500   1.547 -0.2189  0.0300 -0.3369
  864SOL     OW 3500   2.521   3.629   1.488  0.3796 -0.1404 -0.1718
  864SOL    HW2 3501   2.603   3.591   1.520 -0.0571  0.0221  1.1509
  864SOL    HW3 3502   2.535   3.724   1.492  1.1280 -0.1121 -2.5875
  864SOL    MW4 3503   2.534   3.637   1.493  0.4208 -0.1152 -0.3159
  865SOL     OW 3504   2.545   3.895   1.562 -0.2446  0.3324  0.0066
  865SOL    HW2 3505   2.513   3.900   1.652  0.2043 -0.9031  0.2449
  865SOL    HW3 3506   2.629   3.941   1.564  0.0843 -0.2907  0.3638
  865SOL    MW4 3507   2.552   3.902   1.574 -0.1421  0.0873  0.0852
  866SOL     OW 3508   2.284   3.996   1.472 -0.1378  0.5647 -0.5461
  866SOL    HW2 3509   2.367   3.963   1.505 -1.4175 -1.5191  0.6530
  866SOL    HW3 3510   2.290   3.987   1.377  0.6413 -0.4167 -0.4054
  866SOL    MW4 3511   2.296   3.991   1.464 -0.2038  0.1602 -0.3692
  867SOL     OW 3512   2.284   4.240   1.612 -0.4092 -0.0442  0.6734
  867SOL    HW2 3513   2.358   4.277   1.562 -0.7003 -0.5209 -0.1222
  867SOL    HW3 3514   2.273   4.152   1.576 -0.3370 -0.5581  1.9081
  867SOL    MW4 3515   2.293   4.234   1.600 -0.4382 -0.1745  0.7312
  868SOL     OW 3516   2.499   4.379   1.512 -0.2658  0.3182 -0.7517
  868SOL    HW2 3517   2.495   4.468   1.548  1.0995  0.8980 -1.9856
  868SOL    HW3 3518   2.491   4.391   1.418 -2.1347 -1.0553 -0.7774
  868SOL    MW4 3519   2.498   4.392   1.505 -0.3321  0.2136 -0.9179
  869SOL     OW 3520   2.958   4.652   1.595  0.2158  0.0019  0.0392
  869SOL    HW2 3521   2.954   4.647   1.691  2.4172  0.2345  0.1796
  869SOL    HW3 3522   2.870   4.679   1.568 -0.4982 -0.3376  1.9744
  869SOL    MW4 3523   2.946   4.655   1.604  0.4120 -0.0124  0.3130
  870SOL     OW 3524   2.725   0.119   1.523 -0.0291  0.1152 -0.1267
  870SOL    HW2 3525   2.732   0.211   1.549 -0.6583  0.3241 -0.6825
  870SOL    HW3 3526   2.642   0.090   1.561 -0.7783  0.3204 -1.5727
  870SOL    MW4 3527   2.715   0.127   1.532 -0.2108  0.1698 -0.3906
  871SOL     OW 3528   2.708   0.395   1.590 -0.2902 -0.2872 -0.4356
  871SOL    HW2 3529   2.713   0.391   1.685  0.7708 -1.0248 -0.5157
  871SOL    HW3 3530   2.790   0.436   1.563  0.0592 -1.3992 -1.1026
  871SOL    MW4 3531   2.719   0.400   1.599 -0.1040 -0.5313 -0.5341
  872SOL     OW 3532   2.939   0.511   1.505  0.1750 -0.2406  0.0577
  872SOL    HW2 3533   2.937   0.595   1.550  0.9548 -0.6345  0.8338
  872SOL    HW3 3534   2.945   0.534   1.412 -0.3844  0.5615  0.2117
  872SOL    MW4 3535   2.939   0.525   1.499  0.2041 -0.1867  0.1804
  873SOL     OW 3536   2.920   0.758   1.609 -0.2558  0.1144  0.2334
  873SOL    HW2 3537   2.918   0.752   1.704  0.0264  1.8462  0.3771
  873SOL    HW3 3538   2.842   0.810   1.587 -1.1717 -1.5719 -0.6090
  873SOL    MW4 3539   2.909   0.764   1.618 -0.3395  0.1204  0.1411
  874SOL     OW 3540   2.710   0.901   1.520  0.4368 -0.5132  0.3805
  874SOL    HW2 3541   2.628   0.854   1.537 -0.6487  1.6261  1.2558
  874SOL    HW3 3542   2.717   0.903   1.424 -0.7076 -0.3953  0.2974
  874SOL    MW4 3543   2.700   0.895   1.509  0.1426 -0.2154  0.4851
  875SOL     OW 3544   2.728   1.160   1.599 -0.3510 -0.0379  0.3580
  875SOL    HW2 3545   2.717   1.073   1.562 -0.4062  0.4903 -0.8770
  875SOL    HW3 3546   2.656   1.211   1.564  0.5180  0.8928 -0.0964
  875SOL    MW4 3547   2.717   1.155   1.590 -0.2434  0.1545  0.1351
  876SOL     OW 3548   2.942   1.279   1.503 -0.0888 -0.0679  0.8844
  876SOL    HW2 3549   3.016   1.229   1.539  1.7339  1.4632 -0.6300
  876SOL    HW3 3550   2.864   1.231   1.532  1.5450 -2.7802  0.9417
  876SOL    MW4 3551   2.942   1.266   1.512  0.3674 -0.2238  0.6921
  877SOL     OW 3552   2.931   1.533   1.583  0.1507 -0.5605 -0.5215
  877SOL    HW2 3553   2.846   1.553   1.545 -0.7400 -0.3837  1.4997
  877SOL    HW3 3554   2.944   1.440   1.565  0.1146 -0.3170 -1.9003
  877SOL    MW4 3555   2.921   1.523   1.576  0.0281 -0.5050 -0.4368
  878SOL     OW 3556   2.684   1.646   1.530 -0.2995 -0.1140  0.0784
  878SOL    HW2 3557   2.704   1.730   1.571 -1.3374  0.2865 -0.2180
  878SOL    HW3 3558   2.693   1.662   1.436 -0.3165 -0.3868  0.0302
  878SOL    MW4 3559   2.688   1.659   1.523 -0.4392 -0.0973  0.0329
  879SOL     OW 3560   2.732   1.894   1.610 -0.0981 -0.2703  0.0960
  879SOL    HW2 3561   2.739   1.898   1.705 -1.6653 -0.5651  0.2457
  879SOL    HW3 3562   2.673   1.966   1.587  1.8011  1.0189 -0.8518
  879SOL    MW4 3563   2.725   1.904   1.620 -0.0541 -0.1391 -0.0093
  880SOL     OW 3564   2.929   2.053   1.487  0.2191 -0.6002  0.1166
  880SOL    HW2 3565   2.912   2.138   1.528  0.4736 -0.7329  0.4960
  880SOL    HW3 3566   2.857   1.998   1.516  0.6697 -0.8345  0.7853
  880SOL    MW4 3567   2.917   2.057   1.496  0.3121 -0.6490  0.2548
  881SOL     OW 3568   2.906   2.318   1.583 -0.0809  0.0634  0.2544
  881SOL    HW2 3569   2.903   2.347   1.674  0.2815 -0.0134  0.2882
  881SOL    HW3 3570   2.838   2.370   1.540 -0.6708 -0.3335  0.6930
  881SOL    MW4 3571   2.896   2.329   1.589 -0.1109  0.0007  0.3166
  882SOL     OW 3572   2.693   2.501   1.497  0.3570 -0.5708  0.3440
  882SOL    HW2 3573   2.701   2.589   1.534  1.3318 -0.2874 -0.4961
  882SOL    HW3 3574   2.626   2.459   1.549 -0.9304  1.0561  0.0538
  882SOL    MW4 3575   2.685   2.507   1.509  0.3157 -0.3185  0.1949
  883SOL     OW 3576   2.730   2.746   1.641 -0.7823  0.5172 -0.0256
  883SOL    HW2 3577   2.798   2.786   1.587 -0.3737 -0.3493 -0.1578
  883SOL    HW3 3578   2.648   2.776   1.601 -0.4836  0.9956 -0.2908
  883SOL    MW4 3579   2.728   2.755   1.629 -0.6890  0.4659 -0.0781
  884SOL     OW 3580   2.946   2.837   1.494  0.2348  0.1077  0.3262
  884SOL    HW2 3581   3.018   2.804   1.547  0.5996 -0.1093 -0.2999
  884SOL    HW3 3582   2.930   2.926   1.526 -0.5540 -0.5523  1.8286
  884SOL    MW4 3583   2.953   2.844   1.506  0.1788 -0.0079  0.4419
  885SOL     OW 3584   2.930   3.089   1.579  0.1133  0.0942  0.0484
  885SOL    HW2 3585   2.913   3.092   1.673  0.2307  1.2125  0.0397
  885SOL    HW3 3586   3.017   3.126   1.569 -0.0974  0.4322 -0.5502
  885SOL    MW4 3587   2.939   3.094   1.590  0.1011  0.2866 -0.0316
  886SOL     OW 3588   2.725   3.243   1.470  0.2730  0.3597 -0.4430
  886SOL    HW2 3589   2.805   3.196   1.492 -1.2018 -1.4164  1.2631
  886SOL    HW3 3590   2.719   3.239   1.375  2.1022  0.3689 -0.5697
  886SOL    MW4 3591   2.734   3.236   1.460  0.3197  0.1264 -0.2346
  887SOL     OW 3592   2.732   3.485   1.618  0.1681  0.0978  0.3868
  887SOL    HW2 3593   2.724   3.477   1.713 -0.3968 -0.3511  0.3042
  887SOL    HW3 3594   2.714   3.396   1.585 -2.5235  0.8581 -0.3222
  887SOL    MW4 3595   2.728   3.472   1.626 -0.2613  0.1388  0.2823
  888SOL     OW 3596   2.961   3.607   1.505  0.5705 -0.2211 -0.0154
  888SOL    HW2 3597   2.879   3.562   1.524  0.2250  0.6553  0.6225
  888SOL    HW3 3598   2.957   3.626   1.411 -0.3135  0.4847  0.1549
  888SOL    MW4 3599   2.950   3.604   1.495  0.4084 -0.0124  0.0912
  889SOL     OW 3600   2.986   3.849   1.625 -0.3315  0.0838 -0.0636
  889SOL    HW2 3601   2.902   3.890   1.603  1.3925  2.1382 -3.2079
  889SOL    HW3 3602   2.980   3.762   1.585 -2.2873 -1.1795  2.8179
  889SOL    MW4 3603   2.974   3.843   1.617 -0.3619  0.1879 -0.0981
  890SOL     OW 3604   2.782   4.032   1.553 -0.6863  0.2853  0.1684
  890SOL    HW2 3605   2.752   4.117   1.587 -1.3406  0.2506 -0.3199
  890SOL    HW3 3606   2.788   4.044   1.459 -2.5421 -0.7447 -0.0995
  890SOL    MW4 3607   2.779   4.045   1.545 -1.0176  0.1445  0.0685
  891SOL     OW 3608   2.722   4.275   1.639  0.0911 -0.3345  0.1902
  891SOL    HW2 3609   2.798   4.306   1.589  1.1007 -1.1871  1.1601
  891SOL    HW3 3610   2.647   4.316   1.597  1.1228  0.8040 -0.5775
  891SOL    MW4 3611   2.722   4.284   1.627  0.3605 -0.2966  0.2170
  892SOL     OW 3612   2.933   4.391   1.507 -0.6758 -0.3259  0.0315
  892SOL    HW2 3613   2.931   4.484   1.530  0.6451  0.0062 -1.1420
  892SOL    HW3 3614   2.932   4.390   1.412  0.1632 -1.5014  0.0312
  892SOL    MW4 3615   2.932   4.403   1.498 -0.3910 -0.4373 -0.1234
  893SOL     OW 3616   3.383   4.663   1.647  0.0713 -0.4123 -0.2493
  893SOL    HW2 3617   3.467   4.698   1.618 -1.2722  1.3329 -2.2768
  893SOL    HW3 3618   3.374   4.580   1.601  0.4565 -0.3591 -0.4189
  893SOL    MW4 3619   3.393   4.657   1.637 -0.0553 -0.1750 -0.5392
  894SOL     OW 3620   3.190   0.142   1.516 -0.0224  0.5337  0.2322
  894SOL    HW2 3621   3.258   0.092   1.561  0.6282  0.2610 -1.0512
  894SOL    HW3 3622   3.112   0.087   1.525  0.0854  0.4953  1.0466
  894SOL    MW4 3623   3.189   0.128   1.523  0.0777  0.4926  0.1704
  895SOL     OW 3624   3.130   0.368   1.657  0.2368 -0.4160  0.0531
  895SOL    HW2 3625   3.150   0.283   1.619 -0.8945 -0.6557 -0.0437
  895SOL    HW3 3626   3.062   0.404   1.600 -0.7834 -0.3541  1.2874
  895SOL    MW4 3627   3.123   0.362   1.644 -0.0472 -0.4395  0.2030
  896SOL     OW 3628   3.370   0.514   1.574 -0.2693  0.1119  0.2314
  896SOL    HW2 3629   3.297   0.458   1.601  0.7597 -1.8884 -1.0377
  896SOL    HW3 3630   3.364   0.517   1.479  1.5091 -0.3674  0.0940
  896SOL    MW4 3631   3.360   0.507   1.565  0.1009 -0.2153  0.0458
  897SOL     OW 3632   3.361   0.783   1.639 -0.5425 -0.3095 -0.0205
  897SOL    HW2 3633   3.379   0.782   1.733 -1.1412 -0.0847  0.1029
  897SOL    HW3 3634   3.371   0.692   1.612  0.7037 -0.1997  0.0451
  897SOL    MW4 3635   3.365   0.771   1.648 -0.4570 -0.2654  0.0043
  898SOL     OW 3636   3.145   0.894   1.502  0.1193 -0.2737  0.0947
  898SOL    HW2 3637   3.216   0.854   1.553  0.0051 -0.3705  0.1784
  898SOL    HW3 3638   3.068   0.841   1.523  0.1233 -0.4777 -0.3774
  898SOL    MW4 3639   3.145   0.882   1.511  0.1047 -0.3133  0.0435
  899SOL     OW 3640   3.150   1.146   1.628  0.4468 -0.2998 -0.3353
  899SOL    HW2 3641   3.157   1.149   1.724  0.5311  0.1886 -0.3516
  899SOL    HW3 3642   3.128   1.055   1.608 -2.4610  0.2059  0.3295
  899SOL    MW4 3643   3.148   1.135   1.638  0.0744 -0.1687 -0.2496
  900SOL     OW 3644   3.351   1.274   1.510 -0.4534  0.1790  0.4172
  900SOL    HW2 3645   3.431   1.249   1.556  0.7811  2.5083 -0.3681
  900SOL    HW3 3646   3.281   1.227   1.555  1.4225 -2.4539  0.6810
  900SOL    MW4 3647   3.353   1.264   1.522 -0.0432  0.1389  0.3486
  901SOL     OW 3648   3.391   1.540   1.590 -0.1534 -0.2349 -0.0783
  901SOL    HW2 3649   3.384   1.534   1.685  2.5169 -2.1516  0.0570
  901SOL    HW3 3650   3.363   1.454   1.558 -0.4657  0.1998 -1.0183
  901SOL    MW4 3651   3.386   1.528   1.598  0.1576 -0.4305 -0.1843
  902SOL     OW 3652   3.160   1.675   1.506  0.4739 -0.1150 -0.2119
  902SOL    HW2 3653   3.237   1.632   1.542  0.7309 -0.5546 -1.2635
  902SOL    HW3 3654   3.087   1.622   1.535  0.5675  0.2864  0.7671
  902SOL    MW4 3655   3.161   1.662   1.514  0.5202 -0.1199 -0.2214
  903SOL     OW 3656   3.141   1.942   1.634  0.2527 -0.6066 -0.1591
  903SOL    HW2 3657   3.138   1.851   1.604  0.1538 -0.4021 -0.7859
  903SOL    HW3 3658   3.060   1.981   1.599 -0.0036 -0.4337  0.6166
  903SOL    MW4 3659   3.130   1.935   1.625  0.2055 -0.5568 -0.1395
  904SOL     OW 3660   3.375   2.047   1.524 -0.1800  0.5308 -0.1847
  904SOL    HW2 3661   3.289   2.014   1.551  0.9746 -1.2085  1.4995
  904SOL    HW3 3662   3.366   2.062   1.430 -1.9328 -0.9399 -0.2908
  904SOL    MW4 3663   3.362   2.044   1.515 -0.2589  0.1073  0.0236
  905SOL     OW 3664   3.373   2.316   1.613  0.3270 -0.3408 -0.2717
  905SOL    HW2 3665   3.448   2.354   1.567 -0.8141  1.4571 -0.6731
  905SOL    HW3 3666   3.383   2.221   1.601  3.3702 -0.2456  1.0093
  905SOL    MW4 3667   3.384   2.308   1.605  0.5779 -0.0911 -0.1557
  906SOL     OW 3668   3.147   2.445   1.528 -0.1906  0.1081  0.3835
  906SOL    HW2 3669   3.220   2.393   1.560 -1.4064 -0.9889  1.4304
  906SOL    HW3 3670   3.070   2.392   1.546 -1.0963  0.3963 -2.5167
  906SOL    MW4 3671   3.147   2.431   1.535 -0.4704  0.0010  0.1390
  907SOL     OW 3672   3.166   2.713   1.623 -0.2048  0.0522 -0.0205
  907SOL    HW2 3673   3.238   2.736   1.564  1.2602 -1.7670  0.9989
  907SOL    HW3 3674   3.153   2.619   1.609 -1.0709 -0.0213  1.2152
  907SOL    MW4 3675   3.174   2.704   1.613 -0.1259 -0.1976  0.2770
  908SOL     OW 3676   3.405   2.799   1.497 -0.6507 -0.7873 -0.2226
  908SOL    HW2 3677   3.398   2.887   1.535  0.7400 -0.6590 -0.2233
  908SOL    HW3 3678   3.411   2.814   1.403  0.9053 -0.7804 -0.1398
  908SOL    MW4 3679   3.405   2.813   1.490 -0.2615 -0.7696 -0.2117
  909SOL     OW 3680   3.408   3.037   1.630 -0.0569  0.0508 -0.1979
  909SOL    HW2 3681   3.394   3.047   1.724  0.8003  0.4807 -0.1165
  909SOL    HW3 3682   3.493   3.077   1.614 -0.3599  0.3033 -1.2130
  909SOL    MW4 3683   3.417   3.044   1.640  0.0165  0.1409 -0.3210
  910SOL     OW 3684   3.178   3.208   1.552  0.3528  0.2148 -0.0100
  910SOL    HW2 3685   3.246   3.150   1.586  0.3022  0.3141  0.2635
  910SOL    HW3 3686   3.186   3.201   1.457  0.1274 -0.5056  0.0137
  910SOL    MW4 3687   3.188   3.199   1.544  0.3166  0.1328  0.0292
  911SOL     OW 3688   3.146   3.471   1.662  0.0704 -0.1835  0.3385
  911SOL    HW2 3689   3.149   3.378   1.639  0.2234 -0.0935 -0.0016
  911SOL    HW3 3690   3.094   3.511   1.592  1.1198  0.2048 -0.2238
  911SOL    MW4 3691   3.139   3.464   1.650  0.2294 -0.1206  0.2195
  912SOL     OW 3692   3.391   3.574   1.525  0.2053 -0.1283 -0.5375
  912SOL    HW2 3693   3.467   3.527   1.559  1.7370  0.1894 -3.3444
  912SOL    HW3 3694   3.316   3.534   1.569  1.9502 -0.5588  2.1807
  912SOL    MW4 3695   3.391   3.563   1.535  0.6378 -0.1431 -0.5493
  913SOL     OW 3696   3.422   3.837   1.634  0.5121 -0.4660  0.0382
  913SOL    HW2 3697   3.352   3.898   1.611 -1.1469 -1.7317  1.5394
  913SOL    HW3 3698   3.392   3.753   1.599  1.4163 -0.9612  0.4501
  913SOL    MW4 3699   3.409   3.834   1.627  0.4125 -0.6986  0.2906
  914SOL     OW 3700   3.213   3.992   1.526 -0.3546 -0.1649  0.3347
  914SOL    HW2 3701   3.211   4.069   1.583  0.2361 -0.9040  1.3689
  914SOL    HW3 3702   3.131   3.946   1.546 -1.2979  0.7983 -1.1653
  914SOL    MW4 3703   3.202   3.996   1.536 -0.4013 -0.1349  0.2732
  915SOL     OW 3704   3.153   4.254   1.613  0.1140  0.4337 -0.1682
  915SOL    HW2 3705   3.146   4.272   1.707  0.3282 -2.3091  0.4107
  915SOL    HW3 3706   3.073   4.290   1.576 -0.7489  0.1051  1.3220
  915SOL    MW4 3707   3.142   4.261   1.621  0.0286  0.0286  0.1048
  916SOL     OW 3708   3.381   4.408   1.538  0.1980  0.0909  0.0495
  916SOL    HW2 3709   3.302   4.357   1.554  0.9317 -0.9620  0.3554
  916SOL    HW3 3710   3.402   4.392   1.446  0.4133 -0.1349  0.1380
  916SOL    MW4 3711   3.373   4.399   1.528  0.3233 -0.0782  0.1016
  917SOL     OW 3712   3.832   4.645   1.631  0.1849 -0.1431  0.4565
  917SOL    HW2 3713   3.866   4.648   1.720 -0.4310  1.7370  0.6411
  917SOL    HW3 3714   3.904   4.678   1.577 -0.5672  1.8705  0.6320
  917SOL    MW4 3715   3.846   4.650   1.635  0.0043  0.3705  0.5040
  918SOL     OW 3716   3.609   0.134   1.563 -0.4708 -0.1805 -0.1057
  918SOL    HW2 3717   3.687   0.090   1.598  0.4016  1.8496  0.5879
  918SOL    HW3 3718   3.612   0.116   1.469  0.8006 -0.1897 -0.0720
  918SOL    MW4 3719   3.620   0.126   1.555 -0.1879  0.0861 -0.0098
  919SOL     OW 3720   3.601   0.397   1.648 -0.0627 -0.1797  0.0931
  919SOL    HW2 3721   3.610   0.307   1.616 -0.2163 -1.0977  2.5186
  919SOL    HW3 3722   3.511   0.421   1.627 -0.5142 -1.1848  0.8018
  919SOL    MW4 3723   3.591   0.388   1.641 -0.1426 -0.4334  0.5066
  920SOL     OW 3724   3.824   0.515   1.538  0.0162 -0.1415 -0.5273
  920SOL    HW2 3725   3.751   0.476   1.586 -0.3569  1.2364  0.0312
  920SOL    HW3 3726   3.797   0.512   1.447 -0.0180 -1.1620 -0.4946
  920SOL    MW4 3727   3.811   0.509   1.533 -0.0374 -0.0944 -0.4494
  921SOL     OW 3728   3.826   0.787   1.602  0.6588 -0.1892 -0.4960
  921SOL    HW2 3729   3.748   0.821   1.560 -0.0876 -1.1082  0.1277
  921SOL    HW3 3730   3.827   0.694   1.578 -0.3475 -0.9787  2.3591
  921SOL    MW4 3731   3.816   0.779   1.593  0.4275 -0.4146 -0.0371
  922SOL     OW 3732   3.568   0.922   1.515 -0.6798 -0.1668  0.4016
  922SOL    HW2 3733   3.502   0.869   1.558 -1.2400 -1.1619 -1.6288
  922SOL    HW3 3734   3.561   0.899   1.422 -0.2286  2.6809 -0.3851
  922SOL    MW4 3735   3.559   0.912   1.508 -0.6943  0.0776  0.0299
  923SOL     OW 3736   3.602   1.169   1.623 -0.0073  0.0354 -0.0461
  923SOL    HW2 3737   3.678   1.207   1.581  0.1169 -1.4625 -1.2436
  923SOL    HW3 3738   3.596   1.080   1.586 -0.5312 -0.9374  2.3049
  923SOL    MW4 3739   3.611   1.162   1.612 -0.0601 -0.2906  0.1062
  924SOL     OW 3740   3.806   1.310   1.505  0.1513 -0.6018 -0.1358
  924SOL    HW2 3741   3.884   1.266   1.538  0.8693  0.8552  0.1251
  924SOL    HW3 3742   3.810   1.398   1.543 -1.3852 -0.3707 -0.4696
  924SOL    MW4 3743   3.817   1.316   1.515  0.0432 -0.3791 -0.1454
  925SOL     OW 3744   3.828   1.580   1.615  0.5594  0.2471  0.0969
  925SOL    HW2 3745   3.805   1.594   1.707 -0.3005 -0.7013  0.0279
  925SOL    HW3 3746   3.765   1.634   1.567  2.1507  2.1753  0.1139
  925SOL    MW4 3747   3.816   1.589   1.621  0.6559  0.3762  0.0900
  926SOL     OW 3748   3.603   1.663   1.466  0.1751  0.3038 -0.1669
  926SOL    HW2 3749   3.530   1.623   1.514  0.1007 -0.3139 -0.7880
  926SOL    HW3 3750   3.587   1.640   1.375  1.0446  0.3451 -0.3300
  926SOL    MW4 3751   3.591   1.655   1.460  0.2799  0.2279 -0.2704
  927SOL     OW 3752   3.631   1.915   1.573 -0.4298 -0.6569  0.3668
  927SOL    HW2 3753   3.632   1.823   1.548 -0.5446 -0.3414 -0.8196
  927SOL    HW3 3754   3.545   1.947   1.545 -0.5521 -0.2888  1.1444
  927SOL    MW4 3755   3.620   1.907   1.566 -0.4611 -0.5667  0.3127
  928SOL     OW 3756   3.869   2.042   1.516 -0.0221  0.0193  0.2377
  928SOL    HW2 3757   3.850   2.124   1.561 -3.0258  1.2406 -2.9623
  928SOL    HW3 3758   3.785   1.998   1.511  0.4290 -0.6156 -2.9629
  928SOL    MW4 3759   3.856   2.047   1.521 -0.3588  0.0970 -0.6068
  929SOL     OW 3760   3.847   2.321   1.595 -0.0335  0.2338 -0.4343
  929SOL    HW2 3761   3.849   2.325   1.690 -1.4137 -0.6243 -0.3551
  929SOL    HW3 3762   3.924   2.370   1.567  1.4262 -1.1047  1.1576
  929SOL    MW4 3763   3.857   2.328   1.604 -0.0231 -0.0560 -0.2139
  930SOL     OW 3764   3.596   2.426   1.503  0.1977  0.3511  0.4288
  930SOL    HW2 3765   3.596   2.514   1.542  1.8539  1.0415 -1.0114
  930SOL    HW3 3766   3.673   2.383   1.541  0.8124  0.4184 -0.6975
  930SOL    MW4 3767   3.606   2.432   1.513  0.4971  0.4511  0.0902
  931SOL     OW 3768   3.620   2.670   1.600  0.7787  0.3188 -0.3682
  931SOL    HW2 3769   3.632   2.688   1.693  0.1986  1.3857 -0.4906
  931SOL    HW3 3770   3.534   2.706   1.579  0.3359 -1.0917 -1.0319
  931SOL    MW4 3771   3.610   2.677   1.609  0.6440  0.2732 -0.4719
  932SOL     OW 3772   3.841   2.822   1.509 -0.0143 -0.0255 -0.0042
  932SOL    HW2 3773   3.916   2.782   1.554  0.2859  1.7590  1.1465
  932SOL    HW3 3774   3.764   2.781   1.550  0.2931 -0.7762 -0.1578
  932SOL    MW4 3775   3.841   2.811   1.520  0.0658  0.1111  0.1273
  933SOL     OW 3776   3.859   3.071   1.639 -0.6570 -0.4984 -0.0230
  933SOL    HW2 3777   3.936   3.112   1.599 -0.4846  0.0910  0.9046
  933SOL    HW3 3778   3.847   2.990   1.589 -0.1803  0.0040 -0.9773
  933SOL    MW4 3779   3.868   3.066   1.627 -0.5715 -0.3543 -0.0265
  934SOL     OW 3780   3.626   3.192   1.561  0.4303  0.1913  0.1436
  934SOL    HW2 3781   3.716   3.163   1.579  0.5567 -0.5850 -1.5557
  934SOL    HW3 3782   3.626   3.209   1.466 -0.9857  1.0435  0.2906
  934SOL    MW4 3783   3.638   3.190   1.551  0.2601  0.2012 -0.0612
  935SOL     OW 3784   3.623   3.459   1.660 -0.4141  0.0438  0.2064
  935SOL    HW2 3785   3.684   3.502   1.601  0.0964  0.8579  1.3091
  935SOL    HW3 3786   3.633   3.365   1.642  1.9351  0.1065  1.1427
  935SOL    MW4 3787   3.632   3.452   1.650 -0.0365  0.1595  0.4755
  936SOL     OW 3788   3.808   3.593   1.505  0.1492  0.0905 -0.0785
  936SOL    HW2 3789   3.890   3.543   1.513  0.1665 -0.0243 -0.8574
  936SOL    HW3 3790   3.823   3.673   1.555 -0.0723 -0.9240  1.6384
  936SOL    MW4 3791   3.821   3.597   1.512  0.1223 -0.0584  0.0453
  937SOL     OW 3792   3.829   3.856   1.602 -0.4123 -0.0519 -0.2940
  937SOL    HW2 3793   3.908   3.899   1.567  0.9347 -2.5260 -0.4133
  937SOL    HW3 3794   3.757   3.910   1.571  1.1563  1.4584 -1.4259
  937SOL    MW4 3795   3.830   3.869   1.593 -0.0277 -0.1793 -0.4591
  938SOL     OW 3796   3.606   4.017   1.510  0.2410  0.0738  0.2920
  938SOL    HW2 3797   3.610   4.090   1.572 -0.2249  1.5607 -1.3828
  938SOL    HW3 3798   3.543   3.956   1.548 -2.0895  2.2293  0.0204
  938SOL    MW4 3799   3.598   4.019   1.523 -0.1278  0.5550  0.0352
  939SOL     OW 3800   3.619   4.280   1.640 -0.6825  0.1087 -0.1781
  939SOL    HW2 3801   3.623   4.278   1.735 -0.5612  0.2919 -0.1806
  939SOL    HW3 3802   3.536   4.323   1.620 -0.0938  1.2788 -0.1609
  939SOL    MW4 3803   3.609   4.285   1.650 -0.5889  0.2866 -0.1762
  940SOL     OW 3804   3.837   4.397   1.528  0.0756  0.3086 -0.0027
  940SOL    HW2 3805   3.757   4.355   1.560  0.4328 -0.0169  0.4780
  940SOL    HW3 3806   3.836   4.484   1.566 -0.9116  0.9247 -1.3901
  940SOL    MW4 3807   3.826   4.403   1.537 -0.0074  0.3471 -0.1222
  941SOL     OW 3808   4.234   4.607   1.631  0.0482 -0.1302 -0.5238
  941SOL    HW2 3809   4.242   4.596   1.726 -0.2458 -0.8966 -0.5863
  941SOL    HW3 3810   4.214   4.520   1.598 -3.5266  0.7450 -0.8940
  941SOL    MW4 3811   4.232   4.594   1.639 -0.4621 -0.1154 -0.5808
  942SOL     OW 3812   4.053   0.105   1.510  0.1310 -0.5297 -0.5459
  942SOL    HW2 3813   4.051   0.196   1.540  0.7241 -0.1717 -1.5490
  942SOL    HW3 3814   4.126   0.065   1.558  1.1529  0.0692 -1.5720
  942SOL    MW4 3815   4.062   0.112   1.520  0.3443 -0.4034 -0.8137
  943SOL     OW 3816   4.042   0.359   1.616 -0.3904 -0.4577  0.5663
  943SOL    HW2 3817   4.046   0.351   1.711 -0.6302  0.9823  0.7141
  943SOL    HW3 3818   3.960   0.407   1.600 -0.0521 -0.1735 -0.3216
  943SOL    MW4 3819   4.031   0.364   1.626 -0.3777 -0.2302  0.4687
  944SOL     OW 3820   4.254   0.497   1.527  0.1133 -0.1699 -0.0478
  944SOL    HW2 3821   4.178   0.450   1.562 -0.5791 -0.3571 -1.7710
  944SOL    HW3 3822   4.329   0.452   1.566 -0.6269 -0.3562  1.2168
  944SOL    MW4 3823   4.254   0.485   1.537 -0.0758 -0.2192 -0.1085
  945SOL     OW 3824   4.247   0.773   1.607 -0.4756 -0.2240 -0.4836
  945SOL    HW2 3825   4.225   0.680   1.596 -0.2092 -0.5083  1.2101
  945SOL    HW3 3826   4.334   0.782   1.569  0.3001 -1.0992  1.0244
  945SOL    MW4 3827   4.256   0.762   1.600 -0.3390 -0.3770 -0.0613
  946SOL     OW 3828   4.047   0.925   1.487  0.3651  0.7096 -0.4502
  946SOL    HW2 3829   4.124   0.882   1.525 -0.6939 -1.0052 -0.1498
  946SOL    HW3 3830   3.972   0.878   1.525 -0.8601  2.7451 -0.2570
  946SOL    MW4 3831   4.047   0.913   1.497  0.0639  0.7519 -0.3852
  947SOL     OW 3832   4.020   1.182   1.597  0.6695  0.0924 -0.5669
  947SOL    HW2 3833   4.014   1.175   1.692 -0.2887 -0.2868 -0.6492
  947SOL    HW3 3834   4.023   1.091   1.567  0.7963  0.2094 -0.9038
  947SOL    MW4 3835   4.019   1.169   1.606  0.5598  0.0577 -0.6222
  948SOL     OW 3836   4.255   1.278   1.518  0.4760  0.1164 -0.2963
  948SOL    HW2 3837   4.185   1.230   1.562  0.5419 -0.0971 -0.4237
  948SOL    HW3 3838   4.336   1.233   1.544  0.5387  0.1642 -0.4050
  948SOL    MW4 3839   4.257   1.266   1.527  0.4926  0.0944 -0.3275
  949SOL     OW 3840   4.266   1.535   1.598 -0.1497  0.3653  0.4847
  949SOL    HW2 3841   4.282   1.447   1.564  1.2674 -0.0905  2.2985
  949SOL    HW3 3842   4.348   1.581   1.584 -0.0102  0.5875  1.9967
  949SOL    MW4 3843   4.279   1.529   1.591  0.0548  0.3344  0.9234
  950SOL     OW 3844   4.058   1.671   1.485 -0.0897 -0.0363 -0.0172
  950SOL    HW2 3845   4.138   1.625   1.512  0.0680  0.8873  1.1120
  950SOL    HW3 3846   3.991   1.638   1.544 -0.1528  0.5485  0.2383
  950SOL    MW4 3847   4.060   1.661   1.497 -0.0768  0.1627  0.1655
  951SOL     OW 3848   4.082   1.905   1.601 -0.0861  0.2513 -0.2069
  951SOL    HW2 3849   4.073   1.819   1.559 -0.5933  0.9083 -1.4755
  951SOL    HW3 3850   4.006   1.954   1.571 -0.6356  0.6370  1.7909
  951SOL    MW4 3851   4.071   1.900   1.592 -0.2255  0.3890 -0.1107
  952SOL     OW 3852   4.285   2.071   1.518  0.1921  0.6857  0.1331
  952SOL    HW2 3853   4.221   2.005   1.546 -0.2750  0.8604 -0.5062
  952SOL    HW3 3854   4.291   2.059   1.423 -1.2657  2.7480 -0.2665
  952SOL    MW4 3855   4.277   2.060   1.509 -0.0615  0.9806 -0.0041
  953SOL     OW 3856   4.292   2.332   1.596 -0.5107 -0.2072 -0.0799
  953SOL    HW2 3857   4.293   2.338   1.692 -0.0642  0.1000 -0.1053
  953SOL    HW3 3858   4.316   2.241   1.578  1.8088  0.3665  0.0346
  953SOL    MW4 3859   4.295   2.321   1.606 -0.1454 -0.0908 -0.0682
  954SOL     OW 3860   4.067   2.494   1.531  0.1614  0.4895 -0.0603
  954SOL    HW2 3861   4.072   2.583   1.566  1.3483  0.9561 -1.3998
  954SOL    HW3 3862   4.149   2.452   1.558  0.1114  0.1608 -0.4093
  954SOL    MW4 3863   4.078   2.500   1.540  0.3119  0.5076 -0.2831
  955SOL     OW 3864   4.086   2.738   1.691  0.7695  0.0425  0.6078
  955SOL    HW2 3865   4.106   2.742   1.784 -0.5215  0.8141  0.8651
  955SOL    HW3 3866   4.159   2.784   1.648  1.6010 -0.7166  1.1783
  955SOL    MW4 3867   4.098   2.744   1.697  0.7091  0.0441  0.7169
  956SOL     OW 3868   4.302   2.834   1.554  0.2759 -0.2521  0.6171
  956SOL    HW2 3869   4.304   2.924   1.586 -0.0834  0.4383 -1.2607
  956SOL    HW3 3870   4.313   2.842   1.460 -0.3122 -2.1483  0.3714
  956SOL    MW4 3871   4.304   2.847   1.546  0.1507 -0.4113  0.3369
  957SOL     OW 3872   4.317   3.090   1.612  0.4610  0.2867 -0.1590
  957SOL    HW2 3873   4.315   3.116   1.704  2.7551 -0.0817  0.0193
  957SOL    HW3 3874   4.400   3.125   1.579 -1.1101  1.9255 -2.5482
  957SOL    MW4 3875   4.328   3.098   1.620  0.5565  0.4542 -0.4506
  958SOL     OW 3876   4.076   3.183   1.503 -0.1490 -0.1865 -0.1201
  958SOL    HW2 3877   4.068   3.271   1.541  0.6383 -0.0464 -0.2802
  958SOL    HW3 3878   4.159   3.149   1.536  0.3769 -0.2048 -1.4060
  958SOL    MW4 3879   4.086   3.190   1.512  0.0238 -0.1705 -0.3108
  959SOL     OW 3880   4.038   3.451   1.562 -0.3786 -0.4472 -0.1373
  959SOL    HW2 3881   4.030   3.468   1.655 -1.0870  0.0090 -0.2788
  959SOL    HW3 3882   4.122   3.491   1.537 -0.2394 -0.4786  0.2761
  959SOL    MW4 3883   4.048   3.459   1.571 -0.4539 -0.3908 -0.1013
  960SOL     OW 3884   4.271   3.593   1.494 -0.5181  0.0645  0.5475
  960SOL    HW2 3885   4.285   3.684   1.522  1.2631 -0.0611  0.1423
  960SOL    HW3 3886   4.260   3.598   1.399 -2.5440  0.0635  0.7632
  960SOL    MW4 3887   4.271   3.606   1.485 -0.5503  0.0477  0.5225
  961SOL     OW 3888   4.278   3.839   1.581 -0.1762  0.4859  0.0280
  961SOL    HW2 3889   4.205   3.902   1.579  0.1987  0.9094 -0.3323
  961SOL    HW3 3890   4.355   3.891   1.559  0.3434  0.1764  1.1131
  961SOL    MW4 3891   4.278   3.855   1.578 -0.0577  0.5012  0.1237
  962SOL     OW 3892   4.060   3.988   1.527 -0.0643  0.1283  0.2840
  962SOL    HW2 3893   4.054   4.080   1.554 -0.5931  0.4728 -1.0016
  962SOL    HW3 3894   4.064   3.990   1.432  2.1086 -1.0798  0.2925
  962SOL    MW4 3895   4.060   4.000   1.518  0.1521  0.0143  0.1155
  963SOL     OW 3896   4.037   4.241   1.635 -0.4366 -0.1684  0.5118
  963SOL    HW2 3897   4.049   4.236   1.730 -0.5549  0.4892  0.5648
  963SOL    HW3 3898   3.965   4.303   1.624 -0.0738  0.1521 -0.0335
  963SOL    MW4 3899   4.029   4.248   1.646 -0.4044 -0.0396  0.4467
  964SOL     OW 3900   4.262   4.355   1.517 -0.3463 -0.0747 -0.7637
  964SOL    HW2 3901   4.187   4.297   1.527 -0.5789  0.3679  0.1260
  964SOL    HW3 3902   4.264   4.375   1.423 -1.2367 -0.2271 -0.8258
  964SOL    MW4 3903   4.252   4.350   1.506 -0.4945 -0.0372 -0.6546
  965SOL     OW 3904   0.182   4.625   1.917 -0.3268  0.3440  0.2628
  965SOL    HW2 3905   0.266   4.666   1.936  1.1805 -1.7563 -1.5110
  965SOL    HW3 3906   0.167   4.643   1.824 -0.9151 -0.8540  0.1122
  965SOL    MW4 3907   0.191   4.632   1.907 -0.2055 -0.0911  0.0091
  966SOL     OW 3908   0.005   0.095   2.075 -0.8564 -0.0416  0.1988
  966SOL    HW2 3909  -0.008   0.177   2.027 -1.9581 -0.2302  0.1668
  966SOL    HW3 3910   0.066   0.045   2.022 -1.0941  0.2724 -0.3717
  966SOL    MW4 3911   0.011   0.099   2.062 -1.0331 -0.0250  0.1192
  967SOL     OW 3912   4.480   0.329   1.910  0.6675 -0.0055  0.2749
  967SOL    HW2 3913   4.409   0.386   1.938  0.9826  0.4275  0.1900
  967SOL    HW3 3914   4.560   0.370   1.943  0.7757 -1.2247  1.5621
  967SOL    MW4 3915   4.481   0.342   1.918  0.7234 -0.1092  0.4336
  968SOL     OW 3916   0.196   0.478   2.022 -0.3082 -0.4136  0.1102
  968SOL    HW2 3917   0.278   0.448   1.983 -0.5831  0.1661 -0.9325
  968SOL    HW3 3918   0.189   0.569   1.995 -0.9221 -0.2472  0.8292
  968SOL    MW4 3919   0.206   0.486   2.014 -0.4255 -0.3152  0.0675
  969SOL     OW 3920   0.231   0.739   1.917 -0.1449 -0.5552 -0.0422
  969SOL    HW2 3921   0.322   0.752   1.941 -0.4402 -0.5438  1.0947
  969SOL    HW3 3922   0.227   0.759   1.823  1.0694 -0.8346 -0.1514
  969SOL    MW4 3923   0.242   0.743   1.908 -0.0236 -0.5906  0.0935
  970SOL     OW 3924   0.032   0.894   2.015 -0.1587 -0.1494 -0.0467
  970SOL    HW2 3925  -0.049   0.865   1.974 -0.1992 -0.6707  0.3922
  970SOL    HW3 3926   0.101   0.850   1.966 -0.1354  0.3169 -0.4387
  970SOL    MW4 3927   0.030   0.885   2.003 -0.1609 -0.1566 -0.0405
  971SOL     OW 3928   0.017   1.156   1.880 -0.0580  0.0505  0.1667
  971SOL    HW2 3929  -0.048   1.203   1.932 -2.0683 -0.3934 -1.9116
  971SOL    HW3 3930   0.005   1.064   1.903 -0.9146 -0.1413 -1.0287
  971SOL    MW4 3931   0.007   1.150   1.890 -0.4363 -0.0333 -0.2652
  972SOL     OW 3932   0.259   1.263   1.977  0.0234 -0.3618 -0.5388
  972SOL    HW2 3933   0.247   1.350   1.940  0.6242  0.5887  1.4298
  972SOL    HW3 3934   0.192   1.209   1.935 -0.4803  1.0958 -1.6221
  972SOL    MW4 3935   0.248   1.267   1.967  0.0362 -0.0441 -0.4221
  973SOL     OW 3936   0.230   1.518   1.871 -0.2094  0.4786 -0.3061
  973SOL    HW2 3937   0.302   1.563   1.915 -0.6313  1.1553 -0.3049
  973SOL    HW3 3938   0.151   1.559   1.906 -0.5672  0.4728 -1.1031
  973SOL    MW4 3939   0.229   1.530   1.881 -0.3123  0.5670 -0.4112
  974SOL     OW 3940   0.006   1.677   1.952 -0.1177  0.4929  0.0535
  974SOL    HW2 3941   0.018   1.685   2.046  0.3924 -0.0888  0.0398
  974SOL    HW3 3942  -0.079   1.635   1.941 -0.7494  1.7145  0.2241
  974SOL    MW4 3943  -0.004   1.673   1.963 -0.1338  0.5773  0.0741
  975SOL     OW 3944   0.049   1.942   1.841 -0.7037  0.3958 -0.5609
  975SOL    HW2 3945  -0.028   1.989   1.874 -0.6533  1.6018 -2.0750
  975SOL    HW3 3946   0.030   1.850   1.856 -2.0264  0.7447 -0.0530
  975SOL    MW4 3947   0.037   1.936   1.848 -0.8716  0.6009 -0.6937
  976SOL     OW 3948   0.268   2.074   1.983  0.1842 -0.1314 -0.5681
  976SOL    HW2 3949   0.254   2.160   1.943  0.4054 -0.2023 -0.8020
  976SOL    HW3 3950   0.200   2.019   1.945 -0.7250  0.2313  0.4998
  976SOL    MW4 3951   0.257   2.078   1.973  0.0934 -0.0927 -0.4581
  977SOL     OW 3952   0.220   2.341   1.862 -0.0826  0.5167  0.5546
  977SOL    HW2 3953   0.290   2.392   1.904  0.1599 -0.5877  1.5108
  977SOL    HW3 3954   0.140   2.367   1.907  0.2762 -1.2109  2.2416
  977SOL    MW4 3955   0.219   2.351   1.873 -0.0033  0.1431  0.9032
  978SOL     OW 3956   4.483   2.436   2.013 -0.2296 -0.5382 -0.4619
  978SOL    HW2 3957   4.497   2.426   2.107 -0.8789 -1.8296 -0.4881
  978SOL    HW3 3958   4.491   2.530   1.997  0.0597 -0.3322  0.8531
  978SOL    MW4 3959   4.486   2.447   2.023 -0.2771 -0.6814 -0.2921
  979SOL     OW 3960   0.032   2.717   1.956  0.3654  0.1629 -0.3391
  979SOL    HW2 3961  -0.043   2.774   1.973 -0.7732 -1.1252 -0.8907
  979SOL    HW3 3962   0.038   2.714   1.861  0.2651 -0.8043 -0.3202
  979SOL    MW4 3963   0.023   2.724   1.946  0.2017 -0.1347 -0.4092
  980SOL     OW 3964   0.278   2.833   2.006  0.1476  0.2982  0.6432
  980SOL    HW2 3965   0.267   2.925   1.982 -1.6129  0.3183  1.4436
  980SOL    HW3 3966   0.189   2.796   2.003  0.6774 -1.0998  1.4203
  980SOL    MW4 3967   0.265   2.840   2.002 -0.0148  0.1163  0.8512
  981SOL     OW 3968   0.227   3.098   1.924  0.0229 -0.2929  0.4780
  981SOL    HW2 3969   0.296   3.156   1.955  0.4413 -1.0327  0.9369
  981SOL    HW3 3970   0.232   3.104   1.828  0.0447  0.4351  0.5174
  981SOL    MW4 3971   0.237   3.107   1.915  0.0810 -0.2944  0.5437
  982SOL     OW 3972   4.488   3.237   2.029  0.2187 -0.1163 -0.2189
  982SOL    HW2 3973   4.407   3.201   1.994  0.2082 -0.3119  0.0010
  982SOL    HW3 3974   4.557   3.191   1.982  0.2013  0.0780 -0.4335
  982SOL    MW4 3975   4.486   3.226   2.018  0.2149 -0.1166 -0.2182
  983SOL     OW 3976   0.015   3.469   1.872  0.3482  0.0729 -0.0452
  983SOL    HW2 3977   0.088   3.526   1.898  1.2847 -0.7832 -0.7465
  983SOL    HW3 3978   0.023   3.392   1.928  1.6229 -1.2200 -1.9532
  983SOL    MW4 3979   0.026   3.467   1.883  0.6404 -0.2103 -0.3895
  984SOL     OW 3980   0.219   3.622   1.954 -0.3520 -0.0238 -0.1898
  984SOL    HW2 3981   0.215   3.606   2.048 -0.1418  0.0709 -0.1646
  984SOL    HW3 3982   0.306   3.593   1.928 -0.6945 -0.7910 -0.4963
  984SOL    MW4 3983   0.230   3.616   1.963 -0.3694 -0.1125 -0.2270
  985SOL     OW 3984   0.262   3.861   1.852  0.7012  0.0152 -0.1051
  985SOL    HW2 3985   0.326   3.900   1.912  0.5763 -0.4211  0.3142
  985SOL    HW3 3986   0.238   3.777   1.893  0.1022  0.0289 -0.4192
  985SOL    MW4 3987   0.267   3.855   1.865  0.6057 -0.0403 -0.0913
  986SOL     OW 3988   0.031   3.980   1.953  0.3489 -0.1734 -0.0722
  986SOL    HW2 3989   0.010   4.068   1.921  2.2617  0.5188  0.5495
  986SOL    HW3 3990   0.114   3.958   1.912  0.0701 -1.5607  0.0749
  986SOL    MW4 3991   0.039   3.989   1.944  0.5646 -0.2649  0.0293
  987SOL     OW 3992   0.007   4.245   1.902 -0.0118  0.3096 -0.2559
  987SOL    HW2 3993  -0.068   4.288   1.943  1.3674  1.1151  1.4395
  987SOL    HW3 3994   0.083   4.296   1.930  1.2827 -1.0448 -1.2145
  987SOL    MW4 3995   0.007   4.258   1.911  0.3414  0.2370 -0.1588
  988SOL     OW 3996   0.235   4.354   2.015 -0.5335  0.3802  0.1085
  988SOL    HW2 3997   0.229   4.368   2.109  1.0535  2.1932 -0.0184
  988SOL    HW3 3998   0.224   4.441   1.977  2.0862  0.2054 -1.1758
  988SOL    MW4 3999   0.233   4.367   2.022  0.0216  0.5960 -0.0775
  989SOL     OW 4000   0.633   0.003   1.891 -0.2538 -0.3061 -0.1063
  989SOL    HW2 4001   0.636  -0.087   1.923  2.1560 -0.4739 -0.6722
  989SOL    HW3 4002   0.645  -0.005   1.796 -0.8530  0.5683 -0.2629
  989SOL    MW4 4003   0.635  -0.010   1.883 -0.0148 -0.2127 -0.2016
  990SOL     OW 4004   0.397   0.095   1.990 -0.1871  0.2462 -0.0641
  990SOL    HW2 4005   0.407   0.189   1.977  1.1116  0.1125 -0.0600
  990SOL    HW3 4006   0.483   0.058   1.968 -0.6971 -0.9383 -0.1092
  990SOL    MW4 4007   0.410   0.102   1.985 -0.0831  0.0723 -0.0695
  991SOL     OW 4008   0.438   0.380   1.921 -0.3676  0.0656  0.1415
  991SOL    HW2 4009   0.524   0.418   1.938 -0.7377  1.1372 -0.3816
  991SOL    HW3 4010   0.435   0.370   1.826 -0.5474 -0.6538  0.2152
  991SOL    MW4 4011   0.449   0.384   1.911 -0.4402  0.1121  0.0821
  992SOL     OW 4012   0.697   0.477   1.998 -0.0879  0.0317  0.3781
  992SOL    HW2 4013   0.688   0.460   2.092  0.3520 -0.8131  0.2724
  992SOL    HW3 4014   0.769   0.421   1.970 -1.2794 -0.9542 -0.7877
  992SOL    MW4 4015   0.705   0.467   2.006 -0.1871 -0.2098  0.2100
  993SOL     OW 4016   0.703   0.730   1.874  0.2485  0.2007 -0.0554
  993SOL    HW2 4017   0.783   0.770   1.909 -0.9561  1.3741  1.4497
  993SOL    HW3 4018   0.701   0.643   1.912  0.6174  0.3074  0.2101
  993SOL    MW4 4019   0.713   0.724   1.884  0.1383  0.3696  0.1782
  994SOL     OW 4020   0.484   0.836   2.011  0.0427  0.1781  0.5386
  994SOL    HW2 4021   0.476   0.929   1.990  0.0043 -0.2633 -1.5570
  994SOL    HW3 4022   0.562   0.808   1.963 -0.2711 -0.9854  0.7002
  994SOL    MW4 4023   0.494   0.845   2.002 -0.0038 -0.0336  0.2835
  995SOL     OW 4024   0.465   1.103   1.892  0.3926  0.3921 -0.4552
  995SOL    HW2 4025   0.388   1.157   1.910 -0.4059 -0.5030 -1.1157
  995SOL    HW3 4026   0.473   1.105   1.796  0.6666 -0.2254 -0.4479
  995SOL    MW4 4027   0.456   1.111   1.882  0.3234  0.1925 -0.5414
  996SOL     OW 4028   0.688   1.271   1.962  0.5111 -0.2497  0.1479
  996SOL    HW2 4029   0.691   1.252   2.056  0.2062  0.7530  0.3607
  996SOL    HW3 4030   0.610   1.225   1.931  0.5004 -0.4149  0.4157
  996SOL    MW4 4031   0.678   1.262   1.971  0.4694 -0.1391  0.2112
  997SOL     OW 4032   0.704   1.535   1.895  0.6083 -0.3662  0.4858
  997SOL    HW2 4033   0.701   1.444   1.927 -0.6451 -0.6127 -0.3131
  997SOL    HW3 4034   0.717   1.527   1.801 -1.7000  0.2136  0.0787
  997SOL    MW4 4035   0.705   1.522   1.887  0.1384 -0.3221  0.3268
  998SOL     OW 4036   0.462   1.642   1.981  0.2268 -0.0476  0.1741
  998SOL    HW2 4037   0.461   1.651   2.076 -0.2486 -1.2576  0.2954
  998SOL    HW3 4038   0.547   1.603   1.961 -0.2817 -1.2395  0.2630
  998SOL    MW4 4039   0.473   1.638   1.991  0.0970 -0.3647  0.2018
  999SOL     OW 4040   0.499   1.923   1.919  0.2997  0.3440 -0.2012
  999SOL    HW2 4041   0.481   1.833   1.948  0.2319  0.0003 -1.2978
  999SOL    HW3 4042   0.416   1.969   1.933  0.2503  0.1676  0.1008
  999SOL    MW4 4043   0.486   1.917   1.925  0.2842  0.2753 -0.3061
 1000SOL     OW 4044   0.739   2.073   1.976  0.4515 -0.0810  0.1457
 1000SOL    HW2 4045   0.724   2.069   2.071  0.7975 -1.2100  0.1607
 1000SOL    HW3 4046   0.680   2.007   1.940  1.8335 -1.1231 -0.2336
 1000SOL    MW4 4047   0.729   2.064   1.984  0.6796 -0.3674  0.0976
 1001SOL     OW 4048   0.679   2.318   1.893 -0.2466  0.5219  0.5921
 1001SOL    HW2 4049   0.689   2.226   1.918 -0.7307  0.4409  0.5000
 1001SOL    HW3 4050   0.704   2.320   1.801  1.5905  0.8302  1.0938
 1001SOL    MW4 4051   0.683   2.306   1.885 -0.0680  0.5517  0.6461
 1002SOL     OW 4052   0.446   2.442   1.985  0.1456 -0.0532  0.5352
 1002SOL    HW2 4053   0.454   2.452   2.080 -1.4193  0.7394  0.5933
 1002SOL    HW3 4054   0.524   2.393   1.960  0.9671  0.4037  2.1275
 1002SOL    MW4 4055   0.457   2.437   1.995  0.0476  0.1116  0.7530
 1003SOL     OW 4056   0.464   2.700   1.861 -0.1634  0.2764  0.0548
 1003SOL    HW2 4057   0.459   2.608   1.888 -0.8563  0.8798  2.1236
 1003SOL    HW3 4058   0.390   2.742   1.907  0.0586  1.8320 -0.9723
 1003SOL    MW4 4059   0.453   2.694   1.871 -0.2255  0.5610  0.1923
 1004SOL     OW 4060   0.697   2.819   1.986 -0.4194 -0.1321  0.0269
 1004SOL    HW2 4061   0.684   2.816   2.081 -1.2130  0.7456 -0.0426
 1004SOL    HW3 4062   0.621   2.771   1.950  0.8305 -2.0611 -0.1105
 1004SOL    MW4 4063   0.685   2.812   1.994 -0.3592 -0.2708 -0.0004
 1005SOL     OW 4064   0.619   3.072   1.863  0.2012 -0.1694 -0.1999
 1005SOL    HW2 4065   0.654   3.002   1.918  0.3595  0.3942  0.4206
 1005SOL    HW3 4066   0.650   3.051   1.775  0.1324 -0.9531 -0.0388
 1005SOL    MW4 4067   0.628   3.060   1.859  0.2130 -0.1984 -0.0969
 1006SOL     OW 4068   0.425   3.242   2.013  0.2649 -0.0221 -0.2822
 1006SOL    HW2 4069   0.423   3.326   1.967  1.6100  1.0082  1.4985
 1006SOL    HW3 4070   0.491   3.190   1.966  0.1147  0.2564 -0.8026
 1006SOL    MW4 4071   0.433   3.246   2.001  0.4226  0.1507 -0.1161
 1007SOL     OW 4072   0.443   3.493   1.886  0.0350  0.0071 -0.1448
 1007SOL    HW2 4073   0.528   3.531   1.907  0.0951 -0.3369  0.2446
 1007SOL    HW3 4074   0.443   3.486   1.791  0.6707 -0.5169 -0.1090
 1007SOL    MW4 4075   0.454   3.497   1.876  0.1268 -0.1075 -0.0887
 1008SOL     OW 4076   0.665   3.646   1.984  0.2868 -0.0186  0.3646
 1008SOL    HW2 4077   0.729   3.599   1.931  1.5492  0.4653  1.4130
 1008SOL    HW3 4078   0.680   3.738   1.962 -0.9528  0.0124 -0.3606
 1008SOL    MW4 4079   0.676   3.652   1.975  0.2898  0.0496  0.4072
 1009SOL     OW 4080   0.673   3.940   1.849 -0.0872  0.5986 -0.4349
 1009SOL    HW2 4081   0.757   3.973   1.880  0.2374  0.1646 -0.8423
 1009SOL    HW3 4082   0.682   3.937   1.754  0.0010 -0.9329 -0.3910
 1009SOL    MW4 4083   0.685   3.944   1.841 -0.0327  0.3393 -0.4829
 1010SOL     OW 4084   0.454   3.993   2.008  0.7666 -0.1889  0.1170
 1010SOL    HW2 4085   0.455   4.086   1.987  1.2486  0.0330  1.0829
 1010SOL    HW3 4086   0.530   3.958   1.961  1.3562  0.1564  0.7830
 1010SOL    MW4 4087   0.464   4.001   1.999  0.9080 -0.1140  0.3325
 1011SOL     OW 4088   0.479   4.260   1.936  0.1583  0.0180 -0.2732
 1011SOL    HW2 4089   0.389   4.285   1.957  0.9080  2.1252  0.5641
 1011SOL    HW3 4090   0.487   4.274   1.842 -1.0069 -2.2388 -0.7261
 1011SOL    MW4 4091   0.468   4.265   1.926  0.1035 -0.0014 -0.2226
 1012SOL     OW 4092   0.685   4.415   2.011 -0.3221 -0.0319  0.5109
 1012SOL    HW2 4093   0.765   4.369   1.986 -1.2651 -1.2186 -0.3528
 1012SOL    HW3 4094   0.616   4.350   2.002 -1.9621  2.0166 -2.5745
 1012SOL    MW4 4095   0.687   4.400   2.007 -0.6628  0.0820 -0.0103
 1013SOL     OW 4096   1.061   4.655   1.867  0.2021  0.1931 -0.0524
 1013SOL    HW2 4097   1.144   4.684   1.904  0.1805  0.0244  0.1283
 1013SOL    HW3 4098   1.043   4.571   1.910 -0.4225  0.5746  0.4602
 1013SOL    MW4 4099   1.069   4.648   1.878  0.1168  0.2208  0.0390
 1014SOL     OW 4100   0.853   0.127   2.022  0.3451  0.3038  0.4786
 1014SOL    HW2 4101   0.916   0.069   1.978 -0.2086 -1.5832  2.1135
 1014SOL    HW3 4102   0.768   0.092   1.996 -0.0002  0.7926  0.9607
 1014SOL    MW4 4103   0.850   0.115   2.012  0.2266  0.1193  0.7579
 1015SOL     OW 4104   0.913   0.350   1.873 -0.1610 -0.1276  0.1645
 1015SOL    HW2 4105   0.983   0.402   1.911 -0.5758 -0.6927  1.7606
 1015SOL    HW3 4106   0.910   0.271   1.927 -0.4918 -1.1619 -1.3226
 1015SOL    MW4 4107   0.922   0.346   1.885 -0.2594 -0.3386  0.1791
 1016SOL     OW 4108   1.123   0.487   2.001  0.3517  0.4441 -0.2815
 1016SOL    HW2 4109   1.187   0.428   1.963  0.2312  0.3147 -0.2837
 1016SOL    HW3 4110   1.131   0.568   1.951  0.3231  0.3365 -0.4590
 1016SOL    MW4 4111   1.132   0.490   1.990  0.3321  0.4128 -0.3052
 1017SOL     OW 4112   1.139   0.705   1.847 -0.7194  0.3096 -0.0985
 1017SOL    HW2 4113   1.221   0.750   1.865 -0.5147  0.8752 -2.3314
 1017SOL    HW3 4114   1.073   0.754   1.895  0.1034  0.4153  0.9361
 1017SOL    MW4 4115   1.141   0.717   1.856 -0.5840  0.3981 -0.2565
 1018SOL     OW 4116   0.937   0.853   1.967 -0.4028 -0.1916  0.3602
 1018SOL    HW2 4117   0.925   0.859   2.061 -0.6873 -1.3281  0.3933
 1018SOL    HW3 4118   0.923   0.943   1.936  2.0204  0.6748  1.6488
 1018SOL    MW4 4119   0.934   0.866   1.975 -0.1206 -0.2273  0.5345
 1019SOL     OW 4120   0.911   1.119   1.854 -0.1943  0.0172  0.1348
 1019SOL    HW2 4121   0.839   1.179   1.870  0.3121  0.1864  1.9002
 1019SOL    HW3 4122   0.909   1.103   1.759 -2.2122  0.4101  0.0941
 1019SOL    MW4 4123   0.902   1.125   1.843 -0.3937  0.0914  0.3624
 1020SOL     OW 4124   1.153   1.225   1.998  0.2548  0.2259 -0.4839
 1020SOL    HW2 4125   1.154   1.317   1.974 -1.8463  0.4814  0.3344
 1020SOL    HW3 4126   1.078   1.188   1.951  0.6684 -0.9098 -0.2679
 1020SOL    MW4 4127   1.143   1.232   1.989  0.0321  0.1098 -0.3474
 1021SOL     OW 4128   1.163   1.500   1.897 -0.4582 -0.5739  0.2693
 1021SOL    HW2 4129   1.082   1.536   1.932 -0.1647 -0.3509  0.7285
 1021SOL    HW3 4130   1.158   1.515   1.803 -1.2794 -1.2314  0.2085
 1021SOL    MW4 4131   1.152   1.507   1.889 -0.5279 -0.6312  0.3217
 1022SOL     OW 4132   0.941   1.642   1.984  0.0621  0.3071 -0.0626
 1022SOL    HW2 4133   0.937   1.734   1.958  0.9408  0.1734 -0.6809
 1022SOL    HW3 4134   0.861   1.604   1.948  0.1628  0.6213 -0.6299
 1022SOL    MW4 4135   0.930   1.649   1.976  0.1913  0.3308 -0.2190
 1023SOL     OW 4136   0.942   1.900   1.919 -0.3990 -0.4616 -0.2183
 1023SOL    HW2 4137   0.864   1.952   1.937  0.7298  1.4873 -0.7381
 1023SOL    HW3 4138   0.940   1.885   1.824  1.5165  2.4805 -0.8020
 1023SOL    MW4 4139   0.932   1.905   1.909  0.0027  0.1837 -0.3639
 1024SOL     OW 4140   1.170   2.047   2.021 -0.2406 -0.2061  0.1862
 1024SOL    HW2 4141   1.167   2.132   1.978  1.4861 -0.7197 -0.9960
 1024SOL    HW3 4142   1.097   1.998   1.982  1.0011 -0.4923 -1.8283
 1024SOL    MW4 4143   1.160   2.051   2.010  0.1512 -0.3114 -0.2353
 1025SOL     OW 4144   1.144   2.302   1.881 -0.2281  0.2605  0.5333
 1025SOL    HW2 4145   1.215   2.358   1.910  0.5202 -0.4112  0.0030
 1025SOL    HW3 4146   1.149   2.303   1.785 -1.6715  1.1612  0.4456
 1025SOL    MW4 4147   1.154   2.309   1.872 -0.3198  0.2904  0.4518
 1026SOL     OW 4148   0.921   2.427   1.991 -0.1737  0.2519  0.0920
 1026SOL    HW2 4149   0.984   2.372   1.944 -0.5028  0.2274 -0.3202
 1026SOL    HW3 4150   0.836   2.405   1.952 -0.3302  0.9027  0.0684
 1026SOL    MW4 4151   0.918   2.417   1.980 -0.2378  0.3345  0.0346
 1027SOL     OW 4152   0.932   2.690   1.904  0.9417  0.0184  0.2071
 1027SOL    HW2 4153   0.925   2.599   1.933 -1.0850 -0.2907 -1.0971
 1027SOL    HW3 4154   0.855   2.733   1.942  1.0569  0.8110 -0.4296
 1027SOL    MW4 4155   0.921   2.684   1.913  0.6895  0.0823 -0.0489
 1028SOL     OW 4156   1.132   2.854   1.986 -0.0671 -0.2469 -0.1134
 1028SOL    HW2 4157   1.118   2.862   2.080  0.1722 -1.2892  0.0085
 1028SOL    HW3 4158   1.055   2.807   1.953  0.8248 -1.7019 -0.1376
 1028SOL    MW4 4159   1.120   2.849   1.994  0.0821 -0.5763 -0.1006
 1029SOL     OW 4160   1.118   3.101   1.870  0.0204 -0.0834 -0.2394
 1029SOL    HW2 4161   1.037   3.141   1.903 -0.3597  0.5993 -1.9488
 1029SOL    HW3 4162   1.122   3.016   1.914 -0.5061  0.7599  1.4867
 1029SOL    MW4 4163   1.108   3.095   1.880 -0.0993  0.1178 -0.2371
 1030SOL     OW 4164   0.898   3.233   1.943  0.3534  0.1149  0.4326
 1030SOL    HW2 4165   0.885   3.233   2.038 -0.5281  1.2631  0.3168
 1030SOL    HW3 4166   0.820   3.191   1.907  0.2749  0.4851  0.1644
 1030SOL    MW4 4167   0.886   3.228   1.951  0.2267  0.3152  0.3821
 1031SOL     OW 4168   0.875   3.496   1.855  0.0894  0.2093 -0.1812
 1031SOL    HW2 4169   0.891   3.407   1.886  2.3702  0.2428 -1.1691
 1031SOL    HW3 4170   0.886   3.491   1.760  0.1333  1.5342 -0.2578
 1031SOL    MW4 4171   0.878   3.484   1.846  0.3961  0.3886 -0.3216
 1032SOL     OW 4172   1.119   3.627   1.944 -0.0267  0.7072 -0.0863
 1032SOL    HW2 4173   1.100   3.643   2.036 -0.7124  3.8493 -0.7032
 1032SOL    HW3 4174   1.039   3.585   1.910  0.0206  0.0446  0.6025
 1032SOL    MW4 4175   1.106   3.623   1.952 -0.1109  1.0343 -0.0769
 1033SOL     OW 4176   1.144   3.896   1.875 -0.2869  0.6693  0.1920
 1033SOL    HW2 4177   1.138   3.802   1.891  0.3726  0.6785  0.4971
 1033SOL    HW3 4178   1.144   3.905   1.780 -0.9893  0.4073  0.1588
 1033SOL    MW4 4179   1.143   3.885   1.865 -0.2925  0.6361  0.2279
 1034SOL     OW 4180   0.912   4.007   1.986  0.3561 -0.1729 -0.0145
 1034SOL    HW2 4181   0.929   3.999   2.080 -1.1404 -1.7170  0.1512
 1034SOL    HW3 4182   0.989   3.970   1.944  0.9312  0.3056  0.5946
 1034SOL    MW4 4183   0.924   4.001   1.993  0.2345 -0.3133  0.0877
 1035SOL     OW 4184   0.886   4.275   1.895  0.3280 -0.7454  0.3122
 1035SOL    HW2 4185   0.960   4.313   1.944 -0.0402 -0.5212  0.6994
 1035SOL    HW3 4186   0.883   4.184   1.925  0.5242 -0.7883  0.2031
 1035SOL    MW4 4187   0.896   4.268   1.906  0.3052 -0.7215  0.3487
 1036SOL     OW 4188   1.086   4.400   2.024  0.0681  0.4517  0.0765
 1036SOL    HW2 4189   1.095   4.419   2.117  0.6943  1.8525 -0.2609
 1036SOL    HW3 4190   1.175   4.379   1.995 -0.1032  0.1470 -0.2382
 1036SOL    MW4 4191   1.099   4.400   2.032  0.1281  0.5960 -0.0095
 1037SOL     OW 4192   1.568   4.663   1.867  0.2600 -0.3239 -0.7441
 1037SOL    HW2 4193   1.645   4.717   1.887 -0.0838 -0.0079 -0.2759
 1037SOL    HW3 4194   1.588   4.578   1.905 -0.9704  0.6477  2.2145
 1037SOL    MW4 4195   1.581   4.659   1.875  0.0523 -0.1540 -0.2918
 1038SOL     OW 4196   1.311   0.063   1.960  0.0467 -0.2239 -0.6102
 1038SOL    HW2 4197   1.309   0.061   2.056  2.2386 -0.0710 -0.5231
 1038SOL    HW3 4198   1.384   0.006   1.936 -0.9674 -0.8710 -2.2347
 1038SOL    MW4 4199   1.320   0.055   1.970  0.2022 -0.2891 -0.8132
 1039SOL     OW 4200   1.350   0.345   1.908  0.0394 -0.0848 -0.2245
 1039SOL    HW2 4201   1.349   0.251   1.926  1.9940 -0.1918 -0.5710
 1039SOL    HW3 4202   1.362   0.352   1.813  1.5934  0.4933 -0.0089
 1039SOL    MW4 4203   1.352   0.334   1.898  0.5022 -0.0227 -0.2418
 1040SOL     OW 4204   1.585   0.480   1.971  0.1927 -0.0859  0.4868
 1040SOL    HW2 4205   1.648   0.439   1.912 -0.1705  0.4486 -0.2832
 1040SOL    HW3 4206   1.503   0.434   1.954  0.0441  0.1937  0.4477
 1040SOL    MW4 4207   1.582   0.468   1.961  0.1251  0.0215  0.3800
 1041SOL     OW 4208   1.611   0.747   1.877  0.3293  0.2196 -0.2557
 1041SOL    HW2 4209   1.683   0.799   1.914 -0.1071  0.2409  0.5810
 1041SOL    HW3 4210   1.622   0.661   1.916 -0.9711  0.6262  1.0648
 1041SOL    MW4 4211   1.622   0.743   1.887  0.1003  0.2761  0.0288
 1042SOL     OW 4212   1.366   0.865   1.941  0.1220  0.2134 -0.1733
 1042SOL    HW2 4213   1.360   0.856   2.036 -0.1159 -1.8899 -0.3488
 1042SOL    HW3 4214   1.445   0.815   1.918 -0.0110  0.4246 -1.1094
 1042SOL    MW4 4215   1.376   0.857   1.951  0.0732 -0.0362 -0.3200
 1043SOL     OW 4216   1.351   1.132   1.851 -0.3640  0.1957 -0.3144
 1043SOL    HW2 4217   1.372   1.049   1.895 -0.6527  0.7290  0.8599
 1043SOL    HW3 4218   1.284   1.171   1.906  0.3693  1.6005 -0.4064
 1043SOL    MW4 4219   1.345   1.126   1.864 -0.3053  0.4516 -0.1718
 1044SOL     OW 4220   1.567   1.285   1.971 -0.0157 -0.0371 -0.0243
 1044SOL    HW2 4221   1.570   1.364   1.917 -0.3779 -0.6530 -0.9620
 1044SOL    HW3 4222   1.490   1.238   1.940  0.0676 -0.6506  0.6845
 1044SOL    MW4 4223   1.557   1.289   1.959 -0.0526 -0.1992 -0.0545
 1045SOL     OW 4224   1.608   1.523   1.870  0.1242 -0.2083 -0.2596
 1045SOL    HW2 4225   1.680   1.567   1.914 -0.7899 -1.8613  3.0191
 1045SOL    HW3 4226   1.531   1.576   1.891 -0.3095 -0.9778  0.1166
 1045SOL    MW4 4227   1.607   1.536   1.879 -0.0536 -0.5279  0.2226
 1046SOL     OW 4228   1.372   1.659   1.984  0.2647 -0.4810  0.2282
 1046SOL    HW2 4229   1.387   1.651   2.078  4.0390 -0.9777 -0.3286
 1046SOL    HW3 4230   1.309   1.591   1.963  1.1499 -1.9014  2.0509
 1046SOL    MW4 4231   1.366   1.649   1.993  0.8795 -0.7339  0.3951
 1047SOL     OW 4232   1.365   1.913   1.873 -0.4368 -0.3208 -0.3453
 1047SOL    HW2 4233   1.364   1.827   1.916 -1.3243  0.1346  0.5441
 1047SOL    HW3 4234   1.299   1.964   1.919  1.4171  1.4791  0.4056
 1047SOL    MW4 4235   1.356   1.908   1.885 -0.3093 -0.0232 -0.1289
 1048SOL     OW 4236   1.586   2.060   1.951  0.0983  0.0398  0.1657
 1048SOL    HW2 4237   1.571   2.143   1.907 -2.9829 -0.0365  0.9653
 1048SOL    HW3 4238   1.518   2.002   1.917  1.4291 -1.7930  0.5441
 1048SOL    MW4 4239   1.575   2.063   1.941 -0.1326 -0.2120  0.3211
 1049SOL     OW 4240   1.586   2.331   1.853 -0.0469 -0.4364  0.0563
 1049SOL    HW2 4241   1.667   2.369   1.889  0.1533 -1.8814  1.1748
 1049SOL    HW3 4242   1.583   2.363   1.763  1.8499 -0.4722 -0.0404
 1049SOL    MW4 4243   1.597   2.341   1.846  0.2298 -0.6316  0.1911
 1050SOL     OW 4244   1.362   2.447   1.976 -0.2095 -0.6210 -0.0132
 1050SOL    HW2 4245   1.363   2.535   1.938  0.7812 -1.2596 -1.5279
 1050SOL    HW3 4246   1.439   2.405   1.939 -0.9828 -2.3097  0.2658
 1050SOL    MW4 4247   1.372   2.453   1.966 -0.1810 -0.9284 -0.1762
 1051SOL     OW 4248   1.365   2.710   1.907  0.0934  0.1657 -0.4543
 1051SOL    HW2 4249   1.279   2.747   1.924  1.4554  2.9260  0.8174
 1051SOL    HW3 4250   1.367   2.695   1.812 -1.5555  0.6664 -0.5794
 1051SOL    MW4 4251   1.354   2.713   1.897  0.0556  0.5963 -0.3029
 1052SOL     OW 4252   1.608   2.843   1.987  0.0253 -0.2039  0.0767
 1052SOL    HW2 4253   1.674   2.796   1.936  0.9640  0.0805  1.0226
 1052SOL    HW3 4254   1.526   2.796   1.969  0.3797 -0.2143 -1.5321
 1052SOL    MW4 4255   1.606   2.831   1.978  0.1959 -0.1678 -0.0108
 1053SOL     OW 4256   1.559   3.095   1.846 -0.1988  0.2176 -0.1902
 1053SOL    HW2 4257   1.560   3.001   1.866 -0.1977  0.1122 -0.6809
 1053SOL    HW3 4258   1.592   3.101   1.756  1.5767  0.8435  0.4597
 1053SOL    MW4 4259   1.564   3.083   1.837  0.0356  0.2863 -0.1693
 1054SOL     OW 4260   1.359   3.224   1.974  0.4082  0.1245  0.0523
 1054SOL    HW2 4261   1.427   3.168   1.936 -0.3617 -1.9470  1.6285
 1054SOL    HW3 4262   1.278   3.195   1.934  0.0028  0.1510  0.8477
 1054SOL    MW4 4263   1.357   3.213   1.964  0.2533 -0.1450  0.3651
 1055SOL     OW 4264   1.353   3.481   1.894  0.3154 -0.1703 -0.0713
 1055SOL    HW2 4265   1.341   3.399   1.942 -0.2093 -0.3428 -0.4992
 1055SOL    HW3 4266   1.279   3.536   1.922  1.2629  0.5667  1.0572
 1055SOL    MW4 4267   1.341   3.477   1.904  0.3712 -0.0958  0.0212
 1056SOL     OW 4268   1.584   3.601   1.996  0.1918  0.1291  0.1438
 1056SOL    HW2 4269   1.580   3.610   2.091 -0.0647  1.5920  0.0117
 1056SOL    HW3 4270   1.505   3.553   1.973 -0.5955  1.2150  0.5306
 1056SOL    MW4 4271   1.573   3.596   2.005  0.0541  0.4654  0.1774
 1057SOL     OW 4272   1.572   3.862   1.893 -0.3510 -0.4342 -0.2015
 1057SOL    HW2 4273   1.652   3.898   1.930  1.1303 -2.1042 -1.6948
 1057SOL    HW3 4274   1.569   3.772   1.925 -2.4161  0.0151  0.9967
 1057SOL    MW4 4275   1.582   3.855   1.902 -0.4282 -0.5953 -0.2404
 1058SOL     OW 4276   1.376   4.027   1.957 -0.2315 -0.3081 -0.2507
 1058SOL    HW2 4277   1.451   3.976   1.926 -0.2527  0.2046 -1.1501
 1058SOL    HW3 4278   1.300   3.977   1.931 -0.2218 -0.4513 -0.0057
 1058SOL    MW4 4279   1.376   4.014   1.950 -0.2331 -0.2589 -0.3370
 1059SOL     OW 4280   1.362   4.310   1.883 -0.9718  0.1667  0.0551
 1059SOL    HW2 4281   1.365   4.216   1.902 -0.6461  0.0780 -0.4092
 1059SOL    HW3 4282   1.380   4.315   1.789 -1.5629  0.6534 -0.0346
 1059SOL    MW4 4283   1.365   4.298   1.873 -1.0067  0.2193 -0.0181
 1060SOL     OW 4284   1.613   4.426   1.989  0.2099  0.2170 -0.7323
 1060SOL    HW2 4285   1.624   4.448   2.082 -1.1143  1.5112 -0.8686
 1060SOL    HW3 4286   1.528   4.383   1.985  1.2463 -1.8911 -1.0254
 1060SOL    MW4 4287   1.603   4.423   2.001  0.1719  0.1097 -0.7892
 1061SOL     OW 4288   2.054   4.654   1.887 -0.6175  0.0508  0.2149
 1061SOL    HW2 4289   2.113   4.707   1.941 -2.7626  1.7019  0.9717
 1061SOL    HW3 4290   2.045   4.572   1.936  0.0349  0.2742  0.7182
 1061SOL    MW4 4291   2.061   4.650   1.901 -0.8144  0.2985  0.3811
 1062SOL     OW 4292   1.810   0.115   1.938  0.0462 -0.1567  0.0516
 1062SOL    HW2 4293   1.790   0.117   2.032 -0.5802 -0.0164 -0.0830
 1062SOL    HW3 4294   1.898   0.076   1.933 -0.0696 -0.5088  0.6713
 1062SOL    MW4 4295   1.819   0.110   1.950 -0.0517 -0.1846  0.1156
 1063SOL     OW 4296   1.824   0.375   1.847  0.5135 -0.0979  0.0262
 1063SOL    HW2 4297   1.825   0.281   1.868 -0.3420  0.0373  0.6863
 1063SOL    HW3 4298   1.819   0.378   1.752  2.0871 -0.7250 -0.0933
 1063SOL    MW4 4299   1.823   0.363   1.837  0.6083 -0.1628  0.0975
 1064SOL     OW 4300   2.006   0.499   1.997 -0.3946  0.1322 -0.1753
 1064SOL    HW2 4301   2.024   0.585   1.961  1.7292 -0.6432 -1.0707
 1064SOL    HW3 4302   1.940   0.461   1.938  0.0824  0.4244 -0.9048
 1064SOL    MW4 4303   2.000   0.505   1.984 -0.0515  0.0684 -0.3895
 1065SOL     OW 4304   2.050   0.757   1.880  0.2133  0.2924 -0.3805
 1065SOL    HW2 4305   2.124   0.812   1.907  1.2804 -0.8725 -0.8778
 1065SOL    HW3 4306   2.050   0.761   1.785  0.1681 -0.3927 -0.4147
 1065SOL    MW4 4307   2.060   0.765   1.871  0.3481  0.0483 -0.4505
 1066SOL     OW 4308   1.834   0.886   1.986  0.6134 -0.3127  0.0286
 1066SOL    HW2 4309   1.827   0.972   1.944  1.1592  0.4596  1.4896
 1066SOL    HW3 4310   1.917   0.850   1.954  1.0584  0.2946  0.4990
 1066SOL    MW4 4311   1.844   0.893   1.976  0.7441 -0.1307  0.2834
 1067SOL     OW 4312   1.785   1.141   1.887 -0.4559  0.3627 -0.0995
 1067SOL    HW2 4313   1.701   1.182   1.910 -1.3935 -0.9775 -1.0065
 1067SOL    HW3 4314   1.792   1.153   1.792  0.6984  1.0312  0.0631
 1067SOL    MW4 4315   1.775   1.148   1.877 -0.4274  0.2742 -0.1979
 1068SOL     OW 4316   2.019   1.273   1.987  0.0190 -0.2285 -0.3781
 1068SOL    HW2 4317   2.100   1.230   1.959  0.1054  0.4878 -1.2480
 1068SOL    HW3 4318   1.949   1.223   1.944  0.0778 -0.0053 -0.7398
 1068SOL    MW4 4319   2.020   1.261   1.977  0.0379 -0.1045 -0.5406
 1069SOL     OW 4320   1.980   1.534   1.874 -0.3670  0.2358 -0.0157
 1069SOL    HW2 4321   1.994   1.451   1.921  0.4108  1.3484  1.7502
 1069SOL    HW3 4322   1.994   1.512   1.782  1.3395 -1.2730  0.5823
 1069SOL    MW4 4323   1.984   1.520   1.868 -0.0393  0.1836  0.2962
 1070SOL     OW 4324   1.806   1.717   1.988 -0.3880  0.1111 -0.2135
 1070SOL    HW2 4325   1.802   1.798   1.936  0.5418  0.6461  0.5467
 1070SOL    HW3 4326   1.866   1.660   1.939 -0.7775 -0.0056 -0.5673
 1070SOL    MW4 4327   1.813   1.720   1.974 -0.3169  0.1664 -0.1599
 1071SOL     OW 4328   1.814   1.963   1.849 -0.6355 -0.2885  0.2267
 1071SOL    HW2 4329   1.737   2.014   1.875  0.3089  1.2630  0.0407
 1071SOL    HW3 4330   1.814   1.966   1.753 -0.9109 -1.1709  0.1909
 1071SOL    MW4 4331   1.804   1.970   1.840 -0.5472 -0.2003  0.1974
 1072SOL     OW 4332   2.027   2.083   1.968 -0.2242  0.2682 -0.0607
 1072SOL    HW2 4333   2.100   2.043   1.920  0.1199  2.3774 -1.3561
 1072SOL    HW3 4334   1.949   2.042   1.931  0.2206 -1.0988  0.4667
 1072SOL    MW4 4335   2.026   2.072   1.956 -0.1202  0.3664 -0.1619
 1073SOL     OW 4336   2.061   2.331   1.875  0.1894  0.0861  0.1846
 1073SOL    HW2 4337   2.142   2.362   1.916  1.6800 -0.9865 -1.8172
 1073SOL    HW3 4338   2.055   2.239   1.900  0.9114 -0.4792 -1.5908
 1073SOL    MW4 4339   2.071   2.323   1.883  0.4816 -0.1302 -0.3139
 1074SOL     OW 4340   1.815   2.458   1.951 -0.0644 -0.0391  0.0504
 1074SOL    HW2 4341   1.806   2.467   2.046 -1.1710  1.1229 -0.1570
 1074SOL    HW3 4342   1.890   2.399   1.939  1.3151  1.3613  1.6107
 1074SOL    MW4 4343   1.824   2.452   1.962 -0.0284  0.2987  0.2290
 1075SOL     OW 4344   1.805   2.700   1.833 -0.1087  0.1231 -0.6449
 1075SOL    HW2 4345   1.813   2.608   1.858 -0.0054  0.8175  2.0012
 1075SOL    HW3 4346   1.816   2.700   1.738  1.2352 -2.4410 -0.5361
 1075SOL    MW4 4347   1.808   2.688   1.824  0.0823 -0.1237 -0.2815
 1076SOL     OW 4348   2.020   2.840   1.960  0.5585  0.2623  0.4219
 1076SOL    HW2 4349   1.997   2.819   2.050  1.2705  2.5071  1.1427
 1076SOL    HW3 4350   1.948   2.804   1.908 -0.6122  0.2771  1.9962
 1076SOL    MW4 4351   2.008   2.832   1.965  0.4981  0.5603  0.7248
 1077SOL     OW 4352   2.033   3.115   1.896 -0.3641  0.1473  0.4172
 1077SOL    HW2 4353   1.948   3.154   1.917 -0.7010 -0.0808 -0.4909
 1077SOL    HW3 4354   2.027   3.025   1.928 -0.3970  0.1873  0.5239
 1077SOL    MW4 4355   2.021   3.108   1.903 -0.4127  0.1225  0.3115
 1078SOL     OW 4356   1.777   3.215   1.951 -0.4850  0.0173 -0.0555
 1078SOL    HW2 4357   1.777   3.205   2.046 -0.2255 -0.5916 -0.1144
 1078SOL    HW3 4358   1.695   3.175   1.922 -0.1941 -0.5258 -0.1508
 1078SOL    MW4 4359   1.766   3.208   1.960 -0.4123 -0.1347 -0.0758
 1079SOL     OW 4360   1.825   3.483   1.901  0.3040  0.1218  0.6220
 1079SOL    HW2 4361   1.807   3.391   1.921 -1.5676 -0.2511 -2.4253
 1079SOL    HW3 4362   1.747   3.529   1.930  0.1615  0.3776 -0.1488
 1079SOL    MW4 4363   1.812   3.477   1.907  0.0383  0.1063  0.1183
 1080SOL     OW 4364   2.066   3.605   1.983 -0.1757  0.0320 -0.0766
 1080SOL    HW2 4365   2.061   3.691   1.942 -1.2751  0.0943  0.1784
 1080SOL    HW3 4366   1.976   3.572   1.982  0.2081 -1.0447 -0.0286
 1080SOL    MW4 4367   2.053   3.612   1.978 -0.2701 -0.1020 -0.0367
 1081SOL     OW 4368   2.049   3.865   1.896 -0.1631 -0.1944  0.1672
 1081SOL    HW2 4369   2.118   3.910   1.945  0.2828 -0.2530 -0.4015
 1081SOL    HW3 4370   2.057   3.898   1.806 -1.1611  0.1313  0.1842
 1081SOL    MW4 4371   2.059   3.875   1.890 -0.2358 -0.1593  0.0945
 1082SOL     OW 4372   1.811   3.979   1.976 -0.3496  0.2299 -0.0223
 1082SOL    HW2 4373   1.815   4.059   1.924  0.2405  0.0124 -0.3141
 1082SOL    HW3 4374   1.887   3.929   1.948 -0.5703 -0.3144  0.3570
 1082SOL    MW4 4375   1.822   3.983   1.966 -0.3009  0.1295 -0.0106
 1083SOL     OW 4376   1.788   4.239   1.866 -0.0311 -0.4128 -0.2037
 1083SOL    HW2 4377   1.729   4.307   1.900  1.6575  0.3180  1.3431
 1083SOL    HW3 4378   1.780   4.248   1.771 -0.3516  1.5158 -0.0311
 1083SOL    MW4 4379   1.779   4.249   1.858  0.1494 -0.0625  0.0231
 1084SOL     OW 4380   2.021   4.393   1.963  0.4915  0.0290  0.1407
 1084SOL    HW2 4381   2.097   4.352   1.921 -0.2138 -0.0964 -1.0377
 1084SOL    HW3 4382   1.946   4.348   1.924 -0.1956  0.4106  1.0198
 1084SOL    MW4 4383   2.021   4.381   1.952  0.3080  0.0620  0.1011
 1085SOL     OW 4384   2.451   4.642   1.875  0.0183  0.1073  0.1211
 1085SOL    HW2 4385   2.539   4.670   1.902  0.5234 -0.5621 -0.7936
 1085SOL    HW3 4386   2.441   4.555   1.914  0.2330 -0.3057 -0.7236
 1085SOL    MW4 4387   2.462   4.634   1.884  0.1132 -0.0353 -0.1112
 1086SOL     OW 4388   2.256   0.144   2.018 -0.0997  0.2542  0.3467
 1086SOL    HW2 4389   2.270   0.142   2.113 -0.7135  0.9104  0.4578
 1086SOL    HW3 4390   2.333   0.100   1.981 -0.2548 -0.7228  1.1820
 1086SOL    MW4 4391   2.268   0.138   2.026 -0.2007  0.2118  0.4716
 1087SOL     OW 4392   2.224   0.379   1.860 -0.3048 -0.1178 -0.0575
 1087SOL    HW2 4393   2.225   0.305   1.921 -0.1132  0.3346  0.4990
 1087SOL    HW3 4394   2.146   0.429   1.886 -0.0718  0.2192 -0.0036
 1087SOL    MW4 4395   2.214   0.376   1.872 -0.2487 -0.0136  0.0231
 1088SOL     OW 4396   2.482   0.499   1.943  0.3354 -0.3732 -0.1229
 1088SOL    HW2 4397   2.556   0.447   1.911  0.7382 -1.2552  2.1590
 1088SOL    HW3 4398   2.406   0.460   1.901  1.0105 -0.3510 -1.4038
 1088SOL    MW4 4399   2.482   0.487   1.933  0.4776 -0.4866  0.0091
 1089SOL     OW 4400   2.518   0.746   1.854  0.2835 -0.2334  0.2482
 1089SOL    HW2 4401   2.500   0.658   1.886  0.0997 -0.6126 -0.8734
 1089SOL    HW3 4402   2.532   0.735   1.760 -1.2100  1.1247 -0.1628
 1089SOL    MW4 4403   2.518   0.733   1.846  0.0622 -0.1042  0.0460
 1090SOL     OW 4404   2.271   0.906   1.948 -0.0133  0.0704 -0.1244
 1090SOL    HW2 4405   2.273   0.897   2.044 -0.6091  1.6724  0.0626
 1090SOL    HW3 4406   2.349   0.862   1.917 -0.0987 -0.9334  1.0736
 1090SOL    MW4 4407   2.281   0.899   1.957 -0.1032  0.1493  0.0583
 1091SOL     OW 4408   2.251   1.174   1.842 -0.0699  0.2743  0.0014
 1091SOL    HW2 4409   2.325   1.226   1.875  0.1772 -0.6170  0.8693
 1091SOL    HW3 4410   2.268   1.086   1.874 -0.8687 -0.1994 -0.8600
 1091SOL    MW4 4411   2.263   1.169   1.851 -0.1428  0.0943  0.0023
 1092SOL     OW 4412   2.500   1.277   1.941  0.0420 -0.0824 -0.7133
 1092SOL    HW2 4413   2.496   1.276   2.037  1.2715  0.4136 -0.6410
 1092SOL    HW3 4414   2.495   1.370   1.918  1.2653 -0.0905 -1.0465
 1092SOL    MW4 4415   2.499   1.289   1.951  0.3655 -0.0180 -0.7478
 1093SOL     OW 4416   2.454   1.554   1.867  0.6298  0.0616 -0.2024
 1093SOL    HW2 4417   2.367   1.583   1.892  0.4811 -0.1816 -0.4302
 1093SOL    HW3 4418   2.448   1.539   1.773  0.4633 -1.4976  0.0364
 1093SOL    MW4 4419   2.442   1.556   1.858  0.5882 -0.1762 -0.2010
 1094SOL     OW 4420   2.199   1.672   1.965 -0.2245 -0.5194 -0.2938
 1094SOL    HW2 4421   2.204   1.653   2.059  0.6189  0.5433 -0.1163
 1094SOL    HW3 4422   2.121   1.625   1.935 -0.8732 -0.3325  1.0719
 1094SOL    MW4 4423   2.190   1.663   1.973 -0.1988 -0.3544 -0.0901
 1095SOL     OW 4424   2.227   1.919   1.854  0.1098  0.7175 -0.1637
 1095SOL    HW2 4425   2.319   1.938   1.871 -0.4943  2.7991  0.9302
 1095SOL    HW3 4426   2.207   1.846   1.914  0.8068  0.8619  0.2503
 1095SOL    MW4 4427   2.236   1.912   1.864  0.1223  1.0113  0.0352
 1096SOL     OW 4428   2.466   2.030   1.926 -0.0777 -0.0238 -0.5282
 1096SOL    HW2 4429   2.552   1.999   1.898  0.8978  1.1719  1.0626
 1096SOL    HW3 4430   2.468   2.124   1.908 -0.2722  0.3710  1.4480
 1096SOL    MW4 4431   2.478   2.038   1.920  0.0255  0.1860 -0.0576
 1097SOL     OW 4432   2.488   2.313   1.883 -0.2627  0.1499  0.2253
 1097SOL    HW2 4433   2.565   2.359   1.916 -0.0695  0.1284 -0.1973
 1097SOL    HW3 4434   2.414   2.364   1.917 -0.1257 -1.0416  2.4317
 1097SOL    MW4 4435   2.489   2.326   1.892 -0.2193 -0.0103  0.4607
 1098SOL     OW 4436   2.279   2.468   1.977  0.1854 -0.1610  0.0015
 1098SOL    HW2 4437   2.278   2.456   2.072  0.3863 -0.1148  0.0079
 1098SOL    HW3 4438   2.288   2.562   1.964  1.5541 -0.3012 -0.0750
 1098SOL    MW4 4439   2.280   2.478   1.988  0.3924 -0.1731 -0.0077
 1099SOL     OW 4440   2.282   2.742   1.917 -0.4026  0.3526  0.0574
 1099SOL    HW2 4441   2.192   2.773   1.925 -0.0688  1.3081  0.1325
 1099SOL    HW3 4442   2.300   2.744   1.823 -0.7944 -0.8100 -0.0489
 1099SOL    MW4 4443   2.272   2.746   1.906 -0.4101  0.3252  0.0533
 1100SOL     OW 4444   2.522   2.865   1.996 -0.4970 -0.3386 -0.3630
 1100SOL    HW2 4445   2.526   2.953   1.959 -0.8318 -0.1841 -0.0457
 1100SOL    HW3 4446   2.432   2.837   1.980 -0.8796  0.0422  1.0127
 1100SOL    MW4 4447   2.510   2.873   1.989 -0.5915 -0.2685 -0.1397
 1101SOL     OW 4448   2.524   3.120   1.897  0.6898 -0.0607  0.0027
 1101SOL    HW2 4449   2.441   3.168   1.900  0.5016 -0.3309 -0.6313
 1101SOL    HW3 4450   2.540   3.107   1.803  0.3237 -1.9210  0.1714
 1101SOL    MW4 4451   2.515   3.125   1.885  0.6168 -0.3421 -0.0588
 1102SOL     OW 4452   2.276   3.232   1.925  0.2765 -0.5444 -0.1254
 1102SOL    HW2 4453   2.274   3.247   2.019 -3.5552  0.3372 -0.2637
 1102SOL    HW3 4454   2.188   3.200   1.904  1.5174 -2.0880 -3.1861
 1102SOL    MW4 4455   2.264   3.230   1.935 -0.0651 -0.6320 -0.5475
 1103SOL     OW 4456   2.260   3.484   1.823  0.0277 -0.0845  0.0789
 1103SOL    HW2 4457   2.282   3.401   1.866  0.3949  1.3591  2.8110
 1103SOL    HW3 4458   2.192   3.522   1.878 -0.2837  1.3343 -1.2623
 1103SOL    MW4 4459   2.254   3.478   1.836  0.0350  0.2933  0.2624
 1104SOL     OW 4460   2.489   3.652   1.937 -0.4678  0.0646 -0.1474
 1104SOL    HW2 4461   2.498   3.672   2.030  0.3642  0.0736 -0.2312
 1104SOL    HW3 4462   2.411   3.597   1.932  0.6880 -1.6937  0.8031
 1104SOL    MW4 4463   2.480   3.648   1.948 -0.2058 -0.1662 -0.0330
 1105SOL     OW 4464   2.507   3.925   1.849 -0.3311 -0.4267 -0.4715
 1105SOL    HW2 4465   2.442   3.963   1.907  0.5867  0.1191  0.2052
 1105SOL    HW3 4466   2.507   3.832   1.870 -1.5211 -0.5791 -1.1012
 1105SOL    MW4 4467   2.499   3.918   1.859 -0.3672 -0.3748 -0.4653
 1106SOL     OW 4468   2.267   4.009   1.985  0.1327  0.3913  0.3161
 1106SOL    HW2 4469   2.275   4.027   2.079 -0.5267  0.6993  0.3113
 1106SOL    HW3 4470   2.247   4.093   1.945  2.3415  0.6247 -0.3479
 1106SOL    MW4 4471   2.265   4.022   1.992  0.3371  0.4630  0.2279
 1107SOL     OW 4472   2.227   4.254   1.869 -0.1521  0.3161 -0.1375
 1107SOL    HW2 4473   2.303   4.297   1.908 -0.7039  1.4893 -0.3306
 1107SOL    HW3 4474   2.248   4.249   1.775  0.9196 -1.9722  0.1945
 1107SOL    MW4 4475   2.239   4.259   1.861 -0.0837  0.1693 -0.1191
 1108SOL     OW 4476   2.441   4.390   1.981  0.0618  0.1764 -0.4707
 1108SOL    HW2 4477   2.444   4.410   2.075 -1.6821  1.0595 -0.5748
 1108SOL    HW3 4478   2.525   4.349   1.962 -0.1333 -1.3839  1.7932
 1108SOL    MW4 4479   2.452   4.387   1.991 -0.1941  0.0873 -0.1858
 1109SOL     OW 4480   2.944   4.626   1.865 -0.0513 -0.2137  0.2927
 1109SOL    HW2 4481   3.020   4.668   1.905  1.1613 -1.5062 -0.5896
 1109SOL    HW3 4482   2.933   4.544   1.912  0.0047 -0.6980 -0.5156
 1109SOL    MW4 4483   2.952   4.621   1.876  0.1159 -0.4478  0.0696
 1110SOL     OW 4484   2.706   0.058   1.932  0.0855  0.6212  0.3277
 1110SOL    HW2 4485   2.703   0.045   2.027 -0.2327 -2.3402 -0.0378
 1110SOL    HW3 4486   2.788   0.018   1.905  0.1120  1.3324 -0.6688
 1110SOL    MW4 4487   2.716   0.051   1.941  0.0470  0.3243  0.1479
 1111SOL     OW 4488   2.699   0.338   1.849  0.0115  0.1596 -0.4685
 1111SOL    HW2 4489   2.777   0.367   1.895  0.2902  0.8950 -1.3890
 1111SOL    HW3 4490   2.691   0.245   1.871 -0.6084  0.7836  2.0981
 1111SOL    MW4 4491   2.708   0.329   1.858 -0.0336  0.3389 -0.2512
 1112SOL     OW 4492   2.904   0.452   2.012 -0.2802 -0.3084 -0.0884
 1112SOL    HW2 4493   2.990   0.412   1.999  0.2780  0.5919  0.7741
 1112SOL    HW3 4494   2.910   0.537   1.969 -0.9369 -0.4823 -0.5353
 1112SOL    MW4 4495   2.916   0.458   2.005 -0.2930 -0.2126 -0.0336
 1113SOL     OW 4496   2.933   0.702   1.882 -0.0743  0.5753 -0.7621
 1113SOL    HW2 4497   3.019   0.741   1.896  0.3200 -0.7235  0.5542
 1113SOL    HW3 4498   2.871   0.765   1.917  0.5905 -0.2816  2.0226
 1113SOL    MW4 4499   2.936   0.715   1.888  0.0653  0.2909 -0.2210
 1114SOL     OW 4500   2.748   0.877   1.972  0.4992 -0.3382  0.2015
 1114SOL    HW2 4501   2.757   0.965   1.935 -0.8565  0.4106  1.6308
 1114SOL    HW3 4502   2.666   0.843   1.935  0.6168 -0.7081  0.2754
 1114SOL    MW4 4503   2.739   0.884   1.962  0.3359 -0.2882  0.3999
 1115SOL     OW 4504   2.726   1.121   1.864  0.5675 -0.4036 -0.0168
 1115SOL    HW2 4505   2.654   1.178   1.890 -1.2261 -2.5302 -0.2033
 1115SOL    HW3 4506   2.737   1.137   1.770  0.8993  0.5313  0.1778
 1115SOL    MW4 4507   2.718   1.130   1.855  0.3743 -0.5608 -0.0159
 1116SOL     OW 4508   2.923   1.300   1.972  0.1508  0.6150 -0.3623
 1116SOL    HW2 4509   2.915   1.387   1.933  1.9889  0.2939 -1.4972
 1116SOL    HW3 4510   2.855   1.248   1.929 -0.3262  1.2300 -0.3613
 1116SOL    MW4 4511   2.913   1.305   1.961  0.3304  0.6539 -0.5119
 1117SOL     OW 4512   2.910   1.553   1.868 -0.2377 -0.2866  0.1381
 1117SOL    HW2 4513   2.984   1.608   1.896 -0.2784  0.4031 -1.0440
 1117SOL    HW3 4514   2.912   1.559   1.772 -1.3667 -0.8790  0.0761
 1117SOL    MW4 4515   2.920   1.561   1.859 -0.3922 -0.2737 -0.0259
 1118SOL     OW 4516   2.680   1.648   1.996 -0.0665  0.0313 -0.2796
 1118SOL    HW2 4517   2.755   1.601   1.959  0.9674  0.8135  0.7897
 1118SOL    HW3 4518   2.606   1.619   1.943  1.0643 -0.3828 -1.6842
 1118SOL    MW4 4519   2.680   1.638   1.984  0.2191  0.0799 -0.3239
 1119SOL     OW 4520   2.709   1.922   1.879 -0.0574 -0.0905  0.0771
 1119SOL    HW2 4521   2.768   1.983   1.923 -0.6161 -0.2302  1.0456
 1119SOL    HW3 4522   2.727   1.837   1.920 -0.4305 -0.2680 -0.1177
 1119SOL    MW4 4523   2.719   1.919   1.890 -0.1805 -0.1323  0.1792
 1120SOL     OW 4524   2.921   2.107   2.014  0.0959  0.1223  0.3726
 1120SOL    HW2 4525   2.892   2.102   2.105 -1.6614  0.6858 -0.1331
 1120SOL    HW3 4526   3.000   2.052   2.010 -0.3997 -0.7263  1.9938
 1120SOL    MW4 4527   2.928   2.099   2.025 -0.2017  0.0844  0.5198
 1121SOL     OW 4528   2.914   2.340   1.851 -0.4025  0.2384 -0.4929
 1121SOL    HW2 4529   2.992   2.390   1.874  0.8399 -0.3997 -3.1325
 1121SOL    HW3 4530   2.914   2.265   1.911  0.6428  0.5829 -0.0605
 1121SOL    MW4 4531   2.924   2.337   1.862 -0.1006  0.1998 -0.7839
 1122SOL     OW 4532   2.714   2.444   1.997 -0.0813 -0.0463 -0.2094
 1122SOL    HW2 4533   2.716   2.536   1.969 -0.7830 -0.5614 -1.9888
 1122SOL    HW3 4534   2.784   2.403   1.948  1.1689 -0.1924  1.6534
 1122SOL    MW4 4535   2.723   2.451   1.987 -0.0086 -0.1335 -0.1984
 1123SOL     OW 4536   2.725   2.716   1.915 -0.6060 -0.3777  0.0542
 1123SOL    HW2 4537   2.651   2.771   1.942  0.8855  1.8270 -0.2212
 1123SOL    HW3 4538   2.731   2.730   1.820  1.6257  1.3764  0.4104
 1123SOL    MW4 4539   2.716   2.725   1.906 -0.1147  0.1447  0.0648
 1124SOL     OW 4540   2.942   2.860   1.972 -0.6527 -0.5136 -0.0268
 1124SOL    HW2 4541   2.926   2.945   1.931  0.1508 -0.9117 -1.2092
 1124SOL    HW3 4542   2.860   2.811   1.958 -1.0239 -0.0313  0.4340
 1124SOL    MW4 4543   2.929   2.865   1.964 -0.5958 -0.5026 -0.1220
 1125SOL     OW 4544   2.906   3.124   1.851 -0.5785  0.0981  0.3235
 1125SOL    HW2 4545   2.992   3.162   1.872 -0.8827  0.2991  1.1901
 1125SOL    HW3 4546   2.851   3.146   1.926 -2.0140  1.9176 -1.2150
 1125SOL    MW4 4547   2.910   3.132   1.863 -0.8082  0.3645  0.2348
 1126SOL     OW 4548   2.728   3.216   2.045  0.1306 -0.3298 -0.2356
 1126SOL    HW2 4549   2.759   3.302   2.016  0.2490 -0.0340  0.7661
 1126SOL    HW3 4550   2.655   3.196   1.986  1.9557 -0.8890 -2.4017
 1126SOL    MW4 4551   2.722   3.225   2.033  0.3867 -0.3643 -0.3893
 1127SOL     OW 4552   2.721   3.485   1.896  0.3334  0.0052 -0.2873
 1127SOL    HW2 4553   2.788   3.544   1.931 -0.5458 -0.5620  2.4604
 1127SOL    HW3 4554   2.640   3.534   1.905  0.0692 -0.2052 -1.4698
 1127SOL    MW4 4555   2.719   3.499   1.901  0.1824 -0.0973 -0.0808
 1128SOL     OW 4556   2.918   3.658   1.988 -0.1017  0.3962  0.2413
 1128SOL    HW2 4557   2.902   3.639   2.081 -1.8037  1.0704  0.0934
 1128SOL    HW3 4558   2.991   3.601   1.965 -0.1165 -0.2941  1.8166
 1128SOL    MW4 4559   2.926   3.648   1.997 -0.3285  0.3939  0.4295
 1129SOL     OW 4560   2.970   3.893   1.895 -0.4372  0.4253  0.1599
 1129SOL    HW2 4561   2.958   3.812   1.945  0.6577  0.1856  0.0357
 1129SOL    HW3 4562   2.977   3.864   1.804  1.0813  0.5545  0.2281
 1129SOL    MW4 4563   2.969   3.878   1.890 -0.0923  0.4106  0.1525
 1130SOL     OW 4564   2.732   4.000   1.976 -0.1289  0.6684  0.0566
 1130SOL    HW2 4565   2.817   3.982   1.937 -0.6464  0.4798 -0.9779
 1130SOL    HW3 4566   2.668   3.978   1.908 -0.9727  1.5743  0.5425
 1130SOL    MW4 4567   2.735   3.995   1.962 -0.3085  0.7629 -0.0159
 1131SOL     OW 4568   2.710   4.264   1.939 -0.2186  0.2798 -0.2718
 1131SOL    HW2 4569   2.716   4.174   1.969  1.3216  0.3056 -0.4823
 1131SOL    HW3 4570   2.701   4.258   1.844  0.3724  0.3508 -0.3364
 1131SOL    MW4 4571   2.710   4.252   1.931  0.0627  0.2933 -0.3082
 1132SOL     OW 4572   2.956   4.396   2.030 -0.0350  0.0401 -0.1666
 1132SOL    HW2 4573   2.952   4.420   2.123  0.8505 -0.5927  0.0398
 1132SOL    HW3 4574   2.877   4.345   2.015 -0.1570  0.0990  0.2542
 1132SOL    MW4 4575   2.945   4.393   2.040  0.0656 -0.0358 -0.0842
 1133SOL     OW 4576   3.412   0.016   1.936  0.0165  0.2087  0.1532
 1133SOL    HW2 4577   3.402  -0.076   1.960  0.6560  0.1303  0.1433
 1133SOL    HW3 4578   3.398   0.018   1.841  0.3905  0.0571  0.0930
 1133SOL    MW4 4579   3.409   0.004   1.926  0.1504  0.1779  0.1439
 1134SOL     OW 4580   3.162   0.080   2.013  0.4094  0.3516  0.1819
 1134SOL    HW2 4581   3.152   0.098   2.106 -0.6145  0.4279  0.0688
 1134SOL    HW3 4582   3.255   0.062   2.001  0.5025  0.0888  1.2623
 1134SOL    MW4 4583   3.173   0.080   2.024  0.2871  0.3270  0.3095
 1135SOL     OW 4584   3.149   0.335   1.934  0.3112 -0.0156  0.0477
 1135SOL    HW2 4585   3.153   0.241   1.956 -0.8853 -0.2725 -0.8098
 1135SOL    HW3 4586   3.145   0.337   1.839 -2.0246  0.8043  0.1354
 1135SOL    MW4 4587   3.149   0.323   1.925 -0.1547  0.0587 -0.0538
 1136SOL     OW 4588   3.381   0.476   2.029  0.7115  0.3442 -0.1370
 1136SOL    HW2 4589   3.458   0.435   1.990 -0.1869 -3.9473  2.2652
 1136SOL    HW3 4590   3.306   0.432   1.987 -0.3148 -0.0574  2.0592
 1136SOL    MW4 4591   3.381   0.465   2.018  0.4578 -0.2750  0.4699
 1137SOL     OW 4592   3.396   0.750   1.940  0.3737 -0.3017 -0.6057
 1137SOL    HW2 4593   3.310   0.784   1.961  0.6428 -0.1577  0.2675
 1137SOL    HW3 4594   3.391   0.656   1.960  0.5059 -0.2429 -0.3058
 1137SOL    MW4 4595   3.384   0.742   1.945  0.4265 -0.2750 -0.4508
 1138SOL     OW 4596   3.162   0.851   1.975 -0.0635  0.3965 -0.2452
 1138SOL    HW2 4597   3.141   0.847   2.069 -0.3516 -1.3046 -0.3804
 1138SOL    HW3 4598   3.156   0.945   1.954  1.2591  0.9685  1.7166
 1138SOL    MW4 4599   3.158   0.863   1.985  0.0732  0.2475 -0.0042
 1139SOL     OW 4600   3.148   1.119   1.906  0.0408  0.1889  0.4849
 1139SOL    HW2 4601   3.230   1.169   1.917 -0.3771  0.6191  1.8124
 1139SOL    HW3 4602   3.079   1.185   1.913 -0.4395 -0.2484 -0.1137
 1139SOL    MW4 4603   3.150   1.135   1.909 -0.0777  0.1879  0.5810
 1140SOL     OW 4604   3.378   1.258   1.977 -0.3682 -0.3773 -0.0313
 1140SOL    HW2 4605   3.363   1.255   2.071  0.7143 -0.0347  0.1569
 1140SOL    HW3 4606   3.361   1.349   1.953 -1.0371 -0.5530 -0.2406
 1140SOL    MW4 4607   3.374   1.270   1.986 -0.3133 -0.3552 -0.0342
 1141SOL     OW 4608   3.346   1.538   1.875 -0.5062  0.0961 -0.4260
 1141SOL    HW2 4609   3.416   1.600   1.897  0.2196 -0.9892  0.4089
 1141SOL    HW3 4610   3.265   1.583   1.901 -0.0167  0.8603 -0.2123
 1141SOL    MW4 4611   3.344   1.552   1.882 -0.3459  0.0539 -0.2877
 1142SOL     OW 4612   3.137   1.684   1.974 -0.1800 -0.0759 -0.2296
 1142SOL    HW2 4613   3.141   1.676   2.069 -2.0316 -0.6701 -0.1917
 1142SOL    HW3 4614   3.138   1.778   1.958 -0.4150  0.0398  0.4127
 1142SOL    MW4 4615   3.138   1.695   1.984 -0.4556 -0.1391 -0.1398
 1143SOL     OW 4616   3.142   1.954   1.919  0.7766 -0.4998  0.3021
 1143SOL    HW2 4617   3.228   1.986   1.949  0.4862  0.4877  0.0792
 1143SOL    HW3 4618   3.147   1.959   1.824 -0.0900  1.0386  0.3309
 1143SOL    MW4 4619   3.154   1.959   1.911  0.6242 -0.1664  0.2764
 1144SOL     OW 4620   3.387   2.063   1.991  0.1132 -0.2710 -0.3809
 1144SOL    HW2 4621   3.460   2.030   1.939 -0.2065  0.2228 -1.1594
 1144SOL    HW3 4622   3.388   2.157   1.977  0.7028 -0.0007  1.4127
 1144SOL    MW4 4623   3.396   2.071   1.982  0.1490 -0.1702 -0.2470
 1145SOL     OW 4624   3.364   2.341   1.890  0.2437  0.6472 -0.0998
 1145SOL    HW2 4625   3.289   2.395   1.915  0.2443  0.9431 -0.7428
 1145SOL    HW3 4626   3.346   2.314   1.800  0.8101  0.5425 -0.1835
 1145SOL    MW4 4627   3.352   2.344   1.882  0.3183  0.6723 -0.1956
 1146SOL     OW 4628   3.122   2.469   1.956 -0.4643 -0.2134 -0.0141
 1146SOL    HW2 4629   3.131   2.443   2.047 -0.2252 -0.6565 -0.1667
 1146SOL    HW3 4630   3.147   2.562   1.955  0.9488 -0.5890  0.1113
 1146SOL    MW4 4631   3.126   2.478   1.968 -0.2463 -0.3214 -0.0176
 1147SOL     OW 4632   3.181   2.741   1.902 -0.0059 -0.1766  0.0319
 1147SOL    HW2 4633   3.097   2.784   1.920 -0.0070 -0.7995  1.6481
 1147SOL    HW3 4634   3.182   2.728   1.807 -1.9682 -0.6056  0.0404
 1147SOL    MW4 4635   3.170   2.745   1.892 -0.2651 -0.3157  0.2463
 1148SOL     OW 4636   3.419   2.848   2.023  0.0497 -0.5590  0.0281
 1148SOL    HW2 4637   3.403   2.850   2.117 -1.5949  1.5307 -0.2561
 1148SOL    HW3 4638   3.341   2.804   1.987  0.9278 -1.8555 -0.3409
 1148SOL    MW4 4639   3.406   2.842   2.031 -0.0515 -0.4544 -0.0582
 1149SOL     OW 4640   3.355   3.097   1.906 -0.5206  0.0514  0.0753
 1149SOL    HW2 4641   3.432   3.152   1.918  0.0352 -0.3853 -1.3910
 1149SOL    HW3 4642   3.378   3.014   1.947 -0.0357 -0.2164 -0.7205
 1149SOL    MW4 4643   3.368   3.093   1.913 -0.3834 -0.0415 -0.2232
 1150SOL     OW 4644   3.127   3.213   1.992 -0.1728 -0.2074  0.0787
 1150SOL    HW2 4645   3.139   3.306   1.971  0.6595 -0.4994 -0.7487
 1150SOL    HW3 4646   3.205   3.170   1.957  0.2928 -0.9765  1.9991
 1150SOL    MW4 4647   3.139   3.220   1.985 -0.0017 -0.3474  0.2229
 1151SOL     OW 4648   3.130   3.492   1.925  0.3814 -0.1497 -0.1965
 1151SOL    HW2 4649   3.219   3.519   1.948  0.4356  0.5368 -1.1761
 1151SOL    HW3 4650   3.128   3.496   1.829 -0.7423 -0.0152 -0.1736
 1151SOL    MW4 4651   3.142   3.496   1.915  0.2401 -0.0415 -0.3227
 1152SOL     OW 4652   3.394   3.584   1.990 -0.2032 -0.1313 -0.0060
 1152SOL    HW2 4653   3.477   3.546   1.962 -1.4187 -1.3285 -2.1239
 1152SOL    HW3 4654   3.398   3.675   1.961  0.3559 -0.1966 -0.1407
 1152SOL    MW4 4655   3.406   3.591   1.983 -0.2899 -0.2980 -0.3031
 1153SOL     OW 4656   3.408   3.843   1.912 -0.3361  0.2555 -0.1420
 1153SOL    HW2 4657   3.330   3.895   1.929  0.4113  1.3195  0.0898
 1153SOL    HW3 4658   3.411   3.833   1.817 -0.3392  0.8703 -0.2068
 1153SOL    MW4 4659   3.398   3.849   1.901 -0.2377  0.4768 -0.1199
 1154SOL     OW 4660   3.187   4.004   1.992  0.0452  0.3336 -0.7265
 1154SOL    HW2 4661   3.184   3.998   2.088 -1.1575 -1.0606 -0.8267
 1154SOL    HW3 4662   3.108   3.958   1.963  0.8591 -0.0282 -2.4151
 1154SOL    MW4 4663   3.176   3.997   2.001 -0.0060  0.1020 -0.9627
 1155SOL     OW 4664   3.162   4.280   1.896 -0.1260  0.2650 -0.6037
 1155SOL    HW2 4665   3.166   4.191   1.933  1.6445  1.1464  1.4506
 1155SOL    HW3 4666   3.088   4.321   1.941  2.8148  1.7529  3.0957
 1155SOL    MW4 4667   3.153   4.273   1.907  0.4954  0.5779  0.1554
 1156SOL     OW 4668   3.391   4.401   2.011 -0.2681  0.1537  0.3442
 1156SOL    HW2 4669   3.469   4.363   1.970 -0.2478 -0.6121  1.0686
 1156SOL    HW3 4670   3.318   4.355   1.969 -0.2387 -0.8266  1.3352
 1156SOL    MW4 4671   3.392   4.390   2.000 -0.2618 -0.0768  0.5703
 1157SOL     OW 4672   3.878   4.640   1.901 -0.1470 -0.0241 -0.3750
 1157SOL    HW2 4673   3.878   4.551   1.938  2.7976  0.9602  2.2432
 1157SOL    HW3 4674   3.808   4.685   1.948  0.3686 -0.1365  0.5119
 1157SOL    MW4 4675   3.869   4.634   1.912  0.3097  0.0911  0.0874
 1158SOL     OW 4676   3.662   0.086   2.043  0.3026  0.3714 -0.6435
 1158SOL    HW2 4677   3.652   0.098   2.137  2.3520  2.0782 -0.6006
 1158SOL    HW3 4678   3.577   0.053   2.013 -0.1480 -0.8673  1.8939
 1158SOL    MW4 4679   3.650   0.083   2.051  0.5133  0.4332 -0.3028
 1159SOL     OW 4680   3.617   0.357   1.972  0.4669 -0.6041 -0.3107
 1159SOL    HW2 4681   3.623   0.264   1.992 -0.5338 -0.8226 -1.0138
 1159SOL    HW3 4682   3.614   0.361   1.876 -0.1217  0.1010 -0.2658
 1159SOL    MW4 4683   3.617   0.345   1.962  0.2570 -0.5399 -0.3976
 1160SOL     OW 4684   3.857   0.509   2.005  0.5468 -0.0201 -0.1436
 1160SOL    HW2 4685   3.834   0.593   1.965  0.3513  0.0784  0.1756
 1160SOL    HW3 4686   3.779   0.455   1.990  1.0827 -0.4908 -1.3072
 1160SOL    MW4 4687   3.844   0.513   1.998  0.5918 -0.0693 -0.2550
 1161SOL     OW 4688   3.812   0.755   1.898 -0.6262  0.6280 -0.6811
 1161SOL    HW2 4689   3.742   0.789   1.953 -2.0319 -1.7691 -0.8886
 1161SOL    HW3 4690   3.780   0.765   1.808  0.4322  1.9183 -0.9263
 1161SOL    MW4 4691   3.798   0.761   1.893 -0.6719  0.4819 -0.7410
 1162SOL     OW 4692   3.608   0.897   2.040  0.4886  0.0007  0.1063
 1162SOL    HW2 4693   3.606   0.979   1.992  0.8854  0.1961  0.4188
 1162SOL    HW3 4694   3.536   0.845   2.003  0.1181  0.5592  0.0396
 1162SOL    MW4 4695   3.598   0.901   2.029  0.4921  0.1001  0.1388
 1163SOL     OW 4696   3.635   1.127   1.891 -0.0935 -0.1818  0.0974
 1163SOL    HW2 4697   3.551   1.163   1.919  0.5158  1.5285 -0.1820
 1163SOL    HW3 4698   3.638   1.143   1.797  0.7723  0.2769  0.1940
 1163SOL    MW4 4699   3.625   1.134   1.882  0.1011  0.1044  0.0733
 1164SOL     OW 4700   3.820   1.313   1.986 -0.5082 -0.2211 -0.6998
 1164SOL    HW2 4701   3.819   1.325   2.081  1.3130  0.1829 -0.7190
 1164SOL    HW3 4702   3.753   1.246   1.969  0.3639 -1.5495  1.0386
 1164SOL    MW4 4703   3.811   1.305   1.996 -0.1528 -0.3430 -0.4730
 1165SOL     OW 4704   3.805   1.566   1.903 -0.0984  0.3291 -0.2973
 1165SOL    HW2 4705   3.886   1.610   1.930 -0.8912  1.4995  0.2399
 1165SOL    HW3 4706   3.816   1.475   1.931  0.1616  0.9543  1.6663
 1165SOL    MW4 4707   3.817   1.560   1.910 -0.1686  0.5660  0.0327
 1166SOL     OW 4708   3.567   1.709   1.993 -0.4543 -0.5945 -0.1448
 1166SOL    HW2 4709   3.582   1.800   1.969 -0.4263 -1.0172 -1.8536
 1166SOL    HW3 4710   3.643   1.662   1.958 -1.1703 -1.4669 -0.5697
 1166SOL    MW4 4711   3.579   1.715   1.985 -0.5448 -0.7654 -0.4263
 1167SOL     OW 4712   3.590   1.951   1.856  0.8732  0.6741  0.0712
 1167SOL    HW2 4713   3.675   1.979   1.892  0.8697  0.0062  0.6181
 1167SOL    HW3 4714   3.609   1.928   1.765  1.1117  1.3214 -0.0460
 1167SOL    MW4 4715   3.604   1.951   1.849  0.9043  0.6713  0.1277
 1168SOL     OW 4716   3.836   2.065   1.991 -0.1670  0.0492 -0.3310
 1168SOL    HW2 4717   3.912   2.032   1.943 -0.2537  0.4717 -0.7564
 1168SOL    HW3 4718   3.829   2.157   1.966 -0.6496  0.0854 -0.0756
 1168SOL    MW4 4719   3.845   2.072   1.982 -0.2422  0.1097 -0.3533
 1169SOL     OW 4720   3.831   2.314   1.873  0.2996  0.2149 -0.2321
 1169SOL    HW2 4721   3.900   2.359   1.922  0.5622 -0.0172 -0.3906
 1169SOL    HW3 4722   3.750   2.358   1.901  0.4767  0.2728  0.1970
 1169SOL    MW4 4723   3.829   2.326   1.883  0.3581  0.1919 -0.1965
 1170SOL     OW 4724   3.599   2.453   1.974  0.0448  0.5987  0.0520
 1170SOL    HW2 4725   3.590   2.545   1.950 -1.0668  0.2660 -0.8054
 1170SOL    HW3 4726   3.524   2.409   1.934  0.2839 -0.6048  0.8747
 1170SOL    MW4 4727   3.588   2.459   1.966 -0.0703  0.3960  0.0476
 1171SOL     OW 4728   3.611   2.744   1.870 -0.2060  0.1651  0.1209
 1171SOL    HW2 4729   3.692   2.779   1.908 -0.9777  0.0970  1.8585
 1171SOL    HW3 4730   3.541   2.786   1.919 -1.2295 -0.1870 -1.0177
 1171SOL    MW4 4731   3.613   2.754   1.882 -0.4432  0.1097  0.1999
 1172SOL     OW 4732   3.844   2.835   2.002  0.0488 -0.4098 -0.3478
 1172SOL    HW2 4733   3.825   2.841   2.095 -1.0788  0.0540 -0.6018
 1172SOL    HW3 4734   3.846   2.925   1.971  1.5769 -0.4949 -0.5583
 1172SOL    MW4 4735   3.842   2.847   2.010  0.1018 -0.3600 -0.4086
 1173SOL     OW 4736   3.853   3.105   1.916  0.1645  0.6421 -0.4503
 1173SOL    HW2 4737   3.760   3.125   1.923 -0.4853 -1.7834 -1.5093
 1173SOL    HW3 4738   3.868   3.092   1.822  1.0466 -1.1761 -0.0920
 1173SOL    MW4 4739   3.843   3.106   1.905  0.1953  0.0820 -0.5426
 1174SOL     OW 4740   3.610   3.192   1.999  0.1017  0.1253  0.3377
 1174SOL    HW2 4741   3.607   3.178   2.094  0.1539 -0.4634  0.2534
 1174SOL    HW3 4742   3.636   3.284   1.990  1.7072 -0.2453  0.8887
 1174SOL    MW4 4743   3.613   3.202   2.011  0.3202 -0.0014  0.3994
 1175SOL     OW 4744   3.647   3.473   1.949  0.4197  0.5849 -0.2607
 1175SOL    HW2 4745   3.713   3.533   1.985  0.4157  0.8133 -0.6346
 1175SOL    HW3 4746   3.656   3.481   1.854  1.4720 -1.1625 -0.3261
 1175SOL    MW4 4747   3.657   3.482   1.941  0.5579  0.3843 -0.3188
 1176SOL     OW 4748   3.836   3.659   2.012 -0.6890  0.3885  0.3811
 1176SOL    HW2 4749   3.911   3.634   1.959  0.0891  0.4585  1.4330
 1176SOL    HW3 4750   3.815   3.748   1.984  0.2436  0.7363  0.7824
 1176SOL    MW4 4751   3.843   3.667   2.001 -0.4632  0.4437  0.5727
 1177SOL     OW 4752   3.843   3.927   1.871 -0.0917 -0.3533  0.0665
 1177SOL    HW2 4753   3.768   3.975   1.907  0.6447  0.2935  0.7658
 1177SOL    HW3 4754   3.823   3.917   1.778 -1.3636 -0.7955  0.3795
 1177SOL    MW4 4755   3.831   3.932   1.863 -0.1621 -0.3264  0.2002
 1178SOL     OW 4756   3.595   4.012   2.013  0.4208  0.0195 -0.5861
 1178SOL    HW2 4757   3.592   3.996   2.107  0.1666 -2.4866 -0.9708
 1178SOL    HW3 4758   3.532   3.949   1.976  2.4969 -0.9223 -2.6401
 1178SOL    MW4 4759   3.586   4.002   2.020  0.6614 -0.4358 -0.9081
 1179SOL     OW 4760   3.600   4.271   1.915 -0.0614  0.0443 -0.3267
 1179SOL    HW2 4761   3.685   4.306   1.940 -0.2025 -0.2622  0.5718
 1179SOL    HW3 4762   3.604   4.178   1.937 -1.3680  0.4413  1.6963
 1179SOL    MW4 4763   3.612   4.263   1.921 -0.2525  0.0567  0.0588
 1180SOL     OW 4764   3.846   4.371   1.998  0.1880  0.0268 -0.2784
 1180SOL    HW2 4765   3.852   4.362   2.093 -2.6680 -0.8353 -0.1178
 1180SOL    HW3 4766   3.924   4.326   1.965  1.2742  0.4289  1.6275
 1180SOL    MW4 4767   3.857   4.364   2.006 -0.0458 -0.0334 -0.0057
 1181SOL     OW 4768   4.309   4.631   1.925 -0.2399 -0.2059  0.0060
 1181SOL    HW2 4769   4.228   4.675   1.949  0.1302  0.2799  0.3718
 1181SOL    HW3 4770   4.378   4.680   1.970  0.2973 -0.3697 -0.6142
 1181SOL    MW4 4771   4.307   4.643   1.934 -0.1202 -0.1636 -0.0275
 1182SOL     OW 4772   4.091   0.106   2.012 -0.1447  0.4063  0.1534
 1182SOL    HW2 4773   4.081   0.098   2.107  1.0575 -1.2595  0.1582
 1182SOL    HW3 4774   4.017   0.058   1.976  0.5597 -0.7591  0.2465
 1182SOL    MW4 4775   4.080   0.099   2.020  0.1068  0.0327  0.1662
 1183SOL     OW 4776   4.073   0.365   1.895  0.0407 -0.0285  0.3969
 1183SOL    HW2 4777   4.080   0.274   1.925  1.1925  0.1812  0.7939
 1183SOL    HW3 4778   3.998   0.400   1.943 -0.7288 -0.9124 -0.1451
 1183SOL    MW4 4779   4.064   0.357   1.905  0.0911 -0.1174  0.3778
 1184SOL     OW 4780   4.285   0.519   1.963  0.3325  0.4852  0.7107
 1184SOL    HW2 4781   4.277   0.523   2.058 -1.9959  1.1043  0.5249
 1184SOL    HW3 4782   4.205   0.476   1.934  1.2387 -0.1417 -0.9533
 1184SOL    MW4 4783   4.273   0.514   1.971  0.1450  0.4842  0.4666
 1185SOL     OW 4784   4.285   0.790   1.885  0.2542 -0.1545 -0.5653
 1185SOL    HW2 4785   4.275   0.698   1.909 -1.9409  0.2308  0.1327
 1185SOL    HW3 4786   4.267   0.792   1.791  0.8597 -0.5042 -0.6935
 1185SOL    MW4 4787   4.281   0.778   1.876  0.0439 -0.1498 -0.4901
 1186SOL     OW 4788   4.043   0.904   1.997  0.2485 -0.1158  0.2958
 1186SOL    HW2 4789   4.118   0.859   1.958 -0.9108 -2.2929  0.5120
 1186SOL    HW3 4790   3.967   0.859   1.961 -0.9313  0.9563  1.4061
 1186SOL    MW4 4791   4.043   0.892   1.987 -0.0596 -0.2617  0.4708
 1187SOL     OW 4792   4.028   1.167   1.876  0.2036  0.3378 -0.3619
 1187SOL    HW2 4793   4.037   1.082   1.921  2.3697  1.2635  1.0512
 1187SOL    HW3 4794   3.963   1.214   1.927  2.2004  1.1480  1.5399
 1187SOL    MW4 4795   4.021   1.162   1.889  0.7529  0.5670  0.0755
 1188SOL     OW 4796   4.264   1.265   1.979 -0.5783  0.4747  0.0439
 1188SOL    HW2 4797   4.258   1.262   2.075 -2.5691  1.2717 -0.0326
 1188SOL    HW3 4798   4.180   1.228   1.949 -0.5330  1.5177 -1.3714
 1188SOL    MW4 4799   4.252   1.259   1.988 -0.8354  0.7176 -0.1531
 1189SOL     OW 4800   4.261   1.536   1.887 -0.2249 -0.3474  0.4286
 1189SOL    HW2 4801   4.278   1.444   1.907  0.7426 -0.1308  0.6285
 1189SOL    HW3 4802   4.253   1.539   1.791 -2.3501 -0.9672  0.5500
 1189SOL    MW4 4803   4.262   1.525   1.877 -0.3781 -0.4005  0.4711
 1190SOL     OW 4804   4.047   1.677   1.985 -0.1471 -0.2581  0.2995
 1190SOL    HW2 4805   4.053   1.676   2.080  0.8209  1.1622  0.2600
 1190SOL    HW3 4806   4.126   1.632   1.955  0.4341  0.8491  0.1451
 1190SOL    MW4 4807   4.058   1.671   1.994  0.0577  0.0755  0.2739
 1191SOL     OW 4808   4.063   1.929   1.876  0.0465  0.0202  0.1118
 1191SOL    HW2 4809   4.066   1.844   1.918 -1.1861  0.0282  0.2345
 1191SOL    HW3 4810   4.041   1.910   1.785  1.8925  0.0613 -0.3594
 1191SOL    MW4 4811   4.060   1.915   1.869  0.1273  0.0267  0.0657
 1192SOL     OW 4812   4.310   2.058   1.941  0.0231  0.1898  0.4400
 1192SOL    HW2 4813   4.305   2.064   2.036  0.4625 -1.3340  0.5695
 1192SOL    HW3 4814   4.225   2.024   1.914 -0.4028  1.4065  0.2021
 1192SOL    MW4 4815   4.298   2.054   1.950  0.0248  0.1490  0.4257
 1193SOL     OW 4816   4.265   2.336   1.882 -0.0291  0.0191 -0.1791
 1193SOL    HW2 4817   4.272   2.242   1.900  0.8516 -0.0443 -0.7797
 1193SOL    HW3 4818   4.339   2.375   1.930 -0.4936  0.4215  0.2061
 1193SOL    MW4 4819   4.276   2.329   1.890  0.0257  0.0639 -0.2075
 1194SOL     OW 4820   4.035   2.432   1.999  0.4490 -0.1286 -0.2181
 1194SOL    HW2 4821   4.047   2.430   2.094  0.1175  1.8476 -0.1207
 1194SOL    HW3 4822   4.117   2.396   1.963  0.3710 -1.3602  0.8072
 1194SOL    MW4 4823   4.048   2.427   2.007  0.3948 -0.0303 -0.0701
 1195SOL     OW 4824   4.097   2.700   1.964  0.6383 -0.1328 -0.0942
 1195SOL    HW2 4825   4.077   2.607   1.968  0.3440 -0.1551 -1.7474
 1195SOL    HW3 4826   4.017   2.744   1.992  0.2991 -0.3579 -0.6949
 1195SOL    MW4 4827   4.084   2.694   1.968  0.5546 -0.1657 -0.3915
 1196SOL     OW 4828   4.287   2.876   2.027 -0.0594 -0.2886  0.5579
 1196SOL    HW2 4829   4.303   2.854   2.119 -1.0814  0.5139  0.9399
 1196SOL    HW3 4830   4.219   2.815   1.999  0.2972 -0.5761  0.3046
 1196SOL    MW4 4831   4.280   2.865   2.036 -0.1473 -0.2205  0.5748
 1197SOL     OW 4832   4.275   3.122   1.890 -0.1105  0.0870 -0.2775
 1197SOL    HW2 4833   4.195   3.161   1.924 -0.3248 -0.5087 -0.0873
 1197SOL    HW3 4834   4.282   3.038   1.935 -0.0084 -0.3853 -1.1619
 1197SOL    MW4 4835   4.266   3.116   1.900 -0.1249 -0.0539 -0.3690
 1198SOL     OW 4836   4.057   3.278   1.985 -0.3485 -0.4972 -0.1429
 1198SOL    HW2 4837   4.062   3.280   2.081 -2.2951  0.3242 -0.0381
 1198SOL    HW3 4838   3.989   3.214   1.966  0.1220 -0.7532 -0.9892
 1198SOL    MW4 4839   4.048   3.270   1.995 -0.5431 -0.4225 -0.2408
 1199SOL     OW 4840   4.035   3.528   1.846 -0.5216  0.4472 -0.4147
 1199SOL    HW2 4841   4.110   3.583   1.868 -1.1531  1.8894 -1.7786
 1199SOL    HW3 4842   4.044   3.452   1.903  0.8415  1.5560  0.9069
 1199SOL    MW4 4843   4.046   3.526   1.857 -0.4249  0.7837 -0.4203
 1200SOL     OW 4844   4.270   3.621   1.967 -0.3643 -0.2275 -0.4037
 1200SOL    HW2 4845   4.277   3.703   1.918  1.8346  0.5893  1.1380
 1200SOL    HW3 4846   4.349   3.572   1.942 -0.9097 -1.2159 -0.1886
 1200SOL    MW4 4847   4.282   3.625   1.957 -0.1459 -0.2503 -0.1719
 1201SOL     OW 4848   4.269   3.869   1.859  0.3632 -0.2107 -0.7047
 1201SOL    HW2 4849   4.357   3.899   1.884  0.3317 -0.3703 -0.3984
 1201SOL    HW3 4850   4.277   3.847   1.766  0.7032 -0.4315 -0.6232
 1201SOL    MW4 4851   4.282   3.870   1.850  0.4039 -0.2611 -0.6534
 1202SOL     OW 4852   4.073   3.960   2.010 -0.2887  0.5953  0.2726
 1202SOL    HW2 4853   4.145   3.926   1.957  0.6059  1.3479  0.9896
 1202SOL    HW3 4854   3.995   3.940   1.959  0.4621  0.2481 -0.7728
 1202SOL    MW4 4855   4.073   3.953   1.996 -0.0715  0.6487  0.2292
 1203SOL     OW 4856   4.057   4.227   1.927  0.5177 -0.0888 -0.2078
 1203SOL    HW2 4857   4.133   4.271   1.967 -0.9579  0.4845  2.0565
 1203SOL    HW3 4858   4.050   4.145   1.975 -0.8965  0.3246  0.3234
 1203SOL    MW4 4859   4.066   4.222   1.939  0.1364  0.0410  0.1611
 1204SOL     OW 4860   4.277   4.355   2.026  0.6095 -0.3228  0.0415
 1204SOL    HW2 4861   4.274   4.347   2.121  1.4388 -0.5237  0.0562
 1204SOL    HW3 4862   4.291   4.448   2.009 -2.6543  0.2033  0.0315
 1204SOL    MW4 4863   4.279   4.366   2.036  0.2885 -0.2799  0.0420
 1205SOL     OW 4864   0.208   4.610   2.410  0.4111  0.3243 -0.2529
 1205SOL    HW2 4865   0.222   4.601   2.505  3.0642  0.0744 -0.6425
 1205SOL    HW3 4866   0.281   4.663   2.380  0.2583 -0.6150 -2.3582
 1205SOL    MW4 4867   0.219   4.616   2.419  0.7410  0.1678 -0.5820
 1206SOL     OW 4868   4.472   0.122   2.365  0.3105  0.2350  0.3249
 1206SOL    HW2 4869   4.536   0.066   2.408 -0.5327 -0.6539  0.4303
 1206SOL    HW3 4870   4.483   0.104   2.272  0.6483  0.5590  0.2997
 1206SOL    MW4 4871   4.482   0.112   2.359  0.2441  0.1605  0.3355
 1207SOL     OW 4872   4.440   0.394   2.433  0.5286 -0.2360 -0.0833
 1207SOL    HW2 4873   4.515   0.442   2.398  1.0733 -0.0536  1.2642
 1207SOL    HW3 4874   4.460   0.302   2.413  1.6466 -0.2917  1.1583
 1207SOL    MW4 4875   4.453   0.388   2.426  0.7482 -0.2193  0.2584
 1208SOL     OW 4876   0.171   0.481   2.299  0.4156 -0.2355 -0.2714
 1208SOL    HW2 4877   0.253   0.437   2.325 -0.6092 -0.5221  2.6692
 1208SOL    HW3 4878   0.163   0.463   2.205  2.6572 -1.9855 -0.1825
 1208SOL    MW4 4879   0.181   0.473   2.290  0.5761 -0.5042  0.1283
 1209SOL     OW 4880   0.224   0.743   2.368 -0.2738 -0.1977  0.4457
 1209SOL    HW2 4881   0.238   0.737   2.462 -0.3269 -1.2915  0.3818
 1209SOL    HW3 4882   0.215   0.653   2.338  1.7558  0.0021 -0.9112
 1209SOL    MW4 4883   0.225   0.730   2.376 -0.0130 -0.3157  0.2582
 1210SOL     OW 4884   0.011   0.903   2.290  0.0449  0.3053 -0.3166
 1210SOL    HW2 4885   0.082   0.845   2.317 -0.8609 -0.8428 -0.3348
 1210SOL    HW3 4886   0.005   0.890   2.195  0.0732  0.7076 -0.3744
 1210SOL    MW4 4887   0.020   0.894   2.281 -0.0706  0.2068 -0.3266
 1211SOL     OW 4888   0.016   1.172   2.368 -0.0981 -0.5460 -0.2780
 1211SOL    HW2 4889   0.021   1.182   2.463  1.9115 -0.7684 -0.3385
 1211SOL    HW3 4890   0.024   1.077   2.353 -0.0943 -0.4808 -0.6982
 1211SOL    MW4 4891   0.017   1.160   2.378  0.1676 -0.5667 -0.3412
 1212SOL     OW 4892   0.243   1.284   2.252  0.2459 -0.3738  0.2179
 1212SOL    HW2 4893   0.156   1.255   2.277 -0.1846  0.6005 -0.1055
 1212SOL    HW3 4894   0.251   1.263   2.159 -0.9317  2.4998 -0.5887
 1212SOL    MW4 4895   0.233   1.278   2.243  0.0337  0.1339  0.0691
 1213SOL     OW 4896   0.222   1.537   2.371 -0.0144 -0.4838  0.0121
 1213SOL    HW2 4897   0.206   1.528   2.465 -1.9043 -0.0276 -0.2374
 1213SOL    HW3 4898   0.235   1.448   2.340  1.8448 -0.5355  0.9001
 1213SOL    MW4 4899   0.221   1.524   2.379 -0.0184 -0.4303  0.0963
 1214SOL     OW 4900   4.471   1.654   2.242 -0.4892  0.0073 -0.2650
 1214SOL    HW2 4901   4.456   1.746   2.266 -0.1412  0.2417 -0.9435
 1214SOL    HW3 4902   4.542   1.626   2.300 -1.3565 -0.1761  0.7397
 1214SOL    MW4 4903   4.478   1.663   2.253 -0.5577  0.0141 -0.2222
 1215SOL     OW 4904   4.491   1.913   2.316  0.1578 -0.0612 -0.1303
 1215SOL    HW2 4905   4.425   1.972   2.280  0.3846  1.2182  1.5005
 1215SOL    HW3 4906   4.574   1.953   2.293  0.3223 -0.1644  0.2823
 1215SOL    MW4 4907   4.493   1.926   2.308  0.2093  0.0941  0.1392
 1216SOL     OW 4908   0.224   2.050   2.254  0.0815 -0.3404  0.0073
 1216SOL    HW2 4909   0.293   1.991   2.283 -1.7622 -2.9685 -0.8006
 1216SOL    HW3 4910   0.245   2.069   2.162 -0.7835 -1.9457 -0.5374
 1216SOL    MW4 4911   0.236   2.045   2.246 -0.2759 -0.8991 -0.1709
 1217SOL     OW 4912   0.254   2.296   2.363  0.2039 -0.0777  0.0114
 1217SOL    HW2 4913   0.279   2.293   2.455  0.1210 -1.1102  0.0091
 1217SOL    HW3 4914   0.248   2.204   2.337 -2.5002  0.1240 -0.2894
 1217SOL    MW4 4915   0.256   2.283   2.372 -0.1638 -0.1876 -0.0286
 1218SOL     OW 4916   0.013   2.417   2.281  0.4910  0.2333  0.2190
 1218SOL    HW2 4917   0.013   2.507   2.316  0.0188  0.5886 -0.6885
 1218SOL    HW3 4918   0.094   2.379   2.315  0.9666  1.1786  0.1776
 1218SOL    MW4 4919   0.024   2.424   2.290  0.4916  0.4048  0.0939
 1219SOL     OW 4920   0.027   2.676   2.378  0.1123 -0.4409  0.3316
 1219SOL    HW2 4921   0.029   2.670   2.474  1.0669 -0.5700  0.3090
 1219SOL    HW3 4922   0.113   2.711   2.355 -0.1140 -0.4214 -0.4827
 1219SOL    MW4 4923   0.038   2.680   2.388  0.2079 -0.4551  0.2215
 1220SOL     OW 4924   0.256   2.815   2.281 -0.1281  0.2021 -0.5848
 1220SOL    HW2 4925   0.324   2.760   2.320 -0.4639  1.3562  1.7510
 1220SOL    HW3 4926   0.284   2.829   2.191  1.6326 -1.0841 -0.2589
 1220SOL    MW4 4927   0.268   2.810   2.274  0.0599  0.1845 -0.2337
 1221SOL     OW 4928   0.251   3.074   2.394  0.5158  0.3528  0.5774
 1221SOL    HW2 4929   0.164   3.107   2.370  0.0531  0.8431  2.8577
 1221SOL    HW3 4930   0.258   2.990   2.348 -0.0590  1.5271 -1.7826
 1221SOL    MW4 4931   0.240   3.067   2.385  0.3789  0.5727  0.5670
 1222SOL     OW 4932   0.008   3.197   2.292 -0.7640 -0.5055 -0.4855
 1222SOL    HW2 4933   0.013   3.290   2.315 -0.3776 -0.5555 -0.3681
 1222SOL    HW3 4934   0.028   3.195   2.198 -0.8658 -0.4592 -0.5081
 1222SOL    MW4 4935   0.011   3.209   2.283 -0.7265 -0.5057 -0.4730
 1223SOL     OW 4936   0.026   3.482   2.387  0.3453 -0.0643 -0.0031
 1223SOL    HW2 4937   0.010   3.490   2.481  0.1279 -1.0189  0.0487
 1223SOL    HW3 4938  -0.051   3.521   2.346 -0.0467 -0.5849  0.2287
 1223SOL    MW4 4939   0.013   3.488   2.394  0.2649 -0.2589  0.0341
 1224SOL     OW 4940   0.236   3.556   2.235 -0.2480 -0.1715  0.3172
 1224SOL    HW2 4941   0.309   3.523   2.287 -0.3641 -0.6855  0.1621
 1224SOL    HW3 4942   0.158   3.528   2.284 -0.3448  1.0955  0.9255
 1224SOL    MW4 4943   0.235   3.548   2.248 -0.2761 -0.0722  0.3769
 1225SOL     OW 4944   0.201   3.815   2.384 -0.0598 -0.4481 -0.4489
 1225SOL    HW2 4945   0.135   3.860   2.332  0.3165  0.3290 -0.2630
 1225SOL    HW3 4946   0.208   3.728   2.344  0.9716  0.4805 -2.3561
 1225SOL    MW4 4947   0.193   3.810   2.372  0.1259 -0.2229 -0.6759
 1226SOL     OW 4948   0.044   3.994   2.247  0.4788  0.1720  0.5341
 1226SOL    HW2 4949   0.026   4.068   2.306 -0.2322  1.5016 -1.2857
 1226SOL    HW3 4950   0.023   4.028   2.160 -1.5170 -2.7197 -0.1829
 1226SOL    MW4 4951   0.039   4.008   2.244  0.1216 -0.0343  0.1996
 1227SOL     OW 4952   0.006   4.212   2.406  0.5510  0.0758  0.8203
 1227SOL    HW2 4953   0.012   4.221   2.501  0.4505  2.4460  0.6270
 1227SOL    HW3 4954   0.079   4.265   2.372  1.8056 -2.3313 -0.3924
 1227SOL    MW4 4955   0.017   4.220   2.414  0.7033  0.0710  0.6347
 1228SOL     OW 4956   0.231   4.379   2.290 -0.2855  0.2014 -0.2326
 1228SOL    HW2 4957   0.315   4.348   2.324 -0.3579 -0.7879 -0.9669
 1228SOL    HW3 4958   0.214   4.459   2.340  1.3819  0.7446 -0.5011
 1228SOL    MW4 4959   0.240   4.385   2.301 -0.0750  0.1426 -0.3650
 1229SOL     OW 4960   0.635   4.635   2.410 -0.0590  0.2234  0.0489
 1229SOL    HW2 4961   0.647   4.635   2.505 -0.7022 -0.0248  0.1355
 1229SOL    HW3 4962   0.717   4.669   2.375 -0.5424  2.2454  0.7885
 1229SOL    MW4 4963   0.647   4.640   2.418 -0.2077  0.4578  0.1578
 1230SOL     OW 4964   0.403   0.076   2.289  0.2753 -0.0397 -0.3158
 1230SOL    HW2 4965   0.483   0.034   2.321  0.8212 -0.2289 -1.8747
 1230SOL    HW3 4966   0.412   0.074   2.194 -0.7937  1.4862 -0.4671
 1230SOL    MW4 4967   0.415   0.070   2.281  0.2063  0.1366 -0.5417
 1231SOL     OW 4968   0.414   0.342   2.374 -0.0750 -0.2333 -0.1266
 1231SOL    HW2 4969   0.449   0.343   2.463 -3.8660 -0.4348  1.4712
 1231SOL    HW3 4970   0.402   0.249   2.354  0.8935 -0.1983 -0.9563
 1231SOL    MW4 4971   0.417   0.330   2.383 -0.4474 -0.2553 -0.0255
 1232SOL     OW 4972   0.659   0.477   2.270 -0.3271  0.2565  0.0379
 1232SOL    HW2 4973   0.667   0.566   2.304 -0.8259  0.5683 -0.6630
 1232SOL    HW3 4974   0.573   0.448   2.302 -0.3057  0.1437 -0.0087
 1232SOL    MW4 4975   0.649   0.485   2.279 -0.3901  0.2828 -0.0610
 1233SOL     OW 4976   0.690   0.753   2.354  0.0859 -0.3050  0.5766
 1233SOL    HW2 4977   0.706   0.756   2.448 -1.3856 -1.1434  0.8733
 1233SOL    HW3 4978   0.608   0.802   2.342  0.4218  0.0450 -0.2966
 1233SOL    MW4 4979   0.681   0.760   2.365 -0.0640 -0.3694  0.5004
 1234SOL     OW 4980   0.438   0.885   2.283  0.0651 -0.0307 -0.4109
 1234SOL    HW2 4981   0.367   0.824   2.302 -0.5435  0.0695 -2.3635
 1234SOL    HW3 4982   0.467   0.864   2.195  1.0439  1.3452 -0.4492
 1234SOL    MW4 4983   0.433   0.874   2.274  0.1139  0.1640 -0.6735
 1235SOL     OW 4984   0.437   1.129   2.417 -0.7805  0.0076  0.1444
 1235SOL    HW2 4985   0.432   1.050   2.362  0.4338  0.3825 -0.5398
 1235SOL    HW3 4986   0.368   1.186   2.384 -1.6278 -0.7453  0.6039
 1235SOL    MW4 4987   0.427   1.126   2.405 -0.7321 -0.0422  0.1147
 1236SOL     OW 4988   0.691   1.225   2.251  0.3774 -0.1427 -0.4881
 1236SOL    HW2 4989   0.677   1.306   2.301  0.6723  0.3739 -1.2351
 1236SOL    HW3 4990   0.619   1.168   2.278  0.2749  0.2927  0.1912
 1236SOL    MW4 4991   0.680   1.228   2.261  0.4027 -0.0170 -0.4969
 1237SOL     OW 4992   0.681   1.486   2.350 -0.3690 -0.3030 -0.0892
 1237SOL    HW2 4993   0.684   1.509   2.443  0.0822 -0.0062 -0.1721
 1237SOL    HW3 4994   0.762   1.523   2.314 -0.3030 -0.8420 -0.5008
 1237SOL    MW4 4995   0.692   1.494   2.358 -0.3008 -0.3351 -0.1545
 1238SOL     OW 4996   0.468   1.640   2.258 -0.2261 -0.2028  0.1655
 1238SOL    HW2 4997   0.539   1.590   2.298  0.9502  1.3181  0.0314
 1238SOL    HW3 4998   0.388   1.601   2.294  0.5833 -2.9608 -0.8749
 1238SOL    MW4 4999   0.467   1.628   2.268  0.0359 -0.3660  0.0103
 1239SOL     OW 5000   0.450   1.911   2.340 -0.0558 -0.0181  0.5575
 1239SOL    HW2 5001   0.528   1.944   2.294 -0.1058  1.1459  1.3108
 1239SOL    HW3 5002   0.449   1.817   2.318  1.9436 -0.2013  1.0925
 1239SOL    MW4 5003   0.460   1.903   2.331  0.2014  0.1113  0.7277
 1240SOL     OW 5004   0.680   2.033   2.245  0.3154 -0.4637 -0.4272
 1240SOL    HW2 5005   0.746   1.982   2.290  1.2859  1.7003  0.6600
 1240SOL    HW3 5006   0.679   2.117   2.290 -2.1164  0.0715 -1.3787
 1240SOL    MW4 5007   0.688   2.038   2.257  0.1226 -0.1075 -0.4094
 1241SOL     OW 5008   0.682   2.282   2.367 -0.1272 -0.0503  0.3213
 1241SOL    HW2 5009   0.690   2.287   2.463 -0.0755 -1.0162  0.3787
 1241SOL    HW3 5010   0.748   2.343   2.334 -0.4128  0.5857  0.9041
 1241SOL    MW4 5011   0.692   2.291   2.376 -0.1581 -0.0939  0.4058
 1242SOL     OW 5012   0.465   2.442   2.274  0.2899 -0.0339  0.5029
 1242SOL    HW2 5013   0.525   2.373   2.303  1.2246 -0.0014 -1.2850
 1242SOL    HW3 5014   0.379   2.414   2.307  0.8589 -1.4108  0.8643
 1242SOL    MW4 5015   0.461   2.429   2.282  0.4883 -0.2112  0.3147
 1243SOL     OW 5016   0.491   2.706   2.361 -0.0459 -0.5866  0.0947
 1243SOL    HW2 5017   0.493   2.714   2.457 -2.5124 -1.8571  0.2670
 1243SOL    HW3 5018   0.507   2.613   2.344  0.0247 -0.4255 -0.7347
 1243SOL    MW4 5019   0.494   2.695   2.372 -0.3620 -0.7329  0.0079
 1244SOL     OW 5020   0.703   2.839   2.263 -0.4186  0.0136  0.4233
 1244SOL    HW2 5021   0.776   2.793   2.305  0.8838  1.7666  0.1650
 1244SOL    HW3 5022   0.624   2.797   2.298  0.6902 -0.7963  2.0011
 1244SOL    MW4 5023   0.702   2.827   2.273 -0.1004  0.1380  0.5972
 1245SOL     OW 5024   0.704   3.095   2.400  0.4707 -0.3243  0.4657
 1245SOL    HW2 5025   0.636   3.137   2.348  0.2205  0.2104  1.2218
 1245SOL    HW3 5026   0.728   3.016   2.350 -1.2187 -0.9117  0.5685
 1245SOL    MW4 5027   0.698   3.090   2.386  0.2148 -0.3312  0.5789
 1246SOL     OW 5028   0.466   3.215   2.292  0.1518  0.1295  0.4986
 1246SOL    HW2 5029   0.386   3.174   2.325  0.5661 -0.8240  0.3437
 1246SOL    HW3 5030   0.448   3.232   2.200  0.5319 -1.1526  0.1751
 1246SOL    MW4 5031   0.453   3.212   2.284  0.2566 -0.1652  0.4354
 1247SOL     OW 5032   0.443   3.487   2.394 -0.2468  0.1147  0.3640
 1247SOL    HW2 5033   0.514   3.541   2.359 -0.7135  0.6153  0.1901
 1247SOL    HW3 5034   0.452   3.403   2.348 -0.2661  0.4455 -0.2523
 1247SOL    MW4 5035   0.453   3.483   2.383 -0.3109  0.2244  0.2596
 1248SOL     OW 5036   0.683   3.620   2.263 -0.0629  0.0634  0.0360
 1248SOL    HW2 5037   0.691   3.711   2.291 -0.7764  0.4375 -0.9565
 1248SOL    HW3 5038   0.675   3.624   2.168  1.8647 -1.1699 -0.2116
 1248SOL    MW4 5039   0.683   3.632   2.254  0.0974 -0.0498 -0.1276
 1249SOL     OW 5040   0.704   3.867   2.376  0.1966  0.2058 -0.1682
 1249SOL    HW2 5041   0.713   3.852   2.470 -1.0430 -1.4162 -0.2855
 1249SOL    HW3 5042   0.619   3.909   2.366  1.0177  1.8559 -0.4381
 1249SOL    MW4 5043   0.694   3.870   2.387  0.1415  0.2096 -0.2191
 1250SOL     OW 5044   0.429   3.987   2.296 -0.3524 -0.0998 -0.0249
 1250SOL    HW2 5045   0.352   3.930   2.304  0.5850 -1.3923 -0.0319
 1250SOL    HW3 5046   0.439   3.999   2.201 -0.4384 -0.0918 -0.0329
 1250SOL    MW4 5047   0.420   3.981   2.284 -0.2401 -0.2689 -0.0267
 1251SOL     OW 5048   0.457   4.226   2.417  0.5218  0.1521 -0.7339
 1251SOL    HW2 5049   0.536   4.266   2.381  2.2489 -2.2343  0.2766
 1251SOL    HW3 5050   0.443   4.148   2.364  0.1519 -0.6572  0.5409
 1251SOL    MW4 5051   0.466   4.221   2.405  0.7009 -0.2694 -0.4323
 1252SOL     OW 5052   0.660   4.387   2.302  0.1053 -0.7586  0.1000
 1252SOL    HW2 5053   0.645   4.470   2.347 -2.1128 -1.1640  0.1628
 1252SOL    HW3 5054   0.653   4.409   2.209 -0.9277 -0.9298  0.1267
 1252SOL    MW4 5055   0.657   4.401   2.296 -0.3237 -0.8349  0.1118
 1253SOL     OW 5056   1.115   4.648   2.361  0.1286  0.1830  0.3327
 1253SOL    HW2 5057   1.107   4.653   2.457 -2.1883 -2.3678  0.3443
 1253SOL    HW3 5058   1.034   4.687   2.329  0.7553  0.7369 -0.5817
 1253SOL    MW4 5059   1.103   4.654   2.370 -0.0944 -0.0811  0.2134
 1254SOL     OW 5060   0.864   0.077   2.301  0.2112  0.2766 -0.2800
 1254SOL    HW2 5061   0.861   0.164   2.340 -0.6043  0.0919  0.0756
 1254SOL    HW3 5062   0.863   0.093   2.206 -1.2986  0.6215 -0.2259
 1254SOL    MW4 5063   0.863   0.091   2.293 -0.0956  0.2978 -0.2258
 1255SOL     OW 5064   0.882   0.332   2.387  0.5382 -0.5420  0.2834
 1255SOL    HW2 5065   0.952   0.382   2.344  0.6627 -0.9162  0.0495
 1255SOL    HW3 5066   0.803   0.382   2.369  0.6084 -0.6304 -0.2740
 1255SOL    MW4 5067   0.881   0.345   2.379  0.5639 -0.6030  0.1791
 1256SOL     OW 5068   1.095   0.461   2.289 -0.4556 -0.1777  0.2044
 1256SOL    HW2 5069   1.174   0.418   2.320  0.5666  0.1338 -1.9011
 1256SOL    HW3 5070   1.111   0.479   2.196 -3.0972 -0.3775 -0.3540
 1256SOL    MW4 5071   1.107   0.457   2.281 -0.6694 -0.1629 -0.1471
 1257SOL     OW 5072   1.120   0.732   2.343 -0.2568 -0.1106 -0.1383
 1257SOL    HW2 5073   1.034   0.766   2.316 -0.7735 -0.3452  1.1571
 1257SOL    HW3 5074   1.114   0.638   2.324 -0.4274 -0.1883  0.2918
 1257SOL    MW4 5075   1.108   0.724   2.337 -0.3475 -0.1518  0.0894
 1258SOL     OW 5076   0.888   0.871   2.228 -0.0223 -0.0349 -0.3823
 1258SOL    HW2 5077   0.895   0.960   2.261  0.1133  0.1100 -0.7919
 1258SOL    HW3 5078   0.825   0.828   2.285  1.1381 -0.1522  0.8433
 1258SOL    MW4 5079   0.881   0.877   2.240  0.1487 -0.0312 -0.2747
 1259SOL     OW 5080   0.932   1.115   2.330 -0.2525  0.2302  0.5639
 1259SOL    HW2 5081   1.009   1.169   2.315  0.5929 -0.5529  1.9603
 1259SOL    HW3 5082   0.858   1.172   2.310  0.6027  2.1029  2.5864
 1259SOL    MW4 5083   0.932   1.129   2.325 -0.0281  0.3738  1.0149
 1260SOL     OW 5084   1.155   1.249   2.274 -0.2962 -0.3171 -0.0478
 1260SOL    HW2 5085   1.216   1.190   2.318  1.2788  1.3132 -0.0134
 1260SOL    HW3 5086   1.162   1.227   2.181  0.0332 -0.4109  0.0007
 1260SOL    MW4 5087   1.164   1.238   2.268 -0.0449 -0.1143 -0.0370
 1261SOL     OW 5088   1.144   1.510   2.367 -0.5760  0.6885  0.6357
 1261SOL    HW2 5089   1.066   1.550   2.331 -1.2107 -0.1504  1.0635
 1261SOL    HW3 5090   1.147   1.423   2.328  0.9730  1.2443 -0.5495
 1261SOL    MW4 5091   1.134   1.504   2.357 -0.4554  0.6511  0.5357
 1262SOL     OW 5092   0.924   1.628   2.262  0.2114 -0.0705  0.3348
 1262SOL    HW2 5093   0.929   1.719   2.292  0.8923 -0.1109  0.3444
 1262SOL    HW3 5094   0.922   1.634   2.167  2.0122 -0.1107  0.2701
 1262SOL    MW4 5095   0.925   1.641   2.253  0.5388 -0.0812  0.3278
 1263SOL     OW 5096   0.883   1.907   2.368 -0.2146  0.7576 -0.6301
 1263SOL    HW2 5097   0.885   1.934   2.460  0.5488 -1.8090  0.1338
 1263SOL    HW3 5098   0.965   1.942   2.332 -0.0309  0.9128 -0.0734
 1263SOL    MW4 5099   0.894   1.915   2.376 -0.0896  0.4394 -0.4559
 1264SOL     OW 5100   1.125   2.039   2.293  0.1105  0.2387 -0.5754
 1264SOL    HW2 5101   1.195   1.978   2.317 -0.8030 -1.0549 -1.1913
 1264SOL    HW3 5102   1.123   2.038   2.198 -0.4729  0.6061 -0.5686
 1264SOL    MW4 5103   1.134   2.031   2.284 -0.0870  0.1163 -0.6554
 1265SOL     OW 5104   1.097   2.297   2.368 -0.5044 -0.3770  0.3352
 1265SOL    HW2 5105   1.177   2.337   2.334 -1.7252 -0.0186 -2.1725
 1265SOL    HW3 5106   1.099   2.207   2.335 -1.2088 -0.3229  0.1364
 1265SOL    MW4 5107   1.108   2.290   2.359 -0.7584 -0.3223 -0.0219
 1266SOL     OW 5108   0.892   2.451   2.280 -0.0730  0.1496  0.3894
 1266SOL    HW2 5109   0.952   2.392   2.326  1.4482  1.2189 -0.1586
 1266SOL    HW3 5110   0.913   2.441   2.188 -0.7792  0.4984  0.1815
 1266SOL    MW4 5111   0.903   2.442   2.274  0.0345  0.3366  0.2899
 1267SOL     OW 5112   0.912   2.720   2.375 -0.0008  0.3436  0.4451
 1267SOL    HW2 5113   0.902   2.695   2.467 -0.8664  0.4169  0.3826
 1267SOL    HW3 5114   0.909   2.638   2.327 -2.8328  0.4953  0.2409
 1267SOL    MW4 5115   0.910   2.706   2.381 -0.4886  0.3734  0.4101
 1268SOL     OW 5116   1.120   2.856   2.261 -0.4525  0.0488  0.0627
 1268SOL    HW2 5117   1.194   2.811   2.301 -1.2148 -0.5453  0.7961
 1268SOL    HW3 5118   1.042   2.815   2.298 -1.1696  0.2116 -1.2021
 1268SOL    MW4 5119   1.120   2.845   2.271 -0.6477 -0.0081 -0.0074
 1269SOL     OW 5120   1.124   3.131   2.350  0.0931  0.3621  0.0977
 1269SOL    HW2 5121   1.038   3.153   2.315 -0.6324 -0.7433  1.1149
 1269SOL    HW3 5122   1.136   3.039   2.327 -0.0594 -0.1682  2.0004
 1269SOL    MW4 5123   1.114   3.121   2.342 -0.0229  0.1466  0.4830
 1270SOL     OW 5124   0.898   3.228   2.218  0.2599 -0.1530 -0.0565
 1270SOL    HW2 5125   0.902   3.318   2.250 -0.0814  0.4093 -1.5287
 1270SOL    HW3 5126   0.835   3.185   2.276  1.2731  0.2353  1.3684
 1270SOL    MW4 5127   0.890   3.235   2.230  0.3486 -0.0274 -0.0629
 1271SOL     OW 5128   0.917   3.469   2.349 -0.3776 -0.1303 -0.4343
 1271SOL    HW2 5129   0.893   3.468   2.441 -0.0006  1.5868 -0.2863
 1271SOL    HW3 5130   0.846   3.518   2.306 -0.5882 -0.9807 -1.0625
 1271SOL    MW4 5131   0.905   3.475   2.355 -0.3557 -0.0165 -0.4978
 1272SOL     OW 5132   1.113   3.623   2.229 -0.1128  0.1317  0.3243
 1272SOL    HW2 5133   1.195   3.584   2.258  0.1511 -0.7750 -1.5525
 1272SOL    HW3 5134   1.045   3.572   2.273  0.2794 -1.1664 -0.5443
 1272SOL    MW4 5135   1.115   3.611   2.238 -0.0262 -0.1593 -0.0381
 1273SOL     OW 5136   1.131   3.871   2.350  0.2718  0.1435 -0.3214
 1273SOL    HW2 5137   1.207   3.913   2.308  0.2187  0.2194 -0.3416
 1273SOL    HW3 5138   1.130   3.783   2.313  0.6491 -0.0237  0.0592
 1273SOL    MW4 5139   1.141   3.865   2.339  0.3147  0.1316 -0.2739
 1274SOL     OW 5140   0.920   3.998   2.253 -0.0182 -0.3451 -0.5582
 1274SOL    HW2 5141   0.995   3.955   2.293 -0.8502 -1.0398  0.2758
 1274SOL    HW3 5142   0.844   3.951   2.286 -0.8676  0.7822 -0.8432
 1274SOL    MW4 5143   0.920   3.986   2.262 -0.2400 -0.2880 -0.4859
 1275SOL     OW 5144   0.912   4.264   2.367 -0.4063  0.4594  0.1084
 1275SOL    HW2 5145   0.895   4.174   2.338  0.4142  0.2110  0.3891
 1275SOL    HW3 5146   0.831   4.311   2.348 -0.5735 -0.1673 -0.7284
 1275SOL    MW4 5147   0.899   4.258   2.361 -0.3202  0.3443  0.0353
 1276SOL     OW 5148   1.143   4.396   2.303 -0.2333  0.0295  0.5579
 1276SOL    HW2 5149   1.054   4.361   2.316 -0.5829  0.2023 -1.2625
 1276SOL    HW3 5150   1.138   4.486   2.333 -0.8357  0.2120 -0.0658
 1276SOL    MW4 5151   1.130   4.403   2.309 -0.3591  0.0768  0.2353
 1277SOL     OW 5152   1.591   4.666   2.352 -0.1100  0.1742  0.0450
 1277SOL    HW2 5153   1.661   4.704   2.300 -0.0423  2.5305  1.8108
 1277SOL    HW3 5154   1.511   4.707   2.319 -0.2740  0.1890  0.4538
 1277SOL    MW4 5155   1.590   4.676   2.341 -0.1227  0.4873  0.3321
 1278SOL     OW 5156   1.337   0.086   2.250  0.4806  0.0202 -0.1417
 1278SOL    HW2 5157   1.345   0.174   2.287  0.1745  0.8376 -1.9548
 1278SOL    HW3 5158   1.266   0.045   2.301 -0.5959  1.4465 -0.4465
 1278SOL    MW4 5159   1.328   0.092   2.262  0.2981  0.3163 -0.4210
 1279SOL     OW 5160   1.338   0.335   2.364  0.2010  0.0274 -0.1543
 1279SOL    HW2 5161   1.353   0.335   2.459  0.7457  1.0436 -0.2371
 1279SOL    HW3 5162   1.406   0.392   2.329 -0.8110  0.7239 -1.0255
 1279SOL    MW4 5163   1.349   0.343   2.372  0.1394  0.2534 -0.2801
 1280SOL     OW 5164   1.538   0.489   2.275  0.2555 -0.3263 -0.0973
 1280SOL    HW2 5165   1.625   0.454   2.297  0.6417  1.1930  0.8416
 1280SOL    HW3 5166   1.544   0.511   2.182  1.1436  0.5051  0.1487
 1280SOL    MW4 5167   1.550   0.487   2.265  0.4237 -0.0162  0.0591
 1281SOL     OW 5168   1.554   0.745   2.379  0.1048  0.2249  0.2505
 1281SOL    HW2 5169   1.627   0.785   2.332 -0.0961  0.3844  0.0722
 1281SOL    HW3 5170   1.556   0.653   2.351  0.6890  0.0625  0.8183
 1281SOL    MW4 5171   1.564   0.738   2.369  0.1554  0.2245  0.3018
 1282SOL     OW 5172   1.353   0.846   2.224 -0.4844  0.3053 -0.1114
 1282SOL    HW2 5173   1.420   0.812   2.283 -0.1044 -0.7154 -1.1245
 1282SOL    HW3 5174   1.273   0.800   2.250 -0.3913  0.1146 -0.1616
 1282SOL    MW4 5175   1.351   0.835   2.235 -0.4220  0.1454 -0.2518
 1283SOL     OW 5176   1.382   1.088   2.349 -0.0001  0.2995  0.0257
 1283SOL    HW2 5177   1.384   1.079   2.444  2.4233  0.6220  0.0433
 1283SOL    HW3 5178   1.362   1.000   2.317 -1.4177  0.3176  0.8311
 1283SOL    MW4 5179   1.380   1.075   2.357  0.1327  0.3445  0.1345
 1284SOL     OW 5180   1.560   1.275   2.234 -0.2375  0.2874  0.2149
 1284SOL    HW2 5181   1.490   1.210   2.241 -2.0546  2.2961  1.4312
 1284SOL    HW3 5182   1.566   1.293   2.141 -3.5974  2.3683  0.3085
 1284SOL    MW4 5183   1.552   1.269   2.223 -0.9207  0.8271  0.3879
 1285SOL     OW 5184   1.610   1.503   2.390  0.0214  0.1106  0.5324
 1285SOL    HW2 5185   1.668   1.563   2.343  0.0237 -0.2196  0.1080
 1285SOL    HW3 5186   1.602   1.427   2.332 -2.6863  1.1009 -0.4843
 1285SOL    MW4 5187   1.616   1.501   2.376 -0.3356  0.1976  0.3421
 1286SOL     OW 5188   1.385   1.616   2.263 -0.1560  0.0215 -0.4237
 1286SOL    HW2 5189   1.454   1.576   2.317  0.6575  0.1388 -1.3538
 1286SOL    HW3 5190   1.304   1.576   2.294  0.5432 -1.6724 -0.6980
 1286SOL    MW4 5191   1.384   1.605   2.274  0.0436 -0.1864 -0.5827
 1287SOL     OW 5192   1.353   1.882   2.350  0.0471 -0.2724  0.2810
 1287SOL    HW2 5193   1.429   1.923   2.308 -0.2114 -0.5208 -0.4355
 1287SOL    HW3 5194   1.361   1.789   2.330  0.3458 -0.5105  1.4644
 1287SOL    MW4 5195   1.364   1.875   2.342  0.0522 -0.3366  0.3426
 1288SOL     OW 5196   1.560   2.067   2.243  0.5787 -0.0564  0.3834
 1288SOL    HW2 5197   1.642   2.031   2.276  0.4587 -0.2668  0.4532
 1288SOL    HW3 5198   1.566   2.056   2.148 -0.0377 -1.5072  0.5007
 1288SOL    MW4 5199   1.572   2.061   2.235  0.4816 -0.2756  0.4082
 1289SOL     OW 5200   1.537   2.324   2.355  0.0549  0.0113  0.4131
 1289SOL    HW2 5201   1.534   2.300   2.448 -0.4991 -0.2810  0.3216
 1289SOL    HW3 5202   1.522   2.242   2.308 -1.4922  0.4623  0.0946
 1289SOL    MW4 5203   1.535   2.310   2.361 -0.2222  0.0324  0.3591
 1290SOL     OW 5204   1.316   2.456   2.267 -0.3977  0.0814  0.1600
 1290SOL    HW2 5205   1.394   2.410   2.299 -1.7370 -2.0564  0.4358
 1290SOL    HW3 5206   1.334   2.469   2.173  1.2870  1.7519  0.6692
 1290SOL    MW4 5207   1.329   2.452   2.259 -0.3520  0.0198  0.2637
 1291SOL     OW 5208   1.331   2.707   2.370 -0.0377 -0.4718  0.0214
 1291SOL    HW2 5209   1.401   2.754   2.325 -0.8434  0.2054 -0.5380
 1291SOL    HW3 5210   1.340   2.616   2.340 -0.2094 -0.1390 -1.0866
 1291SOL    MW4 5211   1.341   2.701   2.360 -0.1667 -0.3386 -0.1986
 1292SOL     OW 5212   1.544   2.843   2.257 -0.0467 -0.4309 -0.0457
 1292SOL    HW2 5213   1.563   2.928   2.297  1.0436 -0.8878  0.4226
 1292SOL    HW3 5214   1.560   2.857   2.163  1.0005 -0.3593  0.1412
 1292SOL    MW4 5215   1.549   2.856   2.250  0.2353 -0.4818  0.0405
 1293SOL     OW 5216   1.558   3.101   2.334  0.1767 -0.1739  0.4959
 1293SOL    HW2 5217   1.549   3.097   2.430  0.7862 -0.8187  0.5323
 1293SOL    HW3 5218   1.484   3.155   2.305 -0.2078 -0.2599  1.3039
 1293SOL    MW4 5219   1.547   3.107   2.343  0.2065 -0.2699  0.6075
 1294SOL     OW 5220   1.337   3.273   2.257 -0.2190  0.0039 -0.2101
 1294SOL    HW2 5221   1.253   3.240   2.288 -0.7461  0.9063 -0.6678
 1294SOL    HW3 5222   1.339   3.250   2.164 -0.4844  1.0674 -0.4746
 1294SOL    MW4 5223   1.326   3.265   2.249 -0.3235  0.2635 -0.3049
 1295SOL     OW 5224   1.348   3.536   2.358  0.4694 -0.0306 -0.2707
 1295SOL    HW2 5225   1.351   3.527   2.453 -0.8550 -0.4224 -0.2585
 1295SOL    HW3 5226   1.343   3.446   2.326 -0.6198  0.1573 -0.6420
 1295SOL    MW4 5227   1.347   3.523   2.366  0.1510 -0.0575 -0.3183
 1296SOL     OW 5228   1.595   3.619   2.258 -0.2713  0.3530 -0.1777
 1296SOL    HW2 5229   1.601   3.705   2.300  0.3164  0.3979 -0.3489
 1296SOL    HW3 5230   1.516   3.580   2.294 -0.9872  1.2895 -0.6997
 1296SOL    MW4 5231   1.586   3.625   2.268 -0.2881  0.4826 -0.2692
 1297SOL     OW 5232   1.603   3.880   2.342 -0.3536  0.0732 -0.0294
 1297SOL    HW2 5233   1.612   3.884   2.438  0.3839 -2.6447  0.0456
 1297SOL    HW3 5234   1.685   3.917   2.310  0.0474 -0.4075  0.4212
 1297SOL    MW4 5235   1.615   3.885   2.351 -0.2035 -0.3488  0.0401
 1298SOL     OW 5236   1.377   3.995   2.230  0.0330  0.6376  0.0587
 1298SOL    HW2 5237   1.459   3.951   2.251 -0.8386 -1.5415 -0.8914
 1298SOL    HW3 5238   1.376   4.000   2.134 -0.8507  0.7975  0.0712
 1298SOL    MW4 5239   1.387   3.990   2.220 -0.1986  0.3715 -0.0651
 1299SOL     OW 5240   1.369   4.257   2.332 -0.3935 -0.0494 -0.1744
 1299SOL    HW2 5241   1.361   4.169   2.296  0.2276 -0.4764  0.7092
 1299SOL    HW3 5242   1.285   4.298   2.314 -0.0639 -0.2095 -2.1851
 1299SOL    MW4 5243   1.357   4.251   2.325 -0.2681 -0.1264 -0.3233
 1300SOL     OW 5244   1.610   4.402   2.272  0.0392 -0.0299 -0.5167
 1300SOL    HW2 5245   1.525   4.362   2.292  0.8390 -1.0122  1.0737
 1300SOL    HW3 5246   1.608   4.486   2.317 -0.2772  0.1492 -0.8694
 1300SOL    MW4 5247   1.599   4.408   2.281  0.1030 -0.1359 -0.3533
 1301SOL     OW 5248   2.006   4.666   2.346  0.0699  0.0028 -0.0480
 1301SOL    HW2 5249   2.086   4.716   2.328  0.1089 -0.1631 -0.3290
 1301SOL    HW3 5250   2.028   4.576   2.323 -0.9639  0.3315 -2.3899
 1301SOL    MW4 5251   2.020   4.661   2.341 -0.0613  0.0243 -0.3941
 1302SOL     OW 5252   1.798   0.107   2.203 -0.2993  0.4354  0.3175
 1302SOL    HW2 5253   1.803   0.194   2.243  0.5010  0.7853 -0.5416
 1302SOL    HW3 5254   1.863   0.055   2.251  0.0499  0.6224  0.0452
 1302SOL    MW4 5255   1.807   0.112   2.215 -0.1477  0.5062  0.1681
 1303SOL     OW 5256   1.807   0.379   2.338  0.3883  0.3254  0.2597
 1303SOL    HW2 5257   1.809   0.386   2.433  0.2151  0.3932  0.2597
 1303SOL    HW3 5258   1.894   0.407   2.310  0.1049  1.3092  0.3400
 1303SOL    MW4 5259   1.819   0.384   2.347  0.3278  0.4641  0.2704
 1304SOL     OW 5260   2.054   0.481   2.272  0.6974  0.1506 -0.1734
 1304SOL    HW2 5261   2.051   0.571   2.305 -2.1470 -0.4415  1.3949
 1304SOL    HW3 5262   2.033   0.488   2.179 -2.3638  0.8921  0.5389
 1304SOL    MW4 5263   2.051   0.494   2.264 -0.0815  0.1703  0.1276
 1305SOL     OW 5264   2.019   0.745   2.346 -0.0530 -0.1408 -0.1484
 1305SOL    HW2 5265   2.091   0.792   2.303 -0.3087  0.3067 -0.0886
 1305SOL    HW3 5266   1.940   0.778   2.304 -0.3468  0.7627  1.0947
 1305SOL    MW4 5267   2.018   0.755   2.335 -0.1256  0.0374  0.0236
 1306SOL     OW 5268   1.776   0.865   2.260  0.6081  0.3441  0.4150
 1306SOL    HW2 5269   1.787   0.952   2.298  1.4609 -0.1398  1.3075
 1306SOL    HW3 5270   1.782   0.879   2.166  1.1113  1.2011  0.5702
 1306SOL    MW4 5271   1.778   0.879   2.253  0.7870  0.3933  0.5534
 1307SOL     OW 5272   1.794   1.137   2.313 -0.0075 -0.0397 -0.1140
 1307SOL    HW2 5273   1.874   1.177   2.282 -0.0449 -0.5898 -0.9640
 1307SOL    HW3 5274   1.724   1.193   2.279  0.0210  0.8312  1.2099
 1307SOL    MW4 5275   1.795   1.149   2.305 -0.0086  0.0026 -0.0520
 1308SOL     OW 5276   2.018   1.304   2.263 -0.0584  0.4490 -0.1239
 1308SOL    HW2 5277   2.026   1.392   2.299  0.5935 -0.4096  1.8635
 1308SOL    HW3 5278   2.008   1.317   2.168  0.4044  2.6239  0.1243
 1308SOL    MW4 5279   2.017   1.317   2.255  0.0887  0.6227  0.1712
 1309SOL     OW 5280   2.029   1.552   2.371 -0.2149 -0.1894  0.0340
 1309SOL    HW2 5281   2.027   1.549   2.466 -1.6166 -1.7547 -0.0207
 1309SOL    HW3 5282   1.948   1.596   2.346  1.2966  2.4714 -0.4041
 1309SOL    MW4 5283   2.018   1.557   2.380 -0.2003 -0.0447 -0.0310
 1310SOL     OW 5284   1.801   1.665   2.259 -0.0575  0.0583  0.2330
 1310SOL    HW2 5285   1.797   1.750   2.303 -0.3447 -0.2264  0.7678
 1310SOL    HW3 5286   1.812   1.686   2.167  2.1059  0.6424  0.6007
 1310SOL    MW4 5287   1.802   1.679   2.253  0.1901  0.0978  0.3521
 1311SOL     OW 5288   1.809   1.938   2.351  0.1025 -0.0552  0.5135
 1311SOL    HW2 5289   1.799   1.952   2.445  0.5785  1.4167  0.3629
 1311SOL    HW3 5290   1.895   1.975   2.331  1.0769 -2.5719 -0.0912
 1311SOL    MW4 5291   1.819   1.945   2.361  0.2937 -0.1930  0.4137
 1312SOL     OW 5292   2.039   2.063   2.240 -0.2469 -0.1276 -0.1131
 1312SOL    HW2 5293   2.116   2.021   2.279  0.1585  0.5049 -0.2412
 1312SOL    HW3 5294   2.051   2.054   2.146 -0.1872  0.2325 -0.1398
 1312SOL    MW4 5295   2.051   2.056   2.233 -0.1855  0.0033 -0.1333
 1313SOL     OW 5296   1.994   2.322   2.329 -0.0509 -0.0417 -0.1596
 1313SOL    HW2 5297   2.074   2.362   2.294 -0.3695  1.7218  1.0353
 1313SOL    HW3 5298   1.994   2.233   2.295  1.2064  0.6817 -2.0920
 1313SOL    MW4 5299   2.005   2.316   2.320  0.0727  0.2863 -0.2565
 1314SOL     OW 5300   1.775   2.474   2.265  0.0593  0.1514 -0.0639
 1314SOL    HW2 5301   1.858   2.429   2.286  0.7260  1.0103 -0.7954
 1314SOL    HW3 5302   1.708   2.424   2.312  0.6960 -1.9997 -1.3137
 1314SOL    MW4 5303   1.777   2.461   2.274  0.2314 -0.0188 -0.3252
 1315SOL     OW 5304   1.780   2.737   2.338 -0.2854 -0.1115 -0.1882
 1315SOL    HW2 5305   1.782   2.647   2.305  0.5002  0.4454 -1.7070
 1315SOL    HW3 5306   1.692   2.768   2.316 -0.6719 -0.5973  0.6296
 1315SOL    MW4 5307   1.768   2.729   2.331 -0.2328 -0.1020 -0.2804
 1316SOL     OW 5308   2.003   2.823   2.224  0.0812  0.1869  0.5756
 1316SOL    HW2 5309   2.077   2.788   2.274  0.6531  1.5015  0.6776
 1316SOL    HW3 5310   1.925   2.791   2.270  0.5727 -1.2296  0.4467
 1316SOL    MW4 5311   2.002   2.814   2.237  0.2215  0.1733  0.5722
 1317SOL     OW 5312   2.010   3.077   2.312  0.0465 -0.6719  0.4077
 1317SOL    HW2 5313   2.075   3.125   2.260  1.4838 -0.7979  2.0566
 1317SOL    HW3 5314   2.023   2.986   2.287 -0.4980 -0.5561 -0.3318
 1317SOL    MW4 5315   2.020   3.072   2.302  0.1643 -0.6733  0.5279
 1318SOL     OW 5316   1.791   3.209   2.226 -0.1530  0.2334 -0.5195
 1318SOL    HW2 5317   1.860   3.152   2.259 -0.5998  0.2607  0.4825
 1318SOL    HW3 5318   1.711   3.176   2.266 -0.8359 -0.2409 -2.2278
 1318SOL    MW4 5319   1.789   3.197   2.235 -0.3022  0.1745 -0.6125
 1319SOL     OW 5320   1.811   3.473   2.316  0.0423  0.4558  0.0056
 1319SOL    HW2 5321   1.805   3.382   2.288  1.9809 -0.0242  1.0721
 1319SOL    HW3 5322   1.725   3.511   2.295 -0.0808 -1.0602 -2.3239
 1319SOL    MW4 5323   1.799   3.466   2.309  0.2819  0.1926 -0.1607
 1320SOL     OW 5324   2.014   3.633   2.269 -0.3163 -0.4244  0.0883
 1320SOL    HW2 5325   1.948   3.569   2.294 -0.0243 -1.0662 -0.7656
 1320SOL    HW3 5326   2.021   3.626   2.174  0.1115  0.4926  0.0369
 1320SOL    MW4 5327   2.007   3.624   2.260 -0.2215 -0.3881 -0.0310
 1321SOL     OW 5328   2.053   3.906   2.346  0.3325 -0.0607 -0.2379
 1321SOL    HW2 5329   2.033   3.910   2.439 -2.7002  1.3009 -0.9012
 1321SOL    HW3 5330   2.034   3.815   2.321  0.5281 -0.2589  0.3356
 1321SOL    MW4 5331   2.048   3.895   2.355 -0.0420  0.0927 -0.2499
 1322SOL     OW 5332   1.831   4.019   2.244  0.1924  0.1007  0.2594
 1322SOL    HW2 5333   1.907   3.969   2.274  0.9829  0.7756 -0.6314
 1322SOL    HW3 5334   1.848   4.037   2.152 -0.8836  0.5669  0.1437
 1322SOL    MW4 5335   1.843   4.015   2.236  0.1546  0.2508  0.1266
 1323SOL     OW 5336   1.822   4.256   2.382 -0.0018 -0.4004  0.1788
 1323SOL    HW2 5337   1.802   4.169   2.349  2.0358 -0.2303 -1.6041
 1323SOL    HW3 5338   1.763   4.315   2.335  0.6795 -0.5144 -0.8313
 1323SOL    MW4 5339   1.812   4.253   2.372  0.3569 -0.3929 -0.1895
 1324SOL     OW 5340   2.021   4.404   2.257  0.1501 -0.2383  0.3187
 1324SOL    HW2 5341   1.957   4.347   2.297  1.9393 -3.3153 -1.0391
 1324SOL    HW3 5342   2.007   4.395   2.163  1.3150  0.5471  0.0523
 1324SOL    MW4 5343   2.011   4.395   2.250  0.5398 -0.5407  0.1047
 1325SOL     OW 5344   2.508   4.653   2.366 -0.0384 -0.3684 -0.2414
 1325SOL    HW2 5345   2.582   4.691   2.319  0.6005 -0.0854  0.9700
 1325SOL    HW3 5346   2.500   4.564   2.331  1.2339 -0.5860  0.0037
 1325SOL    MW4 5347   2.517   4.646   2.355  0.2136 -0.3600 -0.0491
 1326SOL     OW 5348   2.251   0.110   2.286 -0.4706 -0.0769 -0.4268
 1326SOL    HW2 5349   2.265   0.203   2.303 -0.5905  0.0831 -1.1508
 1326SOL    HW3 5350   2.317   0.066   2.338  0.6245  0.5091 -1.2844
 1326SOL    MW4 5351   2.262   0.116   2.295 -0.3417  0.0215 -0.6356
 1327SOL     OW 5352   2.300   0.362   2.348 -0.4118  0.6824  0.1858
 1327SOL    HW2 5353   2.367   0.410   2.301  0.7345  0.3702  1.4852
 1327SOL    HW3 5354   2.217   0.393   2.311  0.4625  0.3479 -2.1011
 1327SOL    MW4 5355   2.298   0.372   2.337 -0.1452  0.5971  0.0556
 1328SOL     OW 5356   2.467   0.539   2.226  0.4395 -0.3883  0.0664
 1328SOL    HW2 5357   2.543   0.488   2.256 -0.3488 -1.5699  0.0846
 1328SOL    HW3 5358   2.471   0.533   2.131 -0.0104 -1.0251  0.0848
 1328SOL    MW4 5359   2.478   0.531   2.218  0.2761 -0.6281  0.0710
 1329SOL     OW 5360   2.489   0.796   2.337 -0.2137  0.4608  0.1791
 1329SOL    HW2 5361   2.578   0.825   2.316  0.0900 -1.2332 -0.9796
 1329SOL    HW3 5362   2.480   0.711   2.292 -2.4044  0.6014  0.2960
 1329SOL    MW4 5363   2.500   0.788   2.328 -0.4628  0.2559  0.0417
 1330SOL     OW 5364   2.247   0.890   2.233 -0.1843 -0.0788 -0.0994
 1330SOL    HW2 5365   2.237   0.981   2.261 -0.9672  0.0405 -0.7238
 1330SOL    HW3 5366   2.334   0.864   2.263  0.4585  1.1984 -0.8112
 1330SOL    MW4 5367   2.257   0.898   2.241 -0.2029  0.1054 -0.2759
 1331SOL     OW 5368   2.256   1.171   2.325 -0.0011  0.5793  0.0567
 1331SOL    HW2 5369   2.332   1.197   2.273 -0.6663  0.6993 -0.8798
 1331SOL    HW3 5370   2.186   1.229   2.295 -1.2393 -1.5582 -1.3161
 1331SOL    MW4 5371   2.257   1.182   2.314 -0.2522  0.3130 -0.2480
 1332SOL     OW 5372   2.482   1.282   2.205 -0.2291  0.8816 -0.0216
 1332SOL    HW2 5373   2.550   1.227   2.244 -1.4483 -0.5499  0.1354
 1332SOL    HW3 5374   2.481   1.361   2.259  2.0137  1.3678 -0.6572
 1332SOL    MW4 5375   2.491   1.285   2.217 -0.0939  0.7569 -0.0846
 1333SOL     OW 5376   2.492   1.509   2.350 -0.3800 -0.3089  0.4883
 1333SOL    HW2 5377   2.487   1.500   2.445 -0.4999 -0.7600  0.4410
 1333SOL    HW3 5378   2.574   1.556   2.334 -0.3379 -0.2733  0.8135
 1333SOL    MW4 5379   2.502   1.514   2.360 -0.3903 -0.3637  0.5248
 1334SOL     OW 5380   2.245   1.660   2.247 -0.1458 -0.0730 -0.1361
 1334SOL    HW2 5381   2.318   1.609   2.283  0.1756  1.2057  1.0745
 1334SOL    HW3 5382   2.167   1.616   2.278  0.1270 -0.2053  0.3625
 1334SOL    MW4 5383   2.245   1.648   2.256 -0.0675  0.0783  0.0896
 1335SOL     OW 5384   2.243   1.925   2.332  0.4946  0.2749  0.1631
 1335SOL    HW2 5385   2.310   1.981   2.295  2.3482 -1.2724  1.0849
 1335SOL    HW3 5386   2.252   1.842   2.285 -0.6853 -0.0135  0.4084
 1335SOL    MW4 5387   2.253   1.921   2.321  0.5836  0.0327  0.3169
 1336SOL     OW 5388   2.453   2.073   2.208 -0.2722  0.3272 -0.0878
 1336SOL    HW2 5389   2.519   2.023   2.256 -0.4069  1.3581  1.2258
 1336SOL    HW3 5390   2.465   2.049   2.117 -0.0905 -1.8018  0.4766
 1336SOL    MW4 5391   2.463   2.064   2.203 -0.2661  0.1824  0.1600
 1337SOL     OW 5392   2.466   2.321   2.354 -0.0074  0.2063 -0.0774
 1337SOL    HW2 5393   2.548   2.366   2.333 -0.0113 -0.0266 -0.6107
 1337SOL    HW3 5394   2.463   2.248   2.293 -0.0563 -0.4537  0.7135
 1337SOL    MW4 5395   2.477   2.318   2.343 -0.0145  0.0885 -0.0432
 1338SOL     OW 5396   2.245   2.451   2.270 -0.1821  0.3005  0.4492
 1338SOL    HW2 5397   2.231   2.541   2.299 -0.2088 -0.3698  2.5498
 1338SOL    HW3 5398   2.328   2.425   2.311  0.1442 -0.4480 -0.6430
 1338SOL    MW4 5399   2.254   2.459   2.279 -0.1423  0.1130  0.5825
 1339SOL     OW 5400   2.201   2.708   2.377 -0.7164 -0.1077  0.0278
 1339SOL    HW2 5401   2.198   2.727   2.471 -1.1832 -0.2805  0.0471
 1339SOL    HW3 5402   2.291   2.729   2.351 -0.2796 -1.0919  0.7354
 1339SOL    MW4 5403   2.212   2.714   2.386 -0.7203 -0.2601  0.1235
 1340SOL     OW 5404   2.465   2.806   2.264 -0.0744 -0.0482 -0.0237
 1340SOL    HW2 5405   2.549   2.804   2.310 -0.5607  0.0604  0.8812
 1340SOL    HW3 5406   2.486   2.843   2.178  0.5986  1.0950  0.6202
 1340SOL    MW4 5407   2.479   2.810   2.259 -0.0498  0.1168  0.1807
 1341SOL     OW 5408   2.408   3.084   2.337  0.3060  0.2144  0.1122
 1341SOL    HW2 5409   2.496   3.121   2.334  0.1148  0.5918 -1.4989
 1341SOL    HW3 5410   2.420   2.990   2.322  0.4803  0.1592  0.5811
 1341SOL    MW4 5411   2.421   3.076   2.335  0.3037  0.2568 -0.0384
 1342SOL     OW 5412   2.208   3.259   2.220 -0.0385 -0.0571 -0.1531
 1342SOL    HW2 5413   2.209   3.338   2.274 -0.1849 -0.5099  0.5174
 1342SOL    HW3 5414   2.264   3.197   2.267 -1.2932 -0.9300  0.1966
 1342SOL    MW4 5415   2.216   3.262   2.233 -0.2236 -0.2320 -0.0186
 1343SOL     OW 5416   2.244   3.502   2.355 -0.0080  0.5378  0.2711
 1343SOL    HW2 5417   2.233   3.488   2.449  0.1428 -0.6852  0.1139
 1343SOL    HW3 5418   2.159   3.536   2.326 -0.4676 -0.3062  0.6253
 1343SOL    MW4 5419   2.231   3.505   2.364 -0.0486  0.2651  0.2971
 1344SOL     OW 5420   2.470   3.635   2.230 -0.8954 -0.1121 -0.7475
 1344SOL    HW2 5421   2.478   3.717   2.278  0.9742 -0.2790 -0.7016
 1344SOL    HW3 5422   2.397   3.590   2.270 -0.4232  0.5013  0.8247
 1344SOL    MW4 5423   2.462   3.640   2.241 -0.5863 -0.0529 -0.5341
 1345SOL     OW 5424   2.500   3.883   2.357 -0.0424 -0.1762 -0.0812
 1345SOL    HW2 5425   2.492   3.887   2.452  0.9671 -0.7478  0.0342
 1345SOL    HW3 5426   2.426   3.935   2.324 -0.8328 -0.6059  0.9991
 1345SOL    MW4 5427   2.489   3.890   2.365 -0.0134 -0.3085  0.0765
 1346SOL     OW 5428   2.295   4.018   2.256 -0.0042 -0.4212  0.2614
 1346SOL    HW2 5429   2.288   4.111   2.277  3.4888  0.1932 -0.8554
 1346SOL    HW3 5430   2.215   3.979   2.290 -1.6332  3.0223  0.5604
 1346SOL    MW4 5431   2.284   4.025   2.263  0.2418  0.1140  0.1535
 1347SOL     OW 5432   2.237   4.275   2.348 -0.5488 -0.1592 -0.1289
 1347SOL    HW2 5433   2.243   4.303   2.439  0.9792  1.0735 -0.5903
 1347SOL    HW3 5434   2.159   4.320   2.315 -0.4523  0.3037  0.2579
 1347SOL    MW4 5435   2.228   4.285   2.356 -0.3345  0.0644 -0.1388
 1348SOL     OW 5436   2.474   4.415   2.259 -0.0080 -0.0057  0.3045
 1348SOL    HW2 5437   2.550   4.359   2.276  0.3919  0.4366 -0.0292
 1348SOL    HW3 5438   2.403   4.373   2.307 -0.0322 -1.5813 -1.0825
 1348SOL    MW4 5439   2.475   4.402   2.268  0.0417 -0.1554  0.0775
 1349SOL     OW 5440   2.897   4.666   2.357 -0.1668  0.0658 -0.0532
 1349SOL    HW2 5441   2.979   4.708   2.330 -0.1143  0.0767  0.1249
 1349SOL    HW3 5442   2.906   4.575   2.327 -0.5233  0.3168 -0.9627
 1349SOL    MW4 5443   2.909   4.660   2.349 -0.2072  0.1004 -0.1497
 1350SOL     OW 5444   2.696   0.087   2.210 -0.3813 -0.6205 -0.1144
 1350SOL    HW2 5445   2.676   0.176   2.237  1.4376 -0.2934  0.2241
 1350SOL    HW3 5446   2.772   0.062   2.263  0.7021 -1.4422 -2.0109
 1350SOL    MW4 5447   2.703   0.095   2.220  0.0014 -0.6858 -0.3200
 1351SOL     OW 5448   2.661   0.353   2.309 -0.0541  0.5454  0.1531
 1351SOL    HW2 5449   2.632   0.345   2.399  0.0568 -1.8831 -0.0010
 1351SOL    HW3 5450   2.753   0.381   2.316  0.5700 -1.5535  0.8788
 1351SOL    MW4 5451   2.670   0.355   2.322  0.0429 -0.0519  0.2286
 1352SOL     OW 5452   2.934   0.447   2.285 -0.0564 -0.5127  0.0258
 1352SOL    HW2 5453   2.936   0.539   2.308 -0.9317 -0.5423  0.2582
 1352SOL    HW3 5454   2.932   0.446   2.189  1.6877 -0.3419 -0.0183
 1352SOL    MW4 5455   2.934   0.459   2.275  0.0584 -0.4941  0.0508
 1353SOL     OW 5456   2.943   0.692   2.386  0.5121 -0.1481  0.3620
 1353SOL    HW2 5457   2.943   0.696   2.481  0.0224 -1.0489  0.4068
 1353SOL    HW3 5458   2.873   0.751   2.359 -0.2272 -0.9042  0.6124
 1353SOL    MW4 5459   2.934   0.700   2.395  0.3500 -0.3668  0.4010
 1354SOL     OW 5460   2.745   0.850   2.251 -0.3738  0.7435  0.0665
 1354SOL    HW2 5461   2.734   0.942   2.274 -0.3861  0.8899 -0.5130
 1354SOL    HW3 5462   2.741   0.849   2.155 -1.4316 -0.0034  0.1198
 1354SOL    MW4 5463   2.743   0.862   2.241 -0.5152  0.6642 -0.0029
 1355SOL     OW 5464   2.681   1.107   2.308 -0.3290 -0.0074 -0.0220
 1355SOL    HW2 5465   2.673   1.122   2.403 -0.1401  1.6358 -0.2527
 1355SOL    HW3 5466   2.754   1.162   2.281  2.0533 -3.3015 -0.5195
 1355SOL    MW4 5467   2.689   1.116   2.317  0.0100 -0.2251 -0.1180
 1356SOL     OW 5468   2.905   1.263   2.255  0.4018  0.0037 -0.3608
 1356SOL    HW2 5469   2.975   1.197   2.261 -0.1108 -0.5208 -0.0373
 1356SOL    HW3 5470   2.907   1.292   2.164  0.7312 -0.3583 -0.4696
 1356SOL    MW4 5471   2.915   1.258   2.244  0.3774 -0.1134 -0.3326
 1357SOL     OW 5472   2.909   1.530   2.360 -0.1995  0.3391  0.1033
 1357SOL    HW2 5473   2.919   1.538   2.455  0.1956  0.1231  0.0826
 1357SOL    HW3 5474   2.892   1.437   2.345 -0.1686  0.3563 -0.0419
 1357SOL    MW4 5475   2.908   1.519   2.371 -0.1435  0.3128  0.0815
 1358SOL     OW 5476   2.696   1.683   2.272 -0.0762 -0.0090  0.3071
 1358SOL    HW2 5477   2.774   1.640   2.307 -0.1495  0.1836  0.7171
 1358SOL    HW3 5478   2.699   1.667   2.178  0.9905  0.8779  0.1857
 1358SOL    MW4 5479   2.707   1.675   2.264  0.0548  0.1334  0.3450
 1359SOL     OW 5480   2.633   1.943   2.365 -0.0141  0.1845 -0.4991
 1359SOL    HW2 5481   2.652   1.949   2.459  0.8927  0.9963 -0.7208
 1359SOL    HW3 5482   2.658   1.853   2.342 -2.4900 -0.7950  0.4939
 1359SOL    MW4 5483   2.639   1.932   2.375 -0.2210  0.1624 -0.3972
 1360SOL     OW 5484   2.857   2.076   2.279 -0.2690 -0.0173 -0.3129
 1360SOL    HW2 5485   2.935   2.027   2.307 -0.1715  0.3812  0.1156
 1360SOL    HW3 5486   2.784   2.027   2.316 -0.2109 -0.2949 -0.5674
 1360SOL    MW4 5487   2.858   2.063   2.287 -0.2484 -0.0017 -0.2902
 1361SOL     OW 5488   2.921   2.332   2.365  0.6543  0.1131  0.2423
 1361SOL    HW2 5489   2.903   2.333   2.459 -0.7276 -0.1079 -0.0005
 1361SOL    HW3 5490   2.907   2.241   2.339  1.1781  0.1440 -0.1419
 1361SOL    MW4 5491   2.917   2.320   2.374  0.5412  0.0880  0.1597
 1362SOL     OW 5492   2.695   2.467   2.269 -0.1854 -0.1010 -0.6996
 1362SOL    HW2 5493   2.780   2.429   2.293  0.6021  2.0319  0.0445
 1362SOL    HW3 5494   2.699   2.476   2.173  0.3669 -0.1890 -0.6845
 1362SOL    MW4 5495   2.707   2.463   2.259 -0.0088  0.1686 -0.5991
 1363SOL     OW 5496   2.711   2.727   2.411 -0.2621  0.0186 -0.2508
 1363SOL    HW2 5497   2.780   2.781   2.373  0.4247 -0.5820  0.1352
 1363SOL    HW3 5498   2.724   2.641   2.372 -0.9745 -0.0265 -0.3943
 1363SOL    MW4 5499   2.722   2.723   2.401 -0.2654 -0.0665 -0.2191
 1364SOL     OW 5500   2.909   2.847   2.251 -0.2472  0.6440 -0.1500
 1364SOL    HW2 5501   2.929   2.928   2.298  1.1633  0.0669  0.2599
 1364SOL    HW3 5502   2.917   2.870   2.159 -0.0698  1.0318 -0.0397
 1364SOL    MW4 5503   2.913   2.860   2.245 -0.0374  0.6189 -0.0813
 1365SOL     OW 5504   2.913   3.067   2.395 -0.0848 -0.2680  0.3675
 1365SOL    HW2 5505   2.974   3.128   2.353  0.2259 -1.6710 -1.2610
 1365SOL    HW3 5506   2.826   3.095   2.365 -0.0738  0.2990  0.8466
 1365SOL    MW4 5507   2.909   3.079   2.386 -0.0424 -0.3781  0.2158
 1366SOL     OW 5508   2.662   3.196   2.326 -0.0758 -0.2564  0.0819
 1366SOL    HW2 5509   2.652   3.288   2.350  0.1059 -0.1324 -0.3149
 1366SOL    HW3 5510   2.682   3.197   2.232 -0.2560 -0.7083  0.0355
 1366SOL    MW4 5511   2.663   3.208   2.316 -0.0756 -0.2997  0.0236
 1367SOL     OW 5512   2.687   3.480   2.324  0.0353 -0.0671  0.4145
 1367SOL    HW2 5513   2.770   3.513   2.288 -0.5383  1.0906  0.0991
 1367SOL    HW3 5514   2.621   3.535   2.282 -1.0635 -2.4507 -1.0693
 1367SOL    MW4 5515   2.690   3.492   2.313 -0.1853 -0.2286  0.1774
 1368SOL     OW 5516   2.923   3.598   2.259 -0.2966 -0.2833 -0.4162
 1368SOL    HW2 5517   3.006   3.569   2.299  0.0665  0.4321 -0.6284
 1368SOL    HW3 5518   2.912   3.688   2.292 -0.0007  0.3142 -1.9098
 1368SOL    MW4 5519   2.933   3.606   2.269 -0.2098 -0.1101 -0.6413
 1369SOL     OW 5520   2.931   3.852   2.352  0.0607  0.2717 -0.3429
 1369SOL    HW2 5521   2.927   3.870   2.446  0.7549  0.4308 -0.3402
 1369SOL    HW3 5522   2.862   3.907   2.315 -0.4767 -0.0835  0.1093
 1369SOL    MW4 5523   2.921   3.862   2.360  0.0815  0.2456 -0.2830
 1370SOL     OW 5524   2.727   4.016   2.255  0.3730  0.3760 -0.0868
 1370SOL    HW2 5525   2.648   3.977   2.293  0.8827  0.5128  1.1304
 1370SOL    HW3 5526   2.716   4.005   2.161  0.1231 -1.9705  0.1794
 1370SOL    MW4 5527   2.715   4.009   2.248  0.4072  0.0849  0.1092
 1371SOL     OW 5528   2.686   4.271   2.352 -0.2849  0.1192 -0.3579
 1371SOL    HW2 5529   2.694   4.277   2.447  1.3581  0.5591 -0.5074
 1371SOL    HW3 5530   2.716   4.183   2.331  1.5230  0.7657 -0.6455
 1371SOL    MW4 5531   2.691   4.260   2.362  0.1705  0.2627 -0.4153
 1372SOL     OW 5532   2.928   4.405   2.328  0.1468 -0.3033 -0.1310
 1372SOL    HW2 5533   2.992   4.342   2.361  0.1077 -0.8553 -1.0934
 1372SOL    HW3 5534   2.844   4.359   2.335  0.0525 -0.1617 -0.3385
 1372SOL    MW4 5535   2.925   4.390   2.333  0.1290 -0.3572 -0.2849
 1373SOL     OW 5536   3.337   4.628   2.389  0.4025  0.2443  0.8376
 1373SOL    HW2 5537   3.314   4.647   2.480 -0.8789 -0.3489  0.6488
 1373SOL    HW3 5538   3.413   4.684   2.372  0.8057  0.1839  2.3395
 1373SOL    MW4 5539   3.344   4.638   2.399  0.2866  0.1583  1.0109
 1374SOL     OW 5540   3.147   0.130   2.279  0.5163 -0.1933  0.4967
 1374SOL    HW2 5541   3.157   0.208   2.334  0.7595  0.1219  0.0124
 1374SOL    HW3 5542   3.206   0.066   2.319  0.4177 -0.0881  0.8186
 1374SOL    MW4 5543   3.156   0.132   2.292  0.5352 -0.1379  0.4754
 1375SOL     OW 5544   3.154   0.358   2.419  0.4376  0.4170  0.3609
 1375SOL    HW2 5545   3.228   0.409   2.386  0.3476 -0.0836 -0.6343
 1375SOL    HW3 5546   3.078   0.395   2.375  0.0411  1.1656  1.6531
 1375SOL    MW4 5547   3.154   0.370   2.409  0.3734  0.4497  0.3998
 1376SOL     OW 5548   3.357   0.502   2.298  0.3284  0.2560 -0.3105
 1376SOL    HW2 5549   3.438   0.457   2.322  0.4807  0.3713 -0.6109
 1376SOL    HW3 5550   3.353   0.496   2.203 -0.9411 -1.3667 -0.1814
 1376SOL    MW4 5551   3.367   0.495   2.289  0.1810  0.0571 -0.3331
 1377SOL     OW 5552   3.365   0.781   2.385  0.4679 -0.5084  0.5890
 1377SOL    HW2 5553   3.447   0.828   2.369 -0.6928  0.3718 -3.2108
 1377SOL    HW3 5554   3.382   0.693   2.350  0.4173 -0.9059  1.5622
 1377SOL    MW4 5555   3.378   0.775   2.378  0.3078 -0.4447  0.2160
 1378SOL     OW 5556   3.134   0.821   2.241 -0.2667 -0.4021  0.0971
 1378SOL    HW2 5557   3.214   0.809   2.291  0.0355  2.0249  0.2731
 1378SOL    HW3 5558   3.066   0.780   2.293  0.5605 -0.7791  0.8880
 1378SOL    MW4 5559   3.136   0.814   2.254 -0.1178 -0.1317  0.2248
 1379SOL     OW 5560   3.121   1.088   2.322  0.0849  0.4094 -0.5195
 1379SOL    HW2 5561   3.200   1.134   2.295  0.6407 -0.0129  0.3568
 1379SOL    HW3 5562   3.128   1.001   2.281  0.2982  0.2148 -0.0701
 1379SOL    MW4 5563   3.133   1.082   2.313  0.1862  0.3279 -0.3443
 1380SOL     OW 5564   3.333   1.262   2.267 -0.3320  0.3522  0.6168
 1380SOL    HW2 5565   3.417   1.238   2.307  0.6089  0.6739 -1.0922
 1380SOL    HW3 5566   3.321   1.354   2.290  0.8171  0.8847 -0.8250
 1380SOL    MW4 5567   3.343   1.271   2.275 -0.0563  0.4648  0.2012
 1381SOL     OW 5568   3.359   1.534   2.334 -0.0686 -0.3324  0.5751
 1381SOL    HW2 5569   3.366   1.538   2.429  0.6661  1.2055  0.4759
 1381SOL    HW3 5570   3.290   1.598   2.313  0.3776 -0.0362  0.0092
 1381SOL    MW4 5571   3.351   1.543   2.344  0.0873 -0.0905  0.4873
 1382SOL     OW 5572   3.125   1.683   2.255  0.2104 -0.1304  0.2095
 1382SOL    HW2 5573   3.115   1.767   2.299  1.4128 -0.1608  0.5589
 1382SOL    HW3 5574   3.069   1.623   2.304 -0.0609  0.2981  0.4236
 1382SOL    MW4 5575   3.116   1.686   2.267  0.3331 -0.0778  0.2837
 1383SOL     OW 5576   3.093   1.927   2.367  0.3155 -0.3570 -0.2348
 1383SOL    HW2 5577   3.101   1.914   2.462  1.0587  0.8666 -0.1133
 1383SOL    HW3 5578   3.168   1.982   2.345 -1.3315  1.5864 -1.1001
 1383SOL    MW4 5579   3.104   1.933   2.377  0.1967  0.0609 -0.3331
 1384SOL     OW 5580   3.324   2.064   2.260  0.5546 -0.2196  0.3326
 1384SOL    HW2 5581   3.401   2.039   2.310  0.8885  0.9252  0.4142
 1384SOL    HW3 5582   3.356   2.073   2.170  0.4856  0.0751  0.3350
 1384SOL    MW4 5583   3.338   2.062   2.255  0.5896 -0.0296  0.3440
 1385SOL     OW 5584   3.354   2.325   2.346 -0.2762  0.1629  0.1106
 1385SOL    HW2 5585   3.287   2.371   2.295  1.0854  0.8721 -1.0836
 1385SOL    HW3 5586   3.342   2.233   2.325 -1.5045  0.1913  0.6699
 1385SOL    MW4 5587   3.344   2.319   2.337 -0.2587  0.2601  0.0269
 1386SOL     OW 5588   3.123   2.458   2.224  0.2019  0.1608 -0.5234
 1386SOL    HW2 5589   3.142   2.542   2.266  0.3520  0.5410 -1.3408
 1386SOL    HW3 5590   3.052   2.421   2.277 -0.9838  1.5422 -1.1175
 1386SOL    MW4 5591   3.116   2.464   2.237  0.0653  0.3929 -0.7100
 1387SOL     OW 5592   3.130   2.722   2.348  0.2649 -0.2209 -0.5448
 1387SOL    HW2 5593   3.129   2.728   2.444  1.0424 -0.9091 -0.4897
 1387SOL    HW3 5594   3.052   2.769   2.320 -1.6254 -2.5591  0.5845
 1387SOL    MW4 5595   3.119   2.729   2.357  0.1180 -0.6201 -0.3884
 1388SOL     OW 5596   3.381   2.817   2.303  0.2567  0.1481  0.8999
 1388SOL    HW2 5597   3.369   2.907   2.331  1.4747  0.9229 -0.9596
 1388SOL    HW3 5598   3.295   2.777   2.310 -0.1388  1.2552  2.4282
 1388SOL    MW4 5599   3.368   2.823   2.307  0.3650  0.3965  0.8559
 1389SOL     OW 5600   3.349   3.077   2.418  0.1808  0.2370  0.4643
 1389SOL    HW2 5601   3.411   3.131   2.371  1.2388 -0.6073  0.8711
 1389SOL    HW3 5602   3.264   3.117   2.401  0.6547  0.4938 -1.3676
 1389SOL    MW4 5603   3.346   3.089   2.410  0.3829  0.1595  0.2759
 1390SOL     OW 5604   3.114   3.208   2.283  0.0054 -0.1929  0.1699
 1390SOL    HW2 5605   3.111   3.300   2.308 -0.7107 -0.2093  0.1524
 1390SOL    HW3 5606   3.124   3.209   2.188 -4.2624 -0.0856 -0.4019
 1390SOL    MW4 5607   3.115   3.220   2.274 -0.6523 -0.1810  0.0923
 1391SOL     OW 5608   3.138   3.453   2.387 -0.1545  0.0717 -0.5229
 1391SOL    HW2 5609   3.142   3.473   2.481 -1.0191 -0.3415 -0.3934
 1391SOL    HW3 5610   3.218   3.491   2.351  0.4671 -0.2768  0.4751
 1391SOL    MW4 5611   3.149   3.461   2.395 -0.1867 -0.0286 -0.3738
 1392SOL     OW 5612   3.362   3.592   2.261 -0.1171 -0.3470  0.3450
 1392SOL    HW2 5613   3.447   3.560   2.292  0.0858 -0.4035 -0.2510
 1392SOL    HW3 5614   3.375   3.605   2.167 -0.6270  0.1059  0.3340
 1392SOL    MW4 5615   3.375   3.590   2.253 -0.1576 -0.2947  0.2649
 1393SOL     OW 5616   3.351   3.854   2.375  0.2193  0.1224 -0.0421
 1393SOL    HW2 5617   3.429   3.901   2.347 -0.0668  0.4653 -0.2632
 1393SOL    HW3 5618   3.359   3.768   2.333  0.7322 -0.0236  0.3477
 1393SOL    MW4 5619   3.362   3.849   2.366  0.2494  0.1485 -0.0198
 1394SOL     OW 5620   3.149   3.991   2.283 -0.6400  0.4337  0.1019
 1394SOL    HW2 5621   3.221   3.940   2.320 -1.6048 -1.3633 -0.3776
 1394SOL    HW3 5622   3.070   3.946   2.314 -1.5096  1.1424 -1.0407
 1394SOL    MW4 5623   3.148   3.978   2.292 -0.8819  0.2899 -0.1123
 1395SOL     OW 5624   3.151   4.252   2.382  0.0662 -0.0830 -0.2534
 1395SOL    HW2 5625   3.228   4.297   2.349 -0.1425 -0.3372 -1.0908
 1395SOL    HW3 5626   3.154   4.166   2.341 -0.0559 -0.5008  0.5927
 1395SOL    MW4 5627   3.161   4.247   2.372  0.0226 -0.1721 -0.2522
 1396SOL     OW 5628   3.388   4.367   2.290 -0.1345 -0.1679  0.0677
 1396SOL    HW2 5629   3.350   4.447   2.325  0.3995 -0.2662  0.8830
 1396SOL    HW3 5630   3.392   4.382   2.196 -1.7803  0.0114  0.0209
 1396SOL    MW4 5631   3.384   4.380   2.282 -0.2811 -0.1569  0.1693
 1397SOL     OW 5632   3.837   4.631   2.371  0.0252  0.1993  0.0186
 1397SOL    HW2 5633   3.838   4.645   2.465 -0.3452  0.7960 -0.0611
 1397SOL    HW3 5634   3.915   4.676   2.339 -0.2508  0.6395 -0.0425
 1397SOL    MW4 5635   3.847   4.639   2.379 -0.0601  0.3357  0.0002
 1398SOL     OW 5636   3.579   0.090   2.318  0.6056  0.3733  0.3851
 1398SOL    HW2 5637   3.596   0.180   2.344  0.1878  0.4503  0.3971
 1398SOL    HW3 5638   3.663   0.046   2.329  0.9265  0.8667 -0.0771
 1398SOL    MW4 5639   3.592   0.096   2.323  0.5922  0.4486  0.3262
 1399SOL     OW 5640   3.592   0.363   2.385 -0.2204  0.7815  0.0183
 1399SOL    HW2 5641   3.613   0.378   2.477  0.0790 -0.6193  0.1912
 1399SOL    HW3 5642   3.666   0.400   2.337  1.1609 -1.2734  0.4924
 1399SOL    MW4 5643   3.604   0.370   2.391  0.0017  0.3256  0.1035
 1400SOL     OW 5644   3.831   0.525   2.282 -0.0964 -0.1348  0.1681
 1400SOL    HW2 5645   3.836   0.616   2.309  0.5041 -0.6118  1.7011
 1400SOL    HW3 5646   3.828   0.529   2.186  0.0266  1.4773  0.2168
 1400SOL    MW4 5647   3.831   0.537   2.273 -0.0010  0.0150  0.3767
 1401SOL     OW 5648   3.824   0.783   2.379  0.1253 -0.0447  0.1016
 1401SOL    HW2 5649   3.835   0.797   2.473  0.9007  0.2284 -0.0276
 1401SOL    HW3 5650   3.907   0.811   2.341 -0.5609  0.8553 -0.7697
 1401SOL    MW4 5651   3.836   0.789   2.386  0.1371  0.1101 -0.0303
 1402SOL     OW 5652   3.607   0.930   2.319  0.3380  0.1015  0.2931
 1402SOL    HW2 5653   3.681   0.876   2.348 -0.6101 -0.3010  2.0700
 1402SOL    HW3 5654   3.592   0.904   2.228  1.1296 -1.2441  0.5307
 1402SOL    MW4 5655   3.615   0.919   2.311  0.3173 -0.1292  0.5589
 1403SOL     OW 5656   3.602   1.203   2.355 -0.2610 -0.0953 -0.2031
 1403SOL    HW2 5657   3.604   1.201   2.450 -0.9567  0.6320 -0.1659
 1403SOL    HW3 5658   3.603   1.111   2.328  1.6673 -0.2785  0.4534
 1403SOL    MW4 5659   3.602   1.190   2.364 -0.0985 -0.0236 -0.1116
 1404SOL     OW 5660   3.827   1.322   2.270  0.2062 -0.2528 -0.0792
 1404SOL    HW2 5661   3.825   1.406   2.316  1.0053 -0.6422  0.6628
 1404SOL    HW3 5662   3.758   1.270   2.312 -0.2954  0.0370 -0.5459
 1404SOL    MW4 5663   3.817   1.326   2.282  0.2453 -0.2658 -0.0429
 1405SOL     OW 5664   3.846   1.590   2.375  0.3764 -0.2917  0.0052
 1405SOL    HW2 5665   3.840   1.571   2.468 -0.4017  0.1056  0.0362
 1405SOL    HW3 5666   3.763   1.632   2.353  0.6330 -0.2031 -0.8242
 1405SOL    MW4 5667   3.834   1.593   2.384  0.3078 -0.2276 -0.1001
 1406SOL     OW 5668   3.597   1.688   2.274  0.6956  0.6616 -0.1552
 1406SOL    HW2 5669   3.542   1.612   2.294  1.9219 -0.2260 -0.1000
 1406SOL    HW3 5670   3.596   1.693   2.178 -1.3320  2.0562 -0.1026
 1406SOL    MW4 5671   3.589   1.679   2.264  0.5901  0.7286 -0.1409
 1407SOL     OW 5672   3.557   1.960   2.373  0.0855  0.1584  0.0398
 1407SOL    HW2 5673   3.636   2.006   2.346 -0.6122  1.4372  0.1212
 1407SOL    HW3 5674   3.569   1.871   2.342  2.2530 -0.0718  1.4303
 1407SOL    MW4 5675   3.569   1.954   2.365  0.2794  0.2968  0.2341
 1408SOL     OW 5676   3.816   2.050   2.270  0.3748  0.1412  0.1273
 1408SOL    HW2 5677   3.897   2.034   2.318  0.2000 -1.6892 -0.1300
 1408SOL    HW3 5678   3.841   2.041   2.178  0.5393  2.8261 -0.1112
 1408SOL    MW4 5679   3.830   2.047   2.264  0.3734  0.2539  0.0620
 1409SOL     OW 5680   3.805   2.320   2.372  0.2270 -0.3627 -0.4646
 1409SOL    HW2 5681   3.724   2.365   2.347  0.3763 -0.5665 -1.3015
 1409SOL    HW3 5682   3.800   2.236   2.328  0.8448 -0.4233 -0.4159
 1409SOL    MW4 5683   3.793   2.315   2.363  0.3281 -0.3974 -0.5684
 1410SOL     OW 5684   3.583   2.460   2.263 -0.4249  0.1663  0.2190
 1410SOL    HW2 5685   3.501   2.416   2.287 -1.5879  2.9140  1.6284
 1410SOL    HW3 5686   3.584   2.460   2.168 -1.9064 -0.2365  0.1907
 1410SOL    MW4 5687   3.572   2.455   2.254 -0.7741  0.4759  0.4010
 1411SOL     OW 5688   3.606   2.709   2.397  0.1875 -0.1458  0.1612
 1411SOL    HW2 5689   3.594   2.621   2.362 -0.2273 -0.7978  1.8871
 1411SOL    HW3 5690   3.527   2.757   2.371  0.9927  0.1015 -1.8788
 1411SOL    MW4 5691   3.594   2.704   2.389  0.2389 -0.1991  0.1199
 1412SOL     OW 5692   3.846   2.829   2.303  0.1530  0.3938 -0.3227
 1412SOL    HW2 5693   3.833   2.918   2.335 -0.6586  0.2555 -0.2556
 1412SOL    HW3 5694   3.769   2.781   2.333 -0.3043  0.0964 -1.9247
 1412SOL    MW4 5695   3.834   2.834   2.311 -0.0148  0.3362 -0.5252
 1413SOL     OW 5696   3.823   3.109   2.366 -0.4136 -0.2706 -0.0045
 1413SOL    HW2 5697   3.811   3.126   2.459  0.4756  0.2279  0.0240
 1413SOL    HW3 5698   3.884   3.176   2.336  0.0924 -1.0365 -0.7305
 1413SOL    MW4 5699   3.829   3.120   2.374 -0.2296 -0.3059 -0.0966
 1414SOL     OW 5700   3.557   3.177   2.275 -0.4581 -0.2324 -0.0020
 1414SOL    HW2 5701   3.558   3.271   2.290 -0.7785 -0.3339  0.6591
 1414SOL    HW3 5702   3.641   3.146   2.308 -0.9716 -0.3894  1.1848
 1414SOL    MW4 5703   3.568   3.185   2.281 -0.5684 -0.2666  0.2420
 1415SOL     OW 5704   3.580   3.442   2.366  0.3696 -0.0472 -0.1275
 1415SOL    HW2 5705   3.583   3.464   2.459 -0.8346 -0.3352 -0.0146
 1415SOL    HW3 5706   3.660   3.480   2.330  0.7738  0.1955  0.9930
 1415SOL    MW4 5707   3.591   3.450   2.374  0.2639 -0.0529  0.0353
 1416SOL     OW 5708   3.799   3.596   2.274 -0.2604 -0.7719 -0.3149
 1416SOL    HW2 5709   3.793   3.681   2.316 -1.8135 -1.0322 -0.0031
 1416SOL    HW3 5710   3.817   3.616   2.182 -0.9687 -0.0969 -0.3124
 1416SOL    MW4 5711   3.801   3.610   2.267 -0.5586 -0.7172 -0.2737
 1417SOL     OW 5712   3.805   3.847   2.396  0.4177  0.2597 -0.6812
 1417SOL    HW2 5713   3.791   3.842   2.491  0.5536  1.7001 -0.5768
 1417SOL    HW3 5714   3.892   3.885   2.387  1.2425 -1.7784 -1.3804
 1417SOL    MW4 5715   3.815   3.852   2.407  0.5443  0.1807 -0.7596
 1418SOL     OW 5716   3.583   3.987   2.296 -0.1797  0.5251 -0.3374
 1418SOL    HW2 5717   3.601   4.065   2.348  2.1907 -0.1358 -0.1035
 1418SOL    HW3 5718   3.659   3.930   2.311 -1.1232 -1.1593 -1.7398
 1418SOL    MW4 5719   3.596   3.990   2.305  0.0086  0.2155 -0.4916
 1419SOL     OW 5720   3.602   4.230   2.430  0.0807  0.3042 -0.2689
 1419SOL    HW2 5721   3.674   4.267   2.378  0.7683 -1.3128 -0.5325
 1419SOL    HW3 5722   3.523   4.267   2.392  0.7019  0.7735 -1.1224
 1419SOL    MW4 5723   3.601   4.239   2.418  0.2534  0.1526 -0.4160
 1420SOL     OW 5724   3.806   4.353   2.297 -0.2374  0.1035 -0.2090
 1420SOL    HW2 5725   3.879   4.310   2.341 -0.7935 -1.5178 -0.8206
 1420SOL    HW3 5726   3.805   4.442   2.333  2.6016  0.4653 -0.8758
 1420SOL    MW4 5727   3.816   4.359   2.307  0.0637 -0.0625 -0.3774
 1421SOL     OW 5728   4.255   4.627   2.383  0.3874  0.5915 -0.5758
 1421SOL    HW2 5729   4.246   4.637   2.477  0.9121  0.0777 -0.4669
 1421SOL    HW3 5730   4.323   4.690   2.358  0.2626  0.7130 -0.6080
 1421SOL    MW4 5731   4.263   4.637   2.392  0.4396  0.5398 -0.5658
 1422SOL     OW 5732   4.044   0.118   2.283 -0.1227  0.0820  0.1445
 1422SOL    HW2 5733   4.052   0.204   2.324  0.2509  0.1822 -0.1423
 1422SOL    HW3 5734   4.111   0.065   2.326  1.2522  0.5744 -1.3405
 1422SOL    MW4 5735   4.054   0.123   2.294  0.1078  0.1602 -0.0894
 1423SOL     OW 5736   4.053   0.388   2.379  0.3814 -0.1810  0.0639
 1423SOL    HW2 5737   4.125   0.422   2.325  0.8421 -1.1715  0.0426
 1423SOL    HW3 5738   3.974   0.416   2.333  0.7672 -0.2055 -0.6227
 1423SOL    MW4 5739   4.052   0.396   2.365  0.4930 -0.3149 -0.0296
 1424SOL     OW 5740   4.267   0.510   2.238 -0.1915  0.1359  0.4485
 1424SOL    HW2 5741   4.266   0.592   2.288 -0.9713 -0.8561  2.1202
 1424SOL    HW3 5742   4.322   0.451   2.289  0.5883 -0.3234 -0.8853
 1424SOL    MW4 5743   4.274   0.513   2.251 -0.1917 -0.0555  0.4933
 1425SOL     OW 5744   4.260   0.767   2.376  0.7120  0.0415 -0.0504
 1425SOL    HW2 5745   4.188   0.813   2.332  1.2857  1.5851  0.5845
 1425SOL    HW3 5746   4.338   0.815   2.348  1.8736 -3.5402 -3.2855
 1425SOL    MW4 5747   4.261   0.780   2.366  0.9408 -0.2274 -0.3936
 1426SOL     OW 5748   4.047   0.884   2.265  0.0314  0.0063 -0.0977
 1426SOL    HW2 5749   4.045   0.977   2.291 -1.1450 -0.2503  0.7972
 1426SOL    HW3 5750   4.055   0.886   2.170  0.6546  1.0254 -0.0352
 1426SOL    MW4 5751   4.048   0.897   2.256 -0.0415  0.1069  0.0286
 1427SOL     OW 5752   4.019   1.147   2.368  0.2531  0.3600 -0.3934
 1427SOL    HW2 5753   4.000   1.159   2.461 -0.4302  0.1965 -0.5115
 1427SOL    HW3 5754   3.958   1.206   2.323  0.1549 -0.0222 -0.7652
 1427SOL    MW4 5755   4.008   1.157   2.374  0.1502  0.2880 -0.4582
 1428SOL     OW 5756   4.258   1.222   2.255 -0.2334 -0.1309  0.0926
 1428SOL    HW2 5757   4.183   1.197   2.310 -0.0380 -0.7114  0.0963
 1428SOL    HW3 5758   4.333   1.179   2.296  0.1110  0.4593  0.0940
 1428SOL    MW4 5759   4.258   1.213   2.268 -0.1621 -0.1296  0.0930
 1429SOL     OW 5760   4.246   1.493   2.329 -0.3953 -0.2334  0.1472
 1429SOL    HW2 5761   4.260   1.401   2.310 -0.2245 -0.3386  0.7760
 1429SOL    HW3 5762   4.328   1.536   2.304 -1.0308 -0.0164 -1.6428
 1429SOL    MW4 5763   4.258   1.487   2.323 -0.4568 -0.2185 -0.0062
 1430SOL     OW 5764   4.068   1.694   2.255  0.1380  0.0249  0.2664
 1430SOL    HW2 5765   4.132   1.631   2.286 -0.6956 -2.8242 -3.3761
 1430SOL    HW3 5766   3.984   1.659   2.284 -0.2669 -0.1349 -1.0440
 1430SOL    MW4 5767   4.065   1.681   2.263 -0.0253 -0.3722 -0.3867
 1431SOL     OW 5768   4.065   1.945   2.353 -0.1816 -0.1704 -0.3096
 1431SOL    HW2 5769   4.082   1.961   2.446 -1.4247 -0.5830 -0.0003
 1431SOL    HW3 5770   4.087   1.852   2.340 -0.2833 -0.1873 -0.3608
 1431SOL    MW4 5771   4.070   1.935   2.363 -0.3591 -0.2269 -0.2756
 1432SOL     OW 5772   4.263   2.074   2.203  0.4920  0.0826  0.0121
 1432SOL    HW2 5773   4.284   2.138   2.271  0.0218  0.5974 -0.3237
 1432SOL    HW3 5774   4.184   2.031   2.234  0.7602 -0.2817  0.1969
 1432SOL    MW4 5775   4.256   2.077   2.216  0.4659  0.1025 -0.0076
 1433SOL     OW 5776   4.280   2.291   2.373  0.1792  0.0320  0.2079
 1433SOL    HW2 5777   4.198   2.320   2.334  0.0251 -1.3326 -0.5251
 1433SOL    HW3 5778   4.346   2.352   2.341  0.0509 -1.0462 -2.2079
 1433SOL    MW4 5779   4.278   2.303   2.364  0.1421 -0.2902 -0.2074
 1434SOL     OW 5780   4.047   2.409   2.274 -0.3769 -0.3111  0.2797
 1434SOL    HW2 5781   4.071   2.496   2.306 -1.0010  0.0432 -0.2171
 1434SOL    HW3 5782   3.968   2.387   2.322  0.9742 -1.5408  2.0168
 1434SOL    MW4 5783   4.040   2.417   2.285 -0.2813 -0.4263  0.4435
 1435SOL     OW 5784   4.068   2.683   2.362 -0.1517  0.3371 -0.0427
 1435SOL    HW2 5785   4.072   2.699   2.456  1.5330  1.2532 -0.2344
 1435SOL    HW3 5786   3.989   2.729   2.333  0.2112  1.4471  0.6838
 1435SOL    MW4 5787   4.058   2.691   2.370  0.1178  0.6044  0.0277
 1436SOL     OW 5788   4.305   2.814   2.296  0.3447 -0.4290  0.0877
 1436SOL    HW2 5789   4.225   2.762   2.303  1.2611 -2.0979 -1.3863
 1436SOL    HW3 5790   4.372   2.758   2.335  0.7744  1.0622  1.5499
 1436SOL    MW4 5791   4.303   2.799   2.302  0.5226 -0.4525  0.0861
 1437SOL     OW 5792   4.264   3.086   2.383 -0.0585 -0.4529 -0.2779
 1437SOL    HW2 5793   4.267   2.992   2.365  0.2294 -0.4922 -0.0197
 1437SOL    HW3 5794   4.341   3.122   2.339  0.1188 -0.4124  0.0658
 1437SOL    MW4 5795   4.274   3.078   2.375  0.0033 -0.4525 -0.1984
 1438SOL     OW 5796   4.089   3.254   2.263  0.1554 -0.6551  0.1386
 1438SOL    HW2 5797   4.085   3.334   2.315 -0.8086 -0.1322 -0.7162
 1438SOL    HW3 5798   4.148   3.197   2.312 -0.5724 -0.1092  1.7150
 1438SOL    MW4 5799   4.096   3.257   2.277 -0.0677 -0.5143  0.2339
 1439SOL     OW 5800   4.054   3.494   2.393  0.2171 -0.0967  0.1141
 1439SOL    HW2 5801   4.135   3.539   2.368  1.4355 -1.9698  0.5353
 1439SOL    HW3 5802   3.986   3.535   2.341  1.2386  2.3559  0.6350
 1439SOL    MW4 5803   4.056   3.506   2.383  0.5126 -0.0203  0.2384
 1440SOL     OW 5804   4.302   3.594   2.259 -0.5537 -0.0793 -0.1355
 1440SOL    HW2 5805   4.303   3.684   2.290  1.1029 -0.4700  1.0346
 1440SOL    HW3 5806   4.295   3.601   2.164  0.1529  1.3100 -0.0984
 1440SOL    MW4 5807   4.301   3.607   2.251 -0.2422  0.0522  0.0241
 1441SOL     OW 5808   4.295   3.852   2.352  0.0007  0.3100 -0.1670
 1441SOL    HW2 5809   4.301   3.858   2.448  1.2012  1.2362 -0.2864
 1441SOL    HW3 5810   4.364   3.910   2.320  0.0917 -0.5678 -1.6023
 1441SOL    MW4 5811   4.305   3.860   2.361  0.1707  0.3164 -0.3724
 1442SOL     OW 5812   4.042   3.978   2.272 -0.7282 -0.2026  0.1325
 1442SOL    HW2 5813   4.124   3.936   2.299 -1.0683 -0.8263  0.2068
 1442SOL    HW3 5814   4.049   3.984   2.176 -0.7448 -0.5923  0.1026
 1442SOL    MW4 5815   4.054   3.973   2.263 -0.7753 -0.3364  0.1385
 1443SOL     OW 5816   4.042   4.231   2.403 -0.3174  0.0592 -0.1911
 1443SOL    HW2 5817   4.118   4.281   2.373 -0.4280  0.8080  0.7295
 1443SOL    HW3 5818   4.050   4.146   2.360  2.6904 -0.9602  2.2047
 1443SOL    MW4 5819   4.053   4.227   2.393  0.0648  0.0229  0.2465
 1444SOL     OW 5820   4.256   4.360   2.298  0.3539  0.0976  0.2337
 1444SOL    HW2 5821   4.252   4.451   2.326 -0.7975  0.0306  0.3070
 1444SOL    HW3 5822   4.333   4.325   2.343  0.2674  0.7930  0.9410
 1444SOL    MW4 5823   4.266   4.367   2.308  0.1907  0.1807  0.3366
 1445SOL     OW 5824   0.226   4.633   2.685  0.0873  0.2970  0.1822
 1445SOL    HW2 5825   0.229   4.545   2.723  0.4713 -0.1909 -0.9371
 1445SOL    HW3 5826   0.138   4.665   2.704 -0.4804 -0.8396 -0.5071
 1445SOL    MW4 5827   0.215   4.626   2.692  0.0630  0.0825 -0.0567
 1446SOL     OW 5828   4.475   0.071   2.768  0.2875  0.0045  0.1787
 1446SOL    HW2 5829   4.505   0.076   2.858 -0.8267  0.1424  0.5474
 1446SOL    HW3 5830   4.470   0.162   2.739 -1.0689  0.0511  0.5535
 1446SOL    MW4 5831   4.479   0.084   2.776 -0.0381  0.0289  0.2768
 1447SOL     OW 5832   4.484   0.345   2.719  0.3284  0.1651 -0.1855
 1447SOL    HW2 5833   4.566   0.395   2.722 -0.0689  0.8598 -0.6112
 1447SOL    HW3 5834   4.464   0.339   2.626 -0.7892  1.1365 -0.0123
 1447SOL    MW4 5835   4.492   0.351   2.707  0.1287  0.3849 -0.2189
 1448SOL     OW 5836   0.250   0.475   2.754  0.4100  0.0630 -0.2499
 1448SOL    HW2 5837   0.254   0.488   2.849  0.3756  2.1802 -0.5219
 1448SOL    HW3 5838   0.332   0.432   2.733 -0.9544 -3.3974  1.1516
 1448SOL    MW4 5839   0.261   0.471   2.764  0.2255 -0.1142 -0.1011
 1449SOL     OW 5840   0.240   0.724   2.648 -0.0285  0.0891 -0.0924
 1449SOL    HW2 5841   0.325   0.757   2.678  0.2835 -0.3171 -0.5216
 1449SOL    HW3 5842   0.240   0.632   2.673 -0.7299  0.3086  0.7401
 1449SOL    MW4 5843   0.251   0.716   2.655 -0.0799  0.0644 -0.0393
 1450SOL     OW 5844   4.473   0.941   2.739  0.0797  0.5006 -0.2388
 1450SOL    HW2 5845   4.390   0.907   2.704  0.1156 -1.1599  1.2106
 1450SOL    HW3 5846   4.537   0.874   2.718  0.7404  1.0124  0.1160
 1450SOL    MW4 5847   4.470   0.928   2.731  0.1717  0.3490 -0.0005
 1451SOL     OW 5848   0.013   1.195   2.636  0.2364  0.4643 -0.2051
 1451SOL    HW2 5849   0.100   1.217   2.669 -0.4778  1.2357  1.2117
 1451SOL    HW3 5850  -0.004   1.107   2.670  0.1181  0.6511  0.2178
 1451SOL    MW4 5851   0.022   1.186   2.645  0.1265  0.5906  0.0377
 1452SOL     OW 5852   0.268   1.227   2.745 -0.1076  0.5840  0.0202
 1452SOL    HW2 5853   0.356   1.196   2.724  0.3870  1.3070  1.0021
 1452SOL    HW3 5854   0.262   1.313   2.704 -0.6223  0.2161 -0.6765
 1452SOL    MW4 5855   0.279   1.234   2.737 -0.1103  0.6310  0.0579
 1453SOL     OW 5856   0.204   1.474   2.646 -0.3712  0.0631  0.1825
 1453SOL    HW2 5857   0.280   1.520   2.681 -0.8465 -0.3004  1.7579
 1453SOL    HW3 5858   0.131   1.535   2.659 -0.5657 -0.0908 -0.1616
 1453SOL    MW4 5859   0.204   1.488   2.652 -0.4596 -0.0052  0.3450
 1454SOL     OW 5860   0.000   1.645   2.669 -0.0131  0.1889 -0.0025
 1454SOL    HW2 5861  -0.024   1.638   2.761  0.9868  0.3108  0.2813
 1454SOL    HW3 5862   0.009   1.740   2.654 -0.7997  0.1998 -0.3885
 1454SOL    MW4 5863  -0.002   1.657   2.679  0.0150  0.2065 -0.0157
 1455SOL     OW 5864   4.485   1.941   2.592 -0.0706  0.1467 -0.0988
 1455SOL    HW2 5865   4.561   1.981   2.634  1.9906 -3.1229 -0.5116
 1455SOL    HW3 5866   4.494   1.963   2.500  1.2683 -1.5441 -0.3843
 1455SOL    MW4 5867   4.496   1.949   2.586  0.3780 -0.5078 -0.1910
 1456SOL     OW 5868   0.198   2.058   2.761  0.1966  0.4690 -0.0536
 1456SOL    HW2 5869   0.277   2.023   2.719 -0.3685 -0.7944 -0.0869
 1456SOL    HW3 5870   0.192   2.148   2.730  0.9571  0.1927 -1.0264
 1456SOL    MW4 5871   0.208   2.065   2.751  0.2223  0.2658 -0.1864
 1457SOL     OW 5872   0.216   2.320   2.663 -0.4799 -0.0160  0.3073
 1457SOL    HW2 5873   0.297   2.363   2.691 -0.4189 -0.7929  1.3780
 1457SOL    HW3 5874   0.148   2.385   2.680 -0.1836  0.3202  0.2197
 1457SOL    MW4 5875   0.218   2.334   2.669 -0.4328 -0.0741  0.4368
 1458SOL     OW 5876   4.488   2.445   2.764  0.0849 -0.6596  0.0627
 1458SOL    HW2 5877   4.471   2.459   2.857  1.0675 -1.8411  0.4375
 1458SOL    HW3 5878   4.414   2.393   2.734  0.7504 -1.9658  0.6516
 1458SOL    MW4 5879   4.476   2.440   2.772  0.3024 -0.9878  0.1898
 1459SOL     OW 5880   0.029   2.697   2.646 -0.3972  0.1116 -0.1474
 1459SOL    HW2 5881  -0.039   2.748   2.689 -1.4553  0.3431 -2.0559
 1459SOL    HW3 5882   0.022   2.610   2.686 -0.2454  0.7529  1.3168
 1459SOL    MW4 5883   0.019   2.692   2.657 -0.5168  0.2267 -0.2062
 1460SOL     OW 5884   0.248   2.832   2.751 -0.4918  0.6650 -0.0182
 1460SOL    HW2 5885   0.239   2.920   2.714 -1.6242 -0.4616 -2.5418
 1460SOL    HW3 5886   0.175   2.782   2.713  0.1657 -1.3842  1.3144
 1460SOL    MW4 5887   0.237   2.837   2.741 -0.5545  0.2460 -0.1757
 1461SOL     OW 5888   0.229   3.100   2.664  0.0223 -0.1267  0.3799
 1461SOL    HW2 5889   0.311   3.131   2.701 -0.5895  1.6378  0.2670
 1461SOL    HW3 5890   0.247   3.089   2.571  0.0900  0.3843  0.3337
 1461SOL    MW4 5891   0.242   3.102   2.657 -0.0495  0.1738  0.3591
 1462SOL     OW 5892   0.013   3.234   2.768 -0.4745 -0.4954  0.2030
 1462SOL    HW2 5893  -0.062   3.195   2.724 -1.0505 -0.3803  1.0686
 1462SOL    HW3 5894   0.089   3.186   2.733 -1.0807 -1.6854  0.4844
 1462SOL    MW4 5895   0.013   3.223   2.758 -0.6305 -0.6373  0.3543
 1463SOL     OW 5896   0.006   3.498   2.679 -0.3176 -0.0354  0.0425
 1463SOL    HW2 5897   0.074   3.554   2.716 -0.3390  0.6153 -0.8933
 1463SOL    HW3 5898   0.010   3.417   2.730  0.7634  0.2242  0.3605
 1463SOL    MW4 5899   0.015   3.495   2.691 -0.1783  0.0846 -0.0391
 1464SOL     OW 5900   0.205   3.634   2.795  0.2712 -0.0903  0.0927
 1464SOL    HW2 5901   0.201   3.637   2.890 -1.1791 -1.1176  0.0797
 1464SOL    HW3 5902   0.292   3.599   2.775  0.7525  0.5732  1.0184
 1464SOL    MW4 5903   0.216   3.630   2.805  0.1433 -0.1385  0.2131
 1465SOL     OW 5904   0.190   3.867   2.666  0.4304  0.3717 -0.1916
 1465SOL    HW2 5905   0.204   3.788   2.718 -0.5577 -0.3820 -1.0683
 1465SOL    HW3 5906   0.197   3.838   2.575 -1.4470  0.9830 -0.5520
 1465SOL    MW4 5907   0.193   3.853   2.661  0.0523  0.3529 -0.3548
 1466SOL     OW 5908   4.470   3.992   2.812 -0.3935  0.0908 -0.4015
 1466SOL    HW2 5909   4.464   4.083   2.783  1.7357  0.8855  1.4832
 1466SOL    HW3 5910   4.552   3.960   2.774 -0.6119 -0.7234 -0.2015
 1466SOL    MW4 5911   4.480   4.000   2.803 -0.1416  0.0882 -0.1266
 1467SOL     OW 5912   0.012   4.265   2.695 -0.0909  0.0703 -0.7151
 1467SOL    HW2 5913  -0.067   4.315   2.714  0.6048  1.3999 -1.2752
 1467SOL    HW3 5914   0.084   4.321   2.725  0.6909 -0.7081 -1.1075
 1467SOL    MW4 5915   0.011   4.279   2.702  0.1041  0.1431 -0.8407
 1468SOL     OW 5916   0.231   4.371   2.792  0.0130 -0.1997  0.2364
 1468SOL    HW2 5917   0.235   4.345   2.884  0.0374 -2.7167 -0.4314
 1468SOL    HW3 5918   0.299   4.318   2.749  1.0552  2.0420 -1.0127
 1468SOL    MW4 5919   0.241   4.361   2.798  0.1537 -0.2356 -0.0167
 1469SOL     OW 5920   0.681   4.619   2.690  0.0869  0.4620  0.0907
 1469SOL    HW2 5921   0.760   4.671   2.708  0.6533 -0.5753  0.6667
 1469SOL    HW3 5922   0.610   4.671   2.727  0.6049  0.9866  0.3638
 1469SOL    MW4 5923   0.682   4.633   2.697  0.2300  0.3943  0.2029
 1470SOL     OW 5924   0.455   0.110   2.775 -0.3393 -0.0437  0.1504
 1470SOL    HW2 5925   0.464   0.091   2.868  0.5363  0.5753  0.1895
 1470SOL    HW3 5926   0.377   0.061   2.749 -1.6335  1.1681  1.5941
 1470SOL    MW4 5927   0.446   0.101   2.784 -0.3945  0.1979  0.3462
 1471SOL     OW 5928   0.481   0.349   2.661 -0.0092 -0.9220 -0.1412
 1471SOL    HW2 5929   0.552   0.399   2.703 -0.7635  0.5638 -0.6090
 1471SOL    HW3 5930   0.472   0.271   2.715  0.4358 -0.0223  1.2731
 1471SOL    MW4 5931   0.489   0.346   2.673 -0.0500 -0.6073 -0.0162
 1472SOL     OW 5932   0.687   0.489   2.792  0.0339 -0.1440 -0.0919
 1472SOL    HW2 5933   0.700   0.493   2.886  0.4989 -1.6546 -0.0827
 1472SOL    HW3 5934   0.765   0.446   2.758  0.4386  1.4999 -1.3142
 1472SOL    MW4 5935   0.699   0.484   2.800  0.1487 -0.1264 -0.2520
 1473SOL     OW 5936   0.712   0.715   2.635  0.0665  0.2250 -0.0881
 1473SOL    HW2 5937   0.789   0.763   2.666  1.5429 -0.4103 -2.6396
 1473SOL    HW3 5938   0.715   0.632   2.681  0.4078  0.5574  0.4933
 1473SOL    MW4 5939   0.722   0.710   2.645  0.3062  0.1851 -0.3479
 1474SOL     OW 5940   0.480   0.806   2.748 -0.2000 -0.0619 -0.0206
 1474SOL    HW2 5941   0.479   0.897   2.719  0.9371 -0.5557 -1.6434
 1474SOL    HW3 5942   0.558   0.768   2.708 -0.7970 -1.8287  0.4314
 1474SOL    MW4 5943   0.490   0.813   2.739 -0.1287 -0.3602 -0.1752
 1475SOL     OW 5944   0.501   1.090   2.685  0.0032  0.3348 -0.0219
 1475SOL    HW2 5945   0.575   1.151   2.677  0.3917 -0.1531 -0.1537
 1475SOL    HW3 5946   0.467   1.082   2.596 -0.4071  0.7998  0.0887
 1475SOL    MW4 5947   0.506   1.097   2.672  0.0004  0.3318 -0.0246
 1476SOL     OW 5948   0.701   1.286   2.709  0.1403 -0.2068  0.3462
 1476SOL    HW2 5949   0.706   1.268   2.803  0.1458 -0.3189  0.3241
 1476SOL    HW3 5950   0.779   1.245   2.673  0.7893  0.8863  0.4644
 1476SOL    MW4 5951   0.712   1.278   2.717  0.2267 -0.0774  0.3588
 1477SOL     OW 5952   0.654   1.546   2.632  0.0143 -0.0679  0.5184
 1477SOL    HW2 5953   0.574   1.578   2.675 -0.2736  0.5478 -0.4699
 1477SOL    HW3 5954   0.669   1.460   2.671 -1.1417 -0.1936  0.6965
 1477SOL    MW4 5955   0.645   1.539   2.643 -0.1762 -0.0032  0.4115
 1478SOL     OW 5956   0.404   1.658   2.710 -0.3243 -0.2902 -0.3926
 1478SOL    HW2 5957   0.381   1.673   2.801 -0.1414 -1.2742 -0.1724
 1478SOL    HW3 5958   0.403   1.744   2.669  1.3033  0.3606  0.9266
 1478SOL    MW4 5959   0.401   1.671   2.716 -0.0854 -0.3343 -0.1895
 1479SOL     OW 5960   0.405   1.951   2.610 -0.0713 -0.0255  0.0586
 1479SOL    HW2 5961   0.490   1.983   2.641  0.1805  1.1182 -1.7457
 1479SOL    HW3 5962   0.411   1.955   2.515 -1.8072 -0.8858 -0.1101
 1479SOL    MW4 5963   0.417   1.956   2.602 -0.2672  0.0119 -0.2017
 1480SOL     OW 5964   0.675   2.059   2.733  0.1267 -0.3305  0.1341
 1480SOL    HW2 5965   0.677   2.041   2.827  0.0873 -1.5761 -0.0952
 1480SOL    HW3 5966   0.740   1.999   2.696 -1.5787 -1.5764 -0.9093
 1480SOL    MW4 5967   0.684   2.049   2.741 -0.1035 -0.6590 -0.0341
 1481SOL     OW 5968   0.693   2.321   2.636 -0.0837 -0.6583  0.2451
 1481SOL    HW2 5969   0.773   2.368   2.661  0.8006 -1.6788 -0.5831
 1481SOL    HW3 5970   0.700   2.237   2.682  1.2557 -2.3019 -2.8289
 1481SOL    MW4 5971   0.705   2.316   2.645  0.2097 -1.0099 -0.2699
 1482SOL     OW 5972   0.454   2.451   2.694 -0.3370  0.3462 -0.1367
 1482SOL    HW2 5973   0.476   2.541   2.671  0.9269  1.0096  3.3134
 1482SOL    HW3 5974   0.533   2.401   2.673 -0.9376  0.0808 -1.7866
 1482SOL    MW4 5975   0.468   2.456   2.688 -0.2495  0.3986  0.1006
 1483SOL     OW 5976   0.498   2.720   2.633 -0.4709  0.1229  0.1199
 1483SOL    HW2 5977   0.570   2.757   2.683 -0.6136  0.6860 -0.0857
 1483SOL    HW3 5978   0.419   2.750   2.678 -0.6125  1.1526 -0.7869
 1483SOL    MW4 5979   0.497   2.729   2.645 -0.5085  0.3331 -0.0269
 1484SOL     OW 5980   0.708   2.805   2.802 -0.0272 -0.2119  0.2058
 1484SOL    HW2 5981   0.703   2.829   2.895  3.1106  0.1089  0.3637
 1484SOL    HW3 5982   0.713   2.889   2.756 -0.8990 -0.3816 -0.1996
 1484SOL    MW4 5983   0.708   2.819   2.808  0.2718 -0.1922  0.1731
 1485SOL     OW 5984   0.692   3.065   2.674  0.3984  0.1276  0.0669
 1485SOL    HW2 5985   0.776   3.109   2.688  0.1548 -0.0948  2.3846
 1485SOL    HW3 5986   0.680   3.065   2.578  1.8898  2.2730 -0.1446
 1485SOL    MW4 5987   0.701   3.071   2.663  0.5631  0.3812  0.3448
 1486SOL     OW 5988   0.451   3.214   2.766  0.2117  0.3064 -0.1767
 1486SOL    HW2 5989   0.457   3.223   2.861  0.4598 -0.5927 -0.1009
 1486SOL    HW3 5990   0.528   3.161   2.742 -0.3486 -0.2565 -0.7581
 1486SOL    MW4 5991   0.462   3.208   2.776  0.1706  0.1137 -0.2434
 1487SOL     OW 5992   0.433   3.521   2.690  0.0543  0.1754 -0.2992
 1487SOL    HW2 5993   0.414   3.431   2.717 -1.8585  0.1038 -1.7539
 1487SOL    HW3 5994   0.452   3.514   2.596  0.3940  1.2290 -0.3108
 1487SOL    MW4 5995   0.433   3.508   2.681 -0.1533  0.3049 -0.4928
 1488SOL     OW 5996   0.692   3.614   2.751  0.1994 -0.4091  0.2988
 1488SOL    HW2 5997   0.684   3.618   2.847  1.0166 -1.1533  0.4042
 1488SOL    HW3 5998   0.610   3.575   2.722 -0.1831  0.1129  0.6696
 1488SOL    MW4 5999   0.680   3.609   2.760  0.2568 -0.4385  0.3614
 1489SOL     OW 6000   0.675   3.868   2.649 -0.1922  0.1712 -0.1519
 1489SOL    HW2 6001   0.585   3.887   2.673 -0.3388 -0.1718 -0.4260
 1489SOL    HW3 6002   0.689   3.777   2.678  0.1860  0.3545  0.2463
 1489SOL    MW4 6003   0.665   3.858   2.656 -0.1616  0.1504 -0.1354
 1490SOL     OW 6004   0.444   3.946   2.775  0.5701  0.3989 -0.3300
 1490SOL    HW2 6005   0.442   4.039   2.755 -0.8013  0.3614 -0.4222
 1490SOL    HW3 6006   0.368   3.910   2.729  0.4045 -0.5667  0.6853
 1490SOL    MW4 6007   0.434   3.953   2.766  0.3673  0.2663 -0.2081
 1491SOL     OW 6008   0.433   4.217   2.690  0.0880  0.3833 -0.2021
 1491SOL    HW2 6009   0.517   4.261   2.701  0.1755  0.1472  0.0858
 1491SOL    HW3 6010   0.424   4.206   2.595  0.1424  0.8640 -0.2655
 1491SOL    MW4 6011   0.443   4.221   2.679  0.1067  0.4158 -0.1726
 1492SOL     OW 6012   0.657   4.369   2.787  0.1054 -0.0943 -0.3209
 1492SOL    HW2 6013   0.730   4.323   2.747  1.2185  1.4369 -0.1170
 1492SOL    HW3 6014   0.664   4.459   2.753  0.1310  0.8242  2.0216
 1492SOL    MW4 6015   0.668   4.375   2.777  0.2557  0.2294  0.0150
 1493SOL     OW 6016   1.153   4.630   2.635 -0.1655 -0.0159 -0.6212
 1493SOL    HW2 6017   1.235   4.664   2.672  1.0482 -0.8598 -2.4211
 1493SOL    HW3 6018   1.139   4.546   2.679  0.4548 -0.3081 -0.9687
 1493SOL    MW4 6019   1.162   4.624   2.645  0.0765 -0.1664 -0.9048
 1494SOL     OW 6020   0.926   0.090   2.745 -0.3757  0.2552  0.5861
 1494SOL    HW2 6021   0.936   0.070   2.838  0.8073  0.6798  0.5579
 1494SOL    HW3 6022   0.990   0.033   2.701  0.1776  1.1712  0.1724
 1494SOL    MW4 6023   0.936   0.080   2.751 -0.1466  0.4321  0.5279
 1495SOL     OW 6024   0.910   0.359   2.669 -0.1304  0.0682 -0.4216
 1495SOL    HW2 6025   0.944   0.274   2.697 -1.8199 -0.1527  1.0640
 1495SOL    HW3 6026   0.892   0.348   2.576  1.3794 -0.6166 -0.6426
 1495SOL    MW4 6027   0.912   0.347   2.661 -0.1541 -0.0513 -0.2549
 1496SOL     OW 6028   1.165   0.461   2.742  0.4405 -0.0973  0.0264
 1496SOL    HW2 6029   1.169   0.547   2.699  1.4022 -0.5334 -0.7815
 1496SOL    HW3 6030   1.082   0.423   2.711  0.2397  0.3413  0.0176
 1496SOL    MW4 6031   1.154   0.467   2.732  0.5407 -0.0970 -0.0813
 1497SOL     OW 6032   1.142   0.712   2.629 -0.0091 -0.5905  0.0026
 1497SOL    HW2 6033   1.212   0.775   2.644 -0.5111  0.3457 -1.3641
 1497SOL    HW3 6034   1.119   0.725   2.536 -1.6662 -1.1812  0.3175
 1497SOL    MW4 6035   1.148   0.722   2.618 -0.2939 -0.5448 -0.1361
 1498SOL     OW 6036   0.917   0.843   2.738  0.1999 -0.0478 -0.0029
 1498SOL    HW2 6037   0.924   0.851   2.833 -0.8686 -0.9318  0.1611
 1498SOL    HW3 6038   0.993   0.790   2.714  0.1073 -0.3902  0.4403
 1498SOL    MW4 6039   0.928   0.837   2.748  0.0467 -0.2095  0.0770
 1499SOL     OW 6040   0.953   1.137   2.632  0.1383 -0.4204  0.3223
 1499SOL    HW2 6041   0.947   1.047   2.663 -0.0628 -0.3918  0.3676
 1499SOL    HW3 6042   0.957   1.130   2.537  0.7136 -0.5061  0.3474
 1499SOL    MW4 6043   0.953   1.124   2.623  0.1878 -0.4278  0.3316
 1500SOL     OW 6044   1.168   1.273   2.745  0.1045  0.4027 -0.4172
 1500SOL    HW2 6045   1.156   1.364   2.718 -0.2535  0.0354 -1.5191
 1500SOL    HW3 6046   1.093   1.227   2.708  0.3788 -0.3772 -0.0135
 1500SOL    MW4 6047   1.156   1.279   2.737  0.0936  0.2514 -0.5090
 1501SOL     OW 6048   1.137   1.543   2.651  0.0858 -0.4910 -0.1145
 1501SOL    HW2 6049   1.054   1.585   2.674  0.9719  0.2720  1.7097
 1501SOL    HW3 6050   1.128   1.525   2.557 -1.7296  0.5054 -0.1684
 1501SOL    MW4 6051   1.125   1.546   2.641 -0.0368 -0.2589  0.1190
 1502SOL     OW 6052   0.892   1.663   2.742 -0.3355  0.1677 -0.3266
 1502SOL    HW2 6053   0.891   1.654   2.837  0.0841  0.2856 -0.3097
 1502SOL    HW3 6054   0.817   1.611   2.712  0.9951 -1.9419 -0.1053
 1502SOL    MW4 6055   0.882   1.655   2.751 -0.1045 -0.0952 -0.2952
 1503SOL     OW 6056   0.904   1.929   2.641  0.6267 -0.1165  0.0517
 1503SOL    HW2 6057   0.972   1.969   2.695  0.2941  0.3771  0.1104
 1503SOL    HW3 6058   0.916   1.835   2.652  1.9074 -0.0429 -0.6910
 1503SOL    MW4 6059   0.914   1.922   2.649  0.7518 -0.0416 -0.0384
 1504SOL     OW 6060   1.119   2.030   2.775  0.5271  0.2160 -0.3108
 1504SOL    HW2 6061   1.170   1.969   2.722 -0.6401 -1.2738  0.2431
 1504SOL    HW3 6062   1.143   2.117   2.742  3.3932 -0.4236 -0.0664
 1504SOL    MW4 6063   1.129   2.033   2.764  0.7513 -0.0648 -0.2055
 1505SOL     OW 6064   1.146   2.280   2.656  0.2535  0.1244  0.2198
 1505SOL    HW2 6065   1.212   2.348   2.666 -1.0231  1.4588 -0.2450
 1505SOL    HW3 6066   1.132   2.273   2.562  0.2217 -0.6302  0.2773
 1505SOL    MW4 6067   1.153   2.288   2.645  0.0808  0.2007  0.1662
 1506SOL     OW 6068   0.929   2.434   2.755  0.2425  0.4783  0.1783
 1506SOL    HW2 6069   0.935   2.521   2.715  0.9019 -0.1358 -1.1125
 1506SOL    HW3 6070   1.003   2.385   2.717  1.3415  0.0784  2.7347
 1506SOL    MW4 6071   0.940   2.439   2.745  0.4745  0.3448  0.3452
 1507SOL     OW 6072   0.910   2.680   2.658 -0.1757 -0.7663  0.0862
 1507SOL    HW2 6073   0.990   2.727   2.683 -0.8641  0.9330 -0.7954
 1507SOL    HW3 6074   0.844   2.708   2.722 -1.1027  1.0831 -1.5978
 1507SOL    MW4 6075   0.912   2.690   2.670 -0.3889 -0.2983 -0.2522
 1508SOL     OW 6076   1.122   2.845   2.737 -0.1540  0.0256  0.3870
 1508SOL    HW2 6077   1.106   2.827   2.830  0.2139  0.0289  0.4515
 1508SOL    HW3 6078   1.201   2.796   2.716 -1.1436 -1.3017 -0.3379
 1508SOL    MW4 6079   1.130   2.836   2.746 -0.2359 -0.1490  0.2999
 1509SOL     OW 6080   1.148   3.096   2.642  0.0000  0.0000  0.2175
 1509SOL    HW2 6081   1.122   3.007   2.664  0.0000  0.0000  0.2253
 1509SOL    HW3 6082   1.136   3.101   2.547  0.0000  0.0000  0.2174
 1509SOL    MW4 6083   1.143   3.085   2.632  0.0000  0.0000  0.2186
 1510SOL     OW 6084   0.919   3.208   2.768  0.0000  0.0000 -0.3955
 1510SOL    HW2 6085   0.903   3.287   2.715  0.0000  0.0000 -0.4018
 1510SOL    HW3 6086   1.006   3.179   2.741  0.0000  0.0000 -0.3966
 1510SOL    MW4 6087   0.928   3.215   2.757  0.0000  0.0000 -0.3967
 1511SOL     OW 6088   0.887   3.462   2.624  0.0000  0.0000  0.1105
 1511SOL    HW2 6089   0.961   3.509   2.664  0.0000  0.0000  0.0808
 1511SOL    HW3 6090   0.810   3.512   2.653  0.0000  0.0000  0.1625
 1511SOL    MW4 6091   0.887   3.475   2.633  0.0000  0.0000  0.1130
 1512SOL     OW 6092   1.102   3.599   2.745  0.0000  0.0000  0.0094
 1512SOL    HW2 6093   1.101   3.626   2.837  0.0000  0.0000  0.0086
 1512SOL    HW3 6094   1.100   3.681   2.696  0.0000  0.0000  0.0067
 1512SOL    MW4 6095   1.102   3.613   2.750  0.0000  0.0000  0.0091
 1513SOL     OW 6096   1.098   3.851   2.629  0.0000  0.0000 -0.3019
 1513SOL    HW2 6097   1.178   3.889   2.667  0.0000  0.0000 -0.3066
 1513SOL    HW3 6098   1.110   3.859   2.534  0.0000  0.0000 -0.3027
 1513SOL    MW4 6099   1.110   3.857   2.621  0.0000  0.0000 -0.3026
 1514SOL     OW 6100   0.893   4.008   2.774  0.0000  0.0000 -0.1311
 1514SOL    HW2 6101   0.957   3.963   2.719  0.0000  0.0000 -0.1103
 1514SOL    HW3 6102   0.809   3.969   2.748  0.0000  0.0000 -0.1677
 1514SOL    MW4 6103   0.890   3.997   2.763  0.0000  0.0000 -0.1330
 1515SOL     OW 6104   0.888   4.266   2.663  0.0000  0.0000 -0.2263
 1515SOL    HW2 6105   0.892   4.173   2.688  0.0000  0.0000 -0.2300
 1515SOL    HW3 6106   0.884   4.265   2.567  0.0000  0.0000 -0.2260
 1515SOL    MW4 6107   0.888   4.254   2.654  0.0000  0.0000 -0.2265
 1516SOL     OW 6108   1.144   4.351   2.736  0.0000  0.0000  0.6926
 1516SOL    HW2 6109   1.137   4.378   2.828  0.0000  0.0000  0.6923
 1516SOL    HW3 6110   1.055   4.327   2.711  0.0000  0.0000  0.6870
 1516SOL    MW4 6111   1.131   4.351   2.745  0.0000  0.0000  0.6919
 1517SOL     OW 6112   1.593   4.643   2.624  0.0000  0.0000 -0.6923
 1517SOL    HW2 6113   1.588   4.549   2.640  0.0000  0.0000 -0.6894
 1517SOL    HW3 6114   1.581   4.652   2.529  0.0000  0.0000 -0.6927
 1517SOL    MW4 6115   1.591   4.632   2.613  0.0000  0.0000 -0.6919
 1518SOL     OW 6116   1.380   0.074   2.761 -0.2118 -0.1901 -0.0520
 1518SOL    HW2 6117   1.379   0.158   2.715  1.2735  0.3650  0.8736
 1518SOL    HW3 6118   1.454   0.026   2.722 -0.2651 -0.5583  0.2934
 1518SOL    MW4 6119   1.390   0.079   2.750 -0.0229 -0.1654  0.1156
 1519SOL     OW 6120   1.380   0.308   2.639 -0.0192  0.6441 -0.2814
 1519SOL    HW2 6121   1.457   0.364   2.648 -0.2425  1.1051 -1.1661
 1519SOL    HW3 6122   1.309   0.358   2.678 -0.2193  0.9872 -1.0749
 1519SOL    MW4 6123   1.381   0.322   2.645 -0.0751  0.7502 -0.5028
 1520SOL     OW 6124   1.599   0.467   2.741  0.1695  0.0293 -0.0271
 1520SOL    HW2 6125   1.684   0.443   2.705 -0.7866 -0.9653 -1.7099
 1520SOL    HW3 6126   1.585   0.557   2.711  0.2747 -0.0844 -0.4182
 1520SOL    MW4 6127   1.608   0.476   2.732  0.0572 -0.1169 -0.3009
 1521SOL     OW 6128   1.604   0.742   2.652  0.1934 -0.3073 -0.1462
 1521SOL    HW2 6129   1.526   0.788   2.683  0.2581  0.2604 -0.8090
 1521SOL    HW3 6130   1.595   0.742   2.557  0.8327 -0.5381 -0.2053
 1521SOL    MW4 6131   1.592   0.748   2.644  0.2863 -0.2628 -0.2415
 1522SOL     OW 6132   1.356   0.864   2.689  0.5273  0.0744  0.0112
 1522SOL    HW2 6133   1.349   0.866   2.785  2.1967 -0.0587  0.1354
 1522SOL    HW3 6134   1.352   0.957   2.664 -1.9427  0.0204  0.0308
 1522SOL    MW4 6135   1.354   0.877   2.699  0.4216  0.0498  0.0303
 1523SOL     OW 6136   1.367   1.131   2.615  0.3827 -0.2057 -0.2863
 1523SOL    HW2 6137   1.447   1.162   2.657  0.2316 -0.4455  0.1882
 1523SOL    HW3 6138   1.303   1.201   2.629  0.3402 -0.2733 -0.1406
 1523SOL    MW4 6139   1.369   1.144   2.622  0.3572 -0.2462 -0.2046
 1524SOL     OW 6140   1.587   1.229   2.759 -0.6087 -0.4374 -0.5668
 1524SOL    HW2 6141   1.595   1.225   2.854  0.0096  0.5336 -0.5790
 1524SOL    HW3 6142   1.672   1.201   2.726  0.3439  2.5429 -0.7787
 1524SOL    MW4 6143   1.599   1.225   2.767 -0.4015  0.0839 -0.5965
 1525SOL     OW 6144   1.547   1.524   2.666 -0.0414 -0.6702 -0.2028
 1525SOL    HW2 6145   1.554   1.443   2.717  0.0665 -0.6913 -0.2533
 1525SOL    HW3 6146   1.564   1.498   2.576 -1.3971 -0.8480 -0.4200
 1525SOL    MW4 6147   1.550   1.510   2.661 -0.2059 -0.6963 -0.2382
 1526SOL     OW 6148   1.338   1.686   2.736 -0.3081 -0.5487 -0.7338
 1526SOL    HW2 6149   1.416   1.633   2.722 -0.7296 -0.7808 -2.2324
 1526SOL    HW3 6150   1.265   1.628   2.714 -1.0338 -0.9932  2.5996
 1526SOL    MW4 6151   1.338   1.671   2.731 -0.4594 -0.6380 -0.4916
 1527SOL     OW 6152   1.339   1.932   2.629  0.2142  0.4940 -0.1554
 1527SOL    HW2 6153   1.335   1.845   2.667 -0.5713  0.5919 -0.0008
 1527SOL    HW3 6154   1.370   1.918   2.539 -0.7710 -0.0333 -0.4144
 1527SOL    MW4 6155   1.343   1.919   2.622 -0.0193  0.4373 -0.1695
 1528SOL     OW 6156   1.566   2.059   2.740 -0.2652  0.0800  0.4097
 1528SOL    HW2 6157   1.637   2.010   2.699 -0.3787  0.8967 -0.7994
 1528SOL    HW3 6158   1.486   2.013   2.713 -0.3652  0.8500 -0.6442
 1528SOL    MW4 6159   1.565   2.047   2.731 -0.2933  0.2894  0.1111
 1529SOL     OW 6160   1.540   2.295   2.620 -0.2314  0.0621 -0.2782
 1529SOL    HW2 6161   1.626   2.336   2.631 -0.0825  0.0842 -1.3925
 1529SOL    HW3 6162   1.548   2.209   2.662 -0.5861  1.1999  2.2021
 1529SOL    MW4 6163   1.552   2.289   2.627 -0.2586  0.2153 -0.0980
 1530SOL     OW 6164   1.338   2.446   2.767 -0.2807 -0.3338 -0.2258
 1530SOL    HW2 6165   1.348   2.535   2.733 -2.3110  0.3440  0.8752
 1530SOL    HW3 6166   1.413   2.398   2.732  0.6623  1.7336 -1.0833
 1530SOL    MW4 6167   1.349   2.451   2.758 -0.4241  0.0286 -0.1938
 1531SOL     OW 6168   1.337   2.701   2.666 -0.0381  0.2637  0.0532
 1531SOL    HW2 6169   1.427   2.725   2.688  0.2903 -0.1740 -0.7857
 1531SOL    HW3 6170   1.334   2.701   2.570 -0.6680 -0.6614  0.0618
 1531SOL    MW4 6171   1.348   2.704   2.656 -0.0778  0.0837 -0.0563
 1532SOL     OW 6172   1.574   2.828   2.713 -0.0253 -0.0282  0.0516
 1532SOL    HW2 6173   1.594   2.827   2.807 -0.1601 -0.6549  0.0799
 1532SOL    HW3 6174   1.653   2.793   2.671  0.1199  0.4663 -0.0848
 1532SOL    MW4 6175   1.587   2.823   2.720 -0.0241 -0.0455  0.0377
 1533SOL     OW 6176   1.577   3.094   2.625  0.6854 -0.4297 -0.0942
 1533SOL    HW2 6177   1.664   3.124   2.650  0.9250 -0.7078 -0.5715
 1533SOL    HW3 6178   1.570   3.007   2.664  0.6064 -0.3944 -0.0296
 1533SOL    MW4 6179   1.587   3.086   2.633  0.7066 -0.4618 -0.1488
 1534SOL     OW 6180   1.369   3.238   2.698  0.1778 -0.4056 -0.1888
 1534SOL    HW2 6181   1.444   3.189   2.663 -0.7390 -1.0084 -1.3852
 1534SOL    HW3 6182   1.293   3.184   2.674 -0.7441  0.9305 -0.3017
 1534SOL    MW4 6183   1.369   3.224   2.690 -0.0648 -0.3088 -0.3617
 1535SOL     OW 6184   1.344   3.502   2.636 -0.4156 -0.0247 -0.2167
 1535SOL    HW2 6185   1.357   3.417   2.676  1.0950  0.3617  0.1658
 1535SOL    HW3 6186   1.267   3.538   2.679  0.6699  0.0184  1.7544
 1535SOL    MW4 6187   1.336   3.496   2.647 -0.0732  0.0319  0.0939
 1536SOL     OW 6188   1.574   3.627   2.700  0.4674  0.1926 -0.1259
 1536SOL    HW2 6189   1.643   3.573   2.661 -0.6225 -0.9628 -0.4538
 1536SOL    HW3 6190   1.493   3.583   2.678 -0.3459  1.0899  1.0107
 1536SOL    MW4 6191   1.573   3.614   2.692  0.2161  0.1590 -0.0193
 1537SOL     OW 6192   1.574   3.893   2.625 -0.1153 -0.0190  0.4613
 1537SOL    HW2 6193   1.498   3.930   2.669 -0.5249 -0.0197 -0.2476
 1537SOL    HW3 6194   1.567   3.799   2.641 -0.4674 -0.0584  0.0732
 1537SOL    MW4 6195   1.563   3.886   2.633 -0.2159 -0.0246  0.3166
 1538SOL     OW 6196   1.324   3.959   2.729 -0.1626  0.4543 -0.0574
 1538SOL    HW2 6197   1.341   3.987   2.819 -0.7974  0.1471  0.1585
 1538SOL    HW3 6198   1.328   4.040   2.678 -0.7405  0.7660  0.3807
 1538SOL    MW4 6199   1.327   3.973   2.734 -0.3226  0.4549  0.0288
 1539SOL     OW 6200   1.342   4.220   2.596 -0.5451 -0.2985 -0.6783
 1539SOL    HW2 6201   1.263   4.266   2.624 -0.1893 -0.5644  0.8326
 1539SOL    HW3 6202   1.347   4.235   2.502  0.1179  3.5921 -0.0971
 1539SOL    MW4 6203   1.332   4.228   2.588 -0.4107  0.1793 -0.4022
 1540SOL     OW 6204   1.551   4.371   2.701 -0.2105 -0.0602 -0.3941
 1540SOL    HW2 6205   1.543   4.373   2.796 -1.2259 -1.4684 -0.4191
 1540SOL    HW3 6206   1.482   4.310   2.673  0.8918 -0.6323 -1.9363
 1540SOL    MW4 6207   1.541   4.363   2.710 -0.1990 -0.3219 -0.6008
 1541SOL     OW 6208   1.997   0.005   2.635 -0.3096  0.2886  0.4730
 1541SOL    HW2 6209   2.082   0.048   2.649  0.5509 -1.0729 -0.4286
 1541SOL    HW3 6210   1.993  -0.010   2.540 -1.9522  1.1060  0.3926
 1541SOL    MW4 6211   2.008   0.009   2.624 -0.4127  0.2168  0.3436
 1542SOL     OW 6212   1.785   0.133   2.745 -0.8231 -0.2706 -0.1711
 1542SOL    HW2 6213   1.860   0.086   2.708 -0.3123 -0.8600  1.5831
 1542SOL    HW3 6214   1.708   0.089   2.706 -0.2957 -0.5252 -0.9433
 1542SOL    MW4 6215   1.784   0.121   2.735 -0.6862 -0.3820 -0.0415
 1543SOL     OW 6216   1.825   0.383   2.623  0.5703 -0.6978 -0.3420
 1543SOL    HW2 6217   1.910   0.409   2.658  0.4662 -0.4400 -0.2817
 1543SOL    HW3 6218   1.807   0.298   2.664  0.5918 -0.5428 -0.0111
 1543SOL    MW4 6219   1.833   0.375   2.633  0.5596 -0.6433 -0.2902
 1544SOL     OW 6220   2.053   0.486   2.743  0.1385  0.6992  0.5226
 1544SOL    HW2 6221   2.141   0.451   2.728  0.2755  1.4317 -0.3902
 1544SOL    HW3 6222   2.060   0.579   2.720 -0.3003  1.2756  2.6259
 1544SOL    MW4 6223   2.066   0.494   2.738  0.0987  0.8719  0.6797
 1545SOL     OW 6224   2.030   0.729   2.634 -0.0807 -0.0681 -0.4232
 1545SOL    HW2 6225   1.968   0.792   2.672 -1.2862 -1.1729 -0.5291
 1545SOL    HW3 6226   2.028   0.747   2.540  0.2736  0.3389 -0.3566
 1545SOL    MW4 6227   2.021   0.739   2.626 -0.1931 -0.1602 -0.4282
 1546SOL     OW 6228   1.822   0.879   2.741  0.0658  0.2215 -0.4925
 1546SOL    HW2 6229   1.833   0.970   2.714 -0.0137 -0.2446 -2.1727
 1546SOL    HW3 6230   1.746   0.848   2.691 -0.0564 -0.6871  0.2505
 1546SOL    MW4 6231   1.814   0.887   2.731  0.0390  0.0401 -0.6161
 1547SOL     OW 6232   1.841   1.138   2.624  0.0189 -0.2842 -0.1247
 1547SOL    HW2 6233   1.907   1.204   2.646  0.6851 -0.2458 -2.1528
 1547SOL    HW3 6234   1.824   1.151   2.531 -2.5877 -0.5528  0.2853
 1547SOL    MW4 6235   1.848   1.148   2.615 -0.2371 -0.3146 -0.3386
 1548SOL     OW 6236   2.034   1.302   2.728  0.0295  0.4607 -0.8366
 1548SOL    HW2 6237   2.029   1.286   2.822 -2.7417  0.6426 -0.9328
 1548SOL    HW3 6238   2.112   1.253   2.700  0.0829 -0.7339  1.3066
 1548SOL    MW4 6239   2.044   1.293   2.737 -0.3290  0.3272 -0.5667
 1549SOL     OW 6240   2.028   1.565   2.638 -0.1076  0.1781 -0.5781
 1549SOL    HW2 6241   1.943   1.607   2.647 -0.7445 -0.8454 -1.6834
 1549SOL    HW3 6242   2.015   1.477   2.673  0.1572 -0.3681 -1.8040
 1549SOL    MW4 6243   2.015   1.559   2.643 -0.1569 -0.0288 -0.8860
 1550SOL     OW 6244   1.789   1.668   2.712  0.3612 -0.1448  0.4338
 1550SOL    HW2 6245   1.796   1.679   2.807  1.4733 -0.3405  0.3700
 1550SOL    HW3 6246   1.702   1.629   2.700 -0.6734  1.7959  1.2083
 1550SOL    MW4 6247   1.778   1.665   2.723  0.3715  0.0855  0.5274
 1551SOL     OW 6248   1.770   1.928   2.635  0.4454  0.1166 -0.3219
 1551SOL    HW2 6249   1.855   1.955   2.671 -0.0722 -1.3589  2.1599
 1551SOL    HW3 6250   1.765   1.834   2.653 -2.6499  0.5772  1.7385
 1551SOL    MW4 6251   1.780   1.919   2.642 -0.0312 -0.0173  0.2775
 1552SOL     OW 6252   2.025   2.033   2.770  0.4277  0.0158  0.2936
 1552SOL    HW2 6253   2.015   2.053   2.863  0.7537  0.2373  0.2802
 1552SOL    HW3 6254   2.026   2.118   2.727 -1.4591 -0.1330 -0.0861
 1552SOL    MW4 6255   2.024   2.047   2.777  0.2220  0.0257  0.2415
 1553SOL     OW 6256   2.037   2.256   2.612  0.3332  0.3157 -0.2563
 1553SOL    HW2 6257   2.102   2.319   2.641  0.0683  1.1931 -1.5311
 1553SOL    HW3 6258   2.023   2.277   2.519 -0.6443 -0.8337 -0.3785
 1553SOL    MW4 6259   2.044   2.267   2.603  0.1690  0.2801 -0.4406
 1554SOL     OW 6260   1.800   2.396   2.687  0.1759  0.2729 -0.4251
 1554SOL    HW2 6261   1.789   2.406   2.782  0.4471 -0.4354 -0.3086
 1554SOL    HW3 6262   1.879   2.341   2.678 -1.3749 -1.9428 -0.9610
 1554SOL    MW4 6263   1.809   2.390   2.698  0.0072 -0.1128 -0.4804
 1555SOL     OW 6264   1.800   2.689   2.614  0.1671  0.1007 -0.2956
 1555SOL    HW2 6265   1.808   2.595   2.623 -0.1438 -0.0898 -1.8431
 1555SOL    HW3 6266   1.791   2.704   2.520  1.2665  1.7473 -0.1797
 1555SOL    MW4 6267   1.800   2.679   2.603  0.2712  0.2928 -0.4845
 1556SOL     OW 6268   2.007   2.850   2.740 -0.2834  0.3675 -0.2600
 1556SOL    HW2 6269   2.096   2.821   2.720 -0.2841  0.4880 -0.4459
 1556SOL    HW3 6270   1.951   2.782   2.703 -0.2484 -0.1028  0.5425
 1556SOL    MW4 6271   2.012   2.837   2.733 -0.2787  0.3211 -0.1786
 1557SOL     OW 6272   2.025   3.086   2.602 -0.1143 -0.1364  0.0821
 1557SOL    HW2 6273   2.013   3.003   2.647  0.1557 -0.6693 -0.8258
 1557SOL    HW3 6274   2.019   3.065   2.509 -0.3574  0.9087 -0.1513
 1557SOL    MW4 6275   2.023   3.073   2.595 -0.1109 -0.0689 -0.0687
 1558SOL     OW 6276   1.802   3.225   2.682  0.0316  0.6082  0.3025
 1558SOL    HW2 6277   1.811   3.314   2.646 -0.6138 -0.0638 -1.5761
 1558SOL    HW3 6278   1.879   3.178   2.651 -0.3883  0.0891  0.0420
 1558SOL    MW4 6279   1.813   3.231   2.673 -0.1090  0.4508  0.0203
 1559SOL     OW 6280   1.787   3.487   2.599  0.7090  0.2334 -0.1133
 1559SOL    HW2 6281   1.861   3.540   2.630  0.8490 -0.6539  1.1004
 1559SOL    HW3 6282   1.791   3.496   2.503  1.4545  1.4323  0.0078
 1559SOL    MW4 6283   1.798   3.495   2.590  0.8258  0.2747  0.0629
 1560SOL     OW 6284   2.023   3.629   2.714  0.1485  0.1031  0.2480
 1560SOL    HW2 6285   2.039   3.629   2.808  1.6594  1.4821  0.0077
 1560SOL    HW3 6286   2.100   3.585   2.677 -0.4134 -0.3876 -0.3570
 1560SOL    MW4 6287   2.035   3.623   2.721  0.2735  0.2205  0.1364
 1561SOL     OW 6288   2.008   3.907   2.624 -0.0308 -0.0020  0.0216
 1561SOL    HW2 6289   1.950   3.956   2.682  1.1013  0.7320  0.5626
 1561SOL    HW3 6290   2.011   3.819   2.662 -1.5404 -0.3056 -0.5630
 1561SOL    MW4 6291   2.001   3.902   2.637 -0.0806  0.0546  0.0157
 1562SOL     OW 6292   1.799   4.005   2.762 -0.1163 -0.2020 -0.4142
 1562SOL    HW2 6293   1.794   4.093   2.726  2.2217 -0.3412 -1.1814
 1562SOL    HW3 6294   1.742   3.952   2.706 -0.5015  0.5688 -0.7525
 1562SOL    MW4 6295   1.791   4.009   2.750  0.1415 -0.1183 -0.5600
 1563SOL     OW 6296   1.806   4.259   2.663  0.0958 -0.2987  0.1464
 1563SOL    HW2 6297   1.725   4.305   2.684  1.3007  1.6551  0.7383
 1563SOL    HW3 6298   1.805   4.250   2.568 -0.4126  0.5429  0.0604
 1563SOL    MW4 6299   1.796   4.264   2.653  0.1876  0.0701  0.2134
 1564SOL     OW 6300   2.039   4.424   2.720  0.1658  0.7524  0.2230
 1564SOL    HW2 6301   1.970   4.368   2.684 -0.0068  0.4644  0.9833
 1564SOL    HW3 6302   2.016   4.512   2.690 -0.3368  0.6078  0.1744
 1564SOL    MW4 6303   2.027   4.429   2.711  0.0770  0.6957  0.3169
 1565SOL     OW 6304   2.487   4.618   2.655 -0.1915 -0.0081  0.1361
 1565SOL    HW2 6305   2.539   4.688   2.693  0.0755 -0.4260  0.5464
 1565SOL    HW3 6306   2.501   4.626   2.560  0.1863  0.2194  0.2117
 1565SOL    MW4 6307   2.496   4.628   2.647 -0.1066 -0.0334  0.2000
 1566SOL     OW 6308   2.254   0.101   2.685  0.1864  0.3551 -0.1392
 1566SOL    HW2 6309   2.225   0.096   2.775 -1.2436 -0.8855 -0.6574
 1566SOL    HW3 6310   2.336   0.051   2.683  0.8497  1.3861  0.7021
 1566SOL    MW4 6311   2.261   0.094   2.696  0.0854  0.3274 -0.0966
 1567SOL     OW 6312   2.302   0.374   2.631  0.1641 -0.2447  0.2418
 1567SOL    HW2 6313   2.278   0.283   2.647  1.1410 -0.6658 -0.5796
 1567SOL    HW3 6314   2.308   0.381   2.536  0.5416  0.5570  0.3165
 1567SOL    MW4 6315   2.300   0.363   2.621  0.3428 -0.1944  0.1433
 1568SOL     OW 6316   2.499   0.518   2.764  0.3289 -0.0756 -0.2183
 1568SOL    HW2 6317   2.486   0.604   2.726  0.0058  0.5195  1.2309
 1568SOL    HW3 6318   2.428   0.465   2.729 -1.2626  1.0387  1.2583
 1568SOL    MW4 6319   2.488   0.522   2.755  0.0763  0.1499  0.1678
 1569SOL     OW 6320   2.489   0.766   2.627 -0.2472  0.2114  0.5891
 1569SOL    HW2 6321   2.414   0.811   2.668 -0.8056  0.7315 -0.9554
 1569SOL    HW3 6322   2.486   0.794   2.535  0.6467 -1.3577  0.0632
 1569SOL    MW4 6323   2.479   0.776   2.620 -0.2031  0.0730  0.3159
 1570SOL     OW 6324   2.260   0.895   2.726 -0.1527  0.2999  0.4849
 1570SOL    HW2 6325   2.259   0.894   2.822  0.3562  2.9068  0.5656
 1570SOL    HW3 6326   2.182   0.845   2.701  0.9518 -2.3880  2.1665
 1570SOL    MW4 6327   2.249   0.888   2.735  0.0603  0.2892  0.7174
 1571SOL     OW 6328   2.244   1.162   2.597 -0.1667  0.2099 -0.2411
 1571SOL    HW2 6329   2.242   1.069   2.622  0.5750  0.3294  0.2869
 1571SOL    HW3 6330   2.257   1.161   2.502  0.0973 -0.2309 -0.2050
 1571SOL    MW4 6331   2.246   1.149   2.588 -0.0341  0.1676 -0.1667
 1572SOL     OW 6332   2.467   1.230   2.728  0.0138  0.2571  0.0060
 1572SOL    HW2 6333   2.538   1.188   2.680  1.2379  1.1065  1.0221
 1572SOL    HW3 6334   2.388   1.204   2.681  0.8378 -1.9952 -0.2499
 1572SOL    MW4 6335   2.466   1.221   2.716  0.2840  0.0719  0.1061
 1573SOL     OW 6336   2.507   1.513   2.639 -0.4541 -0.0978 -0.0425
 1573SOL    HW2 6337   2.426   1.563   2.649  0.3680  1.2058  0.2075
 1573SOL    HW3 6338   2.489   1.429   2.681 -1.5092  0.3616  0.4400
 1573SOL    MW4 6339   2.494   1.508   2.646 -0.4847  0.1347  0.0541
 1574SOL     OW 6340   2.279   1.669   2.692  0.0867  0.5145 -0.3543
 1574SOL    HW2 6341   2.283   1.756   2.654 -1.3022  0.2635 -1.0806
 1574SOL    HW3 6342   2.195   1.634   2.665  0.4094 -0.8629  0.3611
 1574SOL    MW4 6343   2.269   1.676   2.683 -0.0539  0.2997 -0.3557
 1575SOL     OW 6344   2.253   1.929   2.608 -0.1402  0.3605  0.4500
 1575SOL    HW2 6345   2.179   1.982   2.638  1.3531  2.9055 -0.1731
 1575SOL    HW3 6346   2.254   1.942   2.513  1.2675  0.5861  0.4874
 1575SOL    MW4 6347   2.243   1.938   2.599  0.2427  0.7260  0.3726
 1576SOL     OW 6348   2.477   2.046   2.778  0.1357 -0.1599  0.0299
 1576SOL    HW2 6349   2.467   2.136   2.748  0.6905 -0.2353 -0.3792
 1576SOL    HW3 6350   2.403   1.999   2.738  0.8168 -0.2443 -1.1469
 1576SOL    MW4 6351   2.466   2.052   2.769  0.2987 -0.1810 -0.1795
 1577SOL     OW 6352   2.440   2.290   2.640  0.3694  0.0153 -0.4469
 1577SOL    HW2 6353   2.521   2.329   2.672  1.0149 -0.0428 -1.9883
 1577SOL    HW3 6354   2.446   2.297   2.545 -0.3513 -2.1537 -0.6698
 1577SOL    MW4 6355   2.451   2.296   2.632  0.3598 -0.2787 -0.6795
 1578SOL     OW 6356   2.216   2.423   2.704  0.4661 -0.4387  0.1332
 1578SOL    HW2 6357   2.220   2.430   2.800 -0.4646  0.8871  0.0826
 1578SOL    HW3 6358   2.298   2.380   2.681  0.6377 -0.9155  1.5404
 1578SOL    MW4 6359   2.228   2.418   2.714  0.3660 -0.3266  0.3121
 1579SOL     OW 6360   2.240   2.719   2.669 -0.1993  0.3935  0.4342
 1579SOL    HW2 6361   2.320   2.735   2.718  1.3486  0.3326 -2.0287
 1579SOL    HW3 6362   2.217   2.628   2.688  0.4416  0.3456  0.9547
 1579SOL    MW4 6363   2.247   2.709   2.678  0.0894  0.3793  0.1781
 1580SOL     OW 6364   2.480   2.833   2.747 -0.0939  0.3945  0.5434
 1580SOL    HW2 6365   2.564   2.800   2.714 -1.6147 -1.5640 -1.4983
 1580SOL    HW3 6366   2.470   2.919   2.705 -0.3854 -0.5756 -1.4136
 1580SOL    MW4 6367   2.490   2.840   2.737 -0.3328  0.0083  0.0157
 1581SOL     OW 6368   2.476   3.096   2.621  0.2174  0.2316 -0.0905
 1581SOL    HW2 6369   2.395   3.117   2.667  0.1046 -0.2486 -0.0705
 1581SOL    HW3 6370   2.449   3.078   2.531  0.1144 -1.4000  0.2618
 1581SOL    MW4 6371   2.462   3.096   2.615  0.1888 -0.0470 -0.0412
 1582SOL     OW 6372   2.245   3.205   2.733  0.3388 -0.4756  0.0614
 1582SOL    HW2 6373   2.249   3.190   2.827  0.7742  1.1087  0.3024
 1582SOL    HW3 6374   2.172   3.150   2.703 -0.0129 -0.7304  1.3594
 1582SOL    MW4 6375   2.236   3.196   2.741  0.3500 -0.2999  0.2644
 1583SOL     OW 6376   2.220   3.481   2.617  0.3065 -0.6029 -0.1386
 1583SOL    HW2 6377   2.303   3.513   2.654  0.0754  1.0243 -0.9524
 1583SOL    HW3 6378   2.207   3.395   2.657  0.8528  0.4269  2.3408
 1583SOL    MW4 6379   2.230   3.474   2.627  0.3481 -0.2522  0.0811
 1584SOL     OW 6380   2.460   3.601   2.685  0.2881  0.1557  0.2889
 1584SOL    HW2 6381   2.483   3.613   2.777  1.7226  0.1014 -0.0440
 1584SOL    HW3 6382   2.466   3.688   2.647  0.0650  0.1206  0.1761
 1584SOL    MW4 6383   2.464   3.614   2.692  0.4482  0.1440  0.2301
 1585SOL     OW 6384   2.452   3.877   2.632 -0.1574 -0.0014  0.2298
 1585SOL    HW2 6385   2.524   3.916   2.681  0.2483 -0.2173 -0.1921
 1585SOL    HW3 6386   2.373   3.913   2.673  0.1310 -1.4105  2.0600
 1585SOL    MW4 6387   2.451   3.887   2.644 -0.0658 -0.2158  0.4158
 1586SOL     OW 6388   2.235   4.033   2.714  0.3346  0.1931 -0.3032
 1586SOL    HW2 6389   2.229   4.041   2.809  1.7926  2.2415 -0.3599
 1586SOL    HW3 6390   2.152   3.990   2.688  0.3860 -1.3504  1.9471
 1586SOL    MW4 6391   2.223   4.028   2.723  0.5338  0.2604 -0.0138
 1587SOL     OW 6392   2.255   4.295   2.625  0.4516 -0.1238  0.1024
 1587SOL    HW2 6393   2.247   4.201   2.641 -1.6733 -0.0089 -0.1397
 1587SOL    HW3 6394   2.169   4.331   2.648  0.7348  1.5377 -1.3271
 1587SOL    MW4 6395   2.243   4.288   2.630  0.2089  0.1101 -0.1180
 1588SOL     OW 6396   2.471   4.369   2.775  0.1563 -0.1477  0.0392
 1588SOL    HW2 6397   2.398   4.323   2.734 -0.6244 -0.1748  1.4424
 1588SOL    HW3 6398   2.466   4.458   2.741  1.2512 -0.8715 -2.1430
 1588SOL    MW4 6399   2.461   4.375   2.765  0.1979 -0.2470 -0.0637
 1589SOL     OW 6400   2.898   4.642   2.654  0.4189  0.3512 -0.6577
 1589SOL    HW2 6401   2.968   4.693   2.694  0.4968 -0.8098  0.7089
 1589SOL    HW3 6402   2.906   4.660   2.560  3.0232 -0.3737 -0.5943
 1589SOL    MW4 6403   2.908   4.651   2.647  0.7727  0.1025 -0.4690
 1590SOL     OW 6404   2.692   0.129   2.725 -0.1747 -0.4817 -0.0880
 1590SOL    HW2 6405   2.673   0.106   2.816  0.1256 -0.0116  0.0986
 1590SOL    HW3 6406   2.763   0.071   2.699 -1.9055 -2.3460 -0.8312
 1590SOL    MW4 6407   2.699   0.118   2.733 -0.3633 -0.6657 -0.1616
 1591SOL     OW 6408   2.669   0.368   2.592 -0.4869 -0.0825 -0.0179
 1591SOL    HW2 6409   2.656   0.282   2.633  1.6262  0.1060  1.1190
 1591SOL    HW3 6410   2.620   0.429   2.647 -0.5100 -0.3148  0.2188
 1591SOL    MW4 6411   2.661   0.364   2.604 -0.2108 -0.0882  0.1633
 1592SOL     OW 6412   2.881   0.454   2.738 -0.0719 -0.6847  0.1324
 1592SOL    HW2 6413   2.895   0.544   2.708 -1.6457  0.2849  2.1902
 1592SOL    HW3 6414   2.813   0.420   2.680 -0.5730 -0.0249  0.3310
 1592SOL    MW4 6415   2.874   0.461   2.726 -0.3457 -0.4697  0.4301
 1593SOL     OW 6416   2.925   0.737   2.671  0.0409  0.7975 -0.1587
 1593SOL    HW2 6417   3.002   0.789   2.694  0.2867  0.7315 -0.8158
 1593SOL    HW3 6418   2.850   0.790   2.699  0.3191  0.8481  0.5062
 1593SOL    MW4 6419   2.925   0.751   2.678  0.1099  0.7955 -0.1578
 1594SOL     OW 6420   2.704   0.906   2.712  0.3301 -0.3986  0.0340
 1594SOL    HW2 6421   2.703   0.911   2.807 -0.7989  0.0156  0.0076
 1594SOL    HW3 6422   2.632   0.846   2.690 -0.0373  0.2661 -0.5897
 1594SOL    MW4 6423   2.694   0.899   2.721  0.1326 -0.2563 -0.0517
 1595SOL     OW 6424   2.680   1.142   2.579 -0.4150  0.3865 -0.1325
 1595SOL    HW2 6425   2.751   1.194   2.615  0.0224 -0.1170 -0.2760
 1595SOL    HW3 6426   2.690   1.056   2.619  0.9019 -0.5942 -2.4699
 1595SOL    MW4 6427   2.690   1.137   2.589 -0.1836  0.1909 -0.4601
 1596SOL     OW 6428   2.891   1.248   2.717 -0.2706  0.1310  0.6309
 1596SOL    HW2 6429   2.893   1.233   2.811  0.8636 -0.9674  0.4508
 1596SOL    HW3 6430   2.977   1.218   2.686 -1.8176 -2.6871 -1.1861
 1596SOL    MW4 6431   2.903   1.242   2.725 -0.3250 -0.3856  0.3679
 1597SOL     OW 6432   2.917   1.524   2.659  0.2215 -0.2930 -0.1286
 1597SOL    HW2 6433   2.847   1.581   2.690 -0.0969 -1.0801  0.6072
 1597SOL    HW3 6434   2.894   1.437   2.692  2.6387 -0.1844  1.9979
 1597SOL    MW4 6435   2.905   1.520   2.668  0.4985 -0.3825  0.2491
 1598SOL     OW 6436   2.694   1.685   2.756  0.1632 -0.0526  0.0770
 1598SOL    HW2 6437   2.665   1.688   2.847  0.0894 -1.2554  0.1013
 1598SOL    HW3 6438   2.638   1.618   2.715  0.7124 -0.0679 -0.6614
 1598SOL    MW4 6439   2.683   1.676   2.763  0.2260 -0.2133 -0.0172
 1599SOL     OW 6440   2.708   1.937   2.653  0.4444  0.1994  0.5042
 1599SOL    HW2 6441   2.708   1.848   2.688 -0.6409 -0.5272 -1.3080
 1599SOL    HW3 6442   2.636   1.980   2.699 -0.4484 -0.5123 -0.2088
 1599SOL    MW4 6443   2.699   1.931   2.664  0.1833  0.0095  0.1714
 1600SOL     OW 6444   2.954   2.063   2.680 -0.3766  0.1013  0.2041
 1600SOL    HW2 6445   2.949   2.156   2.658 -1.2692 -0.0555 -0.3265
 1600SOL    HW3 6446   2.864   2.031   2.666 -0.1878 -0.7254  0.8719
 1600SOL    MW4 6447   2.941   2.071   2.675 -0.4694 -0.0284  0.2222
 1601SOL     OW 6448   2.906   2.342   2.636 -0.3232  0.2834 -0.4701
 1601SOL    HW2 6449   2.977   2.392   2.676  1.2848 -1.7140 -0.7516
 1601SOL    HW3 6450   2.826   2.388   2.664  0.9536  1.3837  1.5465
 1601SOL    MW4 6451   2.905   2.355   2.645  0.0577  0.1650 -0.2413
 1602SOL     OW 6452   2.660   2.412   2.761  0.1138 -0.3591 -0.0373
 1602SOL    HW2 6453   2.649   2.403   2.856  1.5095 -0.1042  0.1495
 1602SOL    HW3 6454   2.660   2.506   2.746  0.2592 -0.3938 -0.2489
 1602SOL    MW4 6455   2.658   2.423   2.772  0.3171 -0.3297 -0.0408
 1603SOL     OW 6456   2.698   2.689   2.674 -0.0531  0.3419  0.1685
 1603SOL    HW2 6457   2.774   2.738   2.706 -0.1036  0.0481  0.7522
 1603SOL    HW3 6458   2.698   2.703   2.580 -0.3118  1.8195  0.3759
 1603SOL    MW4 6459   2.708   2.698   2.666 -0.0937  0.4983  0.2730
 1604SOL     OW 6460   2.917   2.839   2.754  0.1263 -0.2372  0.2963
 1604SOL    HW2 6461   2.904   2.864   2.845  0.6040 -0.0995  0.3300
 1604SOL    HW3 6462   2.893   2.916   2.703  0.5346 -0.0807  0.3421
 1604SOL    MW4 6463   2.912   2.852   2.759  0.2429 -0.1981  0.3071
 1605SOL     OW 6464   2.907   3.119   2.687 -0.0416  0.2441  0.0036
 1605SOL    HW2 6465   2.825   3.168   2.696 -0.3806 -0.3662  0.2795
 1605SOL    HW3 6466   2.917   3.106   2.593 -0.0942  0.6131 -0.0514
 1605SOL    MW4 6467   2.897   3.124   2.676 -0.0937  0.2122  0.0324
 1606SOL     OW 6468   2.691   3.281   2.707  0.0733 -0.2719  0.5904
 1606SOL    HW2 6469   2.693   3.359   2.652  0.1893 -1.1664 -0.6844
 1606SOL    HW3 6470   2.628   3.223   2.664 -0.2038 -0.7797  1.6729
 1606SOL    MW4 6471   2.683   3.284   2.694  0.0522 -0.4568  0.5651
 1607SOL     OW 6472   2.713   3.529   2.595  0.0474  0.2066  0.1256
 1607SOL    HW2 6473   2.625   3.555   2.619 -0.3757 -1.7186  0.7596
 1607SOL    HW3 6474   2.707   3.502   2.503 -0.2061 -0.6756  0.3960
 1607SOL    MW4 6475   2.701   3.529   2.586 -0.0420 -0.1640  0.2446
 1608SOL     OW 6476   2.926   3.623   2.756 -0.3862  0.3930 -0.1116
 1608SOL    HW2 6477   2.913   3.616   2.851  1.4319 -0.6479  0.0814
 1608SOL    HW3 6478   2.845   3.589   2.718  0.1772 -2.3587  1.0558
 1608SOL    MW4 6479   2.913   3.617   2.764 -0.0722 -0.1075  0.0682
 1609SOL     OW 6480   2.910   3.884   2.637 -0.0469  0.0025  0.0875
 1609SOL    HW2 6481   2.986   3.927   2.676  1.4138 -0.8693 -1.7482
 1609SOL    HW3 6482   2.919   3.792   2.663 -1.1459  0.1138  0.8881
 1609SOL    MW4 6483   2.921   3.877   2.646  0.0010 -0.0980 -0.0491
 1610SOL     OW 6484   2.686   4.028   2.730  0.4573 -0.1396 -0.2568
 1610SOL    HW2 6485   2.692   4.117   2.695  1.2574  0.1748  0.6519
 1610SOL    HW3 6486   2.764   3.983   2.696  0.9041 -0.0169  0.5873
 1610SOL    MW4 6487   2.697   4.034   2.721  0.6220 -0.0820 -0.0255
 1611SOL     OW 6488   2.701   4.285   2.622 -0.5371  0.3215  0.0631
 1611SOL    HW2 6489   2.775   4.318   2.672  0.1049 -0.1318 -0.5827
 1611SOL    HW3 6490   2.624   4.323   2.665  0.1320  1.7567  0.0006
 1611SOL    MW4 6491   2.701   4.294   2.634 -0.3641  0.4516 -0.0303
 1612SOL     OW 6492   2.952   4.380   2.720  0.8155  0.1626 -0.1330
 1612SOL    HW2 6493   2.939   4.380   2.815 -0.2641 -0.3822 -0.2730
 1612SOL    HW3 6494   2.929   4.469   2.693 -0.5411 -0.1641 -0.0923
 1612SOL    MW4 6495   2.947   4.392   2.729  0.4942  0.0482 -0.1462
 1613SOL     OW 6496   3.347   0.022   2.664 -0.2580 -0.2772 -0.0255
 1613SOL    HW2 6497   3.374  -0.065   2.694 -1.0135 -0.5673 -0.1990
 1613SOL    HW3 6498   3.265   0.039   2.709 -0.6585 -0.1011 -0.8200
 1613SOL    MW4 6499   3.340   0.013   2.674 -0.4103 -0.2922 -0.1531
 1614SOL     OW 6500   3.113   0.093   2.766  0.3577 -0.0768  0.0608
 1614SOL    HW2 6501   3.112   0.087   2.862  0.6617  1.9714  0.2164
 1614SOL    HW3 6502   3.113   0.187   2.748  1.0291 -0.4416 -1.9493
 1614SOL    MW4 6503   3.113   0.104   2.777  0.4866  0.1453 -0.1841
 1615SOL     OW 6504   3.143   0.363   2.686  0.3097  0.3901  0.6210
 1615SOL    HW2 6505   3.058   0.406   2.693 -0.1813 -0.5417  0.3997
 1615SOL    HW3 6506   3.160   0.359   2.592  0.6422  0.6604  0.6696
 1615SOL    MW4 6507   3.134   0.368   2.675  0.2887  0.3029  0.5980
 1616SOL     OW 6508   3.377   0.484   2.754  0.1317 -0.1403  0.4645
 1616SOL    HW2 6509   3.370   0.571   2.714  0.4394 -0.6623 -0.7674
 1616SOL    HW3 6510   3.295   0.441   2.732  1.3606 -1.3703 -1.9820
 1616SOL    MW4 6511   3.366   0.490   2.746  0.3343 -0.3715 -0.0207
 1617SOL     OW 6512   3.361   0.747   2.671  0.3140  0.4107 -0.1659
 1617SOL    HW2 6513   3.439   0.791   2.704  1.3863 -2.3044  1.1253
 1617SOL    HW3 6514   3.369   0.749   2.576  2.4089 -0.5473 -0.0280
 1617SOL    MW4 6515   3.372   0.753   2.663  0.7319 -0.0740  0.0226
 1618SOL     OW 6516   3.150   0.927   2.737  0.2508  0.3163 -0.3189
 1618SOL    HW2 6517   3.150   0.920   2.832 -0.4566 -1.0800 -0.4015
 1618SOL    HW3 6518   3.219   0.867   2.708 -1.5617 -1.6051 -0.7926
 1618SOL    MW4 6519   3.159   0.918   2.745 -0.0815 -0.1214 -0.3924
 1619SOL     OW 6520   3.124   1.149   2.603  0.0464  0.0174 -0.5025
 1619SOL    HW2 6521   3.129   1.067   2.653 -1.5986  0.3389  0.2256
 1619SOL    HW3 6522   3.135   1.122   2.512 -0.9141 -1.0772 -0.3067
 1619SOL    MW4 6523   3.126   1.135   2.598 -0.2973 -0.0845 -0.3808
 1620SOL     OW 6524   3.364   1.233   2.696  0.0596 -0.7516  0.0979
 1620SOL    HW2 6525   3.359   1.227   2.792  0.3767 -1.3930  0.0760
 1620SOL    HW3 6526   3.281   1.199   2.666  0.6761 -2.2840  0.0849
 1620SOL    MW4 6527   3.353   1.228   2.705  0.1829 -1.0384  0.0935
 1621SOL     OW 6528   3.393   1.497   2.607 -0.1825 -0.3249 -0.0620
 1621SOL    HW2 6529   3.323   1.537   2.658  0.7820 -0.3747  1.3378
 1621SOL    HW3 6530   3.397   1.407   2.638  0.4235 -0.3519 -0.2050
 1621SOL    MW4 6531   3.384   1.491   2.618  0.0248 -0.3350  0.1040
 1622SOL     OW 6532   3.176   1.595   2.747 -0.2808  0.0394 -0.8196
 1622SOL    HW2 6533   3.166   1.683   2.710  0.5498  0.4571 -0.0817
 1622SOL    HW3 6534   3.095   1.550   2.724 -2.2617  2.1007  1.7629
 1622SOL    MW4 6535   3.164   1.601   2.739 -0.4327  0.3663 -0.3815
 1623SOL     OW 6536   3.142   1.858   2.650  0.0618  0.2160  0.4586
 1623SOL    HW2 6537   3.219   1.912   2.671 -0.2538  1.4812 -1.5281
 1623SOL    HW3 6538   3.070   1.921   2.646 -0.4897 -0.4813 -0.8640
 1623SOL    MW4 6539   3.143   1.874   2.652 -0.0525  0.2910  0.0219
 1624SOL     OW 6540   3.340   2.083   2.720  0.4728  0.1580 -0.1493
 1624SOL    HW2 6541   3.349   2.085   2.815  0.2674  0.3604 -0.1346
 1624SOL    HW3 6542   3.329   2.174   2.695  1.0066  0.1543 -0.4134
 1624SOL    MW4 6543   3.340   2.095   2.729  0.5162  0.1843 -0.1819
 1625SOL     OW 6544   3.318   2.347   2.609  0.0484 -0.6879 -0.0181
 1625SOL    HW2 6545   3.408   2.358   2.640 -0.1508  1.4721 -0.1523
 1625SOL    HW3 6546   3.325   2.346   2.513 -0.1336  0.0711 -0.0401
 1625SOL    MW4 6547   3.331   2.348   2.600 -0.0017 -0.3028 -0.0389
 1626SOL     OW 6548   3.111   2.497   2.733 -0.0536  0.2843 -0.2374
 1626SOL    HW2 6549   3.107   2.588   2.702 -1.1190  0.9555  1.7838
 1626SOL    HW3 6550   3.189   2.461   2.691  0.3478  2.1048 -1.1177
 1626SOL    MW4 6551   3.121   2.504   2.723 -0.1411  0.6132 -0.0868
 1627SOL     OW 6552   3.141   2.735   2.630  0.3539 -0.2384  0.0096
 1627SOL    HW2 6553   3.225   2.753   2.673  1.0018 -0.0396 -1.3288
 1627SOL    HW3 6554   3.076   2.780   2.685  1.0679 -0.7119  1.2720
 1627SOL    MW4 6555   3.143   2.743   2.643  0.5336 -0.2747 -0.0002
 1628SOL     OW 6556   3.372   2.805   2.757 -0.0029 -0.3894  0.3759
 1628SOL    HW2 6557   3.380   2.803   2.853 -2.2056  2.2435  0.6571
 1628SOL    HW3 6558   3.453   2.764   2.726  1.0904 -0.6069  3.3412
 1628SOL    MW4 6559   3.384   2.799   2.766 -0.1493 -0.0710  0.8042
 1629SOL     OW 6560   3.372   3.083   2.697  0.4701 -0.1001 -0.2875
 1629SOL    HW2 6561   3.370   2.991   2.721  0.8152 -0.0595 -0.1027
 1629SOL    HW3 6562   3.378   3.083   2.602  0.1301 -0.2675 -0.3085
 1629SOL    MW4 6563   3.373   3.071   2.688  0.4706 -0.1171 -0.2658
 1630SOL     OW 6564   3.152   3.250   2.782 -0.1946 -0.3485 -0.6626
 1630SOL    HW2 6565   3.226   3.193   2.762 -0.4024 -0.4969 -1.0073
 1630SOL    HW3 6566   3.075   3.198   2.760 -0.3922 -0.0741 -0.6161
 1630SOL    MW4 6567   3.152   3.236   2.777 -0.2482 -0.3316 -0.7021
 1631SOL     OW 6568   3.152   3.505   2.671 -0.1816  0.4073 -0.1683
 1631SOL    HW2 6569   3.154   3.416   2.707  0.0353  0.4439 -0.0856
 1631SOL    HW3 6570   3.073   3.545   2.709  1.0342  1.0657  1.7992
 1631SOL    MW4 6571   3.142   3.499   2.681  0.0074  0.4990  0.1023
 1632SOL     OW 6572   3.370   3.641   2.750  0.2848 -0.2911  0.4697
 1632SOL    HW2 6573   3.379   3.626   2.844  0.1607 -0.5747  0.4365
 1632SOL    HW3 6574   3.287   3.599   2.727  1.2757 -1.9343 -0.1272
 1632SOL    MW4 6575   3.360   3.634   2.760  0.3991 -0.5455  0.3865
 1633SOL     OW 6576   3.382   3.923   2.639  0.7779  0.5033  0.1942
 1633SOL    HW2 6577   3.355   3.843   2.683  0.5377  0.5527  0.1418
 1633SOL    HW3 6578   3.380   3.901   2.546  2.9792 -0.1140  0.2768
 1633SOL    MW4 6579   3.378   3.910   2.633  1.0366  0.4287  0.1981
 1634SOL     OW 6580   3.136   4.036   2.746 -0.4660 -0.0648 -0.6437
 1634SOL    HW2 6581   3.128   4.125   2.714 -0.9308  0.1144 -0.0443
 1634SOL    HW3 6582   3.219   4.004   2.710  0.2916  1.0168  0.1407
 1634SOL    MW4 6583   3.146   4.043   2.737 -0.4275  0.1016 -0.4613
 1635SOL     OW 6584   3.212   4.318   2.644 -0.1723 -0.2605  0.2416
 1635SOL    HW2 6585   3.128   4.354   2.670 -0.0851 -0.3854  0.7038
 1635SOL    HW3 6586   3.197   4.282   2.556 -0.9155 -1.3805  0.8237
 1635SOL    MW4 6587   3.199   4.318   2.635 -0.2589 -0.4244  0.3793
 1636SOL     OW 6588   3.417   4.443   2.780 -0.3998 -0.1620 -0.0740
 1636SOL    HW2 6589   3.399   4.440   2.874 -1.3537  0.3783 -0.2375
 1636SOL    HW3 6590   3.336   4.413   2.739 -0.4782  0.9975 -0.7749
 1636SOL    MW4 6591   3.404   4.439   2.787 -0.5360  0.0625 -0.1881
 1637SOL     OW 6592   3.822   4.642   2.653 -0.3622  0.0004 -0.1221
 1637SOL    HW2 6593   3.826   4.569   2.715 -0.6821  1.0726  1.1810
 1637SOL    HW3 6594   3.740   4.687   2.674  0.5656  1.6143  0.0812
 1637SOL    MW4 6595   3.812   4.638   2.664 -0.2820  0.3552  0.0765
 1638SOL     OW 6596   3.592   0.137   2.744  0.0758 -0.3564 -0.1448
 1638SOL    HW2 6597   3.597   0.231   2.725 -0.5566 -0.3358 -0.1984
 1638SOL    HW3 6598   3.504   0.111   2.717  0.1668 -0.9171  0.0884
 1638SOL    MW4 6599   3.581   0.146   2.738  0.0043 -0.4276 -0.1211
 1639SOL     OW 6600   3.619   0.405   2.658 -0.1685  0.4031 -0.4783
 1639SOL    HW2 6601   3.689   0.454   2.702 -0.1214 -1.5611  1.7774
 1639SOL    HW3 6602   3.539   0.434   2.701 -0.2538 -0.6273  0.0676
 1639SOL    MW4 6603   3.618   0.415   2.669 -0.1733  0.0081 -0.1087
 1640SOL     OW 6604   3.842   0.537   2.780 -0.2578 -0.0121  0.1970
 1640SOL    HW2 6605   3.834   0.506   2.870  0.5473  0.0723  0.3032
 1640SOL    HW3 6606   3.912   0.484   2.742  0.2347  0.7786 -0.0116
 1640SOL    MW4 6607   3.850   0.526   2.787 -0.0868  0.1034  0.1838
 1641SOL     OW 6608   3.835   0.786   2.652 -0.0639 -0.3344  0.4124
 1641SOL    HW2 6609   3.755   0.830   2.680  0.5569  0.2620  1.2993
 1641SOL    HW3 6610   3.834   0.702   2.698 -0.9586 -1.0069 -0.8192
 1641SOL    MW4 6611   3.825   0.781   2.662 -0.1001 -0.3444  0.3669
 1642SOL     OW 6612   3.593   0.888   2.728 -0.3342 -0.4220 -0.0619
 1642SOL    HW2 6613   3.618   0.891   2.820  0.9581  0.8732 -0.4313
 1642SOL    HW3 6614   3.605   0.978   2.696 -0.3673 -0.9319 -1.5766
 1642SOL    MW4 6615   3.598   0.900   2.736 -0.1681 -0.3184 -0.3104
 1643SOL     OW 6616   3.633   1.160   2.639 -0.0009 -0.4301 -0.4428
 1643SOL    HW2 6617   3.693   1.215   2.690  0.2670 -0.4949 -0.6895
 1643SOL    HW3 6618   3.546   1.195   2.659  0.2145  0.4950 -1.0940
 1643SOL    MW4 6619   3.629   1.172   2.648  0.0632 -0.3165 -0.5610
 1644SOL     OW 6620   3.804   1.301   2.789 -0.1817 -0.0798  0.2796
 1644SOL    HW2 6621   3.876   1.255   2.747  0.5680  1.3908 -0.0979
 1644SOL    HW3 6622   3.805   1.388   2.749 -0.6930  0.7145  1.9491
 1644SOL    MW4 6623   3.814   1.307   2.778 -0.1502  0.2191  0.4499
 1645SOL     OW 6624   3.825   1.535   2.643 -0.3560  0.7788  0.0060
 1645SOL    HW2 6625   3.911   1.575   2.652 -0.5175  0.9445  0.8897
 1645SOL    HW3 6626   3.763   1.607   2.657 -0.6582  1.1052 -2.6824
 1645SOL    MW4 6627   3.828   1.549   2.646 -0.4175  0.8436 -0.2322
 1646SOL     OW 6628   3.578   1.664   2.715  0.1700  0.2850 -0.0105
 1646SOL    HW2 6629   3.568   1.755   2.686 -0.0709  0.6980  1.3282
 1646SOL    HW3 6630   3.518   1.614   2.660 -0.0368  1.0060 -0.4413
 1646SOL    MW4 6631   3.569   1.670   2.704  0.1109  0.4346  0.1097
 1647SOL     OW 6632   3.579   1.936   2.632  0.0026 -0.3551  0.4149
 1647SOL    HW2 6633   3.505   1.987   2.666  1.1872  2.4822 -1.0860
 1647SOL    HW3 6634   3.571   1.944   2.537  2.0656 -0.2398  0.2371
 1647SOL    MW4 6635   3.568   1.944   2.624  0.4308  0.0342  0.1934
 1648SOL     OW 6636   3.842   2.046   2.706 -0.3597  0.0483 -0.1980
 1648SOL    HW2 6637   3.928   2.014   2.680 -0.3279  0.3471 -0.4613
 1648SOL    HW3 6638   3.780   1.989   2.662 -0.3007  0.0952 -0.3398
 1648SOL    MW4 6639   3.845   2.034   2.697 -0.3476  0.0942 -0.2513
 1649SOL     OW 6640   3.816   2.311   2.646  0.2703  0.1642  0.1460
 1649SOL    HW2 6641   3.825   2.220   2.672  1.1146  0.4810  0.9884
 1649SOL    HW3 6642   3.798   2.308   2.552 -2.4953 -0.9736  0.6782
 1649SOL    MW4 6643   3.815   2.299   2.637  0.0169  0.0558  0.3273
 1650SOL     OW 6644   3.561   2.407   2.726  0.4114 -0.2357 -0.0209
 1650SOL    HW2 6645   3.561   2.421   2.820 -0.4024  1.0950 -0.1989
 1650SOL    HW3 6646   3.640   2.355   2.709  0.3810 -0.7662  1.4210
 1650SOL    MW4 6647   3.572   2.402   2.736  0.2999 -0.1302  0.1459
 1651SOL     OW 6648   3.605   2.712   2.667 -0.1606  0.6679  0.1310
 1651SOL    HW2 6649   3.621   2.620   2.688 -0.5363  0.6811  0.4826
 1651SOL    HW3 6650   3.604   2.715   2.571  0.7861  0.4723  0.1055
 1651SOL    MW4 6651   3.607   2.700   2.657 -0.0851  0.6440  0.1740
 1652SOL     OW 6652   3.828   2.885   2.744 -0.0437 -0.2736  0.3396
 1652SOL    HW2 6653   3.917   2.857   2.722  0.1431  1.4022 -1.1841
 1652SOL    HW3 6654   3.771   2.819   2.705  0.4647  0.0867 -1.0486
 1652SOL    MW4 6655   3.832   2.873   2.736  0.0479 -0.0048 -0.0446
 1653SOL     OW 6656   3.767   3.142   2.629 -0.3854 -0.2689 -0.2877
 1653SOL    HW2 6657   3.710   3.186   2.692  1.4074 -0.2261  1.3462
 1653SOL    HW3 6658   3.783   3.055   2.667  2.7074  0.6284  0.6182
 1653SOL    MW4 6659   3.762   3.136   2.642  0.2594 -0.1452  0.0474
 1654SOL     OW 6660   3.565   3.263   2.779  0.8766  0.5731 -0.0550
 1654SOL    HW2 6661   3.569   3.346   2.731  1.4390  0.3867 -0.3212
 1654SOL    HW3 6662   3.493   3.215   2.738 -0.7332  1.7218  1.3490
 1654SOL    MW4 6663   3.556   3.268   2.767  0.7384  0.7002  0.0954
 1655SOL     OW 6664   3.577   3.499   2.642  0.5974 -0.2116  0.3331
 1655SOL    HW2 6665   3.654   3.541   2.679  0.2540  0.2871  0.4866
 1655SOL    HW3 6666   3.504   3.553   2.672  0.0140 -1.8156  1.8794
 1655SOL    MW4 6667   3.577   3.511   2.651  0.4749 -0.3574  0.5574
 1656SOL     OW 6668   3.791   3.608   2.788  0.0804 -0.3589 -0.0049
 1656SOL    HW2 6669   3.864   3.561   2.747  0.4056 -0.9700  1.2363
 1656SOL    HW3 6670   3.809   3.700   2.771  1.4176 -0.4740  0.6938
 1656SOL    MW4 6671   3.803   3.614   2.781  0.2997 -0.4547  0.2513
 1657SOL     OW 6672   3.803   3.859   2.684 -0.5560 -0.0718  0.0492
 1657SOL    HW2 6673   3.881   3.909   2.707 -0.0657 -0.1375 -1.4196
 1657SOL    HW3 6674   3.730   3.913   2.713  0.0329 -0.0268  1.4794
 1657SOL    MW4 6675   3.804   3.872   2.691 -0.4137 -0.0744  0.0441
 1658SOL     OW 6676   3.605   4.029   2.782  0.2208 -0.1031  0.0641
 1658SOL    HW2 6677   3.613   4.123   2.765  0.7739 -0.1080  0.2798
 1658SOL    HW3 6678   3.530   4.001   2.729  0.6978  0.2619 -0.8005
 1658SOL    MW4 6679   3.596   4.038   2.773  0.3567 -0.0553 -0.0215
 1659SOL     OW 6680   3.635   4.290   2.699  0.4565 -0.4263 -0.1325
 1659SOL    HW2 6681   3.550   4.326   2.724  1.3223  1.1945  0.5708
 1659SOL    HW3 6682   3.622   4.258   2.609 -0.7487  0.2906 -0.2245
 1659SOL    MW4 6683   3.622   4.290   2.690  0.4117 -0.1178 -0.0517
 1660SOL     OW 6684   3.844   4.411   2.809  0.2923  0.1183 -0.1910
 1660SOL    HW2 6685   3.916   4.364   2.766 -0.3902 -1.8058  0.6952
 1660SOL    HW3 6686   3.765   4.376   2.768 -0.2281  0.5389  0.4440
 1660SOL    MW4 6687   3.843   4.400   2.798  0.1338 -0.0801  0.0095
 1661SOL     OW 6688   4.210   0.016   2.673  0.5013 -0.0096 -0.2467
 1661SOL    HW2 6689   4.134   0.054   2.716  0.9311 -0.9923  1.4043
 1661SOL    HW3 6690   4.285   0.044   2.725  1.0347 -1.1838 -0.3601
 1661SOL    MW4 6691   4.210   0.025   2.685  0.6280 -0.2942 -0.0439
 1662SOL     OW 6692   3.987   0.163   2.762  0.7024 -0.2728  0.1481
 1662SOL    HW2 6693   3.984   0.134   2.853  1.1375 -1.9550 -0.3535
 1662SOL    HW3 6694   3.927   0.104   2.716 -1.0964  1.8591 -0.3355
 1662SOL    MW4 6695   3.979   0.151   2.768  0.5226 -0.2134  0.0181
 1663SOL     OW 6696   4.068   0.416   2.642 -1.0102 -0.3629  0.7319
 1663SOL    HW2 6697   4.042   0.331   2.679  0.2744 -1.2063 -0.2806
 1663SOL    HW3 6698   4.048   0.409   2.549  0.9327 -0.2989  0.2875
 1663SOL    MW4 6699   4.062   0.404   2.635 -0.5846 -0.4658  0.5398
 1664SOL     OW 6700   4.285   0.522   2.784 -0.2816  0.3297 -0.1826
 1664SOL    HW2 6701   4.214   0.495   2.726 -0.8023  0.3727  0.4355
 1664SOL    HW3 6702   4.354   0.457   2.770 -0.6910 -0.0774 -0.2975
 1664SOL    MW4 6703   4.285   0.510   2.775 -0.4048  0.2817 -0.1161
 1665SOL     OW 6704   4.257   0.797   2.635 -0.0342 -0.2260  0.7328
 1665SOL    HW2 6705   4.284   0.709   2.663  0.9550  0.1216  0.8949
 1665SOL    HW3 6706   4.257   0.792   2.540 -0.0409 -0.4243  0.7422
 1665SOL    MW4 6707   4.261   0.785   2.626  0.0958 -0.2063  0.7553
 1666SOL     OW 6708   4.049   0.912   2.777 -0.0353  0.1720 -0.0843
 1666SOL    HW2 6709   4.121   0.856   2.750 -0.2263 -0.6872  1.1339
 1666SOL    HW3 6710   3.972   0.873   2.737 -0.0134  0.2430 -0.1958
 1666SOL    MW4 6711   4.049   0.900   2.768 -0.0577  0.0680  0.0615
 1667SOL     OW 6712   4.011   1.167   2.652  0.3497  0.3507  0.4541
 1667SOL    HW2 6713   4.086   1.213   2.691 -0.8274  0.8774  2.1530
 1667SOL    HW3 6714   4.006   1.084   2.699  1.1617 -0.6268 -1.1434
 1667SOL    MW4 6715   4.020   1.162   2.664  0.3009  0.2912  0.4675
 1668SOL     OW 6716   4.252   1.285   2.732 -0.2932 -0.3054  0.0062
 1668SOL    HW2 6717   4.252   1.372   2.691  0.0746 -0.1094  0.4196
 1668SOL    HW3 6718   4.338   1.249   2.712 -1.1215 -1.3819 -1.8443
 1668SOL    MW4 6719   4.263   1.292   2.724 -0.3538 -0.4216 -0.1833
 1669SOL     OW 6720   4.225   1.517   2.602 -0.8330 -0.1232  0.2315
 1669SOL    HW2 6721   4.303   1.572   2.610 -0.1889 -1.0219  0.2136
 1669SOL    HW3 6722   4.221   1.495   2.509 -2.1115  1.3532 -0.0879
 1669SOL    MW4 6723   4.235   1.522   2.591 -0.9165 -0.0470  0.1869
 1670SOL     OW 6724   4.044   1.678   2.682  0.4271 -0.3234 -0.5577
 1670SOL    HW2 6725   4.053   1.672   2.777  0.7854 -0.5814 -0.6073
 1670SOL    HW3 6726   4.111   1.619   2.647  1.4653  1.0851 -0.9956
 1670SOL    MW4 6727   4.054   1.670   2.690  0.6118 -0.1715 -0.6220
 1671SOL     OW 6728   4.092   1.964   2.633  0.0868 -0.1549 -0.5733
 1671SOL    HW2 6729   4.171   1.994   2.678  0.5362 -0.7514 -0.9530
 1671SOL    HW3 6730   4.091   1.870   2.647  0.1595 -0.3260 -1.6977
 1671SOL    MW4 6731   4.102   1.956   2.641  0.1559 -0.2561 -0.7718
 1672SOL     OW 6732   4.325   2.060   2.760  0.2138 -0.0014  0.5149
 1672SOL    HW2 6733   4.329   2.146   2.719 -0.3814 -0.2714 -0.1077
 1672SOL    HW3 6734   4.374   2.003   2.700 -0.7076 -0.4087  0.1532
 1672SOL    MW4 6735   4.332   2.064   2.747  0.0134 -0.0906  0.3848
 1673SOL     OW 6736   4.272   2.305   2.648  0.2631 -0.1485 -0.8846
 1673SOL    HW2 6737   4.186   2.331   2.679  0.6629 -1.6632  1.6846
 1673SOL    HW3 6738   4.262   2.296   2.554 -1.8793  1.5459 -0.8526
 1673SOL    MW4 6739   4.259   2.307   2.640  0.0334 -0.1249 -0.5414
 1674SOL     OW 6740   4.037   2.456   2.710  0.1121 -0.4521  0.1329
 1674SOL    HW2 6741   4.047   2.442   2.804 -1.1361 -0.4092  0.2765
 1674SOL    HW3 6742   3.961   2.404   2.685  0.3063 -0.3023 -0.8173
 1674SOL    MW4 6743   4.028   2.448   2.719 -0.0277 -0.4265  0.0265
 1675SOL     OW 6744   4.059   2.722   2.628  0.6806  0.3893  0.0355
 1675SOL    HW2 6745   4.137   2.747   2.677  1.0722 -0.7817  0.0045
 1675SOL    HW3 6746   4.038   2.634   2.657  0.1993  0.1507 -0.9971
 1675SOL    MW4 6747   4.066   2.714   2.638  0.6685  0.2034 -0.1047
 1676SOL     OW 6748   4.292   2.827   2.739  0.1722 -0.2109 -0.3825
 1676SOL    HW2 6749   4.280   2.838   2.833 -0.6746  0.5542 -0.5693
 1676SOL    HW3 6750   4.268   2.912   2.702  0.0469 -0.6497 -1.3226
 1676SOL    MW4 6751   4.287   2.840   2.746  0.0439 -0.1678 -0.5314
 1677SOL     OW 6752   4.252   3.103   2.663 -0.2167  0.0694 -0.3313
 1677SOL    HW2 6753   4.176   3.155   2.687 -0.4078  0.2485 -1.3029
 1677SOL    HW3 6754   4.251   3.100   2.567  1.0470  0.1485 -0.3643
 1677SOL    MW4 6755   4.242   3.109   2.654 -0.0753  0.1035 -0.4640
 1678SOL     OW 6756   4.019   3.225   2.736  0.3235 -0.3851 -0.3948
 1678SOL    HW2 6757   4.024   3.316   2.706  1.7304 -0.5809 -0.8185
 1678SOL    HW3 6758   3.942   3.189   2.693 -0.9965  0.9586  0.7903
 1678SOL    MW4 6759   4.010   3.232   2.726  0.3343 -0.2334 -0.2947
 1679SOL     OW 6760   4.014   3.501   2.648  0.8086 -0.5453 -0.0013
 1679SOL    HW2 6761   4.100   3.531   2.677  0.3615 -0.4823  1.2847
 1679SOL    HW3 6762   4.019   3.502   2.552  1.4051  1.9215  0.0305
 1679SOL    MW4 6763   4.026   3.505   2.639  0.8283 -0.2117  0.1724
 1680SOL     OW 6764   4.262   3.627   2.736 -0.0054  0.1873  0.0347
 1680SOL    HW2 6765   4.251   3.621   2.831 -0.1696 -1.6428 -0.0707
 1680SOL    HW3 6766   4.340   3.575   2.717  0.5122  1.2277 -0.7575
 1680SOL    MW4 6767   4.271   3.619   2.746  0.0410  0.0830 -0.0834
 1681SOL     OW 6768   4.282   3.892   2.633 -0.3723  0.0314  0.7725
 1681SOL    HW2 6769   4.263   3.806   2.670  0.8664 -0.3689  0.5248
 1681SOL    HW3 6770   4.355   3.926   2.686 -1.2073  1.1756  1.2188
 1681SOL    MW4 6771   4.289   3.885   2.645 -0.3185  0.1295  0.7987
 1682SOL     OW 6772   4.050   3.988   2.754  0.6067 -0.0750  0.0236
 1682SOL    HW2 6773   4.068   3.986   2.848  0.2797 -0.3382  0.0779
 1682SOL    HW3 6774   4.136   3.971   2.714  0.4850 -1.3390  0.2904
 1682SOL    MW4 6775   4.064   3.986   2.761  0.5479 -0.2763  0.0656
 1683SOL     OW 6776   4.032   4.254   2.680 -0.2900 -0.2381 -0.0782
 1683SOL    HW2 6777   4.027   4.164   2.712 -0.0719  0.0590  0.7980
 1683SOL    HW3 6778   4.040   4.245   2.585 -1.5552 -1.1045 -0.1043
 1683SOL    MW4 6779   4.033   4.241   2.671 -0.4282 -0.3128  0.0339
 1684SOL     OW 6780   4.271   4.403   2.774 -0.4275  0.4515  0.1172
 1684SOL    HW2 6781   4.201   4.341   2.751 -0.8396  1.2121 -0.7203
 1684SOL    HW3 6782   4.237   4.489   2.747  0.2505  1.0147  1.0109
 1684SOL    MW4 6783   4.257   4.406   2.767 -0.3920  0.6261  0.1247
 1685SOL     OW 6784   0.239   4.639   3.183  0.5447  0.6256  0.6697
 1685SOL    HW2 6785   0.239   4.636   3.279 -1.5031 -0.2518  0.6690
 1685SOL    HW3 6786   0.151   4.668   3.160  1.1054  1.0993 -0.9527
 1685SOL    MW4 6787   0.227   4.643   3.193  0.3485  0.5722  0.4556
 1686SOL     OW 6788   0.009   0.058   3.058 -0.2355 -0.0334 -0.1214
 1686SOL    HW2 6789  -0.079   0.032   3.084  0.1374 -0.1541  1.0410
 1686SOL    HW3 6790   0.016   0.150   3.082 -0.1778  0.0869 -0.5838
 1686SOL    MW4 6791  -0.001   0.067   3.065 -0.1793 -0.0334 -0.0288
 1687SOL     OW 6792   4.489   0.336   3.125 -0.1659 -0.2475 -0.1926
 1687SOL    HW2 6793   4.479   0.339   3.220 -0.2678  2.6907 -0.2786
 1687SOL    HW3 6794   4.413   0.384   3.091  0.8671  0.3584 -1.6876
 1687SOL    MW4 6795   4.477   0.342   3.133 -0.0424  0.2201 -0.4013
 1688SOL     OW 6796   0.220   0.502   3.023  0.1840  0.7119  0.1346
 1688SOL    HW2 6797   0.295   0.462   3.067  1.0596  0.9679 -1.0973
 1688SOL    HW3 6798   0.144   0.455   3.057  0.9883 -0.2655  0.6130
 1688SOL    MW4 6799   0.220   0.491   3.033  0.4057  0.6167  0.0353
 1689SOL     OW 6800   0.213   0.741   3.148 -0.3719 -0.6730 -0.1147
 1689SOL    HW2 6801   0.207   0.728   3.242  1.4389 -0.7950 -0.0118
 1689SOL    HW3 6802   0.226   0.653   3.112  0.9888 -0.4085 -0.2961
 1689SOL    MW4 6803   0.214   0.728   3.155  0.0466 -0.6542 -0.1252
 1690SOL     OW 6804   4.486   0.899   3.032  0.5960  0.0339  0.4231
 1690SOL    HW2 6805   4.566   0.855   3.060  0.7439 -0.4859 -0.7677
 1690SOL    HW3 6806   4.487   0.890   2.936 -1.2525 -0.6063  0.4560
 1690SOL    MW4 6807   4.497   0.892   3.023  0.3719 -0.1191  0.2704
 1691SOL     OW 6808   0.007   1.161   3.123 -0.0573  0.2252  0.3130
 1691SOL    HW2 6809  -0.073   1.207   3.097  1.1783  1.8578 -0.7107
 1691SOL    HW3 6810  -0.002   1.074   3.085 -1.2935  0.4429  0.0941
 1691SOL    MW4 6811  -0.005   1.156   3.114 -0.0572  0.4693  0.1488
 1692SOL     OW 6812   0.218   1.275   3.025 -0.2442 -0.3825 -0.5919
 1692SOL    HW2 6813   0.137   1.230   3.047  0.1764 -0.7428  0.2440
 1692SOL    HW3 6814   0.233   1.255   2.933 -0.6573 -1.0150 -0.5232
 1692SOL    MW4 6815   0.209   1.267   3.016 -0.2432 -0.5134 -0.4725
 1693SOL     OW 6816   0.215   1.549   3.074  1.2355 -0.2598  0.0242
 1693SOL    HW2 6817   0.137   1.582   3.030  0.7031 -0.5099  0.7713
 1693SOL    HW3 6818   0.219   1.457   3.050  1.7485 -0.0634 -0.6554
 1693SOL    MW4 6819   0.205   1.542   3.065  1.2329 -0.2670  0.0331
 1694SOL     OW 6820   4.447   1.645   2.948 -0.1077 -0.1396 -0.4114
 1694SOL    HW2 6821   4.393   1.593   3.007  0.0630 -0.3649 -0.4531
 1694SOL    HW3 6822   4.460   1.728   2.993  1.2265 -0.8292  0.5149
 1694SOL    MW4 6823   4.442   1.649   2.962  0.0911 -0.2604 -0.2947
 1695SOL     OW 6824   4.441   1.882   3.114 -0.5107 -0.2883 -0.1356
 1695SOL    HW2 6825   4.357   1.928   3.108 -0.0505  0.8714  2.0903
 1695SOL    HW3 6826   4.505   1.945   3.080 -0.2579 -0.4058  0.1290
 1695SOL    MW4 6827   4.438   1.896   3.108 -0.4168 -0.1508  0.1926
 1696SOL     OW 6828   0.175   2.037   3.027  0.6614  0.1458 -1.0011
 1696SOL    HW2 6829   0.184   2.126   3.062  2.6658 -0.6268  0.5047
 1696SOL    HW3 6830   0.160   2.050   2.933  0.8169  2.0701 -0.7743
 1696SOL    MW4 6831   0.174   2.051   3.019  0.9463  0.2978 -0.7725
 1697SOL     OW 6832   0.209   2.309   3.122 -0.3595 -1.2294  0.0380
 1697SOL    HW2 6833   0.242   2.284   3.209 -0.8709  0.1458  0.6403
 1697SOL    HW3 6834   0.285   2.347   3.077  0.1933 -2.9927 -0.5495
 1697SOL    MW4 6835   0.223   2.311   3.128 -0.3541 -1.2803  0.0401
 1698SOL     OW 6836   4.483   2.463   3.038  0.3850 -0.0934 -0.0307
 1698SOL    HW2 6837   4.478   2.557   3.056 -0.4133  0.0058 -0.8012
 1698SOL    HW3 6838   4.568   2.437   3.075  1.4114  1.2613 -1.3812
 1698SOL    MW4 6839   4.494   2.472   3.046  0.4148  0.0982 -0.3107
 1699SOL     OW 6840   4.490   2.748   3.094  0.0514 -0.4333  0.0262
 1699SOL    HW2 6841   4.491   2.725   3.187  1.8214 -1.0313 -0.1275
 1699SOL    HW3 6842   4.576   2.785   3.077  0.2727 -1.6920 -1.7061
 1699SOL    MW4 6843   4.501   2.750   3.104  0.3142 -0.6783 -0.2227
 1700SOL     OW 6844   0.246   2.861   3.018  0.2584 -0.4550 -0.5236
 1700SOL    HW2 6845   0.314   2.806   3.057  1.3381  1.8458  0.9901
 1700SOL    HW3 6846   0.249   2.840   2.925  2.1317 -1.4012 -0.2844
 1700SOL    MW4 6847   0.255   2.851   3.011  0.6480 -0.2761 -0.2921
 1701SOL     OW 6848   0.232   3.099   3.153  0.2792  0.2530  0.1202
 1701SOL    HW2 6849   0.157   3.140   3.110  0.3643  0.2916  0.0078
 1701SOL    HW3 6850   0.243   3.015   3.107  0.1796  0.1592  0.2699
 1701SOL    MW4 6851   0.224   3.093   3.141  0.2773  0.2458  0.1252
 1702SOL     OW 6852   0.014   3.224   3.047 -0.2047  0.4797  0.2325
 1702SOL    HW2 6853  -0.046   3.157   3.079  1.6548 -1.2039  0.2247
 1702SOL    HW3 6854   0.008   3.219   2.951 -0.9237  1.1302  0.2356
 1702SOL    MW4 6855   0.005   3.215   3.038 -0.0543  0.3436  0.2320
 1703SOL     OW 6856   4.480   3.470   3.144 -0.0396  0.0871  0.1011
 1703SOL    HW2 6857   4.404   3.510   3.100 -0.8517 -3.0061 -1.5451
 1703SOL    HW3 6858   4.479   3.379   3.112  4.0055 -0.1832  0.5601
 1703SOL    MW4 6859   4.470   3.463   3.134  0.3867 -0.3567 -0.0556
 1704SOL     OW 6860   0.196   3.640   3.075 -0.5380 -0.0670 -0.2194
 1704SOL    HW2 6861   0.187   3.724   3.119  0.1241 -1.4773  2.7150
 1704SOL    HW3 6862   0.120   3.589   3.105 -0.1262 -1.0279 -0.7678
 1704SOL    MW4 6863   0.185   3.644   3.085 -0.3963 -0.3798  0.0954
 1705SOL     OW 6864   0.204   3.920   3.197 -0.0299 -0.4271 -0.5791
 1705SOL    HW2 6865   0.231   3.913   3.289 -0.5380  0.2931 -0.3682
 1705SOL    HW3 6866   0.283   3.947   3.150  0.1813 -0.5948 -0.3219
 1705SOL    MW4 6867   0.218   3.922   3.203 -0.0691 -0.3541 -0.5174
 1706SOL     OW 6868   0.005   4.074   3.075 -0.3704  0.1835 -0.6973
 1706SOL    HW2 6869   0.064   4.022   3.130 -0.9786  0.6155  0.3801
 1706SOL    HW3 6870   0.014   4.036   2.987 -0.3991 -1.3939 -0.0283
 1706SOL    MW4 6871   0.014   4.062   3.070 -0.4544  0.0324 -0.4666
 1707SOL     OW 6872   0.001   4.315   3.194 -0.2304 -0.1087  0.2253
 1707SOL    HW2 6873  -0.005   4.303   3.289  0.0650 -0.2468  0.2276
 1707SOL    HW3 6874  -0.004   4.226   3.159  0.4465 -0.1268  0.1567
 1707SOL    MW4 6875  -0.000   4.301   3.202 -0.1030 -0.1292  0.2165
 1708SOL     OW 6876   0.243   4.382   3.091 -0.1193  0.1765 -0.2509
 1708SOL    HW2 6877   0.155   4.360   3.121  0.3421  0.2657  1.2019
 1708SOL    HW3 6878   0.247   4.478   3.099  0.4858  0.0729  0.7804
 1708SOL    MW4 6879   0.232   4.392   3.096  0.0214  0.1745  0.0768
 1709SOL     OW 6880   0.661   4.637   3.158  0.3265 -0.0399  0.0450
 1709SOL    HW2 6881   0.633   4.547   3.144  0.8701 -0.2905  0.5608
 1709SOL    HW3 6882   0.585   4.690   3.133  0.1081 -0.6266 -0.5404
 1709SOL    MW4 6883   0.647   4.632   3.153  0.3695 -0.1502  0.0360
 1710SOL     OW 6884   0.458   0.112   3.065  0.7509 -0.0888 -0.4824
 1710SOL    HW2 6885   0.440   0.204   3.086  0.0296  0.3642 -2.9058
 1710SOL    HW3 6886   0.389   0.063   3.110  0.6158  0.6106  0.0880
 1710SOL    MW4 6887   0.446   0.118   3.074  0.6380  0.0633 -0.7269
 1711SOL     OW 6888   0.423   0.375   3.162 -0.0846  0.1305 -0.4561
 1711SOL    HW2 6889   0.409   0.358   3.255  0.0838 -1.3652 -0.7006
 1711SOL    HW3 6890   0.511   0.414   3.158 -0.1075  0.2295  0.0040
 1711SOL    MW4 6891   0.433   0.378   3.173 -0.0654 -0.0539 -0.4277
 1712SOL     OW 6892   0.698   0.449   3.070 -0.1458  0.2666 -0.3026
 1712SOL    HW2 6893   0.784   0.419   3.097  0.5232  0.3011 -2.2979
 1712SOL    HW3 6894   0.692   0.539   3.103  0.6213  0.3029 -0.2563
 1712SOL    MW4 6895   0.708   0.457   3.078  0.0436  0.2759 -0.5598
 1713SOL     OW 6896   0.728   0.723   3.105 -0.1181  0.1628  0.2878
 1713SOL    HW2 6897   0.709   0.739   3.197 -1.0367  1.3379 -0.0865
 1713SOL    HW3 6898   0.648   0.750   3.059 -0.3238 -2.0597 -0.7220
 1713SOL    MW4 6899   0.715   0.729   3.111 -0.2664  0.0246  0.1051
 1714SOL     OW 6900   0.460   0.835   3.020  0.0552  0.8980 -0.4960
 1714SOL    HW2 6901   0.383   0.782   3.041 -0.8910  1.9136 -1.3650
 1714SOL    HW3 6902   0.475   0.819   2.927  0.2167  1.5667 -0.5852
 1714SOL    MW4 6903   0.452   0.826   3.011 -0.0483  1.1202 -0.6223
 1715SOL     OW 6904   0.440   1.122   3.109  0.1208 -0.0040 -0.2604
 1715SOL    HW2 6905   0.422   1.031   3.087 -0.6892  0.2163 -0.5160
 1715SOL    HW3 6906   0.363   1.170   3.080  0.1117  0.6326  0.7920
 1715SOL    MW4 6907   0.428   1.117   3.102  0.0127  0.1091 -0.1554
 1716SOL     OW 6908   0.678   1.258   2.973 -0.1243 -0.1909 -0.1270
 1716SOL    HW2 6909   0.758   1.216   3.006  0.8369  0.7124 -1.2286
 1716SOL    HW3 6910   0.607   1.201   3.002  0.7720 -0.1046  2.3582
 1716SOL    MW4 6911   0.679   1.245   2.981  0.1208 -0.0604  0.0558
 1717SOL     OW 6912   0.670   1.525   3.100  0.3158  0.1014 -0.2650
 1717SOL    HW2 6913   0.675   1.501   3.193 -0.5124 -0.3515 -0.3280
 1717SOL    HW3 6914   0.674   1.441   3.054  1.6903  0.3862 -0.6875
 1717SOL    MW4 6915   0.671   1.510   3.106  0.3878  0.0793 -0.3290
 1718SOL     OW 6916   0.464   1.658   2.983  0.1198 -0.3104 -0.2905
 1718SOL    HW2 6917   0.541   1.618   3.022  0.1299  0.4861  0.5477
 1718SOL    HW3 6918   0.390   1.607   3.018  0.2685 -1.2146 -1.2724
 1718SOL    MW4 6919   0.464   1.646   2.993  0.1408 -0.3247 -0.3095
 1719SOL     OW 6920   0.402   1.908   3.092 -0.3004 -0.3818  0.0371
 1719SOL    HW2 6921   0.408   1.823   3.048  0.7102  0.4962 -1.5740
 1719SOL    HW3 6922   0.326   1.950   3.054  1.1427  0.7823 -1.6557
 1719SOL    MW4 6923   0.393   1.902   3.082  0.0234 -0.1123 -0.3989
 1720SOL     OW 6924   0.632   2.042   3.009 -0.1765  0.6292 -0.1040
 1720SOL    HW2 6925   0.698   1.980   3.041 -0.3877 -0.4170 -1.6231
 1720SOL    HW3 6926   0.549   2.002   3.032 -0.2960  1.8942  1.7105
 1720SOL    MW4 6927   0.630   2.028   3.016 -0.2202  0.6583 -0.0646
 1721SOL     OW 6928   0.649   2.320   3.119 -0.6688  0.1420  0.1086
 1721SOL    HW2 6929   0.649   2.337   3.213  0.1950 -0.6572  0.2596
 1721SOL    HW3 6930   0.659   2.225   3.112 -0.3365  0.2425 -0.7967
 1721SOL    MW4 6931   0.650   2.310   3.131 -0.5110  0.0498  0.0093
 1722SOL     OW 6932   0.449   2.448   2.974  0.2556  0.5134 -0.0330
 1722SOL    HW2 6933   0.525   2.399   3.004  0.5175  0.4707 -0.7512
 1722SOL    HW3 6934   0.462   2.456   2.879 -1.7900 -1.4992 -0.5110
 1722SOL    MW4 6935   0.461   2.443   2.965  0.0203  0.2420 -0.1910
 1723SOL     OW 6936   0.431   2.682   3.123 -0.0566  0.2549 -0.0425
 1723SOL    HW2 6937   0.521   2.715   3.122  0.1769 -0.3381  0.9782
 1723SOL    HW3 6938   0.437   2.598   3.076 -0.0057  0.0617  0.3029
 1723SOL    MW4 6939   0.444   2.675   3.116 -0.0190  0.1509  0.1378
 1724SOL     OW 6940   0.670   2.861   3.066  0.3033 -0.2747 -0.1817
 1724SOL    HW2 6941   0.741   2.812   3.107  1.2604  1.1444 -0.1230
 1724SOL    HW3 6942   0.678   2.950   3.101 -1.3039 -0.0097 -0.4130
 1724SOL    MW4 6943   0.680   2.867   3.076  0.2176 -0.0525 -0.2046
 1725SOL     OW 6944   0.685   3.141   3.133  0.1312  0.0997 -0.2928
 1725SOL    HW2 6945   0.679   3.134   3.229  0.2637 -1.1264 -0.3687
 1725SOL    HW3 6946   0.599   3.175   3.106 -0.6026 -1.4249  0.0898
 1725SOL    MW4 6947   0.673   3.145   3.142  0.0519 -0.2632 -0.2522
 1726SOL     OW 6948   0.431   3.250   3.053  0.1036 -0.1817 -0.0149
 1726SOL    HW2 6949   0.425   3.326   3.111  1.9792 -1.5132  2.0400
 1726SOL    HW3 6950   0.357   3.195   3.078 -0.2674  0.1916 -0.3000
 1726SOL    MW4 6951   0.421   3.252   3.064  0.3021 -0.3078  0.2186
 1727SOL     OW 6952   0.419   3.496   3.181  0.1481 -0.3072 -0.0568
 1727SOL    HW2 6953   0.430   3.516   3.274 -1.7010 -0.0821  0.1287
 1727SOL    HW3 6954   0.349   3.554   3.151 -0.5237 -1.6502 -1.1530
 1727SOL    MW4 6955   0.411   3.506   3.189 -0.1845 -0.4549 -0.1767
 1728SOL     OW 6956   0.674   3.604   3.038 -0.3691 -0.4256  0.0123
 1728SOL    HW2 6957   0.752   3.583   3.091  0.1168 -1.2539 -1.0207
 1728SOL    HW3 6958   0.601   3.567   3.088 -0.3140  1.6757  1.7671
 1728SOL    MW4 6959   0.675   3.596   3.052 -0.2976 -0.2575  0.1075
 1729SOL     OW 6960   0.722   3.857   3.142 -0.2282  0.7617  0.3081
 1729SOL    HW2 6961   0.701   3.837   3.233  3.2575 -0.9449  0.8381
 1729SOL    HW3 6962   0.698   3.778   3.094 -0.3645  0.9678  0.0379
 1729SOL    MW4 6963   0.716   3.844   3.147  0.2137  0.5636  0.3421
 1730SOL     OW 6964   0.451   3.975   3.060 -0.1441 -0.0307 -0.0391
 1730SOL    HW2 6965   0.539   3.941   3.078 -0.2319 -0.3892 -0.2815
 1730SOL    HW3 6966   0.434   3.949   2.969 -0.7192 -0.4277  0.1796
 1730SOL    MW4 6967   0.461   3.967   3.050 -0.2315 -0.1302 -0.0422
 1731SOL     OW 6968   0.454   4.229   3.194 -0.1451  0.1046  0.4222
 1731SOL    HW2 6969   0.447   4.144   3.152  0.2593  0.7608 -1.0285
 1731SOL    HW3 6970   0.382   4.280   3.157  1.9290  1.5976 -1.7317
 1731SOL    MW4 6971   0.444   4.225   3.184  0.1819  0.3881 -0.0534
 1732SOL     OW 6972   0.655   4.384   3.074 -0.1604  0.2161 -0.3331
 1732SOL    HW2 6973   0.592   4.322   3.111  0.1390 -0.1547 -0.4339
 1732SOL    HW3 6974   0.654   4.365   2.980  0.7583 -0.4117 -0.2275
 1732SOL    MW4 6975   0.647   4.373   3.066  0.0003  0.0844 -0.3326
 1733SOL     OW 6976   1.122   4.635   3.169  0.7698 -0.3068  0.1319
 1733SOL    HW2 6977   1.197   4.660   3.116 -0.0903 -1.0105 -1.4503
 1733SOL    HW3 6978   1.047   4.674   3.124 -0.0572 -1.5847  0.3844
 1733SOL    MW4 6979   1.122   4.644   3.156  0.5471 -0.5684 -0.0436
 1734SOL     OW 6980   0.906   0.062   3.028  0.4775  0.0370 -0.2664
 1734SOL    HW2 6981   0.908   0.153   3.060  0.5505 -0.2085  0.4389
 1734SOL    HW3 6982   0.824   0.027   3.063  1.2536 -0.6733  0.8687
 1734SOL    MW4 6983   0.895   0.070   3.037  0.5895 -0.0891 -0.0236
 1735SOL     OW 6984   0.928   0.319   3.114  0.5245 -0.1433  0.0021
 1735SOL    HW2 6985   0.947   0.324   3.208  0.9337  0.7367 -0.1139
 1735SOL    HW3 6986   0.995   0.375   3.074  0.1594 -0.2673 -0.7854
 1735SOL    MW4 6987   0.940   0.327   3.121  0.5302 -0.0435 -0.1173
 1736SOL     OW 6988   1.127   0.491   3.018 -0.3631  0.2749 -0.0839
 1736SOL    HW2 6989   1.193   0.437   3.061 -0.5879  1.5191  1.8698
 1736SOL    HW3 6990   1.157   0.496   2.927  1.0897 -0.9188  0.3033
 1736SOL    MW4 6991   1.140   0.485   3.011 -0.2012  0.2815  0.2251
 1737SOL     OW 6992   1.178   0.753   3.110 -0.2493  0.8376  0.0803
 1737SOL    HW2 6993   1.170   0.746   3.205  1.9969 -1.0766  0.1752
 1737SOL    HW3 6994   1.159   0.664   3.078  0.8569  1.0251 -1.1125
 1737SOL    MW4 6995   1.174   0.740   3.118  0.1931  0.6098 -0.0644
 1738SOL     OW 6996   0.936   0.856   3.018  0.2949  0.0960 -0.1260
 1738SOL    HW2 6997   1.009   0.818   3.068  0.2342 -0.3578 -0.3792
 1738SOL    HW3 6998   0.858   0.816   3.056  0.1696  0.6465  0.2013
 1738SOL    MW4 6999   0.935   0.845   3.030  0.2703  0.1088 -0.1161
 1739SOL     OW 7000   0.921   1.139   3.098 -0.3015 -0.4581  0.2043
 1739SOL    HW2 7001   1.004   1.185   3.091 -1.2361  1.0755 -1.0730
 1739SOL    HW3 7002   0.940   1.050   3.070  0.7188  0.1270 -1.0198
 1739SOL    MW4 7003   0.934   1.133   3.093 -0.2902 -0.1785 -0.1259
 1740SOL     OW 7004   1.161   1.263   3.032 -0.4857  0.5116 -0.1289
 1740SOL    HW2 7005   1.246   1.226   3.055 -0.7295 -0.4631 -0.7521
 1740SOL    HW3 7006   1.160   1.265   2.937 -1.5308 -0.4143 -0.1582
 1740SOL    MW4 7007   1.172   1.258   3.023 -0.6557  0.2609 -0.2151
 1741SOL     OW 7008   1.143   1.525   3.138 -0.0730  0.1661  0.0552
 1741SOL    HW2 7009   1.225   1.558   3.101  0.1946  0.8350  1.2375
 1741SOL    HW3 7010   1.143   1.431   3.117  1.1982  0.0770  0.4463
 1741SOL    MW4 7011   1.154   1.517   3.130  0.1299  0.2426  0.2630
 1742SOL     OW 7012   0.901   1.643   3.020 -0.0107 -0.0449 -0.0609
 1742SOL    HW2 7013   0.978   1.610   3.067  0.0671 -2.9179 -2.0506
 1742SOL    HW3 7014   0.830   1.585   3.046 -0.7500  0.5248 -0.7762
 1742SOL    MW4 7015   0.902   1.631   3.029 -0.0980 -0.3487 -0.4177
 1743SOL     OW 7016   0.851   1.902   3.146 -0.0437  0.4642 -0.2609
 1743SOL    HW2 7017   0.882   1.890   3.235  0.8736  1.2680 -0.4746
 1743SOL    HW3 7018   0.842   1.812   3.112  0.1585  0.1751  0.4361
 1743SOL    MW4 7019   0.854   1.888   3.153  0.1039  0.5320 -0.1969
 1744SOL     OW 7020   1.040   2.056   3.039  0.0018  0.4733 -0.0916
 1744SOL    HW2 7021   0.969   1.994   3.057 -0.4768  0.8401 -0.6651
 1744SOL    HW3 7022   1.046   2.058   2.943 -0.7194  2.0988 -0.1301
 1744SOL    MW4 7023   1.031   2.048   3.028 -0.1565  0.7360 -0.1724
 1745SOL     OW 7024   1.112   2.312   3.117 -0.1459 -0.1051  0.3455
 1745SOL    HW2 7025   1.032   2.356   3.088  0.0274  0.3344  0.5308
 1745SOL    HW3 7026   1.095   2.219   3.101 -0.6032  0.0057  0.1671
 1745SOL    MW4 7027   1.099   2.305   3.111 -0.1833 -0.0327  0.3464
 1746SOL     OW 7028   0.877   2.454   3.030  0.1556 -0.7864  0.2395
 1746SOL    HW2 7029   0.789   2.430   3.059  0.3681 -0.9777  0.7396
 1746SOL    HW3 7030   0.881   2.425   2.939 -0.5076 -0.2222  0.0249
 1746SOL    MW4 7031   0.866   2.447   3.022  0.0961 -0.7374  0.2770
 1747SOL     OW 7032   0.889   2.703   3.117 -0.0228  0.1347 -0.2102
 1747SOL    HW2 7033   0.886   2.686   3.211 -0.2040 -1.8923 -0.5518
 1747SOL    HW3 7034   0.879   2.617   3.077 -1.8439  1.1786 -2.1146
 1747SOL    MW4 7035   0.887   2.690   3.124 -0.2871  0.0050 -0.5066
 1748SOL     OW 7036   1.112   2.825   3.027 -0.3695 -0.0148 -0.1334
 1748SOL    HW2 7037   1.111   2.919   3.048 -0.6843 -0.0785  0.1388
 1748SOL    HW3 7038   1.027   2.793   3.058 -0.6425 -0.2057 -1.0930
 1748SOL    MW4 7039   1.101   2.833   3.034 -0.4470 -0.0484 -0.2241
 1749SOL     OW 7040   1.132   3.101   3.082 -0.2726  0.3108 -0.2048
 1749SOL    HW2 7041   1.220   3.125   3.052  0.1720  1.5056  1.9769
 1749SOL    HW3 7042   1.078   3.177   3.061 -0.3011  0.4894  0.5070
 1749SOL    MW4 7043   1.136   3.114   3.075 -0.2178  0.4921  0.1769
 1750SOL     OW 7044   0.932   3.282   3.038 -0.2343 -0.4060 -0.1752
 1750SOL    HW2 7045   0.866   3.217   3.063 -0.3278 -0.7009 -1.1628
 1750SOL    HW3 7046   0.925   3.288   2.942  1.0404 -0.3089 -0.2744
 1750SOL    MW4 7047   0.922   3.274   3.028 -0.0784 -0.4318 -0.3185
 1751SOL     OW 7048   0.895   3.516   3.175 -0.1079 -0.0399 -0.3771
 1751SOL    HW2 7049   0.965   3.571   3.138  0.2145 -1.1260 -1.3948
 1751SOL    HW3 7050   0.898   3.436   3.124 -0.1436 -1.2912  1.5425
 1751SOL    MW4 7051   0.905   3.513   3.163 -0.0702 -0.3483 -0.2582
 1752SOL     OW 7052   1.101   3.644   3.044 -0.0378 -0.2603 -0.8734
 1752SOL    HW2 7053   1.178   3.587   3.043 -0.6834 -1.1602  0.1271
 1752SOL    HW3 7054   1.131   3.724   3.087  0.6502 -0.1362 -1.5601
 1752SOL    MW4 7055   1.115   3.647   3.049 -0.0319 -0.3624 -0.8321
 1753SOL     OW 7056   1.162   3.911   3.152 -0.1674  0.1555 -0.2420
 1753SOL    HW2 7057   1.145   3.916   3.246 -0.6821  1.2487 -0.3803
 1753SOL    HW3 7058   1.080   3.938   3.111 -0.2664 -1.2646 -1.0307
 1753SOL    MW4 7059   1.149   3.915   3.159 -0.2482  0.1123 -0.3641
 1754SOL     OW 7060   0.915   4.007   3.041 -0.2237  0.4005  0.2858
 1754SOL    HW2 7061   0.843   3.952   3.071  0.0769  0.7033  1.5845
 1754SOL    HW3 7062   0.906   4.008   2.945 -2.5397  1.2295  0.4632
 1754SOL    MW4 7063   0.904   4.000   3.032 -0.4897  0.5498  0.4807
 1755SOL     OW 7064   0.896   4.266   3.145 -0.1997 -0.3606  0.0747
 1755SOL    HW2 7065   0.892   4.178   3.108  0.8040 -0.3575 -0.0457
 1755SOL    HW3 7066   0.813   4.306   3.119 -0.1439 -0.8565 -0.9004
 1755SOL    MW4 7067   0.884   4.260   3.137 -0.0600 -0.4253 -0.0701
 1756SOL     OW 7068   1.114   4.410   2.993 -0.0801  0.6034  0.1128
 1756SOL    HW2 7069   1.039   4.359   3.027  1.9356 -1.3925  1.7594
 1756SOL    HW3 7070   1.110   4.492   3.042  0.0046 -0.3456  1.7773
 1756SOL    MW4 7071   1.103   4.414   3.004  0.1969  0.2151  0.5496
 1757SOL     OW 7072   1.571   4.616   3.122  0.0384 -0.3646 -0.2819
 1757SOL    HW2 7073   1.586   4.621   3.216  0.1091  1.1565 -0.3535
 1757SOL    HW3 7074   1.491   4.666   3.107  0.7049  0.4718 -1.1650
 1757SOL    MW4 7075   1.563   4.624   3.132  0.1357 -0.0534 -0.4077
 1758SOL     OW 7076   1.344   0.086   3.047 -0.1957  0.1654  0.3544
 1758SOL    HW2 7077   1.339   0.181   3.061 -0.3550 -0.0122  1.5498
 1758SOL    HW3 7078   1.355   0.076   2.952 -1.6779  1.3226  0.0444
 1758SOL    MW4 7079   1.345   0.097   3.036 -0.4122  0.2947  0.4711
 1759SOL     OW 7080   1.335   0.347   3.113 -0.2455 -0.0181  0.0567
 1759SOL    HW2 7081   1.339   0.343   3.208 -0.1587  1.8961  0.1490
 1759SOL    HW3 7082   1.411   0.399   3.087 -0.4258 -0.2737 -1.0455
 1759SOL    MW4 7083   1.346   0.353   3.122 -0.2578  0.2007 -0.0765
 1760SOL     OW 7084   1.577   0.476   3.025  0.4210  0.0700 -0.0896
 1760SOL    HW2 7085   1.588   0.562   3.065 -1.6410 -0.3348  1.4421
 1760SOL    HW3 7086   1.574   0.493   2.931  1.5487  1.4843  0.1137
 1760SOL    MW4 7087   1.578   0.489   3.018  0.2977  0.2032  0.1395
 1761SOL     OW 7088   1.579   0.736   3.121 -0.2583 -0.1169  0.9863
 1761SOL    HW2 7089   1.581   0.749   3.216  0.0096 -0.2386  0.9983
 1761SOL    HW3 7090   1.521   0.805   3.088 -0.3153 -0.0469  1.2330
 1761SOL    MW4 7091   1.572   0.747   3.129 -0.2304 -0.1237  1.0204
 1762SOL     OW 7092   1.377   0.884   2.967 -0.4305  0.0124 -0.1745
 1762SOL    HW2 7093   1.371   0.969   3.010 -0.9657  0.6614 -1.4940
 1762SOL    HW3 7094   1.306   0.832   3.005  0.4413 -0.1520  1.2660
 1762SOL    MW4 7095   1.367   0.888   2.978 -0.3860  0.0763 -0.1585
 1763SOL     OW 7096   1.400   1.131   3.119  0.0494  0.3645  0.4869
 1763SOL    HW2 7097   1.393   1.125   3.214  1.1716  0.6045  0.5939
 1763SOL    HW3 7098   1.477   1.186   3.104  0.5822 -0.6472 -0.5675
 1763SOL    MW4 7099   1.409   1.138   3.129  0.2677  0.2629  0.3619
 1764SOL     OW 7100   1.614   1.274   3.029  0.0344 -0.1698 -0.2224
 1764SOL    HW2 7101   1.696   1.237   3.061  0.0212 -1.1393 -1.2933
 1764SOL    HW3 7102   1.602   1.354   3.081  0.7316 -0.9608  1.1792
 1764SOL    MW4 7103   1.624   1.280   3.040  0.1246 -0.4021 -0.1788
 1765SOL     OW 7104   1.597   1.534   3.129 -0.3431  0.1692  0.0326
 1765SOL    HW2 7105   1.665   1.585   3.085  0.5965 -0.8155  0.2960
 1765SOL    HW3 7106   1.518   1.549   3.078  0.5680 -0.4038 -1.6003
 1765SOL    MW4 7107   1.596   1.543   3.117 -0.0989 -0.0362 -0.1481
 1766SOL     OW 7108   1.365   1.667   3.011 -0.1359 -0.0435  0.0405
 1766SOL    HW2 7109   1.330   1.753   3.032  0.3098  0.2046 -0.2104
 1766SOL    HW3 7110   1.362   1.663   2.915  0.6982  0.0631  0.0057
 1766SOL    MW4 7111   1.360   1.678   3.001  0.0329  0.0033  0.0029
 1767SOL     OW 7112   1.292   1.936   3.104 -0.2558 -0.0499 -0.2474
 1767SOL    HW2 7113   1.305   1.954   3.197  0.8459  2.2226 -0.8001
 1767SOL    HW3 7114   1.209   1.979   3.083  0.8366  1.8029 -0.8863
 1767SOL    MW4 7115   1.283   1.944   3.114  0.0337  0.4942 -0.4046
 1768SOL     OW 7116   1.549   2.060   3.025 -0.4033  0.2361  0.3233
 1768SOL    HW2 7117   1.462   2.019   3.025 -1.3579  2.2390 -0.6970
 1768SOL    HW3 7118   1.568   2.077   2.933  0.3055  1.4404  0.6883
 1768SOL    MW4 7119   1.540   2.057   3.013 -0.4356  0.6595  0.2370
 1769SOL     OW 7120   1.587   2.323   3.126 -0.2250 -0.0994 -0.0166
 1769SOL    HW2 7121   1.514   2.372   3.088 -0.1892 -0.0672 -0.0448
 1769SOL    HW3 7122   1.561   2.231   3.118  0.2376 -0.1439 -1.0861
 1769SOL    MW4 7123   1.574   2.317   3.120 -0.1593 -0.1011 -0.1614
 1770SOL     OW 7124   1.359   2.436   3.045 -0.0890 -0.5162 -0.2229
 1770SOL    HW2 7125   1.289   2.382   3.082 -0.7722  0.2337 -0.4308
 1770SOL    HW3 7126   1.352   2.423   2.950  0.3573 -0.8045 -0.2213
 1770SOL    MW4 7127   1.349   2.427   3.037 -0.1202 -0.4551 -0.2501
 1771SOL     OW 7128   1.379   2.709   3.099  0.2086  0.0043  0.1514
 1771SOL    HW2 7129   1.365   2.615   3.084 -0.8510  0.1610  0.1210
 1771SOL    HW3 7130   1.293   2.748   3.083 -0.1664  0.6033  3.3284
 1771SOL    MW4 7131   1.366   2.701   3.095  0.0193  0.1040  0.5665
 1772SOL     OW 7132   1.608   2.841   2.985 -0.6587  0.2304 -0.2618
 1772SOL    HW2 7133   1.691   2.799   3.009 -0.7709 -0.5663 -1.2749
 1772SOL    HW3 7134   1.541   2.787   3.026 -0.7170  0.5168  0.0264
 1772SOL    MW4 7135   1.610   2.828   2.994 -0.6813  0.1628 -0.3579
 1773SOL     OW 7136   1.598   3.098   3.072 -0.0466  0.2659 -0.3742
 1773SOL    HW2 7137   1.598   3.088   3.167  0.8589 -0.6502 -0.4590
 1773SOL    HW3 7138   1.598   3.008   3.039  0.2972  0.5795 -1.2359
 1773SOL    MW4 7139   1.598   3.085   3.080  0.1184  0.1864 -0.4992
 1774SOL     OW 7140   1.364   3.233   2.982  0.4383 -0.0753  0.3475
 1774SOL    HW2 7141   1.441   3.190   3.019 -0.1172 -0.6310  0.8521
 1774SOL    HW3 7142   1.375   3.224   2.887  0.1730 -1.6112  0.4514
 1774SOL    MW4 7143   1.376   3.226   2.974  0.3299 -0.3514  0.4280
 1775SOL     OW 7144   1.330   3.491   3.031  0.2205 -0.3067 -0.2550
 1775SOL    HW2 7145   1.336   3.504   3.125  1.8857 -1.0579 -0.2464
 1775SOL    HW3 7146   1.341   3.397   3.018 -0.6850 -0.3065 -1.1536
 1775SOL    MW4 7147   1.332   3.480   3.041  0.3208 -0.4055 -0.3722
 1776SOL     OW 7148   1.583   3.618   2.982  0.0425 -0.1397 -0.3737
 1776SOL    HW2 7149   1.511   3.558   3.002  0.3383 -0.2529  0.3629
 1776SOL    HW3 7150   1.587   3.620   2.886 -0.9304 -0.1392 -0.4122
 1776SOL    MW4 7151   1.574   3.610   2.972 -0.0468 -0.1545 -0.2816
 1777SOL     OW 7152   1.581   3.876   3.117  0.3620  0.1659 -0.3548
 1777SOL    HW2 7153   1.666   3.913   3.095  1.6178 -0.9227  2.3879
 1777SOL    HW3 7154   1.575   3.797   3.065  1.6159 -0.4140  0.3577
 1777SOL    MW4 7155   1.592   3.871   3.107  0.6931 -0.0541  0.1011
 1778SOL     OW 7156   1.363   4.002   2.994  0.3350 -0.5144 -0.5284
 1778SOL    HW2 7157   1.443   3.976   3.040  0.1103 -2.6871 -1.3126
 1778SOL    HW3 7158   1.293   3.955   3.040 -0.1741 -0.7465 -1.5353
 1778SOL    MW4 7159   1.364   3.993   3.006  0.2383 -0.8318 -0.7651
 1779SOL     OW 7160   1.301   4.259   3.115 -0.0824  0.1416 -0.4720
 1779SOL    HW2 7161   1.299   4.173   3.073 -0.2229  0.0599 -0.3013
 1779SOL    HW3 7162   1.232   4.308   3.070 -0.0359  0.1485 -0.5354
 1779SOL    MW4 7163   1.292   4.254   3.104 -0.0948  0.1316 -0.4580
 1780SOL     OW 7164   1.520   4.370   2.977  0.3547 -0.1032 -0.0982
 1780SOL    HW2 7165   1.440   4.325   3.004 -0.1126  0.3197 -0.7519
 1780SOL    HW3 7166   1.526   4.446   3.033  0.9488 -0.7723  0.7615
 1780SOL    MW4 7167   1.510   4.374   2.988  0.3715 -0.1354 -0.0710
 1781SOL     OW 7168   2.002   4.634   3.123 -0.0218  0.2734  0.1317
 1781SOL    HW2 7169   2.003   4.637   3.218  1.6463  2.8756  0.0886
 1781SOL    HW3 7170   1.929   4.690   3.098  0.6622  1.0644 -0.1239
 1781SOL    MW4 7171   1.992   4.642   3.132  0.2884  0.7210  0.0923
 1782SOL     OW 7172   1.786   0.100   3.031  0.2947  0.2286 -0.1056
 1782SOL    HW2 7173   1.705   0.053   3.048  1.5216 -2.5200 -1.4101
 1782SOL    HW3 7174   1.793   0.104   2.936  2.3465 -0.8565 -0.0434
 1782SOL    MW4 7175   1.776   0.094   3.021  0.7273 -0.2772 -0.2697
 1783SOL     OW 7176   1.819   0.379   3.110  0.2774 -0.1528 -0.3448
 1783SOL    HW2 7177   1.817   0.285   3.096  0.9711 -0.2926  0.4026
 1783SOL    HW3 7178   1.735   0.411   3.077  0.6924 -0.8173 -2.0793
 1783SOL    MW4 7179   1.808   0.371   3.104  0.4237 -0.2589 -0.4749
 1784SOL     OW 7180   2.034   0.516   3.016 -0.4140  0.2045  0.7301
 1784SOL    HW2 7181   1.958   0.472   3.053 -0.3820  0.3295  0.9414
 1784SOL    HW3 7182   2.028   0.500   2.922  0.1382 -1.0902  0.9057
 1784SOL    MW4 7183   2.024   0.508   3.008 -0.3369  0.0501  0.7811
 1785SOL     OW 7184   2.050   0.773   3.133  0.2777 -0.1336  0.3395
 1785SOL    HW2 7185   1.969   0.808   3.094  0.3065 -0.4932 -0.0589
 1785SOL    HW3 7186   2.053   0.682   3.102  1.0928  0.0223 -0.0551
 1785SOL    MW4 7187   2.040   0.765   3.124  0.3891 -0.1606  0.2348
 1786SOL     OW 7188   1.791   0.878   3.028 -0.4066 -0.2284  0.1649
 1786SOL    HW2 7189   1.715   0.822   3.049 -1.0222 -0.0338 -1.5021
 1786SOL    HW3 7190   1.809   0.860   2.936 -0.3177  1.9734 -0.2645
 1786SOL    MW4 7191   1.783   0.868   3.019 -0.4761  0.0877 -0.1113
 1787SOL     OW 7192   1.837   1.135   3.145 -0.1016 -0.1983  0.4992
 1787SOL    HW2 7193   1.816   1.139   3.238  0.2615  0.0042  0.5743
 1787SOL    HW3 7194   1.819   1.045   3.119 -0.4078 -0.1989  0.7156
 1787SOL    MW4 7195   1.832   1.124   3.154 -0.0942 -0.1717  0.5376
 1788SOL     OW 7196   2.027   1.289   3.010  0.5674 -0.4589 -0.0886
 1788SOL    HW2 7197   2.115   1.260   3.035  0.0541 -2.6120 -0.6071
 1788SOL    HW3 7198   1.969   1.236   3.065 -0.4038  0.7206  0.0169
 1788SOL    MW4 7199   2.031   1.278   3.020  0.3717 -0.5873 -0.1428
 1789SOL     OW 7200   1.984   1.568   3.061  0.5473  0.3767 -0.1462
 1789SOL    HW2 7201   1.972   1.562   3.156 -0.4474  0.3593 -0.2615
 1789SOL    HW3 7202   1.981   1.477   3.031  0.4540  0.4105 -0.2391
 1789SOL    MW4 7203   1.982   1.555   3.069  0.4039  0.3790 -0.1736
 1790SOL     OW 7204   1.764   1.701   2.997 -0.4993  0.3251  0.2139
 1790SOL    HW2 7205   1.762   1.790   3.030 -1.2833  0.1532  0.6580
 1790SOL    HW3 7206   1.851   1.668   3.020 -0.2944  0.8942  0.2577
 1790SOL    MW4 7207   1.775   1.708   3.004 -0.5757  0.3775  0.2780
 1791SOL     OW 7208   1.772   1.953   3.147 -0.2672  0.1635  0.2686
 1791SOL    HW2 7209   1.852   1.992   3.112 -0.5885  0.5093 -0.0882
 1791SOL    HW3 7210   1.701   1.996   3.099 -0.5724 -1.9872 -1.2727
 1791SOL    MW4 7211   1.773   1.963   3.136 -0.3498 -0.0746  0.0179
 1792SOL     OW 7212   2.030   2.090   3.046  0.2448 -0.1397 -0.2580
 1792SOL    HW2 7213   2.115   2.053   3.069  0.6807  0.4447 -0.9389
 1792SOL    HW3 7214   2.031   2.178   3.083 -1.1578 -1.0796  2.1845
 1792SOL    MW4 7215   2.041   2.097   3.054  0.1175 -0.1869 -0.0255
 1793SOL     OW 7216   2.002   2.357   3.147  0.2396 -0.3010 -0.0992
 1793SOL    HW2 7217   2.069   2.394   3.091 -0.7347  0.2709 -0.8881
 1793SOL    HW3 7218   1.920   2.370   3.100 -0.9324  2.5205  2.5710
 1793SOL    MW4 7219   2.000   2.363   3.134 -0.0436  0.1469  0.1488
 1794SOL     OW 7220   1.796   2.426   2.973  0.2099 -0.0460 -0.2248
 1794SOL    HW2 7221   1.815   2.516   2.999 -0.2621 -0.4034  1.4035
 1794SOL    HW3 7222   1.717   2.403   3.022 -0.1008 -1.1043 -1.1925
 1794SOL    MW4 7223   1.788   2.435   2.982  0.1068 -0.2327 -0.1376
 1795SOL     OW 7224   1.850   2.700   3.068  0.2200 -0.0047 -0.2324
 1795SOL    HW2 7225   1.839   2.680   3.161 -0.2077  1.1596 -0.0330
 1795SOL    HW3 7226   1.933   2.749   3.064 -0.2794  0.8353 -0.3316
 1795SOL    MW4 7227   1.860   2.704   3.079  0.0978  0.2596 -0.2189
 1796SOL     OW 7228   2.080   2.835   3.006 -0.1703 -0.3315 -0.4294
 1796SOL    HW2 7229   2.082   2.921   3.048  1.0671 -0.7872  0.4774
 1796SOL    HW3 7230   2.045   2.852   2.919 -0.2031  1.0502 -0.1610
 1796SOL    MW4 7231   2.076   2.849   3.000 -0.0110 -0.2096 -0.2744
 1797SOL     OW 7232   2.030   3.098   3.097 -0.1046  0.2149 -0.2227
 1797SOL    HW2 7233   2.004   3.125   3.185 -0.2914  0.6622 -0.4121
 1797SOL    HW3 7234   1.959   3.131   3.041  1.3129  2.2471 -0.8661
 1797SOL    MW4 7235   2.017   3.106   3.101  0.0579  0.5419 -0.3326
 1798SOL     OW 7236   1.810   3.212   2.973 -0.4340  0.1904  0.0893
 1798SOL    HW2 7237   1.728   3.169   2.996 -0.4271  0.0009 -0.2260
 1798SOL    HW3 7238   1.813   3.208   2.877  0.0801 -0.0664  0.1117
 1798SOL    MW4 7239   1.800   3.206   2.963 -0.3653  0.1316  0.0505
 1799SOL     OW 7240   1.796   3.482   3.069  0.0927  0.0021 -0.1880
 1799SOL    HW2 7241   1.787   3.389   3.048  0.4753 -0.3814  1.2814
 1799SOL    HW3 7242   1.712   3.521   3.042  0.2950 -0.5963 -1.6730
 1799SOL    MW4 7243   1.783   3.475   3.063  0.1698 -0.1276 -0.1900
 1800SOL     OW 7244   2.039   3.594   2.993  0.0650 -0.1229  0.3733
 1800SOL    HW2 7245   2.029   3.681   3.032 -0.8857 -0.3456  0.6380
 1800SOL    HW3 7246   1.955   3.552   3.007  0.1122 -0.6466 -0.8562
 1800SOL    MW4 7247   2.027   3.600   3.000 -0.0544 -0.2215  0.2463
 1801SOL     OW 7248   2.038   3.845   3.096 -0.3872  0.2274  0.5628
 1801SOL    HW2 7249   2.031   3.858   3.190  0.7717  0.5594  0.6078
 1801SOL    HW3 7250   1.956   3.880   3.061 -1.1254 -0.5263  1.4981
 1801SOL    MW4 7251   2.026   3.851   3.103 -0.3314  0.1717  0.6919
 1802SOL     OW 7252   1.793   4.005   3.038 -0.1111 -0.7046 -0.2050
 1802SOL    HW2 7253   1.801   4.099   3.053 -0.1334 -0.5251 -1.2823
 1802SOL    HW3 7254   1.777   3.996   2.944 -1.1773 -1.7269  0.0541
 1802SOL    MW4 7255   1.792   4.016   3.027 -0.2546 -0.8159 -0.3128
 1803SOL     OW 7256   1.767   4.263   3.092 -0.2512 -0.0191  0.2268
 1803SOL    HW2 7257   1.838   4.313   3.050 -0.0944 -1.7163 -1.6017
 1803SOL    HW3 7258   1.688   4.291   3.047 -0.1126 -1.6734 -1.1020
 1803SOL    MW4 7259   1.766   4.273   3.080 -0.2122 -0.4616 -0.1895
 1804SOL     OW 7260   1.990   4.386   2.987 -0.1036  0.2797  0.7656
 1804SOL    HW2 7261   1.994   4.473   3.029 -0.9431  0.4946  0.3937
 1804SOL    HW3 7262   2.000   4.404   2.894 -0.5890 -0.0028  0.6621
 1804SOL    MW4 7263   1.992   4.400   2.981 -0.2785  0.2708  0.7031
 1805SOL     OW 7264   2.406   4.635   3.113  0.2372  0.3116 -0.2996
 1805SOL    HW2 7265   2.422   4.540   3.109 -0.3204  0.2095 -0.1421
 1805SOL    HW3 7266   2.321   4.646   3.070  0.8133  0.8681 -1.2855
 1805SOL    MW4 7267   2.397   4.624   3.107  0.2401  0.3715 -0.4086
 1806SOL     OW 7268   2.204   0.092   2.957 -0.2478  0.4608  0.3422
 1806SOL    HW2 7269   2.237   0.174   2.995  0.9294 -0.1011  0.5501
 1806SOL    HW3 7270   2.135   0.064   3.017 -0.7051  1.3236  0.2366
 1806SOL    MW4 7271   2.199   0.099   2.970 -0.1528  0.5005  0.3560
 1807SOL     OW 7272   2.264   0.336   3.084 -0.4200  0.0540 -0.1036
 1807SOL    HW2 7273   2.273   0.345   3.179 -0.9732  0.1501 -0.0610
 1807SOL    HW3 7274   2.183   0.381   3.062 -0.2255  0.1531 -0.6433
 1807SOL    MW4 7275   2.255   0.343   3.093 -0.4671  0.0797 -0.1688
 1808SOL     OW 7276   2.449   0.522   3.027 -0.2178 -0.0534 -0.4150
 1808SOL    HW2 7277   2.384   0.456   3.050  0.0280 -0.9278 -2.1917
 1808SOL    HW3 7278   2.462   0.511   2.933  1.5512  0.9669 -0.2976
 1808SOL    MW4 7279   2.442   0.512   3.018  0.0482 -0.0342 -0.6340
 1809SOL     OW 7280   2.467   0.786   3.128  0.2300 -0.1955  0.2670
 1809SOL    HW2 7281   2.537   0.833   3.081  1.9803 -1.9068  1.0910
 1809SOL    HW3 7282   2.474   0.696   3.097 -2.6743 -0.1154 -0.7976
 1809SOL    MW4 7283   2.478   0.780   3.118  0.0777 -0.4107  0.2353
 1810SOL     OW 7284   2.255   0.907   3.015 -0.3832 -0.2232 -0.2002
 1810SOL    HW2 7285   2.336   0.863   3.040 -1.2072 -0.8620  1.3923
 1810SOL    HW3 7286   2.186   0.857   3.058 -1.2745  3.1410  2.4805
 1810SOL    MW4 7287   2.256   0.895   3.024 -0.6099  0.1363  0.3638
 1811SOL     OW 7288   2.278   1.163   3.123 -0.1663 -0.2471 -0.2152
 1811SOL    HW2 7289   2.241   1.170   3.211 -1.7440 -0.1072 -0.8570
 1811SOL    HW3 7290   2.259   1.073   3.096 -0.4928 -0.0329 -0.7310
 1811SOL    MW4 7291   2.270   1.152   3.131 -0.4177 -0.2004 -0.3681
 1812SOL     OW 7292   2.507   1.277   3.006  0.1288  0.1199  0.3156
 1812SOL    HW2 7293   2.434   1.230   3.046  0.3240 -0.3030  0.1747
 1812SOL    HW3 7294   2.503   1.254   2.914 -0.2871  1.0526  0.0894
 1812SOL    MW4 7295   2.497   1.268   2.999  0.0997  0.1872  0.2670
 1813SOL     OW 7296   2.434   1.539   3.121 -0.6838 -0.4117 -0.0766
 1813SOL    HW2 7297   2.365   1.574   3.064 -1.9671 -0.0682  1.6446
 1813SOL    HW3 7298   2.453   1.452   3.085  1.4058  1.3264 -3.4517
 1813SOL    MW4 7299   2.427   1.532   3.109 -0.5774 -0.1371 -0.2949
 1814SOL     OW 7300   2.230   1.695   2.977 -0.1396 -0.4332 -0.4369
 1814SOL    HW2 7301   2.147   1.651   2.996 -1.1097  1.6058  0.2407
 1814SOL    HW3 7302   2.241   1.687   2.883  0.2689 -3.0480 -0.1977
 1814SOL    MW4 7303   2.220   1.688   2.967 -0.2136 -0.5091 -0.3159
 1815SOL     OW 7304   2.238   1.932   3.111  0.6260 -0.0846 -0.3449
 1815SOL    HW2 7305   2.318   1.961   3.065  1.8585 -0.2842  1.6287
 1815SOL    HW3 7306   2.210   1.854   3.063  1.3451  0.2415 -1.3275
 1815SOL    MW4 7307   2.245   1.926   3.098  0.8833 -0.0679 -0.2143
 1816SOL     OW 7308   2.469   2.043   3.050 -0.4755 -0.3320  0.1986
 1816SOL    HW2 7309   2.546   1.999   3.085  0.7820  0.8534 -0.9913
 1816SOL    HW3 7310   2.475   2.030   2.955 -1.2178  0.5641  0.0216
 1816SOL    MW4 7311   2.480   2.036   3.042 -0.4075 -0.0572  0.0184
 1817SOL     OW 7312   2.383   2.285   3.147 -0.0660 -0.0421 -0.0016
 1817SOL    HW2 7313   2.401   2.295   3.241  0.8358 -0.1938 -0.1546
 1817SOL    HW3 7314   2.413   2.197   3.126 -1.8995 -0.6697 -0.0684
 1817SOL    MW4 7315   2.389   2.275   3.157 -0.1888 -0.1450 -0.0305
 1818SOL     OW 7316   2.218   2.436   2.985  0.1355  0.2717 -0.2756
 1818SOL    HW2 7317   2.227   2.525   3.019 -0.5079 -0.1696  1.0926
 1818SOL    HW3 7318   2.274   2.383   3.042  0.7028 -0.1714 -1.2313
 1818SOL    MW4 7319   2.226   2.441   2.997  0.1254  0.1550 -0.2213
 1819SOL     OW 7320   2.254   2.673   3.143 -0.1023  0.6798 -0.2552
 1819SOL    HW2 7321   2.336   2.713   3.115 -0.1906  1.5173  0.6444
 1819SOL    HW3 7322   2.186   2.729   3.106 -0.2586  0.2184 -0.6620
 1819SOL    MW4 7323   2.256   2.686   3.135 -0.1345  0.7293 -0.1903
 1820SOL     OW 7324   2.480   2.804   3.024 -0.3475  0.3547  0.3579
 1820SOL    HW2 7325   2.490   2.897   3.047 -1.0064  0.6818 -0.6040
 1820SOL    HW3 7326   2.475   2.804   2.928  0.1639 -0.7363  0.3215
 1820SOL    MW4 7327   2.481   2.817   3.014 -0.3669  0.2539  0.2263
 1821SOL     OW 7328   2.495   3.079   3.108 -0.0189  0.5988 -0.3161
 1821SOL    HW2 7329   2.575   3.113   3.067  1.0411  1.0137  2.0360
 1821SOL    HW3 7330   2.425   3.136   3.074  1.0375  1.8607 -0.4136
 1821SOL    MW4 7331   2.496   3.091   3.098  0.2606  0.8199 -0.0186
 1822SOL     OW 7332   2.268   3.197   3.003 -0.2365  0.0929 -0.1312
 1822SOL    HW2 7333   2.262   3.287   3.035  1.2736 -0.1810  0.9711
 1822SOL    HW3 7334   2.187   3.155   3.034 -0.0779  0.5743  0.9682
 1822SOL    MW4 7335   2.256   3.203   3.011 -0.0167  0.1199  0.1593
 1823SOL     OW 7336   2.273   3.464   3.080  0.6863 -0.3594 -0.1719
 1823SOL    HW2 7337   2.335   3.502   3.018  1.0620  2.1107  1.6555
 1823SOL    HW3 7338   2.188   3.500   3.054  0.5946 -0.6259 -0.2472
 1823SOL    MW4 7339   2.270   3.474   3.069  0.7238 -0.0687  0.0591
 1824SOL     OW 7340   2.491   3.606   2.975 -0.2493  0.0568  0.1413
 1824SOL    HW2 7341   2.568   3.567   3.015 -0.0813  0.0098 -0.2208
 1824SOL    HW3 7342   2.477   3.687   3.023 -0.8053 -0.6226  1.1199
 1824SOL    MW4 7343   2.500   3.611   2.986 -0.3009 -0.0389  0.2222
 1825SOL     OW 7344   2.458   3.858   3.127  0.0045 -0.1105 -0.1936
 1825SOL    HW2 7345   2.456   3.854   3.222  0.6335 -4.0863 -0.2384
 1825SOL    HW3 7346   2.540   3.903   3.106 -0.0704  0.6568  1.1115
 1825SOL    MW4 7347   2.469   3.863   3.137  0.0775 -0.5338 -0.0277
 1826SOL     OW 7348   2.221   4.005   2.991 -0.8272  0.0677  0.8897
 1826SOL    HW2 7349   2.296   3.953   3.021 -0.8428 -0.1580  0.5422
 1826SOL    HW3 7350   2.145   3.956   3.022 -0.8387 -0.0135  0.7344
 1826SOL    MW4 7351   2.221   3.991   2.999 -0.8307  0.0274  0.8233
 1827SOL     OW 7352   2.193   4.238   3.132  0.3507 -0.3714 -0.0809
 1827SOL    HW2 7353   2.216   4.159   3.084 -0.9598 -0.0433 -1.2813
 1827SOL    HW3 7354   2.126   4.280   3.079 -1.5206 -0.2596  2.2645
 1827SOL    MW4 7355   2.187   4.233   3.119 -0.0691 -0.3133  0.0703
 1828SOL     OW 7356   2.443   4.352   3.051  0.3243  0.1716  0.4663
 1828SOL    HW2 7357   2.368   4.295   3.066  0.2984  0.5677  1.9720
 1828SOL    HW3 7358   2.456   4.352   2.956 -0.9624 -0.6771  0.2885
 1828SOL    MW4 7359   2.435   4.345   3.041  0.1512  0.1121  0.6416
 1829SOL     OW 7360   2.850   4.632   3.113  0.4476  0.1648 -0.3624
 1829SOL    HW2 7361   2.927   4.682   3.086  0.0617 -0.0907 -1.9808
 1829SOL    HW3 7362   2.855   4.550   3.063 -0.3214 -0.3082  0.3019
 1829SOL    MW4 7363   2.861   4.628   3.103  0.2956  0.0687 -0.4885
 1830SOL     OW 7364   2.635   0.084   2.990 -0.1387 -0.0801  0.0654
 1830SOL    HW2 7365   2.706   0.035   3.031 -0.4144 -0.7214 -0.2190
 1830SOL    HW3 7366   2.555   0.038   3.015 -0.4548  0.5865  0.3138
 1830SOL    MW4 7367   2.634   0.072   2.998 -0.2170 -0.0767  0.0606
 1831SOL     OW 7368   2.655   0.351   3.119  0.1179  0.1038  0.0245
 1831SOL    HW2 7369   2.637   0.262   3.087  0.1797 -0.1200  0.6065
 1831SOL    HW3 7370   2.588   0.405   3.077 -0.2205 -0.2941  0.0472
 1831SOL    MW4 7371   2.644   0.346   3.109  0.0815  0.0218  0.1044
 1832SOL     OW 7372   2.889   0.462   3.016  0.4010 -0.0626  0.0243
 1832SOL    HW2 7373   2.817   0.417   3.061 -0.0112  1.0931  0.5444
 1832SOL    HW3 7374   2.869   0.452   2.923  0.4573 -1.1829  0.1331
 1832SOL    MW4 7375   2.877   0.455   3.010  0.3543 -0.0580  0.1075
 1833SOL     OW 7376   2.900   0.737   3.112  0.0984  0.2980  0.6572
 1833SOL    HW2 7377   2.924   0.746   3.205  0.2150  0.9462  0.5670
 1833SOL    HW3 7378   2.878   0.644   3.102  0.2943  0.1794  1.2847
 1833SOL    MW4 7379   2.900   0.726   3.123  0.1395  0.3679  0.7284
 1834SOL     OW 7380   2.688   0.900   3.006 -0.6337 -0.2234 -0.0424
 1834SOL    HW2 7381   2.700   0.971   3.070 -2.3690 -1.4039  1.6457
 1834SOL    HW3 7382   2.752   0.833   3.032 -0.9269 -0.4509  0.0993
 1834SOL    MW4 7383   2.698   0.900   3.018 -0.9012 -0.4091  0.1991
 1835SOL     OW 7384   2.699   1.149   3.142  0.1995 -0.1302  0.5405
 1835SOL    HW2 7385   2.774   1.177   3.088 -0.5201  0.1179 -0.3424
 1835SOL    HW3 7386   2.623   1.187   3.099 -0.7762 -3.0060 -0.4207
 1835SOL    MW4 7387   2.699   1.157   3.129 -0.0241 -0.4768  0.2971
 1836SOL     OW 7388   2.921   1.242   3.007 -0.8859  0.1351 -0.4209
 1836SOL    HW2 7389   2.990   1.204   3.062 -1.4728 -0.3940 -0.0279
 1836SOL    HW3 7390   2.918   1.334   3.031  0.0309  0.2626 -0.8095
 1836SOL    MW4 7391   2.930   1.249   3.018 -0.8426  0.0823 -0.4201
 1837SOL     OW 7392   2.917   1.505   3.103  0.2767 -0.1441  0.2924
 1837SOL    HW2 7393   2.938   1.502   3.196 -0.3477  2.4945  0.5606
 1837SOL    HW3 7394   2.995   1.544   3.062  0.6916 -1.6155 -0.3678
 1837SOL    MW4 7395   2.930   1.510   3.110  0.2491  0.0099  0.2408
 1838SOL     OW 7396   2.661   1.675   3.050 -0.1611  0.2689 -0.2841
 1838SOL    HW2 7397   2.733   1.613   3.066  1.0090  1.4863 -0.7804
 1838SOL    HW3 7398   2.583   1.628   3.081  0.6449 -1.6004 -0.9897
 1838SOL    MW4 7399   2.660   1.660   3.056  0.0997  0.1830 -0.4427
 1839SOL     OW 7400   2.710   1.932   3.111 -0.1514  0.2635 -0.1484
 1839SOL    HW2 7401   2.791   1.954   3.064  0.4014 -1.4765 -0.0315
 1839SOL    HW3 7402   2.692   1.842   3.086 -1.6931  0.4180  0.3806
 1839SOL    MW4 7403   2.718   1.923   3.102 -0.2818  0.0544 -0.0634
 1840SOL     OW 7404   2.930   2.032   2.974  0.4434 -0.5728  0.4705
 1840SOL    HW2 7405   2.922   2.110   3.029  0.2433 -1.1067  1.1956
 1840SOL    HW3 7406   2.921   2.066   2.885 -1.7869 -0.0264  0.8598
 1840SOL    MW4 7407   2.928   2.047   2.969  0.1228 -0.5715  0.6175
 1841SOL     OW 7408   2.889   2.261   3.114 -0.4124 -0.3646 -0.4346
 1841SOL    HW2 7409   2.964   2.312   3.085  0.2886 -1.7936 -1.1531
 1841SOL    HW3 7410   2.813   2.306   3.077  0.3558 -1.2647 -3.2206
 1841SOL    MW4 7411   2.889   2.273   3.105 -0.2186 -0.6721 -0.8969
 1842SOL     OW 7412   2.653   2.388   3.022  0.2464  0.6606  0.0909
 1842SOL    HW2 7413   2.658   2.480   3.049  0.2777  0.7030 -0.0567
 1842SOL    HW3 7414   2.576   2.354   3.067 -0.2646  0.9900 -0.5229
 1842SOL    MW4 7415   2.644   2.396   3.031  0.1831  0.7095 -0.0093
 1843SOL     OW 7416   2.702   2.665   3.109  0.0544 -0.0962 -0.0405
 1843SOL    HW2 7417   2.684   2.653   3.202 -0.3538  1.1969  0.0665
 1843SOL    HW3 7418   2.621   2.700   3.074  0.6760  0.8268 -0.5839
 1843SOL    MW4 7419   2.689   2.668   3.117  0.0825  0.1960 -0.0980
 1844SOL     OW 7420   2.935   2.826   3.031  0.4449  0.6101  0.0519
 1844SOL    HW2 7421   3.019   2.787   3.054  0.8182  1.2930 -0.1370
 1844SOL    HW3 7422   2.870   2.765   3.065  1.0213 -0.1398 -0.1852
 1844SOL    MW4 7423   2.938   2.813   3.038  0.5703  0.6013 -0.0043
 1845SOL     OW 7424   2.894   3.115   3.103  0.1824  0.0035 -0.3534
 1845SOL    HW2 7425   2.829   3.162   3.051  0.5212  0.6298 -0.2228
 1845SOL    HW3 7426   2.890   3.025   3.073  1.0042  0.5315 -2.0946
 1845SOL    MW4 7427   2.885   3.110   3.092  0.3352  0.1557 -0.5660
 1846SOL     OW 7428   2.693   3.254   2.982 -0.3399  0.0697 -0.0464
 1846SOL    HW2 7429   2.702   3.333   3.036 -1.4468 -0.0085  0.2624
 1846SOL    HW3 7430   2.690   3.288   2.892  2.0626  0.1604 -0.1322
 1846SOL    MW4 7431   2.694   3.269   2.977 -0.1688  0.0713 -0.0169
 1847SOL     OW 7432   2.702   3.490   3.111 -0.8348 -0.0076  0.7692
 1847SOL    HW2 7433   2.699   3.477   3.206 -1.5374  2.0056  1.0488
 1847SOL    HW3 7434   2.786   3.534   3.096 -1.2724  0.7894  0.6202
 1847SOL    MW4 7435   2.713   3.494   3.122 -0.9854  0.3631  0.7868
 1848SOL     OW 7436   2.935   3.616   3.035  0.1861  0.1116 -0.3825
 1848SOL    HW2 7437   3.007   3.567   3.074 -0.4421  0.2255  0.9542
 1848SOL    HW3 7438   2.938   3.701   3.078 -1.2317 -0.1536  0.2684
 1848SOL    MW4 7439   2.945   3.621   3.046 -0.0839  0.0916 -0.1202
 1849SOL     OW 7440   2.933   3.892   3.125  0.4114 -0.3012  0.7702
 1849SOL    HW2 7441   2.929   3.912   3.218  0.7786  0.7032  0.5757
 1849SOL    HW3 7442   2.844   3.905   3.093  0.5558  0.5983  0.7319
 1849SOL    MW4 7443   2.921   3.896   3.133  0.4790 -0.0498  0.7396
 1850SOL     OW 7444   2.681   3.990   3.021  0.1681 -0.3017 -0.2722
 1850SOL    HW2 7445   2.707   4.074   3.057  1.8591 -0.9674  0.0865
 1850SOL    HW3 7446   2.701   3.996   2.928  1.2861 -0.6909 -0.0566
 1850SOL    MW4 7447   2.687   4.002   3.013  0.5386 -0.4406 -0.1965
 1851SOL     OW 7448   2.680   4.251   3.124  0.1784  0.1586 -0.0436
 1851SOL    HW2 7449   2.691   4.248   3.219 -0.1058 -1.2747 -0.0359
 1851SOL    HW3 7450   2.592   4.284   3.111 -0.0778 -0.4140  0.2197
 1851SOL    MW4 7451   2.670   4.255   3.134  0.1070 -0.1059 -0.0081
 1852SOL     OW 7452   2.901   4.383   2.987 -0.1290  0.5575  0.8516
 1852SOL    HW2 7453   2.980   4.344   3.026  0.1534  0.3711  0.1094
 1852SOL    HW3 7454   2.831   4.323   3.009  0.2719 -0.3007 -0.1229
 1852SOL    MW4 7455   2.902   4.370   2.995 -0.0389  0.4201  0.6251
 1853SOL     OW 7456   3.313   4.652   3.159  0.0870  0.1437  0.5033
 1853SOL    HW2 7457   3.391   4.693   3.120 -0.5103 -0.5469 -1.4607
 1853SOL    HW3 7458   3.317   4.561   3.131 -0.4333 -0.3670  2.0028
 1853SOL    MW4 7459   3.324   4.646   3.151 -0.0606 -0.0148  0.4418
 1854SOL     OW 7460   3.083   0.100   3.054  0.4011 -0.3603 -0.2067
 1854SOL    HW2 7461   3.084   0.177   3.111 -1.5091 -0.1220 -0.4621
 1854SOL    HW3 7462   3.157   0.047   3.083  0.4471  0.5592  1.3916
 1854SOL    MW4 7463   3.093   0.103   3.065  0.1550 -0.2075 -0.0293
 1855SOL     OW 7464   3.103   0.384   3.192 -0.0940  0.8179  0.4655
 1855SOL    HW2 7465   3.185   0.416   3.154 -0.0555 -1.2672 -1.2878
 1855SOL    HW3 7466   3.035   0.417   3.135 -0.0934 -1.6108 -1.0230
 1855SOL    MW4 7467   3.105   0.392   3.180 -0.0887  0.2224  0.0379
 1856SOL     OW 7468   3.330   0.465   3.035  0.8193  0.5923  0.3190
 1856SOL    HW2 7469   3.403   0.415   3.069  1.6010  0.7348 -1.1195
 1856SOL    HW3 7470   3.351   0.479   2.943 -0.3517  1.8266  0.2215
 1856SOL    MW4 7471   3.342   0.461   3.028  0.7679  0.7739  0.1163
 1857SOL     OW 7472   3.353   0.743   3.099 -0.0399  0.2220  0.2054
 1857SOL    HW2 7473   3.377   0.736   3.192  0.1418  1.1115  0.2336
 1857SOL    HW3 7474   3.357   0.653   3.067 -0.1568 -0.1034  1.0737
 1857SOL    MW4 7475   3.357   0.730   3.107 -0.0312  0.2965  0.3235
 1858SOL     OW 7476   3.123   0.883   3.008  0.1592  0.1579 -0.3415
 1858SOL    HW2 7477   3.198   0.841   3.050  0.2265  1.5637  1.0001
 1858SOL    HW3 7478   3.047   0.835   3.042  0.1997  1.4267  1.6154
 1858SOL    MW4 7479   3.123   0.871   3.018  0.1736  0.5108  0.0937
 1859SOL     OW 7480   3.157   1.139   3.125 -0.2507 -0.1019 -0.4010
 1859SOL    HW2 7481   3.234   1.166   3.074  0.8059 -0.7353  0.8091
 1859SOL    HW3 7482   3.137   1.051   3.093 -0.8102  0.2761 -1.0945
 1859SOL    MW4 7483   3.165   1.131   3.114 -0.1855 -0.1355 -0.3328
 1860SOL     OW 7484   3.380   1.228   2.974 -0.1032 -0.0050 -0.5789
 1860SOL    HW2 7485   3.450   1.185   3.024 -0.3707  0.6601  0.3736
 1860SOL    HW3 7486   3.384   1.320   3.000 -1.3955  0.0246 -0.4431
 1860SOL    MW4 7487   3.390   1.234   2.984 -0.3090  0.0865 -0.4356
 1861SOL     OW 7488   3.410   1.487   3.088  0.3097  0.0637 -0.3143
 1861SOL    HW2 7489   3.421   1.500   3.183 -0.4986  0.3339 -0.2552
 1861SOL    HW3 7490   3.485   1.533   3.049  1.5241 -1.3746  0.2636
 1861SOL    MW4 7491   3.421   1.495   3.096  0.3633 -0.0905 -0.2303
 1862SOL     OW 7492   3.171   1.617   3.016 -0.3035 -0.2481  0.1416
 1862SOL    HW2 7493   3.248   1.570   3.047 -0.1717 -0.7215 -0.8610
 1862SOL    HW3 7494   3.178   1.612   2.920 -0.8871  0.8355  0.0365
 1862SOL    MW4 7495   3.182   1.610   3.007 -0.3631 -0.1676 -0.0045
 1863SOL     OW 7496   3.154   1.900   3.100 -0.0935  0.0445 -0.2074
 1863SOL    HW2 7497   3.165   1.812   3.063 -0.2433  0.1254 -0.4482
 1863SOL    HW3 7498   3.078   1.936   3.054  0.2449  0.4696 -0.4374
 1863SOL    MW4 7499   3.146   1.893   3.089 -0.0687  0.1112 -0.2694
 1864SOL     OW 7500   3.366   2.068   2.981 -0.3573 -0.1246  0.0812
 1864SOL    HW2 7501   3.447   2.029   3.013 -1.5521 -0.1637  3.2854
 1864SOL    HW3 7502   3.297   2.018   3.025 -2.0626  1.6696 -0.4941
 1864SOL    MW4 7503   3.367   2.056   2.991 -0.7401  0.1070  0.4282
 1865SOL     OW 7504   3.334   2.308   3.107  0.6963 -0.1668  0.1051
 1865SOL    HW2 7505   3.326   2.301   3.202 -1.4432 -0.4975 -0.0865
 1865SOL    HW3 7506   3.355   2.220   3.078 -0.0538 -0.3590  0.1424
 1865SOL    MW4 7507   3.336   2.296   3.116  0.3150 -0.2358  0.0849
 1866SOL     OW 7508   3.096   2.432   3.032 -0.6667 -0.2457 -0.2561
 1866SOL    HW2 7509   3.185   2.399   3.050  0.0211  0.5901 -2.0412
 1866SOL    HW3 7510   3.088   2.428   2.937 -1.5355  2.2345 -0.3176
 1866SOL    MW4 7511   3.107   2.427   3.022 -0.6905  0.1919 -0.4997
 1867SOL     OW 7512   3.154   2.700   3.111 -0.1659 -0.5517 -0.0187
 1867SOL    HW2 7513   3.142   2.695   3.206  0.8676 -0.3256  0.1315
 1867SOL    HW3 7514   3.129   2.614   3.079  0.6595 -1.0270  0.5943
 1867SOL    MW4 7515   3.149   2.688   3.120  0.0794 -0.5848  0.0820
 1868SOL     OW 7516   3.391   2.820   3.045  0.2818 -0.5687 -0.0837
 1868SOL    HW2 7517   3.389   2.907   3.086 -0.6355 -0.2363 -0.8261
 1868SOL    HW3 7518   3.315   2.775   3.081  0.0947 -0.6551 -0.5907
 1868SOL    MW4 7519   3.381   2.826   3.055  0.1359 -0.5362 -0.2484
 1869SOL     OW 7520   3.385   3.084   3.123  0.1395 -0.2986 -0.1680
 1869SOL    HW2 7521   3.393   3.091   3.218 -0.9155 -0.4482 -0.0608
 1869SOL    HW3 7522   3.298   3.118   3.104 -0.6531 -2.5802 -0.8111
 1869SOL    MW4 7523   3.375   3.089   3.133 -0.1042 -0.6194 -0.2387
 1870SOL     OW 7524   3.151   3.210   3.049  0.1955 -0.2301  0.0641
 1870SOL    HW2 7525   3.070   3.161   3.060  0.2262 -0.4907 -0.8192
 1870SOL    HW3 7526   3.153   3.231   2.956  0.4882  0.9178  0.3216
 1870SOL    MW4 7527   3.140   3.207   3.038  0.2379 -0.1130 -0.0184
 1871SOL     OW 7528   3.154   3.476   3.118 -0.2237 -0.0253 -0.0325
 1871SOL    HW2 7529   3.226   3.519   3.072 -0.4604  0.9038  0.4536
 1871SOL    HW3 7530   3.166   3.383   3.099  0.8281  0.1633 -0.3412
 1871SOL    MW4 7531   3.165   3.469   3.109 -0.1161  0.1223 -0.0091
 1872SOL     OW 7532   3.374   3.612   3.020  0.1913 -0.5981  0.1272
 1872SOL    HW2 7533   3.438   3.574   3.081 -1.4811 -0.1908  2.2103
 1872SOL    HW3 7534   3.357   3.700   3.055 -0.4087 -0.1599 -1.2384
 1872SOL    MW4 7535   3.380   3.619   3.033 -0.1087 -0.4869  0.2217
 1873SOL     OW 7536   3.390   3.890   3.136  0.3193  0.3935 -0.0832
 1873SOL    HW2 7537   3.388   3.877   3.231  1.6419  0.5061 -0.0322
 1873SOL    HW3 7538   3.304   3.925   3.115 -0.2348 -0.3154  0.9807
 1873SOL    MW4 7539   3.379   3.893   3.146  0.4206  0.3150  0.0639
 1874SOL     OW 7540   3.165   4.006   3.019 -0.1162 -0.4461 -0.6402
 1874SOL    HW2 7541   3.090   3.957   3.050 -1.1952  1.2513 -0.4937
 1874SOL    HW3 7542   3.151   4.015   2.925  0.0459 -0.3747 -0.6575
 1874SOL    MW4 7543   3.153   4.001   3.011 -0.2372 -0.2127 -0.6232
 1875SOL     OW 7544   3.119   4.262   3.117 -0.3154 -0.0147  0.0769
 1875SOL    HW2 7545   3.099   4.264   3.210  0.5683  0.2879  0.2646
 1875SOL    HW3 7546   3.144   4.171   3.100 -1.6951 -0.3692 -0.1365
 1875SOL    MW4 7547   3.120   4.250   3.127 -0.3808 -0.0215  0.0734
 1876SOL     OW 7548   3.352   4.392   3.053 -0.1141 -0.0070  0.0111
 1876SOL    HW2 7549   3.422   4.337   3.087 -0.0543  0.1050  0.0665
 1876SOL    HW3 7550   3.272   4.345   3.075 -0.0869  0.2082  0.5584
 1876SOL    MW4 7551   3.351   4.378   3.060 -0.1025  0.0362  0.0906
 1877SOL     OW 7552   3.754   0.016   3.150 -0.0636  0.1887 -0.1923
 1877SOL    HW2 7553   3.770  -0.078   3.138 -0.2030 -0.0787  1.6229
 1877SOL    HW3 7554   3.666   0.029   3.115 -1.4391 -1.0492  2.6042
 1877SOL    MW4 7555   3.744   0.005   3.144 -0.2637 -0.0095  0.4163
 1878SOL     OW 7556   3.518   0.109   3.013  0.8718  0.3942  0.0073
 1878SOL    HW2 7557   3.534   0.197   3.046 -2.1699  0.7699  0.6793
 1878SOL    HW3 7558   3.538   0.114   2.919  1.2514  1.6502  0.1566
 1878SOL    MW4 7559   3.523   0.121   3.005  0.5207  0.6095  0.1156
 1879SOL     OW 7560   3.573   0.341   3.127 -0.4649 -0.3590  0.0284
 1879SOL    HW2 7561   3.571   0.323   3.221 -1.6917  1.9594  0.4791
 1879SOL    HW3 7562   3.656   0.387   3.113 -1.5327  1.7736  0.4942
 1879SOL    MW4 7563   3.583   0.345   3.138 -0.7677  0.2283  0.1493
 1880SOL     OW 7564   3.830   0.480   3.045 -0.3514 -0.1285  0.3570
 1880SOL    HW2 7565   3.914   0.445   3.075  0.2259  0.2983 -0.7506
 1880SOL    HW3 7566   3.829   0.570   3.076  0.3846  0.4099 -1.1580
 1880SOL    MW4 7567   3.841   0.487   3.053 -0.1783 -0.0012  0.0110
 1881SOL     OW 7568   3.813   0.739   3.125 -0.2034  0.0189  0.4154
 1881SOL    HW2 7569   3.799   0.745   3.220 -0.2506 -1.3978  0.5108
 1881SOL    HW3 7570   3.895   0.787   3.110  0.2421 -0.4543  1.2966
 1881SOL    MW4 7571   3.822   0.746   3.136 -0.1512 -0.2305  0.5445
 1882SOL     OW 7572   3.626   0.879   2.997  0.1540 -0.2687 -0.1842
 1882SOL    HW2 7573   3.700   0.829   3.032  0.9783  1.3985  0.5126
 1882SOL    HW3 7574   3.549   0.840   3.040  0.7421 -1.1569  0.0773
 1882SOL    MW4 7575   3.625   0.867   3.008  0.3402 -0.1659 -0.0579
 1883SOL     OW 7576   3.586   1.126   3.117  0.2507  0.1423 -0.0593
 1883SOL    HW2 7577   3.663   1.179   3.101 -1.0705  1.8754 -0.8264
 1883SOL    HW3 7578   3.611   1.037   3.091  1.5879  0.9060 -1.3779
 1883SOL    MW4 7579   3.599   1.121   3.112  0.2527  0.4718 -0.3343
 1884SOL     OW 7580   3.801   1.291   3.059 -0.3055 -0.2130 -0.3410
 1884SOL    HW2 7581   3.824   1.382   3.080 -2.3206  0.0518  0.8908
 1884SOL    HW3 7582   3.801   1.288   2.963  0.2668  0.9577 -0.3893
 1884SOL    MW4 7583   3.804   1.303   3.049 -0.4961 -0.0235 -0.1850
 1885SOL     OW 7584   3.863   1.553   3.105  0.1332 -0.3981 -0.1730
 1885SOL    HW2 7585   3.838   1.564   3.196 -0.9267  0.2508 -0.5340
 1885SOL    HW3 7586   3.790   1.590   3.055  1.9872  1.9890 -1.2258
 1885SOL    MW4 7587   3.850   1.560   3.110  0.2379  0.0024 -0.3595
 1886SOL     OW 7588   3.617   1.644   2.977  0.4802 -0.3150  0.1999
 1886SOL    HW2 7589   3.579   1.727   3.008  0.3537 -0.6090  0.8521
 1886SOL    HW3 7590   3.604   1.645   2.883 -1.7346 -0.6956  0.4670
 1886SOL    MW4 7591   3.610   1.655   2.969  0.1712 -0.4041  0.3211
 1887SOL     OW 7592   3.596   1.919   3.084 -0.0121 -0.2964  0.1489
 1887SOL    HW2 7593   3.610   1.932   3.178 -0.1949 -0.6094  0.2214
 1887SOL    HW3 7594   3.669   1.964   3.042 -0.5599  0.8599  0.3941
 1887SOL    MW4 7595   3.607   1.927   3.091 -0.1085 -0.1851  0.1910
 1888SOL     OW 7596   3.807   2.058   2.976  0.0966 -0.0569 -0.4608
 1888SOL    HW2 7597   3.821   2.143   3.016  1.2492 -0.3965 -0.1208
 1888SOL    HW3 7598   3.805   2.075   2.882  0.4606  0.3184 -0.3964
 1888SOL    MW4 7599   3.808   2.071   2.969  0.2971 -0.0522 -0.4072
 1889SOL     OW 7600   3.811   2.331   3.082 -0.3293 -0.4721  0.2544
 1889SOL    HW2 7601   3.810   2.324   3.177  0.4522  0.7043  0.3611
 1889SOL    HW3 7602   3.723   2.360   3.059 -0.0783  0.6800  0.7432
 1889SOL    MW4 7603   3.799   2.334   3.092 -0.1929 -0.1650  0.3331
 1890SOL     OW 7604   3.557   2.424   3.012  0.2036  0.3113  0.2938
 1890SOL    HW2 7605   3.571   2.510   3.052 -1.7037  1.1281 -0.7208
 1890SOL    HW3 7606   3.473   2.395   3.047  0.9168 -1.2310  0.7547
 1890SOL    MW4 7607   3.548   2.432   3.022  0.0458  0.2158  0.2208
 1891SOL     OW 7608   3.613   2.685   3.124  0.1888 -0.3982  0.3206
 1891SOL    HW2 7609   3.675   2.725   3.063 -0.6848 -2.4354 -1.9941
 1891SOL    HW3 7610   3.528   2.719   3.097 -0.4524 -2.9377 -1.0766
 1891SOL    MW4 7611   3.610   2.695   3.112 -0.0112 -1.0023 -0.1693
 1892SOL     OW 7612   3.809   2.849   3.015  0.2391 -0.0260  0.2188
 1892SOL    HW2 7613   3.829   2.932   3.058  0.9276 -0.2465  0.3189
 1892SOL    HW3 7614   3.819   2.868   2.921  0.2200  0.0456  0.2305
 1892SOL    MW4 7615   3.813   2.863   3.008  0.3273 -0.0455  0.2339
 1893SOL     OW 7616   3.842   3.092   3.132  0.1687  0.1863 -0.1038
 1893SOL    HW2 7617   3.912   3.141   3.090  1.0049  0.5486  1.6771
 1893SOL    HW3 7618   3.763   3.143   3.114  0.4275  0.0609 -1.6536
 1893SOL    MW4 7619   3.840   3.105   3.124  0.3133  0.2177 -0.0734
 1894SOL     OW 7620   3.590   3.248   3.055 -0.2468 -0.3940  0.5458
 1894SOL    HW2 7621   3.519   3.190   3.084 -1.2590  1.7337  2.4895
 1894SOL    HW3 7622   3.572   3.263   2.963 -2.2225 -0.0853  0.9468
 1894SOL    MW4 7623   3.578   3.243   3.047 -0.6409 -0.0727  0.8550
 1895SOL     OW 7624   3.586   3.497   3.184  0.1322 -0.4703  0.1499
 1895SOL    HW2 7625   3.662   3.550   3.161 -0.9860  1.5202  0.8955
 1895SOL    HW3 7626   3.591   3.420   3.127  1.8363  0.3938 -0.8885
 1895SOL    MW4 7627   3.597   3.494   3.174  0.2096 -0.0935  0.1113
 1896SOL     OW 7628   3.826   3.618   3.073 -0.1382 -0.0981  0.5379
 1896SOL    HW2 7629   3.833   3.707   3.107  3.0898 -0.0441 -0.0493
 1896SOL    HW3 7630   3.813   3.630   2.979  2.2587 -0.1793  0.1569
 1896SOL    MW4 7631   3.825   3.632   3.065  0.6037 -0.1016  0.4101
 1897SOL     OW 7632   3.836   3.877   3.146  0.1918 -0.6536 -0.5499
 1897SOL    HW2 7633   3.822   3.874   3.241  0.9421 -0.0280 -0.4138
 1897SOL    HW3 7634   3.761   3.926   3.113  0.0854 -0.6047 -0.2457
 1897SOL    MW4 7635   3.825   3.883   3.154  0.2768 -0.5646 -0.4919
 1898SOL     OW 7636   3.629   4.015   3.048  0.1215  0.0916  0.0410
 1898SOL    HW2 7637   3.550   3.980   3.089  0.8884 -0.8706  0.7491
 1898SOL    HW3 7638   3.609   4.017   2.954 -0.7930 -0.0170  0.2355
 1898SOL    MW4 7639   3.616   4.010   3.041  0.1020 -0.0501  0.1600
 1899SOL     OW 7640   3.597   4.273   3.132 -0.3594  0.4221  0.0451
 1899SOL    HW2 7641   3.677   4.321   3.111 -0.6690  0.5304 -0.8860
 1899SOL    HW3 7642   3.612   4.185   3.097 -0.3534  0.2300  0.5264
 1899SOL    MW4 7643   3.609   4.268   3.125 -0.3994  0.4110 -0.0143
 1900SOL     OW 7644   3.816   4.423   3.084 -0.1488  0.2981  0.1698
 1900SOL    HW2 7645   3.884   4.366   3.120 -1.5370 -1.3625  0.2225
 1900SOL    HW3 7646   3.834   4.426   2.990 -0.0897 -0.2764  0.1610
 1900SOL    MW4 7647   3.827   4.415   3.076 -0.3242  0.0033  0.1755
 1901SOL     OW 7648   4.210   4.661   3.136 -0.0175  0.4144 -0.1805
 1901SOL    HW2 7649   4.216   4.656   3.232  1.9247  2.1128 -0.1707
 1901SOL    HW3 7650   4.209   4.570   3.107 -0.1320 -0.1159  1.4323
 1901SOL    MW4 7651   4.211   4.649   3.145  0.2241  0.5684  0.0334
 1902SOL     OW 7652   3.975   0.099   3.025  0.0143 -0.2952 -0.1425
 1902SOL    HW2 7653   4.044   0.053   3.073 -0.1725 -0.1218  0.3034
 1902SOL    HW3 7654   3.895   0.081   3.075  0.1405  1.5579  0.8075
 1902SOL    MW4 7655   3.974   0.091   3.038  0.0064 -0.0278  0.0417
 1903SOL     OW 7656   4.040   0.330   3.150 -0.1126 -0.1999  0.2870
 1903SOL    HW2 7657   4.111   0.370   3.100 -0.5601  0.7731  0.4151
 1903SOL    HW3 7658   4.019   0.250   3.103 -0.9169  0.9829 -1.4082
 1903SOL    MW4 7659   4.047   0.325   3.138 -0.2775  0.0846  0.0803
 1904SOL     OW 7660   4.263   0.485   3.051  0.5171  0.5700 -0.5493
 1904SOL    HW2 7661   4.281   0.575   3.076 -1.1487  0.8322 -0.2686
 1904SOL    HW3 7662   4.266   0.486   2.955  0.2570  0.9834 -0.5562
 1904SOL    MW4 7663   4.266   0.497   3.041  0.2632  0.6591 -0.5133
 1905SOL     OW 7664   4.276   0.752   3.127 -0.5197  0.4560  0.1958
 1905SOL    HW2 7665   4.202   0.813   3.122 -0.7371  0.1578 -0.3200
 1905SOL    HW3 7666   4.351   0.804   3.098 -0.5908  0.6570  0.3675
 1905SOL    MW4 7667   4.276   0.767   3.122 -0.5574  0.4432  0.1502
 1906SOL     OW 7668   4.055   0.911   3.062 -0.2612  0.0524 -0.0112
 1906SOL    HW2 7669   4.035   1.000   3.091  0.2849 -0.1097  0.9156
 1906SOL    HW3 7670   4.055   0.916   2.967 -2.5163  0.5191 -0.0078
 1906SOL    MW4 7671   4.052   0.924   3.054 -0.4869  0.0926  0.1116
 1907SOL     OW 7672   4.036   1.160   3.165  0.0988  0.1117 -0.1204
 1907SOL    HW2 7673   4.050   1.158   3.260  1.7942 -0.1403 -0.3570
 1907SOL    HW3 7674   3.947   1.194   3.155 -0.1532  0.0208  1.5599
 1907SOL    MW4 7675   4.026   1.164   3.176  0.2890  0.0664  0.0696
 1908SOL     OW 7676   4.256   1.268   3.039 -0.3623  0.1012  0.1636
 1908SOL    HW2 7677   4.179   1.228   3.080 -0.7442  0.9420  0.2821
 1908SOL    HW3 7678   4.234   1.271   2.946  0.3934 -1.5621 -0.0832
 1908SOL    MW4 7679   4.243   1.263   3.032 -0.3128 -0.0073  0.1466
 1909SOL     OW 7680   4.270   1.525   3.128  0.1124 -0.4130  0.5652
 1909SOL    HW2 7681   4.188   1.563   3.096  0.2294 -0.9954 -0.4223
 1909SOL    HW3 7682   4.268   1.434   3.100  0.2235 -0.9422  2.2056
 1909SOL    MW4 7683   4.259   1.518   3.120  0.1421 -0.5596  0.6516
 1910SOL     OW 7684   4.070   1.682   2.976 -0.1541 -0.2207 -0.2580
 1910SOL    HW2 7685   4.061   1.769   3.016 -1.7475  0.0643 -1.2240
 1910SOL    HW3 7686   4.009   1.626   3.025  0.7555 -0.7807  0.2587
 1910SOL    MW4 7687   4.061   1.686   2.988 -0.2441 -0.2570 -0.3173
 1911SOL     OW 7688   4.004   1.943   3.123 -0.1155  0.1280 -0.6590
 1911SOL    HW2 7689   4.082   1.988   3.092  0.3421 -0.0156  0.2787
 1911SOL    HW3 7690   3.932   1.985   3.075  0.4256  0.9911 -0.7273
 1911SOL    MW4 7691   4.005   1.955   3.112  0.0167  0.2230 -0.5443
 1912SOL     OW 7692   4.240   2.073   3.020 -0.0783  0.0891  0.0370
 1912SOL    HW2 7693   4.241   2.168   3.030  0.2953  0.5333 -3.4297
 1912SOL    HW3 7694   4.268   2.059   2.929 -2.6997 -3.2032 -0.3577
 1912SOL    MW4 7695   4.244   2.084   3.009 -0.3753 -0.2866 -0.4725
 1913SOL     OW 7696   4.276   2.321   3.122  0.2216 -0.4480 -0.1043
 1913SOL    HW2 7697   4.217   2.377   3.071  0.0870 -0.8301 -0.3764
 1913SOL    HW3 7698   4.364   2.355   3.104  0.0280  0.5901  0.8942
 1913SOL    MW4 7699   4.280   2.333   3.113  0.1783 -0.3614 -0.0086
 1914SOL     OW 7700   4.043   2.437   2.991 -0.3698  0.1126  0.9542
 1914SOL    HW2 7701   4.048   2.523   3.034 -0.2477 -0.4900  2.1470
 1914SOL    HW3 7702   3.960   2.400   3.019 -0.4739 -0.1252  0.3522
 1914SOL    MW4 7703   4.033   2.444   3.000 -0.3681  0.0014  1.0321
 1915SOL     OW 7704   4.027   2.696   3.124  0.6971  0.5525  0.2517
 1915SOL    HW2 7705   4.017   2.697   3.219 -0.3227  0.7502  0.1474
 1915SOL    HW3 7706   3.950   2.743   3.091 -0.5622 -2.1240 -0.7967
 1915SOL    MW4 7707   4.015   2.702   3.132  0.3963  0.2253  0.0997
 1916SOL     OW 7708   4.267   2.861   3.008  0.7872 -0.5360 -0.6103
 1916SOL    HW2 7709   4.196   2.822   3.059  0.6130 -1.6080 -1.6843
 1916SOL    HW3 7710   4.345   2.814   3.036  1.0322  0.3410  0.2385
 1916SOL    MW4 7711   4.268   2.850   3.019  0.7963 -0.5620 -0.6399
 1917SOL     OW 7712   4.266   3.102   3.138 -0.9006  0.1142  0.3918
 1917SOL    HW2 7713   4.191   3.142   3.094 -0.0988  0.8505 -0.3339
 1917SOL    HW3 7714   4.275   3.016   3.097 -0.1623  0.7926 -0.9215
 1917SOL    MW4 7715   4.258   3.096   3.127 -0.6976  0.3009  0.1228
 1918SOL     OW 7716   4.051   3.230   3.012 -0.0566 -0.0311 -0.5561
 1918SOL    HW2 7717   4.052   3.321   3.042 -0.3792  0.3944 -1.8149
 1918SOL    HW3 7718   4.040   3.236   2.918  1.1715 -1.3527 -0.7923
 1918SOL    MW4 7719   4.049   3.243   3.004  0.0629 -0.1493 -0.7534
 1919SOL     OW 7720   4.084   3.480   3.116  0.0788  0.2373  0.6385
 1919SOL    HW2 7721   4.067   3.451   3.206 -1.0062  0.6582  0.5742
 1919SOL    HW3 7722   4.002   3.522   3.088  0.2177 -0.3803 -0.7436
 1919SOL    MW4 7723   4.071   3.482   3.124 -0.0458  0.2115  0.4475
 1920SOL     OW 7724   4.286   3.629   3.017  0.0411  0.3394 -0.0854
 1920SOL    HW2 7725   4.298   3.720   3.044  0.6027  0.1430  0.3325
 1920SOL    HW3 7726   4.211   3.598   3.067 -0.3853  0.6864 -0.5107
 1920SOL    MW4 7727   4.278   3.637   3.027  0.0591  0.3593 -0.0863
 1921SOL     OW 7728   4.313   3.883   3.123  0.1128 -0.6021  0.0631
 1921SOL    HW2 7729   4.225   3.917   3.109  0.4292  0.8462  1.3643
 1921SOL    HW3 7730   4.370   3.958   3.103  1.0499 -1.5024 -0.6896
 1921SOL    MW4 7731   4.309   3.897   3.118  0.2785 -0.5298  0.1357
 1922SOL     OW 7732   4.069   3.989   3.039  0.5483 -0.2531 -0.0313
 1922SOL    HW2 7733   4.059   4.077   3.073 -1.0522  0.0172 -1.1135
 1922SOL    HW3 7734   3.990   3.943   3.069  1.9659 -1.6652  1.5741
 1922SOL    MW4 7735   4.057   3.994   3.047  0.5245 -0.4039  0.0377
 1923SOL     OW 7736   4.037   4.253   3.132  0.4124  0.1380 -0.2984
 1923SOL    HW2 7737   4.065   4.238   3.222  1.4082  0.6980 -0.5049
 1923SOL    HW3 7738   4.113   4.294   3.090  0.0399 -0.3401 -1.4560
 1923SOL    MW4 7739   4.051   4.257   3.138  0.4940  0.1483 -0.4785
 1924SOL     OW 7740   4.260   4.398   3.054  0.3910 -0.0691 -0.0568
 1924SOL    HW2 7741   4.340   4.363   3.094  1.1248  1.4838 -0.1507
 1924SOL    HW3 7742   4.283   4.410   2.962 -0.0559  0.0416 -0.1527
 1924SOL    MW4 7743   4.274   4.395   3.047  0.4287  0.1502 -0.0818
 1925SOL     OW 7744   0.189   4.636   3.451 -0.2270 -0.6318  0.5136
 1925SOL    HW2 7745   0.250   4.694   3.497 -0.5544 -0.6329  0.9548
 1925SOL    HW3 7746   0.204   4.550   3.490 -0.2815 -0.6928  0.3976
 1925SOL    MW4 7747   0.199   4.633   3.463 -0.2773 -0.6404  0.5567
 1926SOL     OW 7748   4.456   0.108   3.537  0.8234 -0.0335  0.0030
 1926SOL    HW2 7749   4.466   0.192   3.493  1.3940  0.7459  1.5473
 1926SOL    HW3 7750   4.529   0.056   3.507  0.3249 -0.0657 -1.1579
 1926SOL    MW4 7751   4.467   0.113   3.527  0.8330  0.0650  0.0534
 1927SOL     OW 7752   4.488   0.335   3.388  0.2127  0.0836 -0.2679
 1927SOL    HW2 7753   4.406   0.368   3.424 -0.9251 -0.1898 -2.5422
 1927SOL    HW3 7754   4.555   0.395   3.420 -0.8475  0.2859  1.6431
 1927SOL    MW4 7755   4.486   0.347   3.397 -0.0777  0.0742 -0.3157
 1928SOL     OW 7756   0.201   0.471   3.508 -0.1650 -0.1916  0.0737
 1928SOL    HW2 7757   0.285   0.440   3.475 -0.9217  0.1975 -2.3882
 1928SOL    HW3 7758   0.193   0.560   3.474  0.7235  1.7673  4.7010
 1928SOL    MW4 7759   0.211   0.478   3.499 -0.1476  0.1183  0.3593
 1929SOL     OW 7760   0.218   0.724   3.424 -0.3320 -0.3356  0.4769
 1929SOL    HW2 7761   0.299   0.775   3.430  0.2559 -1.3122  1.1820
 1929SOL    HW3 7762   0.151   0.781   3.460  0.0784  0.4244  0.0476
 1929SOL    MW4 7763   0.220   0.738   3.430 -0.2003 -0.3641  0.5131
 1930SOL     OW 7764   0.015   0.899   3.516  0.0796 -0.0074 -0.2799
 1930SOL    HW2 7765  -0.002   0.905   3.610 -0.6482  1.2251 -0.4756
 1930SOL    HW3 7766   0.017   0.990   3.486 -1.2545 -0.4339 -1.7293
 1930SOL    MW4 7767   0.013   0.912   3.524 -0.1924  0.0989 -0.4971
 1931SOL     OW 7768   4.484   1.152   3.440 -0.5708  0.2462  0.5708
 1931SOL    HW2 7769   4.564   1.199   3.464 -1.4828  1.9653  0.3104
 1931SOL    HW3 7770   4.475   1.166   3.346 -1.1054 -0.0508  0.5766
 1931SOL    MW4 7771   4.494   1.160   3.431 -0.7616  0.4338  0.5372
 1932SOL     OW 7772   0.245   1.284   3.472 -0.2924 -0.2177  0.1057
 1932SOL    HW2 7773   0.310   1.234   3.424 -0.1612 -0.1450  0.2080
 1932SOL    HW3 7774   0.234   1.365   3.421 -0.9179 -0.5953 -0.3654
 1932SOL    MW4 7775   0.252   1.288   3.459 -0.3576 -0.2580  0.0567
 1933SOL     OW 7776   0.214   1.522   3.351 -0.0330 -0.3233 -0.1364
 1933SOL    HW2 7777   0.288   1.576   3.377 -1.0346  1.4528 -0.9206
 1933SOL    HW3 7778   0.206   1.535   3.257  0.5571 -2.9334 -0.5969
 1933SOL    MW4 7779   0.223   1.531   3.342 -0.0873 -0.4334 -0.3009
 1934SOL     OW 7780   4.489   1.656   3.471 -0.3350  0.2344 -0.0642
 1934SOL    HW2 7781   4.409   1.614   3.441 -0.4190  0.6065 -0.3531
 1934SOL    HW3 7782   4.559   1.601   3.436 -0.4754 -0.7709  1.1687
 1934SOL    MW4 7783   4.488   1.643   3.463 -0.3648  0.1509  0.0601
 1935SOL     OW 7784   4.455   1.918   3.390 -0.6541  0.1293  0.0159
 1935SOL    HW2 7785   4.472   1.830   3.425 -1.2625  0.4870  1.2390
 1935SOL    HW3 7786   4.445   1.905   3.296 -1.2821 -1.2079  0.2555
 1935SOL    MW4 7787   4.456   1.904   3.382 -0.8168  0.0000  0.2086
 1936SOL     OW 7788   0.217   2.002   3.481 -0.2656 -0.0389  0.8205
 1936SOL    HW2 7789   0.206   2.030   3.572  0.2675  0.9853  0.5806
 1936SOL    HW3 7790   0.127   1.988   3.450 -0.6385  2.3215  0.6943
 1936SOL    MW4 7791   0.204   2.004   3.489 -0.2445  0.4077  0.7727
 1937SOL     OW 7792   0.262   2.250   3.378 -0.2465  0.3620  0.0110
 1937SOL    HW2 7793   0.177   2.291   3.391 -0.0516  0.3721  1.3064
 1937SOL    HW3 7794   0.249   2.159   3.403 -0.0152  0.2385 -0.3153
 1937SOL    MW4 7795   0.249   2.244   3.383 -0.1903  0.3469  0.1385
 1938SOL     OW 7796   0.031   2.408   3.428  0.3426 -0.2432  0.0497
 1938SOL    HW2 7797   0.026   2.410   3.524  0.4104  1.5158  0.0426
 1938SOL    HW3 7798  -0.057   2.383   3.400  0.3430 -0.8332  0.5752
 1938SOL    MW4 7799   0.019   2.405   3.437  0.3517 -0.0892  0.1180
 1939SOL     OW 7800   0.023   2.700   3.360  0.1743 -0.2895  0.0010
 1939SOL    HW2 7801   0.100   2.742   3.396  1.6558 -0.8172 -2.4676
 1939SOL    HW3 7802   0.037   2.606   3.376 -0.3328 -0.3325  0.2234
 1939SOL    MW4 7803   0.035   2.693   3.367  0.3028 -0.3648 -0.2954
 1940SOL     OW 7804   0.260   2.807   3.498  0.3262 -0.8398 -0.1258
 1940SOL    HW2 7805   0.331   2.767   3.448  0.8406  0.5024 -0.5106
 1940SOL    HW3 7806   0.254   2.896   3.463 -0.6794 -0.5337  0.7980
 1940SOL    MW4 7807   0.269   2.813   3.487  0.2614 -0.6223 -0.0548
 1941SOL     OW 7808   0.224   3.093   3.427  0.1335  0.0579 -0.0432
 1941SOL    HW2 7809   0.137   3.125   3.453 -0.2480 -0.2944 -0.8995
 1941SOL    HW3 7810   0.224   3.096   3.332  0.9277 -0.3161 -0.0602
 1941SOL    MW4 7811   0.212   3.098   3.418  0.1879 -0.0379 -0.1583
 1942SOL     OW 7812   0.007   3.222   3.505  0.3482  0.3696  0.0730
 1942SOL    HW2 7813  -0.079   3.184   3.491  0.1396  0.4475  1.0557
 1942SOL    HW3 7814  -0.001   3.313   3.475  0.5736 -0.0909 -1.3846
 1942SOL    MW4 7815  -0.005   3.229   3.499  0.3505  0.3190  0.0105
 1943SOL     OW 7816   4.466   3.498   3.437 -0.0041  0.2819 -0.2550
 1943SOL    HW2 7817   4.392   3.553   3.462  0.1682  0.1958  0.4543
 1943SOL    HW3 7818   4.462   3.494   3.341 -0.2353  1.2097 -0.2834
 1943SOL    MW4 7819   4.455   3.505   3.427 -0.0114  0.3929 -0.1652
 1944SOL     OW 7820   0.193   3.620   3.548 -0.2861  0.6484  0.1191
 1944SOL    HW2 7821   0.200   3.618   3.644  1.7403  0.1197 -0.0284
 1944SOL    HW3 7822   0.115   3.568   3.529  0.3432 -0.8131  1.4083
 1944SOL    MW4 7823   0.183   3.613   3.558  0.0643  0.3860  0.2699
 1945SOL     OW 7824   0.248   3.887   3.479  0.4129  0.2467  0.2370
 1945SOL    HW2 7825   0.176   3.932   3.522  1.1777  0.5929  1.1775
 1945SOL    HW3 7826   0.233   3.794   3.498 -0.2049  0.2607 -0.2105
 1945SOL    MW4 7827   0.237   3.880   3.488  0.4323  0.2940  0.3021
 1946SOL     OW 7828   0.004   3.998   3.553  0.6239 -0.3344  0.1180
 1946SOL    HW2 7829  -0.008   4.016   3.646  0.6583 -0.1905  0.0945
 1946SOL    HW3 7830   0.016   4.084   3.513  0.7030 -0.4033 -0.0066
 1946SOL    MW4 7831   0.004   4.012   3.560  0.6390 -0.3242  0.0985
 1947SOL     OW 7832   4.483   4.257   3.460 -0.6428  0.2091  0.0049
 1947SOL    HW2 7833   4.403   4.307   3.477 -0.1794  0.7963  0.4540
 1947SOL    HW3 7834   4.554   4.313   3.490 -0.0443 -0.2588 -0.5121
 1947SOL    MW4 7835   4.482   4.271   3.466 -0.5028  0.2251 -0.0041
 1948SOL     OW 7836   0.223   4.380   3.546 -0.2957 -0.4846  0.4238
 1948SOL    HW2 7837   0.223   4.369   3.642  0.9859  0.0345  0.4995
 1948SOL    HW3 7838   0.306   4.341   3.518 -0.2224  0.2321 -0.3671
 1948SOL    MW4 7839   0.234   4.373   3.555 -0.1169 -0.3214  0.3293
 1949SOL     OW 7840   0.631   4.663   3.418 -0.5149 -0.3499  0.0085
 1949SOL    HW2 7841   0.715   4.699   3.447 -0.3960  1.2420 -2.1714
 1949SOL    HW3 7842   0.642   4.649   3.323 -2.4342 -0.9251 -0.1604
 1949SOL    MW4 7843   0.644   4.666   3.409 -0.7524 -0.2158 -0.3014
 1950SOL     OW 7844   0.413   0.106   3.551 -0.1104  0.2703  0.5678
 1950SOL    HW2 7845   0.415   0.081   3.643 -1.4902 -0.4897  0.4087
 1950SOL    HW3 7846   0.486   0.058   3.512  0.7657  0.9576  1.3462
 1950SOL    MW4 7847   0.423   0.096   3.558 -0.1769  0.2607  0.6495
 1951SOL     OW 7848   0.435   0.354   3.440 -0.3303 -0.0504  0.0370
 1951SOL    HW2 7849   0.521   0.390   3.465 -0.5751  1.3198 -1.0597
 1951SOL    HW3 7850   0.437   0.265   3.473  0.4050  0.8656  2.6278
 1951SOL    MW4 7851   0.447   0.347   3.448 -0.2656  0.2513  0.2339
 1952SOL     OW 7852   0.694   0.484   3.491 -0.0232  0.0955  0.2193
 1952SOL    HW2 7853   0.703   0.473   3.585 -1.2923  0.0636  0.3469
 1952SOL    HW3 7854   0.772   0.443   3.454  0.2303 -0.3442  1.2295
 1952SOL    MW4 7855   0.705   0.477   3.498 -0.1572  0.0333  0.3693
 1953SOL     OW 7856   0.695   0.744   3.380 -0.0522  0.1077 -0.4723
 1953SOL    HW2 7857   0.620   0.792   3.414 -1.4661 -1.5298 -1.2233
 1953SOL    HW3 7858   0.683   0.654   3.412  1.0119 -0.4235 -1.5058
 1953SOL    MW4 7859   0.684   0.738   3.389 -0.0983 -0.1785 -0.7076
 1954SOL     OW 7860   0.461   0.853   3.467  0.0895 -0.0398  0.2733
 1954SOL    HW2 7861   0.444   0.858   3.561  0.5933 -1.1530  0.4363
 1954SOL    HW3 7862   0.451   0.943   3.436 -0.4422  0.2774  1.3252
 1954SOL    MW4 7863   0.457   0.866   3.475  0.0858 -0.1447  0.4337
 1955SOL     OW 7864   0.456   1.122   3.383  0.0635 -0.4675 -0.2737
 1955SOL    HW2 7865   0.547   1.141   3.404  0.1136  0.5750 -1.3207
 1955SOL    HW3 7866   0.453   1.121   3.287 -0.8926 -1.1553 -0.2457
 1955SOL    MW4 7867   0.467   1.125   3.373 -0.0560 -0.4208 -0.4082
 1956SOL     OW 7868   0.679   1.234   3.502  0.3381 -0.3428  0.0525
 1956SOL    HW2 7869   0.760   1.202   3.463  0.8349  1.7575 -0.7077
 1956SOL    HW3 7870   0.673   1.325   3.474 -1.5220 -0.0320  1.3462
 1956SOL    MW4 7871   0.689   1.242   3.493  0.1583 -0.0247  0.1230
 1957SOL     OW 7872   0.687   1.496   3.397  0.6301 -0.2880  0.0924
 1957SOL    HW2 7873   0.746   1.566   3.423  0.4631  0.1898 -0.7642
 1957SOL    HW3 7874   0.600   1.526   3.426  0.6071 -0.2960  0.0326
 1957SOL    MW4 7875   0.683   1.509   3.404  0.6051 -0.2263 -0.0286
 1958SOL     OW 7876   0.447   1.623   3.467  0.5995 -0.4316  0.3426
 1958SOL    HW2 7877   0.461   1.626   3.562 -0.3400  0.6457  0.4520
 1958SOL    HW3 7878   0.455   1.713   3.438  2.4324 -0.9509 -0.8525
 1958SOL    MW4 7879   0.450   1.635   3.476  0.7174 -0.3580  0.1991
 1959SOL     OW 7880   0.462   1.886   3.374  0.0285  0.2767 -0.0911
 1959SOL    HW2 7881   0.384   1.916   3.421 -0.0478 -0.7055  0.4233
 1959SOL    HW3 7882   0.439   1.893   3.282 -0.3161  0.9162  0.0374
 1959SOL    MW4 7883   0.448   1.891   3.368 -0.0270  0.2316 -0.0062
 1960SOL     OW 7884   0.677   2.048   3.493 -0.1408 -0.3322  0.5243
 1960SOL    HW2 7885   0.656   2.045   3.587 -0.6635 -0.9082  0.3904
 1960SOL    HW3 7886   0.614   1.988   3.453 -1.0872  1.2707 -0.4173
 1960SOL    MW4 7887   0.666   2.040   3.500 -0.3347 -0.1969  0.3824
 1961SOL     OW 7888   0.649   2.299   3.417  0.1820  0.3139  0.1822
 1961SOL    HW2 7889   0.722   2.346   3.458 -1.0572  0.9755  1.6793
 1961SOL    HW3 7890   0.658   2.209   3.448  0.4949  0.3378  0.1655
 1961SOL    MW4 7891   0.660   2.293   3.427  0.0598  0.4044  0.3774
 1962SOL     OW 7892   0.428   2.391   3.551  0.1334  0.4631 -0.3018
 1962SOL    HW2 7893   0.514   2.365   3.518 -0.0963  0.3715 -0.8222
 1962SOL    HW3 7894   0.366   2.340   3.500 -0.2825  1.3713 -0.7147
 1962SOL    MW4 7895   0.431   2.381   3.540  0.0482  0.5708 -0.4251
 1963SOL     OW 7896   0.475   2.659   3.404 -0.5868 -0.0970  0.2518
 1963SOL    HW2 7897   0.456   2.582   3.458  1.0569 -0.0972  0.8810
 1963SOL    HW3 7898   0.454   2.632   3.315 -1.0492 -0.9041  0.5968
 1963SOL    MW4 7899   0.470   2.645   3.399 -0.4310 -0.2036  0.3805
 1964SOL     OW 7900   0.679   2.818   3.499  0.6745  0.2789 -0.3530
 1964SOL    HW2 7901   0.765   2.782   3.476  1.0498  1.0468 -0.1798
 1964SOL    HW3 7902   0.617   2.766   3.448  1.0332 -1.9684  1.4264
 1964SOL    MW4 7903   0.682   2.807   3.489  0.7713  0.0839 -0.0954
 1965SOL     OW 7904   0.674   3.085   3.399  0.1447 -0.0853 -0.1579
 1965SOL    HW2 7905   0.591   3.115   3.436 -0.1894 -2.4264  1.1019
 1965SOL    HW3 7906   0.684   2.996   3.432  2.8386 -0.0804 -0.8526
 1965SOL    MW4 7907   0.664   3.077   3.408  0.4560 -0.3936 -0.0834
 1966SOL     OW 7908   0.458   3.236   3.514  0.0951  0.0098 -0.0117
 1966SOL    HW2 7909   0.458   3.252   3.608 -0.8512  1.1177 -0.1855
 1966SOL    HW3 7910   0.382   3.178   3.500 -1.0616  1.5585 -0.3416
 1966SOL    MW4 7911   0.448   3.230   3.525 -0.1823  0.3605 -0.0782
 1967SOL     OW 7912   0.461   3.503   3.459  0.1082 -0.2020  0.0954
 1967SOL    HW2 7913   0.450   3.408   3.463 -1.6160 -0.1056 -1.7608
 1967SOL    HW3 7914   0.378   3.538   3.492  0.4872  0.6635  0.1505
 1967SOL    MW4 7915   0.448   3.495   3.464 -0.0693 -0.0751 -0.1423
 1968SOL     OW 7916   0.684   3.619   3.574 -0.2443 -0.3899 -0.0760
 1968SOL    HW2 7917   0.759   3.571   3.541  0.2741  1.6015 -1.9186
 1968SOL    HW3 7918   0.608   3.575   3.535 -0.0506 -2.2000  1.5353
 1968SOL    MW4 7919   0.684   3.607   3.564 -0.1503 -0.3657 -0.1063
 1969SOL     OW 7920   0.674   3.852   3.438 -0.3998  0.6511  0.0333
 1969SOL    HW2 7921   0.599   3.902   3.471 -0.6412  0.3242 -0.0173
 1969SOL    HW3 7922   0.688   3.784   3.504 -0.2173  0.6443 -0.0132
 1969SOL    MW4 7923   0.666   3.850   3.451 -0.4076  0.6070  0.0205
 1970SOL     OW 7924   0.480   3.996   3.575 -0.0190 -0.0050  0.3541
 1970SOL    HW2 7925   0.476   4.086   3.541  2.2156 -0.5481 -1.5138
 1970SOL    HW3 7926   0.405   3.953   3.534  0.4422  0.3461 -0.9138
 1970SOL    MW4 7927   0.470   4.003   3.565  0.3367 -0.0300 -0.0596
 1971SOL     OW 7928   0.451   4.242   3.476 -1.2692  0.1685 -0.1093
 1971SOL    HW2 7929   0.530   4.295   3.483 -1.1814  0.0433 -0.1514
 1971SOL    HW3 7930   0.439   4.228   3.382 -1.7316  0.7726 -0.1457
 1971SOL    MW4 7931   0.459   4.247   3.465 -1.3187  0.2317 -0.1194
 1972SOL     OW 7932   0.655   4.420   3.533  0.0974 -0.1999  0.2919
 1972SOL    HW2 7933   0.736   4.376   3.506 -0.3505 -0.1241 -1.2110
 1972SOL    HW3 7934   0.662   4.507   3.495 -1.6814 -0.9078 -1.7664
 1972SOL    MW4 7935   0.667   4.425   3.524 -0.1964 -0.2837 -0.1781
 1973SOL     OW 7936   1.098   4.658   3.452  0.1504 -0.2987 -0.4221
 1973SOL    HW2 7937   1.185   4.686   3.483 -0.6143  1.5936  0.1154
 1973SOL    HW3 7938   1.107   4.653   3.357  0.4851  1.2877 -0.4948
 1973SOL    MW4 7939   1.111   4.661   3.444  0.0936  0.1607 -0.3607
 1974SOL     OW 7940   0.862   0.118   3.510  0.0132 -0.2213  0.0894
 1974SOL    HW2 7941   0.855   0.107   3.605 -1.1157 -0.0028  0.0363
 1974SOL    HW3 7942   0.935   0.062   3.485 -1.0508 -1.9710  0.7957
 1974SOL    MW4 7943   0.871   0.109   3.519 -0.2761 -0.4233  0.1755
 1975SOL     OW 7944   0.932   0.365   3.383  0.6185 -0.9085  0.0437
 1975SOL    HW2 7945   1.006   0.394   3.436 -0.4941 -0.4703  1.3809
 1975SOL    HW3 7946   0.900   0.286   3.426  0.1730 -0.9785 -0.4087
 1975SOL    MW4 7947   0.937   0.359   3.395  0.4129 -0.8599  0.1605
 1976SOL     OW 7948   1.155   0.489   3.519  0.7063 -0.3660  0.3574
 1976SOL    HW2 7949   1.146   0.470   3.612 -0.1057 -0.1645  0.3321
 1976SOL    HW3 7950   1.165   0.585   3.515 -1.4702 -0.1079  0.1246
 1976SOL    MW4 7951   1.155   0.499   3.530  0.3120 -0.3054  0.3233
 1977SOL     OW 7952   1.154   0.766   3.389  0.1235 -0.7325 -0.3670
 1977SOL    HW2 7953   1.235   0.811   3.412  0.1660 -0.4071 -1.1336
 1977SOL    HW3 7954   1.086   0.813   3.438  0.3564 -0.7732 -0.0103
 1977SOL    MW4 7955   1.156   0.778   3.399  0.1600 -0.6950 -0.4208
 1978SOL     OW 7956   0.916   0.871   3.499  0.3520  0.3547  0.4623
 1978SOL    HW2 7957   0.899   0.960   3.469 -0.2129 -0.2966 -1.1754
 1978SOL    HW3 7958   0.854   0.817   3.451  0.6627 -0.9298  1.4784
 1978SOL    MW4 7959   0.905   0.876   3.489  0.3185  0.0993  0.3798
 1979SOL     OW 7960   0.902   1.123   3.385  0.0011  0.4571  0.1438
 1979SOL    HW2 7961   0.977   1.172   3.418  0.2197 -0.2385  0.6985
 1979SOL    HW3 7962   0.912   1.124   3.289  0.8399  0.1738  0.2272
 1979SOL    MW4 7963   0.913   1.129   3.376  0.1406  0.3278  0.2279
 1980SOL     OW 7964   1.117   1.259   3.492 -0.2228 -0.2660 -0.0893
 1980SOL    HW2 7965   1.115   1.251   3.588 -0.5221 -0.0095 -0.0728
 1980SOL    HW3 7966   1.101   1.352   3.476 -0.3123 -0.3342 -0.3932
 1980SOL    MW4 7967   1.114   1.270   3.503 -0.2741 -0.2412 -0.1273
 1981SOL     OW 7968   1.097   1.556   3.432 -0.2483  0.2079 -0.2490
 1981SOL    HW2 7969   1.177   1.602   3.458  0.1391 -1.0337  0.7875
 1981SOL    HW3 7970   1.114   1.527   3.343  0.5950 -0.3616  0.0945
 1981SOL    MW4 7971   1.109   1.558   3.424 -0.0861 -0.0310 -0.0668
 1982SOL     OW 7972   0.871   1.666   3.524 -0.2620  0.1423 -0.1968
 1982SOL    HW2 7973   0.879   1.759   3.505 -0.1333  0.1953  0.1064
 1982SOL    HW3 7974   0.953   1.628   3.493  0.1501  0.3025  0.6720
 1982SOL    MW4 7975   0.883   1.673   3.517 -0.1906  0.1704 -0.0422
 1983SOL     OW 7976   0.904   1.912   3.427 -0.4081 -0.3083  0.3069
 1983SOL    HW2 7977   0.980   1.964   3.453  0.5385 -0.8789 -1.3230
 1983SOL    HW3 7978   0.829   1.961   3.462  0.6228  0.9263  0.8080
 1983SOL    MW4 7979   0.904   1.926   3.435 -0.1473 -0.2207  0.1581
 1984SOL     OW 7980   1.132   2.047   3.498  0.1488 -0.0495  0.0569
 1984SOL    HW2 7981   1.210   2.014   3.453  0.2735 -0.2621  0.4291
 1984SOL    HW3 7982   1.118   2.134   3.460 -0.1070 -0.4703 -0.8317
 1984SOL    MW4 7983   1.141   2.054   3.487  0.1315 -0.1328 -0.0112
 1985SOL     OW 7984   1.070   2.295   3.389 -0.0704 -0.3677 -0.1141
 1985SOL    HW2 7985   1.137   2.355   3.421 -0.4807 -0.6694  1.3505
 1985SOL    HW3 7986   1.082   2.294   3.294  2.3241 -0.8375  0.1720
 1985SOL    MW4 7987   1.080   2.303   3.380  0.1912 -0.4694  0.1168
 1986SOL     OW 7988   0.869   2.422   3.533  0.1325 -0.6211  0.6795
 1986SOL    HW2 7989   0.874   2.414   3.629  1.2080 -0.0217  0.6812
 1986SOL    HW3 7990   0.939   2.366   3.500 -0.4467 -1.0872  0.2170
 1986SOL    MW4 7991   0.879   2.414   3.542  0.1979 -0.6037  0.6189
 1987SOL     OW 7992   0.901   2.689   3.416 -0.3807 -0.0543  0.5842
 1987SOL    HW2 7993   0.977   2.736   3.452 -1.4859  0.5256  2.1781
 1987SOL    HW3 7994   0.909   2.600   3.450 -0.2088 -0.0985  0.4311
 1987SOL    MW4 7995   0.912   2.684   3.425 -0.5038  0.0165  0.7741
 1988SOL     OW 7996   1.126   2.847   3.489  0.2511 -0.6084  0.1599
 1988SOL    HW2 7997   1.143   2.837   3.583  0.3437 -0.1996  0.1848
 1988SOL    HW3 7998   1.206   2.815   3.447  0.8721  0.7670  0.2645
 1988SOL    MW4 7999   1.139   2.841   3.496  0.3453 -0.3729  0.1769
 1989SOL     OW 8000   1.072   3.087   3.345 -1.0024 -0.1747 -0.7998
 1989SOL    HW2 8001   1.083   3.003   3.389 -1.7128 -0.0029 -0.2825
 1989SOL    HW3 8002   1.085   3.068   3.252 -1.6428 -0.9462 -0.7331
 1989SOL    MW4 8003   1.075   3.073   3.338 -1.1808 -0.2539 -0.7229
 1990SOL     OW 8004   0.891   3.215   3.513  0.3307  0.1432 -0.0096
 1990SOL    HW2 8005   0.959   3.182   3.455  1.0088  1.1241  0.1943
 1990SOL    HW3 8006   0.812   3.168   3.488  0.5307  0.7908 -1.9597
 1990SOL    MW4 8007   0.890   3.205   3.502  0.4465  0.3583 -0.2401
 1991SOL     OW 8008   0.914   3.484   3.462 -0.4433  0.3805 -0.2103
 1991SOL    HW2 8009   0.910   3.391   3.486 -0.0192  0.4374  0.0816
 1991SOL    HW3 8010   0.889   3.485   3.369 -1.4490  0.0914  0.0479
 1991SOL    MW4 8011   0.910   3.472   3.453 -0.5201  0.3500 -0.1380
 1992SOL     OW 8012   1.150   3.631   3.505 -0.3389  0.2103 -0.0901
 1992SOL    HW2 8013   1.145   3.632   3.600  0.4203  0.8995 -0.0479
 1992SOL    HW3 8014   1.078   3.574   3.477  0.2344 -1.0393  0.9490
 1992SOL    MW4 8015   1.140   3.624   3.514 -0.1630  0.1364  0.0525
 1993SOL     OW 8016   1.116   3.898   3.435  0.0955 -0.3313 -0.4407
 1993SOL    HW2 8017   1.193   3.948   3.461 -0.7228  0.0109  1.4429
 1993SOL    HW3 8018   1.135   3.808   3.462 -0.4790 -0.0980  0.7809
 1993SOL    MW4 8019   1.128   3.893   3.442 -0.0882 -0.2551 -0.0308
 1994SOL     OW 8020   0.864   4.002   3.561  0.1408  0.1284 -0.0549
 1994SOL    HW2 8021   0.936   3.950   3.526 -0.9238 -1.0695 -0.5074
 1994SOL    HW3 8022   0.785   3.965   3.520 -0.6324  2.1587 -0.4588
 1994SOL    MW4 8023   0.863   3.990   3.551 -0.1016  0.2382 -0.1676
 1995SOL     OW 8024   0.872   4.259   3.434  0.3249 -0.0305  0.3036
 1995SOL    HW2 8025   0.881   4.172   3.473  0.4999  0.2677  0.9354
 1995SOL    HW3 8026   0.893   4.246   3.341 -1.2379 -0.9703  0.0624
 1995SOL    MW4 8027   0.876   4.246   3.427  0.1418 -0.1149  0.3548
 1996SOL     OW 8028   1.103   4.391   3.547 -0.0671 -0.5302  0.0526
 1996SOL    HW2 8029   1.027   4.360   3.498 -1.2554  1.2951  0.6856
 1996SOL    HW3 8030   1.111   4.483   3.523  1.2839 -0.4356  0.8253
 1996SOL    MW4 8031   1.094   4.399   3.538 -0.0457 -0.2770  0.2382
 1997SOL     OW 8032   1.601   0.008   3.396  0.3878 -0.0829 -0.0245
 1997SOL    HW2 8033   1.583  -0.078   3.435 -0.7381  0.3498  0.4404
 1997SOL    HW3 8034   1.524   0.060   3.418  1.4365  1.3075  0.4181
 1997SOL    MW4 8035   1.588   0.003   3.404  0.3777  0.1574  0.0954
 1998SOL     OW 8036   1.351   0.093   3.497  0.5767  0.3170 -0.0424
 1998SOL    HW2 8037   1.373   0.096   3.591  1.2259  0.4933 -0.2022
 1998SOL    HW3 8038   1.348   0.185   3.471 -2.2363  0.4037  0.4149
 1998SOL    MW4 8039   1.353   0.106   3.506  0.2912  0.3517 -0.0033
 1999SOL     OW 8040   1.351   0.355   3.389  0.1254 -0.1833 -0.3025
 1999SOL    HW2 8041   1.428   0.407   3.410 -0.4367  0.3675  0.4517
 1999SOL    HW3 8042   1.281   0.394   3.442 -0.8105 -0.2694 -1.4604
 1999SOL    MW4 8043   1.352   0.367   3.399 -0.0722 -0.1220 -0.3560
 2000SOL     OW 8044   1.551   0.500   3.520 -0.2666 -0.3088 -0.4259
 2000SOL    HW2 8045   1.544   0.487   3.615 -0.4026 -0.2654 -0.4291
 2000SOL    HW3 8046   1.639   0.469   3.498 -0.1400 -0.0810 -0.2444
 2000SOL    MW4 8047   1.562   0.494   3.530 -0.2679 -0.2730 -0.4025
 2001SOL     OW 8048   1.606   0.763   3.403 -0.6001  0.5081 -0.5260
 2001SOL    HW2 8049   1.532   0.815   3.434 -0.2801  0.8163 -0.2665
 2001SOL    HW3 8050   1.595   0.677   3.445  0.1776  1.1249  0.9732
 2001SOL    MW4 8051   1.595   0.758   3.413 -0.4553  0.6301 -0.2940
 2002SOL     OW 8052   1.381   0.900   3.472 -0.4274 -0.1665  0.5118
 2002SOL    HW2 8053   1.374   0.892   3.567  2.7104 -1.1508  0.7354
 2002SOL    HW3 8054   1.363   0.992   3.454  0.3024  0.3283  2.2143
 2002SOL    MW4 8055   1.378   0.911   3.482  0.0830 -0.2310  0.7660
 2003SOL     OW 8056   1.354   1.150   3.388  0.2295 -0.2083  0.0079
 2003SOL    HW2 8057   1.419   1.206   3.430  0.0409 -0.1089  0.1700
 2003SOL    HW3 8058   1.270   1.180   3.423  0.2882 -2.1374  1.8820
 2003SOL    MW4 8059   1.351   1.162   3.398  0.2124 -0.4497  0.2766
 2004SOL     OW 8060   1.575   1.294   3.475 -0.1974  0.4258 -0.0093
 2004SOL    HW2 8061   1.572   1.289   3.570  0.2549 -2.4911 -0.1079
 2004SOL    HW3 8062   1.660   1.256   3.452 -0.3597  0.9899 -1.5698
 2004SOL    MW4 8063   1.586   1.288   3.484 -0.1591  0.1155 -0.2284
 2005SOL     OW 8064   1.544   1.564   3.411 -0.6392 -0.2915  0.0300
 2005SOL    HW2 8065   1.547   1.470   3.426  1.0766 -0.2747 -0.1584
 2005SOL    HW3 8066   1.568   1.575   3.319 -3.0395  0.1937 -0.5746
 2005SOL    MW4 8067   1.548   1.553   3.401 -0.7294 -0.2252 -0.0749
 2006SOL     OW 8068   1.341   1.708   3.527  0.0085 -0.3140  0.3494
 2006SOL    HW2 8069   1.341   1.697   3.622 -0.0365 -0.6313  0.3149
 2006SOL    HW3 8070   1.407   1.645   3.496  0.4483  0.2148  0.2184
 2006SOL    MW4 8071   1.350   1.698   3.535  0.0607 -0.2862  0.3276
 2007SOL     OW 8072   1.366   1.938   3.394  0.8254  0.0962  0.2543
 2007SOL    HW2 8073   1.422   2.005   3.432  0.2533  0.7022  0.0417
 2007SOL    HW3 8074   1.370   1.865   3.455  0.6304  0.7176  1.0081
 2007SOL    MW4 8075   1.374   1.937   3.407  0.7242  0.2582  0.3257
 2008SOL     OW 8076   1.562   2.084   3.537  0.1975 -0.3099  0.2660
 2008SOL    HW2 8077   1.644   2.037   3.518  0.6767  0.3435  0.6851
 2008SOL    HW3 8078   1.573   2.169   3.495 -0.3709 -0.3077  0.1234
 2008SOL    MW4 8079   1.574   2.089   3.529  0.1858 -0.2234  0.3026
 2009SOL     OW 8080   1.563   2.340   3.396  0.4125 -0.1432 -0.4421
 2009SOL    HW2 8081   1.472   2.371   3.405  0.2505 -0.7607  0.0740
 2009SOL    HW3 8082   1.573   2.323   3.303  0.0101 -0.0329 -0.5083
 2009SOL    MW4 8083   1.552   2.342   3.385  0.3380 -0.2100 -0.3827
 2010SOL     OW 8084   1.302   2.465   3.426 -0.5200 -0.2624 -0.2692
 2010SOL    HW2 8085   1.345   2.460   3.511 -0.5002  0.2240 -0.2455
 2010SOL    HW3 8086   1.313   2.557   3.400  0.3872 -0.6559 -1.2769
 2010SOL    MW4 8087   1.309   2.477   3.434 -0.3977 -0.2501 -0.3989
 2011SOL     OW 8088   1.357   2.734   3.387 -0.1380  0.1220 -0.2195
 2011SOL    HW2 8089   1.445   2.761   3.414 -1.0855  2.1510  0.9731
 2011SOL    HW3 8090   1.361   2.727   3.292  1.0406  1.3156 -0.2707
 2011SOL    MW4 8091   1.369   2.737   3.378 -0.1075  0.5472 -0.0689
 2012SOL     OW 8092   1.607   2.804   3.463  0.5538  0.1729 -0.3514
 2012SOL    HW2 8093   1.677   2.759   3.415 -0.5129 -0.1727 -1.6179
 2012SOL    HW3 8094   1.612   2.895   3.433 -0.6301 -0.2092 -1.7642
 2012SOL    MW4 8095   1.617   2.810   3.453  0.2569  0.0770 -0.7050
 2013SOL     OW 8096   1.585   3.091   3.352  0.3134 -0.4485  0.3079
 2013SOL    HW2 8097   1.650   3.159   3.367 -0.1378 -0.1477  0.8981
 2013SOL    HW3 8098   1.501   3.131   3.375 -0.2414 -0.4072 -1.7280
 2013SOL    MW4 8099   1.583   3.105   3.357  0.1806 -0.4032  0.1171
 2014SOL     OW 8100   1.329   3.243   3.402 -1.3843 -0.4704  0.2685
 2014SOL    HW2 8101   1.339   3.239   3.498 -0.1789 -0.7539  0.1472
 2014SOL    HW3 8102   1.246   3.200   3.384 -2.1061  0.4697  1.2733
 2014SOL    MW4 8103   1.320   3.237   3.413 -1.3205 -0.3834  0.3850
 2015SOL     OW 8104   1.318   3.505   3.295 -0.3323 -0.4162  0.0046
 2015SOL    HW2 8105   1.318   3.419   3.336 -1.2637 -0.5214 -0.2019
 2015SOL    HW3 8106   1.271   3.561   3.357 -1.2373 -0.4455 -0.6499
 2015SOL    MW4 8107   1.312   3.501   3.309 -0.5746 -0.4339 -0.1090
 2016SOL     OW 8108   1.531   3.622   3.420 -0.5305 -0.3518  0.2954
 2016SOL    HW2 8109   1.528   3.615   3.516 -0.4623 -0.1954  0.3079
 2016SOL    HW3 8110   1.453   3.574   3.390 -0.2111 -0.9398  0.4048
 2016SOL    MW4 8111   1.520   3.614   3.429 -0.4793 -0.4089  0.3114
 2017SOL     OW 8112   1.525   3.889   3.390 -0.0889 -0.3183 -0.4917
 2017SOL    HW2 8113   1.520   3.795   3.401 -1.5826 -0.2534 -0.5340
 2017SOL    HW3 8114   1.530   3.902   3.296 -0.9815 -0.3161 -0.5424
 2017SOL    MW4 8115   1.525   3.879   3.379 -0.4036 -0.3095 -0.5038
 2018SOL     OW 8116   1.346   4.027   3.541 -0.0902  0.2759  0.5291
 2018SOL    HW2 8117   1.340   4.115   3.504 -0.2969  0.0002 -0.0952
 2018SOL    HW3 8118   1.426   3.990   3.504 -1.9320 -1.1751 -2.2143
 2018SOL    MW4 8119   1.356   4.033   3.531 -0.3605  0.0477  0.0844
 2019SOL     OW 8120   1.326   4.272   3.418  1.0085  0.1047  0.0298
 2019SOL    HW2 8121   1.247   4.312   3.455  0.1757  0.2398 -1.8275
 2019SOL    HW3 8122   1.307   4.265   3.324  2.6037 -1.2927 -0.2010
 2019SOL    MW4 8123   1.313   4.277   3.411  1.1092 -0.0620 -0.2458
 2020SOL     OW 8124   1.578   4.394   3.492  0.0513  0.0852 -0.1482
 2020SOL    HW2 8125   1.648   4.345   3.450 -0.3607  1.0515 -2.0575
 2020SOL    HW3 8126   1.498   4.350   3.465 -0.2045  0.5051 -0.0856
 2020SOL    MW4 8127   1.577   4.382   3.483 -0.0368  0.2680 -0.3920
 2021SOL     OW 8128   2.044   0.002   3.411  0.1116 -0.0336 -0.0562
 2021SOL    HW2 8129   2.121   0.050   3.441 -0.3528 -0.7701  2.3694
 2021SOL    HW3 8130   1.970   0.042   3.456 -0.8547  0.0614 -1.6547
 2021SOL    MW4 8131   2.044   0.013   3.421 -0.0772 -0.1182  0.0527
 2022SOL     OW 8132   1.808   0.136   3.520 -0.0852 -0.3932  0.5155
 2022SOL    HW2 8133   1.789   0.145   3.613  0.6739 -2.7770  0.9375
 2022SOL    HW3 8134   1.732   0.090   3.484  0.3594 -0.9776  0.2985
 2022SOL    MW4 8135   1.796   0.131   3.527  0.0737 -0.7848  0.5424
 2023SOL     OW 8136   1.767   0.396   3.389  0.2054 -0.3214  0.2922
 2023SOL    HW2 8137   1.787   0.311   3.427  0.8169  0.2241  1.2147
 2023SOL    HW3 8138   1.779   0.384   3.295  2.9157 -0.5675  0.6199
 2023SOL    MW4 8139   1.771   0.383   3.382  0.6437 -0.2819  0.4573
 2024SOL     OW 8140   2.026   0.497   3.492 -0.3713 -0.5463 -0.1305
 2024SOL    HW2 8141   2.030   0.589   3.466 -0.6580 -0.5917 -0.3442
 2024SOL    HW3 8142   1.940   0.468   3.461 -1.4599 -0.1487  2.3680
 2024SOL    MW4 8143   2.015   0.505   3.484 -0.5527 -0.4998  0.1709
 2025SOL     OW 8144   2.051   0.758   3.408  0.1958  0.1041 -0.4593
 2025SOL    HW2 8145   2.127   0.808   3.435  0.2508 -0.2738  0.0989
 2025SOL    HW3 8146   2.045   0.771   3.313  0.4072  0.8792 -0.3676
 2025SOL    MW4 8147   2.060   0.766   3.399  0.2308  0.1565 -0.3736
 2026SOL     OW 8148   1.832   0.885   3.505 -0.0409  0.3085  0.0139
 2026SOL    HW2 8149   1.912   0.851   3.464 -0.5371 -2.2799  1.0399
 2026SOL    HW3 8150   1.761   0.834   3.464 -1.1511  2.3247 -0.6333
 2026SOL    MW4 8151   1.833   0.874   3.494 -0.2528  0.2330  0.0637
 2027SOL     OW 8152   1.802   1.160   3.429  0.1775  0.2144 -0.1846
 2027SOL    HW2 8153   1.889   1.200   3.434  0.1945  0.3370 -1.3874
 2027SOL    HW3 8154   1.815   1.071   3.459  0.4941  0.5764  0.7636
 2027SOL    MW4 8155   1.816   1.154   3.434  0.2216  0.2784 -0.2182
 2028SOL     OW 8156   2.028   1.298   3.451  0.2119  0.0863 -0.2825
 2028SOL    HW2 8157   2.005   1.315   3.542  0.6019  0.7877 -0.3079
 2028SOL    HW3 8158   2.030   1.385   3.410  2.1501  0.0008 -0.4420
 2028SOL    MW4 8159   2.026   1.312   3.458  0.5193  0.1675 -0.3071
 2029SOL     OW 8160   2.007   1.550   3.360  0.1134 -0.5254  0.2267
 2029SOL    HW2 8161   2.087   1.582   3.402 -0.1765  0.6057 -0.0688
 2029SOL    HW3 8162   1.936   1.587   3.412 -0.2350  0.0257 -0.6281
 2029SOL    MW4 8163   2.008   1.559   3.372  0.0291 -0.3035  0.0749
 2030SOL     OW 8164   1.806   1.658   3.516 -0.1594 -0.2007 -0.1334
 2030SOL    HW2 8165   1.820   1.745   3.478 -0.5510 -0.5646 -1.1147
 2030SOL    HW3 8166   1.721   1.630   3.483  0.1394 -1.1237 -0.1454
 2030SOL    MW4 8167   1.797   1.666   3.507 -0.1717 -0.3705 -0.2646
 2031SOL     OW 8168   1.792   1.910   3.424  0.8310 -0.6097 -0.2204
 2031SOL    HW2 8169   1.875   1.954   3.440  1.1348 -0.9398 -0.8991
 2031SOL    HW3 8170   1.781   1.911   3.329 -1.5008  2.3052  0.0184
 2031SOL    MW4 8171   1.801   1.916   3.414  0.5635 -0.2688 -0.2785
 2032SOL     OW 8172   2.037   2.010   3.477  0.2076  0.2390 -0.1817
 2032SOL    HW2 8173   2.122   1.973   3.455  0.6653  0.9333  0.4525
 2032SOL    HW3 8174   2.039   2.099   3.441 -1.6980 -1.0131 -3.6755
 2032SOL    MW4 8175   2.048   2.017   3.469  0.0162  0.1655 -0.5589
 2033SOL     OW 8176   1.994   2.282   3.428  0.7962 -0.2956  0.1969
 2033SOL    HW2 8177   2.069   2.331   3.462 -0.0248  0.9436  0.2570
 2033SOL    HW3 8178   1.990   2.305   3.335  1.8210 -2.1102 -0.3236
 2033SOL    MW4 8179   2.003   2.291   3.420  0.8233 -0.3717  0.1361
 2034SOL     OW 8180   1.799   2.449   3.506 -0.2253 -0.1794  0.2348
 2034SOL    HW2 8181   1.866   2.386   3.479  1.2664  1.9061 -1.0118
 2034SOL    HW3 8182   1.717   2.415   3.469  0.1303 -2.6165  1.5714
 2034SOL    MW4 8183   1.797   2.436   3.498  0.0185 -0.2258  0.2468
 2035SOL     OW 8184   1.824   2.678   3.347 -0.2907 -0.3051 -0.0677
 2035SOL    HW2 8185   1.889   2.736   3.386 -0.2959 -0.2007 -0.2138
 2035SOL    HW3 8186   1.820   2.603   3.406 -0.5599  0.0174  0.3306
 2035SOL    MW4 8187   1.832   2.676   3.360 -0.3269 -0.2487 -0.0346
 2036SOL     OW 8188   2.006   2.862   3.453  0.3468 -0.1451 -0.6891
 2036SOL    HW2 8189   2.011   2.872   3.548  0.9699 -0.5714 -0.6716
 2036SOL    HW3 8190   2.018   2.951   3.419 -0.3417  0.0765 -0.3566
 2036SOL    MW4 8191   2.009   2.875   3.461  0.3381 -0.1721 -0.6430
 2037SOL     OW 8192   2.039   3.121   3.388  0.2826  0.7368 -0.5484
 2037SOL    HW2 8193   2.116   3.169   3.420  0.0665  0.8133 -0.1357
 2037SOL    HW3 8194   1.965   3.171   3.422  0.0447  1.0675 -1.5438
 2037SOL    MW4 8195   2.040   3.134   3.397  0.2227  0.7906 -0.6254
 2038SOL     OW 8196   1.797   3.277   3.429 -0.5944  0.1508 -0.0846
 2038SOL    HW2 8197   1.805   3.273   3.524  1.0099 -0.0552 -0.2142
 2038SOL    HW3 8198   1.780   3.370   3.410 -1.6761  0.0633  0.4451
 2038SOL    MW4 8199   1.796   3.289   3.439 -0.5252  0.1118 -0.0317
 2039SOL     OW 8200   1.787   3.526   3.337  0.0444  0.9103 -0.0555
 2039SOL    HW2 8201   1.703   3.570   3.353  1.1790  3.0903  0.0355
 2039SOL    HW3 8202   1.795   3.525   3.241 -0.1398  0.5902 -0.0682
 2039SOL    MW4 8203   1.777   3.532   3.326  0.1696  1.1556 -0.0453
 2040SOL     OW 8204   2.005   3.637   3.463 -0.3800 -0.2781  0.5589
 2040SOL    HW2 8205   2.082   3.583   3.443 -0.6204 -0.2447 -0.4603
 2040SOL    HW3 8206   1.932   3.592   3.420 -1.1132 -0.8527  2.3542
 2040SOL    MW4 8207   2.006   3.624   3.455 -0.5083 -0.3495  0.6611
 2041SOL     OW 8208   1.996   3.900   3.369 -0.3054  0.4142 -0.2982
 2041SOL    HW2 8209   1.923   3.944   3.413  0.1335  0.1772  0.6576
 2041SOL    HW3 8210   1.997   3.812   3.405 -0.6552 -0.1520 -1.6126
 2041SOL    MW4 8211   1.986   3.894   3.379 -0.2937  0.3080 -0.3457
 2042SOL     OW 8212   1.747   3.979   3.490 -0.2578  0.5906 -0.1125
 2042SOL    HW2 8213   1.742   3.957   3.583  0.0838 -0.2694 -0.2931
 2042SOL    HW3 8214   1.674   3.932   3.450 -0.0547  0.4876 -0.3654
 2042SOL    MW4 8215   1.737   3.970   3.497 -0.1860  0.4635 -0.1695
 2043SOL     OW 8216   1.775   4.236   3.397 -0.5799  0.4335  0.2046
 2043SOL    HW2 8217   1.753   4.151   3.435 -0.7455  0.5078  0.2715
 2043SOL    HW3 8218   1.752   4.228   3.304 -1.3045  0.6618  0.3628
 2043SOL    MW4 8219   1.769   4.224   3.390 -0.6974  0.4730  0.2341
 2044SOL     OW 8220   2.018   4.417   3.524  0.2068  0.1914  0.6221
 2044SOL    HW2 8221   1.948   4.388   3.467  0.8562 -1.8619  0.8391
 2044SOL    HW3 8222   2.037   4.506   3.495 -1.4214  0.2070 -0.4493
 2044SOL    MW4 8223   2.011   4.425   3.513  0.0777 -0.0777  0.5095
 2045SOL     OW 8224   2.494   4.663   3.381 -0.2492 -0.2419 -0.5090
 2045SOL    HW2 8225   2.483   4.581   3.428  0.2042  0.2480  0.4574
 2045SOL    HW3 8226   2.450   4.649   3.297  1.1349 -1.9844 -0.9681
 2045SOL    MW4 8227   2.487   4.650   3.376 -0.0067 -0.4072 -0.4423
 2046SOL     OW 8228   2.264   0.143   3.515 -0.7062 -0.0503 -0.0504
 2046SOL    HW2 8229   2.247   0.229   3.476 -0.5523 -0.4789 -1.0669
 2046SOL    HW3 8230   2.347   0.115   3.476 -2.0336 -1.8020 -1.7116
 2046SOL    MW4 8231   2.273   0.151   3.505 -0.8612 -0.3379 -0.4036
 2047SOL     OW 8232   2.227   0.375   3.376  0.1822 -1.0706  0.4838
 2047SOL    HW2 8233   2.298   0.420   3.420  0.0467 -1.1783  0.8202
 2047SOL    HW3 8234   2.148   0.419   3.407  0.1640  0.0043 -0.9973
 2047SOL    MW4 8235   2.226   0.387   3.386  0.1619 -0.9430  0.3326
 2048SOL     OW 8236   2.423   0.503   3.503  0.2040 -0.4409  0.2154
 2048SOL    HW2 8237   2.510   0.471   3.479  1.1876  1.2319  1.5168
 2048SOL    HW3 8238   2.423   0.595   3.477 -2.0967 -1.0428 -2.1407
 2048SOL    MW4 8239   2.434   0.511   3.496  0.0305 -0.2996  0.0765
 2049SOL     OW 8240   2.494   0.773   3.425 -0.0880 -0.1877 -0.3048
 2049SOL    HW2 8241   2.573   0.820   3.450  0.2527 -0.4350 -0.9043
 2049SOL    HW3 8242   2.500   0.764   3.329  0.2174 -2.0897 -0.1327
 2049SOL    MW4 8243   2.505   0.778   3.415 -0.0026 -0.4712 -0.3614
 2050SOL     OW 8244   2.259   0.889   3.485  0.1121  0.5203 -0.2741
 2050SOL    HW2 8245   2.261   0.975   3.444  1.2791  0.9946  0.7206
 2050SOL    HW3 8246   2.343   0.849   3.461  0.2726  0.3168  0.6100
 2050SOL    MW4 8247   2.270   0.895   3.477  0.2871  0.5561 -0.0262
 2051SOL     OW 8248   2.244   1.151   3.412  0.1010 -0.0423 -0.2985
 2051SOL    HW2 8249   2.313   1.207   3.446 -0.9770  0.8192  0.5192
 2051SOL    HW3 8250   2.163   1.191   3.443 -0.7548 -1.2352 -0.9314
 2051SOL    MW4 8251   2.242   1.164   3.420 -0.1543 -0.0859 -0.2744
 2052SOL     OW 8252   2.449   1.321   3.491 -0.7537  0.4310  0.1752
 2052SOL    HW2 8253   2.451   1.309   3.586 -1.1167 -0.8696  0.0289
 2052SOL    HW3 8254   2.519   1.264   3.458 -0.1068  1.4755 -0.2861
 2052SOL    MW4 8255   2.459   1.312   3.499 -0.7164  0.3973  0.0949
 2053SOL     OW 8256   2.485   1.578   3.389 -0.1742 -0.7103  0.1776
 2053SOL    HW2 8257   2.483   1.496   3.439 -0.8644 -1.0849 -0.4372
 2053SOL    HW3 8258   2.455   1.553   3.302  0.2557  0.0815 -0.2024
 2053SOL    MW4 8259   2.481   1.564   3.384 -0.2086 -0.6554  0.0463
 2054SOL     OW 8260   2.235   1.652   3.487  0.2054 -0.1113  0.4573
 2054SOL    HW2 8261   2.241   1.668   3.582  1.2964  3.2522 -0.1099
 2054SOL    HW3 8262   2.320   1.617   3.463 -0.0748 -0.9751  0.7156
 2054SOL    MW4 8263   2.247   1.650   3.497  0.3123  0.2185  0.4165
 2055SOL     OW 8264   2.256   1.902   3.387  0.0522 -0.3120 -0.3749
 2055SOL    HW2 8265   2.244   1.809   3.406  0.0685  0.1376  2.0131
 2055SOL    HW3 8266   2.256   1.907   3.291 -0.1713 -2.7273 -0.5405
 2055SOL    MW4 8267   2.255   1.890   3.377  0.0246 -0.5714 -0.0818
 2056SOL     OW 8268   2.455   2.033   3.520 -0.3863  0.1044  0.0138
 2056SOL    HW2 8269   2.436   2.013   3.612 -1.4048  2.1572  0.2651
 2056SOL    HW3 8270   2.398   1.973   3.471  0.1605 -1.0017  0.6978
 2056SOL    MW4 8271   2.445   2.022   3.526 -0.4487  0.2294  0.1376
 2057SOL     OW 8272   2.437   2.286   3.420  0.0870  0.2278  0.6679
 2057SOL    HW2 8273   2.511   2.338   3.451  0.3135 -0.2368  0.9107
 2057SOL    HW3 8274   2.445   2.202   3.466 -0.5042  0.1225  0.5830
 2057SOL    MW4 8275   2.448   2.282   3.430  0.0389  0.1528  0.6888
 2058SOL     OW 8276   2.213   2.410   3.540 -0.2242  0.1001 -0.1215
 2058SOL    HW2 8277   2.209   2.503   3.518 -0.1488  0.0322 -0.4173
 2058SOL    HW3 8278   2.299   2.381   3.511 -0.9427 -0.4931 -1.7246
 2058SOL    MW4 8279   2.224   2.418   3.533 -0.3090  0.0129 -0.3722
 2059SOL     OW 8280   2.221   2.669   3.433 -0.0932  0.1843 -0.3007
 2059SOL    HW2 8281   2.159   2.739   3.453  0.0175  0.4949 -1.0128
 2059SOL    HW3 8282   2.218   2.662   3.337  0.5765 -0.1606 -0.2973
 2059SOL    MW4 8283   2.212   2.677   3.423  0.0093  0.1800 -0.3943
 2060SOL     OW 8284   2.486   2.778   3.467 -0.0421  0.5848  0.0095
 2060SOL    HW2 8285   2.467   2.870   3.448  1.3138  0.3734 -2.6658
 2060SOL    HW3 8286   2.402   2.733   3.455 -0.2027  1.1542 -1.1038
 2060SOL    MW4 8287   2.472   2.784   3.463  0.1156  0.6318 -0.4904
 2061SOL     OW 8288   2.480   3.059   3.385 -0.0154 -0.4543 -0.5021
 2061SOL    HW2 8289   2.551   3.115   3.417  0.3597 -1.1370 -0.1271
 2061SOL    HW3 8290   2.488   3.063   3.290  0.2808 -0.2169 -0.4699
 2061SOL    MW4 8291   2.491   3.067   3.377  0.0730 -0.5133 -0.4482
 2062SOL     OW 8292   2.289   3.257   3.448  0.6821  0.2250  0.0111
 2062SOL    HW2 8293   2.273   3.248   3.541  1.4868  2.5374  0.4194
 2062SOL    HW3 8294   2.361   3.197   3.430  0.5513 -0.1973  0.8686
 2062SOL    MW4 8295   2.296   3.248   3.458  0.7710  0.4745  0.1783
 2063SOL     OW 8296   2.239   3.509   3.365  0.0190 -0.0941 -0.3023
 2063SOL    HW2 8297   2.251   3.417   3.386  0.2679 -0.5137 -2.1695
 2063SOL    HW3 8298   2.259   3.515   3.271  0.4882  1.9398 -0.0918
 2063SOL    MW4 8299   2.243   3.498   3.355  0.1140  0.1190 -0.5209
 2064SOL     OW 8300   2.460   3.627   3.481  0.3933  0.0392 -0.1729
 2064SOL    HW2 8301   2.459   3.717   3.450  0.5646 -0.5864 -2.0846
 2064SOL    HW3 8302   2.396   3.582   3.426  0.3839 -1.0399  0.6960
 2064SOL    MW4 8303   2.451   3.633   3.470  0.4146 -0.1857 -0.3104
 2065SOL     OW 8304   2.441   3.876   3.412 -0.1270 -0.5389 -0.4171
 2065SOL    HW2 8305   2.517   3.925   3.441 -0.5020 -0.4928  0.5180
 2065SOL    HW3 8306   2.366   3.927   3.443 -0.5284 -1.2150 -0.2432
 2065SOL    MW4 8307   2.441   3.889   3.420 -0.2296 -0.6223 -0.2711
 2066SOL     OW 8308   2.222   4.020   3.488  0.1442 -0.0296  0.3426
 2066SOL    HW2 8309   2.234   4.109   3.455 -1.3093  0.8856  2.1475
 2066SOL    HW3 8310   2.161   3.980   3.426  0.5410  0.3362 -0.2946
 2066SOL    MW4 8311   2.215   4.027   3.476  0.0045  0.1397  0.4966
 2067SOL     OW 8312   2.241   4.289   3.397  0.2459 -0.3996  0.1485
 2067SOL    HW2 8313   2.163   4.328   3.436  0.0912  0.6186 -1.1161
 2067SOL    HW3 8314   2.221   4.284   3.303  0.9711 -1.8853  0.0632
 2067SOL    MW4 8315   2.228   4.294   3.390  0.3211 -0.4611 -0.0296
 2068SOL     OW 8316   2.486   4.399   3.487 -0.3246  0.0112  0.2402
 2068SOL    HW2 8317   2.474   4.386   3.581 -0.4756 -0.5557  0.1433
 2068SOL    HW3 8318   2.408   4.360   3.447 -0.7596  1.1563 -0.0601
 2068SOL    MW4 8319   2.474   4.392   3.494 -0.4017  0.0877  0.1881
 2069SOL     OW 8320   2.938   4.664   3.373  0.3639 -0.1908  0.4212
 2069SOL    HW2 8321   2.865   4.714   3.411  0.7472  0.2299  0.6030
 2069SOL    HW3 8322   2.903   4.632   3.289  0.6814  1.9102 -0.5605
 2069SOL    MW4 8323   2.923   4.667   3.367  0.4563  0.1419  0.3159
 2070SOL     OW 8324   2.715   0.114   3.490 -0.2398  0.4119 -0.3432
 2070SOL    HW2 8325   2.691   0.205   3.474  0.3371  0.4235 -1.1552
 2070SOL    HW3 8326   2.649   0.064   3.444  0.7190  0.4389 -1.7694
 2070SOL    MW4 8327   2.703   0.119   3.482 -0.0372  0.4170 -0.6385
 2071SOL     OW 8328   2.652   0.379   3.393  0.2458  1.0403  0.0927
 2071SOL    HW2 8329   2.730   0.422   3.427  0.9958  0.5159 -0.9667
 2071SOL    HW3 8330   2.666   0.373   3.298  0.3757 -1.9846  0.2521
 2071SOL    MW4 8331   2.664   0.384   3.385  0.3619  0.5721 -0.0260
 2072SOL     OW 8332   2.864   0.499   3.514 -0.2116 -0.1381  0.1368
 2072SOL    HW2 8333   2.851   0.505   3.609 -0.6383 -0.1556  0.0807
 2072SOL    HW3 8334   2.885   0.588   3.487  1.0473 -0.3497  0.4137
 2072SOL    MW4 8335   2.865   0.511   3.523 -0.1018 -0.1683  0.1657
 2073SOL     OW 8336   2.936   0.737   3.395 -0.9395  0.0826  0.1329
 2073SOL    HW2 8337   3.023   0.770   3.418 -0.4211  1.0667 -2.9254
 2073SOL    HW3 8338   2.877   0.810   3.415 -0.6805  0.4259 -0.3396
 2073SOL    MW4 8339   2.939   0.751   3.401 -0.8368  0.2577 -0.3331
 2074SOL     OW 8340   2.705   0.918   3.515  0.7102 -0.6939 -0.1222
 2074SOL    HW2 8341   2.707   0.916   3.610 -1.8435 -0.4041 -0.0416
 2074SOL    HW3 8342   2.698   1.011   3.493  1.0586 -0.7770 -0.6054
 2074SOL    MW4 8343   2.705   0.930   3.524  0.4191 -0.6667 -0.1755
 2075SOL     OW 8344   2.665   1.168   3.412 -0.1337 -0.1689 -0.1828
 2075SOL    HW2 8345   2.740   1.218   3.443 -0.5275  0.1572  0.2382
 2075SOL    HW3 8346   2.677   1.165   3.317  1.7480 -2.2519  0.0710
 2075SOL    MW4 8347   2.677   1.174   3.403  0.0627 -0.4009 -0.0937
 2076SOL     OW 8348   2.920   1.252   3.502 -0.2530  0.4238  0.3002
 2076SOL    HW2 8349   2.932   1.268   3.596  0.2906  2.2718 -0.0770
 2076SOL    HW3 8350   2.997   1.200   3.478 -0.3373  0.0336  0.8481
 2076SOL    MW4 8351   2.932   1.247   3.511 -0.1922  0.6161  0.3226
 2077SOL     OW 8352   2.960   1.519   3.377 -0.0763 -0.4089  0.0184
 2077SOL    HW2 8353   2.888   1.570   3.413 -0.2286 -1.1507  0.7820
 2077SOL    HW3 8354   2.949   1.432   3.415  0.6432 -0.7964 -0.6394
 2077SOL    MW4 8355   2.949   1.514   3.387 -0.0017 -0.5579  0.0324
 2078SOL     OW 8356   2.742   1.672   3.467 -0.0876 -0.1991 -0.2418
 2078SOL    HW2 8357   2.759   1.765   3.450  1.7964 -0.6080 -0.6248
 2078SOL    HW3 8358   2.665   1.652   3.414 -0.5077  1.1358 -0.1688
 2078SOL    MW4 8359   2.734   1.682   3.458  0.1059 -0.0769 -0.2825
 2079SOL     OW 8360   2.714   1.949   3.408  0.4530  0.3825 -0.0409
 2079SOL    HW2 8361   2.634   1.993   3.436  0.1935  0.4758 -0.9185
 2079SOL    HW3 8362   2.706   1.942   3.313  0.1622 -2.1917  0.1216
 2079SOL    MW4 8363   2.702   1.954   3.399  0.3803  0.0553 -0.1352
 2080SOL     OW 8364   2.989   2.042   3.489 -0.4721  0.7869 -0.2464
 2080SOL    HW2 8365   2.970   2.053   3.582 -0.8023 -0.0183 -0.2115
 2080SOL    HW3 8366   2.907   2.009   3.451 -0.2471  0.8174 -0.7625
 2080SOL    MW4 8367   2.976   2.039   3.496 -0.4857  0.6847 -0.3097
 2081SOL     OW 8368   2.892   2.292   3.395 -0.1882  0.1659 -0.3279
 2081SOL    HW2 8369   2.926   2.211   3.435 -1.0788  0.0331  0.1713
 2081SOL    HW3 8370   2.868   2.267   3.306 -1.3099 -0.3497  0.1074
 2081SOL    MW4 8371   2.894   2.278   3.389 -0.4537  0.0801 -0.2046
 2082SOL     OW 8372   2.654   2.404   3.530 -0.0555  0.6523 -0.4161
 2082SOL    HW2 8373   2.667   2.402   3.625  0.3430 -2.1112 -0.4899
 2082SOL    HW3 8374   2.727   2.355   3.494 -1.3127 -0.1325 -1.9964
 2082SOL    MW4 8375   2.665   2.397   3.538 -0.1686  0.1843 -0.6344
 2083SOL     OW 8376   2.712   2.645   3.388 -0.2710 -0.1546 -0.2728
 2083SOL    HW2 8377   2.705   2.558   3.428 -0.5620 -0.2497 -0.5308
 2083SOL    HW3 8378   2.637   2.693   3.422  0.8227  0.5449  1.2201
 2083SOL    MW4 8379   2.701   2.640   3.398 -0.1650 -0.0749 -0.1099
 2084SOL     OW 8380   2.911   2.832   3.450  0.7458 -0.1309 -0.2464
 2084SOL    HW2 8381   2.900   2.852   3.543  1.0499  0.2232 -0.2844
 2084SOL    HW3 8382   2.839   2.773   3.429  1.1591 -0.8666  0.4072
 2084SOL    MW4 8383   2.900   2.827   3.459  0.8404 -0.1812 -0.1652
 2085SOL     OW 8384   2.922   3.112   3.380 -0.2206 -0.2211  0.4354
 2085SOL    HW2 8385   2.923   3.019   3.402 -2.2500 -0.4369 -0.2872
 2085SOL    HW3 8386   2.922   3.114   3.284  1.5633  0.5745  0.4327
 2085SOL    MW4 8387   2.923   3.100   3.370 -0.2532 -0.1445  0.3397
 2086SOL     OW 8388   2.679   3.219   3.471 -0.0216 -0.0518  0.0765
 2086SOL    HW2 8389   2.696   3.212   3.565 -0.1453 -3.5060 -0.1053
 2086SOL    HW3 8390   2.761   3.194   3.430 -0.3768  0.1204 -0.7482
 2086SOL    MW4 8391   2.692   3.215   3.478 -0.0849 -0.4849 -0.0563
 2087SOL     OW 8392   2.682   3.491   3.395  0.0549 -0.2381  0.4841
 2087SOL    HW2 8393   2.660   3.406   3.432  1.9792 -0.1731  1.9207
 2087SOL    HW3 8394   2.612   3.549   3.424 -1.7248 -1.5103 -1.2493
 2087SOL    MW4 8395   2.670   3.488   3.404  0.0739 -0.3974  0.4451
 2088SOL     OW 8396   2.918   3.601   3.489 -0.2192  0.2897 -0.1157
 2088SOL    HW2 8397   2.922   3.688   3.449 -2.6337  0.9153  0.8962
 2088SOL    HW3 8398   2.835   3.564   3.457  0.6417 -1.5190 -0.2996
 2088SOL    MW4 8399   2.907   3.608   3.479 -0.4241  0.1338 -0.0062
 2089SOL     OW 8400   2.891   3.869   3.402  0.4209 -0.2282 -0.1033
 2089SOL    HW2 8401   2.968   3.921   3.427  1.0125 -0.3109 -1.7106
 2089SOL    HW3 8402   2.819   3.909   3.450  1.3931  0.0603  1.1764
 2089SOL    MW4 8403   2.892   3.881   3.412  0.6270 -0.2012 -0.1466
 2090SOL     OW 8404   2.675   4.012   3.499  0.4358  0.2221  0.3485
 2090SOL    HW2 8405   2.654   4.021   3.592 -0.7777  1.5068 -0.0430
 2090SOL    HW3 8406   2.705   4.099   3.472 -0.0887  0.0961 -0.6781
 2090SOL    MW4 8407   2.676   4.024   3.508  0.2067  0.3753  0.1616
 2091SOL     OW 8408   2.710   4.293   3.425  0.2250 -0.2899 -0.2274
 2091SOL    HW2 8409   2.780   4.355   3.443  0.4969 -0.9692  1.1474
 2091SOL    HW3 8410   2.630   4.341   3.448  0.2628  0.3558 -1.4339
 2091SOL    MW4 8411   2.708   4.308   3.430  0.2658 -0.2937 -0.2055
 2092SOL     OW 8412   2.935   4.430   3.522 -0.9690 -0.0895 -0.1833
 2092SOL    HW2 8413   2.936   4.447   3.616 -0.5298 -1.3817  0.0554
 2092SOL    HW3 8414   2.947   4.516   3.482  0.1574  0.2976  0.9578
 2092SOL    MW4 8415   2.936   4.443   3.529 -0.7622 -0.2084 -0.0012
 2093SOL     OW 8416   3.328   4.661   3.440  0.1894  0.1075  0.2603
 2093SOL    HW2 8417   3.256   4.713   3.476 -0.2416 -0.7184  0.5810
 2093SOL    HW3 8418   3.320   4.670   3.345 -1.7197 -1.8486  0.2066
 2093SOL    MW4 8419   3.318   4.669   3.433 -0.1197 -0.2594  0.2954
 2094SOL     OW 8420   3.121   0.152   3.529  0.2492  0.6787 -0.1502
 2094SOL    HW2 8421   3.121   0.245   3.504 -0.3860  0.3957 -1.2560
 2094SOL    HW3 8422   3.057   0.112   3.470  2.2884 -0.9216 -1.3403
 2094SOL    MW4 8423   3.112   0.159   3.518  0.4344  0.4302 -0.4532
 2095SOL     OW 8424   3.120   0.414   3.464  0.0841  0.5657  0.2386
 2095SOL    HW2 8425   3.030   0.428   3.492 -0.2232 -1.2389  0.1837
 2095SOL    HW3 8426   3.116   0.415   3.368 -0.3367 -2.2133  0.2052
 2095SOL    MW4 8427   3.107   0.416   3.455 -0.0119 -0.0390  0.2270
 2096SOL     OW 8428   3.376   0.484   3.508 -0.1719  0.7559 -0.0262
 2096SOL    HW2 8429   3.377   0.496   3.603 -0.4499 -1.5838  0.3161
 2096SOL    HW3 8430   3.285   0.462   3.488  0.2589 -0.5520 -0.5698
 2096SOL    MW4 8431   3.364   0.483   3.518 -0.1516  0.2747 -0.0527
 2097SOL     OW 8432   3.373   0.736   3.379  0.1029  0.0293  0.2203
 2097SOL    HW2 8433   3.450   0.778   3.417 -0.1432  0.8985 -0.2146
 2097SOL    HW3 8434   3.366   0.652   3.423  0.0537  0.8504  1.7912
 2097SOL    MW4 8435   3.382   0.731   3.390  0.0641  0.2523  0.3705
 2098SOL     OW 8436   3.166   0.872   3.486  0.0519 -0.1225  0.0986
 2098SOL    HW2 8437   3.161   0.963   3.457  0.4116 -0.2471 -0.3671
 2098SOL    HW3 8438   3.247   0.839   3.447 -1.2616 -1.3174 -1.7059
 2098SOL    MW4 8439   3.176   0.879   3.477 -0.0741 -0.2967 -0.2007
 2099SOL     OW 8440   3.165   1.137   3.393 -0.0206  0.6367  0.5401
 2099SOL    HW2 8441   3.232   1.196   3.427 -0.1916  1.5843 -0.7704
 2099SOL    HW3 8442   3.163   1.154   3.299 -1.6339  0.1281  0.4778
 2099SOL    MW4 8443   3.174   1.147   3.385 -0.2563  0.6946  0.3588
 2100SOL     OW 8444   3.389   1.286   3.502  0.1552  0.5196 -0.2856
 2100SOL    HW2 8445   3.466   1.239   3.470 -0.1358  0.5004 -0.9421
 2100SOL    HW3 8446   3.389   1.369   3.454  0.5040  1.0796  0.6591
 2100SOL    MW4 8447   3.399   1.291   3.492  0.1628  0.5909 -0.2477
 2101SOL     OW 8448   3.440   1.526   3.361 -0.2369  0.0755  0.1429
 2101SOL    HW2 8449   3.510   1.577   3.400  0.3827 -1.2390  0.7924
 2101SOL    HW3 8450   3.359   1.565   3.394  0.2506 -0.0821  1.5637
 2101SOL    MW4 8451   3.439   1.538   3.370 -0.0906 -0.1187  0.4160
 2102SOL     OW 8452   3.182   1.636   3.475  0.6436 -0.1916  0.1177
 2102SOL    HW2 8453   3.181   1.725   3.443  0.6839  0.0179  0.6844
 2102SOL    HW3 8454   3.108   1.593   3.432  0.0965  0.3546  0.5100
 2102SOL    MW4 8455   3.172   1.642   3.465  0.5765 -0.0918  0.2444
 2103SOL     OW 8456   3.190   1.889   3.368  0.5741  0.0681  0.1983
 2103SOL    HW2 8457   3.114   1.935   3.403 -0.0058 -0.6626 -0.1093
 2103SOL    HW3 8458   3.180   1.895   3.273  0.5257 -0.6650  0.1587
 2103SOL    MW4 8459   3.179   1.896   3.360  0.4914 -0.1249  0.1526
 2104SOL     OW 8460   3.385   2.029   3.516 -0.0402  0.2325  0.3849
 2104SOL    HW2 8461   3.391   2.108   3.462  1.6241  0.2718  0.5832
 2104SOL    HW3 8462   3.322   1.974   3.470  1.2899  0.2884 -1.5953
 2104SOL    MW4 8463   3.378   2.033   3.502  0.3550  0.2449  0.1497
 2105SOL     OW 8464   3.370   2.306   3.393 -0.5276  0.5311  0.1675
 2105SOL    HW2 8465   3.452   2.348   3.421 -0.1811 -1.2323  1.9005
 2105SOL    HW3 8466   3.302   2.351   3.442 -0.4727  1.0460 -0.2182
 2105SOL    MW4 8467   3.372   2.318   3.403 -0.4745  0.3664  0.3452
 2106SOL     OW 8468   3.116   2.435   3.494 -0.0101  0.2781  0.1503
 2106SOL    HW2 8469   3.121   2.522   3.455  0.7644  0.0912 -0.1708
 2106SOL    HW3 8470   3.036   2.397   3.457  0.4695  0.2800 -0.8968
 2106SOL    MW4 8471   3.106   2.442   3.484  0.1554  0.2537 -0.0305
 2107SOL     OW 8472   3.130   2.702   3.390 -0.1977  0.2362  0.4855
 2107SOL    HW2 8473   3.210   2.749   3.412  0.0528  0.4121 -0.7625
 2107SOL    HW3 8474   3.059   2.756   3.425  0.2562 -0.3322  2.3141
 2107SOL    MW4 8475   3.131   2.715   3.397 -0.1047  0.1845  0.5620
 2108SOL     OW 8476   3.370   2.815   3.458 -0.1974  0.6791 -0.3175
 2108SOL    HW2 8477   3.452   2.773   3.435 -0.5876 -0.1436 -0.2404
 2108SOL    HW3 8478   3.382   2.907   3.437  1.0778  0.7291  0.5783
 2108SOL    MW4 8479   3.382   2.821   3.452 -0.0806  0.5770 -0.1888
 2109SOL     OW 8480   3.390   3.080   3.412 -0.1303 -0.3020  0.0026
 2109SOL    HW2 8481   3.445   3.106   3.486 -0.3628 -0.6561  0.3029
 2109SOL    HW3 8482   3.303   3.113   3.434 -0.2136 -0.4657 -0.0818
 2109SOL    MW4 8483   3.386   3.088   3.425 -0.1721 -0.3703  0.0310
 2110SOL     OW 8484   3.164   3.201   3.487  0.5807 -0.2504 -0.8874
 2110SOL    HW2 8485   3.175   3.294   3.467 -0.3903  0.7292  2.7539
 2110SOL    HW3 8486   3.073   3.183   3.464  0.3555  0.0956 -0.2965
 2110SOL    MW4 8487   3.153   3.211   3.482  0.4230 -0.0756 -0.3288
 2111SOL     OW 8488   3.161   3.461   3.403  0.1155  0.4093  0.1308
 2111SOL    HW2 8489   3.079   3.508   3.420 -0.8673 -1.0874 -0.4255
 2111SOL    HW3 8490   3.170   3.461   3.308  0.8690  0.7208  0.1940
 2111SOL    MW4 8491   3.151   3.467   3.393  0.0851  0.2527  0.0658
 2112SOL     OW 8492   3.342   3.617   3.549  0.3174 -0.1230  0.0474
 2112SOL    HW2 8493   3.360   3.697   3.500 -0.4459  1.1132  1.7103
 2112SOL    HW3 8494   3.271   3.575   3.500  0.6141  0.2878 -0.7505
 2112SOL    MW4 8495   3.335   3.622   3.536  0.2561  0.0942  0.1614
 2113SOL     OW 8496   3.353   3.859   3.406 -0.1589 -0.6217  0.4218
 2113SOL    HW2 8497   3.421   3.896   3.462  0.8324 -0.3187 -0.9641
 2113SOL    HW3 8498   3.271   3.895   3.441  0.5123  0.1869  1.1837
 2113SOL    MW4 8499   3.351   3.869   3.418  0.0608 -0.4752  0.3395
 2114SOL     OW 8500   3.108   3.997   3.484 -0.4322  0.2449 -0.0407
 2114SOL    HW2 8501   3.100   4.008   3.579 -0.9458  0.1162 -0.0662
 2114SOL    HW3 8502   3.110   4.086   3.449  0.8379  0.3116  0.1705
 2114SOL    MW4 8503   3.107   4.010   3.492 -0.3324  0.2370 -0.0165
 2115SOL     OW 8504   3.125   4.253   3.402  0.2500  0.1834  0.0837
 2115SOL    HW2 8505   3.204   4.301   3.427  0.5079 -0.1962  0.0032
 2115SOL    HW3 8506   3.055   4.293   3.454  0.9380 -1.2367  2.1896
 2115SOL    MW4 8507   3.126   4.265   3.412  0.3748 -0.0539  0.3512
 2116SOL     OW 8508   3.355   4.374   3.484 -0.1603  0.1779 -0.1953
 2116SOL    HW2 8509   3.329   4.356   3.574  0.5984 -1.5287 -0.3073
 2116SOL    HW3 8510   3.339   4.468   3.473 -1.9213  0.0731  1.1603
 2116SOL    MW4 8511   3.349   4.384   3.495 -0.2925 -0.0615 -0.0312
 2117SOL     OW 8512   3.795   4.631   3.431  0.4411  0.5951  0.3449
 2117SOL    HW2 8513   3.716   4.661   3.476  0.5826  1.8137 -0.2266
 2117SOL    HW3 8514   3.785   4.661   3.341  1.2185  0.1014  0.0889
 2117SOL    MW4 8515   3.783   4.639   3.425  0.5622  0.6905  0.2360
 2118SOL     OW 8516   3.569   0.078   3.549 -0.4362 -0.1070  0.2404
 2118SOL    HW2 8517   3.589   0.161   3.506  0.3153 -0.9851 -1.1701
 2118SOL    HW3 8518   3.490   0.047   3.505  1.7822 -2.2673 -2.4550
 2118SOL    MW4 8519   3.561   0.085   3.537 -0.0446 -0.5079 -0.3014
 2119SOL     OW 8520   3.580   0.304   3.397  0.4608  0.0365 -0.3313
 2119SOL    HW2 8521   3.655   0.356   3.426 -0.3713  2.0936 -1.7532
 2119SOL    HW3 8522   3.505   0.341   3.444 -0.1060 -0.0249 -1.1722
 2119SOL    MW4 8523   3.580   0.316   3.407  0.2761  0.2998 -0.6299
 2120SOL     OW 8524   3.775   0.464   3.494  0.2874 -0.2765 -0.1665
 2120SOL    HW2 8525   3.780   0.479   3.589  0.7100 -0.7199 -0.1198
 2120SOL    HW3 8526   3.859   0.425   3.472  0.5242  0.6287 -0.8690
 2120SOL    MW4 8527   3.787   0.461   3.504  0.3746 -0.2155 -0.2530
 2121SOL     OW 8528   3.807   0.724   3.392  0.1196 -1.1750  0.3970
 2121SOL    HW2 8529   3.875   0.770   3.442 -0.5953 -0.0209  0.3290
 2121SOL    HW3 8530   3.797   0.640   3.438  1.1693 -1.1156  0.7543
 2121SOL    MW4 8531   3.815   0.719   3.405  0.1638 -1.0149  0.4354
 2122SOL     OW 8532   3.574   0.860   3.508  0.8863  0.8865 -0.2403
 2122SOL    HW2 8533   3.581   0.860   3.604  0.5558 -0.8874 -0.2008
 2122SOL    HW3 8534   3.657   0.823   3.479  0.3654 -0.0038 -0.5883
 2122SOL    MW4 8535   3.586   0.855   3.517  0.7739  0.5350 -0.2809
 2123SOL     OW 8536   3.592   1.119   3.404  0.1608 -0.4390 -0.1627
 2123SOL    HW2 8537   3.575   1.031   3.437 -1.6600 -0.5882 -1.4241
 2123SOL    HW3 8538   3.585   1.112   3.309 -0.0963  1.0747 -0.2737
 2123SOL    MW4 8539   3.589   1.107   3.396 -0.1132 -0.2590 -0.3438
 2124SOL     OW 8540   3.804   1.280   3.489  0.1610  0.2350  0.3650
 2124SOL    HW2 8541   3.781   1.275   3.581 -0.1954  2.4804  0.4289
 2124SOL    HW3 8542   3.746   1.217   3.446 -1.1137  0.6578  1.4224
 2124SOL    MW4 8543   3.793   1.271   3.495 -0.0539  0.5871  0.5128
 2125SOL     OW 8544   3.825   1.540   3.397  0.2024 -0.4204 -0.1376
 2125SOL    HW2 8545   3.897   1.585   3.442 -1.9757  0.9446  2.0697
 2125SOL    HW3 8546   3.824   1.452   3.436 -0.1120 -0.0388  0.7152
 2125SOL    MW4 8547   3.835   1.534   3.408 -0.1264 -0.1900  0.2663
 2126SOL     OW 8548   3.630   1.671   3.500  0.0672 -0.2740  0.0623
 2126SOL    HW2 8549   3.644   1.761   3.471 -0.6795 -0.4485 -0.8763
 2126SOL    HW3 8550   3.706   1.623   3.466 -1.3976 -0.7203 -2.7789
 2126SOL    MW4 8551   3.642   1.676   3.492 -0.2246 -0.3558 -0.4363
 2127SOL     OW 8552   3.609   1.931   3.375 -0.2278  0.2053 -0.3390
 2127SOL    HW2 8553   3.686   1.979   3.405 -1.0212  1.9562 -1.0914
 2127SOL    HW3 8554   3.536   1.968   3.424 -0.4452 -2.4617  1.4754
 2127SOL    MW4 8555   3.610   1.942   3.385 -0.3610  0.0845 -0.1988
 2128SOL     OW 8556   3.831   2.022   3.486 -0.2936  0.7377 -0.1644
 2128SOL    HW2 8557   3.840   2.020   3.581 -0.0258  1.5920 -0.1639
 2128SOL    HW3 8558   3.911   1.981   3.453  0.1332  1.4502 -0.0323
 2128SOL    MW4 8559   3.843   2.016   3.494 -0.2019  0.9444 -0.1469
 2129SOL     OW 8560   3.816   2.274   3.384  0.2849  0.4806  0.4689
 2129SOL    HW2 8561   3.879   2.326   3.433  1.4000  0.1480 -0.6055
 2129SOL    HW3 8562   3.811   2.191   3.433 -0.6984  1.1805  1.5756
 2129SOL    MW4 8563   3.823   2.270   3.397  0.3026  0.5291  0.4730
 2130SOL     OW 8564   3.595   2.450   3.477  0.1765  0.0742 -0.4389
 2130SOL    HW2 8565   3.604   2.542   3.452  0.9824  0.2673  0.4973
 2130SOL    HW3 8566   3.661   2.404   3.425 -0.7582 -0.1019 -1.4902
 2130SOL    MW4 8567   3.605   2.456   3.467  0.1597  0.0765 -0.4542
 2131SOL     OW 8568   3.632   2.725   3.395  0.0421  0.2581 -0.2150
 2131SOL    HW2 8569   3.706   2.770   3.435  1.2077 -2.1344  0.3892
 2131SOL    HW3 8570   3.644   2.737   3.301  0.8328  0.4126 -0.0981
 2131SOL    MW4 8571   3.643   2.733   3.388  0.3004 -0.0372 -0.1199
 2132SOL     OW 8572   3.840   2.865   3.509  0.1052 -0.2334  0.3383
 2132SOL    HW2 8573   3.847   2.879   3.604 -0.2371 -0.3177  0.3758
 2132SOL    HW3 8574   3.828   2.953   3.473  0.4408 -0.1797  0.3534
 2132SOL    MW4 8575   3.839   2.879   3.517  0.1042 -0.2375  0.3452
 2133SOL     OW 8576   3.805   3.118   3.405 -0.2036  0.0544 -0.5036
 2133SOL    HW2 8577   3.886   3.147   3.447 -1.1604  0.6229  0.9968
 2133SOL    HW3 8578   3.827   3.111   3.312  1.9262 -1.0670  0.0459
 2133SOL    MW4 8579   3.819   3.121   3.398 -0.0491 -0.0184 -0.2332
 2134SOL     OW 8580   3.578   3.203   3.562  0.5611 -0.2428  0.4080
 2134SOL    HW2 8581   3.555   3.295   3.543  1.4381 -0.1217 -0.1405
 2134SOL    HW3 8582   3.642   3.181   3.494 -1.3243 -1.9823 -0.8648
 2134SOL    MW4 8583   3.584   3.213   3.550  0.4282 -0.4561  0.1676
 2135SOL     OW 8584   3.560   3.462   3.466 -0.3668  0.4309  0.2448
 2135SOL    HW2 8585   3.483   3.515   3.487 -0.5712  0.0138  0.5299
 2135SOL    HW3 8586   3.560   3.458   3.370 -0.3743  0.9122  0.2222
 2135SOL    MW4 8587   3.550   3.469   3.456 -0.3948  0.4394  0.2794
 2136SOL     OW 8588   3.805   3.595   3.518 -0.4137  0.0089  0.1795
 2136SOL    HW2 8589   3.808   3.607   3.613 -1.1215  0.2535  0.1712
 2136SOL    HW3 8590   3.718   3.561   3.500 -1.2703  2.4956 -0.6478
 2136SOL    MW4 8591   3.794   3.592   3.528 -0.6204  0.3695  0.0691
 2137SOL     OW 8592   3.812   3.870   3.422  0.1128 -0.0500  0.3430
 2137SOL    HW2 8593   3.744   3.904   3.479  0.2856 -0.7887  0.9950
 2137SOL    HW3 8594   3.819   3.777   3.445  1.3572  0.0176  0.3052
 2137SOL    MW4 8595   3.804   3.862   3.432  0.2999 -0.1383  0.4241
 2138SOL     OW 8596   3.578   4.003   3.538 -0.2303  0.0634  0.2745
 2138SOL    HW2 8597   3.573   4.015   3.633 -0.3955  0.5642  0.2036
 2138SOL    HW3 8598   3.574   4.092   3.502 -1.9234 -0.2150 -0.2724
 2138SOL    MW4 8599   3.577   4.016   3.545 -0.4754  0.0925  0.1929
 2139SOL     OW 8600   3.587   4.241   3.425  0.3433  0.3939  0.4547
 2139SOL    HW2 8601   3.514   4.293   3.461 -1.0727 -2.0307  1.2143
 2139SOL    HW3 8602   3.581   4.254   3.331 -0.8686  0.5279  0.5379
 2139SOL    MW4 8603   3.576   4.250   3.418 -0.0031  0.0916  0.5658
 2140SOL     OW 8604   3.790   4.383   3.534 -0.2886  0.3683 -0.4956
 2140SOL    HW2 8605   3.724   4.333   3.485  1.5138 -0.2674 -2.3981
 2140SOL    HW3 8606   3.791   4.469   3.492 -0.8484  0.8041  0.3943
 2140SOL    MW4 8607   3.782   4.388   3.522 -0.1247  0.3424 -0.6292
 2141SOL     OW 8608   4.242   4.656   3.413 -0.0349  0.2674  0.0463
 2141SOL    HW2 8609   4.243   4.566   3.445  0.9967  0.2672  0.0197
 2141SOL    HW3 8610   4.318   4.697   3.454 -1.5169  1.6392  1.4959
 2141SOL    MW4 8611   4.252   4.649   3.422 -0.0939  0.4482  0.2341
 2142SOL     OW 8612   4.017   0.117   3.516 -0.1577 -0.2126  0.1164
 2142SOL    HW2 8613   4.092   0.072   3.478 -0.6585 -0.8077 -0.1577
 2142SOL    HW3 8614   3.941   0.070   3.484 -0.6339  0.0585  0.8333
 2142SOL    MW4 8615   4.017   0.105   3.507 -0.2866 -0.2553  0.1748
 2143SOL     OW 8616   4.028   0.380   3.416  0.3913  0.2208  0.1477
 2143SOL    HW2 8617   4.020   0.293   3.455 -1.4857  0.6350  0.7426
 2143SOL    HW3 8618   4.031   0.364   3.322 -2.1441 -0.3999  0.1286
 2143SOL    MW4 8619   4.028   0.367   3.409 -0.1907  0.1936  0.2236
 2144SOL     OW 8620   4.265   0.488   3.500 -0.2737 -0.3235 -0.6294
 2144SOL    HW2 8621   4.251   0.581   3.480  1.0687 -0.3519 -1.8117
 2144SOL    HW3 8622   4.182   0.446   3.478 -0.9520  0.6207  0.0867
 2144SOL    MW4 8623   4.252   0.495   3.494 -0.1860 -0.2026 -0.6909
 2145SOL     OW 8624   4.264   0.772   3.416 -0.0936 -0.1688 -0.2058
 2145SOL    HW2 8625   4.344   0.818   3.440 -1.2147  2.3072 -1.0858
 2145SOL    HW3 8626   4.276   0.751   3.323  0.2343 -1.3410  0.0878
 2145SOL    MW4 8627   4.276   0.775   3.407 -0.1984  0.0032 -0.2832
 2146SOL     OW 8628   4.015   0.870   3.528  0.0939  0.0521  0.2802
 2146SOL    HW2 8629   4.030   0.949   3.477  0.5214 -0.1901  0.0246
 2146SOL    HW3 8630   4.089   0.813   3.506  1.5947  0.8760  3.0310
 2146SOL    MW4 8631   4.027   0.873   3.518  0.3486  0.1289  0.6096
 2147SOL     OW 8632   4.044   1.125   3.424  0.7796  0.4445  0.1055
 2147SOL    HW2 8633   4.119   1.169   3.464 -0.2034  0.7243  1.6822
 2147SOL    HW3 8634   3.968   1.171   3.460 -0.2041 -1.0279 -0.0498
 2147SOL    MW4 8635   4.044   1.137   3.434  0.5198  0.2871  0.2933
 2148SOL     OW 8636   4.256   1.261   3.539  0.3430  0.1515  0.0898
 2148SOL    HW2 8637   4.272   1.346   3.499  2.4536 -0.0032  0.5415
 2148SOL    HW3 8638   4.333   1.209   3.516 -2.1205 -2.5814 -2.5415
 2148SOL    MW4 8639   4.268   1.265   3.531  0.2966 -0.2294 -0.1976
 2149SOL     OW 8640   4.278   1.498   3.408  0.4850 -0.0717 -0.1826
 2149SOL    HW2 8641   4.204   1.544   3.447 -0.5125 -0.9482 -1.0055
 2149SOL    HW3 8642   4.262   1.502   3.314  1.6572  0.0083 -0.3909
 2149SOL    MW4 8643   4.266   1.505   3.401  0.5083 -0.1768 -0.3185
 2150SOL     OW 8644   4.050   1.647   3.517 -0.3355 -0.0704  0.0593
 2150SOL    HW2 8645   4.056   1.649   3.612 -0.2954  1.3529  0.0360
 2150SOL    HW3 8646   4.028   1.737   3.492  0.2157 -0.3003 -1.3062
 2150SOL    MW4 8647   4.048   1.659   3.526 -0.2570  0.0871 -0.1240
 2151SOL     OW 8648   4.050   1.897   3.386  0.2565  0.4023 -0.0195
 2151SOL    HW2 8649   4.112   1.961   3.420 -0.0631  0.5310  0.3221
 2151SOL    HW3 8650   4.040   1.920   3.294  2.1714 -0.7812 -0.5595
 2151SOL    MW4 8651   4.057   1.908   3.378  0.4668  0.2632 -0.0455
 2152SOL     OW 8652   4.256   2.039   3.519  0.7236 -0.1465  0.5315
 2152SOL    HW2 8653   4.247   2.127   3.482  0.8165 -0.5477 -0.4796
 2152SOL    HW3 8654   4.330   2.000   3.472 -0.6258 -1.4968 -0.5681
 2152SOL    MW4 8655   4.264   2.045   3.508  0.5574 -0.3777  0.2532
 2153SOL     OW 8656   4.258   2.322   3.391  0.1889  0.1781 -0.2563
 2153SOL    HW2 8657   4.170   2.355   3.409  0.0444 -0.8131  0.9744
 2153SOL    HW3 8658   4.260   2.306   3.297 -0.6685  0.9784 -0.4177
 2153SOL    MW4 8659   4.247   2.325   3.381  0.0567  0.1531 -0.1152
 2154SOL     OW 8660   4.024   2.407   3.477  0.1753 -0.1774  0.1127
 2154SOL    HW2 8661   4.056   2.418   3.567  0.1279 -0.6533  0.1859
 2154SOL    HW3 8662   4.017   2.497   3.444 -2.0867  0.1337  1.3665
 2154SOL    MW4 8663   4.027   2.421   3.485 -0.1292 -0.1988  0.2875
 2155SOL     OW 8664   4.035   2.698   3.409 -0.0687  0.5592  0.3366
 2155SOL    HW2 8665   4.119   2.726   3.445 -0.2476  0.6875  0.6566
 2155SOL    HW3 8666   3.971   2.759   3.445 -0.2481  0.7049 -0.2222
 2155SOL    MW4 8667   4.037   2.709   3.419 -0.1159  0.5953  0.3052
 2156SOL     OW 8668   4.268   2.805   3.503 -0.0439 -0.8647  0.0479
 2156SOL    HW2 8669   4.269   2.798   3.598  0.0227  0.0585  0.1204
 2156SOL    HW3 8670   4.352   2.769   3.475  0.5536  0.2294  0.4389
 2156SOL    MW4 8671   4.279   2.799   3.512  0.0439 -0.5984  0.1090
 2157SOL     OW 8672   4.257   3.099   3.412 -0.4222  0.0406  0.2753
 2157SOL    HW2 8673   4.275   3.008   3.435  1.0288  0.2883  0.2186
 2157SOL    HW3 8674   4.272   3.104   3.317  0.3069  0.4975  0.4041
 2157SOL    MW4 8675   4.262   3.088   3.402 -0.1345  0.1335  0.2849
 2158SOL     OW 8676   4.036   3.224   3.511 -0.0297 -0.0452  0.3331
 2158SOL    HW2 8677   4.036   3.311   3.472  1.4671  0.5408  1.6137
 2158SOL    HW3 8678   4.111   3.180   3.471 -0.2892 -0.4680  0.3075
 2158SOL    MW4 8679   4.046   3.230   3.500  0.1335 -0.0234  0.4985
 2159SOL     OW 8680   4.043   3.487   3.409  0.0318 -0.0632 -0.4175
 2159SOL    HW2 8681   4.112   3.541   3.448 -0.4406  0.8479 -0.8364
 2159SOL    HW3 8682   3.962   3.534   3.428 -0.3149 -0.2558 -1.4241
 2159SOL    MW4 8683   4.041   3.500   3.417 -0.0758  0.0317 -0.6053
 2160SOL     OW 8684   4.245   3.626   3.542 -0.3555 -0.1076 -0.6364
 2160SOL    HW2 8685   4.226   3.638   3.636  1.0830 -0.8949 -0.2291
 2160SOL    HW3 8686   4.258   3.715   3.509 -1.0299  0.1861 -0.1140
 2160SOL    MW4 8687   4.244   3.639   3.550 -0.2551 -0.1724 -0.5138
 2161SOL     OW 8688   4.271   3.896   3.427 -0.4183  0.0049 -0.1081
 2161SOL    HW2 8689   4.343   3.935   3.475  0.0301  0.7401 -1.3600
 2161SOL    HW3 8690   4.306   3.877   3.340 -1.7903  0.6294 -0.8247
 2161SOL    MW4 8691   4.285   3.898   3.421 -0.5407  0.1843 -0.3679
 2162SOL     OW 8692   4.023   3.992   3.529  0.4264  0.2728  0.5249
 2162SOL    HW2 8693   4.101   3.956   3.486  0.4761  0.8546  0.1213
 2162SOL    HW3 8694   3.949   3.954   3.481  0.4625 -0.2029  0.8454
 2162SOL    MW4 8695   4.023   3.982   3.517  0.4377  0.2868  0.5140
 2163SOL     OW 8696   4.036   4.246   3.438 -0.7414  0.3669 -0.5248
 2163SOL    HW2 8697   4.035   4.157   3.471  0.0807  1.1132  1.6310
 2163SOL    HW3 8698   3.964   4.290   3.484  0.1959  1.3266  0.0827
 2163SOL    MW4 8699   4.026   4.240   3.449 -0.5093  0.5913 -0.1602
 2164SOL     OW 8700   4.249   4.378   3.528 -0.0283  0.0182  0.1903
 2164SOL    HW2 8701   4.239   4.370   3.623  0.6224  0.1943  0.2753
 2164SOL    HW3 8702   4.176   4.327   3.492 -1.3180  1.3938  0.7831
 2164SOL    MW4 8703   4.238   4.370   3.535 -0.1130  0.2227  0.2797
 2165SOL     OW 8704   0.201   0.012   3.922 -0.2087 -0.3239 -0.2345
 2165SOL    HW2 8705   0.183   0.003   4.015  0.2248  1.4935  0.0446
 2165SOL    HW3 8706   0.124   0.057   3.887  0.2438  0.2542 -0.4905
 2165SOL    MW4 8707   0.188   0.017   3.930 -0.0918 -0.0078 -0.2315
 2166SOL     OW 8708   4.448   0.149   3.842  0.2352 -0.2928  0.0328
 2166SOL    HW2 8709   4.443   0.244   3.854 -0.0555 -0.3078  0.0439
 2166SOL    HW3 8710   4.467   0.137   3.749  0.9617 -0.2102  0.1659
 2166SOL    MW4 8711   4.450   0.160   3.831  0.2928 -0.2839  0.0517
 2167SOL     OW 8712   4.443   0.410   3.929  0.8783 -0.4313 -0.6595
 2167SOL    HW2 8713   4.375   0.462   3.885  1.0028  1.0986  0.8840
 2167SOL    HW3 8714   4.524   0.434   3.885  1.0201  1.1915  0.4487
 2167SOL    MW4 8715   4.445   0.420   3.918  0.9131 -0.0154 -0.3097
 2168SOL     OW 8716   0.181   0.483   3.784 -0.1633 -0.0175  0.3246
 2168SOL    HW2 8717   0.198   0.574   3.807 -1.0181  0.6232 -1.5041
 2168SOL    HW3 8718   0.197   0.478   3.690  1.2071 -2.0854  0.6526
 2168SOL    MW4 8719   0.185   0.494   3.775 -0.0953 -0.2058  0.1266
 2169SOL     OW 8720   0.221   0.746   3.874 -0.4830 -0.1411  0.1682
 2169SOL    HW2 8721   0.218   0.743   3.970  0.4588 -0.5765  0.1859
 2169SOL    HW3 8722   0.148   0.804   3.850 -0.6866  0.0222  1.1473
 2169SOL    MW4 8723   0.211   0.753   3.884 -0.3856 -0.1770  0.2995
 2170SOL     OW 8724   4.474   0.887   3.804 -0.0368 -0.4739  0.3824
 2170SOL    HW2 8725   4.390   0.859   3.841  0.4898 -1.1617  1.0727
 2170SOL    HW3 8726   4.485   0.977   3.835 -1.2539  0.1751 -1.0063
 2170SOL    MW4 8727   4.464   0.895   3.813 -0.1278 -0.4790  0.2902
 2171SOL     OW 8728   0.001   1.136   3.893  0.3313 -0.1608 -0.4792
 2171SOL    HW2 8729  -0.078   1.186   3.870 -0.0835 -0.3096  0.5785
 2171SOL    HW3 8730   0.072   1.201   3.890 -0.1499  0.4211  0.5558
 2171SOL    MW4 8731  -0.000   1.151   3.889  0.2127 -0.1037 -0.2029
 2172SOL     OW 8732   0.249   1.270   3.760  0.3760  0.0573  0.2787
 2172SOL    HW2 8733   0.248   1.361   3.789  0.5982  0.0519  0.3063
 2172SOL    HW3 8734   0.261   1.275   3.665  1.4371  0.0363  0.4011
 2172SOL    MW4 8735   0.251   1.283   3.751  0.5453  0.0539  0.2983
 2173SOL     OW 8736   0.230   1.535   3.859 -0.4602 -0.1429  0.0201
 2173SOL    HW2 8737   0.237   1.575   3.945 -3.0104 -0.7974  0.5809
 2173SOL    HW3 8738   0.145   1.566   3.826  0.3374 -0.1631 -2.1236
 2173SOL    MW4 8739   0.219   1.545   3.866 -0.6915 -0.2320 -0.1886
 2174SOL     OW 8740   4.482   1.651   3.769 -0.0975 -0.5513  0.1880
 2174SOL    HW2 8741   4.476   1.732   3.819  0.9143 -0.1362 -0.3524
 2174SOL    HW3 8742   4.493   1.680   3.678  0.7132 -1.2878  0.0507
 2174SOL    MW4 8743   4.483   1.666   3.764  0.1431 -0.5937  0.0985
 2175SOL     OW 8744   3.361   2.825   4.248  0.4790 -0.1420 -0.7688
 2175SOL    HW2 8745   3.441   2.779   4.221  1.3341 -0.0194  1.4412
 2175SOL    HW3 8746   3.381   2.917   4.234 -0.7708 -0.2897 -3.9845
 2175SOL    MW4 8747   3.375   2.831   4.243  0.4268 -0.1452 -0.9022
 2176SOL     OW 8748   4.489   1.885   3.885 -0.2582 -0.2384 -0.0482
 2176SOL    HW2 8749   4.496   1.900   3.979  1.9043 -0.0158 -0.2220
 2176SOL    HW3 8750   4.421   1.946   3.856  0.1408  0.7914  1.1290
 2176SOL    MW4 8751   4.481   1.895   3.894  0.0798 -0.0733  0.0842
 2177SOL     OW 8752   0.184   2.050   3.757 -0.1924 -0.5648 -0.2799
 2177SOL    HW2 8753   0.122   1.988   3.796  0.3020 -0.1795  1.1505
 2177SOL    HW3 8754   0.171   2.131   3.806 -0.6741  0.4196 -1.9952
 2177SOL    MW4 8755   0.174   2.053   3.769 -0.1907 -0.3839 -0.3173
 2178SOL     OW 8756   0.208   2.299   3.859  0.3736 -0.0666  0.1050
 2178SOL    HW2 8757   0.158   2.361   3.806 -1.1845 -0.8053  0.6644
 2178SOL    HW3 8758   0.172   2.309   3.947 -0.3428 -2.2105  0.0708
 2178SOL    MW4 8759   0.197   2.309   3.863  0.0735 -0.4468  0.1743
 2179SOL     OW 8760   0.008   2.695   3.830  0.0327  0.0248 -0.6844
 2179SOL    HW2 8761   0.019   2.670   3.922  0.9292 -1.5542 -1.1897
 2179SOL    HW3 8762   0.087   2.744   3.809  0.0329  0.0078 -0.7236
 2179SOL    MW4 8763   0.020   2.698   3.839  0.1507 -0.1860 -0.7560
 2180SOL     OW 8764   0.233   2.859   3.771  0.5084 -0.2808  0.1464
 2180SOL    HW2 8765   0.297   2.800   3.811 -0.2647 -0.4255  1.1913
 2180SOL    HW3 8766   0.239   2.840   3.677 -0.5701 -2.8645  0.5614
 2180SOL    MW4 8767   0.243   2.849   3.764  0.2641 -0.6406  0.3390
 2181SOL     OW 8768   4.462   1.137   4.165  0.3507  0.6093  0.0214
 2181SOL    HW2 8769   4.462   1.047   4.197  1.5164  0.5661 -0.0909
 2181SOL    HW3 8770   4.451   1.130   4.070 -0.4707  0.6310  0.1097
 2181SOL    MW4 8771   4.461   1.124   4.157  0.3958  0.6065  0.0186
 2182SOL     OW 8772   0.038   3.251   3.806 -0.2140  0.2195 -0.8251
 2182SOL    HW2 8773   0.114   3.201   3.836 -0.3129  0.3399 -0.3680
 2182SOL    HW3 8774   0.040   3.243   3.710  0.8068  0.8752 -0.8623
 2182SOL    MW4 8775   0.048   3.243   3.797 -0.0924  0.3219 -0.7696
 2183SOL     OW 8776   4.453   3.490   3.922  0.2887 -0.1578 -0.4278
 2183SOL    HW2 8777   4.520   3.552   3.893  0.9791 -0.2841  0.8552
 2183SOL    HW3 8778   4.484   3.405   3.890  1.0909 -0.3082  0.7134
 2183SOL    MW4 8779   4.466   3.487   3.914  0.4859 -0.1941 -0.1080
 2184SOL     OW 8780   0.180   3.643   3.823  0.1651  0.0649  0.1039
 2184SOL    HW2 8781   0.271   3.624   3.847 -0.1339  0.5767  1.6456
 2184SOL    HW3 8782   0.168   3.735   3.845 -0.8472 -0.0975  0.2407
 2184SOL    MW4 8783   0.191   3.652   3.829 -0.0079  0.1111  0.3254
 2185SOL     OW 8784   0.200   3.898   3.930 -0.3504 -0.1208  0.3329
 2185SOL    HW2 8785   0.228   3.874   4.018 -1.7637 -0.1010  0.7875
 2185SOL    HW3 8786   0.280   3.931   3.888  0.8438 -2.2228  0.8572
 2185SOL    MW4 8787   0.214   3.899   3.936 -0.3793 -0.3958  0.4621
 2186SOL     OW 8788   4.486   4.051   3.820 -0.0824  0.1352  0.1241
 2186SOL    HW2 8789   4.406   4.007   3.849  0.0448 -0.9242 -1.0682
 2186SOL    HW3 8790   4.557   3.996   3.854  0.1007  0.1042 -0.3067
 2186SOL    MW4 8791   4.485   4.038   3.828 -0.0415 -0.0086 -0.0899
 2187SOL     OW 8792   4.469   4.295   3.961 -0.1193 -0.6017  0.1357
 2187SOL    HW2 8793   4.540   4.346   3.921 -0.5646  0.2660  0.4385
 2187SOL    HW3 8794   4.481   4.207   3.927  0.0520 -0.0702 -1.2025
 2187SOL    MW4 8795   4.480   4.290   3.951 -0.1554 -0.4168 -0.0010
 2188SOL     OW 8796   0.202   4.399   3.829  0.2049 -0.0824  0.2894
 2188SOL    HW2 8797   0.274   4.354   3.874 -1.7763 -0.8022  2.8290
 2188SOL    HW3 8798   0.219   4.492   3.845  0.2768 -0.2710  1.3415
 2188SOL    MW4 8799   0.214   4.405   3.837 -0.0470 -0.2022  0.7634
 2189SOL     OW 8800   0.673   4.636   3.950 -0.0287  0.4945 -0.2484
 2189SOL    HW2 8801   0.659   4.551   3.909  0.8472  0.7683 -1.1331
 2189SOL    HW3 8802   0.610   4.694   3.908 -0.2468  0.4043 -0.0433
 2189SOL    MW4 8803   0.663   4.633   3.939  0.0582  0.5183 -0.3383
 2190SOL     OW 8804   0.436   0.089   3.827 -0.6759 -0.0381 -0.2468
 2190SOL    HW2 8805   0.421   0.182   3.847 -2.0112 -0.1225 -0.7736
 2190SOL    HW3 8806   0.361   0.044   3.866  0.0847 -0.9210  0.1852
 2190SOL    MW4 8807   0.424   0.095   3.834 -0.7517 -0.1657 -0.2594
 2191SOL     OW 8808   0.421   0.360   3.854 -0.2384  0.3019 -0.2180
 2191SOL    HW2 8809   0.485   0.408   3.801  0.1047  0.9676  0.7818
 2191SOL    HW3 8810   0.336   0.393   3.824 -0.0099  1.4045  0.3177
 2191SOL    MW4 8811   0.418   0.371   3.843 -0.1630  0.5352 -0.0155
 2192SOL     OW 8812   0.665   0.475   3.765 -0.1697  0.0621  0.3549
 2192SOL    HW2 8813   0.745   0.439   3.805 -0.7868 -0.5252  1.0843
 2192SOL    HW3 8814   0.665   0.567   3.791  0.3133  0.0880  0.2790
 2192SOL    MW4 8815   0.676   0.482   3.774 -0.1873 -0.0120  0.4413
 2193SOL     OW 8816   0.666   0.736   3.852 -0.1448  0.0629 -0.3878
 2193SOL    HW2 8817   0.749   0.774   3.822 -0.1809 -0.4530 -1.1359
 2193SOL    HW3 8818   0.599   0.789   3.809 -0.2025  0.2732 -0.0385
 2193SOL    MW4 8819   0.668   0.748   3.842 -0.1572  0.0226 -0.4406
 2194SOL     OW 8820   0.431   0.868   3.744 -0.9628  0.1485 -0.0201
 2194SOL    HW2 8821   0.433   0.947   3.797 -0.5425 -0.1789  0.4611
 2194SOL    HW3 8822   0.367   0.812   3.787 -0.7429 -0.0517  0.0492
 2194SOL    MW4 8823   0.423   0.871   3.757 -0.8783  0.0789  0.0525
 2195SOL     OW 8824   0.409   1.116   3.898  0.0543  0.2766 -0.3719
 2195SOL    HW2 8825   0.494   1.150   3.871 -0.4016  0.4650 -1.6081
 2195SOL    HW3 8826   0.346   1.168   3.849 -0.7777  0.0388  0.4249
 2195SOL    MW4 8827   0.412   1.128   3.888 -0.1156  0.2701 -0.4299
 2196SOL     OW 8828   0.647   1.236   3.793 -0.0184  0.1033  0.2743
 2196SOL    HW2 8829   0.742   1.229   3.802  0.1097  1.9232  0.4971
 2196SOL    HW3 8830   0.630   1.219   3.700  0.4161 -1.1224  0.4084
 2196SOL    MW4 8831   0.657   1.233   3.782  0.0558  0.1817  0.3214
 2197SOL     OW 8832   0.623   1.518   3.884 -0.4022  0.3958  0.0518
 2197SOL    HW2 8833   0.702   1.564   3.857  0.5600 -0.3510  1.5420
 2197SOL    HW3 8834   0.638   1.427   3.858 -1.6774  0.6146 -1.5498
 2197SOL    MW4 8835   0.635   1.512   3.877 -0.4434  0.3262  0.0370
 2198SOL     OW 8836   0.445   1.671   3.758 -0.3512  0.6167  0.3448
 2198SOL    HW2 8837   0.513   1.624   3.806 -0.0126  0.4824 -0.2629
 2198SOL    HW3 8838   0.366   1.619   3.771  0.3027 -0.8874 -1.4607
 2198SOL    MW4 8839   0.444   1.658   3.766 -0.2203  0.4005  0.0265
 2199SOL     OW 8840   0.398   1.931   3.865  0.1308 -0.0111 -0.0130
 2199SOL    HW2 8841   0.419   1.843   3.834 -0.3183  0.0943 -0.6155
 2199SOL    HW3 8842   0.320   1.956   3.816  1.0744  1.2990 -0.8776
 2199SOL    MW4 8843   0.391   1.923   3.855  0.1960  0.1757 -0.2065
 2200SOL     OW 8844   0.628   2.069   3.764  0.6510  0.1802 -0.1689
 2200SOL    HW2 8845   0.662   2.140   3.818  0.9344  0.1344 -0.2830
 2200SOL    HW3 8846   0.547   2.042   3.807  1.1379 -0.1908  0.5190
 2200SOL    MW4 8847   0.622   2.074   3.777  0.7526  0.1249 -0.0930
 2201SOL     OW 8848   0.681   2.287   3.918 -0.1545 -0.2030  0.2718
 2201SOL    HW2 8849   0.745   2.352   3.889 -0.8202  0.6605  0.7088
 2201SOL    HW3 8850   0.596   2.328   3.904 -0.5438 -0.3172  2.0558
 2201SOL    MW4 8851   0.678   2.301   3.913 -0.2937 -0.1040  0.5648
 2202SOL     OW 8852   0.435   2.434   3.820 -0.5163 -0.5494  0.6353
 2202SOL    HW2 8853   0.355   2.386   3.842 -3.0944  2.5094 -1.5676
 2202SOL    HW3 8854   0.440   2.430   3.725 -0.2826  2.5749  0.4611
 2202SOL    MW4 8855   0.425   2.427   3.810 -0.8256  0.2666  0.3214
 2203SOL     OW 8856   0.469   2.704   3.850  0.2356  0.8888 -0.3798
 2203SOL    HW2 8857   0.553   2.736   3.816  0.3367  0.4826 -0.5103
 2203SOL    HW3 8858   0.472   2.609   3.838  0.4397  0.6861  1.1236
 2203SOL    MW4 8859   0.480   2.696   3.844  0.2759  0.8085 -0.1988
 2204SOL     OW 8860   0.698   2.840   3.767 -0.0004 -0.1802  0.0068
 2204SOL    HW2 8861   0.784   2.798   3.774 -0.0167  0.0158  1.6181
 2204SOL    HW3 8862   0.674   2.831   3.675  1.7918 -0.1519 -0.4760
 2204SOL    MW4 8863   0.706   2.834   3.756  0.2338 -0.1507  0.1557
 2205SOL     OW 8864   0.686   3.108   3.877 -0.3653 -0.1796  0.0442
 2205SOL    HW2 8865   0.701   3.096   3.971 -0.3597  0.9326  0.1889
 2205SOL    HW3 8866   0.665   3.020   3.845 -1.6978 -0.3391  1.3265
 2205SOL    MW4 8867   0.686   3.095   3.886 -0.5404 -0.0536  0.2322
 2206SOL     OW 8868   0.248   3.105   3.888 -0.0779 -0.0000 -0.6242
 2206SOL    HW2 8869   0.241   3.078   3.980 -0.6442  0.8720 -0.4086
 2206SOL    HW3 8870   0.250   3.022   3.840 -1.4395 -0.4489  0.0586
 2206SOL    MW4 8871   0.247   3.090   3.894 -0.3323  0.0558 -0.5057
 2207SOL     OW 8872   0.428   3.535   3.875 -0.0342  0.0701  0.5670
 2207SOL    HW2 8873   0.515   3.575   3.868  0.0724 -0.1903  0.3946
 2207SOL    HW3 8874   0.441   3.445   3.847 -0.1817 -0.2101  1.3771
 2207SOL    MW4 8875   0.442   3.529   3.871 -0.0396 -0.0012  0.6511
 2208SOL     OW 8876   0.697   3.632   3.865 -0.0505  0.1884  0.3470
 2208SOL    HW2 8877   0.685   3.722   3.898  3.4514  1.4292 -1.4701
 2208SOL    HW3 8878   0.686   3.640   3.770  0.3843 -1.3107  0.1663
 2208SOL    MW4 8879   0.694   3.645   3.857  0.4689  0.1545  0.0837
 2209SOL     OW 8880   0.630   3.876   3.931  0.2073  0.1308 -0.1715
 2209SOL    HW2 8881   0.635   3.906   4.022  2.6025 -2.7829  0.7112
 2209SOL    HW3 8882   0.704   3.920   3.888  1.4974 -1.5661  0.2652
 2209SOL    MW4 8883   0.641   3.886   3.938  0.6935 -0.4776  0.0024
 2210SOL     OW 8884   0.417   4.029   3.839  0.0782 -0.4848  0.0146
 2210SOL    HW2 8885   0.486   3.968   3.865 -0.5950 -1.2986 -0.0774
 2210SOL    HW3 8886   0.423   4.032   3.743  1.7571  1.5648  0.1435
 2210SOL    MW4 8887   0.427   4.022   3.829  0.2109 -0.3214  0.0193
 2211SOL     OW 8888   0.435   4.283   3.950 -0.3328  0.6338 -0.5277
 2211SOL    HW2 8889   0.513   4.322   3.911 -0.0948  1.0311  0.3266
 2211SOL    HW3 8890   0.431   4.195   3.913  0.6428  0.5346 -0.4314
 2211SOL    MW4 8891   0.445   4.276   3.940 -0.1727  0.6733 -0.4022
 2212SOL     OW 8892   0.644   4.395   3.815  0.2380  0.2472 -0.1227
 2212SOL    HW2 8893   0.718   4.340   3.842 -0.3369  0.5850  2.1783
 2212SOL    HW3 8894   0.654   4.402   3.720  2.1304 -1.2053 -0.0689
 2212SOL    MW4 8895   0.655   4.388   3.806  0.4118  0.1001  0.1881
 2213SOL     OW 8896   1.094   4.658   3.891 -0.2156 -0.0529 -0.0803
 2213SOL    HW2 8897   1.176   4.697   3.862 -0.4067  1.2670  1.1231
 2213SOL    HW3 8898   1.096   4.569   3.855  1.0368  0.4568 -1.3327
 2213SOL    MW4 8899   1.105   4.651   3.882 -0.0756  0.1885 -0.0865
 2214SOL     OW 8900   0.867   0.090   3.783 -0.0494  0.0137 -0.3601
 2214SOL    HW2 8901   0.939   0.033   3.810 -0.1094  0.3914  0.5888
 2214SOL    HW3 8902   0.788   0.048   3.817  0.0072  1.2690  1.3647
 2214SOL    MW4 8903   0.866   0.077   3.791 -0.0499  0.2292 -0.0074
 2215SOL     OW 8904   0.902   0.367   3.853 -0.0981 -0.3069 -0.2367
 2215SOL    HW2 8905   0.901   0.345   3.946 -2.7781 -2.1727 -0.6526
 2215SOL    HW3 8906   0.897   0.283   3.808 -2.0792  0.7091 -1.9996
 2215SOL    MW4 8907   0.901   0.353   3.859 -0.7132 -0.4191 -0.5243
 2216SOL     OW 8908   1.141   0.488   3.792  0.0221  0.0834 -0.4331
 2216SOL    HW2 8909   1.210   0.429   3.824 -1.4297 -1.6969 -0.5697
 2216SOL    HW3 8910   1.060   0.453   3.829 -0.7002  2.9297  0.8194
 2216SOL    MW4 8911   1.140   0.476   3.801 -0.2646  0.2240 -0.2861
 2217SOL     OW 8912   1.148   0.775   3.843 -0.4099 -0.2080  0.1101
 2217SOL    HW2 8913   1.124   0.788   3.935 -0.6173 -0.5956  0.1132
 2217SOL    HW3 8914   1.134   0.682   3.827 -1.0902 -0.0074 -0.5137
 2217SOL    MW4 8915   1.143   0.765   3.853 -0.5269 -0.2327  0.0284
 2218SOL     OW 8916   0.897   0.889   3.770 -0.2123  0.4028 -0.6569
 2218SOL    HW2 8917   0.981   0.847   3.790 -0.3468  0.5741  0.3180
 2218SOL    HW3 8918   0.892   0.890   3.675  0.4036 -0.5885 -0.7018
 2218SOL    MW4 8919   0.908   0.884   3.760 -0.1488  0.2947 -0.5341
 2219SOL     OW 8920   0.897   1.148   3.899  0.1470 -0.0577  0.2681
 2219SOL    HW2 8921   0.895   1.132   3.993  0.1851 -0.2811  0.2313
 2219SOL    HW3 8922   0.884   1.062   3.859  1.1970 -0.1250  0.0589
 2219SOL    MW4 8923   0.895   1.134   3.906  0.2905 -0.0960  0.2360
 2220SOL     OW 8924   1.118   1.262   3.768 -0.1207 -0.1416  0.2827
 2220SOL    HW2 8925   1.113   1.351   3.800 -2.1074 -0.1186 -0.0331
 2220SOL    HW3 8926   1.052   1.214   3.818  0.3112 -1.2403 -0.1754
 2220SOL    MW4 8927   1.109   1.267   3.779 -0.3259 -0.2835  0.1805
 2221SOL     OW 8928   1.084   1.527   3.869 -0.2890 -0.0023 -0.1582
 2221SOL    HW2 8929   1.088   1.539   3.964 -0.7560 -1.6230  0.0764
 2221SOL    HW3 8930   1.160   1.575   3.836  2.0661 -2.5576  1.3633
 2221SOL    MW4 8931   1.095   1.535   3.878 -0.0398 -0.5533  0.0737
 2222SOL     OW 8932   0.843   1.661   3.807  0.1168 -0.2191  0.3128
 2222SOL    HW2 8933   0.920   1.611   3.835 -0.3955 -1.3166 -0.2533
 2222SOL    HW3 8934   0.845   1.658   3.712  0.2856  1.1562  0.2624
 2222SOL    MW4 8935   0.854   1.654   3.798  0.0715 -0.1824  0.2313
 2223SOL     OW 8936   0.880   1.932   3.822  0.0094  0.4312  0.2716
 2223SOL    HW2 8937   0.864   1.838   3.814  2.7205 -0.0921  0.5347
 2223SOL    HW3 8938   0.801   1.972   3.786 -0.5600 -1.9392 -1.2913
 2223SOL    MW4 8939   0.867   1.925   3.816  0.2919  0.0494  0.1004
 2224SOL     OW 8940   1.137   2.038   3.771  0.1862  0.0801  0.1806
 2224SOL    HW2 8941   1.053   1.994   3.786  1.4712 -2.4273  0.2048
 2224SOL    HW3 8942   1.149   2.035   3.676 -0.0566  1.0693  0.1079
 2224SOL    MW4 8943   1.127   2.032   3.761  0.3237 -0.1202  0.1740
 2225SOL     OW 8944   1.155   2.328   3.858 -0.4768 -0.1354 -0.0915
 2225SOL    HW2 8945   1.157   2.322   3.954 -0.2638 -0.4623 -0.1159
 2225SOL    HW3 8946   1.132   2.240   3.829 -0.1035 -0.1462 -0.3549
 2225SOL    MW4 8947   1.152   2.316   3.867 -0.3995 -0.1798 -0.1297
 2226SOL     OW 8948   0.895   2.437   3.820  0.2044  0.6913  0.4442
 2226SOL    HW2 8949   0.912   2.529   3.838  0.6457  0.7647 -0.3581
 2226SOL    HW3 8950   0.974   2.392   3.850 -0.0649  0.5510  0.9616
 2226SOL    MW4 8951   0.908   2.443   3.827  0.2272  0.6824  0.4065
 2227SOL     OW 8952   0.921   2.691   3.843  0.1760 -0.3916  0.1601
 2227SOL    HW2 8953   0.911   2.699   3.938 -1.3017  0.3895 -0.0434
 2227SOL    HW3 8954   1.005   2.733   3.824  0.2020 -0.0250  1.0570
 2227SOL    MW4 8955   0.930   2.697   3.853 -0.0155 -0.2401  0.2515
 2228SOL     OW 8956   1.165   2.818   3.770  0.2549 -0.2767 -0.1157
 2228SOL    HW2 8957   1.244   2.774   3.802  0.9344  1.5072  0.7176
 2228SOL    HW3 8958   1.177   2.910   3.796 -0.6797  0.5967 -2.6428
 2228SOL    MW4 8959   1.177   2.825   3.777  0.2214  0.0741 -0.3393
 2229SOL     OW 8960   1.130   3.097   3.785  0.2284 -0.2571 -0.2798
 2229SOL    HW2 8961   1.205   3.143   3.747  0.1428  0.7606  0.7726
 2229SOL    HW3 8962   1.054   3.150   3.761 -0.1659 -1.2683 -1.3143
 2229SOL    MW4 8963   1.130   3.110   3.777  0.1649 -0.2563 -0.2770
 2230SOL     OW 8964   0.891   3.252   3.782  0.7984 -0.7805  0.6819
 2230SOL    HW2 8965   0.823   3.204   3.829 -0.8849  0.2017 -0.7159
 2230SOL    HW3 8966   0.875   3.233   3.689  1.8002  0.2640  0.2754
 2230SOL    MW4 8967   0.880   3.243   3.776  0.7085 -0.5131  0.4439
 2231SOL     OW 8968   0.921   3.482   3.928 -0.2242  0.3352 -0.3989
 2231SOL    HW2 8969   0.906   3.398   3.885 -0.9636  0.5184 -0.5195
 2231SOL    HW3 8970   0.840   3.531   3.913 -0.6938  0.2242  1.6085
 2231SOL    MW4 8971   0.908   3.478   3.920 -0.3837  0.3448 -0.1500
 2232SOL     OW 8972   1.121   3.623   3.789 -0.4357  0.0713 -0.5945
 2232SOL    HW2 8973   1.114   3.714   3.819 -0.7109  0.0329 -0.5337
 2232SOL    HW3 8974   1.048   3.578   3.833  1.1344 -0.7024  1.2738
 2232SOL    MW4 8975   1.110   3.629   3.799 -0.2649 -0.0358 -0.3395
 2233SOL     OW 8976   1.105   3.874   3.898  0.5283 -0.1102 -0.1661
 2233SOL    HW2 8977   1.121   3.865   3.992  0.7284  0.2947 -0.1642
 2233SOL    HW3 8978   1.179   3.926   3.865  0.7008 -0.6290 -0.6233
 2233SOL    MW4 8979   1.117   3.879   3.906  0.5774 -0.1252 -0.2263
 2234SOL     OW 8980   0.857   3.994   3.831  0.2241  0.4508  0.2732
 2234SOL    HW2 8981   0.928   3.935   3.857 -0.2703 -0.3985 -0.2961
 2234SOL    HW3 8982   0.858   3.992   3.736 -0.5209  0.4843  0.2607
 2234SOL    MW4 8983   0.867   3.986   3.822  0.0606  0.3433  0.1965
 2235SOL     OW 8984   0.904   4.254   3.903 -0.2185 -0.4455 -0.0305
 2235SOL    HW2 8985   0.899   4.274   3.997  0.8569 -2.1061  0.4008
 2235SOL    HW3 8986   0.894   4.159   3.899  1.0679 -0.5227 -1.4997
 2235SOL    MW4 8987   0.902   4.244   3.915  0.0931 -0.6752 -0.1674
 2236SOL     OW 8988   1.120   4.394   3.829 -0.4863 -0.5599 -0.0968
 2236SOL    HW2 8989   1.056   4.326   3.850 -1.8812  0.1204 -1.9796
 2236SOL    HW3 8990   1.133   4.385   3.735  2.0611 -0.5357  0.2138
 2236SOL    MW4 8991   1.113   4.384   3.819 -0.3341 -0.4673 -0.3040
 2237SOL     OW 8992   1.543   4.649   3.913 -0.6586  0.3048  0.2532
 2237SOL    HW2 8993   1.564   4.642   4.006  1.0382  0.0810 -0.1233
 2237SOL    HW3 8994   1.570   4.565   3.875 -0.1285  0.8655 -0.6482
 2237SOL    MW4 8995   1.550   4.637   3.920 -0.3648  0.3495  0.0844
 2238SOL     OW 8996   1.329   0.074   3.787  0.2509 -0.3243  0.3130
 2238SOL    HW2 8997   1.334   0.169   3.798 -1.2597 -0.3228  1.1367
 2238SOL    HW3 8998   1.404   0.040   3.836 -0.5598  0.3272  2.0691
 2238SOL    MW4 8999   1.339   0.082   3.795 -0.0553 -0.2381  0.6535
 2239SOL     OW 9000   1.341   0.337   3.873  0.2393  0.2215 -0.4614
 2239SOL    HW2 9001   1.326   0.350   3.967 -1.8068  0.0950 -0.7644
 2239SOL    HW3 9002   1.421   0.387   3.855 -0.2132  1.5181  1.0330
 2239SOL    MW4 9003   1.350   0.345   3.883 -0.0904  0.3759 -0.3040
 2240SOL     OW 9004   1.565   0.478   3.788 -0.2669 -0.0467  0.3455
 2240SOL    HW2 9005   1.648   0.443   3.821 -0.6235 -0.5698  0.7022
 2240SOL    HW3 9006   1.568   0.571   3.810 -0.0269 -0.1801  0.9017
 2240SOL    MW4 9007   1.576   0.485   3.796 -0.2823 -0.1333  0.4659
 2241SOL     OW 9008   1.553   0.747   3.885 -0.2993  0.3039 -0.0528
 2241SOL    HW2 9009   1.627   0.807   3.871 -0.0285 -0.0108  0.0231
 2241SOL    HW3 9010   1.478   0.792   3.846 -0.2787  1.1095  0.8221
 2241SOL    MW4 9011   1.553   0.761   3.878 -0.2608  0.3688  0.0727
 2242SOL     OW 9012   1.366   0.897   3.757 -0.1378 -0.2997  0.3515
 2242SOL    HW2 9013   1.344   0.981   3.796 -1.2233  0.2019 -1.2814
 2242SOL    HW3 9014   1.287   0.844   3.767 -0.0001 -0.5863 -0.0322
 2242SOL    MW4 9015   1.353   0.901   3.763 -0.2629 -0.2713  0.0854
 2243SOL     OW 9016   1.361   1.156   3.865  0.0391 -0.2593 -0.4249
 2243SOL    HW2 9017   1.434   1.208   3.831  0.2285 -0.8373 -0.9062
 2243SOL    HW3 9018   1.283   1.204   3.837  0.2321  0.5364  0.3693
 2243SOL    MW4 9019   1.360   1.170   3.857  0.0896 -0.2304 -0.3834
 2244SOL     OW 9020   1.593   1.297   3.756 -0.1537 -0.2738 -0.3086
 2244SOL    HW2 9021   1.672   1.262   3.797 -0.4290 -0.7607 -0.1961
 2244SOL    HW3 9022   1.589   1.388   3.786 -0.9316 -0.9121  1.6229
 2244SOL    MW4 9023   1.603   1.305   3.765 -0.2927 -0.4222 -0.0391
 2245SOL     OW 9024   1.566   1.543   3.860 -0.3433 -0.3871  0.1212
 2245SOL    HW2 9025   1.564   1.527   3.954  1.5382  0.7183  0.3655
 2245SOL    HW3 9026   1.642   1.598   3.846 -0.7236 -0.3514 -2.0360
 2245SOL    MW4 9027   1.576   1.548   3.870 -0.1452 -0.2365 -0.1309
 2246SOL     OW 9028   1.319   1.657   3.799  0.0467 -0.0738 -0.0606
 2246SOL    HW2 9029   1.345   1.748   3.815 -0.5149  0.2057 -0.6765
 2246SOL    HW3 9030   1.397   1.606   3.817  0.5139  0.5876 -0.1921
 2246SOL    MW4 9031   1.332   1.662   3.803  0.0342  0.0503 -0.1590
 2247SOL     OW 9032   1.376   1.908   3.844 -0.3651  0.0526 -0.1648
 2247SOL    HW2 9033   1.382   1.923   3.939  2.2540 -0.2708 -0.2289
 2247SOL    HW3 9034   1.301   1.961   3.816 -0.7073  0.7668  1.9626
 2247SOL    MW4 9035   1.367   1.917   3.853 -0.0647  0.1042  0.1070
 2248SOL     OW 9036   1.612   2.069   3.817  0.4486 -0.1878 -0.0302
 2248SOL    HW2 9037   1.540   2.018   3.856  0.9995 -0.7900  0.2072
 2248SOL    HW3 9038   1.583   2.087   3.728  0.5403 -1.5255 -0.3471
 2248SOL    MW4 9039   1.599   2.065   3.810  0.5333 -0.4437 -0.0410
 2249SOL     OW 9040   1.581   2.335   3.887 -0.1973  0.5987  0.3166
 2249SOL    HW2 9041   1.652   2.384   3.847 -0.3879  0.9444  0.3936
 2249SOL    HW3 9042   1.597   2.244   3.863 -1.0159  0.9549 -1.6244
 2249SOL    MW4 9043   1.592   2.330   3.879 -0.3304  0.6914  0.0708
 2250SOL     OW 9044   1.371   2.440   3.734  0.1187  0.4451 -0.1462
 2250SOL    HW2 9045   1.437   2.391   3.783  0.6913  2.1538  0.8246
 2250SOL    HW3 9046   1.288   2.412   3.773  0.4074 -0.0752  0.1087
 2250SOL    MW4 9047   1.369   2.429   3.746  0.2323  0.6018  0.0155
 2251SOL     OW 9048   1.401   2.695   3.845 -0.2988  0.0425 -0.1958
 2251SOL    HW2 9049   1.393   2.668   3.936  2.2433 -1.2513 -0.3068
 2251SOL    HW3 9050   1.404   2.612   3.796  1.6313  0.6423 -1.1211
 2251SOL    MW4 9051   1.400   2.680   3.850  0.2912 -0.0489 -0.3326
 2252SOL     OW 9052   1.630   2.804   3.761 -0.0499 -0.1101  0.1466
 2252SOL    HW2 9053   1.553   2.756   3.790 -0.2332 -0.2040 -0.4872
 2252SOL    HW3 9054   1.631   2.793   3.666  0.0591  0.9023  0.0259
 2252SOL    MW4 9055   1.620   2.796   3.752 -0.0597  0.0112  0.0472
 2253SOL     OW 9056   1.536   3.073   3.791 -0.5692  0.2309  0.0511
 2253SOL    HW2 9057   1.564   3.105   3.877  2.5520  2.0648 -1.5792
 2253SOL    HW3 9058   1.564   2.981   3.790 -0.9790  0.0805  1.1106
 2253SOL    MW4 9059   1.544   3.065   3.802 -0.2116  0.4530 -0.0243
 2254SOL     OW 9060   1.342   3.238   3.678 -0.0607 -0.3769 -0.3815
 2254SOL    HW2 9061   1.340   3.309   3.742 -0.4653 -1.1374  0.4836
 2254SOL    HW3 9062   1.419   3.186   3.702  2.2326  1.6169 -3.1224
 2254SOL    MW4 9063   1.352   3.240   3.690  0.1885 -0.2143 -0.6289
 2255SOL     OW 9064   1.335   3.458   3.841 -0.0617 -0.1424 -0.1632
 2255SOL    HW2 9065   1.262   3.515   3.815  0.4365 -0.2910 -1.9659
 2255SOL    HW3 9066   1.411   3.495   3.796  0.7691 -0.6660  0.7981
 2255SOL    MW4 9067   1.336   3.470   3.831  0.1137 -0.2310 -0.2744
 2256SOL     OW 9068   1.538   3.603   3.698 -0.4757  0.0498 -0.3386
 2256SOL    HW2 9069   1.624   3.559   3.699 -0.2179  0.5165 -1.3304
 2256SOL    HW3 9070   1.552   3.684   3.747 -0.1748  0.4266 -1.0346
 2256SOL    MW4 9071   1.552   3.608   3.704 -0.4019  0.1609 -0.5615
 2257SOL     OW 9072   1.524   3.839   3.880 -0.3134  0.2239  0.5716
 2257SOL    HW2 9073   1.553   3.855   3.970 -0.2842  1.3925  0.3660
 2257SOL    HW3 9074   1.440   3.885   3.874  0.6719  1.9005 -0.5962
 2257SOL    MW4 9075   1.517   3.847   3.891 -0.1795  0.5994  0.3905
 2258SOL     OW 9076   1.325   4.024   3.819 -0.2714 -0.2838  0.1671
 2258SOL    HW2 9077   1.328   4.114   3.851  3.7569 -0.6598  0.9940
 2258SOL    HW3 9078   1.335   4.032   3.724  0.5057  0.1114  0.2812
 2258SOL    MW4 9079   1.326   4.037   3.810  0.3626 -0.2809  0.2913
 2259SOL     OW 9080   1.356   4.287   3.909  0.0023  0.2145  0.1773
 2259SOL    HW2 9081   1.431   4.323   3.862 -0.0365  0.0708  0.0036
 2259SOL    HW3 9082   1.282   4.339   3.879 -0.0557 -0.0130 -0.0832
 2259SOL    MW4 9083   1.356   4.298   3.899 -0.0104  0.1655  0.1202
 2260SOL     OW 9084   1.593   4.399   3.790 -0.0912  0.0517  0.3895
 2260SOL    HW2 9085   1.643   4.328   3.830  0.1313  0.6467  1.1690
 2260SOL    HW3 9086   1.604   4.386   3.696  0.5158 -0.5385  0.5418
 2260SOL    MW4 9087   1.601   4.388   3.783  0.0184  0.0520  0.5126
 2261SOL     OW 9088   1.977   4.647   3.897 -0.1321  0.3167  0.4028
 2261SOL    HW2 9089   2.057   4.684   3.859  0.4239 -0.8067  0.4598
 2261SOL    HW3 9090   1.984   4.553   3.881 -0.7359  0.0320  1.7301
 2261SOL    MW4 9091   1.988   4.639   3.890 -0.1384  0.1307  0.5853
 2262SOL     OW 9092   1.745   0.136   3.813  0.0053 -0.3966 -0.2631
 2262SOL    HW2 9093   1.820   0.080   3.837 -0.0925 -0.6259 -0.4908
 2262SOL    HW3 9094   1.669   0.090   3.848 -0.0439 -0.2452 -0.1731
 2262SOL    MW4 9095   1.745   0.123   3.821 -0.0142 -0.4069 -0.2811
 2263SOL     OW 9096   1.812   0.400   3.895  0.2987  0.1107  0.1118
 2263SOL    HW2 9097   1.812   0.382   3.989 -1.5893 -0.2534  0.0601
 2263SOL    HW3 9098   1.819   0.314   3.854  1.6707  0.3122 -0.0860
 2263SOL    MW4 9099   1.813   0.387   3.902  0.2307  0.0892  0.0789
 2264SOL     OW 9100   2.047   0.509   3.770 -0.1768  0.4254  0.2190
 2264SOL    HW2 9101   1.966   0.465   3.798  0.0471  0.2311  0.5724
 2264SOL    HW3 9102   2.044   0.506   3.675  0.8049 -2.1998  0.2344
 2264SOL    MW4 9103   2.036   0.502   3.761 -0.0176  0.0535  0.2675
 2265SOL     OW 9104   1.991   0.765   3.887 -0.0008 -0.5185  0.8354
 2265SOL    HW2 9105   2.004   0.673   3.865 -0.4747 -0.3209 -0.3276
 2265SOL    HW3 9106   2.056   0.811   3.834 -2.2091  0.1023 -1.4463
 2265SOL    MW4 9107   2.001   0.759   3.877 -0.3548 -0.4107  0.3808
 2266SOL     OW 9108   1.772   0.904   3.789 -0.0563  0.2798  0.3802
 2266SOL    HW2 9109   1.843   0.858   3.834 -1.1528 -2.0426 -0.1669
 2266SOL    HW3 9110   1.793   0.895   3.696 -0.7377  0.0932  0.2422
 2266SOL    MW4 9111   1.784   0.896   3.783 -0.2909 -0.0512  0.2899
 2267SOL     OW 9112   1.812   1.161   3.880  0.4872 -0.3772  0.2472
 2267SOL    HW2 9113   1.803   1.166   3.976  0.1879 -0.9058  0.2456
 2267SOL    HW3 9114   1.764   1.083   3.855  1.2056 -0.6612 -0.2626
 2267SOL    MW4 9115   1.804   1.152   3.890  0.5425 -0.4845  0.1795
 2268SOL     OW 9116   1.991   1.295   3.717 -0.0583 -0.4643 -0.5984
 2268SOL    HW2 9117   1.982   1.379   3.762  0.5228 -0.3742 -0.6410
 2268SOL    HW3 9118   1.928   1.237   3.761  0.5638 -0.4002  0.4066
 2268SOL    MW4 9119   1.982   1.298   3.729  0.1003 -0.4439 -0.4716
 2269SOL     OW 9120   2.010   1.520   3.867 -0.2242 -0.2273 -0.0106
 2269SOL    HW2 9121   2.016   1.523   3.963 -0.1485  1.0321 -0.0483
 2269SOL    HW3 9122   1.934   1.576   3.846  0.4542  0.4308 -0.7444
 2269SOL    MW4 9123   2.000   1.528   3.877 -0.1247  0.0257 -0.1125
 2270SOL     OW 9124   1.794   1.683   3.790  0.3097 -0.3579  0.2050
 2270SOL    HW2 9125   1.829   1.772   3.799  1.4026 -0.8042  0.4367
 2270SOL    HW3 9126   1.795   1.667   3.695  0.5131 -0.2748  0.1923
 2270SOL    MW4 9127   1.799   1.693   3.778  0.4810 -0.4059  0.2339
 2271SOL     OW 9128   1.858   1.942   3.870  0.3076  0.2563 -0.0008
 2271SOL    HW2 9129   1.850   1.934   3.965 -1.2613 -2.7320 -0.3447
 2271SOL    HW3 9130   1.774   1.977   3.841  0.2335 -0.2859 -0.4438
 2271SOL    MW4 9131   1.846   1.946   3.878  0.0908 -0.2095 -0.1049
 2272SOL     OW 9132   2.079   2.066   3.758 -0.4904  0.4912 -0.5972
 2272SOL    HW2 9133   2.003   2.021   3.794  0.2655 -1.8681 -1.8746
 2272SOL    HW3 9134   2.069   2.058   3.663 -0.1514  2.7544 -0.8636
 2272SOL    MW4 9135   2.068   2.059   3.750 -0.3457  0.4785 -0.8011
 2273SOL     OW 9136   2.208   2.398   3.820  0.1335  0.4570  0.7193
 2273SOL    HW2 9137   2.125   2.359   3.849 -0.0953  1.0307  0.8381
 2273SOL    HW3 9138   2.199   2.405   3.725  0.2462  0.0594  0.6776
 2273SOL    MW4 9139   2.196   2.393   3.811  0.1180  0.4802  0.7293
 2274SOL     OW 9140   1.799   2.439   3.775  0.2594 -0.4624 -0.3106
 2274SOL    HW2 9141   1.809   2.524   3.818 -0.8201 -0.1238 -0.7172
 2274SOL    HW3 9142   1.808   2.458   3.681  3.9231 -1.3835 -0.2575
 2274SOL    MW4 9143   1.802   2.452   3.768  0.6002 -0.5395 -0.3574
 2275SOL     OW 9144   1.842   2.691   3.907 -0.3556  0.1032  0.3446
 2275SOL    HW2 9145   1.831   2.694   4.002 -0.9054  0.2191  0.2789
 2275SOL    HW3 9146   1.768   2.740   3.873 -0.2006 -0.0041 -0.1501
 2275SOL    MW4 9147   1.831   2.698   3.915 -0.4076  0.1044  0.2711
 2276SOL     OW 9148   2.049   2.775   3.729  0.1865  0.7993  0.4336
 2276SOL    HW2 9149   2.126   2.750   3.779  0.7633  1.2031 -0.2371
 2276SOL    HW3 9150   1.975   2.744   3.781  0.8119  0.0332  0.8729
 2276SOL    MW4 9151   2.049   2.768   3.742  0.3452  0.7515  0.4032
 2277SOL     OW 9152   2.012   3.057   3.843 -0.0658  0.2340  0.3159
 2277SOL    HW2 9153   2.096   3.088   3.808 -1.0154  1.7291 -0.7218
 2277SOL    HW3 9154   2.023   2.962   3.850  1.9619  0.4823  0.9100
 2277SOL    MW4 9155   2.025   3.049   3.839  0.0765  0.4640  0.2575
 2278SOL     OW 9156   1.800   3.196   3.710 -0.0274 -0.0530 -0.4841
 2278SOL    HW2 9157   1.864   3.132   3.742 -0.0819  1.1589  2.2466
 2278SOL    HW3 9158   1.716   3.153   3.724  0.0184 -0.1123 -0.3824
 2278SOL    MW4 9159   1.798   3.182   3.716 -0.0285  0.0989 -0.1104
 2279SOL     OW 9160   1.778   3.488   3.771 -0.4202  0.2274 -0.2193
 2279SOL    HW2 9161   1.855   3.526   3.729 -0.8183  0.8656 -0.3768
 2279SOL    HW3 9162   1.799   3.395   3.781  0.4910  0.4598  0.0203
 2279SOL    MW4 9163   1.791   3.481   3.767 -0.3525  0.3424 -0.2086
 2280SOL     OW 9164   2.022   3.626   3.744  0.2727 -0.4710 -0.1899
 2280SOL    HW2 9165   2.091   3.562   3.760  0.7298 -0.0884 -0.6064
 2280SOL    HW3 9166   2.018   3.634   3.649 -0.5000 -0.6570 -0.1693
 2280SOL    MW4 9167   2.031   3.619   3.733  0.2308 -0.4451 -0.2420
 2281SOL     OW 9168   1.988   3.851   3.919  0.3677 -0.0640  0.6673
 2281SOL    HW2 9169   2.035   3.909   3.859 -2.7616  2.1745  0.2391
 2281SOL    HW3 9170   2.007   3.763   3.887  1.1055  0.9656 -1.8278
 2281SOL    MW4 9171   1.996   3.847   3.907  0.0522  0.3672  0.2816
 2282SOL     OW 9172   1.750   3.975   3.800  0.5580  0.4090  0.5251
 2282SOL    HW2 9173   1.827   3.938   3.843  0.8598 -0.3206 -0.6178
 2282SOL    HW3 9174   1.679   3.913   3.820  0.4779  0.5891  0.7973
 2282SOL    MW4 9175   1.751   3.962   3.808  0.5872  0.3366  0.4103
 2283SOL     OW 9176   1.759   4.227   3.923  0.0700  0.6930  0.1238
 2283SOL    HW2 9177   1.836   4.264   3.879 -0.8908  0.9279 -1.3680
 2283SOL    HW3 9178   1.755   4.136   3.894  0.1744  0.4832  0.7482
 2283SOL    MW4 9179   1.769   4.220   3.913 -0.0429  0.6962  0.0095
 2284SOL     OW 9180   2.015   4.378   3.791 -0.1680 -0.3164  0.0191
 2284SOL    HW2 9181   2.087   4.320   3.816 -1.4756 -1.5101  1.1218
 2284SOL    HW3 9182   2.016   4.378   3.695  1.4976 -0.0254  0.0104
 2284SOL    MW4 9183   2.025   4.371   3.782 -0.1209 -0.4358  0.1636
 2285SOL     OW 9184   2.444   4.653   3.881  0.3085  0.0072  0.1999
 2285SOL    HW2 9185   2.453   4.659   3.976  0.5379 -0.1199  0.1861
 2285SOL    HW3 9186   2.516   4.706   3.847  0.8477 -0.7972  0.0897
 2285SOL    MW4 9187   2.455   4.661   3.889  0.4101 -0.1154  0.1836
 2286SOL     OW 9188   2.205   0.077   3.787  0.4952  0.0125  0.1496
 2286SOL    HW2 9189   2.292   0.047   3.815  0.1753 -0.9370  0.1431
 2286SOL    HW3 9190   2.206   0.067   3.692 -0.1905 -1.5674  0.2945
 2286SOL    MW4 9191   2.217   0.072   3.778  0.3624 -0.3212  0.1681
 2287SOL     OW 9192   2.217   0.339   3.897 -0.3414 -0.2637  0.7038
 2287SOL    HW2 9193   2.207   0.259   3.846  1.8191 -1.1459  1.5876
 2287SOL    HW3 9194   2.165   0.404   3.850 -0.3111 -1.6284 -1.2799
 2287SOL    MW4 9195   2.209   0.337   3.884 -0.0522 -0.5601  0.5589
 2288SOL     OW 9196   2.402   0.507   3.794 -0.2086  0.2767 -0.2219
 2288SOL    HW2 9197   2.347   0.432   3.818  0.1037 -0.3895 -1.5364
 2288SOL    HW3 9198   2.399   0.509   3.699  0.7260  1.2376 -0.2390
 2288SOL    MW4 9199   2.395   0.497   3.785 -0.0441  0.3156 -0.3972
 2289SOL     OW 9200   2.398   0.782   3.877 -0.1352  0.0149  0.4248
 2289SOL    HW2 9201   2.327   0.825   3.829  0.8264  0.4643 -0.6064
 2289SOL    HW3 9202   2.394   0.691   3.850  0.3159  0.2387 -0.4026
 2289SOL    MW4 9203   2.388   0.776   3.867  0.0510  0.1038  0.1793
 2290SOL     OW 9204   2.184   0.921   3.752 -0.2312 -0.4820  0.1580
 2290SOL    HW2 9205   2.199   1.013   3.771 -0.4983 -0.3261 -0.3928
 2290SOL    HW3 9206   2.203   0.912   3.659 -0.6262 -0.8998  0.1161
 2290SOL    MW4 9207   2.189   0.932   3.742 -0.3185 -0.5166  0.0799
 2291SOL     OW 9208   1.779   0.833   4.557 -0.3330 -0.1275  0.1725
 2291SOL    HW2 9209   1.847   0.895   4.583  0.3797 -0.6456 -0.4629
 2291SOL    HW3 9210   1.697   0.873   4.588  0.1049  1.1806 -0.3262
 2291SOL    MW4 9211   1.777   0.847   4.565 -0.1812 -0.0233  0.0229
 2292SOL     OW 9212   2.439   1.292   3.776 -0.0964  0.4695 -0.1837
 2292SOL    HW2 9213   2.521   1.249   3.800 -0.2353 -0.1220 -0.7595
 2292SOL    HW3 9214   2.450   1.382   3.807  1.3556  0.7800 -1.5360
 2292SOL    MW4 9215   2.451   1.298   3.784  0.0770  0.4325 -0.4377
 2293SOL     OW 9216   2.480   1.558   3.859 -0.3935 -0.0082  0.5101
 2293SOL    HW2 9217   2.484   1.568   3.955  0.3996  0.7472  0.4031
 2293SOL    HW3 9218   2.564   1.592   3.828 -0.9278  0.3898 -0.5093
 2293SOL    MW4 9219   2.491   1.564   3.868 -0.3593  0.1440  0.3614
 2294SOL     OW 9220   2.240   1.675   3.754  0.3878  0.1148  0.0581
 2294SOL    HW2 9221   2.322   1.635   3.781  0.4403  0.3712  0.2700
 2294SOL    HW3 9222   2.172   1.618   3.791  0.4670 -0.0652 -0.0716
 2294SOL    MW4 9223   2.242   1.662   3.762  0.4053  0.1248  0.0689
 2295SOL     OW 9224   2.236   1.906   3.928  0.3228 -0.1922 -0.2621
 2295SOL    HW2 9225   2.227   1.825   3.877 -0.5090 -0.4891  0.3616
 2295SOL    HW3 9226   2.189   1.971   3.876  0.5271 -0.2233 -0.4896
 2295SOL    MW4 9227   2.229   1.904   3.914  0.2403 -0.2354 -0.2098
 2296SOL     OW 9228   2.486   1.969   3.838 -0.0714  0.3750 -0.1667
 2296SOL    HW2 9229   2.476   2.064   3.842 -1.5914  0.1842  1.1414
 2296SOL    HW3 9230   2.403   1.934   3.871  1.3591 -1.3991  1.7162
 2296SOL    MW4 9231   2.474   1.977   3.843 -0.0832  0.1159  0.2546
 2297SOL     OW 9232   2.657   2.414   3.809 -0.3153  0.0493  0.2731
 2297SOL    HW2 9233   2.727   2.362   3.848 -1.8630 -1.1042  1.5937
 2297SOL    HW3 9234   2.684   2.505   3.821  0.9975 -0.3964  0.6727
 2297SOL    MW4 9235   2.669   2.419   3.816 -0.3462 -0.1619  0.5002
 2298SOL     OW 9236   2.442   2.252   3.887  0.2314 -0.1345  0.2836
 2298SOL    HW2 9237   2.361   2.298   3.865  0.3146 -0.4706 -0.7104
 2298SOL    HW3 9238   2.512   2.309   3.853  0.4298  0.2916  1.3822
 2298SOL    MW4 9239   2.441   2.266   3.880  0.2685 -0.1228  0.2975
 2299SOL     OW 9240   2.249   2.684   3.890  0.1994 -0.0371 -0.6983
 2299SOL    HW2 9241   2.223   2.592   3.885  1.0946 -0.2047 -2.6321
 2299SOL    HW3 9242   2.250   2.703   3.984  0.4468 -2.1248 -0.2485
 2299SOL    MW4 9243   2.246   2.674   3.902  0.3505 -0.3345 -0.8941
 2300SOL     OW 9244   2.483   3.049   3.804 -0.5593  0.4502 -0.3982
 2300SOL    HW2 9245   2.481   3.053   3.900  1.5050 -0.8649 -0.2477
 2300SOL    HW3 9246   2.495   2.956   3.785 -0.5797  0.7533 -1.9280
 2300SOL    MW4 9247   2.484   3.037   3.814 -0.2897  0.3166 -0.5803
 2301SOL     OW 9248   1.278   3.455   4.756  0.1514 -0.0068 -0.0129
 2301SOL    HW2 9249   1.256   3.409   4.675  0.1334 -0.4186  0.2235
 2301SOL    HW3 9250   1.365   3.422   4.779 -0.0448 -0.2433  0.3866
 2301SOL    MW4 9251   1.287   3.445   4.748  0.1233 -0.0923  0.0710
 2302SOL     OW 9252   2.240   3.183   3.706  0.2017  0.4408  0.1528
 2302SOL    HW2 9253   2.247   3.264   3.756  0.6865 -0.2359  1.2155
 2302SOL    HW3 9254   2.324   3.139   3.720  0.3976  0.3091 -1.3989
 2302SOL    MW4 9255   2.252   3.188   3.714  0.2916  0.3340  0.0885
 2303SOL     OW 9256   2.228   3.440   3.799  0.0734  0.0524  0.3021
 2303SOL    HW2 9257   2.221   3.454   3.893  0.4979 -0.5622  0.4273
 2303SOL    HW3 9258   2.305   3.490   3.773 -0.0622  0.2480  0.2734
 2303SOL    MW4 9259   2.237   3.448   3.808  0.1113 -0.0029  0.3147
 2304SOL     OW 9260   2.449   3.613   3.757 -0.2506 -0.2088  0.1782
 2304SOL    HW2 9261   2.529   3.583   3.799 -0.9937 -3.0254 -0.3494
 2304SOL    HW3 9262   2.470   3.613   3.663 -0.5126  0.1594  0.1185
 2304SOL    MW4 9263   2.462   3.609   3.750 -0.3834 -0.5319  0.1006
 2305SOL     OW 9264   2.425   3.882   3.849 -0.0296 -0.0742  0.2376
 2305SOL    HW2 9265   2.503   3.936   3.835  0.2013 -0.0155  1.6293
 2305SOL    HW3 9266   2.448   3.796   3.814  0.0478  0.3862 -0.8661
 2305SOL    MW4 9267   2.438   3.878   3.843  0.0112 -0.0057  0.2759
 2306SOL     OW 9268   2.182   3.997   3.772 -0.3315 -0.5566 -0.3237
 2306SOL    HW2 9269   2.265   3.961   3.805 -0.3601 -0.8921 -0.6125
 2306SOL    HW3 9270   2.194   4.002   3.677  0.0148  1.0688 -0.2148
 2306SOL    MW4 9271   2.195   3.993   3.764 -0.2894 -0.3860 -0.3474
 2307SOL     OW 9272   2.262   4.248   3.861  0.2031  0.2850 -0.4237
 2307SOL    HW2 9273   2.244   4.240   3.954 -0.2434  0.9705 -0.4458
 2307SOL    HW3 9274   2.249   4.160   3.826 -0.3904  0.1864  0.0333
 2307SOL    MW4 9275   2.258   4.235   3.869  0.0660  0.3624 -0.3662
 2308SOL     OW 9276   2.457   4.417   3.759 -0.1142  0.1500 -0.2551
 2308SOL    HW2 9277   2.386   4.370   3.801  0.9840 -1.6662 -0.3802
 2308SOL    HW3 9278   2.460   4.502   3.804 -1.7440 -0.1021  0.3517
 2308SOL    MW4 9279   2.448   4.422   3.770 -0.1841 -0.1230 -0.1915
 2309SOL     OW 9280   2.851   4.645   3.923  0.2015  0.4019  0.5053
 2309SOL    HW2 9281   2.852   4.634   4.018 -1.0809  1.9799  0.7158
 2309SOL    HW3 9282   2.930   4.695   3.904  1.8863 -2.2214  0.4185
 2309SOL    MW4 9283   2.861   4.650   3.933  0.2549  0.2642  0.5214
 2310SOL     OW 9284   2.653   0.122   3.778 -0.3498  0.3921  0.1517
 2310SOL    HW2 9285   2.722   0.065   3.812  0.8104  0.8866 -1.3068
 2310SOL    HW3 9286   2.669   0.125   3.684 -2.4845  0.3941 -0.2266
 2310SOL    MW4 9287   2.664   0.115   3.770 -0.4783  0.4576 -0.0908
 2311SOL     OW 9288   2.611   0.351   3.912 -0.0618 -0.0940 -0.2574
 2311SOL    HW2 9289   2.624   0.276   3.853 -2.6510 -1.6648  1.1057
 2311SOL    HW3 9290   2.543   0.403   3.869  1.2604  1.1696 -0.8655
 2311SOL    MW4 9291   2.604   0.348   3.898 -0.2289 -0.1345 -0.1578
 2312SOL     OW 9292   2.835   0.467   3.791 -0.1215  0.0042  0.0332
 2312SOL    HW2 9293   2.916   0.418   3.807 -0.0784  0.1115  0.1426
 2312SOL    HW3 9294   2.770   0.425   3.848 -0.6618 -1.4430 -1.6066
 2312SOL    MW4 9295   2.837   0.455   3.801 -0.1872 -0.1726 -0.1683
 2313SOL     OW 9296   2.870   0.719   3.918  0.1404 -0.0385  0.2516
 2313SOL    HW2 9297   2.936   0.771   3.874 -0.7024  1.2921  0.5236
 2313SOL    HW3 9298   2.874   0.634   3.875 -0.0969  0.9679 -1.8324
 2313SOL    MW4 9299   2.879   0.715   3.907 -0.0021  0.2699  0.0129
 2314SOL     OW 9300   2.652   0.878   3.795  0.0470 -0.1266 -0.4257
 2314SOL    HW2 9301   2.715   0.817   3.833  0.0653 -1.0517 -1.9181
 2314SOL    HW3 9302   2.567   0.848   3.828  0.1008 -0.6601 -0.7805
 2314SOL    MW4 9303   2.649   0.866   3.805  0.0565 -0.3190 -0.6695
 2315SOL     OW 9304   2.446   4.394   4.450  0.1276  0.0966  0.4099
 2315SOL    HW2 9305   2.460   4.402   4.356 -0.1785 -1.6358  0.1985
 2315SOL    HW3 9306   2.461   4.482   4.485 -0.5260  0.9145 -1.3486
 2315SOL    MW4 9307   2.450   4.407   4.442  0.0007 -0.0243  0.1497
 2316SOL     OW 9308   3.339   1.265   3.767 -0.7530  0.0195 -0.2153
 2316SOL    HW2 9309   3.365   1.277   3.675 -1.6249  0.6141 -0.3832
 2316SOL    HW3 9310   3.352   1.351   3.807 -2.0854  0.2282 -0.2122
 2316SOL    MW4 9311   3.344   1.278   3.760 -1.0438  0.1254 -0.2370
 2317SOL     OW 9312   2.920   1.241   3.797  0.3701  0.0461 -0.1844
 2317SOL    HW2 9313   2.928   1.328   3.836 -0.5831 -1.1790  2.8874
 2317SOL    HW3 9314   3.000   1.195   3.824 -0.1870 -0.7377  0.1706
 2317SOL    MW4 9315   2.932   1.246   3.806  0.1707 -0.2189  0.2677
 2318SOL     OW 9316   2.718   1.627   3.741 -0.2192  0.0659  0.2634
 2318SOL    HW2 9317   2.807   1.599   3.759  0.1595  1.5169  0.7387
 2318SOL    HW3 9318   2.719   1.653   3.649 -0.0692  0.3455  0.3419
 2318SOL    MW4 9319   2.730   1.627   3.732 -0.1495  0.2942  0.3364
 2319SOL     OW 9320   2.739   1.868   3.877 -0.0659 -0.1670 -0.5302
 2319SOL    HW2 9321   2.743   1.783   3.832  0.2782  0.1516 -1.1101
 2319SOL    HW3 9322   2.652   1.902   3.857 -0.3591 -0.5685  0.0496
 2319SOL    MW4 9323   2.728   1.861   3.868 -0.0591 -0.1777 -0.5302
 2320SOL     OW 9324   2.897   2.064   3.756 -0.2833 -0.0471  0.1851
 2320SOL    HW2 9325   2.895   2.145   3.806 -1.2549  0.1604 -0.1899
 2320SOL    HW3 9326   2.843   2.003   3.806 -0.9158  0.0359 -0.3919
 2320SOL    MW4 9327   2.890   2.066   3.769 -0.4947 -0.0088  0.0596
 2321SOL     OW 9328   2.877   2.302   3.916  0.2107  0.3585 -0.1320
 2321SOL    HW2 9329   2.904   2.289   4.007 -0.0048  0.6267 -0.0287
 2321SOL    HW3 9330   2.936   2.369   3.883 -0.9108  1.6131  0.3675
 2321SOL    MW4 9331   2.888   2.309   3.924  0.0343  0.5596 -0.0525
 2322SOL     OW 9332   2.930   2.868   3.731  0.2906 -0.1056  0.3725
 2322SOL    HW2 9333   2.876   2.795   3.762  2.1742 -1.5637  0.3054
 2322SOL    HW3 9334   2.918   2.937   3.796 -0.5314 -0.9234  1.0947
 2322SOL    MW4 9335   2.921   2.868   3.743  0.4306 -0.4060  0.4590
 2323SOL     OW 9336   2.738   2.680   3.840  0.3981 -0.8136  0.0878
 2323SOL    HW2 9337   2.650   2.712   3.819  1.7440  2.0943 -1.5545
 2323SOL    HW3 9338   2.742   2.683   3.936 -0.7418  0.6423  0.1117
 2323SOL    MW4 9339   2.727   2.685   3.850  0.4256 -0.2379 -0.1254
 2324SOL     OW 9340   3.147   2.710   3.878 -0.2079  0.2093  0.3904
 2324SOL    HW2 9341   3.136   2.708   3.973  0.9121 -0.4656  0.5239
 2324SOL    HW3 9342   3.083   2.774   3.848 -0.5157  0.4999  1.6105
 2324SOL    MW4 9343   3.137   2.719   3.887 -0.1009  0.1585  0.5691
 2325SOL     OW 9344   2.904   3.095   3.898  0.3323 -0.4292 -0.1274
 2325SOL    HW2 9345   2.989   3.120   3.862 -0.7411  1.6498 -1.3064
 2325SOL    HW3 9346   2.840   3.143   3.845 -1.6292 -2.4789  0.3057
 2325SOL    MW4 9347   2.907   3.105   3.887 -0.0684 -0.4253 -0.2255
 2326SOL     OW 9348   2.706   3.245   3.750  0.0850 -0.3723  0.2794
 2326SOL    HW2 9349   2.709   3.336   3.778  2.6784 -0.6844  1.0998
 2326SOL    HW3 9350   2.621   3.213   3.782 -0.5500  1.5541  0.5496
 2326SOL    MW4 9351   2.695   3.253   3.758  0.3436 -0.1595  0.4230
 2327SOL     OW 9352   2.681   3.509   3.865  0.2667 -0.0691  0.2636
 2327SOL    HW2 9353   2.682   3.506   3.961 -0.0799  0.5582  0.2954
 2327SOL    HW3 9354   2.763   3.551   3.841  0.3674 -0.2548  0.2889
 2327SOL    MW4 9355   2.692   3.514   3.875  0.2346 -0.0110  0.2713
 2328SOL     OW 9356   2.939   3.593   3.762 -0.3792 -0.1848  0.1006
 2328SOL    HW2 9357   3.017   3.540   3.778 -0.9631 -1.4879 -1.2891
 2328SOL    HW3 9358   2.928   3.592   3.667 -2.7810 -1.0479  0.3451
 2328SOL    MW4 9359   2.948   3.586   3.752 -0.7732 -0.4706 -0.0503
 2329SOL     OW 9360   3.134   3.995   3.796  0.6165 -0.4896  0.6871
 2329SOL    HW2 9361   3.131   4.085   3.829  0.3397  0.3473 -1.5276
 2329SOL    HW3 9362   3.059   3.952   3.837  0.8620  0.2135  1.9165
 2329SOL    MW4 9363   3.124   4.001   3.806  0.6125 -0.2861  0.5572
 2330SOL     OW 9364   2.670   4.016   3.783  0.3229 -0.0959 -0.3264
 2330SOL    HW2 9365   2.671   4.091   3.842 -0.2778 -1.1484  1.0657
 2330SOL    HW3 9366   2.751   3.968   3.802 -0.7018 -1.3797  0.9252
 2330SOL    MW4 9367   2.681   4.019   3.793  0.1082 -0.4044  0.0224
 2331SOL     OW 9368   2.681   4.278   3.885 -0.2952 -0.4596 -0.1320
 2331SOL    HW2 9369   2.764   4.314   3.853 -0.8416  0.3825 -0.6210
 2331SOL    HW3 9370   2.614   4.322   3.833 -1.0605 -1.0269  0.3624
 2331SOL    MW4 9371   2.684   4.289   3.874 -0.4685 -0.4234 -0.1311
 2332SOL     OW 9372   2.919   4.412   3.793  0.2277 -0.3423  0.4427
 2332SOL    HW2 9373   2.990   4.377   3.846  0.2089  0.7324  1.1829
 2332SOL    HW3 9374   2.893   4.493   3.837 -0.3761  0.1028 -0.7083
 2332SOL    MW4 9375   2.925   4.418   3.805  0.1457 -0.1416  0.3884
 2333SOL     OW 9376   3.327   4.616   3.863  0.3368 -0.1081 -0.0840
 2333SOL    HW2 9377   3.308   4.618   3.957  0.3924 -1.6243 -0.0337
 2333SOL    HW3 9378   3.392   4.685   3.851  0.8801 -0.3850  1.1236
 2333SOL    MW4 9379   3.333   4.626   3.874  0.4158 -0.3448  0.0818
 2334SOL     OW 9380   3.083   0.084   3.805 -0.2567 -0.2429 -0.5743
 2334SOL    HW2 9381   3.164   0.050   3.844 -1.0971 -2.2328 -0.4826
 2334SOL    HW3 9382   3.102   0.092   3.712  0.2408 -0.0974 -0.4607
 2334SOL    MW4 9383   3.096   0.081   3.798 -0.3018 -0.4862 -0.5474
 2335SOL     OW 9384   3.100   0.353   3.878  0.3768  0.0261  0.0952
 2335SOL    HW2 9385   3.088   0.363   3.972  0.6891 -1.4938  0.3106
 2335SOL    HW3 9386   3.095   0.259   3.863 -1.0765  0.3455 -1.6040
 2335SOL    MW4 9387   3.098   0.342   3.888  0.2263 -0.1322 -0.1004
 2336SOL     OW 9388   3.346   0.492   3.785 -0.6195  0.2138  0.2680
 2336SOL    HW2 9389   3.415   0.436   3.821 -0.8505  0.3853  0.9639
 2336SOL    HW3 9390   3.265   0.447   3.806 -0.7216 -0.1099 -0.7651
 2336SOL    MW4 9391   3.345   0.478   3.792 -0.6635  0.1937  0.2239
 2337SOL     OW 9392   3.338   0.744   3.888 -0.1919  0.0476 -0.0065
 2337SOL    HW2 9393   3.329   0.739   3.984 -1.3857  1.1462 -0.0528
 2337SOL    HW3 9394   3.345   0.652   3.860 -0.2995 -0.3054  1.0901
 2337SOL    MW4 9395   3.338   0.731   3.897 -0.3636  0.1459  0.1318
 2338SOL     OW 9396   3.102   0.856   3.780  0.1268  0.0621  0.0563
 2338SOL    HW2 9397   3.176   0.828   3.834  0.4131 -0.0627 -0.3932
 2338SOL    HW3 9398   3.132   0.843   3.690 -0.5033 -0.1350 -0.1290
 2338SOL    MW4 9399   3.116   0.851   3.775  0.0818  0.0197 -0.0274
 2339SOL     OW 9400   0.691   0.278   4.642  0.1684 -0.4956  0.0220
 2339SOL    HW2 9401   0.627   0.216   4.607 -0.8060 -0.6640  2.0180
 2339SOL    HW3 9402   0.776   0.235   4.633 -0.2551 -1.1706 -0.6774
 2339SOL    MW4 9403   0.694   0.264   4.636 -0.0161 -0.6068  0.1931
 2340SOL     OW 9404   3.373   1.548   3.911  0.5045  0.7482 -0.5672
 2340SOL    HW2 9405   3.301   1.591   3.864 -1.8556 -1.4084  0.9029
 2340SOL    HW3 9406   3.365   1.579   4.001 -0.0585 -1.1852  0.0938
 2340SOL    MW4 9407   3.362   1.558   3.916  0.1190  0.2086 -0.2863
 2341SOL     OW 9408   1.593   3.867   4.145 -0.3386 -0.1628 -0.1591
 2341SOL    HW2 9409   1.669   3.903   4.191  0.4993  0.3046 -1.8568
 2341SOL    HW3 9410   1.518   3.902   4.192  0.4994  0.5538  0.6673
 2341SOL    MW4 9411   1.593   3.877   4.157 -0.1175 -0.0069 -0.2742
 2342SOL     OW 9412   0.178   3.864   4.682  0.2524 -0.4430 -0.0118
 2342SOL    HW2 9413   0.193   3.775   4.649 -1.3561 -0.9363  0.5347
 2342SOL    HW3 9414   0.112   3.901   4.623 -1.0114 -0.5555  1.2902
 2342SOL    MW4 9415   0.171   3.857   4.670 -0.1266 -0.5231  0.2322
 2343SOL     OW 9416   3.133   1.939   3.873  0.4622  0.1353  0.0733
 2343SOL    HW2 9417   3.127   1.943   3.968  2.0009 -0.0144  0.1957
 2343SOL    HW3 9418   3.051   1.977   3.842 -0.6089 -0.9931  1.4554
 2343SOL    MW4 9419   3.121   1.944   3.881  0.5236 -0.0333  0.2718
 2344SOL     OW 9420   3.362   2.108   3.782 -0.0513 -0.4205  0.3481
 2344SOL    HW2 9421   3.285   2.068   3.823 -1.0658  1.1853  0.0534
 2344SOL    HW3 9422   3.347   2.097   3.688 -0.1651  0.3216  0.2762
 2344SOL    MW4 9423   3.350   2.101   3.775 -0.2003 -0.1106  0.2997
 2345SOL     OW 9424   3.348   2.360   3.879  0.0339 -0.5394 -0.0088
 2345SOL    HW2 9425   3.362   2.267   3.860 -0.0803 -0.4413 -0.6023
 2345SOL    HW3 9426   3.254   2.374   3.865 -0.0088 -0.4122  0.4157
 2345SOL    MW4 9427   3.338   2.350   3.874  0.0131 -0.5097 -0.0312
 2346SOL     OW 9428   3.084   2.462   3.777  0.2545  0.0854  0.6989
 2346SOL    HW2 9429   3.121   2.547   3.799  1.0914  0.1078 -0.7367
 2346SOL    HW3 9430   3.098   2.453   3.683 -3.3868  0.0625  0.0916
 2346SOL    MW4 9431   3.091   2.472   3.768 -0.1154  0.0854  0.4294
 2347SOL     OW 9432   2.736   2.425   4.251  0.4372 -0.3911  0.1431
 2347SOL    HW2 9433   2.651   2.393   4.219 -0.2633  2.1458 -0.6158
 2347SOL    HW3 9434   2.718   2.457   4.339  1.0637 -1.7223  0.7668
 2347SOL    MW4 9435   2.722   2.425   4.258  0.4272 -0.2322  0.1254
 2348SOL     OW 9436   3.369   2.778   3.743 -0.1341  0.1349  0.2387
 2348SOL    HW2 9437   3.289   2.747   3.785  0.4969 -2.2207 -0.1813
 2348SOL    HW3 9438   3.357   2.759   3.650  1.4408 -1.5583  0.3500
 2348SOL    MW4 9439   3.357   2.771   3.736  0.1569 -0.3994  0.1981
 2349SOL     OW 9440   3.363   3.037   3.891  0.0329  0.0404  0.0341
 2349SOL    HW2 9441   3.443   3.086   3.872 -0.3518  0.3079 -0.9324
 2349SOL    HW3 9442   3.369   2.959   3.836 -0.8345  0.5455 -0.7833
 2349SOL    MW4 9443   3.375   3.033   3.881 -0.1323  0.1426 -0.2012
 2350SOL     OW 9444   3.140   3.168   3.781  0.1898  0.8214  0.2569
 2350SOL    HW2 9445   3.219   3.125   3.814 -0.0833  0.6663  0.7159
 2350SOL    HW3 9446   3.147   3.163   3.686 -0.1489 -0.8213  0.3036
 2350SOL    MW4 9447   3.151   3.162   3.773  0.1092  0.5841  0.3235
 2351SOL     OW 9448   3.156   3.438   3.888 -0.0326 -0.0067 -0.4238
 2351SOL    HW2 9449   3.174   3.354   3.846  1.9686  0.1574  0.0649
 2351SOL    HW3 9450   3.230   3.493   3.865 -0.5138  1.1064  0.6351
 2351SOL    MW4 9451   3.168   3.434   3.880  0.1678  0.1619 -0.2196
 2352SOL     OW 9452   3.389   3.575   3.831 -0.2081 -0.3451  0.2349
 2352SOL    HW2 9453   3.368   3.661   3.867 -0.2730 -1.1109  2.0950
 2352SOL    HW3 9454   3.390   3.588   3.736 -0.9283  1.5307  0.4642
 2352SOL    MW4 9455   3.386   3.588   3.824 -0.3119 -0.1986  0.5107
 2353SOL     OW 9456   3.395   3.861   4.184 -0.3614 -0.6492  0.2415
 2353SOL    HW2 9457   3.388   3.769   4.210  0.4003 -0.3462  1.5893
 2353SOL    HW3 9458   3.388   3.860   4.088  1.6019 -2.3305  0.0809
 2353SOL    MW4 9459   3.393   3.849   4.174 -0.0019 -0.8309  0.3982
 2354SOL     OW 9460   3.342   3.839   3.913 -0.0619  0.1406 -0.1673
 2354SOL    HW2 9461   3.416   3.877   3.867 -0.2647  1.6715  0.7289
 2354SOL    HW3 9462   3.266   3.889   3.883 -0.6807 -1.1252 -0.7505
 2354SOL    MW4 9463   3.341   3.851   3.903 -0.1705  0.1755 -0.1259
 2355SOL     OW 9464   3.118   4.251   3.889 -0.1732  0.1897  0.5439
 2355SOL    HW2 9465   3.123   4.245   3.985  0.0092  0.7851  0.5710
 2355SOL    HW3 9466   3.203   4.284   3.863 -0.6057  1.0967  0.2613
 2355SOL    MW4 9467   3.130   4.254   3.898 -0.2062  0.3877  0.5102
 2356SOL     OW 9468   3.339   4.363   3.777 -0.4347  0.2064  0.1127
 2356SOL    HW2 9469   3.418   4.330   3.818 -1.2995 -1.1485  0.7253
 2356SOL    HW3 9470   3.330   4.453   3.810  1.2934  0.6680 -0.6448
 2356SOL    MW4 9471   3.348   4.371   3.786 -0.3204  0.0887  0.0935
 2357SOL     OW 9472   3.761   0.003   3.920 -0.5757 -0.3685  0.5781
 2357SOL    HW2 9473   3.839   0.045   3.885 -1.3231  0.2897 -0.3321
 2357SOL    HW3 9474   3.766  -0.087   3.889 -0.1003 -0.3629  0.6419
 2357SOL    MW4 9475   3.772  -0.003   3.911 -0.6115 -0.2813  0.4666
 2358SOL     OW 9476   3.528   0.125   3.820  0.4511 -0.3597  0.1141
 2358SOL    HW2 9477   3.616   0.097   3.846  0.5048  0.4175  0.8184
 2358SOL    HW3 9478   3.520   0.099   3.729  1.1186 -1.1409  0.2725
 2358SOL    MW4 9479   3.539   0.118   3.812  0.5462 -0.3603  0.2279
 2359SOL     OW 9480   3.558   0.376   3.896 -0.2063 -0.5025  0.0943
 2359SOL    HW2 9481   3.646   0.406   3.876 -0.2381  0.2676  1.0239
 2359SOL    HW3 9482   3.555   0.285   3.866  1.1574 -0.7824  0.7760
 2359SOL    MW4 9483   3.569   0.368   3.890 -0.0305 -0.4378  0.3066
 2360SOL     OW 9484   3.792   0.501   3.765  0.2336 -0.1737 -0.4537
 2360SOL    HW2 9485   3.871   0.453   3.792 -0.0533 -0.0104  0.7066
 2360SOL    HW3 9486   3.789   0.576   3.825 -1.3252 -0.6947  0.1213
 2360SOL    MW4 9487   3.802   0.504   3.776 -0.0098 -0.2208 -0.2246
 2361SOL     OW 9488   3.762   0.746   3.908  0.5691 -0.0458  0.0072
 2361SOL    HW2 9489   3.836   0.806   3.897  0.4147  0.3381  0.9570
 2361SOL    HW3 9490   3.691   0.786   3.858 -0.5316  2.3874  3.2817
 2361SOL    MW4 9491   3.762   0.759   3.900  0.4036  0.3259  0.5646
 2362SOL     OW 9492   3.542   0.884   3.786  0.5386 -0.7085 -0.0787
 2362SOL    HW2 9493   3.544   0.974   3.820  2.1381 -1.7848  2.8506
 2362SOL    HW3 9494   3.461   0.847   3.820 -0.0709 -0.4318 -1.2032
 2362SOL    MW4 9495   3.532   0.891   3.795  0.6692 -0.8140  0.1595
 2363SOL     OW 9496   3.570   1.143   3.892 -0.0417 -0.1616  0.6512
 2363SOL    HW2 9497   3.487   1.188   3.881 -0.3148 -0.5315  1.1778
 2363SOL    HW3 9498   3.633   1.196   3.844 -0.8743 -0.7737 -1.1415
 2363SOL    MW4 9499   3.568   1.156   3.885 -0.1874 -0.2912  0.4840
 2364SOL     OW 9500   3.767   1.276   3.755  0.5591 -0.0301 -0.2177
 2364SOL    HW2 9501   3.840   1.239   3.804 -0.5480  0.6631  2.0173
 2364SOL    HW3 9502   3.754   1.363   3.793 -0.9794  0.1113 -1.0366
 2364SOL    MW4 9503   3.775   1.282   3.767  0.2098  0.0800 -0.0308
 2365SOL     OW 9504   3.750   1.567   3.867 -0.2071 -0.0099 -0.4075
 2365SOL    HW2 9505   3.735   1.571   3.962 -0.6775  0.1032 -0.4895
 2365SOL    HW3 9506   3.691   1.632   3.830 -0.9103 -0.9035 -0.8857
 2365SOL    MW4 9507   3.740   1.576   3.875 -0.3619 -0.1129 -0.4818
 2366SOL     OW 9508   2.985   1.494   4.110 -0.5057 -0.4574  0.1445
 2366SOL    HW2 9509   2.917   1.437   4.146 -0.8950  0.0945  0.2930
 2366SOL    HW3 9510   2.976   1.576   4.159  1.1802 -0.8482  1.1598
 2366SOL    MW4 9511   2.975   1.498   4.122 -0.3345 -0.4362  0.2980
 2367SOL     OW 9512   3.615   1.977   3.872  0.3253  0.3369 -0.2398
 2367SOL    HW2 9513   3.589   1.886   3.855 -0.9546  0.6343  0.0529
 2367SOL    HW3 9514   3.540   2.029   3.845  1.3961  1.3871 -1.2461
 2367SOL    MW4 9515   3.602   1.972   3.866  0.2975  0.5146 -0.3343
 2368SOL     OW 9516   3.850   2.038   3.751 -0.3108  0.1761  0.8558
 2368SOL    HW2 9517   3.915   1.992   3.804  0.4284 -0.1554 -0.2995
 2368SOL    HW3 9518   3.766   2.010   3.787  0.1453 -1.1343  0.9698
 2368SOL    MW4 9519   3.847   2.028   3.762 -0.1531 -0.0408  0.7184
 2369SOL     OW 9520   0.246   1.982   4.293  0.0936 -0.5809  0.0165
 2369SOL    HW2 9521   0.167   1.970   4.241 -0.0160 -0.6115  0.1913
 2369SOL    HW3 9522   0.231   1.930   4.373 -0.6624  1.2383  1.0863
 2369SOL    MW4 9523   0.234   1.973   4.297 -0.0206 -0.3450  0.1812
 2370SOL     OW 9524   3.609   2.404   3.760  0.7276 -0.4367 -0.2492
 2370SOL    HW2 9525   3.514   2.387   3.759  0.6944 -0.3002  0.3989
 2370SOL    HW3 9526   3.632   2.415   3.668 -0.2489  1.5073 -0.3019
 2370SOL    MW4 9527   3.599   2.403   3.748  0.5944 -0.1621 -0.1705
 2371SOL     OW 9528   3.599   2.675   3.856 -0.1981  0.4118  0.2140
 2371SOL    HW2 9529   3.595   2.581   3.838 -0.7105  0.4369  0.1890
 2371SOL    HW3 9530   3.516   2.709   3.824 -0.9321  0.5406  2.1859
 2371SOL    MW4 9531   3.588   2.667   3.850 -0.3624  0.4320  0.4706
 2372SOL     OW 9532   3.844   2.822   3.791  0.5299  0.2054 -0.0677
 2372SOL    HW2 9533   3.914   2.767   3.827  1.4884  0.8610 -0.9418
 2372SOL    HW3 9534   3.763   2.774   3.812  1.3483 -1.4694 -0.7042
 2372SOL    MW4 9535   3.842   2.808   3.799  0.7641  0.0708 -0.2670
 2373SOL     OW 9536   3.850   3.085   3.904  0.1679  0.1877 -0.3294
 2373SOL    HW2 9537   3.761   3.118   3.894  0.6616  1.1216 -1.8944
 2373SOL    HW3 9538   3.848   2.998   3.866  0.1917  0.6717 -1.4554
 2373SOL    MW4 9539   3.838   3.078   3.898  0.2360  0.3748 -0.6845
 2374SOL     OW 9540   3.591   3.182   3.843 -0.3823  0.0759  0.0900
 2374SOL    HW2 9541   3.597   3.276   3.864  0.2387 -0.2572  1.3958
 2374SOL    HW3 9542   3.581   3.181   3.748  0.0419  1.4637  0.0043
 2374SOL    MW4 9543   3.591   3.195   3.833 -0.2444  0.2151  0.2508
 2375SOL     OW 9544   3.639   3.446   3.919  0.5506 -0.3867  0.4861
 2375SOL    HW2 9545   3.647   3.464   4.012  1.1939  0.9607  0.1932
 2375SOL    HW3 9546   3.558   3.491   3.893  0.8384 -0.0027  0.2346
 2375SOL    MW4 9547   3.629   3.455   3.928  0.6733 -0.1583  0.4146
 2376SOL     OW 9548   3.835   3.609   3.784  0.3578 -0.2980 -0.0221
 2376SOL    HW2 9549   3.817   3.696   3.819 -1.3842  0.2362 -2.1405
 2376SOL    HW3 9550   3.762   3.555   3.814  1.0145 -0.8219  0.6221
 2376SOL    MW4 9551   3.823   3.613   3.792  0.2143 -0.2968 -0.2167
 2377SOL     OW 9552   3.810   3.850   3.917  0.5091 -0.3917 -0.0828
 2377SOL    HW2 9553   3.832   3.843   4.009  0.2516 -0.2619 -0.0113
 2377SOL    HW3 9554   3.878   3.905   3.879 -0.4308  1.1151  0.3947
 2377SOL    MW4 9555   3.822   3.856   3.924  0.3510 -0.1757 -0.0107
 2378SOL     OW 9556   3.566   3.994   3.834 -0.1732 -0.3510  0.6172
 2378SOL    HW2 9557   3.565   4.077   3.880  0.2560  0.2213 -0.3912
 2378SOL    HW3 9558   3.629   3.940   3.882  0.5950  0.3927  0.4459
 2378SOL    MW4 9559   3.574   3.998   3.846 -0.0150 -0.1771  0.4616
 2379SOL     OW 9560   3.559   4.250   3.922  0.0567  0.3607 -0.4967
 2379SOL    HW2 9561   3.543   4.258   4.016 -0.7615  1.2752 -0.7023
 2379SOL    HW3 9562   3.630   4.311   3.905  0.0948  0.3157 -0.4958
 2379SOL    MW4 9563   3.566   4.259   3.932 -0.0460  0.4754 -0.5238
 2380SOL     OW 9564   3.768   4.399   3.818  0.0615  0.4659  0.4159
 2380SOL    HW2 9565   3.850   4.357   3.844  0.8249  2.3600  1.1510
 2380SOL    HW3 9566   3.767   4.394   3.723  0.6986 -0.1366  0.4381
 2380SOL    MW4 9567   3.778   4.393   3.809  0.2463  0.6361  0.5157
 2381SOL     OW 9568   4.210   0.004   3.930  0.4041  0.4350  0.1960
 2381SOL    HW2 9569   4.217  -0.009   4.025 -0.7204  0.6478  0.3184
 2381SOL    HW3 9570   4.291   0.049   3.906  0.6695  0.4335  1.0684
 2381SOL    MW4 9571   4.222   0.008   3.939  0.2909  0.4629  0.3273
 2382SOL     OW 9572   3.994   0.121   3.799  0.4626 -0.0721  0.4823
 2382SOL    HW2 9573   4.065   0.067   3.834  0.2219 -2.1389 -2.1078
 2382SOL    HW3 9574   3.991   0.100   3.706 -3.5412 -0.0237  0.5159
 2382SOL    MW4 9575   4.003   0.111   3.791 -0.0973 -0.3384  0.1450
 2383SOL     OW 9576   4.032   0.383   3.869 -0.5113  0.0437  0.3663
 2383SOL    HW2 9577   4.047   0.380   3.963 -0.8227 -0.7291  0.3965
 2383SOL    HW3 9578   4.014   0.292   3.844 -0.3706  0.2279 -0.4477
 2383SOL    MW4 9579   4.032   0.371   3.878 -0.5336 -0.0339  0.2632
 2384SOL     OW 9580   4.247   0.535   3.788  0.0600 -0.4135  0.2300
 2384SOL    HW2 9581   4.171   0.478   3.797  0.2762 -0.8009 -0.3187
 2384SOL    HW3 9582   4.270   0.528   3.695 -0.6250  1.4754 -0.1000
 2384SOL    MW4 9583   4.240   0.526   3.777 -0.0014 -0.2154  0.1142
 2385SOL     OW 9584   4.216   0.773   3.901  0.1580 -0.2537  0.4447
 2385SOL    HW2 9585   4.135   0.806   3.862 -0.4942  0.7329  2.5305
 2385SOL    HW3 9586   4.231   0.689   3.858 -1.7235 -0.2348 -0.3082
 2385SOL    MW4 9587   4.207   0.766   3.890 -0.1764 -0.1211  0.6206
 2386SOL     OW 9588   3.987   0.877   3.800 -0.0879  0.0854  0.1932
 2386SOL    HW2 9589   3.968   0.967   3.826  3.7891  0.9486  0.2942
 2386SOL    HW3 9590   3.992   0.880   3.705 -0.1532 -0.1006  0.1823
 2386SOL    MW4 9591   3.985   0.889   3.791  0.4148  0.1748  0.2053
 2387SOL     OW 9592   3.979   1.151   3.871  0.0163  0.6738  0.2969
 2387SOL    HW2 9593   4.004   1.116   3.957 -0.2063  1.6869  0.7872
 2387SOL    HW3 9594   4.060   1.190   3.837  0.5042 -1.1838 -0.6841
 2387SOL    MW4 9595   3.993   1.152   3.878  0.0513  0.5623  0.2320
 2388SOL     OW 9596   4.255   1.260   3.828  0.4222  0.2735 -0.0801
 2388SOL    HW2 9597   4.243   1.347   3.868 -0.0367 -0.6055  1.7727
 2388SOL    HW3 9598   4.255   1.277   3.734  0.2472  2.2811  0.2474
 2388SOL    MW4 9599   4.253   1.274   3.821  0.3390  0.4222  0.2074
 2389SOL     OW 9600   4.256   1.523   3.865 -0.2598  0.3571  0.3912
 2389SOL    HW2 9601   4.180   1.579   3.848 -0.0444  0.6983  0.5525
 2389SOL    HW3 9602   4.330   1.570   3.827 -0.1834 -0.1600 -0.1067
 2389SOL    MW4 9603   4.256   1.537   3.858 -0.2213  0.3339  0.3467
 2390SOL     OW 9604   4.011   1.655   3.802 -0.0556  0.2522  0.3017
 2390SOL    HW2 9605   3.998   1.745   3.833  0.8292 -0.0614  1.6182
 2390SOL    HW3 9606   3.926   1.613   3.814  0.2761  0.1384  2.3238
 2390SOL    MW4 9607   3.998   1.661   3.808  0.1051  0.1959  0.7422
 2391SOL     OW 9608   4.282   2.028   3.787 -0.3389  0.3381  0.2440
 2391SOL    HW2 9609   4.288   2.123   3.797  0.4251  0.3604 -0.4139
 2391SOL    HW3 9610   4.279   2.013   3.693 -0.3879 -0.2905  0.3412
 2391SOL    MW4 9611   4.283   2.039   3.776 -0.2446  0.2584  0.1702
 2392SOL     OW 9612   4.291   2.292   3.853 -0.5844 -0.3212 -0.0766
 2392SOL    HW2 9613   4.272   2.293   3.947  1.7887  0.3708  0.4142
 2392SOL    HW3 9614   4.219   2.342   3.814 -1.7716 -0.9046  1.3202
 2392SOL    MW4 9615   4.279   2.299   3.860 -0.4282 -0.3068  0.1724
 2393SOL     OW 9616   0.221   1.618   4.134 -0.1316  0.2780 -0.0776
 2393SOL    HW2 9617   0.215   1.523   4.141  1.9981  0.0676 -0.9707
 2393SOL    HW3 9618   0.301   1.641   4.180 -0.5906  1.6507  0.0702
 2393SOL    MW4 9619   0.231   1.608   4.141  0.0888  0.4314 -0.1760
 2394SOL     OW 9620   4.229   3.915   4.702  0.2300  0.2232 -0.4750
 2394SOL    HW2 9621   4.153   3.949   4.655 -1.2077 -1.6102  0.4617
 2394SOL    HW3 9622   4.245   3.979   4.771 -0.9199  0.2576 -0.2311
 2394SOL    MW4 9623   4.221   3.928   4.704 -0.1116 -0.0141 -0.3185
 2395SOL     OW 9624   4.040   2.671   3.894 -0.3126 -0.3876  0.1960
 2395SOL    HW2 9625   4.020   2.687   3.986 -0.5640 -1.0014  0.2504
 2395SOL    HW3 9626   4.116   2.727   3.876 -1.5918  1.3536  0.1928
 2395SOL    MW4 9627   4.048   2.681   3.904 -0.5140 -0.2389  0.2029
 2396SOL     OW 9628   4.256   2.809   3.787  0.2028 -0.3499 -0.0471
 2396SOL    HW2 9629   4.249   2.902   3.806  1.7640 -0.0806 -0.6699
 2396SOL    HW3 9630   4.347   2.787   3.808  0.7823 -0.9766 -2.9980
 2396SOL    MW4 9631   4.267   2.818   3.792  0.4849 -0.3972 -0.5188
 2397SOL     OW 9632   4.279   3.096   3.847  0.2004 -0.2811 -0.4479
 2397SOL    HW2 9633   4.335   3.172   3.838  0.1941 -0.0515  1.3476
 2397SOL    HW3 9634   4.190   3.131   3.846  0.2184 -0.0820  1.6684
 2397SOL    MW4 9635   4.274   3.111   3.846  0.2022 -0.2244  0.0682
 2398SOL     OW 9636   4.050   3.233   3.798 -0.0012 -0.2725 -0.2056
 2398SOL    HW2 9637   3.980   3.169   3.813  0.9276 -1.3712 -0.4811
 2398SOL    HW3 9638   4.067   3.228   3.704  1.7673 -1.4200  0.1561
 2398SOL    MW4 9639   4.043   3.224   3.788  0.3552 -0.5689 -0.1943
 2399SOL     OW 9640   4.030   3.465   3.939 -0.0464 -0.3991 -0.1638
 2399SOL    HW2 9641   4.044   3.388   3.884  1.3853 -0.0247 -0.3489
 2399SOL    HW3 9642   3.955   3.509   3.899  0.1497 -0.8373 -1.0331
 2399SOL    MW4 9643   4.022   3.461   3.926  0.1688 -0.4075 -0.3030
 2400SOL     OW 9644   4.206   3.645   3.822 -0.1885 -0.4680  0.3010
 2400SOL    HW2 9645   4.143   3.587   3.864  0.3275 -1.3720 -0.1599
 2400SOL    HW3 9646   4.291   3.608   3.843  0.2608  1.2396  1.6527
 2400SOL    MW4 9647   4.209   3.633   3.830 -0.0610 -0.3619  0.4184
 2401SOL     OW 9648   4.239   3.920   3.910 -0.4778 -0.5345 -0.0951
 2401SOL    HW2 9649   4.165   3.971   3.876 -1.5997 -2.0710 -0.0239
 2401SOL    HW3 9650   4.220   3.830   3.884  0.7884 -1.1170  0.9452
 2401SOL    MW4 9651   4.227   3.915   3.902 -0.4587 -0.8140  0.0513
 2402SOL     OW 9652   4.000   4.006   3.800 -0.3193 -0.0917 -0.5624
 2402SOL    HW2 9653   3.997   4.099   3.822 -1.9519 -0.2419 -0.0513
 2402SOL    HW3 9654   4.007   4.004   3.704 -0.4447  0.5614 -0.5884
 2402SOL    MW4 9655   4.000   4.018   3.790 -0.5512 -0.0257 -0.4985
 2403SOL     OW 9656   4.008   4.268   3.892  0.0247  0.1460 -0.1187
 2403SOL    HW2 9657   3.991   4.277   3.986 -0.3508  1.6818 -0.3338
 2403SOL    HW3 9658   4.098   4.300   3.881  0.0462  0.0263 -0.2953
 2403SOL    MW4 9659   4.018   4.273   3.903 -0.0219  0.3333 -0.1705
 2404SOL     OW 9660   4.252   4.392   3.815  0.1048 -0.7708 -0.2442
 2404SOL    HW2 9661   4.249   4.482   3.848 -1.5548 -0.8262 -0.2046
 2404SOL    HW3 9662   4.329   4.354   3.856  1.9959  1.2478 -1.8314
 2404SOL    MW4 9663   4.262   4.399   3.825  0.1354 -0.5121 -0.4482
 2405SOL     OW 9664   2.402   0.418   4.517 -0.2212  0.3187 -0.3504
 2405SOL    HW2 9665   2.398   0.425   4.422  1.4609  0.2119 -0.4530
 2405SOL    HW3 9666   2.496   0.426   4.537 -0.6107  0.8262  1.3298
 2405SOL    MW4 9667   2.414   0.420   4.507 -0.0503  0.3715 -0.1421
 2406SOL     OW 9668   0.442   4.287   4.226 -0.2208  0.7643  0.5370
 2406SOL    HW2 9669   0.358   4.328   4.249 -1.2982 -1.2512  0.3156
 2406SOL    HW3 9670   0.444   4.290   4.130 -0.9293 -0.8612  0.4564
 2406SOL    MW4 9671   0.431   4.293   4.216 -0.4564  0.2842  0.4969
 2407SOL     OW 9672   3.993   0.147   4.317 -0.3147 -0.3363  0.3129
 2407SOL    HW2 9673   3.907   0.119   4.285  0.8375 -1.6622 -1.7874
 2407SOL    HW3 9674   3.997   0.114   4.406 -1.8825 -0.4737  0.3574
 2407SOL    MW4 9675   3.982   0.139   4.324 -0.3698 -0.5293  0.0415
 2408SOL     OW 9676   4.245   0.487   4.317  0.1857  0.0820  0.4465
 2408SOL    HW2 9677   4.194   0.424   4.266  1.0983  0.7344 -1.3005
 2408SOL    HW3 9678   4.233   0.571   4.271 -1.1592  1.2697  2.8290
 2408SOL    MW4 9679   4.237   0.490   4.304  0.1292  0.3248  0.5302
 2409SOL     OW 9680   2.463   2.261   4.671  0.2407  0.4010  0.3000
 2409SOL    HW2 9681   2.529   2.226   4.611  0.3356  0.2803  0.4760
 2409SOL    HW3 9682   2.459   2.197   4.742 -2.6913 -1.5420 -1.4722
 2409SOL    MW4 9683   2.471   2.248   4.672 -0.1338  0.1285  0.0896
 2410SOL     OW 9684   1.920   4.024   4.585 -0.0212 -0.1360  0.3879
 2410SOL    HW2 9685   1.959   3.945   4.622  2.3467  0.9990  0.4308
 2410SOL    HW3 9686   1.839   4.037   4.634  0.4858 -1.5289  1.6085
 2410SOL    MW4 9687   1.915   4.016   4.596  0.3582 -0.1702  0.5546
 2411SOL     OW 9688   1.311   3.719   4.644 -0.5629 -0.0811  0.6391
 2411SOL    HW2 9689   1.392   3.760   4.611 -0.1280 -1.2312  0.2716
 2411SOL    HW3 9690   1.338   3.633   4.674 -1.8573 -0.9121 -0.5214
 2411SOL    MW4 9691   1.325   3.713   4.643 -0.6763 -0.3421  0.4377
 2412SOL     OW 9692   3.398   1.049   4.628  0.0274  0.2567 -0.5759
 2412SOL    HW2 9693   3.308   1.042   4.597  0.2327  1.1853 -1.4329
 2412SOL    HW3 9694   3.409   1.142   4.648  0.3465 -0.0945  0.9590
 2412SOL    MW4 9695   3.388   1.060   4.626  0.0966  0.3328 -0.4859
 2413SOL     OW 9696   2.494   4.645   4.552 -0.2729 -0.3611 -0.1157
 2413SOL    HW2 9697   2.413   4.695   4.556 -0.7242 -1.0274 -0.8202
 2413SOL    HW3 9698   2.556   4.696   4.605 -1.4737 -0.4687  1.4512
 2413SOL    MW4 9699   2.491   4.658   4.560 -0.4909 -0.4625 -0.0019
 2414SOL     OW 9700   4.080   2.468   4.732  0.0262 -0.1190  0.0891
 2414SOL    HW2 9701   4.128   2.548   4.753 -1.6377  1.0401 -0.3601
 2414SOL    HW3 9702   3.995   2.500   4.701 -1.2084 -2.1237  1.3555
 2414SOL    MW4 9703   4.075   2.483   4.731 -0.3562 -0.2303  0.1969
 2415SOL     OW 9704   4.093   4.295   4.556 -0.0525  0.0521  0.0578
 2415SOL    HW2 9705   4.134   4.322   4.474  0.0342 -0.3416 -0.0299
 2415SOL    HW3 9706   4.162   4.308   4.622  0.1591 -0.4460 -0.0639
 2415SOL    MW4 9707   4.108   4.301   4.554 -0.0129 -0.0658  0.0300
 2416SOL     OW 9708   1.355   4.172   4.327 -0.1811  0.1183 -0.1275
 2416SOL    HW2 9709   1.413   4.210   4.394  0.8705 -1.0412 -0.3439
 2416SOL    HW3 9710   1.370   4.225   4.249  0.3722  0.0330 -0.0859
 2416SOL    MW4 9711   1.365   4.184   4.326  0.0306 -0.0463 -0.1507
 2417SOL     OW 9712   0.409   0.877   4.275  0.2775  0.3729  0.0359
 2417SOL    HW2 9713   0.486   0.838   4.235 -0.1029  0.9246 -1.2356
 2417SOL    HW3 9714   0.335   0.831   4.235 -0.1213  1.3427 -0.3452
 2417SOL    MW4 9715   0.409   0.865   4.265  0.1747  0.5737 -0.1817
 2418SOL     OW 9716   4.267   0.214   4.858  0.1081 -0.3292 -0.0204
 2418SOL    HW2 9717   4.252   0.205   4.952  1.0730 -0.2671  0.1522
 2418SOL    HW3 9718   4.345   0.270   4.852 -0.8661  0.9439 -0.8955
 2418SOL    MW4 9719   4.275   0.220   4.870  0.1068 -0.1531 -0.1125
 2419SOL     OW 9720   1.183   2.222   4.672  0.2427  0.3330  0.5840
 2419SOL    HW2 9721   1.113   2.266   4.721  0.0481 -1.9836  2.4461
 2419SOL    HW3 9722   1.136   2.168   4.608  0.3006 -0.8294  1.4987
 2419SOL    MW4 9723   1.167   2.221   4.670  0.2247 -0.1259  0.9503
 2420SOL     OW 9724   1.019   3.796   4.909 -0.7145  0.4675 -0.0406
 2420SOL    HW2 9725   1.006   3.709   4.872  0.0482  0.6826 -0.8223
 2420SOL    HW3 9726   1.064   3.780   4.992 -0.5639  0.1240 -0.1882
 2420SOL    MW4 9727   1.023   3.783   4.915 -0.5940  0.4504 -0.1631
 2421SOL     OW 9728   1.388   1.938   4.125  0.5026 -0.0664  0.1435
 2421SOL    HW2 9729   1.383   1.852   4.166 -0.2557  0.7646  1.8398
 2421SOL    HW3 9730   1.462   1.981   4.169  0.4992  0.3723 -0.2766
 2421SOL    MW4 9731   1.397   1.933   4.136  0.4022  0.1012  0.3119
 2422SOL     OW 9732   4.480   3.514   4.202 -0.3252  0.2254  0.1135
 2422SOL    HW2 9733   4.475   3.497   4.107 -0.1314 -0.6386  0.2504
 2422SOL    HW3 9734   4.395   3.552   4.223 -0.9796 -1.0737 -0.1320
 2422SOL    MW4 9735   4.468   3.517   4.192 -0.3862 -0.0601  0.0987
 2423SOL     OW 9736   4.272   3.919   4.176  0.7260 -0.3193  0.1983
 2423SOL    HW2 9737   4.263   3.915   4.081  1.8023  1.0852  0.0144
 2423SOL    HW3 9738   4.267   3.828   4.205 -2.6103 -0.5534 -0.8909
 2423SOL    MW4 9739   4.270   3.907   4.167  0.4282 -0.1647  0.0305
 2424SOL     OW 9740   0.130   2.059   4.639  0.7368  0.4575 -0.0627
 2424SOL    HW2 9741   0.180   1.984   4.606  0.2615 -0.9163  2.2865
 2424SOL    HW3 9742   0.039   2.037   4.619  0.7097  1.0865 -0.6542
 2424SOL    MW4 9743   0.124   2.046   4.632  0.6705  0.3591  0.1688
 2425SOL     OW 9744   0.244   3.881   4.207 -0.0144  0.1113 -0.1654
 2425SOL    HW2 9745   0.246   3.789   4.231  0.8308  0.5847  1.6689
 2425SOL    HW3 9746   0.159   3.913   4.239  0.6569  0.4889  1.2801
 2425SOL    MW4 9747   0.233   3.873   4.214  0.1857  0.2236  0.2675
 2426SOL     OW 9748   0.011   4.010   4.294  0.0726 -0.1165 -0.5143
 2426SOL    HW2 9749  -0.072   3.973   4.264  0.7120 -0.4744 -1.9161
 2426SOL    HW3 9750   0.005   4.011   4.389 -1.4695 -0.2925 -0.6062
 2426SOL    MW4 9751  -0.000   4.005   4.303 -0.0463 -0.1869 -0.7110
 2427SOL     OW 9752   1.213   1.825   4.650 -0.3399 -0.1219  0.0464
 2427SOL    HW2 9753   1.139   1.773   4.681 -0.9111  0.3349 -0.5451
 2427SOL    HW3 9754   1.255   1.768   4.585  0.5264 -0.8503  1.2190
 2427SOL    MW4 9755   1.209   1.810   4.645 -0.3009 -0.1577  0.1235
 2428SOL     OW 9756   0.986   2.406   4.769  0.3832  0.5661  0.1131
 2428SOL    HW2 9757   0.904   2.394   4.721 -0.2874 -0.3815  1.4658
 2428SOL    HW3 9758   1.018   2.492   4.741 -0.2567  0.2591 -1.6226
 2428SOL    MW4 9759   0.980   2.416   4.759  0.2103  0.4008  0.0629
 2429SOL     OW 9760   2.960   3.084   4.162 -0.1862 -0.1771  0.4525
 2429SOL    HW2 9761   2.880   3.119   4.201 -1.0851 -1.3179 -0.3720
 2429SOL    HW3 9762   2.945   3.088   4.068  1.4142  1.2043  0.2348
 2429SOL    MW4 9763   2.948   3.089   4.155 -0.0935 -0.1452  0.3147
 2430SOL     OW 9764   2.558   2.882   4.481  0.2133  0.0815  0.0508
 2430SOL    HW2 9765   2.546   2.975   4.496  1.2331  0.3162 -0.5208
 2430SOL    HW3 9766   2.472   2.843   4.496 -0.6723  1.3511 -1.6021
 2430SOL    MW4 9767   2.545   2.889   4.485  0.2310  0.2801 -0.2422
 2431SOL     OW 9768   0.441   0.339   4.141  0.4231  0.0198 -0.5571
 2431SOL    HW2 9769   0.421   0.359   4.049  0.8161  1.0446 -0.4175
 2431SOL    HW3 9770   0.375   0.386   4.191  0.8508  0.3059 -0.2638
 2431SOL    MW4 9771   0.429   0.348   4.135  0.5314  0.1927 -0.4997
 2432SOL     OW 9772   0.435   3.438   4.661 -0.5456 -0.3706 -0.1263
 2432SOL    HW2 9773   0.492   3.504   4.622 -1.5524  0.6257  0.0620
 2432SOL    HW3 9774   0.464   3.433   4.752  0.1042 -0.8270 -0.3542
 2432SOL    MW4 9775   0.447   3.446   4.668 -0.5927 -0.2997 -0.1321
 2433SOL     OW 9776   1.290   0.355   4.144 -0.4526  0.3210  0.1036
 2433SOL    HW2 9777   1.371   0.389   4.182 -0.9116  0.3740  1.0606
 2433SOL    HW3 9778   1.276   0.271   4.188 -0.3647 -0.1833 -0.8225
 2433SOL    MW4 9779   1.299   0.348   4.155 -0.5016  0.2615  0.1073
 2434SOL     OW 9780   0.399   1.146   4.170  0.2883  0.0780  0.2119
 2434SOL    HW2 9781   0.386   1.064   4.218  3.2036 -0.4906  0.1113
 2434SOL    HW3 9782   0.409   1.119   4.079 -0.8855  0.7643 -0.1309
 2434SOL    MW4 9783   0.398   1.131   4.164  0.5181  0.0936  0.1531
 2435SOL     OW 9784   1.880   1.923   4.567  0.2497 -0.3508  0.1628
 2435SOL    HW2 9785   1.943   1.964   4.508  0.6253 -1.3789 -0.1601
 2435SOL    HW3 9786   1.926   1.919   4.651 -0.4132  1.4340  0.6354
 2435SOL    MW4 9787   1.895   1.928   4.571  0.2120 -0.2511  0.1826
 2436SOL     OW 9788   0.897   1.662   4.270  0.0715 -0.5986  0.0121
 2436SOL    HW2 9789   0.831   1.616   4.218 -0.6959  1.1611 -0.6108
 2436SOL    HW3 9790   0.900   1.750   4.233  1.3744 -0.0668  1.3055
 2436SOL    MW4 9791   0.889   1.667   4.258  0.1422 -0.2962  0.1001
 2437SOL     OW 9792   3.355   4.641   4.636  0.3578  0.1736  0.4851
 2437SOL    HW2 9793   3.439   4.687   4.631 -0.0059  1.0453  1.9388
 2437SOL    HW3 9794   3.291   4.703   4.601  0.1881 -0.1385  0.2362
 2437SOL    MW4 9795   3.358   4.655   4.631  0.2873  0.2475  0.6442
 2438SOL     OW 9796   2.293   4.247   4.629 -0.0671 -0.0149 -0.2090
 2438SOL    HW2 9797   2.348   4.296   4.567 -0.1036 -0.7162 -0.7989
 2438SOL    HW3 9798   2.282   4.161   4.588 -0.3909 -0.3597  0.6077
 2438SOL    MW4 9799   2.298   4.242   4.615 -0.1147 -0.1535 -0.1793
 2439SOL     OW 9800   0.475   1.931   4.140 -0.3522 -0.3161 -0.0156
 2439SOL    HW2 9801   0.405   1.961   4.198 -1.1027 -0.6232 -0.7543
 2439SOL    HW3 9802   0.439   1.941   4.052 -0.2229 -2.4284 -0.3195
 2439SOL    MW4 9803   0.461   1.936   4.136 -0.4342 -0.6353 -0.1535
 2440SOL     OW 9804   1.151   3.345   4.461 -0.2490 -0.1546  0.0126
 2440SOL    HW2 9805   1.124   3.405   4.391  0.2797  0.6975  0.5206
 2440SOL    HW3 9806   1.246   3.337   4.450 -0.3943 -1.3874 -0.4181
 2440SOL    MW4 9807   1.160   3.352   4.451 -0.1984 -0.2050  0.0224
 2441SOL     OW 9808   0.698   2.826   4.228  0.3351 -0.2738 -0.3026
 2441SOL    HW2 9809   0.685   2.920   4.216 -1.4391 -0.2099  1.7928
 2441SOL    HW3 9810   0.617   2.786   4.198  0.7434 -1.0736 -0.3611
 2441SOL    MW4 9811   0.686   2.833   4.223  0.1548 -0.3707 -0.0339
 2442SOL     OW 9812   0.011   3.203   4.974 -0.1523 -0.1010 -0.1807
 2442SOL    HW2 9813  -0.062   3.262   4.990 -0.4441  0.3833 -3.1065
 2442SOL    HW3 9814  -0.015   3.121   5.014 -1.5506  0.5374  0.2443
 2442SOL    MW4 9815  -0.002   3.200   4.981 -0.3753  0.0470 -0.5116
 2443SOL     OW 9816   1.388   4.208   4.734 -0.0305  0.5407  0.2145
 2443SOL    HW2 9817   1.302   4.169   4.746 -0.0390  0.7438  0.7929
 2443SOL    HW3 9818   1.370   4.295   4.697 -0.0146  0.0557 -0.9784
 2443SOL    MW4 9819   1.374   4.215   4.730 -0.0296  0.5031  0.1335
 2444SOL     OW 9820   3.593   1.374   4.316  0.1347  0.2637  0.5841
 2444SOL    HW2 9821   3.561   1.305   4.257 -0.3638  0.2767  0.8315
 2444SOL    HW3 9822   3.615   1.447   4.258  2.6729 -0.8448  0.1394
 2444SOL    MW4 9823   3.591   1.375   4.300  0.4036  0.1192  0.5579
 2445SOL     OW 9824   0.475   3.263   3.797  0.6200 -0.2961  0.2514
 2445SOL    HW2 9825   0.552   3.227   3.840  1.0012  0.5319  0.2713
 2445SOL    HW3 9826   0.401   3.223   3.843  1.0301  0.1067  1.2693
 2445SOL    MW4 9827   0.475   3.253   3.809  0.7244 -0.1338  0.3884
 2446SOL     OW 9828   0.229   3.638   4.295  0.1420  0.0606 -0.1173
 2446SOL    HW2 9829   0.147   3.612   4.251  0.4774  0.9124 -1.2907
 2446SOL    HW3 9830   0.298   3.595   4.245  0.5372  1.1207 -0.5113
 2446SOL    MW4 9831   0.227   3.629   4.282  0.2384  0.3128 -0.3242
 2447SOL     OW 9832   0.453   3.496   4.139  0.2334  0.1650  1.1822
 2447SOL    HW2 9833   0.450   3.521   4.046 -1.5685 -1.1276  0.8512
 2447SOL    HW3 9834   0.538   3.526   4.170  0.1544  2.1862 -0.4460
 2447SOL    MW4 9835   0.464   3.503   4.131 -0.0147  0.2613  0.9236
 2448SOL     OW 9836   0.883   3.418   4.193  0.0375 -0.2389 -0.2055
 2448SOL    HW2 9837   0.892   3.428   4.098 -3.0099 -0.3259 -0.5680
 2448SOL    HW3 9838   0.905   3.326   4.209  1.7209  0.0742 -0.6435
 2448SOL    MW4 9839   0.887   3.407   4.182 -0.1424 -0.2093 -0.3109
 2449SOL     OW 9840   0.419   4.049   4.358 -0.5760 -0.3163  0.3446
 2449SOL    HW2 9841   0.356   3.995   4.310  0.8418 -1.6102 -0.0868
 2449SOL    HW3 9842   0.419   4.133   4.312 -0.1475 -1.1310 -1.1790
 2449SOL    MW4 9843   0.411   4.053   4.346 -0.3324 -0.5946  0.0868
 2450SOL     OW 9844   2.933   3.032   4.742 -0.2153 -0.1064 -0.1104
 2450SOL    HW2 9845   2.864   2.966   4.730  0.7013 -1.0260 -0.4378
 2450SOL    HW3 9846   3.007   2.998   4.692  0.2742  1.1866 -0.2756
 2450SOL    MW4 9847   2.934   3.019   4.734 -0.0298 -0.0570 -0.1755
 2451SOL     OW 9848   4.029   4.014   4.281 -0.0341  0.1270 -0.3054
 2451SOL    HW2 9849   4.108   3.969   4.249  1.0182  0.0619  2.2191
 2451SOL    HW3 9850   3.958   3.952   4.263  1.1318 -1.7729  1.3531
 2451SOL    MW4 9851   4.030   4.000   4.274  0.2589 -0.1323  0.2465
 2452SOL     OW 9852   0.192   4.395   4.296 -0.2379  0.1848 -0.2934
 2452SOL    HW2 9853   0.110   4.346   4.286 -0.9829  1.4760 -0.7124
 2452SOL    HW3 9854   0.172   4.481   4.259  1.3160  0.5136 -0.3834
 2452SOL    MW4 9855   0.179   4.400   4.290 -0.1312  0.3986 -0.3600
 2453SOL     OW 9856   0.888   0.146   4.305 -0.0183  0.5354 -0.2915
 2453SOL    HW2 9857   0.860   0.225   4.259  0.4444 -0.6989 -2.7940
 2453SOL    HW3 9858   0.959   0.111   4.251 -1.1107 -2.2781  0.0281
 2453SOL    MW4 9859   0.894   0.152   4.291 -0.1014  0.0013 -0.5794
 2454SOL     OW 9860   1.540   0.476   4.245  0.4141 -0.0302  0.4363
 2454SOL    HW2 9861   1.611   0.424   4.208  1.4072  1.1993  0.5316
 2454SOL    HW3 9862   1.567   0.567   4.229 -0.8044  0.4625  1.1009
 2454SOL    MW4 9863   1.553   0.481   4.238  0.3844  0.1970  0.5369
 2455SOL     OW 9864   0.917   0.387   4.146  0.0426 -0.4712 -0.2829
 2455SOL    HW2 9865   0.988   0.441   4.182  1.0065 -1.3530 -0.8102
 2455SOL    HW3 9866   0.837   0.424   4.183  0.7955  0.4093  0.4984
 2455SOL    MW4 9867   0.916   0.399   4.155  0.2691 -0.4714 -0.2489
 2456SOL     OW 9868   4.016   4.027   4.569 -0.5177  0.0277 -0.2906
 2456SOL    HW2 9869   4.037   4.119   4.583  1.4363 -0.4418 -0.0037
 2456SOL    HW3 9870   4.021   4.016   4.474 -0.5705  0.1626 -0.3103
 2456SOL    MW4 9871   4.019   4.038   4.558 -0.2675 -0.0162 -0.2561
 2457SOL     OW 9872   2.454   4.416   4.181  0.2773 -0.2781 -0.1508
 2457SOL    HW2 9873   2.374   4.363   4.172 -0.0562 -0.0137  1.2239
 2457SOL    HW3 9874   2.525   4.352   4.178 -0.0611 -0.6734  0.2247
 2457SOL    MW4 9875   2.453   4.400   4.179  0.1886 -0.2952  0.0801
 2458SOL     OW 9876   0.629   0.746   4.130 -0.1418 -0.0395 -0.5165
 2458SOL    HW2 9877   0.639   0.741   4.035  2.3033 -0.3295 -0.2796
 2458SOL    HW3 9878   0.625   0.655   4.158 -0.9889  0.0489 -0.3441
 2458SOL    MW4 9879   0.630   0.734   4.121  0.0690 -0.0662 -0.4625
 2459SOL     OW 9880   1.275   0.905   4.212  0.0891 -0.0675  0.3035
 2459SOL    HW2 9881   1.359   0.859   4.204  0.5249  0.8028 -0.1051
 2459SOL    HW3 9882   1.264   0.920   4.306  0.8992  0.7671  0.2664
 2459SOL    MW4 9883   1.284   0.901   4.223  0.2533  0.1575  0.2451
 2460SOL     OW 9884   1.090   1.288   4.237  0.4999  0.0680  0.0224
 2460SOL    HW2 9885   1.008   1.249   4.208  1.0822 -2.1162  1.2260
 2460SOL    HW3 9886   1.158   1.238   4.192  1.2314  0.5999  0.5257
 2460SOL    MW4 9887   1.088   1.276   4.227  0.6732 -0.1502  0.2480
 2461SOL     OW 9888   1.140   1.546   4.144 -0.2459  0.0800  0.2074
 2461SOL    HW2 9889   1.061   1.585   4.180 -1.0927 -0.1343 -1.3709
 2461SOL    HW3 9890   1.132   1.452   4.161 -0.0390  0.1273  0.5755
 2461SOL    MW4 9891   1.129   1.539   4.151 -0.3303  0.0579  0.0477
 2462SOL     OW 9892   2.445   3.548   4.485  0.1946 -0.4768  0.3832
 2462SOL    HW2 9893   2.508   3.501   4.540 -0.0819 -0.1988  0.9479
 2462SOL    HW3 9894   2.453   3.639   4.514 -1.1072 -0.5799  1.0859
 2462SOL    MW4 9895   2.455   3.554   4.496 -0.0138 -0.4537  0.5512
 2463SOL     OW 9896   0.915   1.904   4.105 -0.0782  0.3979 -0.1709
 2463SOL    HW2 9897   0.900   1.912   4.011  0.2220 -1.1808 -0.3663
 2463SOL    HW3 9898   0.844   1.955   4.145 -0.7174  0.3499 -1.2294
 2463SOL    MW4 9899   0.904   1.912   4.098 -0.1230  0.1832 -0.3362
 2464SOL     OW 9900   3.541   0.123   4.255 -0.3897  0.0337  0.5511
 2464SOL    HW2 9901   3.536   0.212   4.219 -1.6720 -0.8270 -1.4787
 2464SOL    HW3 9902   3.629   0.093   4.234 -0.4891  0.2432 -0.1628
 2464SOL    MW4 9903   3.552   0.131   4.248 -0.5722 -0.0522  0.1893
 2465SOL     OW 9904   0.715   2.327   4.187  0.1556  0.5697 -0.0406
 2465SOL    HW2 9905   0.698   2.309   4.095 -0.5195 -1.7373  0.4831
 2465SOL    HW3 9906   0.630   2.356   4.222  0.1100  0.2836  0.0934
 2465SOL    MW4 9907   0.701   2.328   4.180  0.0606  0.2275  0.0463
 2466SOL     OW 9908   2.483   2.773   3.756 -0.7591 -0.1833 -0.2688
 2466SOL    HW2 9909   2.406   2.729   3.791 -0.1657 -0.9343  0.0923
 2466SOL    HW3 9910   2.475   2.763   3.661 -1.5516  0.5021 -0.2906
 2466SOL    MW4 9911   2.472   2.766   3.748 -0.7856 -0.1922 -0.2239
 2467SOL     OW 9912   1.145   2.834   4.227 -0.2733 -0.0604  0.5985
 2467SOL    HW2 9913   1.076   2.788   4.179  1.5866 -0.9542 -1.2945
 2467SOL    HW3 9914   1.150   2.920   4.184 -0.8017  0.3315  1.3134
 2467SOL    MW4 9915   1.137   2.839   4.215 -0.0975 -0.1266  0.4430
 2468SOL     OW 9916   3.806   4.453   4.318  0.1084 -0.3221 -0.1502
 2468SOL    HW2 9917   3.720   4.412   4.311  0.1322 -0.1939 -1.2263
 2468SOL    HW3 9918   3.864   4.396   4.267  0.8234 -0.8435  1.2257
 2468SOL    MW4 9919   3.802   4.440   4.310  0.2058 -0.3738 -0.1106
 2469SOL     OW 9920   1.138   3.079   4.111 -0.3825 -0.3738 -0.0819
 2469SOL    HW2 9921   1.157   3.084   4.017  0.7653  2.1307  0.2328
 2469SOL    HW3 9922   1.188   3.152   4.149 -0.0282 -1.9566  2.6082
 2469SOL    MW4 9923   1.147   3.089   4.103 -0.1844 -0.2520  0.3142
 2470SOL     OW 9924   3.695   1.400   4.578 -0.5850 -0.4743 -0.3519
 2470SOL    HW2 9925   3.753   1.475   4.588 -0.6389 -0.3314 -1.0692
 2470SOL    HW3 9926   3.656   1.411   4.491  0.0456 -1.7838 -0.8042
 2470SOL    MW4 9927   3.697   1.411   4.568 -0.5088 -0.6281 -0.5064
 2471SOL     OW 9928   1.136   3.832   4.160  0.0452 -0.3311  0.4361
 2471SOL    HW2 9929   1.114   3.745   4.195 -1.0895 -0.0890  0.3413
 2471SOL    HW3 9930   1.075   3.891   4.204  0.1015  0.2735 -0.3071
 2471SOL    MW4 9931   1.125   3.828   4.171 -0.0970 -0.2193  0.3252
 2472SOL     OW 9932   2.402   1.286   4.821  0.1321 -0.1294 -0.1302
 2472SOL    HW2 9933   2.432   1.199   4.845  0.7547  0.2628  0.5303
 2472SOL    HW3 9934   2.319   1.297   4.869  0.4663 -0.0467  0.4363
 2472SOL    MW4 9935   2.395   1.276   4.831  0.2582 -0.0669  0.0319
 2473SOL     OW 9936   1.306   3.509   4.122 -0.2489  0.4661 -0.1976
 2473SOL    HW2 9937   1.315   3.482   4.030 -2.0946 -1.1122  0.0368
 2473SOL    HW3 9938   1.391   3.547   4.144  0.8580 -0.8088 -2.0209
 2473SOL    MW4 9939   1.318   3.510   4.113 -0.3464  0.0896 -0.4072
 2474SOL     OW 9940   4.032   1.901   3.913  0.0768 -0.2545  0.2235
 2474SOL    HW2 9941   4.111   1.948   3.885  0.1847 -0.7781 -0.3574
 2474SOL    HW3 9942   4.016   1.933   4.002 -0.1181  1.2318 -0.3226
 2474SOL    MW4 9943   4.041   1.911   3.921  0.0658 -0.1276  0.0749
 2475SOL     OW 9944   0.888   4.274   4.170 -0.0232  0.1448 -0.1899
 2475SOL    HW2 9945   0.965   4.316   4.207 -0.2357  2.2540 -2.1022
 2475SOL    HW3 9946   0.815   4.310   4.220 -0.0333  0.4693 -0.4406
 2475SOL    MW4 9947   0.888   4.284   4.182 -0.0526  0.4659 -0.4749
 2476SOL     OW 9948   1.113   4.404   4.246  0.6614  0.9033  0.2058
 2476SOL    HW2 9949   1.203   4.404   4.215  1.0350 -1.3834  1.1710
 2476SOL    HW3 9950   1.120   4.388   4.340 -0.6963  2.0630  0.5188
 2476SOL    MW4 9951   1.126   4.402   4.255  0.5316  0.7544  0.3748
 2477SOL     OW 9952   1.753   4.238   4.199 -0.7576  0.4951 -0.3070
 2477SOL    HW2 9953   1.842   4.267   4.216 -1.3649  2.6255 -0.5356
 2477SOL    HW3 9954   1.745   4.240   4.103 -0.5880 -1.1517 -0.3561
 2477SOL    MW4 9955   1.763   4.242   4.189 -0.8154  0.5589 -0.3443
 2478SOL     OW 9956   4.055   1.088   4.124  0.3690  0.1142  0.0639
 2478SOL    HW2 9957   3.973   1.117   4.164  0.2092 -1.6159  1.0605
 2478SOL    HW3 9958   4.121   1.148   4.158 -0.2742  0.6574  0.3695
 2478SOL    MW4 9959   4.053   1.099   4.134  0.2627 -0.0423  0.2360
 2479SOL     OW 9960   3.594   4.272   4.197 -0.5593 -0.4135  0.0094
 2479SOL    HW2 9961   3.512   4.304   4.235 -0.6305 -0.8561  0.2327
 2479SOL    HW3 9962   3.605   4.184   4.233  0.8742  0.2674  1.3133
 2479SOL    MW4 9963   3.585   4.265   4.207 -0.3796 -0.3824  0.2103
 2480SOL     OW 9964   1.286   0.139   4.313 -0.2269  0.2413 -0.4755
 2480SOL    HW2 9965   1.358   0.090   4.352 -1.0011 -0.1026  0.5394
 2480SOL    HW3 9966   1.222   0.072   4.288 -0.4325  0.5868 -0.8823
 2480SOL    MW4 9967   1.287   0.124   4.315 -0.3563  0.2415 -0.3958
 2481SOL     OW 9968   1.765   0.337   4.192 -0.2840 -0.1971 -0.1298
 2481SOL    HW2 9969   1.821   0.402   4.235  0.7332 -0.3734 -1.1658
 2481SOL    HW3 9970   1.793   0.254   4.230  1.1104 -0.4346 -1.5857
 2481SOL    MW4 9971   1.776   0.335   4.203  0.0342 -0.2517 -0.4587
 2482SOL     OW 9972   0.006   2.628   4.095 -0.2610 -0.2463 -0.0204
 2482SOL    HW2 9973   0.077   2.681   4.131  0.8000 -0.9828 -1.0062
 2482SOL    HW3 9974  -0.067   2.643   4.154 -0.3521  3.2620 -0.9135
 2482SOL    MW4 9975   0.006   2.637   4.107 -0.1331  0.1192 -0.2689
 2483SOL     OW 9976   1.544   1.275   4.274  0.4707 -0.2261  0.0754
 2483SOL    HW2 9977   1.548   1.252   4.366  2.1403 -1.1825 -0.2128
 2483SOL    HW3 9978   1.463   1.236   4.242 -1.1611  1.8490  1.5689
 2483SOL    MW4 9979   1.534   1.267   4.282  0.4756 -0.0784  0.2346
 2484SOL     OW 9980   1.751   1.152   4.146 -0.1672 -0.2907  0.3686
 2484SOL    HW2 9981   1.684   1.198   4.196 -0.5040  0.2051 -0.5321
 2484SOL    HW3 9982   1.771   1.074   4.199 -0.8344 -0.0018  1.0527
 2484SOL    MW4 9983   1.745   1.148   4.160 -0.2998 -0.1872  0.3400
 2485SOL     OW 9984   0.872   2.589   4.508  0.6322 -0.3367  0.1730
 2485SOL    HW2 9985   0.843   2.502   4.535 -0.1629  0.6134  2.4950
 2485SOL    HW3 9986   0.958   2.599   4.547  1.2963 -0.5692 -1.1949
 2485SOL    MW4 9987   0.879   2.579   4.516  0.6149 -0.2420  0.2990
 2486SOL     OW 9988   3.692   2.022   4.137 -0.2133 -0.1502  0.5249
 2486SOL    HW2 9989   3.679   1.996   4.046 -0.3384  0.2264  0.4363
 2486SOL    HW3 9990   3.661   1.947   4.189 -0.9511 -0.0112  0.2801
 2486SOL    MW4 9991   3.687   2.009   4.132 -0.3269 -0.0823  0.4807
 2487SOL     OW 9992   1.831   1.955   4.164 -0.5090  0.1073  0.2560
 2487SOL    HW2 9993   1.752   1.992   4.203 -1.3153  0.0129 -1.2447
 2487SOL    HW3 9994   1.903   2.006   4.202 -1.3978  1.2609  0.4104
 2487SOL    MW4 9995   1.830   1.967   4.174 -0.7327  0.2471  0.0772
 2488SOL     OW 9996   4.247   0.723   4.183 -0.2209 -0.0189  0.0722
 2488SOL    HW2 9997   4.176   0.773   4.222 -0.3093  1.3649 -1.7740
 2488SOL    HW3 9998   4.224   0.717   4.090  2.0570  0.4874 -0.5571
 2488SOL    MW4 9999   4.235   0.729   4.176  0.0687  0.2305 -0.2542
 2489SOL     OW10000   4.023   2.538   4.341 -0.1471  0.3864  0.0272
 2489SOL    HW210001   3.994   2.482   4.269 -0.5363  1.4264 -0.6297
 2489SOL    HW310002   4.118   2.525   4.344 -0.4679 -2.0270  1.3500
 2489SOL    MW410003   4.032   2.528   4.332 -0.2408  0.2053  0.1149
 2490SOL     OW10004   2.990   1.176   4.765 -0.1029 -0.0471  0.3275
 2490SOL    HW210005   3.038   1.258   4.782  1.8190 -0.8835 -0.9213
 2490SOL    HW310006   2.916   1.203   4.711 -0.4762  1.1064  1.3643
 2490SOL    MW410007   2.986   1.191   4.760  0.1013 -0.0052  0.2995
 2491SOL     OW10008   1.603   3.099   4.067 -0.1125 -0.0931 -0.1966
 2491SOL    HW210009   1.608   3.016   4.114 -0.9554 -0.1887 -0.2796
 2491SOL    HW310010   1.524   3.141   4.099 -0.5700 -0.0497 -1.3613
 2491SOL    MW410011   1.594   3.094   4.077 -0.2841 -0.0999 -0.3610
 2492SOL     OW10012   0.165   2.768   4.486 -0.1315 -0.1205 -0.1145
 2492SOL    HW210013   0.186   2.680   4.518  1.3497 -0.1009 -0.9623
 2492SOL    HW310014   0.210   2.827   4.546 -1.1500  0.0647  0.4715
 2492SOL    MW410015   0.174   2.764   4.498 -0.0705 -0.0935 -0.1493
 2493SOL     OW10016   1.835   1.459   4.547 -0.5603 -0.0427 -0.2339
 2493SOL    HW210017   1.915   1.407   4.549 -0.5974 -0.1795 -2.0153
 2493SOL    HW310018   1.771   1.406   4.594  0.6494  0.5750  2.2657
 2493SOL    MW410019   1.837   1.445   4.554 -0.4055  0.0206 -0.1397
 2494SOL     OW10020   2.266   3.164   4.474 -0.1265 -0.2537  0.3914
 2494SOL    HW210021   2.189   3.110   4.493 -0.0424 -1.0471 -1.4424
 2494SOL    HW310022   2.264   3.177   4.380  1.2526  0.8657  0.5010
 2494SOL    MW410023   2.256   3.158   4.464  0.0663 -0.2105  0.1645
 2495SOL     OW10024   0.449   4.508   4.668 -0.1205 -0.4338 -0.3615
 2495SOL    HW210025   0.515   4.439   4.660 -0.5174 -1.1012  1.5929
 2495SOL    HW310026   0.378   4.481   4.610  1.0090 -0.1013 -1.9017
 2495SOL    MW410027   0.448   4.495   4.660 -0.0238 -0.4778 -0.3066
 2496SOL     OW10028   3.599   2.883   4.526 -0.5558  0.4661  0.3850
 2496SOL    HW210029   3.572   2.974   4.527 -0.7366  0.4909 -2.4815
 2496SOL    HW310030   3.518   2.833   4.532 -0.4861  0.4736  1.5328
 2496SOL    MW410031   3.585   2.888   4.527 -0.5705  0.4702  0.1583
 2497SOL     OW10032   1.329   1.395   4.589  0.1972  0.2170  0.2289
 2497SOL    HW210033   1.346   1.487   4.570 -0.2084 -0.1761 -2.1399
 2497SOL    HW310034   1.238   1.381   4.563  0.1515 -0.7795  0.8804
 2497SOL    MW410035   1.319   1.405   4.583  0.1374  0.0336  0.0024
 2498SOL     OW10036   4.277   3.468   4.856  0.5661 -0.0497 -0.3255
 2498SOL    HW210037   4.351   3.488   4.799  0.4154  2.1992  0.2171
 2498SOL    HW310038   4.201   3.470   4.799  0.6567  0.0401 -0.4411
 2498SOL    MW410039   4.277   3.471   4.841  0.5579  0.2589 -0.2694
 2499SOL     OW10040   1.821   4.436   4.566  0.2765 -0.4021 -0.0330
 2499SOL    HW210041   1.900   4.401   4.525 -0.9515 -1.3559 -1.6754
 2499SOL    HW310042   1.758   4.364   4.561 -1.0015  0.6691  0.3367
 2499SOL    MW410043   1.823   4.422   4.560 -0.0541 -0.3867 -0.2007
 2500SOL     OW10044   1.579   4.610   4.180 -0.0775  0.1195  0.5450
 2500SOL    HW210045   1.659   4.659   4.201  0.5312 -0.9772  0.8110
 2500SOL    HW310046   1.535   4.599   4.264  0.4550 -0.9523  0.6852
 2500SOL    MW410047   1.584   4.615   4.194  0.0731 -0.1659  0.5984
 2501SOL     OW10048   0.240   1.803   4.505 -0.5318  0.0629 -0.0109
 2501SOL    HW210049   0.317   1.769   4.552 -0.7713  1.7445  1.6758
 2501SOL    HW310050   0.172   1.738   4.521  0.1127 -0.6597 -0.1971
 2501SOL    MW410051   0.241   1.790   4.514 -0.4783  0.1893  0.1869
 2502SOL     OW10052   4.477   2.438   4.837 -0.4632  0.1163 -0.0102
 2502SOL    HW210053   4.540   2.449   4.767 -0.9046  1.4244 -0.2120
 2502SOL    HW310054   4.530   2.431   4.917  0.0362 -1.4470 -0.4635
 2502SOL    MW410055   4.492   2.438   4.838 -0.4556  0.0827 -0.0963
 2503SOL     OW10056   0.696   3.631   4.260 -0.1377  0.1897  0.1271
 2503SOL    HW210057   0.747   3.551   4.250 -0.3341  0.0174  0.4856
 2503SOL    HW310058   0.683   3.639   4.355  0.5030  1.0312  0.1541
 2503SOL    MW410059   0.701   3.621   4.271 -0.0791  0.2778  0.1779
 2504SOL     OW10060   2.635   0.928   4.252  0.0795 -0.1131 -0.8428
 2504SOL    HW210061   2.651   0.907   4.344 -1.0707 -1.0463 -0.8403
 2504SOL    HW310062   2.559   0.874   4.228 -0.2189  0.8269 -2.0734
 2504SOL    MW410063   2.627   0.918   4.261 -0.1116 -0.1122 -1.0052
 2505SOL     OW10064   0.030   0.373   4.817  0.3611  0.0302  0.5538
 2505SOL    HW210065   0.044   0.467   4.807  1.3414 -0.2796 -1.2790
 2505SOL    HW310066   0.118   0.335   4.814 -0.1664 -1.1231 -1.1063
 2505SOL    MW410067   0.044   0.380   4.815  0.4208 -0.1629  0.0930
 2506SOL     OW10068   3.122   4.254   4.669 -0.0620 -0.0490  0.2187
 2506SOL    HW210069   3.120   4.161   4.647 -0.1913 -0.1323  0.5694
 2506SOL    HW310070   3.202   4.287   4.629  0.9964 -0.7389  1.7296
 2506SOL    MW410071   3.132   4.246   4.661  0.0606 -0.1507  0.4644
 2507SOL     OW10072   2.693   0.447   4.551  0.6812  0.0859 -0.3927
 2507SOL    HW210073   2.724   0.455   4.460  2.3945  0.6892  0.2321
 2507SOL    HW310074   2.741   0.514   4.599 -0.0143 -0.4196  1.0283
 2507SOL    MW410075   2.703   0.457   4.545  0.8154  0.0988 -0.1230
 2508SOL     OW10076   2.006   1.033   4.618  0.7451  0.1089 -0.2689
 2508SOL    HW210077   1.996   1.055   4.711 -1.2192 -0.0792 -0.4147
 2508SOL    HW310078   2.012   1.118   4.574 -0.3685  0.2556 -0.1633
 2508SOL    MW410079   2.006   1.047   4.625  0.3393  0.1035 -0.2742
 2509SOL     OW10080   2.667   1.172   4.127 -0.1087 -0.0135  0.0088
 2509SOL    HW210081   2.652   1.081   4.152 -0.6731 -0.2899 -1.3140
 2509SOL    HW310082   2.687   1.168   4.033  1.0094  1.1089  0.1885
 2509SOL    MW410083   2.668   1.159   4.118 -0.0355  0.0981 -0.1416
 2510SOL     OW10084   1.787   1.692   4.226  0.3845  0.0762  0.3648
 2510SOL    HW210085   1.810   1.779   4.195  0.2366  0.1091  0.3477
 2510SOL    HW310086   1.758   1.706   4.317  1.5199 -0.1177  0.7600
 2510SOL    MW410087   1.786   1.705   4.234  0.5149  0.0552  0.4148
 2511SOL     OW10088   3.579   0.138   4.561  0.1292 -0.0496 -0.1546
 2511SOL    HW210089   3.558   0.122   4.470 -1.0465 -0.5520  0.1969
 2511SOL    HW310090   3.531   0.217   4.584 -1.0604 -0.9497  0.5261
 2511SOL    MW410091   3.570   0.146   4.552 -0.1826 -0.2346 -0.0181
 2512SOL     OW10092   2.218   0.888   4.510  0.2084  0.3155  0.3630
 2512SOL    HW210093   2.200   0.798   4.536  0.3765 -0.1878 -1.1789
 2512SOL    HW310094   2.148   0.940   4.551 -1.3260 -0.8431 -0.6997
 2512SOL    MW410095   2.206   0.883   4.519  0.0281  0.0963  0.0196
 2513SOL     OW10096   3.841   3.581   4.351  0.2193 -0.1131 -0.3111
 2513SOL    HW210097   3.915   3.547   4.300  1.1901 -0.2722  1.1366
 2513SOL    HW310098   3.855   3.545   4.439 -1.8692 -0.5308 -0.1278
 2513SOL    MW410099   3.853   3.572   4.356  0.0718 -0.1893 -0.0963
 2514SOL     OW10100   4.260   0.553   4.587  0.1227 -0.2569 -0.2788
 2514SOL    HW210101   4.252   0.551   4.492  0.3111  0.2719 -0.3086
 2514SOL    HW310102   4.204   0.482   4.618  0.1386 -0.4916 -0.7880
 2514SOL    MW410103   4.252   0.544   4.579  0.1497 -0.2182 -0.3500
 2515SOL     OW10104   3.330   3.565   4.560  0.2063 -0.2241  0.0769
 2515SOL    HW210105   3.410   3.516   4.577  0.5774  0.1145 -0.7022
 2515SOL    HW310106   3.261   3.511   4.599  0.8459 -0.3229  1.0954
 2515SOL    MW410107   3.331   3.551   4.568  0.3395 -0.1926  0.1082
 2516SOL     OW10108   3.426   2.337   4.646 -0.1450  0.4908  0.0660
 2516SOL    HW210109   3.518   2.340   4.619 -0.1054  0.9987  0.2547
 2516SOL    HW310110   3.405   2.243   4.649  0.3913  0.3690  0.0999
 2516SOL    MW410111   3.436   2.325   4.643 -0.0689  0.5419  0.0949
 2517SOL     OW10112   1.815   2.694   4.188  0.0223  0.0975  0.2753
 2517SOL    HW210113   1.732   2.738   4.209 -0.1593 -0.0276 -0.1803
 2517SOL    HW310114   1.805   2.606   4.223 -0.3556 -0.1712 -0.4875
 2517SOL    MW410115   1.803   2.689   4.195 -0.0515  0.0455  0.1144
 2518SOL     OW10116   2.023   3.022   4.486  0.0087  0.1262  0.4967
 2518SOL    HW210117   2.039   2.974   4.405 -0.3216  1.3762 -0.3365
 2518SOL    HW310118   2.007   2.955   4.552 -1.0256 -0.8947 -0.7609
 2518SOL    MW410119   2.023   3.007   4.484 -0.1714  0.1564  0.2208
 2519SOL     OW10120   4.239   3.677   4.547 -0.2735 -0.1616 -0.1393
 2519SOL    HW210121   4.231   3.754   4.603  0.3359  1.1874 -1.8730
 2519SOL    HW310122   4.328   3.645   4.564  0.1581  0.6513 -0.8433
 2519SOL    MW410123   4.250   3.683   4.557 -0.1359  0.1233 -0.4606
 2520SOL     OW10124   3.138   1.111   3.899  0.1809  0.3074  0.0175
 2520SOL    HW210125   3.215   1.149   3.858  0.7133 -0.6240  0.1320
 2520SOL    HW310126   3.132   1.022   3.863  0.4150 -0.3794  1.6082
 2520SOL    MW410127   3.147   1.104   3.889  0.2820  0.0941  0.2425
 2521SOL     OW10128   2.444   3.562   4.208  0.3427  0.1399 -0.3344
 2521SOL    HW210129   2.452   3.657   4.208  0.2712  0.1466  0.2413
 2521SOL    HW310130   2.425   3.539   4.299  0.2649 -0.4164 -0.4871
 2521SOL    MW410131   2.442   3.571   4.220  0.3231  0.0672 -0.2780
 2522SOL     OW10132   1.373   3.902   4.322 -0.7627 -0.2294 -0.4835
 2522SOL    HW210133   1.295   3.874   4.274 -0.8964 -1.0675  0.2169
 2522SOL    HW310134   1.367   3.998   4.323 -1.5556 -0.2721 -0.7958
 2522SOL    MW410135   1.362   3.911   4.315 -0.8851 -0.3455 -0.4325
 2523SOL     OW10136   2.024   4.619   4.171  0.5492  0.2199  0.0930
 2523SOL    HW210137   2.093   4.682   4.191  0.0538  1.0207 -0.6607
 2523SOL    HW310138   2.008   4.630   4.077  0.8698 -1.4558 -0.1654
 2523SOL    MW410139   2.031   4.629   4.161  0.5260  0.1040 -0.0401
 2524SOL     OW10140   1.466   4.624   4.425  0.3243 -0.2892 -0.2411
 2524SOL    HW210141   1.414   4.574   4.488  0.7027 -0.4039 -0.0176
 2524SOL    HW310142   1.497   4.700   4.474  0.0035  0.0095 -0.4973
 2524SOL    MW410143   1.463   4.627   4.440  0.3319 -0.2651 -0.2456
 2525SOL     OW10144   1.983   0.778   4.164  0.3902 -0.2690 -0.1435
 2525SOL    HW210145   1.985   0.761   4.070  2.0025 -1.6467  0.1108
 2525SOL    HW310146   2.068   0.816   4.184  0.0212  0.1047  0.7407
 2525SOL    MW410147   1.995   0.780   4.154  0.5543 -0.4014  0.0072
 2526SOL     OW10148   3.049   1.153   4.308  0.1745  0.1179  0.2028
 2526SOL    HW210149   3.027   1.060   4.317 -0.7608  0.1122 -1.9771
 2526SOL    HW310150   3.129   1.153   4.255 -0.1321  0.5862 -0.2577
 2526SOL    MW410151   3.057   1.141   4.303  0.0107  0.1789 -0.1459
 2527SOL     OW10152   2.136   0.395   4.155 -0.3356 -0.1106 -0.3463
 2527SOL    HW210153   2.148   0.379   4.062  0.5721 -0.5888 -0.1531
 2527SOL    HW310154   2.223   0.419   4.187 -0.7780  0.7349  0.2439
 2527SOL    MW410155   2.149   0.396   4.147 -0.2742 -0.0621 -0.2427
 2528SOL     OW10156   1.405   2.051   4.657  0.0534 -0.2702 -0.4393
 2528SOL    HW210157   1.354   1.971   4.664 -0.1149 -0.2392 -1.1803
 2528SOL    HW310158   1.351   2.118   4.699 -0.4134 -0.2846 -1.0102
 2528SOL    MW410159   1.391   2.050   4.663 -0.0303 -0.2680 -0.6123
 2529SOL     OW10160   4.143   1.801   4.626 -0.4234  0.1499  0.3879
 2529SOL    HW210161   4.087   1.818   4.702 -1.8357 -2.7979  0.0710
 2529SOL    HW310162   4.198   1.728   4.653 -0.8782 -0.8698 -1.3778
 2529SOL    MW410163   4.142   1.794   4.640 -0.6700 -0.3737  0.1125
 2530SOL     OW10164   0.699   2.834   4.532 -0.4209 -0.2157 -0.3269
 2530SOL    HW210165   0.688   2.849   4.438  0.5699  1.3957 -0.2079
 2530SOL    HW310166   0.766   2.766   4.538 -2.7774 -2.7148 -0.8124
 2530SOL    MW410167   0.706   2.827   4.521 -0.6011 -0.3328 -0.3753
 2531SOL     OW10168   1.564   2.335   4.170  0.0485 -0.5347 -0.3756
 2531SOL    HW210169   1.564   2.352   4.075  0.2561  0.4131 -0.2135
 2531SOL    HW310170   1.474   2.353   4.197  0.2903  0.4185 -0.1882
 2531SOL    MW410171   1.552   2.340   4.161  0.1078 -0.2837 -0.3295
 2532SOL     OW10172   4.087   3.202   4.318 -0.2076 -0.2233  0.1103
 2532SOL    HW210173   4.169   3.158   4.297  1.5031  2.4464  0.9627
 2532SOL    HW310174   4.019   3.148   4.278  1.8753 -3.0600  0.3130
 2532SOL    MW410175   4.088   3.189   4.310  0.2933 -0.2453  0.2499
 2533SOL     OW10176   0.400   4.040   4.622 -0.5716  0.5765 -0.1492
 2533SOL    HW210177   0.329   3.980   4.645  0.4231 -0.2901  0.6361
 2533SOL    HW310178   0.394   4.047   4.526 -0.6334 -0.8319 -0.2584
 2533SOL    MW410179   0.390   4.033   4.612 -0.4485  0.2761 -0.0601
 2534SOL     OW10180   1.336   2.435   4.246  0.6201 -0.2944  0.0265
 2534SOL    HW210181   1.270   2.377   4.209  0.2333 -0.5164  1.0536
 2534SOL    HW310182   1.316   2.438   4.340  0.5468  1.5969 -0.0335
 2534SOL    MW410183   1.325   2.428   4.254  0.5594 -0.0744  0.1545
 2535SOL     OW10184   1.372   1.668   4.226 -0.0753  0.2288  0.3463
 2535SOL    HW210185   1.443   1.614   4.193  0.5280  1.5725 -0.6191
 2535SOL    HW310186   1.292   1.626   4.193  0.3528 -0.3420  0.0215
 2535SOL    MW410187   1.371   1.655   4.217  0.0609  0.3309  0.1760
 2536SOL     OW10188   0.907   3.149   4.242  0.0609  0.0302  0.2126
 2536SOL    HW210189   0.968   3.105   4.183  1.2796  1.1059  0.6355
 2536SOL    HW310190   0.936   3.124   4.330  0.0744  0.7552  0.4206
 2536SOL    MW410191   0.919   3.140   4.246  0.2235  0.2677  0.2956
 2537SOL     OW10192   4.067   3.502   4.691  0.2486 -0.2155  0.0108
 2537SOL    HW210193   4.114   3.560   4.630  2.4997 -0.9886  0.9462
 2537SOL    HW310194   4.081   3.414   4.656 -1.1469 -0.3994 -0.0956
 2537SOL    MW410195   4.075   3.498   4.679  0.3614 -0.3417  0.1202
 2538SOL     OW10196   0.038   2.337   4.099  0.1828  0.3867  0.3210
 2538SOL    HW210197  -0.053   2.310   4.110 -0.9378  2.8608 -2.1699
 2538SOL    HW310198   0.038   2.431   4.116  1.7547  0.8981 -2.1967
 2538SOL    MW410199   0.026   2.345   4.102  0.2424  0.7806 -0.3395
 2539SOL     OW10200   3.120   2.698   4.159  0.2438  0.1927  0.0553
 2539SOL    HW210201   3.199   2.736   4.198  0.5984 -0.3819 -0.1089
 2539SOL    HW310202   3.049   2.729   4.216  0.6206  0.4159  0.4124
 2539SOL    MW410203   3.121   2.707   4.172  0.3402  0.1462  0.0811
 2540SOL     OW10204   0.680   0.524   4.500  0.2891  0.0388  0.1319
 2540SOL    HW210205   0.694   0.442   4.546  1.3999  0.7375  1.0356
 2540SOL    HW310206   0.598   0.558   4.536 -0.7259 -1.1532 -0.9801
 2540SOL    MW410207   0.671   0.518   4.511  0.3018 -0.0263  0.1040
 2541SOL     OW10208   0.252   3.100   4.171  0.0888  0.0636 -0.1718
 2541SOL    HW210209   0.236   3.011   4.201  1.4540  0.3368  1.4840
 2541SOL    HW310210   0.174   3.149   4.199  0.0107 -0.3142  0.2881
 2541SOL    MW410211   0.240   3.095   4.179  0.2586  0.0498  0.1073
 2542SOL     OW10212   2.507   2.801   4.210  0.0143  0.3312  0.1232
 2542SOL    HW210213   2.520   2.829   4.300 -0.7032  0.1427  0.2873
 2542SOL    HW310214   2.506   2.883   4.160 -2.1674  0.6421  0.6186
 2542SOL    MW410215   2.509   2.816   4.215 -0.3681  0.3474  0.2108
 2543SOL     OW10216   2.224   3.458   4.080 -0.1133 -0.5810 -0.1348
 2543SOL    HW210217   2.144   3.486   4.124 -0.3483 -0.4691 -0.6369
 2543SOL    HW310218   2.293   3.509   4.123 -0.4195 -0.0057 -0.3173
 2543SOL    MW410219   2.223   3.469   4.092 -0.1845 -0.4904 -0.2251
 2544SOL     OW10220   1.704   1.701   4.500  0.2429  0.5215  0.5274
 2544SOL    HW210221   1.765   1.629   4.517  0.7057  0.7477 -0.1358
 2544SOL    HW310222   1.748   1.778   4.536  1.0781  0.9469 -1.3138
 2544SOL    MW410223   1.718   1.701   4.507  0.4144  0.6075  0.1965
 2545SOL     OW10224   1.132   2.292   4.157  0.1356 -0.0337 -0.1884
 2545SOL    HW210225   1.060   2.341   4.197 -0.6413 -0.8527 -0.5907
 2545SOL    HW310226   1.113   2.200   4.175  0.1888 -0.3716 -1.7242
 2545SOL    MW410227   1.120   2.287   4.164  0.0401 -0.1864 -0.4444
 2546SOL     OW10228   3.281   1.152   4.150  0.6056  0.0940 -0.1806
 2546SOL    HW210229   3.272   1.247   4.156  0.1732  0.0045  0.7735
 2546SOL    HW310230   3.220   1.126   4.081  0.9789  0.5495 -0.6771
 2546SOL    MW410231   3.272   1.161   4.142  0.5980  0.1422 -0.1202
 2547SOL     OW10232   2.696   3.951   4.504  0.1736  0.0453  0.0172
 2547SOL    HW210233   2.687   4.045   4.519 -0.2075 -0.0704  0.5181
 2547SOL    HW310234   2.707   3.943   4.409 -0.0183  0.5802 -0.0526
 2547SOL    MW410235   2.696   3.962   4.493  0.0980  0.1006  0.0739
 2548SOL     OW10236   3.939   2.187   4.577 -0.0835 -0.2310 -0.0093
 2548SOL    HW210237   3.854   2.220   4.548 -0.4461 -0.8371  0.3434
 2548SOL    HW310238   3.980   2.262   4.620 -0.6920 -0.0978  0.3480
 2548SOL    MW410239   3.933   2.201   4.579 -0.2120 -0.2935  0.0839
 2549SOL     OW10240   4.321   3.086   4.156 -0.2877  0.2751 -0.5543
 2549SOL    HW210241   4.395   3.147   4.165 -1.2311  1.5757 -1.5553
 2549SOL    HW310242   4.303   3.083   4.062 -1.6406  0.1170 -0.2961
 2549SOL    MW410243   4.329   3.094   4.145 -0.5903  0.4258 -0.6518
 2550SOL     OW10244   1.539   3.370   4.759 -0.1620  0.0632 -0.1002
 2550SOL    HW210245   1.589   3.434   4.707 -0.2978  1.1313  1.0657
 2550SOL    HW310246   1.553   3.287   4.714  1.8110  0.5352 -0.4090
 2550SOL    MW410247   1.548   3.368   4.746  0.0805  0.2661  0.0129
 2551SOL     OW10248   2.398   0.488   4.254 -0.2006  0.0056  0.0991
 2551SOL    HW210249   2.476   0.440   4.227 -0.2029 -0.1742  0.4050
 2551SOL    HW310250   2.413   0.577   4.224 -0.6778 -0.4206 -1.4358
 2551SOL    MW410251   2.410   0.493   4.247 -0.2639 -0.0743 -0.0634
 2552SOL     OW10252   2.628   0.352   4.186  0.1043  0.0056  0.1289
 2552SOL    HW210253   2.632   0.332   4.092 -1.4390 -1.5717  0.3796
 2552SOL    HW310254   2.639   0.267   4.229 -0.0725  0.6008  1.3661
 2552SOL    MW410255   2.630   0.338   4.179 -0.1225 -0.1239  0.3252
 2553SOL     OW10256   2.948   1.524   3.831  0.2551 -0.8121  0.1075
 2553SOL    HW210257   3.029   1.572   3.811 -0.0196 -0.8521 -1.1339
 2553SOL    HW310258   2.946   1.519   3.927  2.3877 -1.9434  0.1255
 2553SOL    MW410259   2.958   1.530   3.841  0.5002 -0.9667 -0.0539
 2554SOL     OW10260   0.465   0.111   4.563  0.4134 -1.3487 -0.0461
 2554SOL    HW210261   0.425   0.089   4.479 -1.7916 -1.6149  1.0328
 2554SOL    HW310262   0.470   0.027   4.610  1.6732 -1.2150  0.0658
 2554SOL    MW410263   0.460   0.097   4.558  0.2887 -1.3662  0.1111
 2555SOL     OW10264   0.235   2.259   4.291 -0.4214  0.2149 -0.2476
 2555SOL    HW210265   0.237   2.163   4.285 -0.3011  0.1583  0.5709
 2555SOL    HW310266   0.169   2.286   4.228  0.5915 -0.3088 -1.5475
 2555SOL    MW410267   0.227   2.250   4.282 -0.2719  0.1385 -0.3109
 2556SOL     OW10268   0.199   4.451   4.558  0.0800 -0.2034 -0.1726
 2556SOL    HW210269   0.188   4.439   4.464 -1.4471 -1.0206  0.1032
 2556SOL    HW310270   0.171   4.541   4.575 -1.5403 -0.6974 -0.2072
 2556SOL    MW410271   0.194   4.462   4.548 -0.3353 -0.3757 -0.1411
 2557SOL     OW10272   1.419   1.641   4.512  0.1166 -0.1425  0.1074
 2557SOL    HW210273   1.513   1.658   4.525  0.1286 -0.9329  1.1785
 2557SOL    HW310274   1.405   1.653   4.419  0.4901  3.8249  0.4755
 2557SOL    MW410275   1.430   1.644   4.502  0.1675  0.2767  0.2975
 2558SOL     OW10276   2.435   1.316   4.215 -0.2592  0.0301  0.4136
 2558SOL    HW210277   2.455   1.408   4.196 -0.6378  0.4456  1.9121
 2558SOL    HW310278   2.517   1.270   4.197  0.3904  0.8953  1.1165
 2558SOL    MW410279   2.449   1.322   4.210 -0.2234  0.1991  0.7043
 2559SOL     OW10280   1.039   2.041   4.505  0.0126  0.3106  0.1166
 2559SOL    HW210281   1.084   1.973   4.556 -2.2478 -2.0084 -0.9375
 2559SOL    HW310282   1.063   2.023   4.414 -0.4053  1.1167 -0.1578
 2559SOL    MW410283   1.048   2.030   4.500 -0.3407  0.1109 -0.0587
 2560SOL     OW10284   3.531   1.730   3.798 -0.5789 -0.2106  0.4233
 2560SOL    HW210285   3.471   1.669   3.839  0.6666 -1.5062  0.3493
 2560SOL    HW310286   3.519   1.716   3.704 -0.1249 -0.5036  0.4093
 2560SOL    MW410287   3.522   1.720   3.791 -0.3548 -0.4201  0.4117
 2561SOL     OW10288   3.180   2.449   4.246  0.3047 -0.1372  0.5317
 2561SOL    HW210289   3.190   2.470   4.339 -0.1975 -1.2175  0.8365
 2561SOL    HW310290   3.152   2.531   4.206  1.6272  0.6264  1.1391
 2561SOL    MW410291   3.177   2.463   4.253  0.4129 -0.1791  0.6523
 2562SOL     OW10292   3.759   2.841   4.278  0.0938  0.2356  0.4680
 2562SOL    HW210293   3.748   2.815   4.369 -1.2108  0.9236  0.5215
 2562SOL    HW310294   3.704   2.781   4.228  0.0420  0.4777  0.2311
 2562SOL    MW410295   3.751   2.830   4.283 -0.0846  0.3583  0.4439
 2563SOL     OW10296   2.501   2.058   4.267 -0.0498  0.1703  0.0671
 2563SOL    HW210297   2.544   2.079   4.350  0.2757  0.9152 -0.2811
 2563SOL    HW310298   2.565   2.007   4.218 -0.0805  0.1019  0.0979
 2563SOL    MW410299   2.515   2.054   4.272 -0.0107  0.2596  0.0253
 2564SOL     OW10300   1.805   3.531   4.054 -0.6482 -0.2441 -0.2151
 2564SOL    HW210301   1.800   3.447   4.098  1.5088 -0.4768 -0.3541
 2564SOL    HW310302   1.802   3.510   3.961  1.6719 -0.3517 -0.2946
 2564SOL    MW410303   1.804   3.517   4.047 -0.0576 -0.2890 -0.2441
 2565SOL     OW10304   3.183   3.226   4.224  0.1489 -0.0835  0.5557
 2565SOL    HW210305   3.109   3.187   4.178  0.5852  0.0835 -0.3095
 2565SOL    HW310306   3.178   3.319   4.203  0.5590 -0.0622  0.5434
 2565SOL    MW410307   3.173   3.233   4.215  0.2604 -0.0584  0.4396
 2566SOL     OW10308   2.282   0.158   4.556 -0.5483  0.3486 -0.0506
 2566SOL    HW210309   2.200   0.172   4.603 -1.7301 -0.9865 -1.6563
 2566SOL    HW310310   2.323   0.245   4.553 -1.7558  0.9804  0.9950
 2566SOL    MW410311   2.277   0.171   4.562 -0.8633  0.2558 -0.1240
 2567SOL     OW10312   0.015   2.443   3.719 -0.2269  0.2059 -0.4623
 2567SOL    HW210313   0.025   2.529   3.760  2.4061 -0.3248  0.1215
 2567SOL    HW310314  -0.051   2.399   3.771 -2.1035  2.1083 -1.1822
 2567SOL    MW410315   0.008   2.449   3.731 -0.1271  0.3870 -0.4804
 2568SOL     OW10316   3.166   3.984   4.261 -0.4056  0.0898 -0.6600
 2568SOL    HW210317   3.246   3.941   4.233 -0.9839 -2.3635  1.2157
 2568SOL    HW310318   3.096   3.923   4.235 -1.3985  0.7303  0.4501
 2568SOL    MW410319   3.167   3.970   4.254 -0.6127 -0.1495 -0.2661
 2569SOL     OW10320   2.272   3.966   4.272 -0.2098 -0.0703  0.0195
 2569SOL    HW210321   2.257   3.975   4.366  1.2545 -1.9118  0.4610
 2569SOL    HW310322   2.193   3.923   4.240 -0.2793 -0.3970  0.6059
 2569SOL    MW410323   2.260   3.961   4.280 -0.0260 -0.3562  0.1554
 2570SOL     OW10324   0.159   1.396   4.486  0.3993  0.4934 -0.1776
 2570SOL    HW210325   0.149   1.382   4.392  1.6010  0.9869 -0.3898
 2570SOL    HW310326   0.106   1.474   4.505  0.4243  0.5879 -0.5060
 2570SOL    MW410327   0.151   1.404   4.476  0.5611  0.5709 -0.2489
 2571SOL     OW10328   3.326   4.642   4.144  0.1719  0.3365  0.3212
 2571SOL    HW210329   3.407   4.687   4.166  0.4097 -0.3233  0.8551
 2571SOL    HW310330   3.257   4.698   4.178  0.4065  0.9350 -0.2006
 2571SOL    MW410331   3.327   4.655   4.152  0.2344  0.3281  0.3233
 2572SOL     OW10332   3.439   2.422   4.161  0.2406  0.1502  0.0148
 2572SOL    HW210333   3.411   2.418   4.069 -1.1431  1.8679  0.3182
 2572SOL    HW310334   3.358   2.414   4.211  0.5461  2.5618  0.9860
 2572SOL    MW410335   3.425   2.421   4.155  0.0982  0.6952  0.1826
 2573SOL     OW10336   3.610   4.007   4.282 -0.0341  0.0949  0.5848
 2573SOL    HW210337   3.542   3.952   4.245  0.0857  0.0410  0.4447
 2573SOL    HW310338   3.603   3.995   4.377 -1.0459  1.0523  0.6454
 2573SOL    MW410339   3.600   3.998   4.290 -0.1519  0.2141  0.5741
 2574SOL     OW10340   3.617   4.028   4.572 -0.3867 -0.2109  0.1195
 2574SOL    HW210341   3.533   3.992   4.598 -0.1097 -1.1801 -0.2959
 2574SOL    HW310342   3.682   3.967   4.607  0.1820  0.7941  0.8805
 2574SOL    MW410343   3.615   4.016   4.580 -0.2751 -0.2065  0.1655
 2575SOL     OW10344   3.827   1.157   4.558 -0.5440 -0.1554  0.4730
 2575SOL    HW210345   3.779   1.240   4.562  0.3183  0.3492  0.4550
 2575SOL    HW310346   3.917   1.182   4.538 -0.1022 -1.0310  1.3044
 2575SOL    MW410347   3.833   1.171   4.556 -0.3722 -0.2043  0.5808
 2576SOL     OW10348   3.077   0.376   4.154 -0.2178  0.4408  0.1216
 2576SOL    HW210349   3.004   0.417   4.201 -0.2800  1.7394 -1.0718
 2576SOL    HW310350   3.155   0.420   4.188  0.0446 -1.0726  1.5292
 2576SOL    MW410351   3.078   0.387   4.165 -0.1912  0.4124  0.1497
 2577SOL     OW10352   1.249   0.893   4.500  0.5869  0.5980 -0.0017
 2577SOL    HW210353   1.195   0.951   4.554 -1.6054 -0.2557 -1.2415
 2577SOL    HW310354   1.220   0.805   4.522  2.4329  0.0487  0.3094
 2577SOL    MW410355   1.238   0.889   4.510  0.5412  0.4129 -0.1240
 2578SOL     OW10356   0.865   1.506   4.531 -0.2830  0.6678  0.3179
 2578SOL    HW210357   0.792   1.445   4.538  0.2193  0.0394  0.1817
 2578SOL    HW310358   0.862   1.538   4.441 -2.1612  2.9156  1.1322
 2578SOL    MW410359   0.855   1.502   4.520 -0.4645  0.8816  0.4072
 2579SOL     OW10360   1.785   2.443   4.283 -0.0527 -0.3835 -0.5900
 2579SOL    HW210361   1.723   2.419   4.214 -1.4814 -2.4810  1.3451
 2579SOL    HW310362   1.855   2.379   4.275  1.6016  1.5789 -2.3443
 2579SOL    MW410363   1.786   2.431   4.273 -0.0230 -0.4013 -0.5660
 2580SOL     OW10364   2.810   0.727   4.186  0.1969  0.2849  0.2616
 2580SOL    HW210365   2.748   0.801   4.189  1.5032  1.3815  1.1987
 2580SOL    HW310366   2.837   0.721   4.095 -0.8656  0.1595 -0.0480
 2580SOL    MW410367   2.805   0.736   4.175  0.2289  0.4129  0.3438
 2581SOL     OW10368   4.265   4.666   4.651  0.5875  0.1136 -0.2024
 2581SOL    HW210369   4.259   4.730   4.721  3.3661  0.1172  0.1041
 2581SOL    HW310370   4.179   4.667   4.609 -0.3033  1.9282  1.6130
 2581SOL    MW410371   4.253   4.674   4.655  0.8368  0.3533  0.0772
 2582SOL     OW10372   4.438   3.469   4.634 -0.5256  0.0513 -0.0309
 2582SOL    HW210373   4.435   3.380   4.600 -0.3147  0.5108 -1.2652
 2582SOL    HW310374   4.530   3.494   4.629 -0.7307  0.7006 -0.6319
 2582SOL    MW410375   4.450   3.461   4.629 -0.5255  0.1979 -0.2732
 2583SOL     OW10376   2.701   0.124   4.340  0.0658  0.0116  0.0609
 2583SOL    HW210377   2.613   0.088   4.335 -1.1010  2.6968  0.6326
 2583SOL    HW310378   2.719   0.130   4.434 -0.1347  1.7844 -0.0076
 2583SOL    MW410379   2.692   0.120   4.351 -0.1147  0.5998  0.1273
 2584SOL     OW10380   4.468   1.675   4.233  0.7546 -0.4911  0.1536
 2584SOL    HW210381   4.548   1.643   4.190  0.6721  0.6821 -0.9045
 2584SOL    HW310382   4.397   1.634   4.183  0.6662  0.4093 -0.4712
 2584SOL    MW410383   4.469   1.665   4.221  0.7315 -0.2173 -0.0687
 2585SOL     OW10384   1.019   3.104   4.487  0.2682 -0.0144  0.3275
 2585SOL    HW210385   1.057   3.192   4.490  0.0829  0.0472  0.8161
 2585SOL    HW310386   0.956   3.102   4.559  0.3132 -0.5691  0.3546
 2585SOL    MW410387   1.015   3.116   4.497  0.2497 -0.0796  0.3953
 2586SOL     OW10388   4.153   1.403   4.848  0.0208 -0.1417 -0.0654
 2586SOL    HW210389   4.169   1.317   4.808  1.6728  0.4944 -0.8180
 2586SOL    HW310390   4.143   1.385   4.941  0.1687 -1.1616 -0.2398
 2586SOL    MW410391   4.154   1.389   4.855  0.2580 -0.1924 -0.1879
 2587SOL     OW10392   3.992   1.618   4.191 -0.1758 -0.3131  0.4205
 2587SOL    HW210393   4.081   1.593   4.164 -0.5988  0.8124 -2.2012
 2587SOL    HW310394   4.006   1.690   4.252  0.7376 -0.4289  0.3606
 2587SOL    MW410395   4.006   1.624   4.195 -0.1111 -0.1799  0.0668
 2588SOL     OW10396   0.241   0.462   4.291  0.5179  0.3575 -0.0147
 2588SOL    HW210397   0.238   0.478   4.386 -0.0376  0.1544  0.0040
 2588SOL    HW310398   0.149   0.455   4.266  0.6986 -0.4534 -0.4289
 2588SOL    MW410399   0.229   0.463   4.301  0.4685  0.2237 -0.0668
 2589SOL     OW10400   0.029   3.061   4.742  0.6058 -0.4074  0.4004
 2589SOL    HW210401  -0.043   3.000   4.754 -1.4321  1.5581 -1.3501
 2589SOL    HW310402   0.025   3.119   4.817  0.7742 -0.6844  0.6247
 2589SOL    MW410403   0.019   3.061   4.753  0.3592 -0.1845  0.1988
 2590SOL     OW10404   4.084   1.218   4.494  0.3847  0.1920 -0.1997
 2590SOL    HW210405   4.088   1.313   4.491 -1.8043  0.3900  1.8285
 2590SOL    HW310406   4.137   1.194   4.570 -1.4679  0.0302  1.0795
 2590SOL    MW410407   4.091   1.227   4.504 -0.1483  0.1968  0.2365
 2591SOL     OW10408   3.636   3.489   4.204  0.1574 -0.0235  0.2529
 2591SOL    HW210409   3.618   3.396   4.219  0.1252  0.1183  1.0908
 2591SOL    HW310410   3.708   3.509   4.264 -0.6518  0.7965  0.9499
 2591SOL    MW410411   3.643   3.479   4.214  0.0465  0.1035  0.4554
 2592SOL     OW10412   3.148   3.504   4.165 -0.3552  0.0985 -0.2757
 2592SOL    HW210413   3.226   3.538   4.207  0.1555 -1.1384 -0.2008
 2592SOL    HW310414   3.170   3.501   4.072 -0.5689  0.4171 -0.3378
 2592SOL    MW410415   3.161   3.508   4.158 -0.3161 -0.0222 -0.2747
 2593SOL     OW10416   2.900   3.861   3.873  0.0286  0.1589  0.4238
 2593SOL    HW210417   2.926   3.774   3.843  0.1497  0.2647  0.2224
 2593SOL    HW310418   2.915   3.860   3.967  2.2588  0.7488  0.0961
 2593SOL    MW410419   2.905   3.849   3.881  0.3390  0.2508  0.3541
 2594SOL     OW10420   2.010   4.343   4.229  0.5344  0.2766  0.0279
 2594SOL    HW210421   2.047   4.337   4.317  1.6761 -0.3896 -0.4651
 2594SOL    HW310422   2.007   4.436   4.210 -0.5996  0.4699  1.1265
 2594SOL    MW410423   2.015   4.354   4.238  0.5355  0.2146  0.1082
 2595SOL     OW10424   2.339   1.291   4.473  0.0640 -0.1836  0.6036
 2595SOL    HW210425   2.373   1.297   4.383 -2.0980 -0.1365 -0.2555
 2595SOL    HW310426   2.392   1.224   4.514  1.1048 -0.1986 -0.7093
 2595SOL    MW410427   2.351   1.283   4.466 -0.0842 -0.1792  0.3171
 2596SOL     OW10428   4.211   0.860   4.677  0.0865  0.2211  0.2564
 2596SOL    HW210429   4.124   0.859   4.639 -0.7009 -1.2658  2.0016
 2596SOL    HW310430   4.232   0.768   4.693  2.0896  0.5334 -0.3577
 2596SOL    MW410431   4.202   0.848   4.674  0.2465  0.0662  0.4053
 2597SOL     OW10432   3.841   2.571   4.569  0.3045 -0.4959  0.2962
 2597SOL    HW210433   3.900   2.586   4.495 -0.8584  0.1147 -0.5063
 2597SOL    HW310434   3.827   2.658   4.606  0.5390 -0.7467  0.9889
 2597SOL    MW410435   3.847   2.585   4.564  0.1819 -0.4485  0.2818
 2598SOL     OW10436   3.801   0.466   4.250  0.2672  0.4569 -0.2746
 2598SOL    HW210437   3.816   0.466   4.345  1.5793 -0.8261 -0.4833
 2598SOL    HW310438   3.779   0.557   4.230  1.8277  1.1311  0.9800
 2598SOL    MW410439   3.800   0.478   4.260  0.6461  0.3766 -0.1373
 2599SOL     OW10440   0.663   3.079   4.156  0.0256  0.2401  0.2555
 2599SOL    HW210441   0.589   3.126   4.192  0.3258  0.5016  0.5310
 2599SOL    HW310442   0.737   3.101   4.213  0.8159  1.7653 -1.3006
 2599SOL    MW410443   0.663   3.088   4.168  0.1695  0.4756  0.0863
 2600SOL     OW10444   2.958   2.288   4.181 -0.4092 -0.3690  0.0818
 2600SOL    HW210445   3.024   2.344   4.223  0.3224 -1.3167  0.2283
 2600SOL    HW310446   2.874   2.325   4.208  0.0610 -0.0576  1.1547
 2600SOL    MW410447   2.956   2.300   4.190 -0.2506 -0.4532  0.2432
 2601SOL     OW10448   3.535   0.415   4.174 -0.4614  0.5274  0.2084
 2601SOL    HW210449   3.624   0.438   4.202 -0.2816  0.0962  0.0152
 2601SOL    HW310450   3.542   0.405   4.079 -0.2180 -1.5766  0.4169
 2601SOL    MW410451   3.548   0.416   4.165 -0.4053  0.1929  0.2103
 2602SOL     OW10452   4.427   3.208   4.527  0.2781 -0.1517  0.1066
 2602SOL    HW210453   4.334   3.207   4.548  0.1242 -0.1309 -0.5628
 2602SOL    HW310454   4.467   3.154   4.595 -0.0319  0.9979  1.2145
 2602SOL    MW410455   4.420   3.200   4.538  0.2165  0.0029  0.1645
 2603SOL     OW10456   2.661   0.895   4.551 -0.4431 -0.2725 -0.1447
 2603SOL    HW210457   2.713   0.927   4.625 -1.0613 -0.7280  0.4886
 2603SOL    HW310458   2.577   0.940   4.559 -0.6582 -0.6398 -0.3212
 2603SOL    MW410459   2.657   0.905   4.562 -0.5531 -0.3811 -0.0844
 2604SOL     OW10460   0.843   0.885   4.275 -0.1499 -0.1049  0.1770
 2604SOL    HW210461   0.765   0.831   4.268 -0.4616  0.4337 -0.4878
 2604SOL    HW310462   0.850   0.904   4.369 -1.2367  0.4614  0.1528
 2604SOL    MW410463   0.834   0.880   4.287 -0.3344  0.0409  0.0858
 2605SOL     OW10464   4.065   1.484   4.436 -0.2217  0.1133 -0.2451
 2605SOL    HW210465   4.040   1.515   4.350 -0.4498  1.2895  0.2445
 2605SOL    HW310466   4.002   1.524   4.496 -0.8760 -1.7294  0.3348
 2605SOL    MW410467   4.053   1.493   4.433 -0.3381  0.0252 -0.1040
 2606SOL     OW10468   2.007   3.094   4.119  0.0571 -0.1248  0.1762
 2606SOL    HW210469   1.934   3.150   4.147  0.2921  0.2987 -0.0480
 2606SOL    HW310470   1.995   3.084   4.025  0.4319  0.1567  0.0989
 2606SOL    MW410471   1.996   3.100   4.110  0.1373 -0.0317  0.1364
 2607SOL     OW10472   0.877   0.928   4.547  0.6935 -0.0661 -0.2551
 2607SOL    HW210473   0.887   0.849   4.602 -0.5631 -0.1413 -0.1097
 2607SOL    HW310474   0.941   0.989   4.582  1.0666 -0.7130  0.2162
 2607SOL    MW410475   0.887   0.925   4.559  0.5770 -0.1613 -0.1731
 2608SOL     OW10476   4.085   2.447   3.749 -0.0094 -0.2716 -0.2403
 2608SOL    HW210477   4.073   2.526   3.801 -1.1301 -0.3175 -0.4143
 2608SOL    HW310478   4.014   2.388   3.778  1.1704 -1.4390  0.3226
 2608SOL    MW410479   4.074   2.449   3.760 -0.0019 -0.4320 -0.1891
 2609SOL     OW10480   1.014   3.525   4.762 -0.0496 -0.0946 -0.4452
 2609SOL    HW210481   1.104   3.493   4.765 -0.2864 -0.8066 -0.9453
 2609SOL    HW310482   1.014   3.589   4.690 -0.2173 -0.9390 -1.2002
 2609SOL    MW410483   1.026   3.529   4.753 -0.1030 -0.3002 -0.6104
 2610SOL     OW10484   0.504   2.477   4.544 -0.0347 -0.0152  0.2504
 2610SOL    HW210485   0.496   2.550   4.606  0.7405 -0.2774  0.6741
 2610SOL    HW310486   0.441   2.413   4.575 -0.1289  0.1333  0.3701
 2610SOL    MW410487   0.495   2.478   4.556  0.0552 -0.0300  0.3223
 2611SOL     OW10488   3.501   3.158   4.511 -0.3019 -0.1265  0.1163
 2611SOL    HW210489   3.552   3.173   4.432  0.3080 -0.1433  0.4989
 2611SOL    HW310490   3.411   3.178   4.486 -0.0681  0.1789 -0.4914
 2611SOL    MW410491   3.496   3.163   4.497 -0.1907 -0.0882  0.0863
 2612SOL     OW10492   1.536   0.155   4.601 -0.2955 -0.4543  0.0731
 2612SOL    HW210493   1.481   0.141   4.677  1.4433 -3.0272  0.9197
 2612SOL    HW310494   1.523   0.248   4.579 -1.2190  0.2146  3.1621
 2612SOL    MW410495   1.527   0.166   4.608 -0.1880 -0.7055  0.5927
 2613SOL     OW10496   0.928   0.155   4.569 -0.5474  0.0545 -0.4285
 2613SOL    HW210497   0.915   0.142   4.475  1.2872 -1.5592 -0.4951
 2613SOL    HW310498   0.893   0.075   4.609  0.5895 -0.1894  0.0874
 2613SOL    MW410499   0.922   0.142   4.562 -0.1553 -0.1906 -0.3691
 2614SOL     OW10500   3.217   3.197   4.492 -0.2281 -0.2530 -0.6163
 2614SOL    HW210501   3.208   3.209   4.398 -0.1260 -0.4082 -0.6462
 2614SOL    HW310502   3.197   3.104   4.507 -0.0052 -0.2841 -0.5158
 2614SOL    MW410503   3.213   3.186   4.482 -0.1850 -0.2778 -0.6070
 2615SOL     OW10504   1.192   2.865   4.489  0.2009 -0.3524 -0.3680
 2615SOL    HW210505   1.145   2.948   4.501  2.6356  0.9022  0.9765
 2615SOL    HW310506   1.185   2.847   4.395 -0.2995  1.4387 -0.7004
 2615SOL    MW410507   1.185   2.874   4.478  0.4560  0.0494 -0.2346
 2616SOL     OW10508   2.380   1.562   4.525  0.1872  0.5491  0.3302
 2616SOL    HW210509   2.314   1.596   4.465  0.0849 -1.3210 -0.6518
 2616SOL    HW310510   2.368   1.467   4.523  2.1972  0.2565  0.9781
 2616SOL    MW410511   2.369   1.554   4.517  0.4387  0.2637  0.2861
 2617SOL     OW10512   2.962   0.031   4.662 -0.0936  0.0819 -0.1356
 2617SOL    HW210513   3.002   0.034   4.749  0.2951 -0.0280 -0.3093
 2617SOL    HW310514   2.938  -0.061   4.650  0.7083 -0.0856 -0.5250
 2617SOL    MW410515   2.964   0.019   4.672  0.0637  0.0453 -0.2098
 2618SOL     OW10516   2.046   4.289   4.511  0.0589  0.2178 -0.1167
 2618SOL    HW210517   1.998   4.215   4.549 -0.2927  0.2469 -0.5005
 2618SOL    HW310518   2.125   4.296   4.564  0.0104 -0.3269  0.0317
 2618SOL    MW410519   2.050   4.280   4.523  0.0062  0.1497 -0.1478
 2619SOL     OW10520   2.260   3.955   4.551  0.0906 -0.5630  0.7997
 2619SOL    HW210521   2.185   3.920   4.599 -0.6267 -0.8071 -0.4603
 2619SOL    HW310522   2.335   3.908   4.587 -0.2540  0.2053  2.5860
 2619SOL    MW410523   2.260   3.944   4.562 -0.0496 -0.4938  0.8693
 2620SOL     OW10524   1.575   2.842   4.242 -0.1694 -0.3347 -0.0770
 2620SOL    HW210525   1.499   2.785   4.230 -0.7344  0.1649  1.0732
 2620SOL    HW310526   1.570   2.870   4.333 -0.6916  2.7214 -1.0210
 2620SOL    MW410527   1.565   2.838   4.252 -0.3128  0.1345 -0.0501
 2621SOL     OW10528   1.777   0.903   4.292  0.1831 -0.0995  0.3200
 2621SOL    HW210529   1.788   0.878   4.383  0.5043  0.8248  0.5348
 2621SOL    HW310530   1.848   0.858   4.246 -0.4049 -1.1364  0.4088
 2621SOL    MW410531   1.788   0.894   4.298  0.1478 -0.1143  0.3600
 2622SOL     OW10532   3.781   0.026   4.180 -0.0907  0.4816 -0.1919
 2622SOL    HW210533   3.782  -0.058   4.225  0.9008  0.8569  0.5070
 2622SOL    HW310534   3.764   0.004   4.088 -1.0412 -0.3698  0.1870
 2622SOL    MW410535   3.779   0.012   4.174 -0.0851  0.4187 -0.0496
 2623SOL     OW10536   0.021   1.938   4.156  0.5398  0.4170 -0.1943
 2623SOL    HW210537  -0.034   1.993   4.212 -3.8605 -1.0819 -2.7757
 2623SOL    HW310538   0.015   1.851   4.194  1.7483  0.3580 -0.1149
 2623SOL    MW410539   0.013   1.934   4.168  0.1187  0.2115 -0.5245
 2624SOL     OW10540   4.073   0.414   4.729 -0.1834 -0.1670  0.3940
 2624SOL    HW210541   4.128   0.349   4.773 -1.0794 -0.1561  1.5507
 2624SOL    HW310542   4.075   0.490   4.787  0.8975  0.8721 -0.9734
 2624SOL    MW410543   4.081   0.416   4.743 -0.1588 -0.0285  0.3662
 2625SOL     OW10544   2.439   1.045   4.569 -0.0169 -0.1051 -0.0699
 2625SOL    HW210545   2.440   1.018   4.661 -1.1144  0.3950  0.1023
 2625SOL    HW310546   2.368   0.995   4.530  1.1071 -1.0794 -0.8977
 2625SOL    MW410547   2.430   1.035   4.576 -0.0134 -0.1676 -0.1564
 2626SOL     OW10548   0.301   2.280   4.574  0.5321  0.1060  0.5507
 2626SOL    HW210549   0.276   2.272   4.482  0.4242 -0.3158  0.6143
 2626SOL    HW310550   0.267   2.200   4.615  2.3235 -0.6906  0.5545
 2626SOL    MW410551   0.293   2.268   4.567  0.7542 -0.0544  0.5593
 2627SOL     OW10552   0.473   0.626   4.652 -0.3904  0.1927 -0.3373
 2627SOL    HW210553   0.495   0.571   4.728  0.2199  0.5119 -0.2822
 2627SOL    HW310554   0.383   0.602   4.631 -0.7765  0.5581  0.8802
 2627SOL    MW410555   0.464   0.615   4.660 -0.3608  0.2830 -0.1693
 2628SOL     OW10556   1.383   3.239   4.170  0.2549 -0.7851  0.0755
 2628SOL    HW210557   1.356   3.328   4.148 -0.3841 -1.4183 -1.7332
 2628SOL    HW310558   1.413   3.245   4.261 -1.1176  0.9845  0.4259
 2628SOL    MW410559   1.383   3.251   4.179 -0.0105 -0.6351 -0.1163
 2629SOL     OW10560   1.649   2.638   4.639  0.0790  0.0106  0.0176
 2629SOL    HW210561   1.647   2.545   4.616  0.2380 -0.0248  0.1476
 2629SOL    HW310562   1.681   2.640   4.729 -0.4483  0.1548  0.2034
 2629SOL    MW410563   1.653   2.626   4.648  0.0303  0.0250  0.0601
 2630SOL     OW10564   0.190   3.590   4.578  0.3105  0.0897  0.0965
 2630SOL    HW210565   0.207   3.597   4.484  1.8463 -0.5043  0.3167
 2630SOL    HW310566   0.260   3.535   4.611 -1.4650 -1.5257  1.2540
 2630SOL    MW410567   0.202   3.584   4.570  0.2789 -0.2019  0.2785
 2631SOL     OW10568   4.389   2.738   4.518 -0.0825  0.0262  0.6685
 2631SOL    HW210569   4.484   2.747   4.508  0.0948 -0.6221  1.7276
 2631SOL    HW310570   4.353   2.816   4.474  0.9210  0.1608  0.0717
 2631SOL    MW410571   4.397   2.750   4.511  0.0734 -0.0415  0.7296
 2632SOL     OW10572   2.933   2.821   4.308 -0.0268 -0.3296  0.0308
 2632SOL    HW210573   2.947   2.897   4.251 -1.2443  0.7211  1.0662
 2632SOL    HW310574   2.854   2.779   4.272  0.1542 -0.6047 -0.0389
 2632SOL    MW410575   2.924   2.826   4.296 -0.1636 -0.2270  0.1583
 2633SOL     OW10576   3.994   0.005   4.553 -0.2258  0.0287 -0.5813
 2633SOL    HW210577   3.949  -0.079   4.545  0.9243 -0.6741  0.2315
 2633SOL    HW310578   3.940   0.056   4.612 -0.0186 -0.7729  0.3123
 2633SOL    MW410579   3.981   0.001   4.559 -0.0467 -0.1698 -0.3562
 2634SOL     OW10580   2.868   4.610   4.190  0.3544  0.0237 -0.0876
 2634SOL    HW210581   2.803   4.660   4.240 -0.8616 -0.7308 -0.8753
 2634SOL    HW310582   2.872   4.525   4.234  0.7646  0.0496 -0.0754
 2634SOL    MW410583   2.860   4.605   4.203  0.2480 -0.0720 -0.1903
 2635SOL     OW10584   2.558   3.175   4.477  0.2308 -0.1717  0.5393
 2635SOL    HW210585   2.597   3.237   4.539  2.1213 -0.3308 -0.4326
 2635SOL    HW310586   2.465   3.176   4.497  0.6048  0.9301  2.3557
 2635SOL    MW410587   2.551   3.184   4.487  0.5295 -0.0472  0.6504
 2636SOL     OW10588   1.792   3.197   4.458 -0.6525  0.3631 -0.2683
 2636SOL    HW210589   1.804   3.277   4.508 -0.4484 -0.5467  1.1498
 2636SOL    HW310590   1.872   3.146   4.473 -1.0666 -0.3977 -0.5986
 2636SOL    MW410591   1.804   3.200   4.466 -0.6802  0.1423 -0.1245
 2637SOL     OW10592   3.400   3.080   4.155  0.0402  0.5938  0.0178
 2637SOL    HW210593   3.331   3.137   4.191 -0.8969 -1.7520  2.1152
 2637SOL    HW310594   3.374   3.065   4.064 -1.2159  1.2609  0.2551
 2637SOL    MW410595   3.387   3.085   4.148 -0.2494  0.3722  0.3257
 2638SOL     OW10596   0.330   4.258   4.798 -0.0218  0.0428 -0.3291
 2638SOL    HW210597   0.356   4.195   4.731  1.5221  0.5139 -0.1975
 2638SOL    HW310598   0.345   4.343   4.758  2.0264  0.3414  0.9936
 2638SOL    MW410599   0.335   4.261   4.784  0.4522  0.1450 -0.1373
 2639SOL     OW10600   0.228   2.815   4.217  0.4383 -0.2100 -0.2382
 2639SOL    HW210601   0.317   2.788   4.195  0.4453 -0.3536 -0.0262
 2639SOL    HW310602   0.213   2.782   4.305 -0.0694 -0.7817 -0.5309
 2639SOL    MW410603   0.237   2.807   4.226  0.3723 -0.3045 -0.2484
 2640SOL     OW10604   3.104   0.100   4.262  0.6936  0.2772 -0.0029
 2640SOL    HW210605   3.081   0.185   4.224  1.1468 -0.0247 -0.9940
 2640SOL    HW310606   3.023   0.049   4.256  1.2104 -0.3432 -2.2364
 2640SOL    MW410607   3.090   0.105   4.256  0.8216  0.1555 -0.4282
 2641SOL     OW10608   2.837   0.482   4.297 -0.1625 -0.0908 -0.1531
 2641SOL    HW210609   2.768   0.433   4.253  2.6873 -1.2972 -3.4697
 2641SOL    HW310610   2.822   0.573   4.272 -1.3734 -0.1334  0.3639
 2641SOL    MW410611   2.826   0.487   4.288  0.0539 -0.2556 -0.5226
 2642SOL     OW10612   1.210   0.186   4.578  0.2610  0.2601  0.1368
 2642SOL    HW210613   1.243   0.188   4.489  2.0836  0.7688  0.7997
 2642SOL    HW310614   1.116   0.200   4.570  0.5208  1.0090 -1.6419
 2642SOL    MW410615   1.202   0.188   4.565  0.5357  0.4261 -0.0100
 2643SOL     OW10616   1.508   0.942   4.637 -0.2178 -0.0768 -0.0025
 2643SOL    HW210617   1.440   0.924   4.572 -0.8484  0.7315  0.4183
 2643SOL    HW310618   1.473   0.905   4.718 -0.8946  1.7529  0.5634
 2643SOL    MW410619   1.494   0.935   4.639 -0.3903  0.2713  0.1278
 2644SOL     OW10620   0.627   1.264   4.266  0.0991 -0.2897  0.1129
 2644SOL    HW210621   0.542   1.226   4.245 -0.3047  0.4026  0.4656
 2644SOL    HW310622   0.623   1.281   4.361  1.0997 -1.4177  0.3577
 2644SOL    MW410623   0.615   1.261   4.276  0.1778 -0.3471  0.1917
 2645SOL     OW10624   0.400   1.384   4.631  0.2294 -0.1080 -0.0417
 2645SOL    HW210625   0.321   1.368   4.580 -1.0010  0.8374  1.5176
 2645SOL    HW310626   0.419   1.477   4.617 -0.6554  0.3975  1.8952
 2645SOL    MW410627   0.392   1.395   4.623 -0.0497  0.0836  0.4196
 2646SOL     OW10628   3.619   4.299   4.643  0.4924  0.2020 -0.7655
 2646SOL    HW210629   3.704   4.342   4.633  0.8606 -0.2702  0.2987
 2646SOL    HW310630   3.635   4.209   4.614  0.4055  0.0581 -0.3667
 2646SOL    MW410631   3.633   4.292   4.638  0.5295  0.1206 -0.5722
 2647SOL     OW10632   0.314   0.260   4.751 -0.6323  0.3673  0.0513
 2647SOL    HW210633   0.355   0.195   4.694 -0.7231 -0.2837  0.7122
 2647SOL    HW310634   0.372   0.265   4.827  0.3483  2.4226 -0.8088
 2647SOL    MW410635   0.327   0.252   4.754 -0.5149  0.5526  0.0248
 2648SOL     OW10636   1.592   1.515   4.133 -0.5206  0.3210  0.0200
 2648SOL    HW210637   1.592   1.439   4.191 -0.7750 -1.3516 -2.0892
 2648SOL    HW310638   1.665   1.568   4.163  0.4288 -1.3770  0.7857
 2648SOL    MW410639   1.602   1.512   4.145 -0.4290 -0.1237 -0.1574
 2649SOL     OW10640   3.149   3.993   4.541  0.1713  0.0093  0.1367
 2649SOL    HW210641   3.236   3.975   4.576 -0.0140  0.9163  1.1012
 2649SOL    HW310642   3.163   4.003   4.447  1.4519  2.0400  0.5062
 2649SOL    MW410643   3.162   3.992   4.533  0.3157  0.3970  0.3128
 2650SOL     OW10644   0.834   4.539   4.579 -0.9078  0.0935 -0.1672
 2650SOL    HW210645   0.830   4.523   4.485 -0.1782  1.4158 -0.4430
 2650SOL    HW310646   0.769   4.480   4.616  0.2299 -1.9466 -1.2977
 2650SOL    MW410647   0.825   4.529   4.571 -0.6614 -0.0014 -0.3529
 2651SOL     OW10648   3.800   3.569   4.657  0.3172  0.1267 -0.5715
 2651SOL    HW210649   3.888   3.555   4.693 -0.2870 -1.9629  0.1116
 2651SOL    HW310650   3.791   3.665   4.654  1.6509  0.3682  1.7199
 2651SOL    MW410651   3.811   3.580   4.661  0.4134 -0.1171 -0.1788
 2652SOL     OW10652   4.177   4.383   4.295  0.1682 -0.1607  0.6518
 2652SOL    HW210653   4.265   4.349   4.279  0.3002 -0.0197  1.0687
 2652SOL    HW310654   4.184   4.477   4.274  0.7200  0.3268  2.9158
 2652SOL    MW410655   4.190   4.391   4.290  0.2589 -0.0782  1.0056
 2653SOL     OW10656   0.399   0.110   4.283  0.2590  0.3216  0.1595
 2653SOL    HW210657   0.477   0.057   4.268 -0.5440 -0.9804  0.5499
 2653SOL    HW310658   0.412   0.188   4.228  1.1261 -0.5996 -0.9624
 2653SOL    MW410659   0.411   0.114   4.274  0.2675  0.0283  0.0634
 2654SOL     OW10660   1.096   4.663   4.182 -0.0470  0.6093 -0.1577
 2654SOL    HW210661   1.092   4.571   4.208  0.2861  0.8857  0.8815
 2654SOL    HW310662   1.096   4.661   4.086 -0.7790 -0.4342 -0.1365
 2654SOL    MW410663   1.096   4.651   4.172 -0.0997  0.5083 -0.0176
 2655SOL     OW10664   1.535   0.791   4.195 -0.0356  0.1773  0.0037
 2655SOL    HW210665   1.607   0.846   4.224 -1.3361  1.1007  1.5170
 2655SOL    HW310666   1.546   0.785   4.100  2.2383 -0.0214  0.2553
 2655SOL    MW410667   1.546   0.797   4.186  0.0929  0.2730  0.2365
 2656SOL     OW10668   2.543   4.302   4.772  0.2493  0.4571  0.0149
 2656SOL    HW210669   2.504   4.384   4.805 -0.1092  0.3766 -0.2002
 2656SOL    HW310670   2.469   4.255   4.732  0.3933 -0.1141  0.4173
 2656SOL    MW410671   2.528   4.307   4.771  0.2210  0.3715  0.0396
 2657SOL     OW10672   0.025   0.643   4.697  0.3324 -0.6798  0.1603
 2657SOL    HW210673   0.025   0.734   4.667  1.6740  0.1902  2.7262
 2657SOL    HW310674  -0.063   0.611   4.674  0.5918  0.5200 -2.7908
 2657SOL    MW410675   0.013   0.651   4.690  0.5436 -0.4067  0.1092
 2658SOL     OW10676   0.892   0.683   4.662  0.1418  0.4869  0.1121
 2658SOL    HW210677   0.825   0.639   4.610  0.8312  0.1017 -0.4616
 2658SOL    HW310678   0.975   0.656   4.622  0.6894  0.1117  1.4774
 2658SOL    MW410679   0.894   0.674   4.650  0.3050  0.3865  0.2170
 2659SOL     OW10680   1.116   0.541   4.263 -0.1233 -0.2241 -0.1021
 2659SOL    HW210681   1.181   0.493   4.212  0.5274  0.6014 -0.0577
 2659SOL    HW310682   1.094   0.617   4.208 -1.4623 -0.7740 -0.3639
 2659SOL    MW410683   1.121   0.544   4.249 -0.2142 -0.1878 -0.1307
 2660SOL     OW10684   1.070   1.328   4.504  0.4098 -0.2112  0.0671
 2660SOL    HW210685   1.070   1.307   4.411  0.9199  1.8417 -0.4057
 2660SOL    HW310686   0.998   1.390   4.516  2.8702  2.7324  0.2450
 2660SOL    MW410687   1.061   1.333   4.493  0.8017  0.4480  0.0281
 2661SOL     OW10688   1.121   2.628   4.614 -0.2181  0.3490  0.1151
 2661SOL    HW210689   1.185   2.572   4.569 -0.8757  0.3996 -0.9028
 2661SOL    HW310690   1.145   2.717   4.587 -0.2689  0.4246  0.3196
 2661SOL    MW410691   1.133   2.632   4.605 -0.3114  0.3657  0.0076
 2662SOL     OW10692   3.625   3.216   4.249 -0.2650  0.2023 -0.1170
 2662SOL    HW210693   3.709   3.176   4.226 -0.1108  0.4484  0.0078
 2662SOL    HW310694   3.559   3.157   4.212 -0.0366  0.0257 -0.2468
 2662SOL    MW410695   3.628   3.203   4.241 -0.2146  0.2115 -0.1183
 2663SOL     OW10696   4.299   2.558   4.310 -0.2643  0.3816 -0.0481
 2663SOL    HW210697   4.293   2.623   4.380 -1.8065  0.3502 -0.1497
 2663SOL    HW310698   4.349   2.486   4.350  0.5125  1.1683  0.4061
 2663SOL    MW410699   4.305   2.557   4.325 -0.3653  0.4814 -0.0014
 2664SOL     OW10700   2.679   4.231   4.542  0.5252 -0.1367 -0.0522
 2664SOL    HW210701   2.621   4.291   4.494 -1.1060 -0.3271  1.6132
 2664SOL    HW310702   2.654   4.242   4.634  1.8995 -1.5619  0.5108
 2664SOL    MW410703   2.668   4.240   4.548  0.4916 -0.3500  0.2418
 2665SOL     OW10704   3.865   2.303   3.861  0.4529 -0.6550 -0.1173
 2665SOL    HW210705   3.844   2.216   3.825  0.5451 -0.2994 -1.0572
 2665SOL    HW310706   3.785   2.354   3.848  0.1308 -0.8286  1.1700
 2665SOL    MW410707   3.851   2.298   3.854  0.4225 -0.6309 -0.0713
 2666SOL     OW10708   3.938   0.883   4.589 -0.4643  0.0730 -0.2941
 2666SOL    HW210709   3.882   0.810   4.616 -1.1298  0.5359 -0.4287
 2666SOL    HW310710   3.878   0.956   4.575  0.3187  0.9573  0.9082
 2666SOL    MW410711   3.923   0.883   4.591 -0.4489  0.2508 -0.1531
 2667SOL     OW10712   2.893   3.584   4.243 -0.1192  0.6245 -0.0728
 2667SOL    HW210713   2.969   3.532   4.216 -2.0194 -2.0707 -0.4303
 2667SOL    HW310714   2.886   3.569   4.337 -0.9614 -0.2087 -0.2592
 2667SOL    MW410715   2.902   3.575   4.252 -0.4809  0.1588 -0.1445
 2668SOL     OW10716   2.213   0.917   4.237 -0.5329 -0.4133 -0.2060
 2668SOL    HW210717   2.210   1.008   4.209 -0.1921 -0.0035  1.0712
 2668SOL    HW310718   2.210   0.921   4.332  1.4668 -1.6540 -0.0722
 2668SOL    MW410719   2.212   0.929   4.245 -0.2241 -0.5229 -0.0200
 2669SOL     OW10720   1.630   4.069   4.650 -0.2109  0.5624 -0.0193
 2669SOL    HW210721   1.598   4.131   4.585 -1.0494  0.6143  0.4218
 2669SOL    HW310722   1.572   4.082   4.725  0.4147  0.1431  0.5429
 2669SOL    MW410723   1.618   4.079   4.652 -0.2390  0.5140  0.1130
 2670SOL     OW10724   0.132   2.500   4.599  0.0873 -0.2181  0.8430
 2670SOL    HW210725   0.198   2.431   4.589  0.5426  0.3210  0.1345
 2670SOL    HW310726   0.055   2.467   4.553  0.4563 -0.0489  0.1081
 2670SOL    MW410727   0.131   2.487   4.592  0.1961 -0.1247  0.6528
 2671SOL     OW10728   1.875   2.654   4.499  0.0319 -0.0493 -0.7926
 2671SOL    HW210729   1.789   2.666   4.538  0.9000  1.3732  0.7757
 2671SOL    HW310730   1.858   2.612   4.415 -2.3054  1.8029 -1.2854
 2671SOL    MW410731   1.862   2.650   4.493 -0.1620  0.3827 -0.6504
 2672SOL     OW10732   3.086   0.753   4.550  0.2597  0.0568  0.5447
 2672SOL    HW210733   3.116   0.828   4.602 -0.3138  0.2028  0.6726
 2672SOL    HW310734   3.161   0.693   4.549  1.1246  1.1339 -0.5378
 2672SOL    MW410735   3.100   0.755   4.557  0.2983  0.2181  0.4191
 2673SOL     OW10736   0.657   4.330   4.600 -0.3822  0.2073 -0.0438
 2673SOL    HW210737   0.682   4.239   4.612 -1.6466 -0.0565  0.7935
 2673SOL    HW310738   0.661   4.345   4.506  2.1672  0.0083 -0.0014
 2673SOL    MW410739   0.660   4.320   4.590 -0.2127  0.1459  0.0725
 2674SOL     OW10740   4.137   3.267   4.576  0.0401 -0.0878 -0.3705
 2674SOL    HW210741   4.120   3.256   4.483 -1.1562 -0.2612 -0.1344
 2674SOL    HW310742   4.108   3.185   4.616  2.6189 -0.9066 -0.1051
 2674SOL    MW410743   4.131   3.255   4.569  0.2227 -0.2186 -0.3037
 2675SOL     OW10744   2.191   1.184   3.847 -0.0878  0.4718  0.1673
 2675SOL    HW210745   2.268   1.236   3.822 -0.4175  0.6235 -0.5357
 2675SOL    HW310746   2.119   1.221   3.796 -0.4205 -0.3622  0.0256
 2675SOL    MW410747   2.192   1.196   3.837 -0.1752  0.3818  0.0560
 2676SOL     OW10748   2.938   3.839   4.149 -0.0656  0.3605  0.0734
 2676SOL    HW210749   2.869   3.895   4.185  0.0588 -0.0363  0.9439
 2676SOL    HW310750   2.914   3.751   4.176  1.3576  0.3393  1.3433
 2676SOL    MW410751   2.926   3.835   4.158  0.1385  0.3052  0.3557
 2677SOL     OW10752   3.829   1.107   4.271  0.0513  0.4200  0.1484
 2677SOL    HW210753   3.830   1.114   4.367  2.3722 -0.3291  0.2073
 2677SOL    HW310754   3.736   1.100   4.249 -0.4663 -0.4798  2.4308
 2677SOL    MW410755   3.817   1.107   4.281  0.2894  0.2025  0.4568
 2678SOL     OW10756   0.674   0.474   4.227  0.1881  0.2414 -0.5118
 2678SOL    HW210757   0.595   0.429   4.198  0.0321  0.5580 -0.5839
 2678SOL    HW310758   0.665   0.480   4.322  0.7600 -0.9102 -0.3820
 2678SOL    MW410759   0.663   0.469   4.235  0.2429  0.1313 -0.5045
 2679SOL     OW10760   2.970   2.022   4.147 -0.1608  0.3391  0.0717
 2679SOL    HW210761   2.965   2.113   4.176 -1.4902  0.3069 -0.0342
 2679SOL    HW310762   2.879   1.993   4.144  0.2755 -1.0480  0.2607
 2679SOL    MW410763   2.957   2.030   4.150 -0.2789  0.1519  0.0825
 2680SOL     OW10764   1.304   4.504   4.615 -0.0430 -0.3286 -0.4875
 2680SOL    HW210765   1.213   4.476   4.603 -0.2406  0.2673 -0.3694
 2680SOL    HW310766   1.299   4.583   4.669  0.4722  0.2643 -1.2877
 2680SOL    MW410767   1.291   4.511   4.620 -0.0010 -0.1717 -0.5774
 2681SOL     OW10768   4.028   2.758   4.180 -0.3072  0.7477 -0.7602
 2681SOL    HW210769   3.946   2.801   4.201 -1.1793 -0.7559 -1.0444
 2681SOL    HW310770   4.032   2.682   4.237  1.6640  1.6562  0.3914
 2681SOL    MW410771   4.018   2.754   4.190 -0.1621  0.6692 -0.6456
 2682SOL     OW10772   1.090   3.583   4.275 -0.3358 -0.1802  0.3774
 2682SOL    HW210773   1.169   3.551   4.230  1.2135  0.9778  2.2269
 2682SOL    HW310774   1.019   3.529   4.239  1.2171 -0.9360 -1.6478
 2682SOL    MW410775   1.091   3.571   4.264  0.0737 -0.1273  0.3543
 2683SOL     OW10776   2.475   2.312   4.155 -0.2982  0.2395  0.0874
 2683SOL    HW210777   2.476   2.305   4.059  0.6558  0.0444  0.1031
 2683SOL    HW310778   2.483   2.221   4.185 -1.7956  0.1895  0.3642
 2683SOL    MW410779   2.476   2.299   4.146 -0.3698  0.2074  0.1264
 2684SOL     OW10780   0.480   1.674   4.254 -0.0924 -0.6662 -0.5049
 2684SOL    HW210781   0.546   1.621   4.210  0.5733 -0.2095 -0.0696
 2684SOL    HW310782   0.498   1.763   4.224  0.0032 -0.4320  0.2408
 2684SOL    MW410783   0.491   1.679   4.244  0.0081 -0.5751 -0.3495
 2685SOL     OW10784   1.051   3.710   4.539 -0.2027  0.2895 -0.8039
 2685SOL    HW210785   1.136   3.708   4.582 -0.3366 -0.0912 -0.5667
 2685SOL    HW310786   1.068   3.675   4.451  0.0377  0.9257 -1.0144
 2685SOL    MW410787   1.064   3.705   4.533 -0.1886  0.3231 -0.8006
 2686SOL     OW10788   0.033   1.149   4.614 -0.1991 -0.2501  0.0043
 2686SOL    HW210789   0.050   1.220   4.553  0.5897 -0.3246  0.1292
 2686SOL    HW310790   0.111   1.146   4.670 -0.1339 -1.3356 -0.1320
 2686SOL    MW410791   0.045   1.158   4.614 -0.0868 -0.4030  0.0029
 2687SOL     OW10792   2.916   4.352   4.296  0.0224  0.3687  0.2874
 2687SOL    HW210793   2.927   4.355   4.391 -0.1450 -0.3661  0.3296
 2687SOL    HW310794   3.001   4.322   4.263  0.4811  1.8174  0.1149
 2687SOL    MW410795   2.929   4.349   4.304  0.0608  0.4625  0.2699
 2688SOL     OW10796   0.684   4.050   4.601  0.0669  0.3199  0.2027
 2688SOL    HW210797   0.727   3.969   4.628  1.0265  0.8028  0.1204
 2688SOL    HW310798   0.591   4.035   4.621  0.3627 -0.4424  1.0398
 2688SOL    MW410799   0.677   4.037   4.607  0.2325  0.2832  0.3023
 2689SOL     OW10800   1.559   0.420   4.531  0.0615  0.0502  0.2651
 2689SOL    HW210801   1.542   0.429   4.437  0.5584 -0.0638  0.1647
 2689SOL    HW310802   1.644   0.462   4.545 -0.1246  0.2850  0.7075
 2689SOL    MW410803   1.568   0.427   4.520  0.1024  0.0662  0.3099
 2690SOL     OW10804   4.342   2.009   4.610  0.2796  0.0283 -0.0257
 2690SOL    HW210805   4.306   2.081   4.662  1.1824 -0.2779  1.0344
 2690SOL    HW310806   4.281   1.936   4.626  0.2233  0.1069  0.1248
 2690SOL    MW410807   4.329   2.009   4.619  0.3910 -0.0019  0.1340
 2691SOL     OW10808   4.238   2.316   4.112 -0.1867 -0.1770  0.4327
 2691SOL    HW210809   4.219   2.408   4.093 -1.2063 -0.4780 -0.0527
 2691SOL    HW310810   4.167   2.288   4.170  0.7320 -0.3625  1.4853
 2691SOL    MW410811   4.226   2.324   4.117 -0.1998 -0.2410  0.5074
 2692SOL     OW10812   4.195   0.003   4.216  0.4742  0.2821 -0.1760
 2692SOL    HW210813   4.118   0.053   4.241  0.4066 -0.1425  0.4550
 2692SOL    HW310814   4.269   0.054   4.250  0.5751  1.5064 -2.1272
 2692SOL    MW410815   4.195   0.016   4.224  0.4787  0.3876 -0.3505
 2693SOL     OW10816   1.068   0.766   4.113  0.5307 -0.2879  0.1454
 2693SOL    HW210817   0.983   0.795   4.146  0.0713 -0.6314 -0.7222
 2693SOL    HW310818   1.131   0.826   4.153  0.0976 -1.2897  2.4058
 2693SOL    MW410819   1.065   0.778   4.122  0.4129 -0.4654  0.3290
 2694SOL     OW10820   4.479   0.413   4.201  0.1138 -0.0902  0.1101
 2694SOL    HW210821   4.458   0.384   4.112 -0.4134 -0.4593  0.3443
 2694SOL    HW310822   4.406   0.470   4.225 -0.1616 -0.6422  0.6006
 2694SOL    MW410823   4.466   0.416   4.192  0.0076 -0.2117  0.2060
 2695SOL     OW10824   1.376   4.418   4.148  0.0752  0.4644  0.0655
 2695SOL    HW210825   1.440   4.488   4.135  1.0774 -0.0301  2.2027
 2695SOL    HW310826   1.374   4.372   4.064  1.5254  1.2974 -0.4415
 2695SOL    MW410827   1.384   4.421   4.135  0.3986  0.5088  0.2799
 2696SOL     OW10828   1.808   3.983   4.277  0.0191  0.5216  0.3304
 2696SOL    HW210829   1.804   4.077   4.260  2.6529  0.6027  0.0076
 2696SOL    HW310830   1.818   3.977   4.372  0.0142  0.5541  0.3334
 2696SOL    MW410831   1.809   3.995   4.288  0.3660  0.5367  0.2880
 2697SOL     OW10832   3.854   4.433   4.594 -0.0385 -0.5187  0.2598
 2697SOL    HW210833   3.939   4.392   4.611 -0.0954 -0.4088  0.8033
 2697SOL    HW310834   3.838   4.416   4.501  0.4155 -0.8414  0.2384
 2697SOL    MW410835   3.863   4.425   4.584  0.0138 -0.5469  0.3290
 2698SOL     OW10836   3.366   1.674   4.168  0.2088 -0.0192  0.4680
 2698SOL    HW210837   3.447   1.698   4.212  0.7050 -0.1013 -0.3964
 2698SOL    HW310838   3.322   1.757   4.149  0.0344  0.0192  1.0356
 2698SOL    MW410839   3.371   1.688   4.171  0.2515 -0.0252  0.4292
 2699SOL     OW10840   1.568   3.109   4.584  0.0900  0.0192 -0.4420
 2699SOL    HW210841   1.656   3.127   4.549 -0.6735  0.8371 -1.9725
 2699SOL    HW310842   1.545   3.024   4.548 -0.6907  0.8553 -1.9612
 2699SOL    MW410843   1.577   3.100   4.575 -0.1137  0.2377 -0.8440
 2700SOL     OW10844   0.006   1.631   4.500  0.0831 -0.1130 -0.1039
 2700SOL    HW210845  -0.009   1.638   4.405  0.2329 -0.9611 -0.1905
 2700SOL    HW310846  -0.074   1.590   4.533  0.7584 -1.4527 -0.1032
 2700SOL    MW410847  -0.007   1.627   4.492  0.1919 -0.4017 -0.1149
 2701SOL     OW10848   0.665   4.657   4.237  0.0322  0.1633  0.1015
 2701SOL    HW210849   0.740   4.707   4.268  1.0845 -1.0529 -0.4328
 2701SOL    HW310850   0.679   4.647   4.143 -1.0160  0.2754 -0.0741
 2701SOL    MW410851   0.677   4.662   4.229  0.0328  0.0176  0.0081
 2702SOL     OW10852   2.434   0.736   4.135  0.3222  0.4307 -0.3654
 2702SOL    HW210853   2.356   0.776   4.173  0.0408  1.2172 -1.7436
 2702SOL    HW310854   2.425   0.751   4.040  1.5229 -0.5707 -0.6498
 2702SOL    MW410855   2.422   0.743   4.127  0.4439  0.4023 -0.5846
 2703SOL     OW10856   1.600   2.375   4.531  0.1473 -0.1418  0.3298
 2703SOL    HW210857   1.613   2.286   4.562  1.4151 -0.3680 -0.8339
 2703SOL    HW310858   1.639   2.377   4.444 -1.2539  1.1348 -0.2928
 2703SOL    MW410859   1.607   2.364   4.524  0.1296 -0.0031  0.0944
 2704SOL     OW10860   3.819   0.164   4.718  0.0022  0.1883  0.0438
 2704SOL    HW210861   3.742   0.164   4.662 -0.4727  0.8091  0.6967
 2704SOL    HW310862   3.787   0.188   4.804  1.0384  1.2115  0.1622
 2704SOL    MW410863   3.805   0.167   4.722  0.0763  0.4052  0.1454
 2705SOL     OW10864   1.053   4.385   4.540 -0.0935 -0.0004  0.1239
 2705SOL    HW210865   1.016   4.298   4.532 -1.6230  0.8141 -2.1722
 2705SOL    HW310866   0.981   4.438   4.575  0.1505  0.7919 -0.5672
 2705SOL    MW410867   1.039   4.381   4.544 -0.2631  0.2117 -0.2704
 2706SOL     OW10868   3.364   2.765   4.511  0.0368  0.1018  0.0800
 2706SOL    HW210869   3.332   2.675   4.521 -0.0385  0.0921 -0.2356
 2706SOL    HW310870   3.352   2.784   4.418  0.4327  0.2964  0.0674
 2706SOL    MW410871   3.358   2.755   4.500  0.0792  0.1264  0.0372
 2707SOL     OW10872   1.999   3.584   4.496  0.4098  0.8360 -0.0401
 2707SOL    HW210873   2.073   3.529   4.523 -1.6395 -1.8851  0.2392
 2707SOL    HW310874   1.997   3.577   4.401 -0.4877 -0.5242  0.0544
 2707SOL    MW410875   2.009   3.575   4.487  0.0210  0.2975  0.0091
 2708SOL     OW10876   1.987   2.274   3.911 -0.4183  0.2102  0.1047
 2708SOL    HW210877   1.999   2.193   3.863 -1.4586 -0.8662  1.6091
 2708SOL    HW310878   1.929   2.327   3.856  0.5261  0.0816 -1.0303
 2708SOL    MW410879   1.981   2.270   3.898 -0.4308  0.0515  0.1533
 2709SOL     OW10880   1.797   0.047   4.565  0.1144 -0.1295  0.0219
 2709SOL    HW210881   1.705   0.067   4.582 -0.1476 -0.8469 -0.5564
 2709SOL    HW310882   1.804  -0.048   4.573  1.0550  0.0260  1.2285
 2709SOL    MW410883   1.786   0.037   4.568  0.2040 -0.2037  0.1049
 2710SOL     OW10884   0.981   4.119   4.468  0.3232 -0.1507 -0.7013
 2710SOL    HW210885   1.027   4.050   4.517 -2.0952 -0.4046  1.3622
 2710SOL    HW310886   0.937   4.073   4.397  0.9047 -0.3363 -0.9409
 2710SOL    MW410887   0.981   4.104   4.465  0.0809 -0.2089 -0.4611
 2711SOL     OW10888   2.034   3.875   4.181 -0.0380  0.1927 -0.3845
 2711SOL    HW210889   1.956   3.925   4.205  0.2300  0.3960  0.0776
 2711SOL    HW310890   2.027   3.864   4.087 -0.9260 -0.2952 -0.2757
 2711SOL    MW410891   2.022   3.880   4.172 -0.1197  0.1552 -0.3090
 2712SOL     OW10892   1.483   2.857   4.499  0.0736  0.2111  0.1441
 2712SOL    HW210893   1.388   2.862   4.513  0.1020 -0.0658  0.4470
 2712SOL    HW310894   1.510   2.778   4.546  0.4150  0.1382 -0.1700
 2712SOL    MW410895   1.474   2.847   4.507  0.1224  0.1650  0.1426
 2713SOL     OW10896   1.349   0.088   4.797  1.0403 -0.2145  0.0026
 2713SOL    HW210897   1.298   0.142   4.736  0.9597 -0.2529  0.0362
 2713SOL    HW310898   1.313   0.109   4.883 -0.3669 -1.8317 -0.1779
 2713SOL    MW410899   1.338   0.098   4.800  0.8439 -0.4330 -0.0167
 2714SOL     OW10900   1.803   0.557   4.556  0.0843  0.0857  0.1508
 2714SOL    HW210901   1.859   0.546   4.479 -0.9672  0.9700 -0.7485
 2714SOL    HW310902   1.789   0.652   4.563  0.9929  0.1109  2.0343
 2714SOL    MW410903   1.808   0.568   4.547  0.0654  0.2057  0.2813
 2715SOL     OW10904   3.983   1.837   4.857  0.7070 -0.1031 -0.6772
 2715SOL    HW210905   3.910   1.873   4.807  0.0165 -0.0165  0.3703
 2715SOL    HW310906   4.000   1.903   4.924  0.2803 -1.1253  0.4526
 2715SOL    MW410907   3.975   1.851   4.859  0.5593 -0.2265 -0.3896
 2716SOL     OW10908   1.326   0.448   4.657  0.3827 -0.0624 -0.1243
 2716SOL    HW210909   1.418   0.451   4.632  0.2900 -1.4974 -0.6482
 2716SOL    HW310910   1.293   0.365   4.621 -0.6836 -0.3797  1.5386
 2716SOL    MW410911   1.334   0.438   4.649  0.2296 -0.2936  0.0257
 2717SOL     OW10912   2.924   4.418   4.577 -0.1505  0.0186 -0.0650
 2717SOL    HW210913   2.999   4.362   4.598 -0.1133  0.1274  0.0928
 2717SOL    HW310914   2.848   4.362   4.588 -0.1915  0.2903  1.1551
 2717SOL    MW410915   2.924   4.403   4.581 -0.1512  0.0687  0.1163
 2718SOL     OW10916   4.420   2.355   4.481  0.1091  0.1963  0.4797
 2718SOL    HW210917   4.368   2.326   4.557 -0.2644 -0.0576  0.1307
 2718SOL    HW310918   4.443   2.274   4.436  0.0970  0.3679  0.1677
 2718SOL    MW410919   4.416   2.340   4.485  0.0582  0.1857  0.3929
 2719SOL     OW10920   3.712   1.573   4.161 -0.1622  0.0513 -0.3212
 2719SOL    HW210921   3.805   1.575   4.184  0.2500 -1.0028 -1.7854
 2719SOL    HW310922   3.679   1.658   4.188  1.1710  0.3563  0.4372
 2719SOL    MW410923   3.720   1.584   4.168  0.0682 -0.0476 -0.4144
 2720SOL     OW10924   0.756   2.092   4.517 -0.9319  0.0925  0.1131
 2720SOL    HW210925   0.741   2.060   4.428 -2.2505  1.0507 -0.0282
 2720SOL    HW310926   0.850   2.084   4.530 -0.5437  1.1449 -1.8446
 2720SOL    MW410927   0.766   2.087   4.507 -1.0546  0.3579 -0.1640
 2721SOL     OW10928   2.660   3.395   4.612  0.3890 -0.3603 -0.1155
 2721SOL    HW210929   2.711   3.459   4.563  0.1661  0.6639  0.9582
 2721SOL    HW310930   2.717   3.368   4.684  0.3648 -1.1422 -0.3821
 2721SOL    MW410931   2.674   3.400   4.615  0.3564 -0.3283 -0.0095
 2722SOL     OW10932   1.548   1.238   4.549 -0.1836  0.4290 -0.3145
 2722SOL    HW210933   1.482   1.299   4.581  0.7803  0.3124  2.0036
 2722SOL    HW310934   1.566   1.180   4.623  0.5612 -1.2516 -1.7584
 2722SOL    MW410935   1.542   1.239   4.563  0.0418  0.1919 -0.1988
 2723SOL     OW10936   0.860   1.143   4.174 -0.1813  0.4456 -0.0941
 2723SOL    HW210937   0.777   1.176   4.207 -0.5014  0.9866 -1.3925
 2723SOL    HW310938   0.859   1.050   4.193 -0.0180  0.8552  2.0830
 2723SOL    MW410939   0.849   1.135   4.181 -0.2019  0.5710  0.0224
 2724SOL     OW10940   2.458   1.584   4.134  0.1265 -0.1740 -0.0661
 2724SOL    HW210941   2.536   1.620   4.176 -0.0210  0.6004 -0.4545
 2724SOL    HW310942   2.386   1.634   4.172 -0.1486 -0.6338  0.0119
 2724SOL    MW410943   2.459   1.595   4.144  0.0708 -0.1326 -0.1068
 2725SOL     OW10944   2.735   0.165   4.620  0.5446 -0.2118 -0.0336
 2725SOL    HW210945   2.753   0.258   4.604  1.7516 -0.4821 -0.3629
 2725SOL    HW310946   2.820   0.129   4.645 -0.0088 -1.1435  0.5293
 2725SOL    MW410947   2.749   0.172   4.621  0.6309 -0.3704 -0.0029
 2726SOL     OW10948   0.285   1.111   4.763  0.8736 -0.0378  0.0470
 2726SOL    HW210949   0.339   1.190   4.754 -0.3001  1.0502  2.2258
 2726SOL    HW310950   0.334   1.044   4.715  2.7345  1.5946 -0.4349
 2726SOL    MW410951   0.299   1.113   4.756  0.9643  0.3211  0.2704
 2727SOL     OW10952   0.774   3.368   4.676 -0.0924  0.1271  0.5104
 2727SOL    HW210953   0.787   3.273   4.683 -1.5071 -0.0587  0.8536
 2727SOL    HW310954   0.855   3.405   4.710  1.0493 -0.9634 -0.9846
 2727SOL    MW410955   0.786   3.360   4.682 -0.1284 -0.0410  0.3586
 2728SOL     OW10956   0.934   1.736   4.692 -0.1990 -0.0486  0.1661
 2728SOL    HW210957   0.901   1.711   4.778 -0.5505 -0.8255 -0.1973
 2728SOL    HW310958   0.918   1.660   4.637  0.1775  0.3888 -0.5494
 2728SOL    MW410959   0.928   1.723   4.696 -0.1957 -0.0933  0.0238
 2729SOL     OW10960   0.471   1.649   4.565  0.4539  0.2256 -0.0656
 2729SOL    HW210961   0.546   1.707   4.582  1.2576 -0.7192 -0.3422
 2729SOL    HW310962   0.466   1.645   4.470  0.1133  0.2108 -0.0446
 2729SOL    MW410963   0.480   1.656   4.555  0.5150  0.0989 -0.0997
 2730SOL     OW10964   3.992   1.819   4.369 -0.0936  0.0811  0.0544
 2730SOL    HW210965   3.902   1.806   4.399 -0.0414  0.2048  0.2661
 2730SOL    HW310966   4.045   1.813   4.449  0.1798 -0.9041 -0.1892
 2730SOL    MW410967   3.987   1.816   4.384 -0.0508 -0.0325  0.0501
 2731SOL     OW10968   4.394   2.107   4.338  0.0851  0.4784  0.0940
 2731SOL    HW210969   4.377   2.048   4.412  0.3598 -1.8010 -1.5893
 2731SOL    HW310970   4.311   2.152   4.323 -1.0268 -1.6841 -0.4427
 2731SOL    MW410971   4.381   2.105   4.346 -0.0257 -0.1078 -0.1988
 2732SOL     OW10972   1.983   2.274   4.187  0.3398 -0.2788 -0.0768
 2732SOL    HW210973   1.982   2.264   4.092  2.4444 -0.3210 -0.0972
 2732SOL    HW310974   2.056   2.332   4.205 -1.0321  1.0354  1.4199
 2732SOL    MW410975   1.992   2.281   4.177  0.4364 -0.1109  0.1178
 2733SOL     OW10976   2.258   2.672   4.177  0.0068  0.0508  0.2051
 2733SOL    HW210977   2.338   2.722   4.186 -0.8292  1.7379 -1.2751
 2733SOL    HW310978   2.189   2.731   4.208 -0.9413 -0.3047 -1.1739
 2733SOL    MW410979   2.259   2.686   4.182 -0.2286  0.2265 -0.1721
 2734SOL     OW10980   0.665   1.840   4.627 -0.2338 -0.0941  0.3424
 2734SOL    HW210981   0.685   1.928   4.595 -1.2263  0.4449  1.2047
 2734SOL    HW310982   0.751   1.802   4.646  0.1839  0.7910  0.2673
 2734SOL    MW410983   0.679   1.846   4.625 -0.3096  0.0938  0.4463
 2735SOL     OW10984   0.461   2.684   4.127 -0.5103 -0.3437  0.1348
 2735SOL    HW210985   0.482   2.688   4.034 -1.9178 -0.4173 -0.1845
 2735SOL    HW310986   0.460   2.590   4.147  1.2178 -0.2969  0.5663
 2735SOL    MW410987   0.464   2.672   4.118 -0.4681 -0.3471  0.1497
 2736SOL     OW10988   0.165   1.343   4.205  0.1497 -0.3678 -0.1020
 2736SOL    HW210989   0.095   1.286   4.174  0.8258 -1.4362  0.3082
 2736SOL    HW310990   0.243   1.287   4.204  0.7148  0.4030  0.8322
 2736SOL    MW410991   0.166   1.328   4.201  0.3135 -0.4070  0.0749
 2737SOL     OW10992   0.786   0.606   4.914  1.2460 -0.0955 -0.0140
 2737SOL    HW210993   0.842   0.638   4.843  0.0086  0.6251 -0.6865
 2737SOL    HW310994   0.754   0.685   4.957 -1.0683 -0.4076 -1.0856
 2737SOL    MW410995   0.789   0.620   4.910  0.7774 -0.0416 -0.2446
 2738SOL     OW10996   3.821   2.844   4.674  0.4711  0.3349  0.3490
 2738SOL    HW210997   3.792   2.852   4.764  1.1314 -0.2408  0.6164
 2738SOL    HW310998   3.744   2.866   4.621  0.0958  0.6934  1.0460
 2738SOL    MW410999   3.807   2.848   4.679  0.5088  0.3061  0.4759
 2739SOL     OW11000   0.559   0.453   4.840  0.1588 -0.0379  0.1927
 2739SOL    HW211001   0.629   0.504   4.881 -0.6869 -1.0515  3.0255
 2739SOL    HW311002   0.604   0.385   4.790  1.2654 -1.0862  2.5121
 2739SOL    MW411003   0.574   0.451   4.839  0.1933 -0.3099  0.8721
 2740SOL     OW11004   3.982   2.029   4.170  0.4652  0.3066 -0.0880
 2740SOL    HW211005   4.002   1.960   4.233  2.4036 -0.5370 -1.5887
 2740SOL    HW311006   3.886   2.031   4.166  0.3738 -2.5687 -0.3373
 2740SOL    MW411007   3.972   2.020   4.178  0.7091 -0.1843 -0.3190
 2741SOL     OW11008   3.349   4.380   4.562 -0.2387  0.4284  0.2799
 2741SOL    HW211009   3.341   4.471   4.590 -0.2862  0.4105  0.3243
 2741SOL    HW311010   3.424   4.345   4.611 -1.4299 -0.1234  1.7601
 2741SOL    MW411011   3.358   4.387   4.572 -0.4022  0.3533  0.4807
 2742SOL     OW11012   2.669   4.247   4.163 -0.4761 -0.2001  0.0006
 2742SOL    HW211013   2.755   4.274   4.195 -0.1048 -1.2694 -0.0610
 2742SOL    HW311014   2.675   4.258   4.068  0.1555 -1.7540 -0.1656
 2742SOL    MW411015   2.681   4.252   4.154 -0.3440 -0.5465 -0.0296
 2743SOL     OW11016   2.239   1.667   4.278 -0.1681 -0.1218  0.3290
 2743SOL    HW211017   2.222   1.760   4.262  0.4907  0.3654  2.4009
 2743SOL    HW311018   2.156   1.624   4.256 -0.8740  1.0872  0.5518
 2743SOL    MW411019   2.225   1.673   4.273 -0.1745  0.1020  0.6313
 2744SOL     OW11020   3.049   0.866   4.294  0.3126  0.6127  0.3661
 2744SOL    HW211021   2.966   0.826   4.270  0.4134  1.0481 -0.6957
 2744SOL    HW311022   3.065   0.836   4.384  0.1766 -1.3845 -0.2628
 2744SOL    MW411023   3.040   0.857   4.303  0.3076  0.4066  0.1435
 2745SOL     OW11024   3.551   3.417   4.617 -0.0143  0.3920  0.2544
 2745SOL    HW211025   3.554   3.322   4.613 -0.2727  0.4305 -0.8742
 2745SOL    HW311026   3.642   3.443   4.632  0.5266  0.0733 -2.2056
 2745SOL    MW411027   3.564   3.408   4.618  0.0226  0.3550 -0.2184
 2746SOL     OW11028   3.523   0.836   4.280 -0.3953 -0.2817 -0.0079
 2746SOL    HW211029   3.552   0.924   4.258 -2.5153  0.4077 -0.2379
 2746SOL    HW311030   3.595   0.779   4.254  0.8080  1.3352 -0.2994
 2746SOL    MW411031   3.536   0.840   4.274 -0.5164  0.0226 -0.0763
 2747SOL     OW11032   3.251   1.428   4.200  0.0426  0.1396 -0.3423
 2747SOL    HW211033   3.166   1.447   4.160 -0.2769 -0.5107  0.0219
 2747SOL    HW311034   3.301   1.510   4.190 -0.4685  0.3861 -0.9412
 2747SOL    MW411035   3.247   1.442   4.193 -0.0672  0.0864 -0.3729
 2748SOL     OW11036   2.395   2.452   4.477 -0.3566  0.4413  0.1837
 2748SOL    HW211037   2.390   2.379   4.538  1.5121 -0.2345 -0.4468
 2748SOL    HW311038   2.345   2.422   4.400 -0.4062  0.2134  0.3033
 2748SOL    MW411039   2.388   2.438   4.475 -0.1166  0.3221  0.1159
 2749SOL     OW11040   3.246   2.499   4.519  0.3848 -0.3439  0.5737
 2749SOL    HW211041   3.163   2.457   4.544  0.3267 -0.5872 -0.0176
 2749SOL    HW311042   3.311   2.456   4.574  0.4547 -1.8556 -0.6327
 2749SOL    MW411043   3.243   2.488   4.530  0.3862 -0.5758  0.3366
 2750SOL     OW11044   4.262   1.160   4.722  0.2952  0.2208 -0.2561
 2750SOL    HW211045   4.356   1.153   4.707  0.5979  0.6251  1.3208
 2750SOL    HW311046   4.234   1.071   4.745  0.1828 -0.0155 -1.3048
 2750SOL    MW411047   4.271   1.148   4.723  0.3209  0.2429 -0.1860
 2751SOL     OW11048   0.408   0.896   4.587 -0.0555  0.1271  0.3473
 2751SOL    HW211049   0.405   0.893   4.491  1.5753 -0.5965  0.2930
 2751SOL    HW311050   0.445   0.812   4.613 -0.2827  0.4018  1.6063
 2751SOL    MW411051   0.413   0.885   4.578  0.1297  0.0679  0.5059
 2752SOL     OW11052   2.054   1.270   4.497 -0.3369  0.2169  0.2978
 2752SOL    HW211053   2.148   1.281   4.485 -0.3180 -0.2447  0.0397
 2752SOL    HW311054   2.018   1.269   4.408 -0.5875  0.3813  0.3946
 2752SOL    MW411055   2.061   1.272   4.484 -0.3676  0.1776  0.2761
 2753SOL     OW11056   2.263   3.184   4.204  0.1665 -0.2396 -0.0235
 2753SOL    HW211057   2.253   3.272   4.167 -1.6623 -0.1067  0.7579
 2753SOL    HW311058   2.185   3.137   4.177  0.7153 -1.3666  0.3175
 2753SOL    MW411059   2.251   3.189   4.196 -0.0024 -0.3707  0.1245
 2754SOL     OW11060   4.255   2.898   4.332 -0.3864  0.0956  0.4750
 2754SOL    HW211061   4.300   2.960   4.276 -0.3432  0.3450  0.7846
 2754SOL    HW311062   4.198   2.849   4.273  0.5171 -0.4312  0.0374
 2754SOL    MW411063   4.253   2.900   4.317 -0.2613  0.0591  0.4578
 2755SOL     OW11064   0.639   3.600   4.544 -0.2714 -0.2673 -0.1444
 2755SOL    HW211065   0.675   3.516   4.570  0.2242 -0.3112 -0.9490
 2755SOL    HW311066   0.692   3.665   4.590 -1.4875 -0.4026  1.5174
 2755SOL    MW411067   0.650   3.598   4.553 -0.3665 -0.2906 -0.0315
 2756SOL     OW11068   0.653   3.910   4.219  0.1494 -0.4601  0.3224
 2756SOL    HW211069   0.596   3.947   4.286  1.1764  1.0559  0.3830
 2756SOL    HW311070   0.669   3.820   4.248 -1.4253 -0.6041  0.7903
 2756SOL    MW411071   0.647   3.903   4.232  0.0771 -0.2792  0.3920
 2757SOL     OW11072   0.757   2.365   4.611  0.1460  0.0512  0.1818
 2757SOL    HW211073   0.745   2.281   4.567  0.2689 -0.1184  0.4702
 2757SOL    HW311074   0.669   2.401   4.621  0.0060 -0.4742  0.8976
 2757SOL    MW411075   0.744   2.359   4.607  0.1437 -0.0401  0.3142
 2758SOL     OW11076   4.300   2.659   4.748 -0.0373  0.2990  0.3397
 2758SOL    HW211077   4.334   2.684   4.662  0.4462  0.7715  0.6656
 2758SOL    HW311078   4.372   2.611   4.789 -0.3553 -0.1420  0.3819
 2758SOL    MW411079   4.314   2.656   4.742 -0.0148  0.3035  0.3881
 2759SOL     OW11080   3.179   0.158   4.524  0.4111  0.1395  0.0225
 2759SOL    HW211081   3.167   0.134   4.432  1.6618 -0.5441  0.0260
 2759SOL    HW311082   3.103   0.120   4.568 -0.1878  0.4522 -0.7172
 2759SOL    MW411083   3.167   0.150   4.518  0.4969  0.0906 -0.0749
 2760SOL     OW11084   3.819   3.833   4.204 -0.6072  0.2172 -0.2432
 2760SOL    HW211085   3.751   3.891   4.239 -2.0959 -1.9960  0.5977
 2760SOL    HW311086   3.824   3.761   4.266  1.7517 -0.2053 -0.8859
 2760SOL    MW411087   3.810   3.831   4.217 -0.4921 -0.1307 -0.2170
 2761SOL     OW11088   2.740   2.686   4.128 -0.4172 -0.0017  0.1674
 2761SOL    HW211089   2.746   2.596   4.159  0.0020 -0.4822 -1.2785
 2761SOL    HW311090   2.652   2.715   4.153 -0.8740 -1.1069 -0.1506
 2761SOL    MW411091   2.729   2.678   4.136 -0.4220 -0.2108 -0.0653
 2762SOL     OW11092   1.533   3.823   4.536 -0.2265  0.0401  0.7420
 2762SOL    HW211093   1.564   3.897   4.587 -0.1558  0.2330  0.4201
 2762SOL    HW311094   1.482   3.861   4.465  0.6200 -0.1607  0.0156
 2762SOL    MW411095   1.530   3.838   4.533 -0.1056  0.0391  0.6037
 2763SOL     OW11096   3.925   2.370   4.125 -0.4096  0.4704 -0.1048
 2763SOL    HW211097   3.924   2.331   4.038 -0.5365  0.6970 -0.2041
 2763SOL    HW311098   3.841   2.345   4.163 -0.1871  0.0287  0.1054
 2763SOL    MW411099   3.914   2.361   4.118 -0.3970  0.4420 -0.0906
 2764SOL     OW11100   0.643   1.030   4.651  0.4144  0.1137 -0.1615
 2764SOL    HW211101   0.563   0.979   4.636  0.2196  0.7648 -1.4111
 2764SOL    HW311102   0.712   0.979   4.608  0.4155  0.3438 -0.4262
 2764SOL    MW411103   0.641   1.016   4.644  0.3889  0.2300 -0.3610
 2765SOL     OW11104   0.680   1.529   4.155 -0.3893 -0.0796 -0.2950
 2765SOL    HW211105   0.650   1.533   4.064  0.7743  0.3279 -0.6645
 2765SOL    HW311106   0.657   1.441   4.184 -0.0929 -0.4736 -1.2220
 2765SOL    MW411107   0.673   1.518   4.147 -0.1966 -0.0778 -0.4663
 2766SOL     OW11108   3.524   0.797   4.561  0.1496  0.0675 -0.0409
 2766SOL    HW211109   3.540   0.810   4.467 -0.1935 -0.4672 -0.1764
 2766SOL    HW311110   3.494   0.883   4.592  0.6627  0.3547 -0.3360
 2766SOL    MW411111   3.522   0.810   4.552  0.1721  0.0349 -0.0982
 2767SOL     OW11112   3.686   2.282   4.247 -0.0613 -0.3974 -0.2217
 2767SOL    HW211113   3.685   2.194   4.209 -1.3176 -0.4003 -0.1945
 2767SOL    HW311114   3.600   2.318   4.226  0.2945  0.6691  0.1413
 2767SOL    MW411115   3.675   2.275   4.239 -0.1805 -0.2568 -0.1702
 2768SOL     OW11116   3.383   3.848   4.632  0.1931  1.1294  0.0516
 2768SOL    HW211117   3.372   3.823   4.724  1.9199 -0.3931 -0.1373
 2768SOL    HW311118   3.359   3.770   4.582  1.7585  1.1058 -0.6927
 2768SOL    MW411119   3.378   3.835   4.638  0.6275  0.9253 -0.0715
 2769SOL     OW11120   3.186   1.678   3.762  0.0359  0.2668 -0.0637
 2769SOL    HW211121   3.175   1.668   3.668  0.1068  1.0597 -0.1627
 2769SOL    HW311122   3.167   1.771   3.778 -1.2886 -0.1520  0.8822
 2769SOL    MW411123   3.182   1.689   3.752 -0.1297  0.3160  0.0479
 2770SOL     OW11124   0.232   0.492   4.575  0.5968 -0.0826 -0.0988
 2770SOL    HW211125   0.157   0.539   4.612  0.0446  0.1243 -1.4642
 2770SOL    HW311126   0.244   0.417   4.634  0.1519  0.5929  0.8752
 2770SOL    MW411127   0.223   0.488   4.588  0.4653  0.0338 -0.1502
 2771SOL     OW11128   4.053   0.356   4.169  0.1965 -0.4175 -0.3588
 2771SOL    HW211129   4.048   0.277   4.223 -0.6071  0.4277  0.8371
 2771SOL    HW311130   3.978   0.409   4.197  0.9283  0.9282 -0.8879
 2771SOL    MW411131   4.042   0.352   4.180  0.1869 -0.1284 -0.2708
 2772SOL     OW11132   2.716   1.915   4.151 -0.0495 -0.1815 -0.1378
 2772SOL    HW211133   2.711   1.895   4.057 -0.5207  0.0638 -0.1666
 2772SOL    HW311134   2.703   1.830   4.194 -1.7204 -0.0130 -0.2674
 2772SOL    MW411135   2.714   1.901   4.144 -0.3324 -0.1270 -0.1588
 2773SOL     OW11136   2.245   0.629   4.615 -0.6710  0.6827  0.2155
 2773SOL    HW211137   2.307   0.560   4.590  0.5635  1.4285  1.1342
 2773SOL    HW311138   2.168   0.583   4.647 -0.2773 -0.2666 -0.1890
 2773SOL    MW411139   2.243   0.614   4.616 -0.4561  0.6558  0.2832
 2774SOL     OW11140   3.309   0.609   4.529  0.1075  0.1117 -0.1348
 2774SOL    HW211141   3.386   0.666   4.541 -1.1607  2.2243 -1.5715
 2774SOL    HW311142   3.310   0.587   4.436 -0.6900 -0.3345 -0.0415
 2774SOL    MW411143   3.320   0.614   4.518 -0.1650  0.3316 -0.3119
 2775SOL     OW11144   2.841   3.285   4.791  0.0070 -0.4367  0.2724
 2775SOL    HW211145   2.879   3.197   4.790 -0.6922 -0.7328 -0.4137
 2775SOL    HW311146   2.871   3.323   4.874  0.7026 -1.1446  0.3516
 2775SOL    MW411147   2.850   3.278   4.802  0.0064 -0.5691  0.1922
 2776SOL     OW11148   2.689   2.491   4.526 -0.2688 -0.3849  0.0141
 2776SOL    HW211149   2.594   2.490   4.537 -0.2993 -0.7959 -0.2777
 2776SOL    HW311150   2.717   2.575   4.564 -0.4892 -1.2464  2.1393
 2776SOL    MW411151   2.680   2.502   4.533 -0.3021 -0.5529  0.2556
 2777SOL     OW11152   1.566   3.546   4.451 -0.0804  0.1514  0.2644
 2777SOL    HW211153   1.567   3.569   4.358  0.6348 -0.8968  0.0013
 2777SOL    HW311154   1.561   3.629   4.497 -1.5110  0.6433 -0.7329
 2777SOL    MW411155   1.566   3.560   4.445 -0.1748  0.0780  0.0982
 2778SOL     OW11156   3.815   3.844   4.685  0.2994 -0.4710  0.0553
 2778SOL    HW211157   3.887   3.898   4.653 -0.8910  1.1553  0.0092
 2778SOL    HW311158   3.823   3.848   4.780 -0.8066  1.2840  0.1026
 2778SOL    MW411159   3.825   3.852   4.693 -0.0036 -0.0248  0.0558
 2779SOL     OW11160   0.463   2.746   4.667  0.0094 -0.1655 -0.0581
 2779SOL    HW211161   0.417   2.829   4.681 -2.8814 -1.4735 -1.2866
 2779SOL    HW311162   0.549   2.771   4.633 -1.1723  2.3318 -1.3764
 2779SOL    MW411163   0.468   2.760   4.664 -0.5279 -0.0086 -0.3939
 2780SOL     OW11164   4.052   3.006   4.603  0.0354 -0.5449 -0.9626
 2780SOL    HW211165   3.965   2.967   4.612 -0.4170  0.2935 -1.6318
 2780SOL    HW311166   4.091   2.960   4.528 -0.1746 -0.2939 -1.2253
 2780SOL    MW411167   4.046   2.994   4.594 -0.0525 -0.4013 -1.0853
 2781SOL     OW11168   4.259   2.936   4.785 -0.0688 -0.2494  0.6422
 2781SOL    HW211169   4.248   2.842   4.771 -0.7754 -0.2737  1.2945
 2781SOL    HW311170   4.201   2.977   4.721  1.3776 -0.2130 -0.6723
 2781SOL    MW411171   4.250   2.929   4.775  0.0286 -0.2480  0.5541
 2782SOL     OW11172   2.676   3.431   4.146  0.4054  0.1210  0.0165
 2782SOL    HW211173   2.598   3.481   4.169 -0.4040 -1.6004  1.1064
 2782SOL    HW311174   2.748   3.479   4.186 -0.2901  0.8183  0.4319
 2782SOL    MW411175   2.675   3.444   4.154  0.2067 -0.0141  0.2151
 2783SOL     OW11176   0.757   3.098   4.632 -0.1911  0.2864 -0.0731
 2783SOL    HW211177   0.683   3.146   4.593  0.9347  0.4159 -2.0995
 2783SOL    HW311178   0.741   3.007   4.609  0.1339  0.2778 -0.2593
 2783SOL    MW411179   0.745   3.092   4.624  0.0004  0.3021 -0.3648
 2784SOL     OW11180   2.244   1.946   4.198  0.0674  0.6327  0.3562
 2784SOL    HW211181   2.240   1.942   4.102 -1.1718  0.6412  0.4007
 2784SOL    HW311182   2.332   1.977   4.217  0.3567  0.5273 -0.7828
 2784SOL    MW411183   2.255   1.950   4.188 -0.0577  0.6199  0.2117
 2785SOL     OW11184   0.155   4.659   4.209 -0.3817 -0.0916  0.0320
 2785SOL    HW211185   0.228   4.718   4.229 -0.3990  0.0637 -0.3530
 2785SOL    HW311186   0.078   4.704   4.243 -0.0785 -1.1523  2.2199
 2785SOL    MW411187   0.155   4.673   4.216 -0.3440 -0.2108  0.2704
 2786SOL     OW11188   3.755   0.688   4.670 -0.1980  0.1189  0.4060
 2786SOL    HW211189   3.668   0.711   4.640  0.2169  0.6091 -0.4383
 2786SOL    HW311190   3.775   0.605   4.627  0.4058  0.8335 -0.7289
 2786SOL    MW411191   3.746   0.680   4.661 -0.0634  0.2778  0.1450
 2787SOL     OW11192   1.804   0.077   4.290 -0.4361  0.1564 -0.1950
 2787SOL    HW211193   1.813   0.063   4.384 -0.9788  1.7549  0.1080
 2787SOL    HW311194   1.883   0.038   4.252 -0.0499 -0.1931  0.9476
 2787SOL    MW411195   1.816   0.070   4.297 -0.4567  0.3212 -0.0048
 2788SOL     OW11196   3.805   1.964   4.696  0.3071 -0.1203 -0.1198
 2788SOL    HW211197   3.855   2.037   4.659 -0.6954  0.6905  0.0931
 2788SOL    HW311198   3.790   1.904   4.623  1.0363 -0.0511 -0.3231
 2788SOL    MW411199   3.809   1.966   4.682  0.2711 -0.0041 -0.1187
 2789SOL     OW11200   1.644   2.116   4.538  0.1762 -0.1998 -0.6962
 2789SOL    HW211201   1.571   2.069   4.577  0.5678  0.5192  0.9144
 2789SOL    HW311202   1.720   2.061   4.556  0.5236  0.6805  0.5347
 2789SOL    MW411203   1.644   2.103   4.545  0.2736  0.0112 -0.3209
 2790SOL     OW11204   2.795   0.690   4.667 -0.1149 -0.4886  0.1136
 2790SOL    HW211205   2.882   0.695   4.626 -0.4285  1.1475 -0.3862
 2790SOL    HW311206   2.736   0.732   4.603 -0.8483  0.7434  1.5682
 2790SOL    MW411207   2.799   0.696   4.653 -0.2530 -0.1103  0.2403
 2791SOL     OW11208   2.494   3.789   4.613  0.5135 -0.3297 -0.7538
 2791SOL    HW211209   2.531   3.771   4.699 -0.6036  0.7509 -0.0207
 2791SOL    HW311210   2.555   3.850   4.572 -0.4767  1.5431  0.4956
 2791SOL    MW411211   2.507   3.795   4.619  0.2356  0.0601 -0.4921
 2792SOL     OW11212   3.392   0.331   4.597  0.5821  0.3046  0.2028
 2792SOL    HW211213   3.367   0.422   4.582  0.8908  0.4723  0.6858
 2792SOL    HW311214   3.310   0.281   4.589  0.3106  0.6982  0.5609
 2792SOL    MW411215   3.378   0.336   4.594  0.5870  0.3787  0.3142
 2793SOL     OW11216   2.800   1.266   4.576 -0.0963 -0.0201 -0.4177
 2793SOL    HW211217   2.796   1.270   4.480 -1.5900  2.2989 -0.3115
 2793SOL    HW311218   2.803   1.358   4.604 -0.4167 -0.6387  1.7642
 2793SOL    MW411219   2.800   1.279   4.567 -0.3357  0.2043 -0.1159
 2794SOL     OW11220   1.935   0.539   4.284  0.0696  0.0728 -0.7019
 2794SOL    HW211221   2.004   0.483   4.247  0.3756  0.4352 -0.6822
 2794SOL    HW311222   1.961   0.628   4.260  1.0282  0.4427  1.5854
 2794SOL    MW411223   1.948   0.543   4.276  0.2365  0.1694 -0.3972
 2795SOL     OW11224   1.156   3.970   4.710  0.5930 -0.1143  0.1663
 2795SOL    HW211225   1.218   3.905   4.677  0.3987 -0.1744 -0.0838
 2795SOL    HW311226   1.108   3.924   4.779 -0.2927 -0.5929 -0.7380
 2795SOL    MW411227   1.157   3.955   4.715  0.4505 -0.1853  0.0143
 2796SOL     OW11228   2.695   3.169   4.218  0.1157  0.1649  0.1162
 2796SOL    HW211229   2.677   3.256   4.182  2.6217 -0.1290 -2.0116
 2796SOL    HW311230   2.660   3.172   4.307  1.1139  3.7246  0.4603
 2796SOL    MW411231   2.688   3.181   4.225  0.5779  0.5960 -0.1192
 2797SOL     OW11232   0.474   3.168   4.540 -0.2759 -0.1807 -0.0441
 2797SOL    HW211233   0.474   3.190   4.447  0.9735  1.3584  0.3019
 2797SOL    HW311234   0.464   3.252   4.585  2.3236 -0.5075  1.2452
 2797SOL    MW411235   0.473   3.182   4.534  0.2320 -0.0207  0.1717
 2798SOL     OW11236   2.211   0.127   4.261 -0.2395  0.0021 -0.1337
 2798SOL    HW211237   2.171   0.210   4.234 -0.8311  0.0518  0.8564
 2798SOL    HW311238   2.238   0.142   4.352 -0.1159 -0.8059 -0.0300
 2798SOL    MW411239   2.210   0.140   4.269 -0.3014 -0.0979  0.0110
 2799SOL     OW11240   4.116   2.192   4.349 -0.4477 -0.0094 -0.2599
 2799SOL    HW211241   4.071   2.186   4.433 -0.9504  0.9987 -0.4484
 2799SOL    HW311242   4.058   2.149   4.287 -1.0679  1.0909 -0.4609
 2799SOL    MW411243   4.103   2.186   4.352 -0.5960  0.2687 -0.3114
 2800SOL     OW11244   3.993   0.687   4.819  0.0584 -0.4780  0.1367
 2800SOL    HW211245   4.010   0.781   4.822  1.3545 -0.7150  0.4125
 2800SOL    HW311246   3.906   0.680   4.779  0.4135  0.7911 -0.9093
 2800SOL    MW411247   3.984   0.698   4.814  0.2763 -0.3418  0.0348
 2801SOL     OW11248   4.462   0.876   4.538  0.0541  0.0588 -0.2056
 2801SOL    HW211249   4.380   0.866   4.587  0.4853 -1.2371  0.2919
 2801SOL    HW311250   4.488   0.966   4.554 -1.1051  0.3843 -0.0866
 2801SOL    MW411251   4.455   0.886   4.547 -0.0424 -0.0693 -0.1245
 2802SOL     OW11252   2.465   3.828   4.132  0.2868  0.5222 -0.4912
 2802SOL    HW211253   2.430   3.833   4.043  0.6378  0.8081 -0.6146
 2802SOL    HW311254   2.405   3.881   4.184 -0.0649  0.1476 -0.5107
 2802SOL    MW411255   2.453   3.836   4.127  0.2866  0.5105 -0.5102
 2803SOL     OW11256   2.031   2.039   4.347  0.0565 -0.0268 -0.0627
 2803SOL    HW211257   2.020   2.126   4.310  1.5892  0.4537  0.5812
 2803SOL    HW311258   2.114   2.008   4.312 -0.5526 -1.3051 -0.4222
 2803SOL    MW411259   2.040   2.046   4.338  0.1781 -0.1321 -0.0253
 2804SOL     OW11260   2.064   2.796   4.632  0.1391 -0.2268 -0.0500
 2804SOL    HW211261   2.023   2.726   4.582  0.3151 -0.3455 -0.0291
 2804SOL    HW311262   2.052   2.770   4.723 -0.3205  0.0675 -0.0265
 2804SOL    MW411263   2.057   2.783   4.637  0.1016 -0.2038 -0.0443
 2805SOL     OW11264   1.982   1.297   4.240  0.1674  0.0505 -0.0170
 2805SOL    HW211265   2.050   1.245   4.197 -0.5545  0.2498 -1.4339
 2805SOL    HW311266   1.900   1.260   4.209 -0.3563  1.0848  0.1260
 2805SOL    MW411267   1.980   1.285   4.230  0.0031  0.2133 -0.1850
 2806SOL     OW11268   1.600   2.076   4.271 -0.2974 -0.0168  0.0843
 2806SOL    HW211269   1.626   2.094   4.362  0.2263  0.8740 -0.2312
 2806SOL    HW311270   1.582   2.162   4.234  1.3877 -0.2017 -1.2132
 2806SOL    MW411271   1.601   2.090   4.278 -0.0061  0.0765 -0.1283
 2807SOL     OW11272   2.696   3.966   4.228  0.4000 -0.2263 -0.3249
 2807SOL    HW211273   2.677   4.056   4.204  0.6542  0.1948  1.0264
 2807SOL    HW311274   2.620   3.916   4.197 -0.6186  0.7220  0.5764
 2807SOL    MW411275   2.683   3.971   4.221  0.2990 -0.0455 -0.0277
 2808SOL     OW11276   4.299   4.116   4.891 -0.2960 -0.1072 -0.0643
 2808SOL    HW211277   4.280   4.207   4.867 -0.5738 -0.1244  0.0839
 2808SOL    HW311278   4.393   4.115   4.910 -0.6826  0.6283  2.0102
 2808SOL    MW411279   4.309   4.128   4.891 -0.3829 -0.0119  0.2289
 2809SOL     OW11280   1.788   3.269   4.190 -0.4005  0.3132 -0.0289
 2809SOL    HW211281   1.787   3.247   4.283 -0.3268 -0.1100 -0.1297
 2809SOL    HW311282   1.723   3.211   4.150 -1.2446  1.2569 -0.0706
 2809SOL    MW411283   1.779   3.258   4.197 -0.5023  0.3819 -0.0477
 2810SOL     OW11284   2.241   4.224   4.139 -0.3883 -0.1459 -0.2679
 2810SOL    HW211285   2.261   4.143   4.186  0.2211  0.3210  0.2930
 2810SOL    HW311286   2.149   4.243   4.160 -0.0915  0.1033  0.8112
 2810SOL    MW411287   2.232   4.216   4.148 -0.2687 -0.0515 -0.0520
 2811SOL     OW11288   3.845   0.416   4.546 -0.4473 -0.2703 -0.3198
 2811SOL    HW211289   3.829   0.322   4.548  0.0109 -0.3541 -0.3627
 2811SOL    HW311290   3.916   0.429   4.609 -1.1342  0.1749  0.3686
 2811SOL    MW411291   3.853   0.405   4.555 -0.4773 -0.2226 -0.2351
 2812SOL     OW11292   3.557   1.105   4.174 -0.2975 -0.3955  0.1635
 2812SOL    HW211293   3.587   1.129   4.086  1.4978 -0.3070  0.7645
 2812SOL    HW311294   3.463   1.122   4.173  0.1014  2.0108 -0.9739
 2812SOL    MW411295   3.549   1.111   4.162 -0.0081 -0.0664  0.0925
 2813SOL     OW11296   2.479   1.021   4.852 -0.0186  0.1218  0.3893
 2813SOL    HW211297   2.572   1.038   4.836 -0.1519  1.2455  0.7820
 2813SOL    HW311298   2.471   0.925   4.846  1.6842 -0.2344  3.1551
 2813SOL    MW411299   2.491   1.010   4.849  0.1886  0.2232  0.8059
 2814SOL     OW11300   0.100   4.101   4.863  0.1154 -0.3465  0.2897
 2814SOL    HW211301   0.189   4.134   4.877 -0.0409  0.7818 -1.2492
 2814SOL    HW311302   0.112   4.020   4.813  0.2803 -0.0941 -0.0851
 2814SOL    MW411303   0.113   4.094   4.858  0.1166 -0.1640  0.0372
 2815SOL     OW11304   2.449   0.032   4.141 -0.1990  0.3218  0.3125
 2815SOL    HW211305   2.368   0.069   4.178 -0.9305  0.2152 -1.1747
 2815SOL    HW311306   2.446  -0.061   4.164  1.0720  0.8920  3.0302
 2815SOL    MW411307   2.438   0.025   4.149 -0.1276  0.3830  0.4749
 2816SOL     OW11308   2.019   3.795   4.669 -0.0680  0.1106  0.2510
 2816SOL    HW211309   2.015   3.726   4.602 -2.2847  0.8672 -0.4566
 2816SOL    HW311310   2.051   3.751   4.748  0.8387 -1.1855 -0.8199
 2816SOL    MW411311   2.023   3.780   4.671 -0.2408  0.0396  0.0167
 2817SOL     OW11312   3.284   0.787   4.164 -0.1031  0.7517 -0.3654
 2817SOL    HW211313   3.361   0.826   4.206 -0.1821  0.8909 -0.3487
 2817SOL    HW311314   3.210   0.820   4.214 -0.2879  1.9757 -1.4217
 2817SOL    MW411315   3.285   0.796   4.176 -0.1380  0.9316 -0.5026
 2818SOL     OW11316   1.335   2.408   4.529  0.1654  0.2352  0.2584
 2818SOL    HW211317   1.296   2.326   4.559  0.2531 -0.5413 -1.6928
 2818SOL    HW311318   1.429   2.394   4.535  0.1776  0.3809  0.4112
 2818SOL    MW411319   1.342   2.396   4.534  0.1786  0.1519  0.0210
 2819SOL     OW11320   2.197   3.417   4.565 -0.5607 -0.2022 -0.1342
 2819SOL    HW211321   2.216   3.324   4.560 -0.0373 -0.1790  1.3396
 2819SOL    HW311322   2.274   3.460   4.529 -1.2424 -0.3445 -1.8413
 2819SOL    MW411323   2.209   3.411   4.560 -0.5815 -0.2179 -0.1650
 2820SOL     OW11324   1.086   1.083   4.648 -0.2757 -0.4264 -0.1807
 2820SOL    HW211325   1.072   1.172   4.616  1.7303 -0.3892 -1.0492
 2820SOL    HW311326   1.060   1.086   4.740  2.0157  1.6930  0.4362
 2820SOL    MW411327   1.081   1.095   4.656  0.2912 -0.1419 -0.2141
 2821SOL     OW11328   4.460   0.860   4.259  0.2249  0.4383  0.5946
 2821SOL    HW211329   4.461   0.839   4.352  0.3906 -0.3229  0.4308
 2821SOL    HW311330   4.390   0.805   4.223 -1.1063  2.1199  0.5715
 2821SOL    MW411331   4.451   0.850   4.266  0.0715  0.5597  0.5698
 2822SOL     OW11332   3.579   2.679   4.149  0.2518 -0.0737  0.1049
 2822SOL    HW211333   3.543   2.593   4.169 -0.3509  0.3204  0.7531
 2822SOL    HW311334   3.587   2.681   4.054  0.4710 -0.9223  0.1042
 2822SOL    MW411335   3.575   2.668   4.139  0.2012 -0.1338  0.1907
 2823SOL     OW11336   3.886   1.593   4.603 -0.0441  0.1300 -0.4281
 2823SOL    HW211337   3.886   1.582   4.698  0.0967 -1.5756 -0.6034
 2823SOL    HW311338   3.832   1.671   4.587 -0.8631 -0.1339  0.9936
 2823SOL    MW411339   3.879   1.602   4.613 -0.1338 -0.1298 -0.2632
 2824SOL     OW11340   0.207   0.735   4.152  0.1191  0.3690  0.1999
 2824SOL    HW211341   0.219   0.655   4.202  0.3790  0.2377 -0.0729
 2824SOL    HW311342   0.117   0.761   4.171  0.0961  0.1179  0.4401
 2824SOL    MW411343   0.196   0.728   4.161  0.1503  0.3185  0.1955
 2825SOL     OW11344   0.911   3.983   4.245  0.0804  0.3206  0.1022
 2825SOL    HW211345   0.929   4.055   4.184  0.2760  1.2146  1.2041
 2825SOL    HW311346   0.818   3.967   4.235 -0.2339  1.6155  0.7943
 2825SOL    MW411347   0.901   3.991   4.236  0.0648  0.6094  0.3390
 2826SOL     OW11348   2.880   3.543   4.506 -0.1975  0.1106  0.4619
 2826SOL    HW211349   2.908   3.630   4.534  0.2650 -0.0526  0.5160
 2826SOL    HW311350   2.946   3.484   4.543  0.0592 -0.1677 -0.4319
 2826SOL    MW411351   2.893   3.547   4.515 -0.1028  0.0522  0.3510
 2827SOL     OW11352   3.901   1.565   4.873  0.7106  0.0353 -0.4313
 2827SOL    HW211353   3.930   1.654   4.891  0.6533 -0.3354  1.5727
 2827SOL    HW311354   3.981   1.514   4.866  0.6670 -0.1915  0.7645
 2827SOL    MW411355   3.915   1.570   4.874  0.6974 -0.0435 -0.0095
 2828SOL     OW11356   1.563   3.604   4.180  0.2774 -0.4064  0.0963
 2828SOL    HW211357   1.649   3.573   4.152  1.4433  0.9505  1.9835
 2828SOL    HW311358   1.570   3.700   4.176 -1.1883 -0.2862  0.1405
 2828SOL    MW411359   1.575   3.613   4.176  0.2378 -0.2115  0.3510
 2829SOL     OW11360   4.025   0.857   4.275  0.5469 -0.2798 -0.1226
 2829SOL    HW211361   4.027   0.937   4.223 -1.9200 -0.4463 -0.5604
 2829SOL    HW311362   4.020   0.888   4.366 -1.2975  0.1029 -0.3350
 2829SOL    MW411363   4.025   0.872   4.280 -0.0215 -0.2513 -0.2084
 2830SOL     OW11364   4.247   1.527   4.147 -0.7749  0.0913 -0.1625
 2830SOL    HW211365   4.242   1.513   4.053  0.9105  0.7847 -0.3702
 2830SOL    HW311366   4.241   1.439   4.185  1.3031 -0.4847 -1.0565
 2830SOL    MW411367   4.246   1.514   4.140 -0.2785  0.1068 -0.3080
 2831SOL     OW11368   2.336   2.734   4.490  0.0896 -0.2298  0.5508
 2831SOL    HW211369   2.347   2.641   4.472 -0.7439 -0.9279  3.3976
 2831SOL    HW311370   2.263   2.738   4.552  0.4204  2.2746  0.8358
 2831SOL    MW411371   2.328   2.722   4.496  0.0234  0.0086  0.9637
 2832SOL     OW11372   1.416   3.306   4.459 -0.0802  0.2548  0.2136
 2832SOL    HW211373   1.471   3.384   4.459  1.1509 -0.5778 -1.1034
 2832SOL    HW311374   1.465   3.242   4.511  0.2168 -0.4818 -0.9336
 2832SOL    MW411375   1.430   3.308   4.466  0.1214  0.0479 -0.1121
 2833SOL     OW11376   2.017   3.591   4.212  0.7325  0.2159  0.4868
 2833SOL    HW211377   2.027   3.686   4.207  2.0641  0.0150 -1.1851
 2833SOL    HW311378   1.946   3.571   4.151  0.5041  0.1090  0.7817
 2833SOL    MW411379   2.009   3.601   4.204  0.8781  0.1755  0.3052
 2834SOL     OW11380   3.137   4.259   4.161  0.2551 -0.7749 -0.4526
 2834SOL    HW211381   3.212   4.298   4.205  1.1018 -0.8887 -1.7772
 2834SOL    HW311382   3.129   4.171   4.198 -0.3684 -0.1281  1.0126
 2834SOL    MW411383   3.146   4.253   4.172  0.2844 -0.7043 -0.4339
 2835SOL     OW11384   1.129   2.015   4.220  0.4130  0.3869  0.1821
 2835SOL    HW211385   1.217   1.990   4.192  1.1647  0.2829  2.5102
 2835SOL    HW311386   1.070   1.964   4.165  1.8056  0.4749 -1.4083
 2835SOL    MW411387   1.132   2.005   4.209  0.6959  0.3848  0.2794
 2836SOL     OW11388   4.423   4.278   4.243 -0.3842  0.2896 -0.3118
 2836SOL    HW211389   4.445   4.187   4.260 -1.9570  0.0852  0.7338
 2836SOL    HW311390   4.428   4.286   4.148  0.3315 -0.7269 -0.3729
 2836SOL    MW411391   4.426   4.267   4.232 -0.4973  0.1283 -0.1817
 2837SOL     OW11392   1.605   4.299   4.452 -0.2468 -0.1251 -0.4378
 2837SOL    HW211393   1.602   4.394   4.437  0.1257 -0.1982 -1.0052
 2837SOL    HW311394   1.654   4.265   4.377  1.0120 -0.6022  0.6006
 2837SOL    MW411395   1.611   4.307   4.440 -0.0316 -0.1979 -0.3753
 2838SOL     OW11396   2.667   1.152   3.859  0.0937 -0.1885  0.1702
 2838SOL    HW211397   2.666   1.060   3.831  0.4041 -0.3375  0.6331
 2838SOL    HW311398   2.752   1.185   3.831  0.4544 -0.3707  1.0190
 2838SOL    MW411399   2.678   1.144   3.852  0.1824 -0.2320  0.3431
 2839SOL     OW11400   4.424   0.143   4.300 -0.6768  0.0076  0.4798
 2839SOL    HW211401   4.447   0.147   4.393 -1.9750  0.0705  0.8094
 2839SOL    HW311402   4.438   0.232   4.268 -0.2979  0.0039  0.6242
 2839SOL    MW411403   4.429   0.155   4.308 -0.7982  0.0154  0.5422
 2840SOL     OW11404   1.372   2.667   4.119  0.1531 -0.1649  0.0191
 2840SOL    HW211405   1.364   2.579   4.155  0.8446 -0.0664  0.4153
 2840SOL    HW311406   1.292   2.711   4.146 -0.4168 -0.8141 -0.5835
 2840SOL    MW411407   1.360   2.661   4.127  0.1692 -0.2377 -0.0081
 2841SOL     OW11408   2.062   2.856   4.250  0.1826  0.2009 -0.1833
 2841SOL    HW211409   2.040   2.938   4.207 -1.9093  0.1369  0.6995
 2841SOL    HW311410   1.979   2.810   4.258  1.2364 -1.7527 -0.1300
 2841SOL    MW411411   2.048   2.861   4.246  0.0453 -0.0651 -0.0591
 2842SOL     OW11412   0.652   1.287   4.539  0.0185 -0.1028  0.0197
 2842SOL    HW211413   0.661   1.207   4.591 -1.7480 -0.1847  0.2030
 2842SOL    HW311414   0.575   1.330   4.574  2.2728  2.8954  1.5310
 2842SOL    MW411415   0.643   1.282   4.550  0.0829  0.2818  0.2432
 2843SOL     OW11416   0.019   4.282   4.687 -0.7550  0.2406 -0.5522
 2843SOL    HW211417   0.084   4.346   4.658  0.6436 -0.7322  0.3744
 2843SOL    HW311418   0.062   4.234   4.757 -2.7313  0.0177  0.5518
 2843SOL    MW411419   0.033   4.284   4.692 -0.8312  0.0830 -0.2842
 2844SOL     OW11420   0.477   2.436   4.274 -0.2496 -0.3435  0.3794
 2844SOL    HW211421   0.394   2.390   4.258 -0.4168  0.2751 -0.6203
 2844SOL    HW311422   0.474   2.460   4.367 -1.2187 -0.2909  0.3454
 2844SOL    MW411423   0.465   2.433   4.284 -0.3994 -0.2551  0.2432
 2845SOL     OW11424   0.671   4.395   4.324  0.3341 -0.4249 -0.1660
 2845SOL    HW211425   0.588   4.365   4.287  1.0502 -0.9819 -1.3465
 2845SOL    HW311426   0.669   4.490   4.311 -0.6421 -0.2724  0.9321
 2845SOL    MW411427   0.660   4.404   4.317  0.2998 -0.4787 -0.1769
 2846SOL     OW11428   2.487   3.050   4.095  0.1968 -0.3785 -0.4252
 2846SOL    HW211429   2.411   3.090   4.139 -0.0028  0.0406 -1.1425
 2846SOL    HW311430   2.563   3.090   4.137 -0.0013  1.2191 -1.5220
 2846SOL    MW411431   2.487   3.061   4.106  0.1445 -0.1128 -0.6652
 2847SOL     OW11432   3.345   4.385   4.290 -0.4502  0.0268  0.2577
 2847SOL    HW211433   3.347   4.477   4.263  3.7923 -0.1775 -0.4078
 2847SOL    HW311434   3.354   4.387   4.385 -1.3902  0.3252  0.3415
 2847SOL    MW411435   3.347   4.397   4.299 -0.0145  0.0396  0.1812
 2848SOL     OW11436   0.711   2.057   4.246  0.1356  0.0944  0.0501
 2848SOL    HW211437   0.711   2.152   4.231  1.5462  0.1536  0.3466
 2848SOL    HW311438   0.630   2.026   4.206  0.3814  1.2222 -1.3387
 2848SOL    MW411439   0.700   2.066   4.239  0.3542  0.2511 -0.0944
 2849SOL     OW11440   3.145   1.051   4.568  0.0766 -0.3679  0.2847
 2849SOL    HW211441   3.093   1.099   4.632 -0.7296 -1.6497  0.6264
 2849SOL    HW311442   3.127   1.094   4.485  0.6511  0.9264  0.8103
 2849SOL    MW411443   3.136   1.063   4.566  0.0460 -0.3662  0.3991
 2850SOL     OW11444   2.937   3.814   4.565  0.2753  0.3065 -0.3077
 2850SOL    HW211445   2.866   3.870   4.535  0.2554 -0.1282 -1.0874
 2850SOL    HW311446   3.016   3.867   4.556  0.0781  0.7380  0.4161
 2850SOL    MW411447   2.938   3.828   4.560  0.2468  0.3064 -0.3157
 2851SOL     OW11448   4.236   1.272   4.255 -0.2253  0.2874  0.3283
 2851SOL    HW211449   4.316   1.222   4.238 -1.0254 -0.5376 -1.0180
 2851SOL    HW311450   4.207   1.240   4.341  0.1282 -0.4165  0.1941
 2851SOL    MW411451   4.243   1.261   4.264 -0.2842  0.0857  0.1335
 2852SOL     OW11452   2.238   2.402   4.244  0.5119 -0.2410  0.1551
 2852SOL    HW211453   2.232   2.494   4.218 -0.6766 -0.1554  0.7175
 2852SOL    HW311454   2.321   2.372   4.207  1.2969  1.2768  0.6554
 2852SOL    MW411455   2.248   2.410   4.236  0.4587 -0.0296  0.2952
 2853SOL     OW11456   2.019   0.466   4.706 -0.0235 -0.1344  0.5275
 2853SOL    HW211457   1.930   0.489   4.680 -0.0076  0.7055  1.2021
 2853SOL    HW311458   2.021   0.370   4.704 -1.3186 -0.1933  1.7580
 2853SOL    MW411459   2.008   0.456   4.703 -0.1924 -0.0314  0.7782
 2854SOL     OW11460   2.205   1.173   4.131 -0.0076  0.0912 -0.7932
 2854SOL    HW211461   2.210   1.175   4.035 -0.2401 -0.8899 -0.8289
 2854SOL    HW311462   2.285   1.218   4.160  0.5138 -0.3936 -1.4463
 2854SOL    MW411463   2.217   1.180   4.122  0.0305 -0.1023 -0.8841
 2855SOL     OW11464   0.822   3.792   4.662  0.9457 -0.5795  0.0338
 2855SOL    HW211465   0.892   3.785   4.597 -0.4173  0.0592 -1.5352
 2855SOL    HW311466   0.867   3.810   4.744  2.7262 -1.8873 -0.6338
 2855SOL    MW411467   0.837   3.794   4.664  1.0008 -0.6676 -0.2618
 2856SOL     OW11468   0.058   0.037   4.564  0.0993 -0.0541 -0.2079
 2856SOL    HW211469  -0.023   0.009   4.606  1.2721  0.4447  2.5112
 2856SOL    HW311470   0.096   0.099   4.625  1.6826  1.0565 -2.2709
 2856SOL    MW411471   0.052   0.041   4.578  0.4630  0.1583 -0.1211
 2857SOL     OW11472   0.926   2.712   4.124  0.4085 -0.7521  0.1069
 2857SOL    HW211473   0.845   2.752   4.155  1.3991  0.5851  1.0379
 2857SOL    HW311474   0.931   2.629   4.171 -0.4487 -0.8670  0.0054
 2857SOL    MW411475   0.916   2.706   4.134  0.4261 -0.5910  0.2160
 2858SOL     OW11476   0.034   3.236   4.266  0.3148 -0.2623  0.0668
 2858SOL    HW211477   0.042   3.223   4.360  3.1825  1.7784  0.1622
 2858SOL    HW311478   0.021   3.330   4.256  0.6658 -0.3741 -1.6012
 2858SOL    MW411479   0.033   3.247   4.277  0.7394 -0.0076 -0.1407
 2859SOL     OW11480   3.384   3.607   4.297  0.0139  0.0496  0.1944
 2859SOL    HW211481   3.377   3.591   4.391  0.6146  0.0654  0.2459
 2859SOL    HW311482   3.471   3.573   4.274  0.9016  2.3181  0.1160
 2859SOL    MW411483   3.395   3.600   4.307  0.2103  0.3512  0.1907
 2860SOL     OW11484   1.136   0.628   4.540 -0.6298 -0.3828  0.3748
 2860SOL    HW211485   1.201   0.578   4.590 -0.1206 -0.0897  0.0068
 2860SOL    HW311486   1.132   0.583   4.455 -0.1659  0.1968  0.0396
 2860SOL    MW411487   1.144   0.615   4.535 -0.5013 -0.2677  0.2828
 2861SOL     OW11488   4.460   4.016   4.572 -0.4428  0.2563 -0.3188
 2861SOL    HW211489   4.489   4.094   4.619 -0.1264  0.0113 -0.0996
 2861SOL    HW311490   4.382   3.988   4.620  0.7981 -0.9260  1.0954
 2861SOL    MW411491   4.453   4.022   4.585 -0.2375  0.0682 -0.1035
 2862SOL     OW11492   3.132   2.933   4.535 -0.0210  0.7109 -0.5437
 2862SOL    HW211493   3.089   2.904   4.455  0.4497 -1.1369 -0.1571
 2862SOL    HW311494   3.191   2.861   4.558  1.2951  2.0558  0.3936
 2862SOL    MW411495   3.134   2.919   4.528  0.2148  0.6447 -0.3691
 2863SOL     OW11496   2.833   1.330   4.279  0.9931 -0.3145  0.7334
 2863SOL    HW211497   2.773   1.270   4.234  1.2852 -0.8636  1.0631
 2863SOL    HW311498   2.909   1.276   4.299  1.6057  0.3828  0.3038
 2863SOL    MW411499   2.835   1.315   4.276  1.1127 -0.2950  0.7205
 2864SOL     OW11500   2.008   1.555   4.146  0.6117  0.1055 -0.2583
 2864SOL    HW211501   2.007   1.466   4.180  1.0921 -0.3592 -1.4557
 2864SOL    HW311502   1.923   1.591   4.173  0.3512 -0.7527  0.0976
 2864SOL    MW411503   1.997   1.548   4.154  0.6406 -0.0691 -0.3691
 2865SOL     OW11504   2.425   0.742   4.802  0.3122 -0.2006 -0.1125
 2865SOL    HW211505   2.356   0.705   4.747  1.9349  0.7140 -2.8880
 2865SOL    HW311506   2.489   0.671   4.811  0.4277 -0.0944 -0.0955
 2865SOL    MW411507   2.424   0.728   4.796  0.5414 -0.0659 -0.4764
 2866SOL     OW11508   2.811   2.825   4.568  0.0142  0.6270 -0.2690
 2866SOL    HW211509   2.720   2.846   4.547 -0.1205  0.1683 -0.1588
 2866SOL    HW311510   2.858   2.833   4.485 -0.0933  1.0415 -0.2893
 2866SOL    MW411511   2.805   2.828   4.554 -0.0179  0.6213 -0.2575
 2867SOL     OW11512   1.323   1.170   4.148 -0.0575 -0.2047 -0.1637
 2867SOL    HW211513   1.322   1.075   4.155 -0.8204 -0.4659 -3.0908
 2867SOL    HW311514   1.329   1.187   4.054 -0.7452  2.6297  0.2571
 2867SOL    MW411515   1.324   1.160   4.137 -0.2489  0.1348 -0.4945
 2868SOL     OW11516   4.268   2.278   4.719 -0.5219  0.5973  0.3509
 2868SOL    HW211517   4.344   2.326   4.752 -0.4136  1.5974 -1.2734
 2868SOL    HW311518   4.196   2.341   4.724 -1.5416 -0.6981  2.9458
 2868SOL    MW411519   4.269   2.293   4.724 -0.6418  0.5584  0.4787
 2869SOL     OW11520   1.778   3.435   4.583  0.2664  0.0177 -0.2627
 2869SOL    HW211521   1.709   3.473   4.528  1.1583 -1.0969 -2.1896
 2869SOL    HW311522   1.854   3.491   4.567  0.5896 -0.4434 -0.3427
 2869SOL    MW411523   1.779   3.448   4.573  0.4268 -0.1900 -0.5274
 2870SOL     OW11524   3.081   3.369   4.655  0.1418  0.0369  0.0609
 2870SOL    HW211525   3.130   3.305   4.604 -0.2368  0.4796 -0.8708
 2870SOL    HW311526   3.001   3.324   4.680 -1.2014  0.8689 -2.5868
 2870SOL    MW411527   3.077   3.355   4.652 -0.0856  0.2050 -0.4115
 2871SOL     OW11528   3.290   0.505   4.247 -0.3147  0.3245 -0.2920
 2871SOL    HW211529   3.375   0.471   4.219  1.1312  1.6473  2.3307
 2871SOL    HW311530   3.281   0.588   4.200 -0.3813 -0.0227 -0.9018
 2871SOL    MW411531   3.300   0.512   4.237 -0.1326  0.4532 -0.0262
 2872SOL     OW11532   4.263   3.667   4.273 -0.2647  0.2413  0.3250
 2872SOL    HW211533   4.192   3.613   4.237  0.0526  0.6121 -0.8719
 2872SOL    HW311534   4.247   3.667   4.368 -1.7549  0.1708  0.0848
 2872SOL    MW411535   4.252   3.660   4.281 -0.4191  0.2811  0.1354
 2873SOL     OW11536   0.292   2.974   4.656  0.0253 -0.1398  0.0789
 2873SOL    HW211537   0.354   3.038   4.622 -1.2073  0.6721 -0.6535
 2873SOL    HW311538   0.217   3.025   4.686  0.1022 -1.0314  1.8950
 2873SOL    MW411539   0.290   2.989   4.655 -0.1272 -0.1507  0.2213
 2874SOL     OW11540   4.257   4.366   4.766  0.1126  0.3010  0.4296
 2874SOL    HW211541   4.345   4.338   4.741  0.5219  1.4816  0.4929
 2874SOL    HW311542   4.250   4.456   4.732 -0.7163  0.5541  1.2387
 2874SOL    MW411543   4.267   4.374   4.758  0.0572  0.4902  0.5445
 2875SOL     OW11544   4.070   3.484   4.220  0.0253 -0.4465  0.0812
 2875SOL    HW211545   4.094   3.395   4.247  0.4299 -0.0096  1.1962
 2875SOL    HW311546   4.045   3.475   4.128  0.8524 -1.5639 -0.0464
 2875SOL    MW411547   4.070   3.471   4.211  0.1879 -0.5362  0.2117
 2876SOL     OW11548   2.761   0.936   4.821 -0.1771 -0.5472 -0.1859
 2876SOL    HW211549   2.827   1.004   4.834 -0.0048 -0.8523  0.5387
 2876SOL    HW311550   2.811   0.858   4.801 -0.3547 -0.5716 -0.5271
 2876SOL    MW411551   2.776   0.935   4.820 -0.1776 -0.5907 -0.1354
 2877SOL     OW11552   2.045   0.200   4.689  0.2132  0.3373 -0.0239
 2877SOL    HW211553   1.971   0.159   4.644  0.0781  0.9738 -0.3857
 2877SOL    HW311554   2.058   0.146   4.767 -1.6224  1.0823  0.8449
 2877SOL    MW411555   2.037   0.188   4.693 -0.0467  0.5196  0.0424
 2878SOL     OW11556   3.777   0.727   4.190  0.5157  0.0628 -0.2019
 2878SOL    HW211557   3.864   0.748   4.224  0.8857 -2.2357  0.3836
 2878SOL    HW311558   3.786   0.734   4.095  1.0195  0.9267 -0.1009
 2878SOL    MW411559   3.790   0.731   4.182  0.6309 -0.1265 -0.1116
 2879SOL     OW11560   0.467   3.238   4.252 -0.2260  0.0590  0.3723
 2879SOL    HW211561   0.460   3.328   4.219  1.3227 -0.4474 -1.4556
 2879SOL    HW311562   0.389   3.194   4.220 -0.7529  0.6405  0.8650
 2879SOL    MW411563   0.456   3.244   4.243 -0.0912  0.0689  0.1965
 2880SOL     OW11564   3.704   2.334   4.532 -0.0658 -0.1892  0.4212
 2880SOL    HW211565   3.742   2.421   4.541  0.6624 -0.5378  0.6669
 2880SOL    HW311566   3.698   2.320   4.437 -0.5004  0.2610  0.3777
 2880SOL    MW411567   3.708   2.343   4.520 -0.0269 -0.1757  0.4478
 2881SOL     OW11568   0.945   2.471   4.265  0.0708  0.2347  0.0865
 2881SOL    HW211569   0.859   2.433   4.247 -0.2509  0.6571  0.7074
 2881SOL    HW311570   0.935   2.512   4.351  1.1448 -0.4941  0.5693
 2881SOL    MW411571   0.933   2.471   4.274  0.1701  0.1943  0.2317
 2882SOL     OW11572   3.875   3.063   4.195  0.1400 -0.1745 -0.1113
 2882SOL    HW211573   3.877   3.058   4.099  0.4372 -1.0539 -0.0652
 2882SOL    HW311574   3.828   2.984   4.222  0.6752 -0.2944  0.4887
 2882SOL    MW411575   3.869   3.052   4.186  0.2501 -0.3061 -0.0257
 2883SOL     OW11576   4.265   1.534   4.635 -0.3653  0.1559 -0.0275
 2883SOL    HW211577   4.221   1.487   4.706 -0.8397 -0.6103 -0.8150
 2883SOL    HW311578   4.212   1.515   4.558  0.5443  0.4064 -0.7226
 2883SOL    MW411579   4.252   1.525   4.634 -0.3080  0.0879 -0.2227
 2884SOL     OW11580   3.959   4.285   4.175  0.2525 -0.5080  0.2066
 2884SOL    HW211581   3.958   4.191   4.193 -0.1275 -0.4187  0.6869
 2884SOL    HW311582   4.040   4.316   4.216  0.0737 -0.5310  0.5830
 2884SOL    MW411583   3.970   4.277   4.183  0.1791 -0.4992  0.3195
 2885NA      NA11584   2.716   3.319   0.498  0.1389  0.0517  0.1525
   4.49070   4.66690  10.00000
