Gromacs Runs On Most of All Computer Systems in water
11558
    1RG35     P    1   1.850   2.767   4.473 -0.2220 -0.7468 -0.1528
    1RG35   O1P    2   1.993   2.771   4.445 -0.2903 -0.5643 -0.7503
    1RG35   O2P    3   1.771   2.691   4.375  0.2300  0.6243 -0.2972
    1RG35   O5'    4   1.848   2.690   4.612  0.4504  0.4984  0.5789
    1RG35   C5'    5   1.725   2.679   4.681 -0.6328 -0.9535  0.1843
    1RG35  H5'1    6   1.652   2.619   4.627 -0.2484 -0.6603 -0.6636
    1RG35  H5'2    7   1.692   2.780   4.705  2.6115 -0.2222  1.9729
    1RG35   C4'    8   1.736   2.607   4.814 -0.2605  0.0154 -0.3297
    1RG35   H4'    9   1.644   2.626   4.868  0.4995  0.0130  0.9918
    1RG35   O4'   10   1.767   2.464   4.793  0.2226 -0.0169  0.5078
    1RG35   C1'   11   1.889   2.426   4.867 -0.3424  0.2158 -0.2234
    1RG35   H1'   12   1.859   2.401   4.969 -0.4818  1.5334  0.0687
    1RG35    N9   13   1.964   2.320   4.800  0.2576  0.4908 -0.3863
    1RG35    C8   14   2.095   2.310   4.758 -0.8523 -0.3978 -0.1149
    1RG35    H8   15   2.170   2.383   4.781  0.6918 -2.3726  1.2426
    1RG35    N7   16   2.121   2.195   4.692  0.8393 -0.5776  0.0409
    1RG35    C5   17   1.997   2.133   4.682  0.1953  0.3818 -0.6622
    1RG35    C6   18   1.958   2.001   4.628  0.5072 -0.3654 -0.2266
    1RG35    O6   19   2.028   1.917   4.572 -0.0623 -0.5030 -0.0452
    1RG35    N1   20   1.827   1.967   4.645  1.0563 -0.2592  0.3384
    1RG35    H1   21   1.796   1.877   4.612  0.2935  1.1087 -2.8250
    1RG35    C2   22   1.734   2.047   4.707  0.4167 -0.1539  0.0721
    1RG35    N2   23   1.613   2.002   4.715 -0.0263 -0.4545  0.0217
    1RG35   H21   24   1.589   1.910   4.682 -1.2196  0.6772 -2.3951
    1RG35   H22   25   1.544   2.068   4.748 -0.0746 -0.6406  0.3007
    1RG35    N3   26   1.768   2.161   4.768 -0.5208  0.3349  0.0608
    1RG35    C4   27   1.899   2.204   4.751  0.4518  0.0607 -0.5346
    1RG35   C3'   28   1.857   2.662   4.890  0.2065  0.1925 -0.0192
    1RG35   H3'   29   1.897   2.754   4.846  1.2670  0.0243  0.5550
    1RG35   C2'   30   1.969   2.555   4.873 -0.0807 -0.2677 -0.1184
    1RG35  H2'1   31   2.014   2.583   4.778 -2.2661  1.5187 -0.6560
    1RG35   O2'   32   2.063   2.568   4.980  0.1062 -0.1278  0.2467
    1RG35  HO'2   33   2.114   2.646   4.960 -0.6215  0.7932  1.8951
    1RG35   O3'   34   1.826   2.682   5.031 -0.1653  0.3421  0.3727
    1RG35   H3T   35   1.894   2.642   5.085  0.7239  0.2787 -0.7771
    1RG35   O3P   36   1.790   2.900   4.498 -0.1650 -0.1250 -0.4910
    1SOL     OW   37   0.256   0.638   0.532  0.5040  0.2310 -0.1289
    1SOL    HW2   38   0.240   0.554   0.489  0.9516  0.2454 -0.3234
    1SOL    HW3   39   0.247   0.618   0.625  0.3804  0.0153 -0.1857
    1SOL    MW4   40   0.253   0.624   0.539  0.5467  0.2045 -0.1621
    1SOL     OW   41   0.128   0.816   0.366 -0.1265  0.0778  0.0270
    1SOL    HW2   42   0.070   0.763   0.312  0.4843 -0.5735  0.0086
    1SOL    HW3   43   0.171   0.754   0.425  0.5095  0.5553  0.0782
    1SOL    MW4   44   0.126   0.801   0.367  0.0380  0.0548  0.0313
    1SOL     OW   45   4.413   4.437   0.500 -0.2992 -0.5356  0.3816
    1SOL    HW2   46   4.383   4.440   0.591 -0.7557 -2.7239  0.3410
    1SOL    HW3   47   4.342   4.395   0.453  0.2672 -0.1266 -0.8452
    1SOL    MW4   48   4.400   4.432   0.506 -0.2851 -0.7706  0.2143
    1SOL     OW   49   0.012   1.726   0.366  0.7881 -0.3889 -0.1862
    1SOL    HW2   50   0.026   1.634   0.390  1.2155 -0.3672 -0.3566
    1SOL    HW3   51   0.073   1.774   0.422 -0.9900 -0.0306  1.5087
    1SOL    MW4   52   0.022   1.720   0.377  0.6094 -0.3388  0.0149
    1SOL     OW   53   0.840   0.859   0.584 -0.1904  0.2162 -0.0548
    1SOL    HW2   54   0.859   0.861   0.678 -0.0132  0.1509 -0.0880
    1SOL    HW3   55   0.818   0.768   0.565 -0.5222  0.2881 -0.0208
    1SOL    MW4   56   0.840   0.847   0.594 -0.2108  0.2170 -0.0547
    1SOL     OW   57   0.542   1.524   0.489  0.3011 -0.0659  0.0881
    1SOL    HW2   58   0.469   1.477   0.529  0.2360  0.6691  0.8539
    1SOL    HW3   59   0.584   1.460   0.432 -0.0653 -0.9061  0.7592
    1SOL    MW4   60   0.538   1.510   0.487  0.2442 -0.0796  0.2777
    1SOL     OW   61   0.786   1.627   0.583 -0.1255  0.1534 -0.1919
    1SOL    HW2   62   0.816   1.538   0.602 -0.5012 -0.0110 -0.3598
    1SOL    HW3   63   0.696   1.616   0.553 -0.6961  0.7186  1.2652
    1SOL    MW4   64   0.778   1.614   0.582 -0.2504  0.2062 -0.0218
    1SOL     OW   65   0.888   0.928   0.848  0.3680  0.1900 -0.0957
    1SOL    HW2   66   0.973   0.886   0.860  0.6223  0.7209  0.0013
    1SOL    HW3   67   0.824   0.860   0.867  0.7738  0.1509  1.1636
    1SOL    MW4   68   0.890   0.914   0.852  0.4550  0.2549  0.0832
    1SOL     OW   69   0.207   0.363   0.483  0.4333  0.0925 -0.0793
    1SOL    HW2   70   0.194   0.372   0.577 -0.1621  0.7712 -0.2232
    1SOL    HW3   71   0.120   0.343   0.449  0.2288  2.0046 -0.7406
    1SOL    MW4   72   0.194   0.361   0.491  0.3278  0.4344 -0.1855
    1SOL     OW   73   4.436   0.325   0.436  0.1839  0.0031 -0.3099
    1SOL    HW2   74   4.363   0.381   0.461  0.2421 -0.0718  0.0283
    1SOL    HW3   75   4.408   0.237   0.457 -0.0819 -0.1446 -1.2618
    1SOL    MW4   76   4.423   0.321   0.442  0.1564 -0.0262 -0.3909
    1SOL     OW   77   0.455   0.868   0.797 -0.1898 -0.0673  0.2103
    1SOL    HW2   78   0.462   0.950   0.846 -0.5406  0.0420  0.0788
    1SOL    HW3   79   0.371   0.831   0.825 -0.4827  0.0907 -0.4603
    1SOL    MW4   80   0.445   0.874   0.807 -0.2747 -0.0320  0.1045
    1SOL     OW   81   1.290   0.616   0.489 -0.0899 -0.1173 -0.0975
    1SOL    HW2   82   1.373   0.588   0.526  0.0379  0.8839  0.3658
    1SOL    HW3   83   1.298   0.598   0.395  0.7574  0.2778 -0.0973
    1SOL    MW4   84   1.302   0.610   0.481  0.0387  0.0669 -0.0363
    1SOL     OW   85   0.612   1.968   0.502  0.2059  0.5903 -0.5299
    1SOL    HW2   86   0.615   2.011   0.587  1.0411  0.0408 -0.2775
    1SOL    HW3   87   0.564   1.887   0.517  1.0556  0.1011 -0.3957
    1SOL    MW4   88   0.606   1.963   0.515  0.4282  0.4532 -0.4789
    1SOL     OW   89   0.030   3.091   0.462 -0.2714  0.0023 -0.1503
    1SOL    HW2   90  -0.048   3.039   0.482 -0.7951  0.3089 -1.3436
    1SOL    HW3   91   0.101   3.028   0.457 -0.5567 -0.3549  0.3539
    1SOL    MW4   92   0.029   3.076   0.464 -0.3777 -0.0043 -0.2412
    1SOL     OW   93   3.619   2.796   0.459  0.2515 -0.0129 -0.2926
    1SOL    HW2   94   3.591   2.772   0.371 -0.6344  0.6875 -0.2125
    1SOL    HW3   95   3.655   2.715   0.496 -1.4936 -0.9101 -0.4927
    1SOL    MW4   96   3.620   2.782   0.452 -0.0956 -0.0386 -0.3084
    1SOL     OW   97   4.052   3.313   0.551  0.0035 -0.3083 -0.2841
    1SOL    HW2   98   4.056   3.291   0.644 -0.0378 -1.0489 -0.4511
    1SOL    HW3   99   3.996   3.390   0.547  0.7826  0.2921  0.3972
    1SOL    MW4  100   4.045   3.320   0.562  0.1011 -0.3269 -0.2162
    1SOL     OW  101   0.064   3.834   0.579  0.1964  0.0308  0.6393
    1SOL    HW2  102   0.102   3.748   0.597 -0.5613 -0.0274  1.9894
    1SOL    HW3  103  -0.024   3.816   0.547  0.8436  0.2247 -1.3704
    1SOL    MW4  104   0.058   3.821   0.577  0.1818  0.0486  0.5522
    1SOL     OW  105   4.022   4.051   0.586  0.1825  0.1092 -0.6303
    1SOL    HW2  106   4.052   4.139   0.563  0.3849  0.0615 -0.5463
    1SOL    HW3  107   4.042   4.042   0.679  0.8542 -0.3057 -0.8118
    1SOL    MW4  108   4.029   4.062   0.595  0.2980  0.0482 -0.6432
    1SOL     OW  109   2.992   2.597   0.555  0.0566 -0.1979 -0.4383
    1SOL    HW2  110   2.950   2.681   0.537  1.1147  0.6560  0.9834
    1SOL    HW3  111   2.920   2.535   0.563 -0.6796  0.2643 -2.9324
    1SOL    MW4  112   2.977   2.600   0.554  0.0992 -0.0241 -0.5798
    1SOL     OW  113   4.422   0.934   0.546 -0.1227  0.1042 -0.3319
    1SOL    HW2  114   4.414   1.027   0.525 -0.8350 -0.2741 -1.8770
    1SOL    HW3  115   4.490   0.902   0.486  0.3980 -0.2817  0.4680
    1SOL    MW4  116   4.430   0.942   0.535 -0.1483  0.0035 -0.4303
    1SOL     OW  117   3.380   4.496   0.824  0.2590  0.0343 -0.4058
    1SOL    HW2  118   3.287   4.498   0.800 -0.1561  0.6825  1.2583
    1SOL    HW3  119   3.397   4.581   0.864  1.3258 -0.4807  0.2575
    1SOL    MW4  120   3.370   4.507   0.826  0.3450  0.0515 -0.0988
    1SOL     OW  121   0.447   4.652   0.550  0.2048  0.0098 -0.5134
    1SOL    HW2  122   0.523   4.595   0.543 -0.3918 -1.0053  0.9923
    1SOL    HW3  123   0.476   4.736   0.514  1.6910 -0.6783 -0.9568
    1SOL    MW4  124   0.461   4.656   0.544  0.3222 -0.2146 -0.3732
    1SOL     OW  125   2.031   2.778   0.551 -0.3103 -0.1898  0.1940
    1SOL    HW2  126   2.015   2.812   0.639 -0.7144  0.0658  0.0266
    1SOL    HW3  127   2.115   2.816   0.525 -0.5044  0.2604  0.2149
    1SOL    MW4  128   2.040   2.787   0.559 -0.3891 -0.0968  0.1747
    1SOL     OW  129   3.737   3.027   0.560 -0.4286 -0.7562  0.0192
    1SOL    HW2  130   3.759   2.999   0.649  0.7153 -0.1716 -0.0751
    1SOL    HW3  131   3.685   2.955   0.524  1.2730 -2.1151  0.2578
    1SOL    MW4  132   3.733   3.014   0.567 -0.0532 -0.8585  0.0383
    1SOL     OW  133   0.656   4.446   0.527  0.1695  0.8124  0.1188
    1SOL    HW2  134   0.680   4.428   0.618 -1.4697  1.9047  0.8060
    1SOL    HW3  135   0.595   4.376   0.503  0.3078  0.7363 -0.0115
    1SOL    MW4  136   0.651   4.435   0.536 -0.0286  0.9470  0.1922
    1SOL     OW  137   1.224   4.067   0.548  0.2785 -0.3407 -0.1077
    1SOL    HW2  138   1.269   4.061   0.632  0.4888  0.0648 -0.1880
    1SOL    HW3  139   1.208   3.977   0.523 -0.7682 -0.4465  0.8942
    1SOL    MW4  140   1.228   4.055   0.556  0.1681 -0.3018  0.0139
    1SOL     OW  141   0.284   1.321   0.563 -0.3615  0.3017 -0.1433
    1SOL    HW2  142   0.340   1.256   0.520 -1.7958 -0.9366 -0.1831
    1SOL    HW3  143   0.284   1.294   0.655  0.1326  1.0681  0.0885
    1SOL    MW4  144   0.291   1.309   0.570 -0.4855  0.2394 -0.1180
    1SOL     OW  145   1.132   3.162   0.550 -0.4299 -0.5769 -0.0792
    1SOL    HW2  146   1.052   3.214   0.554 -1.2269 -1.7277 -0.6150
    1SOL    HW3  147   1.172   3.184   0.466  0.5037  0.9683  0.7562
    1SOL    MW4  148   1.126   3.172   0.539 -0.4117 -0.5250 -0.0397
    1SOL     OW  149   0.466   0.227   0.404 -0.5192  0.1227  0.0004
    1SOL    HW2  150   0.395   0.281   0.438 -1.8482 -0.9199 -1.0534
    1SOL    HW3  151   0.423   0.169   0.341  1.2932 -0.4475 -0.7274
    1SOL    MW4  152   0.451   0.227   0.400 -0.4555 -0.0901 -0.2347
    1SOL     OW  153   4.418   0.636   0.262  0.1025  0.1464 -0.1728
    1SOL    HW2  154   4.337   0.683   0.276 -0.4271 -0.6061 -0.6828
    1SOL    HW3  155   4.403   0.549   0.301  0.2991 -0.3302 -1.1373
    1SOL    MW4  156   4.406   0.630   0.269  0.0587 -0.0157 -0.3674
    1SOL     OW  157   4.203   1.554   0.914  0.3863 -0.3017 -0.2906
    1SOL    HW2  158   4.233   1.561   1.004  0.8763 -1.9838 -0.3167
    1SOL    HW3  159   4.279   1.577   0.861  0.6094 -1.0703 -0.3032
    1SOL    MW4  160   4.217   1.558   0.919  0.4802 -0.6249 -0.2958
    1SOL     OW  161   1.072   1.232   0.550  0.0316 -0.2209  0.4964
    1SOL    HW2  162   1.154   1.259   0.508 -0.0134 -0.5015  0.2338
    1SOL    HW3  163   1.081   1.262   0.641 -0.1735  1.0077  0.1160
    1SOL    MW4  164   1.084   1.240   0.557 -0.0013 -0.0957  0.4116
    1SOL     OW  165   0.417   1.670   0.834 -0.2322  0.6364  0.1472
    1SOL    HW2  166   0.494   1.624   0.867 -0.7162  0.2964  0.8298
    1SOL    HW3  167   0.429   1.760   0.863 -0.4387  0.4316  0.9070
    1SOL    MW4  168   0.429   1.676   0.842 -0.3233  0.5643  0.3375
    1SOL     OW  169   0.993   1.016   0.400 -0.3363  0.1308  0.6279
    1SOL    HW2  170   1.013   1.094   0.452  1.8790 -1.4547  2.2438
    1SOL    HW3  171   0.943   0.960   0.459 -1.0796 -0.1004 -0.2099
    1SOL    MW4  172   0.989   1.019   0.414 -0.1421 -0.1090  0.7305
    1SOL     OW  173   0.665   2.688   0.673 -0.0962  0.6578  0.3357
    1SOL    HW2  174   0.599   2.700   0.742 -0.4668 -1.0686  0.3101
    1SOL    HW3  175   0.613   2.683   0.592  0.2618  1.7001  0.0382
    1SOL    MW4  176   0.649   2.689   0.671 -0.0979  0.5672  0.2931
    1SOL     OW  177   4.469   2.203   0.393  0.2570  0.4513 -0.1092
    1SOL    HW2  178   4.558   2.190   0.427 -0.2122 -0.6648  0.7148
    1SOL    HW3  179   4.454   2.127   0.336  0.4116  1.4477 -1.5035
    1SOL    MW4  180   4.479   2.191   0.390  0.2151  0.4354 -0.1845
    1SOL     OW  181   2.304   2.369   0.545 -0.2598 -0.4997  0.4619
    1SOL    HW2  182   2.371   2.433   0.519 -1.4154  0.9628  1.0269
    1SOL    HW3  183   2.294   2.382   0.639 -0.8445 -1.1874  0.4970
    1SOL    MW4  184   2.312   2.379   0.554 -0.4897 -0.3974  0.5410
    1SOL     OW  185   0.216   2.889   0.538  0.3313 -0.5055  0.4363
    1SOL    HW2  186   0.304   2.908   0.506  0.0828 -0.5588 -0.2803
    1SOL    HW3  187   0.195   2.803   0.502 -1.2057  0.7934 -1.9279
    1SOL    MW4  188   0.224   2.880   0.529  0.0957 -0.3412  0.0299
    1SOL     OW  189   0.186   2.616   0.441 -0.2131 -0.4860 -0.2895
    1SOL    HW2  190   0.160   2.591   0.530  0.5792  0.3655  0.1936
    1SOL    HW3  191   0.123   2.571   0.384 -0.6301 -1.1663  0.6896
    1SOL    MW4  192   0.174   2.607   0.445 -0.1635 -0.4632 -0.0966
    1SOL     OW  193   0.936   2.323   0.615 -0.0485 -0.1039  0.1760
    1SOL    HW2  194   0.920   2.283   0.530  0.6982 -0.7433  0.3308
    1SOL    HW3  195   0.981   2.255   0.666  0.7207  0.7282  0.6264
    1SOL    MW4  196   0.940   2.309   0.611  0.1514 -0.0787  0.2559
    1SOL     OW  197   1.757   3.959   0.575 -0.1033  0.1222  0.7491
    1SOL    HW2  198   1.809   3.905   0.516  1.2507  0.8077  1.2739
    1SOL    HW3  199   1.667   3.928   0.564  0.1427  0.1417 -1.5367
    1SOL    MW4  200   1.752   3.948   0.566  0.1079  0.2153  0.5168
    1SOL     OW  201   0.365   3.896   0.559 -0.2613 -0.0469  0.3191
    1SOL    HW2  202   0.394   3.952   0.631 -0.3207 -1.6286  1.6119
    1SOL    HW3  203   0.272   3.915   0.549 -0.1802  0.4152  0.4592
    1SOL    MW4  204   0.356   3.906   0.568 -0.2585 -0.1945  0.5081
    1SOL     OW  205   0.243   2.851   0.800  0.2549 -0.1517 -0.2729
    1SOL    HW2  206   0.233   2.859   0.705  0.7507 -1.8591 -0.4846
    1SOL    HW3  207   0.156   2.825   0.831  0.7251 -2.1427 -0.5768
    1SOL    MW4  208   0.230   2.849   0.792  0.3824 -0.6394 -0.3409
    1SOL     OW  209   1.104   3.589   0.863 -0.4341 -0.0251  0.3377
    1SOL    HW2  210   1.195   3.565   0.881 -0.4846  0.2793  1.0240
    1SOL    HW3  211   1.097   3.587   0.767  0.5474  0.8782  0.2398
    1SOL    MW4  212   1.115   3.585   0.853 -0.3114  0.1342  0.4153
    1SOL     OW  213   1.094   0.317   0.390 -0.0203  0.4894  0.5475
    1SOL    HW2  214   1.056   0.230   0.404 -0.6752  0.5773 -0.6553
    1SOL    HW3  215   1.058   0.370   0.462 -0.3996  0.0148  0.7143
    1SOL    MW4  216   1.084   0.313   0.401 -0.1568  0.4384  0.4108
    1SOL     OW  217   4.299   3.711   0.543  0.2837 -0.2261  0.3733
    1SOL    HW2  218   4.310   3.630   0.494 -0.3015  0.3240 -0.6869
    1SOL    HW3  219   4.292   3.683   0.634  2.5741 -1.1729  0.2849
    1SOL    MW4  220   4.299   3.697   0.548  0.5083 -0.2785  0.2218
    1SOL     OW  221   0.490   0.738   0.412  0.2733 -0.4297  0.3055
    1SOL    HW2  222   0.415   0.708   0.463 -0.9223  0.0344 -1.1486
    1SOL    HW3  223   0.509   0.825   0.448 -0.6637 -0.0373 -0.1263
    1SOL    MW4  224   0.483   0.746   0.424 -0.0081 -0.3167  0.0567
    1SOL     OW  225   1.232   4.602   0.364 -0.1013  0.3654  0.2921
    1SOL    HW2  226   1.217   4.606   0.270  0.8538 -0.6895  0.0766
    1SOL    HW3  227   1.165   4.542   0.397 -0.1582  0.3902  0.2219
    1SOL    MW4  228   1.222   4.594   0.356  0.0173  0.2294  0.2544
    1SOL     OW  229   1.223   1.626   0.391 -0.4392  0.2872  0.1135
    1SOL    HW2  230   1.138   1.663   0.368 -0.7981 -0.6242 -0.0236
    1SOL    HW3  231   1.221   1.537   0.357  0.4206  0.1334  0.4528
    1SOL    MW4  232   1.212   1.619   0.384 -0.3732  0.1465  0.1402
    1SOL     OW  233   4.461   1.560   0.764  0.7856 -0.1896 -0.1229
    1SOL    HW2  234   4.479   1.654   0.756  0.3682 -0.1171 -0.2071
    1SOL    HW3  235   4.468   1.527   0.675 -0.4674  0.0129 -0.3033
    1SOL    MW4  236   4.464   1.568   0.751  0.5651 -0.1532 -0.1577
    1SOL     OW  237   1.597   0.933   0.760  0.1159  0.3555 -0.1846
    1SOL    HW2  238   1.631   1.019   0.786  0.5354  0.1621 -0.1064
    1SOL    HW3  239   1.503   0.948   0.749 -0.1633  0.2911  2.0329
    1SOL    MW4  240   1.589   0.947   0.762  0.1343  0.3215  0.1182
    1SOL     OW  241   2.377   1.203   0.695  0.1528  0.3573  0.2235
    1SOL    HW2  242   2.416   1.147   0.628 -1.1100 -1.3073  0.8374
    1SOL    HW3  243   2.331   1.271   0.645 -0.3179 -0.5520 -0.5968
    1SOL    MW4  244   2.376   1.205   0.679 -0.0758  0.0178  0.1963
    1SOL     OW  245   1.861   1.268   0.546  0.0997  0.4867  0.0381
    1SOL    HW2  246   1.829   1.358   0.555 -1.5402 -0.0226 -0.5077
    1SOL    HW3  247   1.901   1.248   0.630  0.6017  1.7679  0.1174
    1SOL    MW4  248   1.862   1.277   0.558 -0.0505  0.5884 -0.0235
    1SOL     OW  249   0.446   1.762   0.576  0.3305 -0.3931 -0.1257
    1SOL    HW2  250   0.429   1.750   0.670 -0.2814  0.3153 -0.1414
    1SOL    HW3  251   0.470   1.675   0.545  0.8551 -0.5619  0.7579
    1SOL    MW4  252   0.447   1.749   0.585  0.3189 -0.3220 -0.0111
    1SOL     OW  253   0.866   2.494   0.927 -0.0998 -0.2306  0.3597
    1SOL    HW2  254   0.824   2.430   0.986  1.2434 -0.9893  0.5114
    1SOL    HW3  255   0.960   2.478   0.937  0.1616 -0.5085 -2.1356
    1SOL    MW4  256   0.873   2.483   0.936  0.1119 -0.3676  0.0504
    1SOL     OW  257   1.266   2.122   0.435  0.0724  0.6241 -0.4883
    1SOL    HW2  258   1.314   2.042   0.412  1.2480  1.8039 -2.2391
    1SOL    HW3  259   1.327   2.171   0.490 -0.0059  1.0881 -0.8188
    1SOL    MW4  260   1.280   2.118   0.439  0.2172  0.8411 -0.7629
    1SOL     OW  261   1.009   0.512   0.556  0.4700  0.4550 -0.0400
    1SOL    HW2  262   0.933   0.554   0.517 -0.0946 -1.3049 -0.9017
    1SOL    HW3  263   1.081   0.573   0.542 -0.9165  2.5349  1.5343
    1SOL    MW4  264   1.008   0.525   0.549  0.2127  0.4972  0.0541
    1SOL     OW  265   0.813   1.954   0.318 -0.1466 -0.0192 -0.3365
    1SOL    HW2  266   0.753   1.954   0.393  0.6938 -0.7049  0.3427
    1SOL    HW3  267   0.757   1.937   0.243 -0.6651 -1.7200  0.4147
    1SOL    MW4  268   0.798   1.952   0.318 -0.1041 -0.3340 -0.1477
    1SOL     OW  269   0.476   2.187   0.370  0.3902  0.2764 -0.0199
    1SOL    HW2  270   0.541   2.256   0.365 -0.3666  1.0035 -0.0253
    1SOL    HW3  271   0.519   2.116   0.416  1.4347  0.4556 -0.7154
    1SOL    MW4  272   0.490   2.187   0.376  0.4282  0.3960 -0.1124
    1SOL     OW  273   0.949   1.247   0.222 -0.0380  0.2050  0.0825
    1SOL    HW2  274   0.967   1.157   0.252 -0.3203  1.0378  2.8953
    1SOL    HW3  275   0.971   1.246   0.129  1.1193 -2.4776  0.3388
    1SOL    MW4  276   0.954   1.235   0.214  0.0775 -0.0391  0.4874
    1SOL     OW  277   1.279   2.521   0.366  0.2971 -0.1506  0.5668
    1SOL    HW2  278   1.371   2.497   0.353 -0.0151 -0.8190 -0.4700
    1SOL    HW3  279   1.230   2.444   0.337 -0.5936  0.3105  0.8496
    1SOL    MW4  280   1.285   2.508   0.360  0.1384 -0.1776  0.4673
    1SOL     OW  281   0.893   1.992   0.904 -0.0123 -0.0556  0.1905
    1SOL    HW2  282   0.965   2.042   0.865  0.7809 -2.3039 -1.3153
    1SOL    HW3  283   0.909   1.994   0.998  0.9919  0.9902  0.0012
    1SOL    MW4  284   0.904   1.999   0.911  0.2249 -0.2143 -0.0331
    1SOL     OW  285   0.468   2.934   0.438 -0.1919 -0.0784 -0.0568
    1SOL    HW2  286   0.456   3.014   0.387  0.4673 -0.3275 -0.6172
    1SOL    HW3  287   0.561   2.933   0.460 -0.3217 -0.3731  0.4752
    1SOL    MW4  288   0.479   2.944   0.434 -0.1221 -0.1502 -0.0605
    1SOL     OW  289   1.076   2.146   0.773  0.0941  0.2837  0.5506
    1SOL    HW2  290   1.170   2.156   0.788  0.5197  0.6028 -2.0723
    1SOL    HW3  291   1.069   2.067   0.720 -1.1317  0.2774  0.7258
    1SOL    MW4  292   1.088   2.137   0.768 -0.0113  0.3250  0.2276
    1SOL     OW  293   0.734   2.916   0.512  0.4468 -0.1601  0.1393
    1SOL    HW2  294   0.737   2.850   0.582 -0.4088 -0.5160 -0.1573
    1SOL    HW3  295   0.826   2.929   0.490  0.5808 -2.2750 -0.7206
    1SOL    MW4  296   0.747   2.909   0.519  0.3515 -0.4861 -0.0132
    1SOL     OW  297   0.280   3.322   0.515  0.0806 -0.5592 -0.0225
    1SOL    HW2  298   0.340   3.319   0.590  0.6274  0.3851 -0.4226
    1SOL    HW3  299   0.196   3.293   0.551  0.7890 -2.0217  0.5104
    1SOL    MW4  300   0.277   3.318   0.530  0.2462 -0.6278 -0.0049
    1SOL     OW  301   1.682   4.411   0.516 -0.5543  0.0395  0.2919
    1SOL    HW2  302   1.605   4.379   0.470  0.0018 -1.0284  0.0800
    1SOL    HW3  303   1.663   4.395   0.609 -0.6354 -0.1174  0.2482
    1SOL    MW4  304   1.670   4.405   0.523 -0.4917 -0.1225  0.2581
    1SOL     OW  305   3.819   3.144   0.954 -0.1761  0.1456 -0.0500
    1SOL    HW2  306   3.744   3.198   0.930 -0.1309  1.1995  2.0171
    1SOL    HW3  307   3.894   3.187   0.914 -0.4357  0.2543 -0.4189
    1SOL    MW4  308   3.819   3.157   0.946 -0.2043  0.2990  0.1740
    1SOL     OW  309   1.265   1.802   0.791  0.2126 -0.1821  0.3886
    1SOL    HW2  310   1.226   1.725   0.832  0.9353  0.0956  1.6269
    1SOL    HW3  311   1.194   1.839   0.738 -0.0491 -1.8363 -0.4491
    1SOL    MW4  312   1.250   1.797   0.790  0.2733 -0.3638  0.4415
    1SOL     OW  313   0.686   3.311   0.458  0.3323 -0.1140 -0.2147
    1SOL    HW2  314   0.649   3.399   0.472  1.2223  0.5496 -1.8297
    1SOL    HW3  315   0.622   3.268   0.401 -0.3565 -0.7026  0.9953
    1SOL    MW4  316   0.672   3.317   0.452  0.3588 -0.1042 -0.2681
    1SOL     OW  317   1.520   0.480   0.539 -0.0035  0.1364  0.1282
    1SOL    HW2  318   1.518   0.480   0.634 -3.7763  0.5234  0.1344
    1SOL    HW3  319   1.544   0.390   0.515 -1.2771 -0.5716  1.4622
    1SOL    MW4  320   1.523   0.468   0.548 -0.6694  0.0941  0.3051
    1SOL     OW  321   1.419   4.366   0.448 -0.2541 -0.4232 -0.5454
    1SOL    HW2  322   1.360   4.310   0.499 -0.0435  0.7003  0.9560
    1SOL    HW3  323   1.371   4.448   0.439 -0.5944 -0.8454 -2.8098
    1SOL    MW4  324   1.405   4.369   0.454 -0.2712 -0.3309 -0.6460
    1SOL     OW  325   1.746   0.005   0.497 -0.2320 -0.1824 -0.0906
    1SOL    HW2  326   1.674   0.066   0.481  0.7433  1.3036  1.0662
    1SOL    HW3  327   1.713  -0.079   0.465 -2.7551  0.3185  1.0367
    1SOL    MW4  328   1.732   0.002   0.491 -0.4363  0.0798  0.2107
    1SOL     OW  329   2.759   1.706   0.549 -0.0901 -0.3313  0.0502
    1SOL    HW2  330   2.854   1.713   0.559  0.0770  1.4005 -2.3940
    1SOL    HW3  331   2.723   1.768   0.612  0.4695  0.2264 -0.1717
    1SOL    MW4  332   2.766   1.715   0.558  0.0057 -0.0293 -0.3015
    1SOL     OW  333   0.705   0.332   0.489 -0.3441 -0.0857 -0.5294
    1SOL    HW2  334   0.783   0.277   0.480  0.4073  0.8307  0.2917
    1SOL    HW3  335   0.636   0.283   0.443  0.4773 -1.3622 -0.4431
    1SOL    MW4  336   0.706   0.318   0.482 -0.1366 -0.1332 -0.4097
    1SOL     OW  337   2.050   0.893   0.711  0.0353 -0.5135  0.1987
    1SOL    HW2  338   2.096   0.897   0.628 -0.0356  1.9906  0.2642
    1SOL    HW3  339   2.102   0.947   0.770 -1.6177  0.2879  0.9508
    1SOL    MW4  340   2.063   0.900   0.708 -0.1924 -0.0774  0.3067
    1SOL     OW  341   2.725   0.572   0.533 -0.5177  0.3798 -0.5478
    1SOL    HW2  342   2.691   0.645   0.481  1.0886  1.1208 -0.6192
    1SOL    HW3  343   2.670   0.570   0.611 -0.1029  2.2076 -0.1724
    1SOL    MW4  344   2.714   0.582   0.536 -0.2513  0.7188 -0.5077
    1SOL     OW  345   1.575   1.790   0.589 -0.4770  0.4900  0.0925
    1SOL    HW2  346   1.499   1.742   0.622 -0.5099  0.1427 -0.4705
    1SOL    HW3  347   1.643   1.723   0.579 -0.3731  0.6450 -0.2435
    1SOL    MW4  348   1.574   1.775   0.592 -0.4678  0.4646 -0.0261
    1SOL     OW  349   3.420   0.473   0.581  0.0140  0.0298  0.1941
    1SOL    HW2  350   3.334   0.463   0.539 -0.4276  0.4107  0.9938
    1SOL    HW3  351   3.399   0.490   0.673  0.9585 -0.2023  0.4516
    1SOL    MW4  352   3.406   0.474   0.587  0.0806  0.0495  0.3336
    1SOL     OW  353   2.720   1.937   0.392  0.1690  0.3791 -0.0238
    1SOL    HW2  354   2.627   1.927   0.414 -0.0769 -0.5758 -1.4547
    1SOL    HW3  355   2.758   1.851   0.413  0.2751  0.0258 -1.6607
    1SOL    MW4  356   2.713   1.924   0.398  0.1507  0.2065 -0.4285
    1SOL     OW  357   4.088   0.112   0.566  0.4626  0.0498  0.0799
    1SOL    HW2  358   4.183   0.102   0.562  0.4161 -0.2569 -0.3058
    1SOL    HW3  359   4.054   0.035   0.522 -0.0117 -1.0181  2.2368
    1SOL    MW4  360   4.096   0.101   0.560  0.3943 -0.1315  0.3136
    1SOL     OW  361   1.347   3.166   0.319  0.0679  0.2252  0.5524
    1SOL    HW2  362   1.356   3.096   0.383 -1.0553  0.3060  0.8130
    1SOL    HW3  363   1.323   3.121   0.238 -1.1054  0.3183  0.8262
    1SOL    MW4  364   1.345   3.151   0.316 -0.2351  0.2482  0.6229
    1SOL     OW  365   1.549   2.464   0.444 -0.0197  0.2034 -0.4682
    1SOL    HW2  366   1.635   2.432   0.473  0.8518  0.3874 -2.7508
    1SOL    HW3  367   1.551   2.558   0.464 -0.5482 -0.1792  1.4536
    1SOL    MW4  368   1.561   2.472   0.450  0.0255  0.1771 -0.5158
    1SOL     OW  369   1.375   1.869   0.398  0.1705  0.1124 -0.3466
    1SOL    HW2  370   1.323   1.791   0.379  1.5107 -0.5136 -1.5371
    1SOL    HW3  371   1.448   1.837   0.452  0.3943  0.6374 -0.3357
    1SOL    MW4  372   1.378   1.854   0.403  0.3769  0.0992 -0.5022
    1SOL     OW  373   0.752   0.618   0.486  0.3520 -0.1340  0.6429
    1SOL    HW2  374   0.736   0.524   0.478  0.2664 -0.2418  1.9440
    1SOL    HW3  375   0.665   0.657   0.475  0.5869 -0.1000 -1.2558
    1SOL    MW4  376   0.738   0.610   0.483  0.3717 -0.1438  0.5641
    1SOL     OW  377   1.372   1.155   0.477  0.0859 -0.1544 -0.1426
    1SOL    HW2  378   1.466   1.137   0.482  0.0508  0.0820  1.3922
    1SOL    HW3  379   1.330   1.070   0.485  0.1251 -0.1309  0.2756
    1SOL    MW4  380   1.379   1.141   0.478  0.0863 -0.1200  0.1151
    1SOL     OW  381   0.944   3.361   0.573  0.2537 -0.0881 -0.1685
    1SOL    HW2  382   0.864   3.354   0.521  0.3592  1.5433 -0.5586
    1SOL    HW3  383   0.918   3.334   0.661 -0.4768 -0.5480 -0.5179
    1SOL    MW4  384   0.930   3.356   0.578  0.1712  0.0663 -0.2661
    1SOL     OW  385   2.198   0.907   0.458  0.2034  0.3684  0.0995
    1SOL    HW2  386   2.150   0.835   0.418  0.4954  0.4163 -0.3465
    1SOL    HW3  387   2.164   0.986   0.415  0.9889  0.3658 -0.5366
    1SOL    MW4  388   2.187   0.908   0.447  0.3455  0.3744 -0.0433
    1SOL     OW  389   1.200   1.350   0.321  0.0864  0.3723  0.8895
    1SOL    HW2  390   1.127   1.308   0.276  0.0946  1.8078 -0.5544
    1SOL    HW3  391   1.267   1.282   0.328 -0.2417 -0.1161 -0.5479
    1SOL    MW4  392   1.199   1.336   0.316  0.0442  0.4973  0.5094
    1SOL     OW  393   1.018   2.921   0.524 -0.0616 -0.0915  0.4611
    1SOL    HW2  394   1.071   2.999   0.540 -0.6058  0.3158  0.2917
    1SOL    HW3  395   1.079   2.859   0.483  0.1916  0.5078 -0.0860
    1SOL    MW4  396   1.033   2.923   0.521 -0.0999  0.0415  0.3665
    1SOL     OW  397   0.913   2.234   0.343 -0.1733 -0.1493  0.1514
    1SOL    HW2  398   0.832   2.284   0.329  0.7259  1.4079  0.3364
    1SOL    HW3  399   0.887   2.143   0.335 -1.7261  0.3708 -0.9998
    1SOL    MW4  400   0.899   2.229   0.340 -0.2596  0.1247  0.0239
    1SOL     OW  401   1.579   2.758   0.497 -0.3057 -0.2656 -0.3450
    1SOL    HW2  402   1.517   2.830   0.482 -1.4789 -0.7339  1.9903
    1SOL    HW3  403   1.578   2.745   0.592 -0.2369 -3.4659 -0.7266
    1SOL    MW4  404   1.571   2.766   0.508 -0.4514 -0.7496 -0.0873
    1SOL     OW  405   1.071   3.622   0.583  0.3680  0.1123  0.4927
    1SOL    HW2  406   1.009   3.695   0.578  0.8517  0.4134 -1.6796
    1SOL    HW3  407   1.019   3.545   0.564  0.3645  0.2053  0.1146
    1SOL    MW4  408   1.056   3.622   0.580  0.4314  0.1640  0.1562
    1SOL     OW  409   1.781   3.195   0.796 -0.0684  0.2503 -0.1887
    1SOL    HW2  410   1.719   3.127   0.822  1.3275 -1.0814 -0.2812
    1SOL    HW3  411   1.756   3.217   0.706 -0.9430  0.3553  0.0732
    1SOL    MW4  412   1.769   3.189   0.787  0.0005  0.0885 -0.1664
    1SOL     OW  413   2.322   3.225   0.564  0.8895  0.0628  0.9158
    1SOL    HW2  414   2.304   3.229   0.658 -2.2179  0.2583  0.3574
    1SOL    HW3  415   2.262   3.289   0.525  1.9601 -0.1933 -1.2283
    1SOL    MW4  416   2.312   3.234   0.571  0.6211  0.0548  0.5592
    1SOL     OW  417   1.873   4.193   0.526 -0.0023 -0.0435  0.2180
    1SOL    HW2  418   1.829   4.108   0.520  0.4683 -0.1093 -2.5882
    1SOL    HW3  419   1.801   4.257   0.532 -0.3660 -0.5461  1.4681
    1SOL    MW4  420   1.857   4.190   0.526  0.0117 -0.1183  0.0127
    1SOL     OW  421   1.310   0.147   0.526 -0.4777  0.5411 -0.0818
    1SOL    HW2  422   1.267   0.078   0.476 -0.6656  0.7827 -0.2627
    1SOL    HW3  423   1.259   0.226   0.506  0.7701  1.0809 -1.2805
    1SOL    MW4  424   1.298   0.149   0.516 -0.3378  0.6442 -0.2639
    1SOL     OW  425   2.469   4.315   0.777  0.0031 -0.2537 -0.3301
    1SOL    HW2  426   2.430   4.327   0.691  0.5711  0.8098 -0.4558
    1SOL    HW3  427   2.454   4.399   0.821  1.7039 -0.0026 -0.2086
    1SOL    MW4  428   2.461   4.328   0.772  0.3023 -0.0806 -0.3306
    1SOL     OW  429   0.911   4.517   0.442 -0.0451  0.6074 -0.2618
    1SOL    HW2  430   0.826   4.474   0.453  0.5916 -0.7088 -0.4269
    1SOL    HW3  431   0.974   4.445   0.434  1.1659  1.5655  0.4099
    1SOL    MW4  432   0.908   4.502   0.443  0.1988  0.5603 -0.1950
    1SOL     OW  433   2.931   3.604   0.828 -0.6753  0.5293 -0.0030
    1SOL    HW2  434   3.005   3.562   0.872 -0.5046  0.6847 -0.1399
    1SOL    HW3  435   2.957   3.607   0.736 -1.8069 -1.4377 -0.4049
    1SOL    MW4  436   2.944   3.599   0.822 -0.8023  0.2904 -0.0740
    1SOL     OW  437   2.348   0.819   0.897  0.1580 -0.0642  0.0504
    1SOL    HW2  438   2.294   0.898   0.901  0.9657  0.3921  2.5935
    1SOL    HW3  439   2.436   0.851   0.879  0.3703 -0.4573  0.3992
    1SOL    MW4  440   2.352   0.833   0.895  0.2928 -0.0559  0.4320
    1SOL     OW  441   2.524   1.295   0.356 -0.5021  0.5215 -0.0867
    1SOL    HW2  442   2.539   1.345   0.276 -1.0127 -0.1464 -0.6001
    1SOL    HW3  443   2.598   1.318   0.412 -0.3812  1.3402 -0.5708
    1SOL    MW4  444   2.536   1.305   0.353 -0.5536  0.5413 -0.2183
    1SOL     OW  445   3.103   4.460   0.782  0.2693 -0.5530 -0.3769
    1SOL    HW2  446   3.110   4.438   0.689  2.6549 -1.3403 -0.0313
    1SOL    HW3  447   3.081   4.377   0.824 -0.9382 -0.1697 -0.2330
    1SOL    MW4  448   3.101   4.446   0.775  0.4246 -0.6061 -0.3123
    1SOL     OW  449   2.284   0.591   0.720  0.1322  0.4369 -0.2490
    1SOL    HW2  450   2.252   0.521   0.777  0.4012 -0.6699 -1.4483
    1SOL    HW3  451   2.269   0.671   0.770  0.7562 -0.5548  1.5722
    1SOL    MW4  452   2.278   0.592   0.734  0.2499  0.1600 -0.1670
    1SOL     OW  453   2.249   2.941   0.526  0.3175  0.0769  0.1732
    1SOL    HW2  454   2.298   3.023   0.528  0.4997 -0.0546  1.7821
    1SOL    HW3  455   2.316   2.874   0.510  0.3759  0.0965  0.3374
    1SOL    MW4  456   2.265   2.943   0.524  0.3488  0.0622  0.4072
    1SOL     OW  457   1.278   0.464   0.247 -0.5391 -0.1749  0.5009
    1SOL    HW2  458   1.226   0.475   0.168 -0.5552  1.1063  0.6730
    1SOL    HW3  459   1.227   0.406   0.303 -1.0246 -0.2231 -0.0027
    1SOL    MW4  460   1.265   0.458   0.244 -0.6052 -0.0122  0.4571
    1SOL     OW  461   2.876   1.512   0.931 -0.2802 -0.3377 -0.3838
    1SOL    HW2  462   2.862   1.421   0.903  0.6115 -0.4843 -0.3773
    1SOL    HW3  463   2.962   1.535   0.895 -0.7507  0.6939 -0.8570
    1SOL    MW4  464   2.886   1.503   0.923 -0.2246 -0.2209 -0.4454
    1SOL     OW  465   1.807   2.931   0.462  0.2418  0.2175 -0.1323
    1SOL    HW2  466   1.730   2.875   0.475  0.3301 -0.0775 -0.8693
    1SOL    HW3  467   1.879   2.882   0.502  0.5702 -0.8310 -1.9345
    1SOL    MW4  468   1.806   2.917   0.469  0.2967  0.0401 -0.4673
    1SOL     OW  469   1.653   1.089   0.485 -0.1766 -0.1432  0.8363
    1SOL    HW2  470   1.715   1.159   0.504 -1.0754  0.3060  2.2444
    1SOL    HW3  471   1.696   1.010   0.516  0.5794 -0.1290 -0.1711
    1SOL    MW4  472   1.667   1.088   0.492 -0.1955 -0.0820  0.8892
    1SOL     OW  473   1.449   2.257   0.592 -0.1598  0.2318 -0.2035
    1SOL    HW2  474   1.531   2.215   0.616 -0.0677  0.5765  0.1023
    1SOL    HW3  475   1.475   2.335   0.544 -0.3568 -0.6137 -1.6991
    1SOL    MW4  476   1.463   2.262   0.589 -0.1736  0.1657 -0.3605
    1SOL     OW  477   0.970   1.746   0.418  0.2879  0.1557  0.4429
    1SOL    HW2  478   0.919   1.815   0.377 -0.6671 -0.9005 -0.1681
    1SOL    HW3  479   0.907   1.697   0.471  0.8992 -0.4284  0.6375
    1SOL    MW4  480   0.955   1.749   0.420  0.2426 -0.0609  0.3880
    1SOL     OW  481   3.310   1.555   0.454 -0.0724  0.3444 -0.4064
    1SOL    HW2  482   3.251   1.500   0.506  1.2545 -0.6037  0.1237
    1SOL    HW3  483   3.388   1.500   0.440  0.0441  0.9909 -2.4439
    1SOL    MW4  484   3.313   1.541   0.459  0.1180  0.3047 -0.6053
    1SOL     OW  485   1.130   2.456   0.957  0.3457  0.3327  0.4505
    1SOL    HW2  486   1.167   2.392   0.896 -1.1532 -0.3531  0.2381
    1SOL    HW3  487   1.147   2.419   1.044  1.3112  0.6674  0.4114
    1SOL    MW4  488   1.137   2.443   0.961  0.2754  0.2866  0.4172
    1SOL     OW  489   2.010   1.736   0.496  0.1158 -0.2712  0.4105
    1SOL    HW2  490   2.012   1.824   0.532  0.0100 -0.5884  1.2024
    1SOL    HW3  491   2.001   1.749   0.401  0.7203  0.5658  0.4669
    1SOL    MW4  492   2.009   1.749   0.488  0.1817 -0.2025  0.5224
    1SOL     OW  493   1.274   2.889   0.745 -0.4541 -0.2111 -0.1606
    1SOL    HW2  494   1.222   2.951   0.796 -0.6146 -0.7655  0.3600
    1SOL    HW3  495   1.272   2.808   0.797 -0.3732 -0.6922 -0.8962
    1SOL    MW4  496   1.267   2.886   0.759 -0.4648 -0.3476 -0.1889
    1SOL     OW  497   2.915   2.898   0.561  0.6064  0.0219  0.7436
    1SOL    HW2  498   2.852   2.926   0.494  1.0254 -0.1999  0.2498
    1SOL    HW3  499   2.996   2.942   0.537  1.0447 -0.9235  0.4602
    1SOL    MW4  500   2.917   2.908   0.549  0.7195 -0.1323  0.6410
    1SOL     OW  501   0.878   3.831   0.579  0.2010  0.4999 -0.1481
    1SOL    HW2  502   0.872   3.897   0.648 -1.9963  0.0263  0.1568
    1SOL    HW3  503   0.790   3.828   0.542  0.5965 -1.3986 -0.9771
    1SOL    MW4  504   0.865   3.839   0.583 -0.0367  0.1872 -0.2173
    1SOL     OW  505   2.146   3.673   0.558 -0.2106 -0.8166 -0.3286
    1SOL    HW2  506   2.234   3.706   0.575 -0.8427  0.7353  0.0224
    1SOL    HW3  507   2.111   3.650   0.645 -0.6470 -0.1291 -0.3185
    1SOL    MW4  508   2.153   3.674   0.572 -0.3514 -0.5214 -0.2809
    1SOL     OW  509   1.780   0.063   0.749 -0.2588  0.1941 -0.0955
    1SOL    HW2  510   1.761   0.032   0.661 -0.0169  1.1370 -0.4864
    1SOL    HW3  511   1.711   0.026   0.804 -1.1416  0.6509 -0.8998
    1SOL    MW4  512   1.769   0.054   0.745 -0.3433  0.3788 -0.2531
    1SOL     OW  513   1.612   3.601   0.555  0.0757  0.4268 -0.4560
    1SOL    HW2  514   1.550   3.533   0.528  0.5321  0.9530 -2.9429
    1SOL    HW3  515   1.561   3.681   0.554 -0.6461  0.0976  3.1682
    1SOL    MW4  516   1.597   3.602   0.552  0.0405  0.4530 -0.3060
    1SOL     OW  517   2.571   4.160   0.505 -0.1689 -0.6718 -0.1066
    1SOL    HW2  518   2.534   4.074   0.486 -1.0721 -0.4737  0.7287
    1SOL    HW3  519   2.499   4.221   0.489  0.1734 -0.1585  0.3056
    1SOL    MW4  520   2.557   4.157   0.500 -0.2429 -0.5779  0.0581
    1SOL     OW  521   2.685   0.262   0.482  0.2675  0.5654 -0.3325
    1SOL    HW2  522   2.695   0.355   0.504  1.3767  0.5138 -0.5466
    1SOL    HW3  523   2.764   0.242   0.431  0.3304 -0.6515  0.2438
    1SOL    MW4  524   2.697   0.272   0.478  0.4220  0.3980 -0.2847
    1SOL     OW  525   3.177   1.384   0.648  0.4040  0.5851  0.1590
    1SOL    HW2  526   3.167   1.457   0.709  0.6551  0.1425  0.7409
    1SOL    HW3  527   3.242   1.327   0.689  0.4364  0.1861 -0.4342
    1SOL    MW4  528   3.184   1.386   0.662  0.4416  0.4740  0.1575
    1SOL     OW  529   3.452   0.842   0.564  0.3985 -0.3568  0.5679
    1SOL    HW2  530   3.515   0.786   0.519 -0.1421 -1.7817  1.5685
    1SOL    HW3  531   3.484   0.846   0.654  0.5445  1.1396  0.4731
    1SOL    MW4  532   3.465   0.835   0.570  0.3464 -0.3474  0.6874
    1SOL     OW  533   1.749   0.639   0.434 -0.1329  0.0441  0.4052
    1SOL    HW2  534   1.753   0.719   0.487  1.8518 -1.3926  2.5032
    1SOL    HW3  535   1.660   0.607   0.446 -0.3852  0.9580  1.0607
    1SOL    MW4  536   1.738   0.645   0.443  0.0957 -0.0249  0.7685
    1SOL     OW  537   4.112   1.194   0.341 -0.3588  0.2120 -0.2531
    1SOL    HW2  538   4.082   1.193   0.250  0.9767 -1.7042 -0.6941
    1SOL    HW3  539   4.052   1.136   0.387 -0.7793  0.8540  0.0130
    1SOL    MW4  540   4.100   1.186   0.335 -0.2375  0.0439 -0.2761
    1SOL     OW  541   2.484   1.554   0.956  0.3417  0.3408  0.2701
    1SOL    HW2  542   2.524   1.480   0.910  0.2018  0.6765 -0.3906
    1SOL    HW3  543   2.552   1.622   0.956  0.0956  0.5919 -0.0680
    1SOL    MW4  544   2.498   1.553   0.950  0.2909  0.4181  0.1384
    1SOL     OW  545   2.875   2.151   0.495 -0.0617 -0.0866  0.0776
    1SOL    HW2  546   2.820   2.229   0.500  0.7010  0.4086  0.9736
    1SOL    HW3  547   2.825   2.089   0.443 -1.0535  0.6934  0.0948
    1SOL    MW4  548   2.861   2.153   0.489 -0.0920  0.0818  0.1980
    1SOL     OW  549   3.210   3.622   0.492  0.1021 -0.2253  0.4067
    1SOL    HW2  550   3.230   3.528   0.493  0.1735 -0.2006  0.9703
    1SOL    HW3  551   3.116   3.626   0.511 -0.1936 -0.2599 -0.9583
    1SOL    MW4  552   3.200   3.610   0.494  0.0725 -0.2265  0.3010
    1SOL     OW  553   2.042   2.477   0.468 -0.1364 -0.4730 -0.0425
    1SOL    HW2  554   2.055   2.571   0.480  0.1460 -0.6052  0.6721
    1SOL    HW3  555   2.128   2.439   0.483 -0.4396 -0.9326  0.5492
    1SOL    MW4  556   2.055   2.485   0.471 -0.1392 -0.5510  0.1298
    1SOL     OW  557   1.787   1.578   0.595  0.1347 -0.0624  0.1305
    1SOL    HW2  558   1.864   1.622   0.561 -0.1189 -0.5414 -1.0848
    1SOL    HW3  559   1.788   1.598   0.689  1.7110 -0.0498  0.1294
    1SOL    MW4  560   1.797   1.586   0.603  0.3092 -0.1240 -0.0300
    1SOL     OW  561   1.790   2.122   0.457 -0.1318  0.4465 -0.6012
    1SOL    HW2  562   1.783   2.056   0.388 -0.5946  0.5422 -0.6476
    1SOL    HW3  563   1.868   2.096   0.507 -0.4500 -0.2796 -0.4747
    1SOL    MW4  564   1.799   2.110   0.455 -0.2348  0.3631 -0.5906
    1SOL     OW  565   4.024   3.046   0.479 -0.4923 -0.3736  0.1740
    1SOL    HW2  566   3.933   3.017   0.485 -0.1409 -1.2662  1.4639
    1SOL    HW3  567   4.020   3.140   0.493 -1.1166 -0.5591  1.2785
    1SOL    MW4  568   4.012   3.055   0.481 -0.5283 -0.5157  0.4899
    1SOL     OW  569   2.704   3.012   0.393 -0.1336  0.0737 -0.3344
    1SOL    HW2  570   2.660   3.088   0.431  1.0336  0.7502 -0.3212
    1SOL    HW3  571   2.732   3.042   0.307  1.6233  0.1244  0.2484
    1SOL    MW4  572   2.702   3.026   0.387  0.2520  0.1698 -0.2558
    1SOL     OW  573   1.172   2.304   0.243 -0.1246 -0.3409 -0.2034
    1SOL    HW2  574   1.209   2.229   0.289 -1.5572 -1.1906 -0.4057
    1SOL    HW3  575   1.078   2.290   0.247 -0.4363  1.7363  0.2425
    1SOL    MW4  576   1.165   2.292   0.250 -0.3546 -0.1788 -0.1713
    1SOL     OW  577   2.762   2.438   0.559 -0.5509 -0.3586 -0.4673
    1SOL    HW2  578   2.748   2.430   0.654 -2.2087 -0.8647 -0.7405
    1SOL    HW3  579   2.681   2.478   0.526  0.9327  1.9996 -1.3803
    1SOL    MW4  580   2.749   2.442   0.567 -0.5739 -0.1142 -0.6238
    1SOL     OW  581   2.407   4.594   0.956 -0.0024  0.1606  0.3264
    1SOL    HW2  582   2.425   4.681   0.919 -0.5377  0.3554  0.5159
    1SOL    HW3  583   2.443   4.598   1.044  1.4944 -0.3876 -0.2494
    1SOL    MW4  584   2.414   4.606   0.963  0.1245  0.1135  0.2754
    1SOL     OW  585   3.494   4.461   0.567 -0.2260  0.1307 -0.0964
    1SOL    HW2  586   3.474   4.451   0.660  0.0724  1.8489  0.1615
    1SOL    HW3  587   3.447   4.540   0.540 -0.8268 -0.7001 -1.5668
    1SOL    MW4  588   3.485   4.470   0.576 -0.2658  0.2475 -0.2564
    1SOL     OW  589   2.486   2.822   0.497  0.2011  0.0931 -0.7577
    1SOL    HW2  590   2.502   2.835   0.591 -0.1780 -0.9921 -0.5278
    1SOL    HW3  591   2.558   2.867   0.453 -0.0056  1.2167  0.0358
    1SOL    MW4  592   2.497   2.830   0.504  0.1242  0.0982 -0.6227
    1SOL     OW  593   2.172   3.419   0.453  0.1588  0.3568 -0.1275
    1SOL    HW2  594   2.163   3.508   0.486 -1.4738  0.5416 -1.0471
    1SOL    HW3  595   2.223   3.429   0.372 -1.3656  0.6529 -1.0674
    1SOL    MW4  596   2.178   3.432   0.447 -0.2575  0.4201 -0.3729
    1SOL     OW  597   1.229   0.896   0.495  0.0630  0.3008 -0.1708
    1SOL    HW2  598   1.155   0.922   0.440  0.8792  1.0042 -0.9379
    1SOL    HW3  599   1.247   0.805   0.469 -1.0594 -0.1593  0.6134
    1SOL    MW4  600   1.221   0.887   0.484  0.0225  0.3329 -0.1686
    1SOL     OW  601   3.743   4.150   0.608 -0.5577  0.1240  0.0788
    1SOL    HW2  602   3.690   4.115   0.537 -0.5317  2.2489 -1.0394
    1SOL    HW3  603   3.828   4.107   0.599 -0.6610  0.1238 -0.9646
    1SOL    MW4  604   3.747   4.140   0.598 -0.5679  0.4044 -0.2065
    1SOL     OW  605   3.564   2.195   0.455 -0.1588 -0.0544  0.5314
    1SOL    HW2  606   3.512   2.117   0.438 -1.0279  0.2846  1.5893
    1SOL    HW3  607   3.506   2.253   0.503  0.9959  0.5925  1.1778
    1SOL    MW4  608   3.550   2.193   0.459 -0.1211  0.0758  0.7562
    1SOL     OW  609   2.491   3.520   0.448 -0.4973  0.1690  0.0141
    1SOL    HW2  610   2.549   3.554   0.380 -2.0959  0.1989 -1.3827
    1SOL    HW3  611   2.521   3.431   0.464 -0.2092  0.1127 -0.8557
    1SOL    MW4  612   2.502   3.513   0.441 -0.6702  0.1659 -0.2850
    1SOL     OW  613   2.793   4.309   0.886  0.0903  0.2492 -0.3134
    1SOL    HW2  614   2.766   4.271   0.970  1.6490  0.8740  0.5046
    1SOL    HW3  615   2.786   4.403   0.900  0.0048  0.3417 -1.0023
    1SOL    MW4  616   2.789   4.316   0.899  0.2847  0.3443 -0.2964
    1SOL     OW  617   3.535   0.206   0.546 -0.1667  0.1879  0.5710
    1SOL    HW2  618   3.567   0.201   0.635  2.1526 -1.5045 -0.3198
    1SOL    HW3  619   3.477   0.283   0.546  1.3822  1.4178  3.0093
    1SOL    MW4  620   3.532   0.216   0.557  0.3436  0.1269  0.7752
    1SOL     OW  621   2.107   0.492   0.519  0.0669  0.0140  0.7099
    1SOL    HW2  622   2.175   0.546   0.560 -0.9421  0.2035  2.1799
    1SOL    HW3  623   2.074   0.546   0.447 -0.4547  1.1006  1.7413
    1SOL    MW4  624   2.112   0.507   0.515 -0.1349  0.1824  1.0399
    1SOL     OW  625   3.739   0.370   0.359 -0.0585  0.4977 -0.1055
    1SOL    HW2  626   3.685   0.317   0.417 -0.8603  1.6579  0.2349
    1SOL    HW3  627   3.692   0.454   0.353  0.8625  0.9547 -1.1127
    1SOL    MW4  628   3.726   0.374   0.366 -0.0427  0.7111 -0.1935
    1SOL     OW  629   1.616   2.030   0.747 -0.0544 -0.1000  0.2369
    1SOL    HW2  630   1.600   1.963   0.680  1.4370  0.1196 -0.3603
    1SOL    HW3  631   1.545   2.018   0.811 -1.3344 -0.4985 -1.2270
    1SOL    MW4  632   1.604   2.020   0.747 -0.0266 -0.1237 -0.0350
    1SOL     OW  633   3.587   1.123   0.571 -0.0670 -0.2889  0.1839
    1SOL    HW2  634   3.519   1.058   0.555 -0.9914  0.6204  0.4045
    1SOL    HW3  635   3.590   1.131   0.666  0.1474 -0.1113  0.1621
    1SOL    MW4  636   3.579   1.115   0.581 -0.1609 -0.1453  0.2102
    1SOL     OW  637   3.359   1.289   0.860 -0.3047 -0.1801 -0.3054
    1SOL    HW2  638   3.281   1.248   0.897  0.5634 -0.3237  1.3899
    1SOL    HW3  639   3.354   1.381   0.887  0.1566 -0.2053 -0.1210
    1SOL    MW4  640   3.348   1.296   0.868 -0.1295 -0.2023 -0.0573
    1SOL     OW  641   2.436   2.059   0.835  0.4337  0.0413  0.2481
    1SOL    HW2  642   2.509   2.003   0.809 -0.3206 -0.5916 -0.5534
    1SOL    HW3  643   2.385   2.005   0.896 -0.3065 -0.1626 -0.5430
    1SOL    MW4  644   2.439   2.044   0.840  0.2363 -0.0691  0.0380
    1SOL     OW  645   2.677   2.429   0.829  0.1091 -0.2380 -0.4978
    1SOL    HW2  646   2.757   2.388   0.860  0.3322 -0.2527 -1.0822
    1SOL    HW3  647   2.688   2.522   0.849  0.3966 -0.1982 -0.8323
    1SOL    MW4  648   2.689   2.436   0.836  0.1764 -0.2348 -0.6191
    1SOL     OW  649   2.240   0.354   0.875  0.2686  0.2687 -0.0500
    1SOL    HW2  650   2.173   0.293   0.845 -1.1290  0.9524  1.5596
    1SOL    HW3  651   2.323   0.311   0.853 -0.6819 -1.0244 -1.2274
    1SOL    MW4  652   2.242   0.340   0.868 -0.0412  0.1883  0.0070
    1SOL     OW  653   3.400   1.953   0.462  0.2772 -0.0608  0.2997
    1SOL    HW2  654   3.315   1.995   0.468  0.9364  1.3673 -0.2875
    1SOL    HW3  655   3.409   1.929   0.370  0.2950 -0.7009  0.4590
    1SOL    MW4  656   3.390   1.955   0.451  0.3664  0.0430  0.2432
    1SOL     OW  657   2.629   1.903   0.702  0.0322 -0.1295  0.1237
    1SOL    HW2  658   2.635   1.835   0.769  0.6358 -0.1405  0.0653
    1SOL    HW3  659   2.702   1.962   0.720  0.1491 -0.0842 -0.4697
    1SOL    MW4  660   2.639   1.902   0.713  0.1273 -0.1249  0.0377
    1SOL     OW  661   3.544   1.780   0.868  0.0240 -0.3355  0.4083
    1SOL    HW2  662   3.617   1.723   0.891 -1.0490 -1.8808  0.0802
    1SOL    HW3  663   3.525   1.759   0.776 -0.2534  0.6889  0.2270
    1SOL    MW4  664   3.551   1.770   0.859 -0.1543 -0.4042  0.3411
    1SOL     OW  665   2.535   2.551   0.454 -0.1240  0.4531  0.1610
    1SOL    HW2  666   2.506   2.534   0.364 -0.2545 -0.1283  0.3119
    1SOL    HW3  667   2.507   2.641   0.472  0.1567  0.6748 -0.4822
    1SOL    MW4  668   2.528   2.561   0.444 -0.1042  0.4058  0.0961
    1SOL     OW  669   2.043   2.010   0.584 -0.2184  0.7489 -0.2745
    1SOL    HW2  670   2.128   2.053   0.590 -0.0230  0.1819  1.1229
    1SOL    HW3  671   2.008   2.012   0.673 -1.2247  0.0949 -0.6442
    1SOL    MW4  672   2.049   2.016   0.596 -0.3254  0.5879 -0.1390
    1SOL     OW  673   4.022   1.708   0.539  0.1613 -0.1933 -0.1860
    1SOL    HW2  674   3.935   1.734   0.510  0.2255 -0.0974 -0.2914
    1SOL    HW3  675   4.023   1.613   0.529 -0.1371 -0.2626  0.3730
    1SOL    MW4  676   4.010   1.699   0.534  0.1297 -0.1899 -0.1261
    1SOL     OW  677   2.910   2.866   0.832 -0.3062 -0.6238 -0.2902
    1SOL    HW2  678   2.903   2.956   0.865 -1.0516 -0.6493 -0.3737
    1SOL    HW3  679   2.895   2.874   0.738 -3.7329 -1.2384  0.1558
    1SOL    MW4  680   2.907   2.879   0.824 -0.8569 -0.7086 -0.2425
    1SOL     OW  681   2.404   3.707   0.615  0.0985 -0.2532  0.6506
    1SOL    HW2  682   2.431   3.634   0.559 -0.2493 -1.3471  1.8998
    1SOL    HW3  683   2.421   3.677   0.704  0.4869  1.4088  1.1592
    1SOL    MW4  684   2.410   3.693   0.619  0.1037 -0.1786  0.8825
    1SOL     OW  685   2.448   0.137   0.569 -0.0449  0.0484  0.0688
    1SOL    HW2  686   2.517   0.196   0.538  0.6250 -1.2181 -0.8967
    1SOL    HW3  687   2.367   0.184   0.551  0.4482  0.3854 -1.3413
    1SOL    MW4  688   2.447   0.151   0.563  0.1085 -0.0742 -0.2446
    1SOL     OW  689   3.360   2.899   0.588  0.2276 -0.1646 -0.1075
    1SOL    HW2  690   3.446   2.903   0.546 -0.3758  1.4556 -1.2520
    1SOL    HW3  691   3.325   2.814   0.563  0.9804 -0.3183 -0.6659
    1SOL    MW4  692   3.367   2.889   0.579  0.2475  0.0291 -0.3322
    1SOL     OW  693   1.929   3.824   0.409  0.0029 -0.4645 -0.2498
    1SOL    HW2  694   1.994   3.763   0.445 -0.4980 -0.5670  0.5160
    1SOL    HW3  695   1.869   3.768   0.360 -1.1848 -0.7894  1.5128
    1SOL    MW4  696   1.930   3.808   0.407 -0.2198 -0.5209  0.0838
    1SOL     OW  697   1.502   3.861   0.558  0.3528 -0.2921 -0.3195
    1SOL    HW2  698   1.458   3.900   0.634  0.9638  0.2798 -0.2548
    1SOL    HW3  699   1.448   3.885   0.484  1.4229  1.8234 -0.4458
    1SOL    MW4  700   1.489   3.869   0.558  0.5747  0.0627 -0.3275
    1SOL     OW  701   2.593   3.234   0.499 -0.1083  0.4970  0.4548
    1SOL    HW2  702   2.502   3.210   0.519 -0.3813  0.8546 -0.3212
    1SOL    HW3  703   2.638   3.231   0.583 -0.8349  0.2733  0.8378
    1SOL    MW4  704   2.587   3.231   0.512 -0.2401  0.5147  0.4029
    1SOL     OW  705   3.355   3.879   0.908 -0.0911  0.1224  0.0062
    1SOL    HW2  706   3.423   3.933   0.869 -0.2392  1.1751  1.1634
    1SOL    HW3  707   3.363   3.794   0.864  0.0677  1.1097 -1.8949
    1SOL    MW4  708   3.365   3.875   0.897 -0.0896  0.3915 -0.0919
    1SOL     OW  709   3.334   0.029   0.520  0.1601  0.0188 -0.8387
    1SOL    HW2  710   3.402   0.096   0.520 -0.0871  0.3147  1.3230
    1SOL    HW3  711   3.266   0.064   0.578  0.6151 -2.6455  1.4443
    1SOL    MW4  712   3.334   0.042   0.528  0.1874 -0.2937 -0.2523
    1SOL     OW  713   2.732   4.435   0.586 -0.3347 -0.1397  0.2914
    1SOL    HW2  714   2.663   4.479   0.536  0.5822 -0.4023 -1.2680
    1SOL    HW3  715   2.813   4.471   0.551  0.3519 -0.8379  1.1367
    1SOL    MW4  716   2.734   4.445   0.575 -0.1230 -0.2666  0.1972
    1SOL     OW  717   1.731   3.213   0.526 -0.2601 -0.2706 -0.4506
    1SOL    HW2  718   1.740   3.122   0.498 -0.7601 -0.3720 -0.2873
    1SOL    HW3  719   1.806   3.257   0.486  0.0991 -0.7903 -0.3648
    1SOL    MW4  720   1.742   3.207   0.517 -0.2787 -0.3526 -0.4177
    1SOL     OW  721   3.532   1.404   0.490 -0.0927 -0.4138 -0.2638
    1SOL    HW2  722   3.545   1.309   0.490  0.7414 -0.3007 -0.3379
    1SOL    HW3  723   3.619   1.440   0.473 -0.4581  0.3586 -0.4937
    1SOL    MW4  724   3.545   1.396   0.488 -0.0310 -0.2970 -0.3039
    1SOL     OW  725   3.304   1.908   0.947 -0.4418 -0.2869  0.3662
    1SOL    HW2  726   3.387   1.873   0.977  0.1476 -0.5320 -1.5015
    1SOL    HW3  727   3.245   1.898   1.021  0.6779 -1.8966  1.0479
    1SOL    MW4  728   3.307   1.902   0.960 -0.2165 -0.5317  0.2096
    1SOL     OW  729   3.179   0.375   0.483  0.2047 -0.3584 -0.2007
    1SOL    HW2  730   3.178   0.325   0.565  0.3120  1.3105  0.8455
    1SOL    HW3  731   3.118   0.447   0.499  0.1495 -0.0843 -1.6370
    1SOL    MW4  732   3.171   0.378   0.496  0.2115 -0.1020 -0.2522
    1SOL     OW  733   0.456   1.166   0.410 -0.6289  0.1234 -0.4365
    1SOL    HW2  734   0.486   1.089   0.458 -0.4417 -0.2153 -1.0930
    1SOL    HW3  735   0.418   1.131   0.330 -0.6101  0.7141 -0.7066
    1SOL    MW4  736   0.455   1.151   0.406 -0.6017  0.1566 -0.5587
    1SOL     OW  737   3.346   0.101   0.924  0.3753  0.1576 -0.4992
    1SOL    HW2  738   3.340   0.064   1.012 -2.3910 -0.6693 -0.9873
    1SOL    HW3  739   3.296   0.183   0.928  0.8178  0.4732 -1.1438
    1SOL    MW4  740   3.339   0.107   0.936  0.0687  0.0902 -0.6486
    1SOL     OW  741   4.285   3.422   0.423  0.3936 -0.0803  0.0152
    1SOL    HW2  742   4.290   3.386   0.335 -2.0253  1.3092 -0.7312
    1SOL    HW3  743   4.205   3.385   0.459  0.8342  0.1745  1.2862
    1SOL    MW4  744   4.275   3.412   0.416  0.1321  0.1366  0.0844
    1SOL     OW  745   4.247   1.205   0.724  0.0219 -0.1665 -0.4661
    1SOL    HW2  746   4.323   1.182   0.778 -1.2416 -0.2011  1.3558
    1SOL    HW3  747   4.185   1.245   0.786 -1.7143 -0.7536 -1.7912
    1SOL    MW4  748   4.249   1.208   0.740 -0.3738 -0.2486 -0.4006
    1SOL     OW  749   4.252   1.839   0.519 -0.5113 -0.0954  0.3683
    1SOL    HW2  750   4.164   1.806   0.537 -0.3746 -0.4206  0.4481
    1SOL    HW3  751   4.284   1.785   0.446 -0.7839  0.7300 -0.3751
    1SOL    MW4  752   4.245   1.828   0.512 -0.5293 -0.0293  0.2807
    1SOL     OW  753   3.206   2.254   0.701  0.0232  0.1763  0.4748
    1SOL    HW2  754   3.246   2.230   0.784  2.0302  0.6178 -0.3370
    1SOL    HW3  755   3.141   2.320   0.723  0.3273  0.0608  1.7200
    1SOL    MW4  756   3.203   2.259   0.715  0.3281  0.2193  0.5320
    1SOL     OW  757   3.917   1.346   0.714  0.5023  0.0180 -0.2566
    1SOL    HW2  758   3.837   1.392   0.740  1.1208  1.1572 -0.3197
    1SOL    HW3  759   3.969   1.340   0.794  0.3673 -0.7213 -0.2164
    1SOL    MW4  760   3.913   1.351   0.728  0.5660  0.0708 -0.2596
    1SOL     OW  761   3.600   3.268   0.578  0.2871  0.3100 -0.5007
    1SOL    HW2  762   3.612   3.261   0.673 -2.3656 -1.5958 -0.2423
    1SOL    HW3  763   3.650   3.195   0.542  0.1262  0.1806 -0.4613
    1SOL    MW4  764   3.608   3.257   0.586 -0.0842  0.0415 -0.4614
    1SOL     OW  765   2.028   3.045   0.290  0.4160  0.3344  0.2504
    1SOL    HW2  766   2.107   3.032   0.343 -0.0444  0.5072  0.9798
    1SOL    HW3  767   1.964   2.983   0.326 -0.2588  1.2463  0.6363
    1SOL    MW4  768   2.030   3.035   0.302  0.2663  0.4776  0.3976
    1SOL     OW  769   2.428   1.867   0.487  0.3457 -0.5193 -0.1406
    1SOL    HW2  770   2.377   1.945   0.509 -0.1672 -0.9241  0.0925
    1SOL    HW3  771   2.486   1.854   0.562  1.6823  0.6662 -0.9319
    1SOL    MW4  772   2.429   1.876   0.500  0.4542 -0.4163 -0.2142
    1SOL     OW  773   3.358   2.888   0.868  0.6133 -0.0548  0.1600
    1SOL    HW2  774   3.366   2.902   0.773  0.6908 -2.2150 -0.1886
    1SOL    HW3  775   3.430   2.828   0.889  1.2777  1.3111  1.8076
    1SOL    MW4  776   3.368   2.882   0.858  0.7112 -0.1600  0.3314
    1SOL     OW  777   2.959   0.197   0.410  0.5291  0.1287 -0.0465
    1SOL    HW2  778   3.008   0.122   0.377 -0.1975 -0.3578 -0.0303
    1SOL    HW3  779   3.025   0.266   0.421  1.1762 -0.4627 -0.1866
    1SOL    MW4  780   2.974   0.196   0.407  0.5186 -0.0135 -0.0629
    1SOL     OW  781   3.392   2.389   0.564  0.3191 -0.3003 -0.4547
    1SOL    HW2  782   3.323   2.339   0.609  1.5977 -1.1555  0.5794
    1SOL    HW3  783   3.444   2.427   0.634  0.8492  0.4387 -1.2408
    1SOL    MW4  784   3.389   2.387   0.579  0.5579 -0.3157 -0.4219
    1SOL     OW  785   2.946   3.681   0.538  0.0960 -0.7554  0.5080
    1SOL    HW2  786   2.861   3.706   0.575  0.3082  0.0160  0.4811
    1SOL    HW3  787   2.929   3.670   0.444 -0.0452 -0.8946  0.5513
    1SOL    MW4  788   2.933   3.683   0.530  0.1054 -0.6719  0.5101
    1SOL     OW  789   3.528   3.999   0.505 -0.0167  0.1283 -0.5576
    1SOL    HW2  790   3.449   4.050   0.489  0.3980  0.9713  0.0946
    1SOL    HW3  791   3.495   3.913   0.534 -0.6801  0.5318 -0.1085
    1SOL    MW4  792   3.513   3.994   0.507 -0.0496  0.2925 -0.4123
    1SOL     OW  793   3.866   4.436   0.825 -0.4070  0.5512  0.0122
    1SOL    HW2  794   3.862   4.424   0.730 -1.2676 -0.6604  0.2028
    1SOL    HW3  795   3.939   4.380   0.853 -1.4490 -0.6876  0.3077
    1SOL    MW4  796   3.875   4.427   0.816 -0.6580  0.2275  0.0764
    1SOL     OW  797   2.540   4.573   0.438  0.2365  0.1038 -0.2943
    1SOL    HW2  798   2.510   4.648   0.489 -1.8551 -1.1121  0.3265
    1SOL    HW3  799   2.523   4.597   0.347 -1.7247 -0.1538 -0.0107
    1SOL    MW4  800   2.534   4.586   0.432 -0.2983 -0.0901 -0.1750
    1SOL     OW  801   1.240   3.804   0.451 -0.5171  0.2597  0.0387
    1SOL    HW2  802   1.304   3.750   0.405 -0.5275 -0.3612  0.7410
    1SOL    HW3  803   1.180   3.741   0.492  0.0996  0.7703  1.7515
    1SOL    MW4  804   1.240   3.789   0.451 -0.4370  0.2456  0.3573
    1SOL     OW  805   0.909   0.126   0.530  0.6303  0.1417 -0.0574
    1SOL    HW2  806   0.894   0.122   0.624  0.3096  1.7824 -0.0133
    1SOL    HW3  807   0.915   0.035   0.502 -1.2674 -0.4100  1.2289
    1SOL    MW4  808   0.908   0.114   0.539  0.3375  0.2854  0.1181
    1SOL     OW  809   0.027   0.894   0.800 -0.2410  0.2396 -0.1498
    1SOL    HW2  810   0.012   0.928   0.712 -1.2681  1.5287  0.5069
    1SOL    HW3  811  -0.056   0.853   0.824  0.4322 -1.2038 -0.2472
    1SOL    MW4  812   0.014   0.893   0.792 -0.2876  0.2192 -0.0761
    1SOL     OW  813   3.861   0.632   0.595  0.4696  0.3631 -0.0154
    1SOL    HW2  814   3.832   0.622   0.685  0.0964  1.2857 -0.0337
    1SOL    HW3  815   3.901   0.547   0.573  1.3083  0.4162  1.2837
    1SOL    MW4  816   3.863   0.619   0.604  0.5312  0.4918  0.1535
    1SOL     OW  817   4.013   0.869   0.533 -0.8605  0.2366 -0.2374
    1SOL    HW2  818   3.958   0.947   0.533 -1.3826 -0.1098  1.1865
    1SOL    HW3  819   3.952   0.798   0.555  0.2292 -0.0905  1.8073
    1SOL    MW4  820   3.998   0.870   0.536 -0.7861  0.1477  0.2202
    1SOL     OW  821   3.369   0.522   0.844  0.0368 -0.3681  0.4536
    1SOL    HW2  822   3.354   0.608   0.884 -0.9038 -0.8565  1.1650
    1SOL    HW3  823   3.448   0.489   0.887 -0.2678 -0.3632  1.0152
    1SOL    MW4  824   3.378   0.529   0.855 -0.1276 -0.4319  0.6216
    1SOL     OW  825   3.881   1.117   0.525 -0.2746 -0.4623  0.4195
    1SOL    HW2  826   3.786   1.116   0.521 -0.2944  0.8393  0.3298
    1SOL    HW3  827   3.902   1.176   0.598  0.4672 -0.0920 -0.0858
    1SOL    MW4  828   3.871   1.124   0.534 -0.1791 -0.2419  0.3410
    1SOL     OW  829   4.362   1.204   0.469 -0.2419 -0.8385  0.3496
    1SOL    HW2  830   4.322   1.226   0.553  1.3429 -0.9237  1.1458
    1SOL    HW3  831   4.289   1.183   0.412 -1.4167  0.4121  1.3634
    1SOL    MW4  832   4.347   1.204   0.472 -0.1879 -0.6849  0.5884
    1SOL     OW  833   4.037   1.434   0.463 -0.4275  0.0156 -0.1625
    1SOL    HW2  834   4.006   1.390   0.542 -0.9173 -0.7125 -0.7515
    1SOL    HW3  835   4.079   1.365   0.412 -0.2639  0.4455 -0.6155
    1SOL    MW4  836   4.038   1.419   0.466 -0.4702 -0.0237 -0.3000
    1SOL     OW  837   2.893   1.259   0.853 -0.0212  0.6848 -0.1761
    1SOL    HW2  838   2.915   1.259   0.760 -1.3940 -1.1247 -0.5332
    1SOL    HW3  839   2.964   1.212   0.895  0.1210  0.6534 -0.4497
    1SOL    MW4  840   2.905   1.253   0.846 -0.1838  0.4419 -0.2592
    1SOL     OW  841   3.327   4.244   0.536  0.0706 -0.1060  0.3259
    1SOL    HW2  842   3.394   4.311   0.523 -0.1031  0.3045  1.5017
    1SOL    HW3  843   3.338   4.216   0.627 -0.9514 -0.4834  0.3434
    1SOL    MW4  844   3.338   4.249   0.546 -0.0873 -0.1020  0.4833
    1SOL     OW  845   3.836   2.093   0.541 -0.1955 -0.3145  0.2673
    1SOL    HW2  846   3.840   2.115   0.634  0.1618  0.3292  0.0992
    1SOL    HW3  847   3.744   2.104   0.518  0.3351  3.4621 -0.3970
    1SOL    MW4  848   3.824   2.097   0.550 -0.0782  0.2687  0.1575
    1SOL     OW  849   4.290   2.940   0.554  1.0278 -0.0554 -0.2349
    1SOL    HW2  850   4.296   2.845   0.543  0.4316 -0.3070  1.4401
    1SOL    HW3  851   4.206   2.964   0.516  0.8326 -0.3238  0.0193
    1SOL    MW4  852   4.280   2.930   0.548  0.9236 -0.1237  0.0197
    1SOL     OW  853   3.436   3.738   0.570  0.3948  0.0657 -0.1221
    1SOL    HW2  854   3.498   3.671   0.542  0.1205 -0.4010  0.3774
    1SOL    HW3  855   3.354   3.714   0.526  0.2876  0.0572  0.0851
    1SOL    MW4  856   3.433   3.726   0.560  0.3443  0.0029 -0.0289
    1SOL     OW  857   1.792   2.376   0.538 -0.0665  0.0862 -0.0749
    1SOL    HW2  858   1.876   2.413   0.511  0.6135 -0.8675  0.7140
    1SOL    HW3  859   1.793   2.287   0.503 -1.0081  0.2669 -0.5744
    1SOL    MW4  860   1.803   2.369   0.530 -0.1011 -0.0155 -0.0367
    1SOL     OW  861   2.111   4.016   0.536 -0.3491  0.3293  0.5719
    1SOL    HW2  862   2.061   4.098   0.534 -2.1178 -0.7401 -0.7870
    1SOL    HW3  863   2.063   3.958   0.478  0.8715 -1.6938  1.5419
    1SOL    MW4  864   2.098   4.019   0.528 -0.4210 -0.0787  0.5206
    1SOL     OW  865   3.162   3.091   0.588  0.1773 -0.2575  0.0869
    1SOL    HW2  866   3.228   3.021   0.583  1.0077  0.3023  2.6392
    1SOL    HW3  867   3.207   3.169   0.556 -0.3970 -0.6160 -1.6531
    1SOL    MW4  868   3.176   3.092   0.583  0.2108 -0.2310  0.1940
    1SOL     OW  869   4.045   2.276   0.518 -0.0562 -0.6194 -0.1635
    1SOL    HW2  870   4.113   2.227   0.564 -0.5555  0.3590  1.6676
    1SOL    HW3  871   3.970   2.215   0.516  0.0042 -0.7103  0.2241
    1SOL    MW4  872   4.044   2.261   0.524 -0.1140 -0.5023  0.1292
    1SOL     OW  873   3.690   2.409   0.298  0.1341 -0.4903 -0.2414
    1SOL    HW2  874   3.631   2.345   0.337 -0.8504 -0.5608 -1.7692
    1SOL    HW3  875   3.696   2.382   0.206  0.4790  1.0377 -0.6756
    1SOL    MW4  876   3.683   2.397   0.291  0.0496 -0.2980 -0.5003
    1SOL     OW  877   0.564   3.547   0.566 -0.2060 -0.0773  0.1169
    1SOL    HW2  878   0.578   3.619   0.505 -1.6531  0.1886  0.0938
    1SOL    HW3  879   0.596   3.581   0.650  0.3867  0.0917 -0.1740
    1SOL    MW4  880   0.570   3.561   0.569 -0.3188 -0.0200  0.0755
    1SOL     OW  881   3.602   2.479   0.729  0.0334 -0.3189  0.5869
    1SOL    HW2  882   3.658   2.472   0.806  0.4950 -0.7200  0.2240
    1SOL    HW3  883   3.660   2.513   0.660  0.4741 -3.0106 -0.4306
    1SOL    MW4  884   3.617   2.483   0.730  0.1521 -0.7267  0.4048
    1SOL     OW  885   3.146   0.180   0.680 -0.6514 -0.1933  0.1857
    1SOL    HW2  886   3.051   0.174   0.671 -0.3892 -1.0871 -2.1844
    1SOL    HW3  887   3.163   0.144   0.767 -2.2786 -2.3948 -0.3494
    1SOL    MW4  888   3.136   0.175   0.691 -0.8314 -0.6017 -0.1976
    1SOL     OW  889   0.001   3.323   0.600  0.3679 -0.3042 -0.3882
    1SOL    HW2  890   0.011   3.240   0.552 -0.7461 -0.2450 -0.7404
    1SOL    HW3  891  -0.048   3.379   0.541  0.7754  0.4818  0.0118
    1SOL    MW4  892  -0.004   3.319   0.586  0.2737 -0.1929 -0.3819
    1SOL     OW  893   0.618   3.792   0.444  0.2560 -0.1709 -0.3703
    1SOL    HW2  894   0.536   3.822   0.485 -1.0785 -3.6099 -0.3208
    1SOL    HW3  895   0.597   3.785   0.351  0.5798 -0.7135 -0.4058
    1SOL    MW4  896   0.604   3.795   0.437  0.1227 -0.6967 -0.3685
    1SOL     OW  897   4.367   0.057   0.561  0.1691 -0.3137  0.5695
    1SOL    HW2  898   4.411   0.079   0.643  0.5279 -0.2918  0.3717
    1SOL    HW3  899   4.391  -0.034   0.544  1.1078  0.0673 -0.1553
    1SOL    MW4  900   4.376   0.048   0.569  0.3405 -0.2606  0.4478
    1SOL     OW  901   3.993   0.375   0.503  0.2785  0.5059  0.2409
    1SOL    HW2  902   3.925   0.372   0.436  1.3308 -0.6576 -0.8190
    1SOL    HW3  903   4.010   0.283   0.524  0.0317  0.8670  2.0336
    1SOL    MW4  904   3.987   0.362   0.497  0.3848  0.4000  0.3375
    1SOL     OW  905   4.233   0.759   0.439 -0.1537 -0.0274  0.0927
    1SOL    HW2  906   4.294   0.821   0.479 -0.7430 -0.5313  1.7973
    1SOL    HW3  907   4.147   0.797   0.451 -0.3236 -0.0710 -0.9288
    1SOL    MW4  908   4.230   0.772   0.446 -0.2542 -0.0996  0.1829
    1SOL     OW  909   4.468   1.839   0.720  0.0853 -0.0240 -0.1613
    1SOL    HW2  910   4.548   1.853   0.670  0.8841  1.6725  1.5108
    1SOL    HW3  911   4.398   1.842   0.655  1.2755 -0.1409 -1.4633
    1SOL    MW4  912   4.469   1.842   0.705  0.3471  0.1843 -0.1125
    1SOL     OW  913   3.777   4.431   0.561  0.1027 -0.2476 -0.1411
    1SOL    HW2  914   3.690   4.466   0.577  0.1877 -0.0838 -0.0336
    1SOL    HW3  915   3.766   4.336   0.562 -0.5888 -0.2411 -2.9359
    1SOL    MW4  916   3.764   4.423   0.563  0.0226 -0.2246 -0.4957
    1SOL     OW  917   0.024   1.450   0.504  0.4862 -0.2165 -0.5762
    1SOL    HW2  918  -0.026   1.379   0.462  1.7184 -0.1620 -2.1902
    1SOL    HW3  919   0.100   1.406   0.542 -0.1245 -0.1214  0.7882
    1SOL    MW4  920   0.028   1.435   0.504  0.5682 -0.1967 -0.6091
    1SOL     OW  921   3.173   3.496   0.932  0.2060  0.2129  0.3672
    1SOL    HW2  922   3.157   3.408   0.899 -0.0477  0.1742  0.5979
    1SOL    HW3  923   3.249   3.527   0.882  1.0597 -0.5977  1.1635
    1SOL    MW4  924   3.181   3.489   0.921  0.2849  0.1006  0.5028
    1SOL     OW  925   3.173   0.832   0.624  0.4528  0.1112  0.1582
    1SOL    HW2  926   3.265   0.829   0.596  0.1553  2.2526 -1.1844
    1SOL    HW3  927   3.141   0.743   0.611  1.9291 -0.3009 -0.7842
    1SOL    MW4  928   3.181   0.820   0.619  0.6082  0.3393 -0.1433
    1SOL     OW  929   3.657   1.419   0.743  0.0252 -0.1090  0.4210
    1SOL    HW2  930   3.628   1.334   0.776  0.0376 -0.6547 -0.9252
    1SOL    HW3  931   3.602   1.435   0.666  0.8895  0.4914 -0.0852
    1SOL    MW4  932   3.646   1.410   0.737  0.1407 -0.1018  0.1766
    1SOL     OW  933   3.120   1.607   0.796 -0.1080  0.1865 -0.4963
    1SOL    HW2  934   3.105   1.683   0.740 -2.4677  0.4773  0.4349
    1SOL    HW3  935   3.191   1.633   0.854  0.2532  1.0451 -1.3238
    1SOL    MW4  936   3.127   1.620   0.797 -0.3715  0.3381 -0.4826
    1SOL     OW  937   4.429   1.982   0.230 -0.0821 -0.0287  0.0367
    1SOL    HW2  938   4.365   1.978   0.159 -0.0561 -0.2100  0.0241
    1SOL    HW3  939   4.447   1.891   0.252  0.2160  0.0188  0.0001
    1SOL    MW4  940   4.423   1.969   0.224 -0.0396 -0.0465  0.0302
    1SOL     OW  941   0.621   2.356   0.696 -0.4141 -0.0751  0.0569
    1SOL    HW2  942   0.560   2.378   0.767 -0.3483 -1.4975  0.5588
    1SOL    HW3  943   0.646   2.266   0.713  2.0209  0.5534 -0.0241
    1SOL    MW4  944   0.616   2.347   0.708 -0.0842 -0.1798  0.1125
    1SOL     OW  945   0.672   1.346   0.336  0.1375 -0.0588 -0.0232
    1SOL    HW2  946   0.591   1.296   0.340 -1.3440  2.1108 -1.2798
    1SOL    HW3  947   0.715   1.316   0.256 -0.5424  0.3405 -0.5467
    1SOL    MW4  948   0.667   1.336   0.326 -0.1476  0.2800 -0.2581
    1SOL     OW  949   0.467   2.652   0.461  0.6126  0.1714 -0.0395
    1SOL    HW2  950   0.463   2.747   0.447  0.8546  0.2675  0.5147
    1SOL    HW3  951   0.379   2.621   0.442  0.0973  0.7326  1.3557
    1SOL    MW4  952   0.455   2.661   0.457  0.5766  0.2582  0.2177
    1SOL     OW  953   3.767   2.569   0.528 -0.0326 -0.3933 -0.2036
    1SOL    HW2  954   3.753   2.512   0.453 -0.4311 -0.1606 -0.3076
    1SOL    HW3  955   3.862   2.580   0.533  0.0003 -0.4936 -0.6077
    1SOL    MW4  956   3.778   2.563   0.519 -0.0811 -0.3757 -0.2707
    1SOL     OW  957   4.272   2.131   0.579  0.4406  0.2454 -0.1075
    1SOL    HW2  958   4.252   2.042   0.551  0.3138 -0.1126  1.0906
    1SOL    HW3  959   4.335   2.163   0.515 -0.4384 -0.2675 -1.2495
    1SOL    MW4  960   4.278   2.124   0.567  0.3080  0.1304 -0.1001
    1SOL     OW  961   1.137   4.342   0.527 -0.0997 -0.0536 -0.4527
    1SOL    HW2  962   1.149   4.247   0.521  0.6824  0.0779 -0.9560
    1SOL    HW3  963   1.132   4.359   0.621  0.0871 -0.5521 -0.3487
    1SOL    MW4  964   1.138   4.331   0.539  0.0281 -0.1020 -0.5054
    1SOL     OW  965   0.440   3.205   0.332 -0.3432 -0.0090  0.0044
    1SOL    HW2  966   0.393   3.230   0.253 -1.3601 -1.0260  0.2732
    1SOL    HW3  967   0.389   3.245   0.403 -1.0750 -1.4801  0.3261
    1SOL    MW4  968   0.427   3.213   0.331 -0.5739 -0.3374  0.0823
    1SOL     OW  969   1.421   1.339   0.726  0.0288 -0.1273 -0.2071
    1SOL    HW2  970   1.399   1.428   0.700  0.1621 -0.0731 -0.1341
    1SOL    HW3  971   1.407   1.287   0.647 -1.0359 -0.2039  0.0331
    1SOL    MW4  972   1.416   1.344   0.712 -0.0942 -0.1303 -0.1657
    1SOL     OW  973   3.621   3.544   0.924  0.0709 -0.3263  0.3999
    1SOL    HW2  974   3.636   3.553   1.018 -0.3374  0.5372  0.3815
    1SOL    HW3  975   3.704   3.567   0.884 -0.3086  1.1513  0.4605
    1SOL    MW4  976   3.634   3.548   0.931 -0.0329 -0.0174  0.4055
    1SOL     OW  977   3.322   3.345   0.587  0.2581 -0.4520 -0.3727
    1SOL    HW2  978   3.318   3.337   0.683 -0.3255 -0.9661 -0.4343
    1SOL    HW3  979   3.416   3.354   0.568  0.3001  0.6869  0.3174
    1SOL    MW4  980   3.334   3.345   0.597  0.1864 -0.3695 -0.2897
    1SOL     OW  981   2.853   4.158   0.538 -0.0248 -0.4524  0.1039
    1SOL    HW2  982   2.918   4.088   0.528  0.3345  0.1596 -1.9791
    1SOL    HW3  983   2.774   4.123   0.498  0.2016  0.3770 -1.0895
    1SOL    MW4  984   2.851   4.144   0.531  0.0527 -0.2618 -0.3284
    1SOL     OW  985   0.194   4.498   0.621 -0.1586  0.0734  0.0683
    1SOL    HW2  986   0.115   4.491   0.566 -0.0838 -1.0398  0.0848
    1SOL    HW3  987   0.259   4.539   0.564  0.1560 -1.7969 -0.9646
    1SOL    MW4  988   0.192   4.503   0.606 -0.1072 -0.3200 -0.0657
    1SOL     OW  989   4.054   4.043   0.866  0.0945  0.6490  0.8328
    1SOL    HW2  990   4.130   3.985   0.879 -0.1034  0.0752 -0.4580
    1SOL    HW3  991   3.980   3.993   0.900 -0.0101  0.3290  0.1370
    1SOL    MW4  992   4.054   4.028   0.872  0.0548  0.5302  0.5708
    1SOL     OW  993   2.370   4.338   0.516  0.4050 -0.3616  0.3808
    1SOL    HW2  994   2.409   4.416   0.475 -0.6934 -0.8650 -1.6636
    1SOL    HW3  995   2.276   4.349   0.504  0.2253 -1.8700  0.3306
    1SOL    MW4  996   2.363   4.350   0.509  0.2365 -0.6270  0.1044
    1SOL     OW  997   0.184   4.645   0.955  0.1260  0.0216 -0.4181
    1SOL    HW2  998   0.185   4.555   0.922 -0.1751 -0.0919 -0.1208
    1SOL    HW3  999   0.116   4.688   0.904 -1.2603 -0.5038  0.9587
    1SOL    MW4 1000   0.175   4.639   0.944 -0.0966 -0.0629 -0.1973
    1SOL     OW 1001   4.470   0.122   0.820 -0.4743  0.1159 -0.5659
    1SOL    HW2 1002   4.395   0.106   0.877 -0.5730 -0.3993 -0.8331
    1SOL    HW3 1003   4.483   0.217   0.821 -0.5436  0.1166  0.2261
    1SOL    MW4 1004   4.462   0.132   0.828 -0.4969  0.0480 -0.4966
    1SOL     OW 1005   4.486   0.396   0.889 -0.3201 -0.4115  0.5328
    1SOL    HW2 1006   4.482   0.397   0.984 -0.5582 -2.5283  0.5692
    1SOL    HW3 1007   4.565   0.445   0.867 -0.6747  0.7465  1.7759
    1SOL    MW4 1008   4.496   0.402   0.898 -0.3982 -0.5380  0.7015
    1SOL     OW 1009   0.226   0.528   0.806 -0.2802 -0.1350 -0.8390
    1SOL    HW2 1010   0.307   0.479   0.821 -0.1811  0.4095  0.4948
    1SOL    HW3 1011   0.241   0.612   0.848 -0.5405  0.9788 -2.8906
    1SOL    MW4 1012   0.239   0.532   0.813 -0.3015  0.0838 -0.9337
    1SOL     OW 1013   0.226   0.765   0.927  0.4705  0.1145 -0.2356
    1SOL    HW2 1014   0.220   0.798   1.016 -1.1105  0.0771 -0.3219
    1SOL    HW3 1015   0.155   0.808   0.880  0.3472 -1.0283 -1.1165
    1SOL    MW4 1016   0.216   0.775   0.933  0.2456 -0.0412 -0.3632
    1SOL     OW 1017   0.373   0.920   0.223 -0.5258  0.5787  0.9827
    1SOL    HW2 1018   0.280   0.926   0.245 -0.4373  1.6670  1.0474
    1SOL    HW3 1019   0.402   0.840   0.267 -1.7289 -0.5222 -0.1494
    1SOL    MW4 1020   0.365   0.910   0.232 -0.6728  0.5770  0.8419
    1SOL     OW 1021   4.460   1.159   0.897  0.1747  0.2537 -0.3663
    1SOL    HW2 1022   4.447   1.194   0.985  1.5473  0.1473 -0.1164
    1SOL    HW3 1023   4.489   1.069   0.911  1.9917  0.7530 -0.8930
    1SOL    MW4 1024   4.462   1.152   0.910  0.5956  0.3057 -0.4029
    1SOL     OW 1025   0.640   1.550   0.918 -0.6798  0.1831  0.3287
    1SOL    HW2 1026   0.716   1.600   0.888 -0.0387 -1.1883 -0.3870
    1SOL    HW3 1027   0.665   1.518   1.004 -0.6190  0.1146  0.2863
    1SOL    MW4 1028   0.654   1.552   0.925 -0.5872 -0.0069  0.2287
    1SOL     OW 1029   0.225   1.246   0.819 -0.4776  0.1018  0.1507
    1SOL    HW2 1030   0.236   1.319   0.880  0.6127 -1.2956  1.6826
    1SOL    HW3 1031   0.134   1.218   0.833 -0.5178  0.3843  0.4756
    1SOL    MW4 1032   0.214   1.252   0.829 -0.3391 -0.0454  0.3956
    1SOL     OW 1033   0.199   1.521   0.940  0.2107  0.0427  0.4087
    1SOL    HW2 1034   0.118   1.525   0.888 -0.7292  0.0504  1.8439
    1SOL    HW3 1035   0.262   1.572   0.889 -0.8844  0.6394 -0.3912
    1SOL    MW4 1036   0.196   1.528   0.926 -0.0578  0.1224  0.4925
    1SOL     OW 1037   0.004   2.046   0.941 -0.5993  0.2066 -0.1772
    1SOL    HW2 1038   0.084   2.095   0.926  0.0459 -0.4902  0.8719
    1SOL    HW3 1039  -0.001   1.984   0.868  0.1203 -0.1255  0.0510
    1SOL    MW4 1040   0.014   2.044   0.930 -0.4192  0.0708 -0.0087
    1SOL     OW 1041   0.809   1.348   0.570 -0.2620  0.1916  0.4047
    1SOL    HW2 1042   0.760   1.343   0.488 -0.5544  1.3055  0.4962
    1SOL    HW3 1043   0.895   1.312   0.549 -0.4939  0.0178 -0.2635
    1SOL    MW4 1044   0.814   1.343   0.556 -0.3312  0.3157  0.3286
    1SOL     OW 1045   0.274   2.173   0.893  0.3939  0.1176 -0.0428
    1SOL    HW2 1046   0.275   2.234   0.966 -1.6167 -0.5576  0.5829
    1SOL    HW3 1047   0.253   2.227   0.817 -0.0013  0.4177  0.2813
    1SOL    MW4 1048   0.271   2.188   0.892  0.0764  0.0679  0.0825
    1SOL     OW 1049   4.464   2.500   0.759  0.0322  0.6426  0.3137
    1SOL    HW2 1050   4.406   2.544   0.698 -0.8136  0.4657  0.9773
    1SOL    HW3 1051   4.405   2.449   0.816  1.0093 -1.8880 -0.8489
    1SOL    MW4 1052   4.449   2.499   0.759  0.0501  0.2856  0.2480
    1SOL     OW 1053   4.486   2.742   0.898  0.2425  0.3275 -0.5154
    1SOL    HW2 1054   4.490   2.735   0.993  0.4655 -0.5197 -0.5799
    1SOL    HW3 1055   4.471   2.652   0.868  0.7246  0.5046 -1.3031
    1SOL    MW4 1056   4.485   2.729   0.906  0.3357  0.2391 -0.6279
    1SOL     OW 1057   0.677   2.996   0.918  0.2986 -0.9977 -0.5127
    1SOL    HW2 1058   0.759   2.947   0.908 -0.5367 -2.0391 -2.4467
    1SOL    HW3 1059   0.685   3.069   0.857  0.9201  0.4867  1.3079
    1SOL    MW4 1060   0.689   2.999   0.909  0.2704 -0.9389 -0.5277
    1SOL     OW 1061   0.195   3.120   0.919  0.2354  0.2048  0.0960
    1SOL    HW2 1062   0.222   3.124   1.011  2.4309  0.8014 -0.5418
    1SOL    HW3 1063   0.210   3.028   0.894  2.1506  0.6074 -0.3537
    1SOL    MW4 1064   0.201   3.108   0.928  0.7778  0.3364 -0.0474
    1SOL     OW 1065   0.012   3.340   0.880 -0.1798 -0.3714 -0.2882
    1SOL    HW2 1066   0.071   3.268   0.904  0.3847 -0.1176 -0.8993
    1SOL    HW3 1067   0.003   3.333   0.785 -0.8844 -0.2116 -0.2364
    1SOL    MW4 1068   0.018   3.330   0.870 -0.1983 -0.3171 -0.3619
    1SOL     OW 1069   4.315   3.640   0.824  0.1946  0.0729 -0.1049
    1SOL    HW2 1070   4.411   3.640   0.817  0.1608  3.1029 -1.2324
    1SOL    HW3 1071   4.295   3.718   0.876 -1.7190 -0.1356 -0.4974
    1SOL    MW4 1072   4.325   3.650   0.830 -0.0620  0.4451 -0.3054
    1SOL     OW 1073   0.136   3.601   0.875 -0.3987  0.6200  0.3749
    1SOL    HW2 1074   0.092   3.517   0.890 -1.0439  0.9329  0.2092
    1SOL    HW3 1075   0.174   3.592   0.787 -0.7146  0.6088  0.2379
    1SOL    MW4 1076   0.135   3.588   0.865 -0.5255  0.6599  0.3350
    1SOL     OW 1077   0.258   3.850   0.934 -0.2942  0.1760  0.0647
    1SOL    HW2 1078   0.283   3.847   1.026 -1.8061  1.5607  0.5389
    1SOL    HW3 1079   0.224   3.762   0.916 -0.3690  0.0256  0.9295
    1SOL    MW4 1080   0.257   3.838   0.944 -0.5035  0.3388  0.2414
    1SOL     OW 1081   0.019   3.963   0.819 -0.5275 -0.1944 -0.4065
    1SOL    HW2 1082   0.028   3.918   0.735  1.2246  0.3796 -0.5610
    1SOL    HW3 1083   0.100   3.943   0.865 -0.1052  2.0133 -0.1184
    1SOL    MW4 1084   0.031   3.955   0.814 -0.2406  0.1724 -0.3889
    1SOL     OW 1085   4.458   4.249   0.872 -0.3959 -0.3726  0.0423
    1SOL    HW2 1086   4.453   4.247   0.967 -2.9123 -0.5779 -0.0507
    1SOL    HW3 1087   4.492   4.163   0.848 -0.7987 -0.7238  0.7156
    1SOL    MW4 1088   4.462   4.237   0.881 -0.7815 -0.4458  0.1189
    1SOL     OW 1089   0.222   4.392   0.875 -0.1632  0.2449 -0.0160
    1SOL    HW2 1090   0.147   4.338   0.899  1.9985 -2.3619  1.1478
    1SOL    HW3 1091   0.208   4.412   0.782 -2.9345  0.9665  0.5081
    1SOL    MW4 1092   0.211   4.387   0.866 -0.2436 -0.0038  0.2066
    1SOL     OW 1093   0.650   0.012   0.904 -0.0815 -0.3610 -0.0740
    1SOL    HW2 1094   0.658   0.005   0.999  1.1702  0.8062 -0.0760
    1SOL    HW3 1095   0.562   0.045   0.889  0.0687  0.4211  0.7397
    1SOL    MW4 1096   0.640   0.015   0.914  0.1034 -0.1038  0.0331
    1SOL     OW 1097   0.400   0.091   0.817  0.0934 -0.5636  0.0595
    1SOL    HW2 1098   0.320   0.073   0.865 -0.1704 -1.4575 -0.7196
    1SOL    HW3 1099   0.396   0.035   0.739  0.4254  1.0011 -1.1135
    1SOL    MW4 1100   0.389   0.082   0.813  0.1025 -0.4751 -0.1981
    1SOL     OW 1101   0.428   0.366   0.856 -0.3414 -0.1354  0.2080
    1SOL    HW2 1102   0.510   0.397   0.817 -1.7444  2.0784 -1.0396
    1SOL    HW3 1103   0.423   0.274   0.831  1.5438 -0.1834 -0.0715
    1SOL    MW4 1104   0.438   0.358   0.847 -0.2778  0.1503  0.0064
    1SOL     OW 1105   0.662   0.472   0.748  0.1191 -0.2064 -0.0616
    1SOL    HW2 1106   0.736   0.434   0.796  0.4834 -0.9853 -1.2319
    1SOL    HW3 1107   0.683   0.460   0.656 -1.3720 -0.2534 -0.4206
    1SOL    MW4 1108   0.674   0.465   0.742 -0.0296 -0.3153 -0.2633
    1SOL     OW 1109   0.577   0.959   0.557 -0.4533 -0.0422  0.0579
    1SOL    HW2 1110   0.666   0.926   0.554 -0.6453 -0.6464  0.8735
    1SOL    HW3 1111   0.540   0.923   0.638 -1.5361 -0.0712 -0.4311
    1SOL    MW4 1112   0.584   0.950   0.567 -0.6215 -0.1258  0.1010
    1SOL     OW 1113   0.686   0.733   0.839 -0.0646  0.2282  0.0662
    1SOL    HW2 1114   0.603   0.777   0.826 -0.5538 -0.9420 -0.8722
    1SOL    HW3 1115   0.674   0.646   0.800  0.9042 -0.7091  1.8001
    1SOL    MW4 1116   0.674   0.727   0.832 -0.0013 -0.0499  0.1712
    1SOL     OW 1117   0.453   1.120   0.906 -0.0878  0.0965  0.2492
    1SOL    HW2 1118   0.367   1.159   0.889  0.3475  0.5982 -0.8240
    1SOL    HW3 1119   0.515   1.184   0.871  0.6573 -1.2117 -0.8346
    1SOL    MW4 1120   0.450   1.134   0.899  0.0679 -0.0099 -0.0355
    1SOL     OW 1121   2.267   1.647   0.568  0.0843  0.1646 -0.3633
    1SOL    HW2 1122   2.318   1.712   0.520 -1.2641  1.9058  0.4985
    1SOL    HW3 1123   2.176   1.673   0.554 -0.4479 -1.2516  0.4115
    1SOL    MW4 1124   2.262   1.659   0.560 -0.1636  0.2073 -0.1474
    1SOL     OW 1125   1.090   1.930   0.597 -0.1347  0.0960 -0.2092
    1SOL    HW2 1126   1.050   1.866   0.539 -0.6098  0.0415  0.1750
    1SOL    HW3 1127   1.144   1.984   0.540 -1.4604  0.7438 -0.8683
    1SOL    MW4 1128   1.092   1.928   0.582 -0.3724  0.1743 -0.2454
    1SOL     OW 1129   4.249   2.142   0.859 -0.2501 -0.5564 -0.3180
    1SOL    HW2 1130   4.332   2.118   0.900  0.3658  1.0108 -0.6231
    1SOL    HW3 1131   4.268   2.149   0.766 -0.8848 -0.8100 -0.4749
    1SOL    MW4 1132   4.262   2.140   0.852 -0.2522 -0.3834 -0.3790
    1SOL     OW 1133   0.436   1.954   0.879 -0.7209  0.8197 -0.0106
    1SOL    HW2 1134   0.449   1.942   0.973 -2.0652 -0.1125  0.0689
    1SOL    HW3 1135   0.375   2.028   0.873 -0.7354  0.7971 -0.1348
    1SOL    MW4 1136   0.429   1.962   0.891 -0.9002  0.6938 -0.0165
    1SOL     OW 1137   0.662   2.063   0.761 -0.2366 -0.0139  0.4696
    1SOL    HW2 1138   0.599   2.028   0.823  0.6964  0.1403  1.5144
    1SOL    HW3 1139   0.746   2.059   0.807  0.4464  0.2033 -0.7366
    1SOL    MW4 1140   0.665   2.058   0.775 -0.0234  0.0350  0.4482
    1SOL     OW 1141   0.225   2.406   0.704 -0.2322 -0.3805  0.1150
    1SOL    HW2 1142   0.148   2.452   0.738  1.1286  2.9199 -1.0812
    1SOL    HW3 1143   0.297   2.434   0.761  0.6402 -0.9806 -0.6696
    1SOL    MW4 1144   0.224   2.415   0.716  0.0625 -0.0243 -0.1463
    1SOL     OW 1145   0.231   2.171   0.517  0.1571  0.1096  0.3515
    1SOL    HW2 1146   0.306   2.180   0.458  1.2305 -1.0043  1.5415
    1SOL    HW3 1147   0.234   2.250   0.571  0.4590  0.0771  0.3843
    1SOL    MW4 1148   0.241   2.183   0.516  0.3385 -0.0415  0.5128
    1SOL     OW 1149   0.494   2.783   0.884 -0.0764  0.0140 -0.1217
    1SOL    HW2 1150   0.540   2.865   0.897  0.2217  0.0840 -1.5171
    1SOL    HW3 1151   0.410   2.808   0.847 -0.2093 -0.2744 -0.0218
    1SOL    MW4 1152   0.489   2.797   0.881 -0.0546 -0.0148 -0.2927
    1SOL     OW 1153   0.664   2.387   0.399 -0.0480 -0.0458 -0.0183
    1SOL    HW2 1154   0.631   2.476   0.391  1.4196  0.5355  0.2744
    1SOL    HW3 1155   0.658   2.367   0.493 -1.6425 -0.7688 -0.2527
    1SOL    MW4 1156   0.659   2.396   0.410 -0.0648 -0.0644 -0.0106
    1SOL     OW 1157   0.393   3.270   0.752  0.5145  0.2127  0.3769
    1SOL    HW2 1158   0.401   3.348   0.807 -0.6303 -0.0361  0.9103
    1SOL    HW3 1159   0.318   3.223   0.788  1.7319 -1.5927  0.6057
    1SOL    MW4 1160   0.384   3.274   0.764  0.5241 -0.0584  0.4774
    1SOL     OW 1161   0.668   3.228   0.736 -0.2577 -0.1119 -0.3389
    1SOL    HW2 1162   0.688   3.251   0.646  0.1184 -0.1645 -0.2698
    1SOL    HW3 1163   0.573   3.235   0.742 -0.3069 -0.3544 -0.8082
    1SOL    MW4 1164   0.658   3.232   0.725 -0.2145 -0.1509 -0.3916
    1SOL     OW 1165   0.417   3.491   0.919  0.2053 -0.3065  0.1058
    1SOL    HW2 1166   0.431   3.472   1.011 -0.1641 -2.7825 -0.3123
    1SOL    HW3 1167   0.322   3.498   0.910  0.2871  0.7372  0.0671
    1SOL    MW4 1168   0.406   3.489   0.930  0.1673 -0.4954  0.0455
    1SOL     OW 1169   0.675   3.584   0.821  0.5429  0.1652 -0.0975
    1SOL    HW2 1170   0.679   3.675   0.850 -1.6667  0.3861 -0.4352
    1SOL    HW3 1171   0.589   3.553   0.850  0.6782 -1.3691 -1.2770
    1SOL    MW4 1172   0.664   3.592   0.829  0.2692 -0.0081 -0.2977
    1SOL     OW 1173   0.669   3.837   0.918  0.1874  0.2098 -0.2881
    1SOL    HW2 1174   0.600   3.886   0.873 -0.1377 -1.5066 -1.6959
    1SOL    HW3 1175   0.749   3.885   0.897 -0.3148  1.0612 -0.3062
    1SOL    MW4 1176   0.671   3.850   0.909  0.0783  0.0956 -0.4762
    1SOL     OW 1177   0.461   3.987   0.808  0.4531 -0.7337 -0.3025
    1SOL    HW2 1178   0.448   4.078   0.836  1.7134 -0.6034 -0.1168
    1SOL    HW3 1179   0.393   3.938   0.854  0.3894 -0.0299  0.3636
    1SOL    MW4 1180   0.451   3.993   0.818  0.6110 -0.6237 -0.1901
    1SOL     OW 1181   0.431   4.244   0.915  0.0678 -0.6085  0.1422
    1SOL    HW2 1182   0.435   4.241   1.010 -0.9182 -1.5503  0.1629
    1SOL    HW3 1183   0.358   4.302   0.894 -0.0808 -0.8579 -0.0359
    1SOL    MW4 1184   0.422   4.251   0.925 -0.0819 -0.7663  0.1215
    1SOL     OW 1185   0.651   4.416   0.797  0.3465 -0.3152  0.2266
    1SOL    HW2 1186   0.585   4.353   0.827 -0.3025  0.1058 -0.3054
    1SOL    HW3 1187   0.628   4.498   0.841  1.8617 -0.7009  1.8148
    1SOL    MW4 1188   0.639   4.419   0.807  0.4607 -0.3104  0.3660
    1SOL     OW 1189   1.112   4.637   0.892 -0.2958 -0.6106  0.0765
    1SOL    HW2 1190   1.189   4.689   0.869  0.2660 -1.8154 -0.7804
    1SOL    HW3 1191   1.039   4.687   0.854  0.2349 -0.4184 -0.7164
    1SOL    MW4 1192   1.112   4.651   0.884 -0.1516 -0.7439 -0.1412
    1SOL     OW 1193   0.898   0.135   0.816 -0.0998  0.3762 -0.1089
    1SOL    HW2 1194   0.886   0.226   0.842  0.2095  0.2412  0.5069
    1SOL    HW3 1195   0.824   0.089   0.855  0.6776  0.0753  1.0432
    1SOL    MW4 1196   0.887   0.141   0.825  0.0435  0.3187  0.1243
    1SOL     OW 1197   0.863   0.396   0.920 -0.0091  0.0312  0.0475
    1SOL    HW2 1198   0.862   0.409   1.015 -0.5103 -1.1999  0.2236
    1SOL    HW3 1199   0.935   0.451   0.889  0.1628  0.4406  1.1364
    1SOL    MW4 1200   0.872   0.405   0.929 -0.0525 -0.0772  0.2143
    1SOL     OW 1201   1.058   0.536   0.824 -0.3715 -0.2746 -0.8298
    1SOL    HW2 1202   1.115   0.462   0.842 -0.9239 -0.5174 -0.0742
    1SOL    HW3 1203   1.055   0.542   0.728  0.0837 -0.9018 -0.8806
    1SOL    MW4 1204   1.065   0.527   0.814 -0.3842 -0.3894 -0.7368
    1SOL     OW 1205   1.127   0.789   0.914  0.4450  0.1714 -0.1106
    1SOL    HW2 1206   1.143   0.794   1.009 -0.6235 -0.6380  0.1290
    1SOL    HW3 1207   1.095   0.700   0.900 -1.3285  0.9127 -0.9172
    1SOL    MW4 1208   1.125   0.778   0.925  0.0701  0.1625 -0.1854
    1SOL     OW 1209   0.839   1.182   0.942  0.0347  0.4903 -0.5001
    1SOL    HW2 1210   0.856   1.096   0.904 -2.8829 -0.2180 -0.2566
    1SOL    HW3 1211   0.778   1.224   0.881  0.8462  2.1050 -0.2240
    1SOL    MW4 1212   0.834   1.176   0.929 -0.2432  0.6099 -0.4315
    1SOL     OW 1213   0.650   1.309   0.782 -0.1107  0.1591 -0.3533
    1SOL    HW2 1214   0.653   1.401   0.808  0.3385  0.2201 -0.6212
    1SOL    HW3 1215   0.704   1.305   0.703 -1.0533 -0.1240 -0.9854
    1SOL    MW4 1216   0.658   1.321   0.775 -0.1758  0.1298 -0.4721
    1SOL     OW 1217   1.069   1.298   0.817 -0.4280 -0.2214 -0.0155
    1SOL    HW2 1218   0.997   1.267   0.871 -0.1641  0.2148  0.5974
    1SOL    HW3 1219   1.146   1.249   0.848 -0.0285  0.9561  0.8975
    1SOL    MW4 1220   1.070   1.288   0.828 -0.3405 -0.0086  0.1858
    1SOL     OW 1221   1.098   1.568   0.899 -0.0964 -0.0280 -0.2225
    1SOL    HW2 1222   1.027   1.616   0.855 -0.2027 -0.9996 -1.1373
    1SOL    HW3 1223   1.093   1.480   0.862 -0.0342 -0.8093  1.5805
    1SOL    MW4 1224   1.088   1.563   0.888 -0.1022 -0.2593 -0.1052
    1SOL     OW 1225   0.871   1.719   0.832  0.5717 -0.2234  0.2577
    1SOL    HW2 1226   0.836   1.719   0.743  0.9574 -0.0724  0.1042
    1SOL    HW3 1227   0.873   1.811   0.858  0.3014 -0.2808  0.4867
    1SOL    MW4 1228   0.867   1.731   0.824  0.5869 -0.2111  0.2677
    1SOL     OW 1229   1.317   2.258   0.835  0.3170  0.1422  0.1764
    1SOL    HW2 1230   1.344   2.174   0.872 -0.0494  0.0997  0.3441
    1SOL    HW3 1231   1.353   2.257   0.746 -0.2197 -0.4570 -0.0308
    1SOL    MW4 1232   1.325   2.247   0.828  0.1976  0.0577  0.1712
    1SOL     OW 1233   0.449   2.459   0.890  0.0083 -0.5635  0.2715
    1SOL    HW2 1234   0.459   2.552   0.908  0.9630 -0.6840  0.3781
    1SOL    HW3 1235   0.490   2.415   0.965 -0.4042 -1.0691  0.2037
    1SOL    MW4 1236   0.456   2.465   0.902  0.0798 -0.6464  0.2766
    1SOL     OW 1237   1.172   2.505   0.618  0.0641 -0.0950  0.3077
    1SOL    HW2 1238   1.127   2.422   0.603 -0.2550  0.0546  0.4489
    1SOL    HW3 1239   1.222   2.520   0.538 -0.1033 -0.2809  0.1698
    1SOL    MW4 1240   1.173   2.496   0.605 -0.0002 -0.1001  0.3080
    1SOL     OW 1241   0.981   2.684   0.696  0.0400 -0.2956 -0.0606
    1SOL    HW2 1242   1.005   2.765   0.653 -1.0273 -0.4822 -1.0195
    1SOL    HW3 1243   1.051   2.623   0.674  1.4096  0.6365  1.5498
    1SOL    MW4 1244   0.993   2.686   0.688  0.0799 -0.1976  0.0253
    1SOL     OW 1245   0.916   2.865   0.905 -0.1630  0.3468  0.1712
    1SOL    HW2 1246   0.895   2.826   0.990 -1.8964  1.0878  0.1173
    1SOL    HW3 1247   0.927   2.790   0.847 -0.0785 -0.1434  0.8048
    1SOL    MW4 1248   0.914   2.850   0.909 -0.3806  0.3800  0.2477
    1SOL     OW 1249   1.354   2.946   0.479  0.2929 -0.0056 -0.1946
    1SOL    HW2 1250   1.341   2.928   0.572  1.6417 -1.2687 -0.2178
    1SOL    HW3 1251   1.288   2.893   0.435  0.4686 -0.3973  0.0068
    1SOL    MW4 1252   1.344   2.936   0.485  0.4941 -0.2239 -0.1711
    1SOL     OW 1253   1.121   3.067   0.889  0.1383  0.0612 -0.6576
    1SOL    HW2 1254   1.066   3.141   0.864 -1.4397 -1.1928 -1.0110
    1SOL    HW3 1255   1.060   2.993   0.897  1.7950 -1.4426 -1.3471
    1SOL    MW4 1256   1.105   3.067   0.887  0.1489 -0.3026 -0.7952
    1SOL     OW 1257   0.913   3.285   0.840  0.1129  0.1485  0.1133
    1SOL    HW2 1258   0.824   3.259   0.817 -0.1832 -0.7380  2.0902
    1SOL    HW3 1259   0.902   3.360   0.898  0.5636 -0.7314  1.3805
    1SOL    MW4 1260   0.900   3.291   0.845  0.1333 -0.0844  0.5413
    1SOL     OW 1261   0.888   3.505   0.993 -0.7496 -0.4434  0.1737
    1SOL    HW2 1262   0.964   3.547   0.954 -1.1610  0.0346 -0.1255
    1SOL    HW3 1263   0.814   3.538   0.942 -1.1141 -1.2453  0.1776
    1SOL    MW4 1264   0.888   3.515   0.981 -0.8519 -0.4859  0.1347
    1SOL     OW 1265   0.248   3.594   0.623  0.0182  0.1112  0.1745
    1SOL    HW2 1266   0.322   3.648   0.597  0.0645  0.2953  0.6797
    1SOL    HW3 1267   0.259   3.513   0.573  0.4752  0.1962  0.1354
    1SOL    MW4 1268   0.259   3.590   0.613  0.0846  0.1466  0.2360
    1SOL     OW 1269   1.130   3.868   0.878  0.3124 -0.0451  0.4507
    1SOL    HW2 1270   1.134   3.906   0.966  1.4099 -0.7998  0.7248
    1SOL    HW3 1271   1.135   3.774   0.892  0.7973 -0.1547 -0.4411
    1SOL    MW4 1272   1.131   3.861   0.892  0.5212 -0.1590  0.3691
    1SOL     OW 1273   0.891   3.986   0.814  0.3052  0.1626  0.3847
    1SOL    HW2 1274   0.887   4.076   0.846  2.0222  0.4722 -0.2182
    1SOL    HW3 1275   0.981   3.958   0.832 -0.0292 -1.2066 -0.0136
    1SOL    MW4 1276   0.903   3.994   0.820  0.4876  0.0226  0.2526
    1SOL     OW 1277   0.865   4.259   0.893  0.0637 -0.0719  0.2103
    1SOL    HW2 1278   0.948   4.299   0.867 -0.0184 -0.5551 -0.8171
    1SOL    HW3 1279   0.798   4.320   0.862  0.0086 -0.0724  0.3290
    1SOL    MW4 1280   0.867   4.272   0.886  0.0457 -0.1359  0.0904
    1SOL     OW 1281   1.124   4.370   0.831 -0.1389 -0.1778  0.4958
    1SOL    HW2 1282   1.200   4.321   0.861  1.2133 -0.1216 -2.6069
    1SOL    HW3 1283   1.134   4.457   0.870  0.6324 -0.5995  1.2433
    1SOL    MW4 1284   1.135   4.375   0.840  0.1414 -0.2255  0.1850
    1SOL     OW 1285   1.578   4.634   0.899  0.1891 -0.2858  0.3171
    1SOL    HW2 1286   1.586   4.624   0.994  0.2246 -0.0214  0.3416
    1SOL    HW3 1287   1.500   4.689   0.887  0.5649  0.2317  0.2184
    1SOL    MW4 1288   1.569   4.640   0.910  0.2433 -0.1826  0.3073
    1SOL     OW 1289   1.345   0.109   0.813 -0.1842  0.0774 -0.1803
    1SOL    HW2 1290   1.313   0.196   0.838 -1.1535 -0.6686  1.2263
    1SOL    HW3 1291   1.337   0.107   0.718  0.9812  1.9647 -0.3450
    1SOL    MW4 1292   1.340   0.120   0.804 -0.1583  0.2280 -0.0165
    1SOL     OW 1293   1.249   0.367   0.898 -1.1693 -0.1864  0.0684
    1SOL    HW2 1294   1.256   0.336   0.988 -1.8015  0.0654  0.2037
    1SOL    HW3 1295   1.319   0.431   0.889  0.2166 -1.6917 -0.2370
    1SOL    MW4 1296   1.259   0.371   0.909 -1.0698 -0.3518  0.0460
    1SOL     OW 1297   1.501   0.497   0.835  0.1808  0.3158 -0.4556
    1SOL    HW2 1298   1.577   0.441   0.851  0.2320  0.7543  0.9323
    1SOL    HW3 1299   1.532   0.586   0.851 -0.7697  0.4520  0.7550
    1SOL    MW4 1300   1.515   0.501   0.839  0.0621  0.3916 -0.1127
    1SOL     OW 1301   1.617   0.729   0.927  0.0736  0.2230  0.2102
    1SOL    HW2 1302   1.710   0.727   0.902 -0.6879 -2.2565 -2.6790
    1SOL    HW3 1303   1.580   0.799   0.874 -0.2402 -0.6889 -0.7969
    1SOL    MW4 1304   1.624   0.738   0.917 -0.0684 -0.2245 -0.3039
    1SOL     OW 1305   1.316   0.920   0.736  0.2311 -0.0682 -0.0647
    1SOL    HW2 1306   1.283   0.905   0.647 -0.6366  1.1624  0.0281
    1SOL    HW3 1307   1.259   0.867   0.792 -0.1050  0.2343 -0.1184
    1SOL    MW4 1308   1.304   0.911   0.731  0.0722  0.1341 -0.0596
    1SOL     OW 1309   1.316   1.150   0.878  0.0358 -0.6058  0.4369
    1SOL    HW2 1310   1.368   1.219   0.836 -1.1516  0.0000 -0.0776
    1SOL    HW3 1311   1.306   1.083   0.811 -1.8738  0.3688 -0.3005
    1SOL    MW4 1312   1.322   1.150   0.864 -0.3726 -0.3973  0.2718
    1SOL     OW 1313   1.610   1.420   0.914  0.3899  0.0656 -0.2068
    1SOL    HW2 1314   1.542   1.388   0.854 -0.3020 -1.8428  1.5450
    1SOL    HW3 1315   1.567   1.425   0.999  2.6363 -1.9778  1.1011
    1SOL    MW4 1316   1.595   1.416   0.917  0.5950 -0.4559  0.1969
    1SOL     OW 1317   1.802   1.615   0.861 -0.7650  0.0110 -0.5828
    1SOL    HW2 1318   1.730   1.559   0.889 -0.5991  0.4034  0.6384
    1SOL    HW3 1319   1.881   1.566   0.884 -0.6100  0.9962  1.0618
    1SOL    MW4 1320   1.803   1.601   0.868 -0.7226  0.1928 -0.2046
    1SOL     OW 1321   1.356   1.582   0.630 -0.3095 -0.2857  0.6886
    1SOL    HW2 1322   1.313   1.649   0.684  1.1455  1.1441  0.0918
    1SOL    HW3 1323   1.317   1.592   0.544  0.0683 -0.0464  0.5435
    1SOL    MW4 1324   1.345   1.592   0.626 -0.0676 -0.0653  0.5907
    1SOL     OW 1325   1.397   1.984   0.926 -0.1921  0.0940 -0.5236
    1SOL    HW2 1326   1.388   1.965   1.019 -0.1343  0.2179 -0.4923
    1SOL    HW3 1327   1.354   1.911   0.882  0.1657 -0.1870 -0.4073
    1SOL    MW4 1328   1.391   1.972   0.932 -0.1372  0.0733 -0.5041
    1SOL     OW 1329   2.011   2.034   0.852  0.2476 -0.4291 -0.2683
    1SOL    HW2 1330   2.021   2.119   0.894  3.0061 -1.3857  1.1075
    1SOL    HW3 1331   1.944   1.989   0.904  1.2245 -0.3574  1.0630
    1SOL    MW4 1332   2.003   2.040   0.864  0.7405 -0.5455  0.0888
    1SOL     OW 1333   1.494   2.443   0.940 -0.3352  0.2949  0.1179
    1SOL    HW2 1334   1.451   2.528   0.947 -1.8710 -0.3739 -1.0005
    1SOL    HW3 1335   1.426   2.383   0.910  0.5977 -1.4454  1.3151
    1SOL    MW4 1336   1.480   2.446   0.937 -0.4146 -0.0231  0.1283
    1SOL     OW 1337   1.160   2.785   0.334  0.0384 -0.6889 -0.1253
    1SOL    HW2 1338   1.201   2.698   0.341 -0.1921 -0.7665  0.3084
    1SOL    HW3 1339   1.105   2.779   0.256  0.7568 -0.6261 -0.6380
    1SOL    MW4 1340   1.158   2.773   0.325  0.1028 -0.6907 -0.1357
    1SOL     OW 1341   1.332   2.674   0.959 -0.1419 -0.3282 -0.2593
    1SOL    HW2 1342   1.336   2.709   1.048  0.4447  0.2051 -0.4894
    1SOL    HW3 1343   1.252   2.622   0.957 -0.4537  0.1180  0.4155
    1SOL    MW4 1344   1.322   2.672   0.970 -0.1056 -0.1991 -0.2006
    1SOL     OW 1345   1.559   2.779   0.786  0.3602  0.6129 -0.0132
    1SOL    HW2 1346   1.565   2.875   0.783  1.2616  0.6013  1.1331
    1SOL    HW3 1347   1.472   2.762   0.824  0.2723  0.9830 -0.0466
    1SOL    MW4 1348   1.548   2.790   0.791  0.4675  0.6604  0.1336
    1SOL     OW 1349   1.536   3.069   0.847 -0.0386  0.0764  0.6722
    1SOL    HW2 1350   1.528   3.094   0.939 -1.4814  1.8918  0.1019
    1SOL    HW3 1351   1.459   3.109   0.805  0.1067 -1.5087 -1.1493
    1SOL    MW4 1352   1.525   3.078   0.853 -0.2098  0.1068  0.3567
    1SOL     OW 1353   1.346   3.240   0.736 -0.0707 -0.2404 -0.4129
    1SOL    HW2 1354   1.267   3.195   0.707 -0.5285  0.0451  0.3772
    1SOL    HW3 1355   1.381   3.280   0.657 -0.4985 -0.6944 -0.8408
    1SOL    MW4 1356   1.340   3.239   0.722 -0.1876 -0.2625 -0.3651
    1SOL     OW 1357   1.361   3.458   0.912 -0.1712 -0.4523 -0.7747
    1SOL    HW2 1358   1.445   3.492   0.881 -1.1656  0.3298 -2.7542
    1SOL    HW3 1359   1.353   3.372   0.870 -0.8675 -0.0216 -1.5429
    1SOL    MW4 1360   1.371   3.451   0.902 -0.3942 -0.2921 -1.1372
    1SOL     OW 1361   1.814   3.578   0.356 -0.3056  0.2649 -0.3358
    1SOL    HW2 1362   1.848   3.488   0.355 -1.3798 -0.1508 -1.5725
    1SOL    HW3 1363   1.755   3.581   0.431 -1.3675 -0.4928 -1.1356
    1SOL    MW4 1364   1.811   3.567   0.366 -0.5875  0.1099 -0.6045
    1SOL     OW 1365   1.565   3.844   0.958  0.2135  0.2910 -0.3164
    1SOL    HW2 1366   1.644   3.892   0.930  1.4770 -0.6946  1.4652
    1SOL    HW3 1367   1.578   3.755   0.925  0.4413 -0.1793  1.0056
    1SOL    MW4 1368   1.577   3.839   0.950  0.4103  0.0987  0.0930
    1SOL     OW 1369   1.367   3.981   0.790  0.3867 -0.0196 -0.3114
    1SOL    HW2 1370   1.434   3.950   0.852 -0.3680  0.1151  0.5787
    1SOL    HW3 1371   1.295   3.919   0.800 -0.4494  1.0441  0.2422
    1SOL    MW4 1372   1.366   3.968   0.800  0.1768  0.1385 -0.1210
    1SOL     OW 1373   1.363   4.256   0.890  0.1758  0.3652 -0.4578
    1SOL    HW2 1374   1.443   4.295   0.854  0.1766  0.8025  0.0059
    1SOL    HW3 1375   1.359   4.169   0.851  1.1503  0.1555 -0.1149
    1SOL    MW4 1376   1.373   4.250   0.880  0.3045  0.3953 -0.3514
    1SOL     OW 1377   1.611   4.380   0.788  0.2787  0.0472  0.0048
    1SOL    HW2 1378   1.697   4.345   0.813  0.4288  0.6780  0.3919
    1SOL    HW3 1379   1.611   4.469   0.822  0.3341  0.8120 -1.9094
    1SOL    MW4 1380   1.622   4.387   0.796  0.3058  0.2308 -0.1968
    1SOL     OW 1381   2.072   4.374   0.766 -0.1124  0.0257  0.1072
    1SOL    HW2 1382   1.994   4.320   0.776  0.1875 -0.7153 -1.3443
    1SOL    HW3 1383   2.087   4.376   0.671  2.8286 -1.5569  0.4934
    1SOL    MW4 1384   2.064   4.367   0.755  0.3152 -0.2809 -0.0334
    1SOL     OW 1385   1.571   0.223   0.449  0.3066  0.4698  0.5820
    1SOL    HW2 1386   1.540   0.239   0.360  1.5799  0.5357  0.1461
    1SOL    HW3 1387   1.503   0.169   0.489  1.1519 -2.1468 -1.3881
    1SOL    MW4 1388   1.558   0.218   0.442  0.5860  0.1332  0.2646
    1SOL     OW 1389   1.726   0.346   0.843  0.5061 -0.1471 -0.8745
    1SOL    HW2 1390   1.795   0.394   0.797 -0.2687 -0.7765 -2.7775
    1SOL    HW3 1391   1.749   0.254   0.831  0.6005 -0.3118  0.5155
    1SOL    MW4 1392   1.738   0.340   0.835  0.4164 -0.2519 -0.9422
    1SOL     OW 1393   2.026   0.684   0.342  0.0988  0.4566 -0.0922
    1SOL    HW2 1394   1.935   0.683   0.372  0.5688 -1.2011  1.3565
    1SOL    HW3 1395   2.022   0.659   0.250 -1.0083  1.6600 -0.3845
    1SOL    MW4 1396   2.014   0.681   0.334  0.0145  0.3966  0.0603
    1SOL     OW 1397   1.899   0.719   0.855 -0.4514  0.1758 -0.1970
    1SOL    HW2 1398   1.911   0.656   0.784 -0.4416  0.1012 -0.1282
    1SOL    HW3 1399   1.939   0.800   0.821 -1.2627  0.3932 -0.6346
    1SOL    MW4 1400   1.906   0.722   0.841 -0.5573  0.1946 -0.2456
    1SOL     OW 1401   1.806   0.861   0.580 -0.2899 -0.1511  0.3028
    1SOL    HW2 1402   1.740   0.869   0.649  1.4690  1.4497  1.8639
    1SOL    HW3 1403   1.889   0.877   0.624  0.9058  0.7621 -2.1525
    1SOL    MW4 1404   1.808   0.864   0.595  0.0998  0.1805  0.1848
    1SOL     OW 1405   1.717   1.166   0.889  0.1576  0.6377  0.4313
    1SOL    HW2 1406   1.684   1.255   0.887  0.8420  0.8685 -0.9398
    1SOL    HW3 1407   1.805   1.171   0.851 -0.8151 -1.0138 -2.2154
    1SOL    MW4 1408   1.724   1.178   0.884  0.1194  0.4501 -0.0988
    1SOL     OW 1409   2.098   1.175   0.410 -0.1058  0.3391 -0.7465
    1SOL    HW2 1410   2.018   1.202   0.455  0.3620  0.1895  0.1975
    1SOL    HW3 1411   2.154   1.252   0.414 -0.2014  0.4380 -1.3917
    1SOL    MW4 1412   2.095   1.189   0.417 -0.0567  0.3325 -0.7070
    1SOL     OW 1413   1.976   1.201   0.791  0.3542 -0.5707  0.1354
    1SOL    HW2 1414   1.989   1.293   0.817  0.3373 -1.1346  2.1786
    1SOL    HW3 1415   2.054   1.156   0.823  0.4397 -1.2609 -1.0226
    1SOL    MW4 1416   1.988   1.207   0.798  0.3633 -0.7361  0.2522
    1SOL     OW 1417   2.456   0.173   0.844  0.2449 -0.3230 -0.2598
    1SOL    HW2 1418   2.464   0.169   0.748  1.1107  0.9337 -0.2517
    1SOL    HW3 1419   2.538   0.213   0.873 -0.3801  0.1105  0.9403
    1SOL    MW4 1420   2.468   0.178   0.835  0.2766 -0.1000 -0.1004
    1SOL     OW 1421   1.788   1.883   0.936 -0.1018  0.6404 -0.2564
    1SOL    HW2 1422   1.773   1.789   0.923  2.5073  0.1251  0.1434
    1SOL    HW3 1423   1.735   1.925   0.869 -0.9439 -1.1563 -0.7470
    1SOL    MW4 1424   1.779   1.876   0.925  0.1314  0.3353 -0.2683
    1SOL     OW 1425   2.296   2.096   0.595  0.7909 -0.0614 -0.3924
    1SOL    HW2 1426   2.338   2.101   0.681 -0.8426 -1.2574  0.4961
    1SOL    HW3 1427   2.303   2.185   0.561  0.1114  0.8164  1.6484
    1SOL    MW4 1428   2.303   2.109   0.602  0.4859 -0.1035 -0.0060
    1SOL     OW 1429   2.004   2.302   0.946  0.5868 -0.2809  0.2287
    1SOL    HW2 1430   2.006   2.330   1.038  0.0741 -0.9343  0.4353
    1SOL    HW3 1431   1.919   2.332   0.914  0.2262 -1.2008  0.3244
    1SOL    MW4 1432   1.993   2.310   0.954  0.4715 -0.4885  0.2686
    1SOL     OW 1433   1.771   2.395   0.832  0.1204  0.0505 -0.1078
    1SOL    HW2 1434   1.677   2.409   0.840  0.2426  1.0228 -0.3392
    1SOL    HW3 1435   1.787   2.393   0.738  0.5066  1.1401 -0.0738
    1SOL    MW4 1436   1.761   2.396   0.821  0.1875  0.3226 -0.1339
    1SOL     OW 1437   1.793   2.677   0.912  0.9334 -0.3330 -0.4768
    1SOL    HW2 1438   1.804   2.587   0.880  0.3345 -0.6333  0.1351
    1SOL    HW3 1439   1.715   2.709   0.867  1.5349  0.1254 -1.2090
    1SOL    MW4 1440   1.784   2.669   0.902  0.9336 -0.3121 -0.4927
    1SOL     OW 1441   2.037   2.822   0.821 -0.2343  0.2052  0.1264
    1SOL    HW2 1442   2.118   2.772   0.834  0.7924  1.9251  0.4594
    1SOL    HW3 1443   1.969   2.769   0.863  0.8949 -0.7161  0.8119
    1SOL    MW4 1444   2.038   2.808   0.828  0.0501  0.3104  0.2608
    1SOL     OW 1445   2.013   3.084   0.905 -0.3151 -0.2381  0.2832
    1SOL    HW2 1446   1.941   3.107   0.847 -0.5923 -0.0355  0.7091
    1SOL    HW3 1447   2.039   2.996   0.876 -0.7650 -0.3332  0.1625
    1SOL    MW4 1448   2.007   3.075   0.893 -0.4110 -0.2239  0.3235
    1SOL     OW 1449   1.825   3.448   0.896 -0.0672  0.0014  0.3544
    1SOL    HW2 1450   1.826   3.355   0.877  1.5313 -0.0767  0.7070
    1SOL    HW3 1451   1.813   3.453   0.991 -1.3373  0.1910  0.1863
    1SOL    MW4 1452   1.824   3.437   0.906 -0.0237  0.0160  0.3787
    1SOL     OW 1453   1.593   3.574   0.830 -0.1711 -0.0026 -0.3179
    1SOL    HW2 1454   1.662   3.516   0.862  0.0171  0.6986  0.5691
    1SOL    HW3 1455   1.606   3.577   0.735 -0.1083 -1.2971 -0.3669
    1SOL    MW4 1456   1.604   3.566   0.821 -0.1379 -0.0808 -0.2074
    1SOL     OW 1457   2.055   3.603   0.816 -0.1700  0.2905 -0.1250
    1SOL    HW2 1458   2.031   3.675   0.875  0.7899 -0.5471  1.3217
    1SOL    HW3 1459   1.984   3.540   0.825  0.3834 -0.2146  0.8004
    1SOL    MW4 1460   2.043   3.604   0.825  0.0298  0.1135  0.1880
    1SOL     OW 1461   2.036   3.858   0.922 -0.3632  0.3311 -0.3568
    1SOL    HW2 1462   2.053   3.871   1.015  0.1210 -1.3341 -0.2026
    1SOL    HW3 1463   2.110   3.900   0.878  0.0109  0.0967  0.0478
    1SOL    MW4 1464   2.048   3.865   0.929 -0.2501  0.0801 -0.2831
    1SOL     OW 1465   1.936   3.306   0.383  0.2902  0.5147  0.0189
    1SOL    HW2 1466   1.962   3.226   0.338 -0.6702  0.3008 -0.1689
    1SOL    HW3 1467   2.019   3.347   0.409  0.8526  0.3802 -1.4856
    1SOL    MW4 1468   1.950   3.301   0.380  0.2376  0.4690 -0.2044
    1SOL     OW 1469   1.839   4.246   0.868 -0.0273  0.0874 -0.1893
    1SOL    HW2 1470   1.859   4.250   0.962  0.6152 -1.0816 -0.2844
    1SOL    HW3 1471   1.816   4.155   0.852 -0.8082  0.4240 -1.0446
    1SOL    MW4 1472   1.838   4.235   0.878 -0.0455 -0.0224 -0.3147
    1SOL     OW 1473   1.791   3.969   0.853 -0.1047  0.1997 -0.1634
    1SOL    HW2 1474   1.873   3.924   0.873 -0.3691 -0.2734 -0.1355
    1SOL    HW3 1475   1.785   3.969   0.758 -0.1827  0.0373 -0.1581
    1SOL    MW4 1476   1.801   3.963   0.843 -0.1498  0.1156 -0.1591
    1SOL     OW 1477   1.875   0.522   0.679 -0.1377 -0.0733 -0.1537
    1SOL    HW2 1478   1.966   0.507   0.651  0.0603  1.2305 -0.2388
    1SOL    HW3 1479   1.829   0.543   0.598 -0.6278 -1.1523 -0.1731
    1SOL    MW4 1480   1.881   0.523   0.664 -0.1763 -0.0437 -0.1675
    1SOL     OW 1481   2.135   4.618   0.900 -0.4004  0.2702  0.0710
    1SOL    HW2 1482   2.229   4.618   0.917 -0.3089  1.1737 -0.3781
    1SOL    HW3 1483   2.118   4.537   0.852  0.2811  0.4910 -0.5374
    1SOL    MW4 1484   2.145   4.607   0.896 -0.2983  0.4187 -0.0685
    1SOL     OW 1485   2.187   0.215   0.537  0.2649  0.0029 -0.1056
    1SOL    HW2 1486   2.159   0.305   0.522 -0.2958  0.1340  1.6618
    1SOL    HW3 1487   2.132   0.183   0.608  0.9005 -1.5258 -0.2678
    1SOL    MW4 1488   2.176   0.223   0.544  0.2747 -0.1815  0.1062
    1SOL     OW 1489   3.022   0.574   0.619 -0.0495 -0.3269 -0.0938
    1SOL    HW2 1490   2.938   0.584   0.575 -0.1662  1.1247  0.4480
    1SOL    HW3 1491   3.001   0.576   0.712  0.5056 -0.6970  0.0431
    1SOL    MW4 1492   3.008   0.576   0.625  0.0081 -0.1842 -0.0043
    1SOL     OW 1493   2.034   0.159   0.761  0.1595  0.2431 -0.5569
    1SOL    HW2 1494   1.943   0.138   0.739  0.3334  0.2417 -1.2852
    1SOL    HW3 1495   2.069   0.079   0.799 -0.5446  0.6612  1.0186
    1SOL    MW4 1496   2.027   0.146   0.763  0.0896  0.2981 -0.4451
    1SOL     OW 1497   2.451   1.025   0.487 -0.6385 -0.1733 -0.1638
    1SOL    HW2 1498   2.373   0.983   0.451 -1.4763  0.6249  0.6831
    1SOL    HW3 1499   2.471   1.095   0.425  0.0301 -1.0290 -0.9275
    1SOL    MW4 1500   2.443   1.029   0.474 -0.6609 -0.1808 -0.1528
    1SOL     OW 1501   2.209   1.065   0.880  0.2034 -0.5854 -0.3114
    1SOL    HW2 1502   2.204   1.096   0.970  0.7521  1.1805 -0.8616
    1SOL    HW3 1503   2.278   1.118   0.840 -1.2893 -0.0271 -2.2496
    1SOL    MW4 1504   2.218   1.076   0.887  0.0784 -0.2787 -0.6397
    1SOL     OW 1505   2.632   0.814   0.805 -0.1475  0.2288  0.0989
    1SOL    HW2 1506   2.715   0.788   0.845  0.6860  1.2193 -0.9842
    1SOL    HW3 1507   2.653   0.827   0.713 -1.6608 -0.1821 -0.3121
    1SOL    MW4 1508   2.646   0.812   0.798 -0.2370  0.3054 -0.0982
    1SOL     OW 1509   2.243   1.615   0.842 -0.2638  0.3230 -0.7292
    1SOL    HW2 1510   2.262   1.626   0.749  1.1742  0.6235 -0.4061
    1SOL    HW3 1511   2.328   1.601   0.883 -0.8041  1.0126  0.6631
    1SOL    MW4 1512   2.257   1.615   0.835 -0.1457  0.4536 -0.5029
    1SOL     OW 1513   2.029   1.441   0.906 -0.3806 -0.3383 -0.4719
    1SOL    HW2 1514   2.023   1.454   1.001 -2.3512  0.5704 -0.7012
    1SOL    HW3 1515   2.103   1.496   0.879 -0.1432 -0.1949  0.4611
    1SOL    MW4 1516   2.038   1.450   0.915 -0.6094 -0.1997 -0.3790
    1SOL     OW 1517   2.249   1.876   0.927 -0.2855 -0.3114  0.4042
    1SOL    HW2 1518   2.232   1.783   0.912  0.4250 -0.6498  1.5943
    1SOL    HW3 1519   2.167   1.919   0.905 -0.1093 -1.0384 -1.7371
    1SOL    MW4 1520   2.236   1.869   0.922 -0.1683 -0.4518  0.2788
    1SOL     OW 1521   2.689   1.728   0.902 -0.1273  0.1684  0.2107
    1SOL    HW2 1522   2.687   1.771   0.987 -1.1677 -0.8201  0.7090
    1SOL    HW3 1523   2.754   1.658   0.911 -1.4518 -1.0289  0.7692
    1SOL    MW4 1524   2.697   1.724   0.914 -0.4392 -0.1199  0.3501
    1SOL     OW 1525   2.458   2.308   0.945 -0.1273  0.1553  0.0799
    1SOL    HW2 1526   2.530   2.357   0.905 -1.5833  0.3238 -2.4509
    1SOL    HW3 1527   2.461   2.222   0.903 -1.1164 -0.0004  0.3137
    1SOL    MW4 1528   2.468   2.303   0.934 -0.4499  0.1569 -0.2232
    1SOL     OW 1529   2.234   2.398   0.807  0.2873  0.2448 -0.2740
    1SOL    HW2 1530   2.303   2.357   0.860  0.5969 -0.2712 -1.0744
    1SOL    HW3 1531   2.153   2.360   0.841  0.6168 -1.5788 -1.4688
    1SOL    MW4 1532   2.233   2.387   0.819  0.3715 -0.0637 -0.5373
    1SOL     OW 1533   2.277   2.695   0.891 -0.4646  0.0551 -0.2271
    1SOL    HW2 1534   2.263   2.684   0.985 -2.8042 -1.4762 -0.7108
    1SOL    HW3 1535   2.277   2.605   0.856 -2.2302  0.6992 -1.9957
    1SOL    MW4 1536   2.275   2.681   0.899 -1.0061 -0.0622 -0.5242
    1SOL     OW 1537   2.497   2.845   0.796 -0.0283  0.1634  0.4185
    1SOL    HW2 1538   2.566   2.784   0.820  0.5318  0.7257  0.2511
    1SOL    HW3 1539   2.417   2.806   0.830  0.4690 -0.1422  1.2411
    1SOL    MW4 1540   2.495   2.832   0.803  0.1116  0.1972  0.5049
    1SOL     OW 1541   2.496   3.117   0.880  0.6308  0.0236  0.3408
    1SOL    HW2 1542   2.503   3.122   0.975  0.3623  1.2875  0.3022
    1SOL    HW3 1543   2.506   3.024   0.860  0.0050 -0.3381  1.6591
    1SOL    MW4 1544   2.498   3.106   0.890  0.5128  0.1428  0.5097
    1SOL     OW 1545   2.245   3.239   0.825  0.3899  0.0540 -0.0769
    1SOL    HW2 1546   2.170   3.188   0.855  0.6116 -0.0996  0.2214
    1SOL    HW3 1547   2.320   3.198   0.867  0.6831 -0.0151 -0.6596
    1SOL    MW4 1548   2.245   3.227   0.834  0.4580  0.0246 -0.1144
    1SOL     OW 1549   2.265   3.483   0.953  0.4736  0.6284 -0.7485
    1SOL    HW2 1550   2.269   3.398   0.910  1.2805 -0.1918  0.8953
    1SOL    HW3 1551   2.186   3.524   0.917  0.1371 -0.7629 -1.6571
    1SOL    MW4 1552   2.255   3.477   0.943  0.5355  0.3366 -0.6515
    1SOL     OW 1553   2.485   3.624   0.867  0.0722  0.1827  0.4501
    1SOL    HW2 1554   2.553   3.557   0.872 -0.9470 -1.0022 -0.8403
    1SOL    HW3 1555   2.404   3.578   0.891 -0.4340  1.2855  0.8910
    1SOL    MW4 1556   2.483   3.609   0.871 -0.1292  0.1719  0.3380
    1SOL     OW 1557   1.470   3.338   0.507 -0.2540  0.3211 -0.0383
    1SOL    HW2 1558   1.423   3.291   0.438 -0.7426 -0.0264  0.5229
    1SOL    HW3 1559   1.557   3.298   0.507 -0.7270 -0.7518  0.5721
    1SOL    MW4 1560   1.475   3.326   0.498 -0.3809  0.1335  0.1163
    1SOL     OW 1561   2.249   3.981   0.796 -0.3766  0.4052 -0.0523
    1SOL    HW2 1562   2.208   3.990   0.710  0.1269 -1.7239 -0.5495
    1SOL    HW3 1563   2.239   4.067   0.837 -0.9910  1.3158 -2.0714
    1SOL    MW4 1564   2.242   3.994   0.790 -0.3910  0.2444 -0.3843
    1SOL     OW 1565   2.092   4.374   0.490 -0.2175  0.0156 -0.0556
    1SOL    HW2 1566   2.010   4.325   0.479 -0.4931  0.3619  0.4863
    1SOL    HW3 1567   2.066   4.466   0.483  0.0573  0.1399  0.5886
    1SOL    MW4 1568   2.077   4.380   0.487 -0.2174  0.0777  0.1009
    1SOL     OW 1569   2.241   4.219   0.927 -0.3883  0.2061  0.0585
    1SOL    HW2 1570   2.329   4.252   0.911 -0.2832  0.8086  1.8660
    1SOL    HW3 1571   2.185   4.270   0.868  0.4181  0.0108 -0.8884
    1SOL    MW4 1572   2.245   4.230   0.917 -0.2680  0.2604  0.1721
    1SOL     OW 1573   2.898   4.587   0.906  0.3291 -1.0403  0.1105
    1SOL    HW2 1574   2.970   4.545   0.858  1.2297 -0.5633  1.0100
    1SOL    HW3 1575   2.866   4.654   0.846 -0.4338 -2.3161 -0.9256
    1SOL    MW4 1576   2.903   4.590   0.892  0.3471 -1.1454  0.0925
    1SOL     OW 1577   2.025   4.626   0.456  0.8817 -0.3058  0.2789
    1SOL    HW2 1578   1.939   4.668   0.465  0.2821 -1.5825  0.5424
    1SOL    HW3 1579   2.086   4.699   0.444 -0.4222  0.5358 -1.4612
    1SOL    MW4 1580   2.022   4.641   0.456  0.6304 -0.3638  0.0840
    1SOL     OW 1581   2.682   0.329   0.875  0.5337 -0.6691 -0.0317
    1SOL    HW2 1582   2.680   0.336   0.970 -1.7628 -0.5614 -0.0658
    1SOL    HW3 1583   2.642   0.410   0.844 -1.8800 -2.1614 -0.9844
    1SOL    MW4 1584   2.676   0.340   0.883 -0.0877 -0.8518 -0.1619
    1SOL     OW 1585   2.555   0.545   0.759  0.1687  0.2215  0.3697
    1SOL    HW2 1586   2.572   0.634   0.790 -2.0871  2.2283 -3.7368
    1SOL    HW3 1587   2.462   0.545   0.736  1.1643 -1.6180 -4.2586
    1SOL    MW4 1588   2.545   0.557   0.760  0.0026  0.2435 -0.7828
    1SOL     OW 1589   2.863   0.732   0.937  0.1195  0.0631  0.2926
    1SOL    HW2 1590   2.853   0.740   1.032 -0.2425  0.1747  0.2451
    1SOL    HW3 1591   2.909   0.649   0.925 -1.6302 -0.9561  0.4671
    1SOL    MW4 1592   2.868   0.722   0.948 -0.1590 -0.0567  0.3093
    1SOL     OW 1593   2.286   1.377   0.483 -0.0798 -0.0938  0.2366
    1SOL    HW2 1594   2.290   1.471   0.499 -0.6929 -0.1190  0.5333
    1SOL    HW3 1595   2.367   1.358   0.436 -0.2440  0.6892 -0.3859
    1SOL    MW4 1596   2.297   1.387   0.479 -0.1822  0.0062  0.1936
    1SOL     OW 1597   2.688   1.095   0.946  0.2022  0.0670  0.2698
    1SOL    HW2 1598   2.693   1.007   0.907  0.1119  0.1821 -0.0022
    1SOL    HW3 1599   2.766   1.140   0.915 -0.5986  0.6368 -0.9641
    1SOL    MW4 1600   2.699   1.089   0.937  0.0846  0.1574  0.0711
    1SOL     OW 1601   2.933   1.265   0.574  0.0211 -0.4389  0.6399
    1SOL    HW2 1602   2.858   1.322   0.558 -0.2997 -1.7513 -3.2029
    1SOL    HW3 1603   3.008   1.324   0.581 -0.8203  0.6612  0.4108
    1SOL    MW4 1604   2.933   1.280   0.573 -0.1321 -0.4668  0.1028
    1SOL     OW 1605   2.591   1.341   0.802 -0.5640  0.5423 -0.0493
    1SOL    HW2 1606   2.634   1.266   0.845 -1.1619 -0.0028 -0.3844
    1SOL    HW3 1607   2.515   1.302   0.759 -0.0935  1.1193 -1.4284
    1SOL    MW4 1608   2.587   1.326   0.802 -0.5810  0.5465 -0.2754
    1SOL     OW 1609   2.711   1.429   0.569  0.3088  0.0923 -0.4357
    1SOL    HW2 1610   2.726   1.522   0.552 -3.3785  0.5968 -1.3613
    1SOL    HW3 1611   2.669   1.427   0.655 -0.6842 -0.6035 -0.9306
    1SOL    MW4 1612   2.708   1.441   0.578 -0.3088  0.0672 -0.6230
    1SOL     OW 1613   2.932   0.987   0.499 -0.1469 -0.3253 -0.1816
    1SOL    HW2 1614   3.024   0.962   0.507 -0.2352 -0.6799 -0.2622
    1SOL    HW3 1615   2.932   1.082   0.507  0.1233 -0.4007  0.8125
    1SOL    MW4 1616   2.944   0.996   0.501 -0.1228 -0.3821 -0.0612
    1SOL     OW 1617   3.081   2.495   0.795  0.2088 -0.2637  0.4174
    1SOL    HW2 1618   3.055   2.544   0.717  1.4347  0.3082  0.3507
    1SOL    HW3 1619   3.109   2.562   0.857 -1.0780 -0.6952  1.4898
    1SOL    MW4 1620   3.081   2.510   0.793  0.2005 -0.2451  0.5501
    1SOL     OW 1621   2.869   2.056   0.760 -0.1016  0.2279  0.5523
    1SOL    HW2 1622   2.874   2.084   0.669  1.1360  0.9860  0.8431
    1SOL    HW3 1623   2.892   2.134   0.811  1.4105 -0.7759  1.4305
    1SOL    MW4 1624   2.873   2.070   0.755  0.2613  0.1957  0.7065
    1SOL     OW 1625   2.896   2.296   0.905 -0.2471  0.1025  0.4755
    1SOL    HW2 1626   2.949   2.373   0.881 -1.5915  0.6902 -0.7086
    1SOL    HW3 1627   2.899   2.293   1.000  2.7487 -0.4751  0.4293
    1SOL    MW4 1628   2.904   2.306   0.914 -0.0291  0.1037  0.3132
    1SOL     OW 1629   2.698   2.708   0.919  0.1667  0.0192 -0.3746
    1SOL    HW2 1630   2.765   2.773   0.897  1.6905 -1.1540  0.6378
    1SOL    HW3 1631   2.694   2.708   1.014  0.4633 -1.6097 -0.3409
    1SOL    MW4 1632   2.707   2.716   0.928  0.4067 -0.3505 -0.2366
    1SOL     OW 1633   2.408   3.947   0.476 -0.0865  0.5791  0.4319
    1SOL    HW2 1634   2.318   3.978   0.480 -0.4831 -0.3725 -0.6782
    1SOL    HW3 1635   2.404   3.857   0.510  0.1843  0.0249 -0.9680
    1SOL    MW4 1636   2.396   3.939   0.481 -0.1030  0.3805  0.1007
    1SOL     OW 1637   2.917   3.124   0.912 -0.0818 -0.0517 -0.6096
    1SOL    HW2 1638   2.838   3.165   0.877 -0.8517  0.8217  2.0362
    1SOL    HW3 1639   2.988   3.185   0.891 -0.9066  1.6644  1.4278
    1SOL    MW4 1640   2.916   3.137   0.905 -0.2923  0.2899  0.0083
    1SOL     OW 1641   2.714   3.220   0.743 -0.1809  0.4955 -0.3211
    1SOL    HW2 1642   2.722   3.306   0.784  0.3597  0.2554  0.0772
    1SOL    HW3 1643   2.639   3.180   0.786 -0.5972  0.8625 -0.6883
    1SOL    MW4 1644   2.706   3.226   0.754 -0.1645  0.5121 -0.3170
    1SOL     OW 1645   2.705   3.458   0.884  0.1199 -0.0306  0.0826
    1SOL    HW2 1646   2.704   3.457   0.980 -0.7998  0.4140  0.0829
    1SOL    HW3 1647   2.779   3.513   0.861  1.5418 -1.7156  0.5192
    1SOL    MW4 1648   2.714   3.465   0.894  0.1862 -0.1945  0.1402
    1SOL     OW 1649   2.696   3.779   0.644 -0.0729  0.3968  0.5410
    1SOL    HW2 1650   2.688   3.865   0.687 -1.6876  0.4420  0.1662
    1SOL    HW3 1651   2.607   3.744   0.643  0.2008 -0.2946 -1.3704
    1SOL    MW4 1652   2.684   3.786   0.650 -0.2499  0.3114  0.2393
    1SOL     OW 1653   2.898   3.864   0.898 -0.5009  0.1129 -0.2129
    1SOL    HW2 1654   2.897   3.773   0.870  0.5098  0.3203 -0.9848
    1SOL    HW3 1655   2.901   3.860   0.994  0.1694 -0.6831 -0.2567
    1SOL    MW4 1656   2.898   3.852   0.907 -0.2789  0.0350 -0.3206
    1SOL     OW 1657   2.481   3.894   0.921 -0.3288 -0.0928  0.0694
    1SOL    HW2 1658   2.407   3.926   0.870  0.1845  0.1182 -0.5412
    1SOL    HW3 1659   2.478   3.799   0.911 -1.2568 -0.1829  1.0704
    1SOL    MW4 1660   2.471   3.885   0.913 -0.3839 -0.0765  0.1208
    1SOL     OW 1661   2.689   4.012   0.788 -0.3820 -0.1074  0.2305
    1SOL    HW2 1662   2.609   3.986   0.834 -0.0299  0.0637  0.9395
    1SOL    HW3 1663   2.760   3.974   0.840  0.0723  1.1248  0.5266
    1SOL    MW4 1664   2.687   4.003   0.801 -0.2756  0.0777  0.3631
    1SOL     OW 1665   3.123   3.966   1.273  0.2784 -0.6559  0.5294
    1SOL    HW2 1666   3.138   3.971   1.367 -2.5460 -1.1056  1.0694
    1SOL    HW3 1667   3.124   4.057   1.244  2.3632 -0.5838  0.7514
    1SOL    MW4 1668   3.125   3.979   1.282  0.1807 -0.7057  0.6299
    1SOL     OW 1669   2.834   0.132   0.714 -0.2336 -0.3489  0.4755
    1SOL    HW2 1670   2.811   0.150   0.622  0.6125 -0.6878  0.1867
    1SOL    HW3 1671   2.794   0.204   0.763 -0.9648 -0.3367 -0.1205
    1SOL    MW4 1672   2.826   0.144   0.708 -0.2184 -0.3919  0.3588
    1SOL     OW 1673   3.983   4.550   0.423  0.3452 -0.5651 -0.3658
    1SOL    HW2 1674   3.902   4.529   0.471  1.0164 -1.8996  0.2092
    1SOL    HW3 1675   3.954   4.609   0.353 -1.0325 -0.5436  0.1952
    1SOL    MW4 1676   3.968   4.555   0.420  0.2522 -0.7386 -0.2159
    1SOL     OW 1677   3.169   0.323   0.916  0.1496  0.1742 -0.1504
    1SOL    HW2 1678   3.154   0.335   1.010  1.0092 -0.5369  0.0932
    1SOL    HW3 1679   3.231   0.392   0.892 -0.6764  0.8431 -0.3664
    1SOL    MW4 1680   3.175   0.333   0.925  0.1538  0.1687 -0.1468
    1SOL     OW 1681   3.332   0.783   0.979  0.2783 -0.3592 -0.4793
    1SOL    HW2 1682   3.249   0.822   0.950 -0.4307 -1.0132  0.6432
    1SOL    HW3 1683   3.398   0.823   0.922 -0.5752  1.5568 -0.1611
    1SOL    MW4 1684   3.329   0.793   0.967  0.0722 -0.1928 -0.2893
    1SOL     OW 1685   3.080   0.874   0.880 -0.7170  0.5191 -0.3398
    1SOL    HW2 1686   2.994   0.832   0.881 -0.4544 -0.0388 -1.0644
    1SOL    HW3 1687   3.110   0.865   0.790  0.6382 -0.3821  0.1928
    1SOL    MW4 1688   3.072   0.868   0.869 -0.5035  0.3266 -0.3651
    1SOL     OW 1689   2.930   0.473   0.885 -0.0199  0.5624 -0.4806
    1SOL    HW2 1690   2.849   0.424   0.885 -0.5144  1.3534  0.8733
    1SOL    HW3 1691   2.999   0.407   0.877 -0.6822 -0.3394  1.0986
    1SOL    MW4 1692   2.929   0.458   0.884 -0.1724  0.5477 -0.0936
    1SOL     OW 1693   3.101   1.141   0.994  0.6051 -0.1940 -0.2482
    1SOL    HW2 1694   3.101   1.134   1.089 -0.9243 -2.2301 -0.3793
    1SOL    HW3 1695   3.110   1.051   0.963 -1.3840  0.1861 -2.0357
    1SOL    MW4 1696   3.102   1.128   1.003  0.1407 -0.4125 -0.5013
    1SOL     OW 1697   3.599   0.641   0.449  0.0513  0.8841 -0.0051
    1SOL    HW2 1698   3.686   0.630   0.488  0.7529  2.0287 -1.1792
    1SOL    HW3 1699   3.543   0.580   0.496  1.5510 -0.0520  0.5955
    1SOL    MW4 1700   3.603   0.632   0.460  0.3419  0.9116 -0.0808
    1SOL     OW 1701   3.391   1.556   0.923 -0.1739 -0.3256 -0.2773
    1SOL    HW2 1702   3.449   1.630   0.902 -0.9743  0.4217  0.1097
    1SOL    HW3 1703   3.385   1.557   1.018 -0.5364 -0.6264 -0.2988
    1SOL    MW4 1704   3.398   1.566   0.933 -0.3273 -0.2668 -0.2291
    1SOL     OW 1705   2.997   1.836   0.621  0.0200  0.0305 -0.0238
    1SOL    HW2 1706   3.046   1.884   0.554 -0.8399 -0.5502 -1.0903
    1SOL    HW3 1707   2.975   1.902   0.686  0.5690  0.6859 -0.4949
    1SOL    MW4 1708   3.001   1.851   0.620 -0.0210  0.0404 -0.2266
    1SOL     OW 1709   3.345   2.181   0.930 -0.1903  0.4102  0.3150
    1SOL    HW2 1710   3.307   2.094   0.941  0.5449 -0.0005 -0.3108
    1SOL    HW3 1711   3.341   2.220   1.017  0.2591 -0.5919  0.7979
    1SOL    MW4 1712   3.340   2.175   0.943 -0.0341  0.2239  0.2962
    1SOL     OW 1713   3.597   2.048   0.876  0.1624  0.2684 -0.1848
    1SOL    HW2 1714   3.514   2.096   0.876  0.1787  0.3221  1.1729
    1SOL    HW3 1715   3.573   1.959   0.850 -0.5064  0.0156  1.2169
    1SOL    MW4 1716   3.583   2.043   0.873  0.0763  0.2422  0.1793
    1SOL     OW 1717   3.836   2.162   0.800 -0.1743 -0.5777 -0.0761
    1SOL    HW2 1718   3.749   2.139   0.833 -0.6260 -2.2202 -2.2956
    1SOL    HW3 1719   3.896   2.106   0.848 -0.5797 -1.1684 -0.2524
    1SOL    MW4 1720   3.832   2.152   0.811 -0.2875 -0.8724 -0.3921
    1SOL     OW 1721   3.757   1.810   0.504  0.2978 -0.2665  0.2747
    1SOL    HW2 1722   3.786   1.899   0.521  0.6716 -0.1756 -0.7841
    1SOL    HW3 1723   3.668   1.806   0.540  1.1220 -0.1646  2.3621
    1SOL    MW4 1724   3.749   1.821   0.511  0.4559 -0.2412  0.4105
    1SOL     OW 1725   3.126   2.727   0.931  0.3537 -0.3254  0.1020
    1SOL    HW2 1726   3.062   2.786   0.892  1.4271  0.8286  0.0769
    1SOL    HW3 1727   3.209   2.752   0.891  1.1744 -0.3607  1.7506
    1SOL    MW4 1728   3.128   2.738   0.920  0.6037 -0.1776  0.3162
    1SOL     OW 1729   3.486   1.725   0.594  0.0705 -0.3100 -0.3549
    1SOL    HW2 1730   3.433   1.655   0.557 -0.3038 -0.1623 -0.1051
    1SOL    HW3 1731   3.437   1.805   0.573  0.1127 -0.1866  0.0101
    1SOL    MW4 1732   3.472   1.727   0.587  0.0265 -0.2743 -0.2738
    1SOL     OW 1733   3.252   2.658   0.490 -0.1651  0.0759 -0.3107
    1SOL    HW2 1734   3.293   2.572   0.499 -0.8163 -0.2765 -0.6916
    1SOL    HW3 1735   3.159   2.642   0.506 -0.0525  1.0199  1.4046
    1SOL    MW4 1736   3.245   2.644   0.493 -0.2360  0.1543 -0.1346
    1SOL     OW 1737   3.393   3.125   0.968 -0.2037 -0.5813 -0.2404
    1SOL    HW2 1738   3.404   3.103   1.061 -0.5264 -1.8155 -0.4770
    1SOL    HW3 1739   3.382   3.040   0.925 -0.9483  0.0337 -1.2902
    1SOL    MW4 1740   3.393   3.111   0.975 -0.3445 -0.6630 -0.4101
    1SOL     OW 1741   3.175   3.222   0.833  0.1744 -0.2299  0.4732
    1SOL    HW2 1742   3.228   3.175   0.898 -0.0166  0.3509  1.0631
    1SOL    HW3 1743   3.166   3.161   0.760  0.9712 -0.6357  0.7091
    1SOL    MW4 1744   3.181   3.207   0.832  0.2546 -0.2067  0.5822
    1SOL     OW 1745   3.046   3.959   0.518  0.2552  0.9006  0.6062
    1SOL    HW2 1746   3.046   3.864   0.524  0.6301  0.8751  0.2196
    1SOL    HW3 1747   3.081   3.988   0.603  0.7819  0.6775  0.4671
    1SOL    MW4 1748   3.050   3.950   0.530  0.3738  0.8678  0.5369
    1SOL     OW 1749   3.587   4.302   0.911  0.1585  0.5331  0.1386
    1SOL    HW2 1750   3.519   4.365   0.885 -0.0280  0.1542 -0.3112
    1SOL    HW3 1751   3.668   4.339   0.876 -0.0351  0.2265 -0.6514
    1SOL    MW4 1752   3.588   4.315   0.903  0.1082  0.4425 -0.0249
    1SOL     OW 1753   3.616   3.525   0.451  0.1739  0.5242  0.6370
    1SOL    HW2 1754   3.563   3.523   0.371 -0.2072  1.3004  0.8628
    1SOL    HW3 1755   3.618   3.434   0.481  0.6976  0.1555 -0.5024
    1SOL    MW4 1756   3.609   3.513   0.445  0.1924  0.5782  0.5164
    1SOL     OW 1757   3.063   4.238   0.929  0.0291 -0.0019  0.1593
    1SOL    HW2 1758   3.090   4.158   0.886 -0.5003  0.1210 -0.4081
    1SOL    HW3 1759   2.968   4.241   0.918  0.1741  1.3150 -0.8964
    1SOL    MW4 1760   3.054   4.228   0.922 -0.0217  0.1888 -0.0549
    1SOL     OW 1761   3.589   0.177   0.815  0.2915  0.0626  0.4446
    1SOL    HW2 1762   3.504   0.163   0.857  0.7820 -0.1090  1.4094
    1SOL    HW3 1763   3.648   0.116   0.860  0.4672 -1.4509 -1.7245
    1SOL    MW4 1764   3.586   0.167   0.827  0.3796 -0.1597  0.2858
    1SOL     OW 1765   3.788   0.004   0.919  0.3087  0.2839  0.5153
    1SOL    HW2 1766   3.865   0.054   0.893 -0.7627  1.5782 -0.2567
    1SOL    HW3 1767   3.803  -0.084   0.882  0.3290  1.1917 -1.7272
    1SOL    MW4 1768   3.800  -0.001   0.910  0.1700  0.5741  0.1175
    1SOL     OW 1769   4.244   0.496   0.515  0.2952  0.1653  0.0094
    1SOL    HW2 1770   4.243   0.588   0.490  0.2039  0.3906  0.8187
    1SOL    HW3 1771   4.151   0.471   0.516  0.3439 -0.0622 -0.6400
    1SOL    MW4 1772   4.232   0.505   0.512  0.2890  0.1650  0.0305
    1SOL     OW 1773   3.614   0.420   0.943  0.4284  0.2646  0.4531
    1SOL    HW2 1774   3.630   0.416   1.037 -1.9098  0.1835  0.8779
    1SOL    HW3 1775   3.633   0.332   0.911 -1.4355 -0.4822  1.3237
    1SOL    MW4 1776   3.619   0.408   0.951 -0.1259  0.1554  0.6241
    1SOL     OW 1777   3.840   0.560   0.858 -0.2546  0.3046 -0.6051
    1SOL    HW2 1778   3.834   0.646   0.900  0.1774  0.3354 -0.6090
    1SOL    HW3 1779   3.778   0.505   0.906  0.6141  0.1974  0.4157
    1SOL    MW4 1780   3.831   0.564   0.870 -0.0827  0.2945 -0.4709
    1SOL     OW 1781   3.763   0.812   0.949  0.4660  0.6342 -0.5300
    1SOL    HW2 1782   3.742   0.806   1.042 -0.5991 -1.4571 -0.8836
    1SOL    HW3 1783   3.813   0.894   0.941  0.3318  0.9767  1.8157
    1SOL    MW4 1784   3.767   0.822   0.960  0.3080  0.4035 -0.2671
    1SOL     OW 1785   3.535   0.891   0.818  0.0073 -0.4001  0.7088
    1SOL    HW2 1786   3.616   0.855   0.854  1.3775 -0.7224 -2.5016
    1SOL    HW3 1787   3.535   0.982   0.846  1.9640 -0.1660  0.0329
    1SOL    MW4 1788   3.545   0.898   0.827  0.4461 -0.4117  0.1960
    1SOL     OW 1789   3.760   1.526   0.428 -0.3254 -0.2027  0.0209
    1SOL    HW2 1790   3.848   1.496   0.451 -0.3716 -0.9187 -0.7091
    1SOL    HW3 1791   3.762   1.621   0.442  0.5906 -0.2072 -0.0856
    1SOL    MW4 1792   3.772   1.535   0.433 -0.2105 -0.2978 -0.0895
    1SOL     OW 1793   3.617   1.168   0.852 -0.0150 -0.3271 -0.0981
    1SOL    HW2 1794   3.580   1.203   0.933 -0.1000 -1.6116  0.4372
    1SOL    HW3 1795   3.703   1.135   0.878 -0.1017 -0.8714 -0.4958
    1SOL    MW4 1796   3.624   1.168   0.866 -0.0379 -0.5685 -0.0799
    1SOL     OW 1797   3.736   1.609   0.918 -0.0671 -0.2758  0.4228
    1SOL    HW2 1798   3.820   1.637   0.885  0.1240 -0.1954  0.9712
    1SOL    HW3 1799   3.702   1.549   0.851  0.0569  0.3161 -0.1726
    1SOL    MW4 1800   3.742   1.604   0.905 -0.0255 -0.1872  0.4166
    1SOL     OW 1801   4.040   1.975   0.934 -0.3225  0.0266  0.0325
    1SOL    HW2 1802   4.037   1.893   0.886 -1.3250 -0.4474  0.8833
    1SOL    HW3 1803   4.114   2.023   0.896 -0.5647 -0.6986 -1.3741
    1SOL    MW4 1804   4.049   1.971   0.923 -0.4869 -0.1317 -0.0408
    1SOL     OW 1805   4.062   2.551   0.566 -0.1283 -0.3346 -0.1027
    1SOL    HW2 1806   4.061   2.543   0.661  1.2215 -1.2634 -0.1455
    1SOL    HW3 1807   4.057   2.460   0.535  0.9445 -0.1369 -0.8872
    1SOL    MW4 1808   4.061   2.538   0.574  0.1922 -0.4308 -0.2117
    1SOL     OW 1809   3.813   2.417   0.898 -0.3267 -0.1936  0.1510
    1SOL    HW2 1810   3.806   2.333   0.852  2.8528 -0.6751  0.4509
    1SOL    HW3 1811   3.820   2.394   0.990  0.0757  0.4284  0.2804
    1SOL    MW4 1812   3.813   2.403   0.904  0.1462 -0.1750  0.2076
    1SOL     OW 1813   3.097   4.621   0.379  0.2686  0.1397  0.0724
    1SOL    HW2 1814   3.178   4.651   0.420  0.6591 -0.1661 -0.4710
    1SOL    HW3 1815   3.086   4.532   0.412  0.0218  0.2669  0.3373
    1SOL    MW4 1816   3.106   4.613   0.389  0.2873  0.1159  0.0357
    1SOL     OW 1817   3.145   2.064   0.483  0.2684 -0.1277 -0.3032
    1SOL    HW2 1818   3.172   2.120   0.557  0.2491  0.3211 -0.6362
    1SOL    HW3 1819   3.053   2.084   0.470  0.0486 -0.8318  0.0936
    1SOL    MW4 1820   3.137   2.074   0.491  0.2367 -0.1614 -0.2948
    1SOL     OW 1821   3.605   3.270   0.857  0.0509 -0.2563 -0.1883
    1SOL    HW2 1822   3.592   3.361   0.886  1.0471 -0.1466 -0.0882
    1SOL    HW3 1823   3.535   3.221   0.902 -2.5269  0.9522 -2.7283
    1SOL    MW4 1824   3.594   3.276   0.867 -0.1578 -0.0827 -0.5103
    1SOL     OW 1825   3.575   2.730   0.867  0.7983 -0.4799  0.1129
    1SOL    HW2 1826   3.599   2.712   0.958  1.9133 -1.1924 -0.3176
    1SOL    HW3 1827   3.569   2.644   0.826 -0.1790 -0.1895 -0.3796
    1SOL    MW4 1828   3.577   2.716   0.874  0.8163 -0.5355 -0.0089
    1SOL     OW 1829   3.803   2.911   0.820 -0.4501 -0.0268 -0.2607
    1SOL    HW2 1830   3.809   2.984   0.882 -2.0795  0.7340 -0.9836
    1SOL    HW3 1831   3.738   2.853   0.859 -0.0341 -0.5083 -0.2864
    1SOL    MW4 1832   3.795   2.913   0.833 -0.6104  0.0100 -0.3595
    1SOL     OW 1833   3.382   3.619   0.799 -0.0634 -0.3203  0.4453
    1SOL    HW2 1834   3.405   3.656   0.713  0.2188 -0.5661  0.4131
    1SOL    HW3 1835   3.466   3.594   0.837 -0.1987 -0.3070  0.7524
    1SOL    MW4 1836   3.396   3.621   0.792 -0.0441 -0.3507  0.4815
    1SOL     OW 1837   3.853   3.620   0.810 -0.1906 -0.2908  0.0738
    1SOL    HW2 1838   3.935   3.603   0.856 -1.1171 -1.1802  1.4651
    1SOL    HW3 1839   3.869   3.590   0.721  1.4436  0.8704 -0.0503
    1SOL    MW4 1840   3.866   3.614   0.805 -0.0975 -0.2546  0.2410
    1SOL     OW 1841   4.037   3.802   0.479  0.1125 -0.4185 -0.4812
    1SOL    HW2 1842   4.030   3.887   0.522 -2.2909 -0.0468 -1.5072
    1SOL    HW3 1843   4.130   3.781   0.481  0.6634  1.9966  0.2409
    1SOL    MW4 1844   4.048   3.810   0.485 -0.1316 -0.0508 -0.5213
    1SOL     OW 1845   3.829   3.897   0.939  0.7619 -0.2962 -0.3827
    1SOL    HW2 1846   3.819   3.813   0.893  1.2182 -0.2508 -0.5720
    1SOL    HW3 1847   3.750   3.946   0.917  0.2230 -0.8965  0.1904
    1SOL    MW4 1848   3.818   3.892   0.930  0.7510 -0.3695 -0.3321
    1SOL     OW 1849   3.083   4.367   0.520  0.1328 -0.1211 -0.5880
    1SOL    HW2 1850   3.013   4.303   0.507  0.3768 -0.4428 -0.3464
    1SOL    HW3 1851   3.164   4.315   0.520  0.3607  0.2308 -0.7402
    1SOL    MW4 1852   3.084   4.352   0.519  0.1950 -0.1173 -0.5763
    1SOL     OW 1853   3.602   4.023   0.854  0.2977 -0.7560 -0.4383
    1SOL    HW2 1854   3.590   4.109   0.895 -0.1797 -0.4031 -1.2920
    1SOL    HW3 1855   3.626   4.043   0.763 -0.7821 -1.5258 -0.9055
    1SOL    MW4 1856   3.604   4.037   0.847  0.0923 -0.8106 -0.6126
    1SOL     OW 1857   4.088   4.305   0.918  0.0229 -0.0850  0.5367
    1SOL    HW2 1858   4.092   4.215   0.884  0.3122  0.3364 -0.5672
    1SOL    HW3 1859   4.157   4.351   0.871 -0.6729  0.9246  0.4962
    1SOL    MW4 1860   4.098   4.299   0.907 -0.0305  0.1044  0.3857
    1SOL     OW 1861   4.221   4.655   0.916  0.1061 -0.5981 -0.3025
    1SOL    HW2 1862   4.228   4.670   1.010  1.2129  2.9866 -0.8618
    1SOL    HW3 1863   4.149   4.712   0.888  0.7022 -0.5679 -1.8196
    1SOL    MW4 1864   4.213   4.665   0.925  0.3309 -0.1211 -0.5764
    1SOL     OW 1865   4.010   0.165   0.834  0.5382  0.1236 -0.4807
    1SOL    HW2 1866   4.027   0.258   0.850 -1.2360  0.6405 -1.4280
    1SOL    HW3 1867   4.027   0.153   0.741  0.4538 -0.4375 -0.4284
    1SOL    MW4 1868   4.014   0.175   0.824  0.2923  0.1177 -0.5988
    1SOL     OW 1869   4.084   0.426   0.910  0.0725  0.1042 -0.2318
    1SOL    HW2 1870   4.153   0.474   0.867 -0.1663  0.0652 -0.6620
    1SOL    HW3 1871   4.004   0.473   0.887 -0.1344 -0.3505 -0.4586
    1SOL    MW4 1872   4.082   0.438   0.901  0.0134  0.0391 -0.3185
    1SOL     OW 1873   4.294   0.594   0.787  0.3627  0.0508 -0.0404
    1SOL    HW2 1874   4.363   0.532   0.813 -0.2590 -0.8850 -0.5970
    1SOL    HW3 1875   4.277   0.574   0.695  0.6013  1.4906 -0.4046
    1SOL    MW4 1876   4.301   0.583   0.779  0.3123  0.1173 -0.1619
    1SOL     OW 1877   4.279   0.833   0.952  0.1926  0.2979  0.7494
    1SOL    HW2 1878   4.210   0.877   0.903 -0.7870  0.2006  2.0281
    1SOL    HW3 1879   4.280   0.743   0.918 -1.5714 -0.2201  1.9897
    1SOL    MW4 1880   4.270   0.827   0.941 -0.1698  0.2167  1.0818
    1SOL     OW 1881   4.093   0.957   0.793 -0.1254  0.1752 -0.1508
    1SOL    HW2 1882   4.149   1.033   0.778 -0.1748  0.1512 -0.4689
    1SOL    HW3 1883   4.049   0.943   0.709 -1.7543  1.1240  0.5287
    1SOL    MW4 1884   4.095   0.965   0.780 -0.3467  0.2972 -0.1031
    1SOL     OW 1885   3.887   1.058   0.942 -0.1765  0.1530  0.4698
    1SOL    HW2 1886   3.960   1.056   0.880 -0.3696  0.6102  0.2267
    1SOL    HW3 1887   3.927   1.085   1.025  0.0138 -0.0750  0.4529
    1SOL    MW4 1888   3.902   1.062   0.945 -0.1769  0.1831  0.4355
    1SOL     OW 1889   3.996   1.709   0.814 -0.4164 -0.0502 -0.5484
    1SOL    HW2 1890   4.006   1.708   0.719  0.3966 -2.6686 -0.4799
    1SOL    HW3 1891   4.071   1.660   0.846 -1.4022 -0.3451  1.3733
    1SOL    MW4 1892   4.007   1.702   0.805 -0.4392 -0.4346 -0.2858
    1SOL     OW 1893   4.099   1.298   0.942 -0.5434  0.2045  0.1988
    1SOL    HW2 1894   4.132   1.388   0.952  1.4652 -0.5204  0.3147
    1SOL    HW3 1895   4.082   1.269   1.031  0.6244 -0.1744  0.3078
    1SOL    MW4 1896   4.101   1.306   0.955 -0.1240  0.0589  0.2284
    1SOL     OW 1897   0.179   1.884   0.541 -0.1599 -0.0299  0.3276
    1SOL    HW2 1898   0.200   1.975   0.521 -1.5428  0.1851 -0.2330
    1SOL    HW3 1899   0.264   1.841   0.553  0.4969  1.3149  0.5173
    1SOL    MW4 1900   0.193   1.890   0.540 -0.2557  0.1760  0.2787
    1SOL     OW 1901   4.454   2.481   0.322 -0.1070  0.1042 -0.1289
    1SOL    HW2 1902   4.403   2.482   0.241  1.0856 -1.0746 -0.9242
    1SOL    HW3 1903   4.462   2.389   0.345  0.2820  0.3793  0.8708
    1SOL    MW4 1904   4.449   2.469   0.314  0.1020 -0.0153 -0.1019
    1SOL     OW 1905   4.320   2.643   0.543  0.2445 -0.4478 -0.1188
    1SOL    HW2 1906   4.368   2.603   0.470  0.0898 -1.1738  0.1764
    1SOL    HW3 1907   4.232   2.607   0.536 -0.1555  0.5912 -0.4271
    1SOL    MW4 1908   4.315   2.633   0.532  0.1721 -0.4065 -0.1205
    1SOL     OW 1909   4.257   2.408   0.927 -0.3181 -0.0891  0.2771
    1SOL    HW2 1910   4.177   2.452   0.899  0.3681 -0.0562 -1.6527
    1SOL    HW3 1911   4.245   2.317   0.902 -0.4783 -0.4332  1.5694
    1SOL    MW4 1912   4.245   2.402   0.920 -0.2489 -0.1302  0.1930
    1SOL     OW 1913   4.043   2.554   0.855  0.1589 -0.2626  0.1416
    1SOL    HW2 1914   4.025   2.647   0.870  0.9715  0.0599 -0.8233
    1SOL    HW3 1915   3.961   2.509   0.879  0.1361  0.5772  1.7104
    1SOL    MW4 1916   4.029   2.560   0.860  0.2632 -0.1094  0.2213
    1SOL     OW 1917   4.032   2.808   0.946 -0.1454 -0.4794 -0.0502
    1SOL    HW2 1918   4.101   2.857   0.901 -0.5276 -0.1755 -0.3100
    1SOL    HW3 1919   3.951   2.845   0.912 -0.4533  0.7861  1.9792
    1SOL    MW4 1920   4.031   2.819   0.935 -0.2370 -0.2723  0.1833
    1SOL     OW 1921   4.281   2.933   0.839 -0.1457  0.0700 -0.2897
    1SOL    HW2 1922   4.345   2.862   0.851 -0.0528  0.0365 -0.9855
    1SOL    HW3 1923   4.263   2.934   0.745 -1.0751  0.1700 -0.1131
    1SOL    MW4 1924   4.287   2.924   0.828 -0.2556  0.0787 -0.3582
    1SOL     OW 1925   4.276   3.181   0.926  0.1522 -0.2369  0.4895
    1SOL    HW2 1926   4.354   3.234   0.909  0.1395 -0.6020 -0.7493
    1SOL    HW3 1927   4.295   3.097   0.884 -1.7089  0.3242 -1.5572
    1SOL    MW4 1928   4.289   3.177   0.919 -0.0949 -0.2110  0.0561
    1SOL     OW 1929   4.032   3.247   0.818 -0.7228  0.0500 -0.3452
    1SOL    HW2 1930   4.117   3.214   0.848 -0.6799  0.6456  0.1907
    1SOL    HW3 1931   4.021   3.330   0.864 -1.2250  0.3720 -1.0423
    1SOL    MW4 1932   4.042   3.253   0.828 -0.7839  0.1709 -0.3664
    1SOL     OW 1933   4.066   3.505   0.916  0.0776 -0.3992  0.0197
    1SOL    HW2 1934   4.154   3.536   0.896 -0.6835  1.2155 -0.9311
    1SOL    HW3 1935   4.066   3.491   1.011  1.1980  0.0934  0.0960
    1SOL    MW4 1936   4.077   3.507   0.926  0.1245 -0.1214 -0.0957
    1SOL     OW 1937   3.895   3.557   0.540  0.0996 -0.0199  0.4080
    1SOL    HW2 1938   3.819   3.562   0.483  0.0579 -1.3312  0.3469
    1SOL    HW3 1939   3.944   3.637   0.521  0.2784 -0.6076 -1.7455
    1SOL    MW4 1940   3.892   3.568   0.530  0.1175 -0.2704  0.1158
    1SOL     OW 1941   4.274   3.889   0.935 -0.0399  0.1892  0.4209
    1SOL    HW2 1942   4.350   3.929   0.893  0.3968 -0.3033  0.7396
    1SOL    HW3 1943   4.288   3.907   1.029 -0.6097  0.5986  0.4298
    1SOL    MW4 1944   4.286   3.897   0.942 -0.0572  0.1786  0.4640
    1SOL     OW 1945   2.674   0.862   0.542  0.1246 -0.5026 -0.5561
    1SOL    HW2 1946   2.613   0.931   0.515  0.4727  0.5141  1.2322
    1SOL    HW3 1947   2.761   0.897   0.520  0.3030 -0.3381  0.3890
    1SOL    MW4 1948   2.677   0.876   0.535  0.1941 -0.3468 -0.1955
    1SOL     OW 1949   4.146   4.304   0.548  0.0702  0.5781 -0.3744
    1SOL    HW2 1950   4.182   4.362   0.614  1.2050  0.9569 -1.3239
    1SOL    HW3 1951   4.100   4.362   0.488 -0.8977  0.2398  0.0222
    1SOL    MW4 1952   4.144   4.319   0.549  0.0920  0.5841 -0.4473
    1SOL     OW 1953   4.278   4.443   0.750  0.0245 -0.2082 -0.0288
    1SOL    HW2 1954   4.263   4.524   0.798 -0.8962  0.4584 -1.3912
    1SOL    HW3 1955   4.346   4.398   0.799 -1.3798  0.0944  2.2771
    1SOL    MW4 1956   4.285   4.448   0.763 -0.2823 -0.0801  0.0957
    1SOL     OW 1957   0.224   0.037   1.231  0.0265 -0.5125 -0.1578
    1SOL    HW2 1958   0.303   0.090   1.246  0.4030 -0.9701 -0.5001
    1SOL    HW3 1959   0.220   0.026   1.137 -1.4061  0.9377 -0.2892
    1SOL    MW4 1960   0.234   0.043   1.221 -0.1128 -0.3815 -0.2203
    1SOL     OW 1961   0.001   0.181   1.308 -0.4870 -0.0650 -0.1770
    1SOL    HW2 1962  -0.061   0.125   1.262 -1.4478  1.7862 -1.1957
    1SOL    HW3 1963   0.085   0.165   1.265 -0.7651 -0.6644 -0.4945
    1SOL    MW4 1964   0.004   0.171   1.297 -0.6504  0.1002 -0.3533
    1SOL     OW 1965   4.470   0.412   1.158 -0.1396  0.4187 -0.6758
    1SOL    HW2 1966   4.408   0.470   1.202 -1.3137  0.9132 -2.8588
    1SOL    HW3 1967   4.464   0.329   1.206 -0.0144  1.4732  1.1737
    1SOL    MW4 1968   4.461   0.408   1.170 -0.2780  0.6230 -0.7198
    1SOL     OW 1969   0.219   0.523   1.245 -0.1823 -0.3521  0.1135
    1SOL    HW2 1970   0.206   0.616   1.226  0.5450 -0.0623  1.0189
    1SOL    HW3 1971   0.135   0.482   1.225  0.2276  0.0784 -2.7621
    1SOL    MW4 1972   0.206   0.530   1.240 -0.0322 -0.2572 -0.1465
    1SOL     OW 1973   0.177   0.786   1.199 -0.3515 -0.5374 -0.2668
    1SOL    HW2 1974   0.254   0.818   1.246  0.8707 -1.4154 -1.6216
    1SOL    HW3 1975   0.103   0.829   1.241  0.8979  0.4425  0.9557
    1SOL    MW4 1976   0.178   0.796   1.210 -0.0254 -0.5239 -0.2842
    1SOL     OW 1977   4.461   0.924   1.307 -0.0678  0.6299  0.4200
    1SOL    HW2 1978   4.479   0.913   1.400 -0.8046 -1.1028  0.3943
    1SOL    HW3 1979   4.368   0.903   1.298  0.2082 -0.1434 -0.8205
    1SOL    MW4 1980   4.451   0.920   1.318 -0.1283  0.2992  0.2528
    1SOL     OW 1981   4.482   1.220   1.216 -0.3064  0.3158  0.6082
    1SOL    HW2 1982   4.411   1.253   1.271 -0.3496 -0.3931  0.9820
    1SOL    HW3 1983   4.489   1.128   1.239  1.2894  0.5618  1.1782
    1SOL    MW4 1984   4.474   1.212   1.226 -0.1016  0.2548  0.7329
    1SOL     OW 1985   0.243   1.325   1.284  0.0027  0.5696  0.2315
    1SOL    HW2 1986   0.306   1.267   1.242 -0.6221 -0.6173  0.9352
    1SOL    HW3 1987   0.158   1.299   1.249 -0.4010  0.3203  1.3789
    1SOL    MW4 1988   0.240   1.314   1.274 -0.1330  0.3802  0.4758
    1SOL     OW 1989   0.212   1.600   1.213 -0.4734  0.0086 -0.0988
    1SOL    HW2 1990   0.225   1.515   1.255 -0.3818 -0.0521 -0.2495
    1SOL    HW3 1991   0.223   1.582   1.119  0.6117  0.3931 -0.0403
    1SOL    MW4 1992   0.215   1.586   1.206 -0.3181  0.0513 -0.1110
    1SOL     OW 1993   4.451   1.696   1.241  0.1811 -0.4277 -0.4785
    1SOL    HW2 1994   4.464   1.789   1.225 -0.5218 -0.3694 -0.7228
    1SOL    HW3 1995   4.537   1.657   1.227  0.2796  0.0622 -1.2394
    1SOL    MW4 1996   4.464   1.703   1.237  0.1011 -0.3554 -0.6111
    1SOL     OW 1997   4.480   1.961   1.208 -0.2985  0.2668 -0.2509
    1SOL    HW2 1998   4.399   1.999   1.243  0.1704  0.6357  0.4503
    1SOL    HW3 1999   4.485   1.993   1.118  0.1355  1.9729  0.3617
    1SOL    MW4 2000   4.470   1.970   1.201 -0.1793  0.5404 -0.0776
    1SOL     OW 2001   0.245   2.039   1.287 -0.0843  0.4522  0.3976
    1SOL    HW2 2002   0.256   2.124   1.244 -0.7331 -0.6617 -2.1124
    1SOL    HW3 2003   0.157   2.011   1.260  0.1394 -1.0077  1.1740
    1SOL    MW4 2004   0.235   2.046   1.278 -0.1404  0.1128  0.1689
    1SOL     OW 2005   0.259   2.300   1.169 -0.1213 -0.4448 -0.2961
    1SOL    HW2 2006   0.334   2.342   1.211  0.1495  0.5451 -1.7149
    1SOL    HW3 2007   0.185   2.356   1.194 -0.2389 -0.8543  0.2857
    1SOL    MW4 2008   0.259   2.313   1.178 -0.1011 -0.3684 -0.4065
    1SOL     OW 2009   0.076   2.466   1.291  0.3091 -0.0878  0.3568
    1SOL    HW2 2010   0.076   2.472   1.386 -0.8469  0.7877  0.3079
    1SOL    HW3 2011  -0.004   2.417   1.269  1.0631 -1.1288 -0.1170
    1SOL    MW4 2012   0.065   2.460   1.300  0.2562 -0.1094  0.2878
    1SOL     OW 2013   0.017   2.707   1.172 -0.1316 -0.0437  0.0521
    1SOL    HW2 2014  -0.062   2.741   1.213  0.4428  0.4308  0.7654
    1SOL    HW3 2015   0.030   2.621   1.213 -0.0274  0.0731  0.2669
    1SOL    MW4 2016   0.009   2.700   1.183 -0.0421  0.0346  0.1745
    1SOL     OW 2017   0.229   2.842   1.260 -0.4587  0.3553 -0.3340
    1SOL    HW2 2018   0.224   2.821   1.353  0.4398  1.7200  0.0305
    1SOL    HW3 2019   0.158   2.792   1.221 -2.5800  1.8493  1.4749
    1SOL    MW4 2020   0.219   2.833   1.267 -0.6200  0.7322 -0.0472
    1SOL     OW 2021   0.207   3.110   1.192 -0.4063 -0.3101  0.3115
    1SOL    HW2 2022   0.281   3.161   1.225  1.0568 -0.8284 -2.0819
    1SOL    HW3 2023   0.220   3.022   1.227 -1.6357  0.3106  2.4586
    1SOL    MW4 2024   0.218   3.105   1.201 -0.3754 -0.2966  0.2791
    1SOL     OW 2025   4.476   3.220   1.318  0.0181  0.3973  0.2722
    1SOL    HW2 2026   4.402   3.175   1.276 -0.1863  1.4741 -0.5485
    1SOL    HW3 2027   4.553   3.179   1.279 -0.1684  0.7831 -0.5202
    1SOL    MW4 2028   4.476   3.209   1.307 -0.0335  0.5906  0.0595
    1SOL     OW 2029   4.484   3.453   1.155  0.4072 -0.0130 -0.1218
    1SOL    HW2 2030   4.466   3.377   1.210  0.4453 -0.4405 -0.6923
    1SOL    HW3 2031   4.452   3.428   1.069  1.0965  0.3288 -0.4840
    1SOL    MW4 2032   4.478   3.439   1.151  0.5035 -0.0241 -0.2450
    1SOL     OW 2033   0.228   3.592   1.256 -0.2049  0.1652  0.1611
    1SOL    HW2 2034   0.227   3.594   1.352 -0.8943 -0.5243  0.1652
    1SOL    HW3 2035   0.155   3.536   1.232  0.5868 -0.4939 -0.7470
    1SOL    MW4 2036   0.218   3.585   1.266 -0.1914 -0.0126  0.0418
    1SOL     OW 2037   0.271   3.873   1.227  0.2243 -0.2810  0.7101
    1SOL    HW2 2038   0.194   3.926   1.248  0.9669  0.1915  2.3311
    1SOL    HW3 2039   0.240   3.783   1.234 -0.2922 -0.0872  0.9180
    1SOL    MW4 2040   0.257   3.868   1.231  0.2541 -0.1929  0.9514
    1SOL     OW 2041   0.043   4.034   1.271  0.3335 -0.1395 -0.2621
    1SOL    HW2 2042   0.044   4.044   1.367  0.1121  1.0678 -0.3782
    1SOL    HW3 2043  -0.043   3.996   1.252 -0.4047  1.4100 -0.1349
    1SOL    MW4 2044   0.032   4.030   1.281  0.2068  0.2246 -0.2605
    1SOL     OW 2045   0.007   4.280   1.167 -0.1536 -0.6281  0.3309
    1SOL    HW2 2046   0.077   4.330   1.208  0.7897 -0.6196 -1.2627
    1SOL    HW3 2047   0.017   4.191   1.201  0.4610 -0.5621  0.3175
    1SOL    MW4 2048   0.017   4.274   1.177  0.0520 -0.6175  0.1189
    1SOL     OW 2049   0.192   4.426   1.294  0.2533  0.4833 -0.2747
    1SOL    HW2 2050   0.191   4.410   1.389 -0.2490  1.2515 -0.1462
    1SOL    HW3 2051   0.204   4.520   1.286  0.8465  0.3502 -0.9924
    1SOL    MW4 2052   0.193   4.436   1.305  0.2653  0.5665 -0.3524
    1SOL     OW 2053   0.696   0.022   1.196  0.0663 -0.0977  0.3120
    1SOL    HW2 2054   0.777   0.069   1.214 -1.0541  1.9688  0.1670
    1SOL    HW3 2055   0.702  -0.057   1.250  1.1904  1.1200  2.0372
    1SOL    MW4 2056   0.707   0.018   1.206  0.0668  0.3357  0.5205
    1SOL     OW 2057   0.458   0.163   1.297  0.1446  0.2376 -0.1984
    1SOL    HW2 2058   0.475   0.250   1.262 -3.7298  0.6169 -1.4482
    1SOL    HW3 2059   0.533   0.110   1.271  2.5692  3.1639  0.6020
    1SOL    MW4 2060   0.470   0.168   1.289 -0.0466  0.6738 -0.2577
    1SOL     OW 2061   0.463   0.406   1.168  0.1862 -0.4970 -0.3465
    1SOL    HW2 2062   0.374   0.440   1.176 -0.1086 -1.5146  1.0122
    1SOL    HW3 2063   0.478   0.397   1.074 -0.9128  0.2740 -0.6032
    1SOL    MW4 2064   0.453   0.409   1.157  0.0022 -0.5295 -0.2010
    1SOL     OW 2065   0.648   0.526   1.318  0.5957 -0.5346 -0.0739
    1SOL    HW2 2066   0.669   0.591   1.251  1.1857 -0.7571 -0.1048
    1SOL    HW3 2067   0.570   0.481   1.284 -0.3142  0.6997  0.3268
    1SOL    MW4 2068   0.640   0.529   1.304  0.5535 -0.4011 -0.0250
    1SOL     OW 2069   0.689   0.731   1.129  0.4662  0.6725 -0.0329
    1SOL    HW2 2070   0.596   0.753   1.140  0.1506 -0.9279  0.5938
    1SOL    HW3 2071   0.697   0.708   1.037  0.5045  1.9713 -0.3677
    1SOL    MW4 2072   0.678   0.731   1.119  0.4296  0.6328  0.0055
    1SOL     OW 2073   0.434   0.900   1.247  0.1343  0.1770 -0.0151
    1SOL    HW2 2074   0.449   0.902   1.341 -1.4444 -0.1321  0.2453
    1SOL    HW3 2075   0.421   0.991   1.222  0.6794  0.2719  0.0372
    1SOL    MW4 2076   0.435   0.912   1.256 -0.0021  0.1488  0.0262
    1SOL     OW 2077   0.429   1.167   1.178 -0.4583  0.6209 -0.2604
    1SOL    HW2 2078   0.517   1.186   1.211 -0.8040  2.0178 -0.1471
    1SOL    HW3 2079   0.441   1.152   1.084  0.0729 -0.3935 -0.0421
    1SOL    MW4 2080   0.442   1.167   1.170 -0.4338  0.6715 -0.2166
    1SOL     OW 2081   0.684   1.230   1.284  0.1147  0.3292  0.1508
    1SOL    HW2 2082   0.757   1.174   1.259 -0.9530 -1.0512  0.0795
    1SOL    HW3 2083   0.699   1.311   1.235  0.9965 -0.3525 -0.7379
    1SOL    MW4 2084   0.695   1.233   1.274  0.0902  0.0571  0.0241
    1SOL     OW 2085   0.716   1.494   1.199  0.3067 -0.0107  0.4440
    1SOL    HW2 2086   0.781   1.563   1.215  0.0183  0.5846 -0.9331
    1SOL    HW3 2087   0.633   1.531   1.230  0.0046  0.5927 -1.0487
    1SOL    MW4 2088   0.714   1.508   1.205  0.2288  0.1475  0.0654
    1SOL     OW 2089   0.481   1.642   1.284 -0.1068 -0.1932  0.2308
    1SOL    HW2 2090   0.461   1.669   1.374  0.4827  1.9048 -0.2510
    1SOL    HW3 2091   0.396   1.634   1.242 -0.3051  1.0401  0.3700
    1SOL    MW4 2092   0.467   1.644   1.291 -0.0552  0.2464  0.1856
    1SOL     OW 2093   0.474   1.896   1.168 -0.0739 -0.6609 -0.0574
    1SOL    HW2 2094   0.503   1.810   1.196  0.5931 -0.1701  0.7926
    1SOL    HW3 2095   0.401   1.917   1.226  0.5160 -0.1627  0.5082
    1SOL    MW4 2096   0.468   1.888   1.179  0.0919 -0.5305  0.1293
    1SOL     OW 2097   0.677   2.064   1.248 -0.0996 -0.5467 -0.0141
    1SOL    HW2 2098   0.675   2.062   1.343 -0.7464  0.8297  0.0058
    1SOL    HW3 2099   0.605   2.007   1.221 -0.0123 -0.8126  0.3148
    1SOL    MW4 2100   0.667   2.056   1.257 -0.1734 -0.4003  0.0319
    1SOL     OW 2101   0.717   2.360   1.194 -0.1623  0.2402  0.2603
    1SOL    HW2 2102   0.639   2.411   1.215 -1.4476 -0.8111 -1.7872
    1SOL    HW3 2103   0.697   2.272   1.226 -0.1908 -0.2449 -1.0739
    1SOL    MW4 2104   0.704   2.355   1.201 -0.3356  0.0374 -0.1858
    1SOL     OW 2105   0.485   2.474   1.270 -0.0071  0.0987  0.3587
    1SOL    HW2 2106   0.467   2.469   1.363  0.4543  2.1447  0.5875
    1SOL    HW3 2107   0.468   2.565   1.247 -0.9026 -0.5485 -1.7300
    1SOL    MW4 2108   0.480   2.485   1.279 -0.0643  0.2832  0.1132
    1SOL     OW 2109   0.474   2.733   1.151  0.1904  0.0466 -0.5528
    1SOL    HW2 2110   0.394   2.773   1.184  0.3642  0.4542 -0.6199
    1SOL    HW3 2111   0.473   2.752   1.057  0.6598  0.5650 -0.4534
    1SOL    MW4 2112   0.463   2.741   1.143  0.2753  0.1686 -0.5485
    1SOL     OW 2113   0.659   2.836   1.332 -0.3884  0.1504 -0.7107
    1SOL    HW2 2114   0.655   2.921   1.288 -0.0516 -0.9072 -2.8501
    1SOL    HW3 2115   0.587   2.785   1.294  0.5333 -1.1376 -0.7782
    1SOL    MW4 2116   0.649   2.840   1.321 -0.2224 -0.1590 -1.0018
    1SOL     OW 2117   0.615   3.072   1.184 -0.4523  0.4855 -0.1939
    1SOL    HW2 2118   0.689   3.132   1.199 -1.6083  1.7468  0.6581
    1SOL    HW3 2119   0.639   3.023   1.105  0.9098  1.4685 -0.4146
    1SOL    MW4 2120   0.628   3.074   1.176 -0.4251  0.7815 -0.1106
    1SOL     OW 2121   0.427   3.228   1.303 -0.5512  0.3149  0.1752
    1SOL    HW2 2122   0.449   3.313   1.265  1.6747 -0.3220 -0.0328
    1SOL    HW3 2123   0.488   3.167   1.262 -0.4782 -0.9856  2.1381
    1SOL    MW4 2124   0.438   3.231   1.293 -0.2479  0.0594  0.4067
    1SOL     OW 2125   0.473   3.472   1.203 -0.2199 -0.2419  0.1199
    1SOL    HW2 2126   0.535   3.529   1.249  0.7937 -0.5595 -0.8136
    1SOL    HW3 2127   0.388   3.516   1.212  0.5482  1.4391 -0.6138
    1SOL    MW4 2128   0.470   3.486   1.210  0.0151 -0.0618 -0.1001
    1SOL     OW 2129   0.675   3.616   1.324 -0.2891 -0.0307 -0.5220
    1SOL    HW2 2130   0.687   3.622   1.419  0.5957 -0.4720 -0.5979
    1SOL    HW3 2131   0.683   3.707   1.293 -0.6593  0.1244 -0.1715
    1SOL    MW4 2132   0.678   3.629   1.332 -0.2211 -0.0684 -0.4859
    1SOL     OW 2133   0.656   3.863   1.199  0.3290 -0.5021  0.2919
    1SOL    HW2 2134   0.589   3.922   1.233 -0.4247 -0.7955 -0.6679
    1SOL    HW3 2135   0.653   3.876   1.104  0.9827 -1.2146  0.1732
    1SOL    MW4 2136   0.647   3.873   1.191  0.3158 -0.6349  0.1496
    1SOL     OW 2137   0.467   4.031   1.309 -0.3983  0.3024  0.3676
    1SOL    HW2 2138   0.457   4.110   1.256  0.9792  0.2018 -0.0505
    1SOL    HW3 2139   0.403   3.970   1.274  1.0562 -0.0540 -1.7229
    1SOL    MW4 2140   0.457   4.034   1.298 -0.0247  0.2422  0.0366
    1SOL     OW 2141   0.415   4.264   1.193  0.0930  0.1700 -0.3519
    1SOL    HW2 2142   0.486   4.325   1.209 -1.0507  1.2448  0.7344
    1SOL    HW3 2143   0.336   4.311   1.219 -0.8637 -1.5625 -0.0225
    1SOL    MW4 2144   0.414   4.278   1.198 -0.1841  0.0839 -0.1651
    1SOL     OW 2145   0.642   4.429   1.252  0.6116  0.1043  0.0595
    1SOL    HW2 2146   0.645   4.425   1.347 -0.9494  0.0980  0.1298
    1SOL    HW3 2147   0.723   4.386   1.223  1.3510  0.6014  1.3788
    1SOL    MW4 2148   0.653   4.422   1.261  0.5032  0.1698  0.2428
    1SOL     OW 2149   1.126   0.006   1.193 -0.4362 -0.2202 -0.2583
    1SOL    HW2 2150   1.128  -0.083   1.228  0.5762 -0.9081 -1.9866
    1SOL    HW3 2151   1.130  -0.005   1.098 -2.0587  1.6206 -0.5917
    1SOL    MW4 2152   1.127  -0.007   1.185 -0.5168 -0.0677 -0.5304
    1SOL     OW 2153   0.910   0.162   1.293  0.4590 -0.3856  0.1153
    1SOL    HW2 2154   0.925   0.142   1.386 -0.3726 -1.0803  0.1026
    1SOL    HW3 2155   0.986   0.126   1.249  0.5653 -0.5874  0.4604
    1SOL    MW4 2156   0.922   0.155   1.300  0.3632 -0.5039  0.1593
    1SOL     OW 2157   0.890   0.414   1.195  0.1337 -0.2464 -0.0417
    1SOL    HW2 2158   0.910   0.326   1.225 -0.1470 -0.0600  0.6947
    1SOL    HW3 2159   0.814   0.441   1.247  1.8538  1.4642  1.6560
    1SOL    MW4 2160   0.882   0.406   1.206  0.3236  0.0039  0.2794
    1SOL     OW 2161   1.138   0.503   1.294  0.5042  0.4573  0.0571
    1SOL    HW2 2162   1.130   0.491   1.388  1.9087  0.1728  0.1439
    1SOL    HW3 2163   1.053   0.475   1.259 -0.2201  1.0858  1.2742
    1SOL    MW4 2164   1.125   0.498   1.302  0.5940  0.5026  0.2291
    1SOL     OW 2165   1.144   0.772   1.202  0.1832 -0.8415 -0.2451
    1SOL    HW2 2166   1.063   0.817   1.225  1.6759  0.2820  3.2646
    1SOL    HW3 2167   1.132   0.683   1.236  0.7488 -0.4045  1.1320
    1SOL    MW4 2168   1.132   0.766   1.210  0.4547 -0.6357  0.3997
    1SOL     OW 2169   0.889   0.866   1.280 -0.1224 -0.2921 -0.3461
    1SOL    HW2 2170   0.889   0.960   1.262 -2.3182  0.2864  2.4118
    1SOL    HW3 2171   0.809   0.834   1.239 -1.4676 -0.2103  2.1404
    1SOL    MW4 2172   0.879   0.874   1.272 -0.5895 -0.2050  0.3458
    1SOL     OW 2173   0.929   1.120   1.207 -0.2176 -0.1173  0.1489
    1SOL    HW2 2174   1.001   1.174   1.239  1.7913 -2.5173 -0.1171
    1SOL    HW3 2175   0.915   1.149   1.117  0.3225  0.4463  0.2433
    1SOL    MW4 2176   0.937   1.131   1.200  0.1187 -0.3595  0.1261
    1SOL     OW 2177   1.161   1.316   1.270 -0.0606 -0.3133  0.5243
    1SOL    HW2 2178   1.147   1.299   1.363 -1.5113 -1.5879  0.0831
    1SOL    HW3 2179   1.236   1.260   1.247  0.2416 -0.0650  0.8955
    1SOL    MW4 2180   1.169   1.306   1.280 -0.2122 -0.4487  0.5151
    1SOL     OW 2181   1.135   1.574   1.184  0.2402  0.2410  0.5413
    1SOL    HW2 2182   1.146   1.482   1.207 -1.9626 -0.0660  0.3848
    1SOL    HW3 2183   1.108   1.574   1.092  2.3984  1.1678 -0.1261
    1SOL    MW4 2184   1.133   1.562   1.175  0.2344  0.3229  0.4325
    1SOL     OW 2185   0.906   1.683   1.286  0.0656 -0.5481 -0.6960
    1SOL    HW2 2186   0.896   1.774   1.256  0.5926 -0.1378  0.3673
    1SOL    HW3 2187   0.988   1.654   1.246  1.3043  0.3379  1.1719
    1SOL    MW4 2188   0.916   1.691   1.277  0.2986 -0.3771 -0.3092
    1SOL     OW 2189   0.909   1.937   1.167 -0.2816 -0.4618 -0.1435
    1SOL    HW2 2190   0.980   1.983   1.211  0.7865 -1.0804 -1.1843
    1SOL    HW3 2191   0.829   1.978   1.201  0.5138 -0.5118  1.8956
    1SOL    MW4 2192   0.908   1.948   1.178 -0.0357 -0.5500 -0.0118
    1SOL     OW 2193   1.119   2.068   1.279 -0.0961 -0.1890  0.1110
    1SOL    HW2 2194   1.125   2.077   1.374 -1.5936  0.5160  0.1599
    1SOL    HW3 2195   1.125   2.158   1.246  0.6304 -0.4516 -0.4709
    1SOL    MW4 2196   1.121   2.081   1.288 -0.1976 -0.1304  0.0405
    1SOL     OW 2197   1.132   2.347   1.225 -0.3191 -0.3014  0.3795
    1SOL    HW2 2198   1.203   2.402   1.258  0.5466 -0.9228 -0.4251
    1SOL    HW3 2199   1.053   2.396   1.245  0.3890  0.8478  0.4276
    1SOL    MW4 2200   1.131   2.361   1.232 -0.1115 -0.2317  0.2797
    1SOL     OW 2201   0.913   2.511   1.273  0.0602 -0.3252  0.4649
    1SOL    HW2 2202   0.895   2.492   1.365  0.8047 -0.5942  0.5580
    1SOL    HW3 2203   0.842   2.468   1.225  1.1562 -2.5170  0.7437
    1SOL    MW4 2204   0.901   2.503   1.279  0.3030 -0.6502  0.5140
    1SOL     OW 2205   0.878   2.774   1.172 -0.1683  0.0378  0.2838
    1SOL    HW2 2206   0.901   2.682   1.189  0.2575  0.3596  1.5384
    1SOL    HW3 2207   0.795   2.786   1.217  0.2957  0.5411  1.0243
    1SOL    MW4 2208   0.870   2.763   1.180 -0.0509  0.1471  0.5469
    1SOL     OW 2209   1.085   2.871   1.310  0.6106 -0.3196  0.1990
    1SOL    HW2 2210   1.061   2.874   1.403 -0.5802  0.4675 -0.1273
    1SOL    HW3 2211   1.009   2.832   1.267  1.1931 -0.7627 -0.4385
    1SOL    MW4 2212   1.072   2.866   1.317  0.5302 -0.2742  0.0719
    1SOL     OW 2213   1.083   3.094   1.160  0.0209  0.3284  0.0796
    1SOL    HW2 2214   1.085   3.003   1.191 -0.7862  0.3707  0.2487
    1SOL    HW3 2215   1.112   3.088   1.069  0.7392 -0.0023  0.3256
    1SOL    MW4 2216   1.087   3.081   1.152  0.0092  0.2902  0.1342
    1SOL     OW 2217   0.840   3.246   1.221  0.0526 -0.0201 -0.1338
    1SOL    HW2 2218   0.862   3.339   1.216  0.5462 -0.1793 -1.0435
    1SOL    HW3 2219   0.912   3.202   1.177 -1.7364 -0.6063 -2.5821
    1SOL    MW4 2220   0.852   3.252   1.215 -0.1183 -0.1185 -0.5769
    1SOL     OW 2221   0.915   3.510   1.267 -0.2675  0.4121 -0.4162
    1SOL    HW2 2222   0.834   3.543   1.306 -0.5302 -0.7454  0.0111
    1SOL    HW3 2223   0.906   3.531   1.174 -1.3512 -0.2938 -0.4800
    1SOL    MW4 2224   0.903   3.517   1.260 -0.4451  0.1667 -0.3681
    1SOL     OW 2225   1.138   3.684   1.282  0.2448  0.0697 -0.0101
    1SOL    HW2 2226   1.209   3.630   1.250 -0.7467 -1.3783  0.1799
    1SOL    HW3 2227   1.060   3.628   1.276 -0.8115  1.4945  0.1158
    1SOL    MW4 2228   1.137   3.669   1.277 -0.0254  0.0663  0.0315
    1SOL     OW 2229   1.113   3.948   1.166  0.9011 -0.2474  0.2610
    1SOL    HW2 2230   1.035   3.970   1.216  1.3978  1.0393  0.5058
    1SOL    HW3 2231   1.131   3.857   1.187  0.7601  0.0971  1.9799
    1SOL    MW4 2232   1.105   3.939   1.175  0.9480 -0.0319  0.5201
    1SOL     OW 2233   0.868   4.039   1.277  0.1477 -0.4188 -0.3678
    1SOL    HW2 2234   0.876   4.044   1.372 -1.0799 -0.2251 -0.2663
    1SOL    HW3 2235   0.796   3.978   1.262  1.3248 -1.6070 -1.2115
    1SOL    MW4 2236   0.859   4.032   1.288  0.1410 -0.5498 -0.4658
    1SOL     OW 2237   0.872   4.299   1.181  0.2171  0.3213 -0.2638
    1SOL    HW2 2238   0.870   4.216   1.228 -0.3292 -0.1678 -1.1335
    1SOL    HW3 2239   0.882   4.274   1.089 -2.0572  1.1423 -0.7511
    1SOL    MW4 2240   0.873   4.285   1.175 -0.1550  0.3653 -0.4429
    1SOL     OW 2241   1.116   4.403   1.281 -0.3010  0.3591 -0.0767
    1SOL    HW2 2242   1.114   4.392   1.376 -2.2306  0.0512 -0.1344
    1SOL    HW3 2243   1.043   4.349   1.250  0.7494 -0.1014 -1.7946
    1SOL    MW4 2244   1.106   4.394   1.290 -0.4170  0.2575 -0.3109
    1SOL     OW 2245   1.561   4.626   1.175  0.2461 -0.0092 -0.0770
    1SOL    HW2 2246   1.640   4.673   1.201  0.3357 -0.3937  0.3661
    1SOL    HW3 2247   1.573   4.537   1.211 -1.3838  0.5548  1.9910
    1SOL    MW4 2248   1.573   4.620   1.183  0.0429  0.0148  0.2544
    1SOL     OW 2249   1.351   0.095   1.338  0.0475  0.4274  0.1375
    1SOL    HW2 2250   1.420   0.049   1.290 -0.1466 -0.6806  0.9048
    1SOL    HW3 2251   1.270   0.052   1.310  0.0795 -1.5488  2.8514
    1SOL    MW4 2252   1.349   0.083   1.328  0.0261  0.0205  0.5968
    1SOL     OW 2253   1.307   0.326   1.163  0.2564 -0.2866 -0.4526
    1SOL    HW2 2254   1.321   0.250   1.219 -1.0086 -1.5160 -1.7852
    1SOL    HW3 2255   1.243   0.379   1.210 -0.0491 -0.8118 -0.2821
    1SOL    MW4 2256   1.301   0.323   1.177  0.0492 -0.5181 -0.6061
    1SOL     OW 2257   1.535   0.466   1.272  0.2480 -0.1652 -0.3299
    1SOL    HW2 2258   1.540   0.553   1.232 -2.2451  0.7520  1.2667
    1SOL    HW3 2259   1.457   0.427   1.233  1.7216 -1.9974 -1.5349
    1SOL    MW4 2260   1.526   0.473   1.261  0.1135 -0.2860 -0.2782
    1SOL     OW 2261   1.560   0.736   1.195  0.2107  0.2652 -0.3073
    1SOL    HW2 2262   1.640   0.766   1.239 -0.2512 -1.1891  1.5875
    1SOL    HW3 2263   1.583   0.733   1.103  1.5593  2.3319 -0.0718
    1SOL    MW4 2264   1.574   0.739   1.189  0.3277  0.3459 -0.0261
    1SOL     OW 2265   1.361   0.897   1.302  0.0368  0.1884 -0.1495
    1SOL    HW2 2266   1.430   0.841   1.268 -0.4833  0.0485 -0.9986
    1SOL    HW3 2267   1.279   0.856   1.272 -0.5112 -0.6188  2.3009
    1SOL    MW4 2268   1.359   0.884   1.294 -0.1040  0.0635  0.0619
    1SOL     OW 2269   1.352   1.142   1.155 -0.4572  0.4239 -0.6979
    1SOL    HW2 2270   1.351   1.056   1.198 -0.9969 -0.1626 -1.8419
    1SOL    HW3 2271   1.332   1.122   1.063  0.7513  1.6413 -1.2267
    1SOL    MW4 2272   1.349   1.128   1.148 -0.3690  0.5074 -0.9184
    1SOL     OW 2273   1.557   1.258   1.278  0.0741 -0.4286  0.2667
    1SOL    HW2 2274   1.634   1.224   1.234  0.0411  0.4265 -0.4611
    1SOL    HW3 2275   1.483   1.224   1.227  0.0212  0.0778 -0.0014
    1SOL    MW4 2276   1.557   1.249   1.265  0.0628 -0.2491  0.1352
    1SOL     OW 2277   1.550   1.515   1.177 -0.3743  0.0702 -0.1703
    1SOL    HW2 2278   1.632   1.559   1.202  0.1408  0.1902 -2.0130
    1SOL    HW3 2279   1.547   1.437   1.232  0.2394  0.8198  0.9529
    1SOL    MW4 2280   1.560   1.510   1.188 -0.2253  0.1849 -0.2652
    1SOL     OW 2281   1.366   1.686   1.296 -0.3635 -0.3808 -0.6039
    1SOL    HW2 2282   1.435   1.625   1.269  0.4643 -0.0574  0.7257
    1SOL    HW3 2283   1.286   1.650   1.257  0.1591 -2.1531 -0.1063
    1SOL    MW4 2284   1.365   1.673   1.287 -0.1854 -0.5720 -0.3628
    1SOL     OW 2285   1.366   1.950   1.201 -0.1862 -0.4725  0.2124
    1SOL    HW2 2286   1.362   1.858   1.227 -2.9173 -0.0929  1.3470
    1SOL    HW3 2287   1.281   1.986   1.228  1.6328  2.8863  1.8035
    1SOL    MW4 2288   1.354   1.943   1.208 -0.3065  0.0209  0.5722
    1SOL     OW 2289   1.591   2.078   1.304 -0.2923  0.4433  0.5487
    1SOL    HW2 2290   1.578   2.169   1.278  0.6246  0.5211  0.3226
    1SOL    HW3 2291   1.516   2.031   1.267  0.6240  0.6652 -1.6946
    1SOL    MW4 2292   1.580   2.084   1.296 -0.0504  0.4828  0.2229
    1SOL     OW 2293   1.562   2.339   1.191  0.2099 -0.7838 -0.0863
    1SOL    HW2 2294   1.488   2.377   1.240  0.2415 -0.8562  0.0181
    1SOL    HW3 2295   1.548   2.368   1.101  0.7520  0.2873  0.1590
    1SOL    MW4 2296   1.550   2.348   1.186  0.2856 -0.6518 -0.0403
    1SOL     OW 2297   1.360   2.487   1.307 -0.2368 -0.6663 -0.0484
    1SOL    HW2 2298   1.351   2.486   1.402  1.3286 -0.4758  0.1206
    1SOL    HW3 2299   1.359   2.579   1.283 -1.0786 -0.7305 -0.2662
    1SOL    MW4 2300   1.359   2.499   1.316 -0.1413 -0.6497 -0.0548
    1SOL     OW 2301   1.339   2.757   1.228  0.5194  0.4502  0.2256
    1SOL    HW2 2302   1.417   2.809   1.247  0.6071  0.5540 -0.4132
    1SOL    HW3 2303   1.266   2.814   1.250  0.6236  0.2704  1.0455
    1SOL    MW4 2304   1.340   2.771   1.233  0.5448  0.4404  0.2496
    1SOL     OW 2305   1.559   2.902   1.284 -0.2867  0.9544  0.1492
    1SOL    HW2 2306   1.635   2.849   1.262  0.0713  0.5921  2.1319
    1SOL    HW3 2307   1.568   2.981   1.232  0.1456 -0.1453 -1.4676
    1SOL    MW4 2308   1.570   2.905   1.275 -0.1824  0.7615  0.1974
    1SOL     OW 2309   1.539   3.134   1.138 -0.2694 -0.3232  0.1467
    1SOL    HW2 2310   1.613   3.168   1.189 -1.1259  0.1609  1.0788
    1SOL    HW3 2311   1.462   3.169   1.182 -1.0189  0.5606 -1.8489
    1SOL    MW4 2312   1.539   3.143   1.151 -0.4812 -0.1428  0.0063
    1SOL     OW 2313   1.317   3.228   1.292  0.1850  0.3750 -0.1458
    1SOL    HW2 2314   1.307   3.240   1.387 -0.4814  0.0560 -0.1759
    1SOL    HW3 2315   1.231   3.199   1.262  1.2955 -2.9285 -0.3174
    1SOL    MW4 2316   1.304   3.226   1.301  0.2435 -0.1030 -0.1724
    1SOL     OW 2317   1.326   3.498   1.198 -0.2470  0.0181 -0.4119
    1SOL    HW2 2318   1.334   3.412   1.240 -0.1875  0.7388  1.1115
    1SOL    HW3 2319   1.335   3.480   1.105  0.8935 -1.4980 -0.0393
    1SOL    MW4 2320   1.328   3.484   1.191 -0.0886 -0.0868 -0.1619
    1SOL     OW 2321   1.549   3.626   1.296 -0.1783 -0.0719 -0.0953
    1SOL    HW2 2322   1.542   3.718   1.272 -0.0891 -0.0744 -0.1287
    1SOL    HW3 2323   1.477   3.583   1.248 -0.0659 -0.0602 -0.2718
    1SOL    MW4 2324   1.538   3.632   1.287 -0.1516 -0.0708 -0.1230
    1SOL     OW 2325   1.560   3.898   1.239  0.0943 -0.0282  0.2758
    1SOL    HW2 2326   1.491   3.954   1.275  0.8240  1.2438 -0.2803
    1SOL    HW3 2327   1.551   3.906   1.145  2.2872  1.7692  0.1982
    1SOL    MW4 2328   1.550   3.906   1.232  0.4799  0.3767  0.1922
    1SOL     OW 2329   1.338   4.041   1.314 -0.0514 -0.3703 -0.2432
    1SOL    HW2 2330   1.336   4.129   1.277 -0.4336 -0.0300  0.5628
    1SOL    HW3 2331   1.261   3.998   1.277  0.0662 -0.3264 -0.5408
    1SOL    MW4 2332   1.328   4.047   1.304 -0.0862 -0.3200 -0.1761
    1SOL     OW 2333   1.345   4.292   1.156  0.2228  0.4910 -0.0333
    1SOL    HW2 2334   1.265   4.343   1.171 -0.4602  0.0253 -1.9562
    1SOL    HW3 2335   1.348   4.279   1.061  1.5701 -1.1463  0.2086
    1SOL    MW4 2336   1.335   4.297   1.145  0.3104  0.2136 -0.2551
    1SOL     OW 2337   1.590   4.368   1.265  0.4247 -0.1311 -0.6003
    1SOL    HW2 2338   1.579   4.380   1.359  0.0355  0.9288 -0.7662
    1SOL    HW3 2339   1.510   4.326   1.236  1.0141 -1.4834 -0.2924
    1SOL    MW4 2340   1.578   4.364   1.274  0.4510 -0.1693 -0.5814
    1SOL     OW 2341   2.013   4.666   1.157  0.0579 -0.2006  0.2335
    1SOL    HW2 2342   2.003   4.579   1.194 -0.1365 -0.1243  0.3647
    1SOL    HW3 2343   2.048   4.651   1.069 -1.6863 -0.5166 -0.4265
    1SOL    MW4 2344   2.016   4.653   1.150 -0.1979 -0.2327  0.1637
    1SOL     OW 2345   1.785   0.115   1.259  0.1026  0.2322  0.1624
    1SOL    HW2 2346   1.783   0.199   1.212  0.6924  1.0801  1.6089
    1SOL    HW3 2347   1.871   0.078   1.238 -0.6236 -0.5868 -1.4315
    1SOL    MW4 2348   1.796   0.121   1.250  0.0845  0.2360  0.1431
    1SOL     OW 2349   1.761   0.351   1.136 -0.4452  0.2324 -0.4267
    1SOL    HW2 2350   1.743   0.361   1.043 -1.0439  1.3595 -0.1909
    1SOL    HW3 2351   1.679   0.374   1.180  0.9369  3.7009  0.5550
    1SOL    MW4 2352   1.748   0.355   1.129 -0.3419  0.8388 -0.2661
    1SOL     OW 2353   1.970   0.481   1.242  0.1492 -0.0859  0.0079
    1SOL    HW2 2354   1.968   0.477   1.337 -1.6853 -0.5414 -0.0408
    1SOL    HW3 2355   1.897   0.426   1.213  0.8248 -0.1421 -1.6649
    1SOL    MW4 2356   1.960   0.473   1.251 -0.0036 -0.1534 -0.2192
    1SOL     OW 2357   2.036   0.717   1.114  0.3962 -0.0215 -0.3235
    1SOL    HW2 2358   1.999   0.638   1.154  1.3096 -0.1542  0.2796
    1SOL    HW3 2359   1.996   0.721   1.027 -0.7205 -0.3743  0.1643
    1SOL    MW4 2360   2.026   0.707   1.108  0.3691 -0.0855 -0.1795
    1SOL     OW 2361   1.816   0.857   1.254 -0.1154  0.1737  0.6566
    1SOL    HW2 2362   1.811   0.853   1.350  1.5388 -0.1422  0.7312
    1SOL    HW3 2363   1.895   0.809   1.232 -0.3213  0.5180 -0.8650
    1SOL    MW4 2364   1.826   0.850   1.264  0.0756  0.1774  0.4658
    1SOL     OW 2365   1.765   1.119   1.168  0.1714 -0.1600 -0.1544
    1SOL    HW2 2366   1.771   1.027   1.195 -1.1398 -0.7752 -1.8987
    1SOL    HW3 2367   1.750   1.116   1.074 -0.0743  1.8460 -0.2080
    1SOL    MW4 2368   1.764   1.106   1.159 -0.0340  0.0235 -0.3916
    1SOL     OW 2369   1.986   1.220   1.288 -0.5203 -0.3013 -0.0159
    1SOL    HW2 2370   2.059   1.182   1.240  0.4796  0.9024  0.5264
    1SOL    HW3 2371   1.908   1.182   1.248  0.4306 -2.8515  0.4471
    1SOL    MW4 2372   1.985   1.210   1.277 -0.2629 -0.4789  0.1166
    1SOL     OW 2373   1.965   1.514   1.183 -0.2503 -0.0612 -0.2350
    1SOL    HW2 2374   2.040   1.560   1.220 -0.5842  1.0880 -0.9640
    1SOL    HW3 2375   1.953   1.437   1.239  0.6846  0.4249  0.6306
    1SOL    MW4 2376   1.973   1.510   1.195 -0.1712  0.1546 -0.2168
    1SOL     OW 2377   1.761   1.682   1.280  0.0584 -0.7056 -0.8047
    1SOL    HW2 2378   1.781   1.774   1.263 -0.4592 -0.3914  0.2699
    1SOL    HW3 2379   1.830   1.634   1.235  1.8910  0.2984  0.8603
    1SOL    MW4 2380   1.773   1.687   1.272  0.2317 -0.5317 -0.4432
    1SOL     OW 2381   1.810   1.932   1.201  0.4892 -0.4592 -0.0757
    1SOL    HW2 2382   1.736   1.986   1.229 -0.5645 -2.2158  0.6147
    1SOL    HW3 2383   1.795   1.917   1.108  0.1762 -0.4925 -0.0210
    1SOL    MW4 2384   1.798   1.937   1.193  0.3088 -0.6955  0.0226
    1SOL     OW 2385   2.040   2.038   1.281  0.2693 -0.2153 -0.5660
    1SOL    HW2 2386   2.019   2.038   1.374  0.8009  1.5180 -0.4169
    1SOL    HW3 2387   1.968   1.991   1.240 -0.1733 -0.6432  0.6791
    1SOL    MW4 2388   2.028   2.032   1.288  0.2811 -0.0429 -0.3821
    1SOL     OW 2389   2.025   2.326   1.220 -0.0656 -0.1521 -0.2962
    1SOL    HW2 2390   2.105   2.366   1.255  0.2762 -1.0985  0.0192
    1SOL    HW3 2391   2.028   2.236   1.251 -2.5851  0.4779  1.9874
    1SOL    MW4 2392   2.036   2.320   1.229 -0.3531 -0.1936  0.0467
    1SOL     OW 2393   1.780   2.468   1.295  0.3287 -0.3934 -0.0519
    1SOL    HW2 2394   1.861   2.426   1.265  0.3009  0.2255 -1.0433
    1SOL    HW3 2395   1.712   2.429   1.241  0.0124 -0.6573  0.5401
    1SOL    MW4 2396   1.782   2.457   1.284  0.2834 -0.3469 -0.1045
    1SOL     OW 2397   1.771   2.729   1.186  0.1925  0.8354  0.0872
    1SOL    HW2 2398   1.763   2.638   1.217 -0.1879  1.5943  2.2691
    1SOL    HW3 2399   1.765   2.722   1.091  0.1682 -1.4375  0.2261
    1SOL    MW4 2400   1.769   2.716   1.177  0.1391  0.6356  0.3934
    1SOL     OW 2401   2.024   2.841   1.283 -0.2184  0.2748 -0.1116
    1SOL    HW2 2402   2.018   2.924   1.237 -0.2239  0.1286 -0.3788
    1SOL    HW3 2403   1.940   2.798   1.266  0.8014 -0.9708 -2.2987
    1SOL    MW4 2404   2.013   2.846   1.275 -0.0846  0.0913 -0.4354
    1SOL     OW 2405   1.999   3.105   1.196  0.2763  0.1841  0.0706
    1SOL    HW2 2406   1.919   3.150   1.223 -0.7254 -1.3261 -0.3154
    1SOL    HW3 2407   1.998   3.107   1.101 -0.4793 -1.8090  0.0086
    1SOL    MW4 2408   1.989   3.111   1.187  0.0445 -0.2780  0.0117
    1SOL     OW 2409   1.766   3.231   1.271 -0.0132 -0.3791 -0.4279
    1SOL    HW2 2410   1.766   3.246   1.365 -1.6419  1.6000 -0.7156
    1SOL    HW3 2411   1.785   3.317   1.233 -2.5824 -0.4615 -1.9879
    1SOL    MW4 2412   1.769   3.244   1.278 -0.5670 -0.1287 -0.6716
    1SOL     OW 2413   1.813   3.507   1.161 -0.1303 -0.0078  0.1284
    1SOL    HW2 2414   1.892   3.543   1.200 -0.1522  0.5396 -0.3301
    1SOL    HW3 2415   1.741   3.547   1.210 -0.1176 -0.5387  0.5737
    1SOL    MW4 2416   1.814   3.517   1.172 -0.1316 -0.0057  0.1265
    1SOL     OW 2417   2.035   3.615   1.287 -0.4769  0.1934  0.4317
    1SOL    HW2 2418   2.024   3.602   1.382  1.1156 -0.3063  0.5681
    1SOL    HW3 2419   2.116   3.569   1.266 -1.3191 -0.5225 -1.3667
    1SOL    MW4 2420   2.044   3.607   1.297 -0.3779  0.0331  0.2124
    1SOL     OW 2421   2.072   3.875   1.211 -0.6501  0.4802  0.0798
    1SOL    HW2 2422   1.991   3.909   1.248 -1.7127 -0.6497 -1.1677
    1SOL    HW3 2423   2.080   3.786   1.247  0.2046  0.6972  0.4470
    1SOL    MW4 2424   2.062   3.867   1.221 -0.6776  0.3600 -0.0365
    1SOL     OW 2425   1.825   3.991   1.303  0.3497  0.0701 -0.6234
    1SOL    HW2 2426   1.813   4.006   1.397 -1.5214 -1.4020 -0.5816
    1SOL    HW3 2427   1.740   3.957   1.274  1.1614 -0.2439 -2.6860
    1SOL    MW4 2428   1.812   3.988   1.312  0.2099 -0.1655 -0.8900
    1SOL     OW 2429   1.819   4.251   1.163 -0.3809 -0.3117  0.0234
    1SOL    HW2 2430   1.816   4.161   1.195 -0.0412 -0.0799  0.7190
    1SOL    HW3 2431   1.736   4.289   1.189 -0.0646 -0.0943  0.7240
    1SOL    MW4 2432   1.808   4.244   1.170 -0.2943 -0.2522  0.2077
    1SOL     OW 2433   2.010   4.409   1.273 -0.6504 -0.1669 -0.4526
    1SOL    HW2 2434   2.010   4.393   1.368 -0.0053  1.6607 -0.1134
    1SOL    HW3 2435   1.940   4.353   1.239 -0.5657 -1.2142  1.0377
    1SOL    MW4 2436   2.001   4.399   1.281 -0.5541 -0.0639 -0.2112
    1SOL     OW 2437   2.480   4.644   1.219 -0.3999  0.2509  0.4377
    1SOL    HW2 2438   2.541   4.715   1.240 -1.1034  0.6608  1.1227
    1SOL    HW3 2439   2.395   4.677   1.247 -1.0833  0.0299 -1.3024
    1SOL    MW4 2440   2.477   4.658   1.226 -0.5825  0.2756  0.2985
    1SOL     OW 2441   2.227   0.105   1.297  0.0012  0.1211  0.0087
    1SOL    HW2 2442   2.217   0.192   1.260  0.6682  0.0184 -0.4172
    1SOL    HW3 2443   2.146   0.060   1.275 -0.2593  0.5668  0.0502
    1SOL    MW4 2444   2.215   0.110   1.289  0.0548  0.1663 -0.0420
    1SOL     OW 2445   2.231   0.360   1.156  0.3630  0.0629 -0.1755
    1SOL    HW2 2446   2.143   0.393   1.176 -1.2314 -2.8345 -2.1115
    1SOL    HW3 2447   2.234   0.358   1.060  1.7316 -1.9403 -0.1004
    1SOL    MW4 2448   2.220   0.364   1.146  0.3333 -0.5837 -0.4210
    1SOL     OW 2449   2.461   0.507   1.229 -0.3567  0.2342  0.1547
    1SOL    HW2 2450   2.459   0.501   1.324  0.7384  0.2440  0.1892
    1SOL    HW3 2451   2.386   0.455   1.200  0.6870 -1.8165  0.9579
    1SOL    MW4 2452   2.451   0.499   1.238 -0.0746 -0.0351  0.2652
    1SOL     OW 2453   2.453   0.776   1.171 -0.1214  0.3565  0.0866
    1SOL    HW2 2454   2.442   0.684   1.195  1.3612  0.2283  0.3609
    1SOL    HW3 2455   2.422   0.781   1.080  0.6875 -0.6259 -0.2504
    1SOL    MW4 2456   2.448   0.765   1.162  0.1810  0.2099  0.0783
    1SOL     OW 2457   2.212   0.876   1.256 -0.4381 -0.3426 -1.2935
    1SOL    HW2 2458   2.301   0.845   1.241  0.1103  0.1591  0.7453
    1SOL    HW3 2459   2.155   0.810   1.217  0.8007 -1.6917 -0.8228
    1SOL    MW4 2460   2.216   0.863   1.249 -0.2022 -0.4544 -0.9625
    1SOL     OW 2461   2.200   1.141   1.145 -0.3793 -0.2631 -0.3619
    1SOL    HW2 2462   2.260   1.187   1.203  0.3628 -1.1679 -0.4004
    1SOL    HW3 2463   2.209   1.049   1.169 -2.6967 -0.2935  0.5063
    1SOL    MW4 2464   2.209   1.135   1.156 -0.5872 -0.3866 -0.2524
    1SOL     OW 2465   2.392   1.269   1.291 -0.0124 -0.4452  0.1561
    1SOL    HW2 2466   2.471   1.223   1.263 -0.5176  0.0052 -2.0480
    1SOL    HW3 2467   2.408   1.361   1.269 -0.7396 -0.1915  0.6465
    1SOL    MW4 2468   2.404   1.275   1.284 -0.1750 -0.3523 -0.0700
    1SOL     OW 2469   2.428   1.537   1.231 -0.3516  0.2199 -0.3396
    1SOL    HW2 2470   2.347   1.584   1.250 -0.6373 -0.0692 -0.8247
    1SOL    HW3 2471   2.436   1.540   1.136 -0.5431 -0.9855 -0.3983
    1SOL    MW4 2472   2.418   1.544   1.221 -0.4146  0.0226 -0.4113
    1SOL     OW 2473   2.178   1.658   1.303  0.7833 -0.7710 -0.3633
    1SOL    HW2 2474   2.206   1.748   1.285 -1.3651  0.3051  1.4052
    1SOL    HW3 2475   2.188   1.649   1.397 -1.1584 -1.6163 -0.2216
    1SOL    MW4 2476   2.183   1.669   1.313  0.2437 -0.7406 -0.1113
    1SOL     OW 2477   2.282   1.909   1.216 -0.1270 -0.4232  0.1308
    1SOL    HW2 2478   2.197   1.944   1.243 -0.2189 -0.7680  0.2981
    1SOL    HW3 2479   2.282   1.917   1.121  0.4621  1.3998  0.2835
    1SOL    MW4 2480   2.271   1.914   1.207 -0.0615 -0.2282  0.1730
    1SOL     OW 2481   2.507   2.021   1.306 -0.1196  0.2426 -0.0861
    1SOL    HW2 2482   2.570   1.983   1.244 -1.3439  0.7099 -1.6655
    1SOL    HW3 2483   2.424   1.979   1.285 -0.6079  0.5961  1.0952
    1SOL    MW4 2484   2.505   2.011   1.295 -0.3455  0.3510 -0.1386
    1SOL     OW 2485   2.468   2.283   1.226  0.5570 -0.2874  0.3937
    1SOL    HW2 2486   2.481   2.191   1.251 -0.2806  0.0330  2.0610
    1SOL    HW3 2487   2.456   2.280   1.131 -0.4512 -2.0248  0.5393
    1SOL    MW4 2488   2.468   2.270   1.216  0.3133 -0.4745  0.6329
    1SOL     OW 2489   2.251   2.455   1.313 -0.4273 -0.2271  0.3731
    1SOL    HW2 2490   2.255   2.452   1.409 -1.2863 -0.3676  0.4046
    1SOL    HW3 2491   2.329   2.407   1.285  0.1414  0.3138  1.0018
    1SOL    MW4 2492   2.262   2.448   1.322 -0.4659 -0.1743  0.4603
    1SOL     OW 2493   2.253   2.707   1.186 -0.1665  0.1609 -0.4697
    1SOL    HW2 2494   2.260   2.618   1.220 -2.4027  0.5045  1.0206
    1SOL    HW3 2495   2.167   2.737   1.216  0.0421  2.3802 -2.0002
    1SOL    MW4 2496   2.242   2.699   1.195 -0.4339  0.4990 -0.4750
    1SOL     OW 2497   2.473   2.845   1.296 -0.2897  0.0596 -0.0301
    1SOL    HW2 2498   2.460   2.828   1.389 -0.1846 -0.2733 -0.0765
    1SOL    HW3 2499   2.397   2.806   1.253 -0.2112 -0.0077 -0.1076
    1SOL    MW4 2500   2.462   2.838   1.303 -0.2656  0.0067 -0.0465
    1SOL     OW 2501   2.493   3.100   1.193  0.4679 -0.1767  0.5353
    1SOL    HW2 2502   2.413   3.128   1.238  0.2182 -1.1710  0.7180
    1SOL    HW3 2503   2.500   3.007   1.212  0.3819 -0.6086 -1.4538
    1SOL    MW4 2504   2.484   3.092   1.201  0.4234 -0.3648  0.2968
    1SOL     OW 2505   2.247   3.177   1.294 -0.0873 -0.5130 -0.3168
    1SOL    HW2 2506   2.240   3.265   1.257  0.8064 -0.2422  0.1505
    1SOL    HW3 2507   2.163   3.136   1.273  0.2958 -0.2884 -2.3751
    1SOL    MW4 2508   2.235   3.183   1.287  0.0811 -0.4478 -0.5267
    1SOL     OW 2509   2.241   3.427   1.215 -0.2170 -0.1171 -0.0619
    1SOL    HW2 2510   2.328   3.465   1.225  0.7052 -2.4253  1.1081
    1SOL    HW3 2511   2.225   3.428   1.121  0.8882  0.7409 -0.2483
    1SOL    MW4 2512   2.250   3.432   1.204  0.0508 -0.3083  0.0679
    1SOL     OW 2513   2.489   3.586   1.274 -0.1924  0.2789  0.2391
    1SOL    HW2 2514   2.478   3.599   1.369 -1.1280  0.3562  0.1265
    1SOL    HW3 2515   2.464   3.670   1.236 -0.3314  0.0767 -0.1158
    1SOL    MW4 2516   2.484   3.599   1.282 -0.3343  0.2623  0.1774
    1SOL     OW 2517   2.435   3.841   1.192 -0.3887 -0.3969  0.4171
    1SOL    HW2 2518   2.383   3.913   1.227 -0.9207 -0.5497 -0.0502
    1SOL    HW3 2519   2.443   3.861   1.098 -2.0328 -1.8450 -0.0553
    1SOL    MW4 2520   2.429   3.853   1.184 -0.6759 -0.6080  0.2931
    1SOL     OW 2521   2.273   4.049   1.296  0.0746 -0.4421  0.0111
    1SOL    HW2 2522   2.256   4.140   1.270  1.0072 -0.0728  0.6483
    1SOL    HW3 2523   2.202   3.999   1.256  0.1113  0.4321 -1.1659
    1SOL    MW4 2524   2.261   4.055   1.288  0.2027 -0.2785 -0.0602
    1SOL     OW 2525   2.257   4.300   1.186 -0.1071 -0.2852  0.2853
    1SOL    HW2 2526   2.170   4.333   1.211 -0.1839 -0.3956  0.1622
    1SOL    HW3 2527   2.251   4.287   1.092  0.0778 -0.1912  0.2610
    1SOL    MW4 2528   2.245   4.303   1.177 -0.0927 -0.2880  0.2658
    1SOL     OW 2529   2.529   4.376   1.288 -0.0381  0.5684 -0.1772
    1SOL    HW2 2530   2.447   4.344   1.249  0.3517  1.1536 -1.5106
    1SOL    HW3 2531   2.529   4.470   1.270  0.1399  0.8696  1.2998
    1SOL    MW4 2532   2.518   4.384   1.281  0.0372  0.6852 -0.1583
    1SOL     OW 2533   2.931   4.613   1.198  0.2863 -0.4480 -0.0838
    1SOL    HW2 2534   2.918   4.521   1.223 -0.3310 -0.3764 -0.1511
    1SOL    HW3 2535   2.930   4.613   1.102 -1.8885 -0.0588 -0.0777
    1SOL    MW4 2536   2.929   4.601   1.189 -0.0820 -0.3872 -0.0919
    1SOL     OW 2537   2.715   0.138   1.272 -0.7411  0.1288  0.6779
    1SOL    HW2 2538   2.720   0.135   1.367  0.1267  0.3651  0.6451
    1SOL    HW3 2539   2.783   0.077   1.242 -1.1365 -0.0920  0.2052
    1SOL    MW4 2540   2.724   0.129   1.280 -0.6788  0.1308  0.6112
    1SOL     OW 2541   2.695   0.371   1.143 -0.3884  0.4706  0.1535
    1SOL    HW2 2542   2.702   0.297   1.204  0.2250 -1.6828 -2.4432
    1SOL    HW3 2543   2.612   0.414   1.167 -1.5872 -2.0422  0.6941
    1SOL    MW4 2544   2.685   0.367   1.154 -0.4654 -0.1450 -0.1178
    1SOL     OW 2545   2.920   0.493   1.298  0.2339  0.1382  0.2657
    1SOL    HW2 2546   2.916   0.584   1.272 -0.8385 -0.1544 -0.6040
    1SOL    HW3 2547   2.851   0.450   1.248  1.2472 -1.2955  0.0590
    1SOL    MW4 2548   2.910   0.499   1.288  0.2260 -0.0896  0.1237
    1SOL     OW 2549   2.903   0.743   1.234 -0.1949 -0.1952  0.0702
    1SOL    HW2 2550   2.978   0.794   1.265  0.7023 -1.4668  0.0035
    1SOL    HW3 2551   2.827   0.795   1.260  0.7092  1.2651 -0.1358
    1SOL    MW4 2552   2.903   0.757   1.242  0.0427 -0.1703  0.0342
    1SOL     OW 2553   2.679   0.889   1.324 -0.2166  0.0358 -0.0674
    1SOL    HW2 2554   2.685   0.981   1.298 -1.5966  0.6800  1.7284
    1SOL    HW3 2555   2.603   0.855   1.276 -0.0883  0.0211 -0.2563
    1SOL    MW4 2556   2.670   0.896   1.314 -0.3817  0.1189  0.1446
    1SOL     OW 2557   2.640   1.183   1.223 -0.3596  0.0758 -0.2026
    1SOL    HW2 2558   2.726   1.219   1.246  0.4798 -1.8003 -0.3787
    1SOL    HW3 2559   2.650   1.149   1.134 -1.2764 -0.2196 -0.2069
    1SOL    MW4 2560   2.652   1.184   1.214 -0.3695 -0.2109 -0.2264
    1SOL     OW 2561   2.857   1.297   1.325 -0.0369 -0.1950 -0.1756
    1SOL    HW2 2562   2.896   1.290   1.412  1.9568 -2.1020 -1.1684
    1SOL    HW3 2563   2.877   1.386   1.297  1.6775 -0.4032  0.2855
    1SOL    MW4 2564   2.865   1.308   1.333  0.4525 -0.4742 -0.2458
    1SOL     OW 2565   2.876   1.548   1.204 -0.3144 -0.4137 -0.5535
    1SOL    HW2 2566   2.956   1.597   1.222  0.5042 -1.6322 -0.8091
    1SOL    HW3 2567   2.866   1.554   1.109 -0.7957  0.1273 -0.4749
    1SOL    MW4 2568   2.885   1.556   1.194 -0.2697 -0.5029 -0.5770
    1SOL     OW 2569   2.659   1.682   1.310  0.3414  0.3560  0.3774
    1SOL    HW2 2570   2.735   1.627   1.289  0.3799 -0.2252  1.9362
    1SOL    HW3 2571   2.584   1.625   1.295  0.3722 -0.0774  1.8134
    1SOL    MW4 2572   2.659   1.667   1.305  0.3505  0.2221  0.7727
    1SOL     OW 2573   2.647   1.893   1.132  0.2447  0.8245 -0.3267
    1SOL    HW2 2574   2.731   1.932   1.158 -0.5337  1.5128  1.1834
    1SOL    HW3 2575   2.636   1.819   1.192  0.0071  0.4156 -0.8686
    1SOL    MW4 2576   2.657   1.889   1.143  0.1106  0.8615 -0.1988
    1SOL     OW 2577   2.870   1.993   1.260 -0.2546  0.2995 -0.0198
    1SOL    HW2 2578   2.877   1.994   1.356 -0.3954  0.0107 -0.0045
    1SOL    HW3 2579   2.883   2.084   1.234  1.9564  0.0586  0.1203
    1SOL    MW4 2580   2.873   2.005   1.269  0.0188  0.2298  0.0006
    1SOL     OW 2581   2.903   2.291   1.189 -0.0306 -0.2797 -0.1672
    1SOL    HW2 2582   2.980   2.341   1.216  0.2664 -0.8901  0.1197
    1SOL    HW3 2583   2.828   2.345   1.216  0.2651 -0.7674  1.6568
    1SOL    MW4 2584   2.903   2.305   1.196  0.0477 -0.4244  0.1112
    1SOL     OW 2585   2.697   2.433   1.287 -0.3041  0.1222 -0.0998
    1SOL    HW2 2586   2.701   2.440   1.382 -1.1110 -0.1093 -0.0511
    1SOL    HW3 2587   2.619   2.380   1.269 -0.4058  0.5306 -0.9062
    1SOL    MW4 2588   2.687   2.427   1.297 -0.4244  0.1457 -0.1999
    1SOL     OW 2589   2.680   2.692   1.194  0.0350 -0.1720 -0.0251
    1SOL    HW2 2590   2.688   2.608   1.238 -0.1883 -0.1179  0.1162
    1SOL    HW3 2591   2.601   2.731   1.230  0.5593  0.4366  0.4829
    1SOL    MW4 2592   2.671   2.686   1.205  0.0749 -0.0846  0.0606
    1SOL     OW 2593   2.877   2.849   1.296  0.0618  0.0503  0.3944
    1SOL    HW2 2594   2.883   2.812   1.384  1.9124 -1.3877 -0.2864
    1SOL    HW3 2595   2.808   2.799   1.253  0.8079 -0.9134  0.2904
    1SOL    MW4 2596   2.869   2.837   1.302  0.4046 -0.2666  0.2908
    1SOL     OW 2597   2.938   3.107   1.214  0.3454  0.2350 -0.2900
    1SOL    HW2 2598   2.925   3.019   1.250  0.9751  0.4668  0.5381
    1SOL    HW3 2599   2.930   3.096   1.120 -1.0759 -0.4358 -0.1045
    1SOL    MW4 2600   2.935   3.094   1.206  0.2410  0.1769 -0.1563
    1SOL     OW 2601   2.706   3.231   1.320 -0.0473  0.0024 -0.1213
    1SOL    HW2 2602   2.784   3.184   1.290 -0.5113  0.9310 -2.9102
    1SOL    HW3 2603   2.633   3.185   1.277 -0.7860  1.0750 -0.0263
    1SOL    MW4 2604   2.707   3.218   1.310 -0.2062  0.2666 -0.4767
    1SOL     OW 2605   2.713   3.454   1.170 -0.1962 -0.3379 -0.1151
    1SOL    HW2 2606   2.704   3.369   1.213 -0.1852  1.2761  3.2509
    1SOL    HW3 2607   2.633   3.501   1.193 -0.5744  0.2977 -2.6401
    1SOL    MW4 2608   2.701   3.449   1.179 -0.2449 -0.0408 -0.0041
    1SOL     OW 2609   2.924   3.603   1.300  0.0848  0.3868  0.1979
    1SOL    HW2 2610   3.008   3.562   1.279 -0.5978 -0.8352 -0.1252
    1SOL    HW3 2611   2.860   3.558   1.246 -1.1266 -0.2291  2.1067
    1SOL    MW4 2612   2.927   3.592   1.290 -0.1650  0.1442  0.4071
    1SOL     OW 2613   2.894   3.849   1.173 -0.2072  0.0472  0.1503
    1SOL    HW2 2614   2.973   3.888   1.210  1.1992 -0.9976 -1.6604
    1SOL    HW3 2615   2.895   3.758   1.205 -1.3154  0.3440  1.0667
    1SOL    MW4 2616   2.905   3.842   1.182 -0.1681 -0.0515  0.0323
    1SOL     OW 2617   2.684   3.993   1.287 -0.1609  0.0250 -0.1266
    1SOL    HW2 2618   2.751   3.929   1.261 -1.0108 -1.3661  1.0018
    1SOL    HW3 2619   2.601   3.944   1.281 -0.8574  1.1248  0.4065
    1SOL    MW4 2620   2.682   3.978   1.283 -0.3653 -0.0136  0.0926
    1SOL     OW 2621   2.728   4.228   1.132  0.2722  0.0238  0.3343
    1SOL    HW2 2622   2.669   4.283   1.183  0.0687 -1.2826  1.5647
    1SOL    HW3 2623   2.721   4.141   1.173  0.2878 -1.0071 -1.7824
    1SOL    MW4 2624   2.719   4.224   1.144  0.2475 -0.2847  0.2176
    1SOL     OW 2625   2.922   4.345   1.275 -0.4461 -0.3952 -0.2372
    1SOL    HW2 2626   3.007   4.302   1.263 -0.5127 -0.1418 -1.6817
    1SOL    HW3 2627   2.862   4.294   1.220 -1.2301 -0.5524  0.7555
    1SOL    MW4 2628   2.925   4.332   1.266 -0.5584 -0.3819 -0.2968
    1SOL     OW 2629   3.381   4.646   1.182 -0.2106 -0.2436  0.6582
    1SOL    HW2 2630   3.448   4.700   1.224 -0.1686 -0.2232  0.5650
    1SOL    HW3 2631   3.298   4.680   1.216 -0.2320  0.5196 -0.1525
    1SOL    MW4 2632   3.379   4.658   1.192 -0.2081 -0.1402  0.5388
    1SOL     OW 2633   3.147   0.098   1.283  0.4026 -0.6488  0.4493
    1SOL    HW2 2634   3.148   0.102   1.379  0.3486 -0.9272  0.4611
    1SOL    HW3 2635   3.072   0.042   1.262 -0.4781  0.5719  0.2113
    1SOL    MW4 2636   3.137   0.091   1.293  0.2797 -0.5245  0.4196
    1SOL     OW 2637   3.131   0.359   1.186  0.1529 -0.1331  0.1698
    1SOL    HW2 2638   3.124   0.278   1.237 -0.2952  0.4302  1.0093
    1SOL    HW3 2639   3.062   0.416   1.221  1.4355  1.1779  0.6273
    1SOL    MW4 2640   3.121   0.356   1.198  0.2630  0.1142  0.3409
    1SOL     OW 2641   3.341   0.484   1.332 -0.3504  0.0784 -0.7037
    1SOL    HW2 2642   3.320   0.566   1.287 -0.4865  0.9876  0.9886
    1SOL    HW3 2643   3.285   0.419   1.289 -1.7420  1.2469 -0.7044
    1SOL    MW4 2644   3.331   0.486   1.320 -0.5517  0.3525 -0.4804
    1SOL     OW 2645   3.337   0.758   1.249  0.1021  0.4473 -0.1910
    1SOL    HW2 2646   3.264   0.808   1.283 -0.2135 -0.8750  1.1217
    1SOL    HW3 2647   3.327   0.762   1.154 -2.0077 -0.2063 -0.0074
    1SOL    MW4 2648   3.326   0.765   1.241 -0.2177  0.1866  0.0063
    1SOL     OW 2649   3.114   0.876   1.342 -0.1497  0.2252 -0.2816
    1SOL    HW2 2650   3.122   0.866   1.437 -2.3130 -0.1386 -0.0967
    1SOL    HW3 2651   3.098   0.970   1.330  1.9020  0.5642 -0.4505
    1SOL    MW4 2652   3.113   0.887   1.353 -0.1645  0.2219 -0.2794
    1SOL     OW 2653   3.107   1.142   1.264  0.4566 -0.0662  0.3875
    1SOL    HW2 2654   3.193   1.178   1.287  0.1981  0.1552  1.0194
    1SOL    HW3 2655   3.046   1.213   1.285  0.0887 -0.3455  0.2486
    1SOL    MW4 2656   3.111   1.156   1.270  0.3738 -0.0739  0.4525
    1SOL     OW 2657   3.347   1.289   1.308  0.0980 -0.2929 -0.0502
    1SOL    HW2 2658   3.361   1.294   1.402  0.0181 -0.2883 -0.0389
    1SOL    HW3 2659   3.359   1.379   1.277 -0.0006 -0.2728 -0.0282
    1SOL    MW4 2660   3.351   1.301   1.316  0.0746 -0.2897 -0.0458
    1SOL     OW 2661   3.370   1.546   1.196  0.7409  0.4172 -0.3859
    1SOL    HW2 2662   3.440   1.597   1.236 -0.7775  1.1134  1.4570
    1SOL    HW3 2663   3.289   1.588   1.226 -0.5230 -2.1222 -0.0935
    1SOL    MW4 2664   3.368   1.558   1.205  0.3738  0.1742 -0.1041
    1SOL     OW 2665   3.127   1.663   1.283  0.3096  0.0911 -0.0703
    1SOL    HW2 2666   3.127   1.656   1.378  1.8359 -0.0350 -0.0728
    1SOL    HW3 2667   3.138   1.756   1.265 -0.0744  0.1266 -0.1263
    1SOL    MW4 2668   3.128   1.674   1.293  0.4604  0.0793 -0.0780
    1SOL     OW 2669   3.120   1.930   1.175 -0.0099 -0.0481  0.4245
    1SOL    HW2 2670   3.183   1.986   1.222 -0.2271 -0.1712  0.8685
    1SOL    HW3 2671   3.035   1.951   1.215 -0.2974  0.3439 -0.3845
    1SOL    MW4 2672   3.117   1.940   1.187 -0.0763 -0.0126  0.3763
    1SOL     OW 2673   3.372   2.032   1.285  0.5999 -0.0957  0.1005
    1SOL    HW2 2674   3.457   1.997   1.258  0.1487 -0.3227 -1.0387
    1SOL    HW3 2675   3.376   2.125   1.263  0.3485 -0.2178 -0.4631
    1SOL    MW4 2676   3.384   2.040   1.278  0.5074 -0.1419 -0.1241
    1SOL     OW 2677   3.360   2.291   1.202 -0.1145  0.0102 -0.3001
    1SOL    HW2 2678   3.431   2.350   1.226  0.6123  0.2728 -2.9533
    1SOL    HW3 2679   3.281   2.344   1.213  0.3355  0.6818 -0.2538
    1SOL    MW4 2680   3.359   2.306   1.206  0.0405  0.1333 -0.6441
    1SOL     OW 2681   3.127   2.449   1.275 -0.5641  0.3699 -0.5247
    1SOL    HW2 2682   3.139   2.446   1.370 -1.6741 -0.1725 -0.3963
    1SOL    HW3 2683   3.126   2.542   1.254 -0.5014  0.4954  0.0196
    1SOL    MW4 2684   3.128   2.461   1.285 -0.7026  0.3152 -0.4361
    1SOL     OW 2685   3.125   2.734   1.206 -0.3773  0.5594 -0.1801
    1SOL    HW2 2686   3.042   2.769   1.238 -0.2831  0.3605  0.2721
    1SOL    HW3 2687   3.114   2.732   1.110 -1.5547 -1.0995 -0.0474
    1SOL    MW4 2688   3.112   2.738   1.197 -0.5200  0.3142 -0.1029
    1SOL     OW 2689   3.379   2.827   1.311 -0.2617 -0.1024  0.0276
    1SOL    HW2 2690   3.359   2.920   1.311 -0.1045 -0.0681  0.0434
    1SOL    HW3 2691   3.305   2.786   1.267 -1.0318 -0.1159  1.2893
    1SOL    MW4 2692   3.367   2.834   1.305 -0.3426 -0.0997  0.1962
    1SOL     OW 2693   3.401   3.108   1.267  0.4194  0.1512  0.5546
    1SOL    HW2 2694   3.472   3.164   1.299  0.8437 -0.6328  1.0012
    1SOL    HW3 2695   3.321   3.156   1.288  0.7701  0.4684  1.1659
    1SOL    MW4 2696   3.400   3.122   1.274  0.5214  0.0894  0.6942
    1SOL     OW 2697   3.164   3.237   1.340 -0.4838  0.1036 -0.0879
    1SOL    HW2 2698   3.154   3.326   1.307  0.4147 -0.8489 -3.1104
    1SOL    HW3 2699   3.094   3.187   1.298  0.1571 -0.9828  0.1061
    1SOL    MW4 2700   3.154   3.242   1.330 -0.2809 -0.1655 -0.4612
    1SOL     OW 2701   3.167   3.509   1.216  0.1770  0.6708  0.1706
    1SOL    HW2 2702   3.252   3.547   1.239  0.5979 -1.0278  1.4408
    1SOL    HW3 2703   3.170   3.498   1.121  1.4589  0.4232  0.2435
    1SOL    MW4 2704   3.178   3.513   1.206  0.4020  0.4139  0.3479
    1SOL     OW 2705   3.400   3.627   1.299 -0.1808  0.2395 -0.2435
    1SOL    HW2 2706   3.395   3.623   1.395  0.4910 -0.1253 -0.2178
    1SOL    HW3 2707   3.394   3.721   1.279 -0.2254  0.3258  0.1662
    1SOL    MW4 2708   3.399   3.639   1.309 -0.0980  0.2027 -0.1860
    1SOL     OW 2709   3.114   4.006   0.801  0.0353 -0.3859 -0.3979
    1SOL    HW2 2710   3.044   3.955   0.843 -0.5734  1.7373  1.2432
    1SOL    HW3 2711   3.193   3.955   0.818 -0.7798 -1.6872 -0.3487
    1SOL    MW4 2712   3.115   3.992   0.809 -0.1526 -0.2775 -0.1749
    1SOL     OW 2713   3.386   3.881   1.192 -0.3437  0.0792 -0.0359
    1SOL    HW2 2714   3.300   3.919   1.211 -0.4884 -0.3899  0.2568
    1SOL    HW3 2715   3.390   3.875   1.097 -0.9504 -0.6152 -0.0258
    1SOL    MW4 2716   3.375   3.885   1.182 -0.4430 -0.0744  0.0041
    1SOL     OW 2717   3.156   4.227   1.208 -0.6215 -0.0318  0.5209
    1SOL    HW2 2718   3.226   4.288   1.233 -0.1754 -0.1975 -0.3109
    1SOL    HW3 2719   3.146   4.239   1.114 -0.3192 -1.4621  0.2917
    1SOL    MW4 2720   3.164   4.237   1.199 -0.5229 -0.2427  0.3808
    1SOL     OW 2721   3.377   4.382   1.294 -0.2395 -0.1252  0.0942
    1SOL    HW2 2722   3.458   4.335   1.272 -1.2130 -1.2162 -1.2010
    1SOL    HW3 2723   3.386   4.466   1.248  0.5975  0.1696  0.7776
    1SOL    MW4 2724   3.389   4.387   1.285 -0.2573 -0.2303  0.0135
    1SOL     OW 2725   3.837   0.003   1.188  0.3739  0.2206 -0.0888
    1SOL    HW2 2726   3.848  -0.088   1.216 -0.2988  0.0406 -0.3997
    1SOL    HW3 2727   3.823  -0.002   1.094  0.3875  0.6515 -0.1153
    1SOL    MW4 2728   3.837  -0.010   1.179  0.2868  0.2537 -0.1333
    1SOL     OW 2729   3.602   0.113   1.299 -0.1426  0.1541  0.0359
    1SOL    HW2 2730   3.605   0.202   1.264 -0.4595  0.0687 -0.2088
    1SOL    HW3 2731   3.677   0.069   1.260  0.4378  0.5267  0.7316
    1SOL    MW4 2732   3.612   0.119   1.289 -0.1080  0.1920  0.0955
    1SOL     OW 2733   3.596   0.396   1.224  0.0296 -0.0353 -0.2254
    1SOL    HW2 2734   3.670   0.439   1.267 -0.8869  0.0199  1.3569
    1SOL    HW3 2735   3.519   0.436   1.264 -0.8430 -1.9054  0.0106
    1SOL    MW4 2736   3.595   0.407   1.235 -0.2065 -0.2748  0.0144
    1SOL     OW 2737   3.785   0.564   1.307 -0.2682  0.5052 -0.3391
    1SOL    HW2 2738   3.868   0.539   1.267 -1.9166 -1.2367 -2.7862
    1SOL    HW3 2739   3.755   0.639   1.256 -0.4682  0.7950  0.1983
    1SOL    MW4 2740   3.792   0.570   1.295 -0.5124  0.3136 -0.5910
    1SOL     OW 2741   3.729   0.824   1.211 -0.1364 -0.2587  0.4466
    1SOL    HW2 2742   3.811   0.857   1.246  0.6274 -0.6624 -0.9267
    1SOL    HW3 2743   3.661   0.873   1.258  0.9019  0.7457  0.9187
    1SOL    MW4 2744   3.731   0.835   1.222  0.1013 -0.1794  0.3278
    1SOL     OW 2745   3.517   0.956   1.304 -0.0411 -0.6681 -0.3867
    1SOL    HW2 2746   3.518   1.026   1.238  0.3698 -0.2942  0.0109
    1SOL    HW3 2747   3.466   0.886   1.264 -1.1019  0.1537 -0.4803
    1SOL    MW4 2748   3.511   0.956   1.290 -0.1271 -0.5103 -0.3467
    1SOL     OW 2749   3.543   1.190   1.125  0.5338  0.4316  0.0471
    1SOL    HW2 2750   3.624   1.201   1.175  0.4703 -0.4143  0.3396
    1SOL    HW3 2751   3.474   1.220   1.185  0.7055  2.0932 -0.5549
    1SOL    MW4 2752   3.544   1.195   1.140  0.5481  0.5392  0.0063
    1SOL     OW 2753   3.769   1.285   1.247  0.2914 -0.3856  0.0323
    1SOL    HW2 2754   3.780   1.290   1.342  1.6301 -0.2013 -0.1247
    1SOL    HW3 2755   3.774   1.376   1.217 -0.7340 -0.3897 -0.1506
    1SOL    MW4 2756   3.771   1.298   1.256  0.3331 -0.3618 -0.0128
    1SOL     OW 2757   3.770   1.562   1.180  0.1125  0.0192  0.4945
    1SOL    HW2 2758   3.846   1.616   1.202  0.4175 -0.6987  1.2088
    1SOL    HW3 2759   3.765   1.566   1.084  2.0208 -1.2483  0.3271
    1SOL    MW4 2760   3.779   1.570   1.170  0.4048 -0.2428  0.5667
    1SOL     OW 2761   3.572   1.711   1.301  0.0049  0.1398  0.2729
    1SOL    HW2 2762   3.592   1.788   1.249  0.4381  0.7955  1.3772
    1SOL    HW3 2763   3.637   1.646   1.274 -1.0647 -0.2268 -1.4597
    1SOL    MW4 2764   3.583   1.713   1.291 -0.0792  0.1780  0.1900
    1SOL     OW 2765   3.608   1.947   1.158  0.6827 -0.0644  0.5668
    1SOL    HW2 2766   3.681   2.001   1.188  1.4301 -0.3844 -0.6820
    1SOL    HW3 2767   3.594   1.973   1.067 -0.3159 -0.4943  0.5851
    1SOL    MW4 2768   3.616   1.958   1.150  0.6495 -0.1633  0.4046
    1SOL     OW 2769   3.812   2.116   1.298  0.1458  0.1524  0.0164
    1SOL    HW2 2770   3.803   2.132   1.392 -0.4495  0.2360 -0.0513
    1SOL    HW3 2771   3.890   2.061   1.291 -0.2087 -0.4485  0.6321
    1SOL    MW4 2772   3.821   2.111   1.310  0.0205  0.0842  0.0887
    1SOL     OW 2773   3.821   2.354   1.173 -0.5504 -0.1596  0.0316
    1SOL    HW2 2774   3.902   2.385   1.215 -0.7701  0.0027  0.3361
    1SOL    HW3 2775   3.808   2.266   1.207 -0.9241  0.1075  0.5836
    1SOL    MW4 2776   3.830   2.347   1.183 -0.6287 -0.1028  0.1446
    1SOL     OW 2777   3.583   2.463   1.296 -0.2189  0.4070  0.2053
    1SOL    HW2 2778   3.568   2.470   1.390 -2.5120 -1.7244  0.0395
    1SOL    HW3 2779   3.672   2.427   1.288  0.1961  1.1183  1.5207
    1SOL    MW4 2780   3.593   2.459   1.307 -0.4666  0.2198  0.3570
    1SOL     OW 2781   3.576   2.704   1.136  0.7482 -0.3819  0.1524
    1SOL    HW2 2782   3.587   2.621   1.182  0.0507 -0.1004  0.8532
    1SOL    HW3 2783   3.511   2.751   1.188 -1.2677 -0.6798 -1.9755
    1SOL    MW4 2784   3.569   2.699   1.149  0.3901 -0.3839 -0.0359
    1SOL     OW 2785   3.794   2.840   1.286  0.3764  0.2247 -0.1787
    1SOL    HW2 2786   3.791   2.827   1.380 -0.0749 -0.4195 -0.2762
    1SOL    HW3 2787   3.717   2.794   1.253  1.1885 -0.5819 -0.9747
    1SOL    MW4 2788   3.784   2.832   1.294  0.4239  0.0336 -0.2966
    1SOL     OW 2789   3.843   3.107   1.221  0.0142  0.0786  0.3173
    1SOL    HW2 2790   3.833   3.012   1.232  1.3586 -0.2057 -0.7937
    1SOL    HW3 2791   3.844   3.120   1.126 -1.9035  1.4146  0.4521
    1SOL    MW4 2792   3.842   3.096   1.210 -0.0613  0.2172  0.1885
    1SOL     OW 2793   3.625   3.256   1.322 -0.0074 -0.0179  0.9710
    1SOL    HW2 2794   3.627   3.343   1.281  0.6888 -0.7347 -0.5408
    1SOL    HW3 2795   3.697   3.209   1.281 -1.0795 -1.6900  0.9715
    1SOL    MW4 2796   3.635   3.261   1.311 -0.0570 -0.3328  0.7716
    1SOL     OW 2797   3.631   3.514   1.195 -0.2348  0.5756  0.3792
    1SOL    HW2 2798   3.704   3.553   1.243 -0.9555  2.1689  0.2346
    1SOL    HW3 2799   3.553   3.548   1.239 -0.9335 -2.1580  1.3777
    1SOL    MW4 2800   3.630   3.524   1.207 -0.4220  0.4251  0.4919
    1SOL     OW 2801   3.861   3.602   1.301  0.7514 -0.0880  0.3149
    1SOL    HW2 2802   3.843   3.603   1.395 -2.0885  1.2063 -0.1856
    1SOL    HW3 2803   3.865   3.694   1.276  0.3090 -0.4074 -1.0181
    1SOL    MW4 2804   3.859   3.614   1.310  0.3185  0.0405  0.0730
    1SOL     OW 2805   3.850   3.863   1.215  0.1241 -0.1476 -0.3936
    1SOL    HW2 2806   3.822   3.861   1.123  0.2581  0.0598 -0.4416
    1SOL    HW3 2807   3.784   3.917   1.259 -0.0588 -0.4286 -0.3269
    1SOL    MW4 2808   3.838   3.870   1.208  0.1173 -0.1574 -0.3911
    1SOL     OW 2809   3.626   4.008   1.297 -0.1536  0.2309  0.3768
    1SOL    HW2 2810   3.626   4.013   1.392  0.5934 -3.2540  0.6316
    1SOL    HW3 2811   3.546   3.960   1.275  0.8512 -1.0282 -0.5991
    1SOL    MW4 2812   3.615   4.002   1.306  0.0775 -0.3953  0.2818
    1SOL     OW 2813   3.606   4.267   1.190 -0.4744 -0.2998 -0.1318
    1SOL    HW2 2814   3.613   4.174   1.214 -0.6739 -0.1029  0.7047
    1SOL    HW3 2815   3.583   4.266   1.097 -0.1098 -1.0869 -0.2167
    1SOL    MW4 2816   3.604   4.254   1.181 -0.4528 -0.3772 -0.0327
    1SOL     OW 2817   3.844   4.410   1.272  0.4812  0.1013 -0.4259
    1SOL    HW2 2818   3.851   4.403   1.367  0.7208  1.1662 -0.3502
    1SOL    HW3 2819   3.763   4.364   1.250  0.6505 -0.5168  0.2515
    1SOL    MW4 2820   3.834   4.403   1.282  0.5352  0.1597 -0.3265
    1SOL     OW 2821   4.273   0.041   1.187 -0.1210  0.1626  0.4795
    1SOL    HW2 2822   4.267  -0.048   1.221  0.1342  0.0421  0.2072
    1SOL    HW3 2823   4.198   0.087   1.226 -0.4019 -0.2388  0.4062
    1SOL    MW4 2824   4.262   0.036   1.197 -0.1245  0.0938  0.4339
    1SOL     OW 2825   4.058   0.182   1.270 -0.5930  0.0481  0.1537
    1SOL    HW2 2826   4.051   0.165   1.364 -1.2319 -0.5641 -0.0050
    1SOL    HW3 2827   3.988   0.131   1.231 -0.4886  0.5049 -0.6386
    1SOL    MW4 2828   4.048   0.173   1.277 -0.6633  0.0276  0.0284
    1SOL     OW 2829   4.012   0.471   1.176  0.0658 -0.1521 -0.0735
    1SOL    HW2 2830   4.039   0.381   1.193  1.4122 -0.0678 -1.6208
    1SOL    HW3 2831   4.018   0.481   1.081 -0.9228  1.3122 -0.0112
    1SOL    MW4 2832   4.016   0.461   1.165  0.1130  0.0522 -0.2693
    1SOL     OW 2833   4.266   0.559   1.275  0.2017 -0.2762  0.2028
    1SOL    HW2 2834   4.267   0.544   1.370 -1.8499  0.3680  0.3419
    1SOL    HW3 2835   4.188   0.514   1.244  1.4840 -1.4684 -1.3752
    1SOL    MW4 2836   4.256   0.551   1.283  0.1006 -0.3485  0.0129
    1SOL     OW 2837   4.226   0.832   1.239  0.3374 -0.0404  0.0011
    1SOL    HW2 2838   4.251   0.740   1.247 -0.8011 -0.3750 -0.1684
    1SOL    HW3 2839   4.235   0.852   1.146  0.6964  0.0543  0.0556
    1SOL    MW4 2840   4.231   0.823   1.228  0.2346 -0.0720 -0.0141
    1SOL     OW 2841   3.982   0.932   1.293 -0.1915  0.5336  0.0222
    1SOL    HW2 2842   3.969   0.924   1.388  2.0709  3.0890  0.6128
    1SOL    HW3 2843   4.063   0.884   1.276 -0.4466  0.3142 -0.5933
    1SOL    MW4 2844   3.991   0.925   1.303  0.0732  0.8419  0.0188
    1SOL     OW 2845   4.006   1.178   1.184  0.2518 -0.1517 -0.1851
    1SOL    HW2 2846   4.000   1.094   1.229  0.2077  0.3209  0.6963
    1SOL    HW3 2847   3.924   1.223   1.205 -0.0888 -0.2103 -1.3269
    1SOL    MW4 2848   3.994   1.173   1.192  0.2012 -0.0970 -0.2195
    1SOL     OW 2849   4.218   1.295   1.307 -0.0030  0.1586 -0.2712
    1SOL    HW2 2850   4.210   1.295   1.402 -0.7588  0.9133 -0.3332
    1SOL    HW3 2851   4.138   1.252   1.276 -0.0012  0.3731 -0.5829
    1SOL    MW4 2852   4.207   1.289   1.315 -0.1025  0.2865 -0.3204
    1SOL     OW 2853   4.207   1.556   1.189 -0.5485 -0.1526  0.4002
    1SOL    HW2 2854   4.209   1.476   1.242 -0.0207 -0.5629 -0.2393
    1SOL    HW3 2855   4.282   1.607   1.220 -0.0441 -0.5376 -0.1657
    1SOL    MW4 2856   4.217   1.552   1.200 -0.4125 -0.2576  0.2412
    1SOL     OW 2857   3.990   1.701   1.278  0.0068 -0.3099 -0.2941
    1SOL    HW2 2858   4.020   1.685   1.367 -0.9632  1.0032  0.2949
    1SOL    HW3 2859   4.057   1.662   1.222  1.2041 -0.1413  1.0062
    1SOL    MW4 2860   4.003   1.694   1.282  0.0367 -0.1146 -0.0448
    1SOL     OW 2861   4.031   1.977   1.211  0.2041  0.0417 -1.0012
    1SOL    HW2 2862   4.021   1.884   1.231  1.7246  0.0734 -0.0407
    1SOL    HW3 2863   4.033   1.981   1.115  1.0897 -1.0295 -1.0366
    1SOL    MW4 2864   4.030   1.965   1.201  0.5217 -0.0954 -0.8790
    1SOL     OW 2865   4.262   2.103   1.302 -0.3742 -0.4186  0.6726
    1SOL    HW2 2866   4.256   2.196   1.282 -0.3370 -0.5668 -0.0453
    1SOL    HW3 2867   4.174   2.069   1.284  0.2896 -1.0091 -1.6230
    1SOL    MW4 2868   4.249   2.111   1.297 -0.2813 -0.5164  0.2751
    1SOL     OW 2869   4.338   2.358   1.222 -0.1321  0.2797  0.3211
    1SOL    HW2 2870   4.254   2.391   1.255 -0.6785 -0.4150 -0.3471
    1SOL    HW3 2871   4.328   2.358   1.127  1.1841  1.6224  0.1726
    1SOL    MW4 2872   4.325   2.362   1.214 -0.0310  0.3650  0.2135
    1SOL     OW 2873   4.073   2.463   1.240 -0.2144  0.6428  0.1029
    1SOL    HW2 2874   4.035   2.460   1.328 -0.1160  1.4823  0.1783
    1SOL    HW3 2875   4.062   2.554   1.212  0.1310  0.4749 -0.5877
    1SOL    MW4 2876   4.067   2.474   1.248 -0.1559  0.7315  0.0218
    1SOL     OW 2877   4.054   2.741   1.206  0.4179 -0.2450  0.0660
    1SOL    HW2 2878   3.970   2.774   1.238  0.5603  0.2492 -0.0706
    1SOL    HW3 2879   4.053   2.760   1.112  0.6426 -0.3270  0.0471
    1SOL    MW4 2880   4.043   2.748   1.198  0.4668 -0.1905  0.0455
    1SOL     OW 2881   4.291   2.830   1.292 -0.2448  0.2127 -0.6205
    1SOL    HW2 2882   4.291   2.917   1.252  1.1769 -0.1358 -1.4339
    1SOL    HW3 2883   4.203   2.796   1.276 -0.3967  0.9851 -1.4764
    1SOL    MW4 2884   4.279   2.837   1.285 -0.0772  0.2687 -0.8408
    1SOL     OW 2885   4.274   3.082   1.188  0.1154  0.1175  0.0443
    1SOL    HW2 2886   4.198   3.116   1.235  0.1725 -0.0177  0.2320
    1SOL    HW3 2887   4.255   3.099   1.096  0.4876  1.3720  0.1888
    1SOL    MW4 2888   4.262   3.089   1.182  0.1721  0.2651  0.0881
    1SOL     OW 2889   4.065   3.176   1.342 -0.4122 -0.2570 -0.1869
    1SOL    HW2 2890   4.052   3.168   1.437 -1.5307  2.4479 -0.0728
    1SOL    HW3 2891   3.982   3.147   1.304 -0.2238 -0.6374 -0.3106
    1SOL    MW4 2892   4.052   3.171   1.350 -0.5355  0.0498 -0.1882
    1SOL     OW 2893   4.061   3.449   1.196 -0.0579  0.0577 -0.2161
    1SOL    HW2 2894   4.063   3.363   1.238 -0.2456 -0.5195 -1.3669
    1SOL    HW3 2895   3.991   3.495   1.242 -1.5786 -1.2448 -1.1593
    1SOL    MW4 2896   4.052   3.443   1.208 -0.2837 -0.1903 -0.4923
    1SOL     OW 2897   4.281   3.615   1.281  0.2345  0.0906 -0.4576
    1SOL    HW2 2898   4.210   3.553   1.262 -0.0897  0.6782 -1.2253
    1SOL    HW3 2899   4.358   3.577   1.239  0.5574 -0.9443  1.0499
    1SOL    MW4 2900   4.281   3.602   1.273  0.2341  0.0315 -0.3599
    1SOL     OW 2901   4.292   3.922   1.207  0.0107 -0.3767 -0.6975
    1SOL    HW2 2902   4.227   3.979   1.248  0.5264 -0.2423 -0.0708
    1SOL    HW3 2903   4.289   3.841   1.259  0.0907 -0.5038 -0.8908
    1SOL    MW4 2904   4.283   3.919   1.219  0.0887 -0.3760 -0.6404
    1SOL     OW 2905   4.060   4.028   1.321 -0.1772  0.3325  0.1614
    1SOL    HW2 2906   4.050   4.110   1.273  0.8961 -0.2563 -1.0776
    1SOL    HW3 2907   4.004   3.966   1.275 -0.0677  0.0643  0.3870
    1SOL    MW4 2908   4.051   4.030   1.309 -0.0210  0.2193  0.0275
    1SOL     OW 2909   4.047   4.265   1.190  0.0388 -0.1049  0.4857
    1SOL    HW2 2910   3.969   4.314   1.217 -0.1918 -0.6208  0.7549
    1SOL    HW3 2911   4.066   4.298   1.102  0.2059  0.8540  0.8777
    1SOL    MW4 2912   4.039   4.276   1.182  0.0300 -0.0467  0.5729
    1SOL     OW 2913   4.274   4.419   1.268  0.4900 -0.3116 -0.3619
    1SOL    HW2 2914   4.193   4.369   1.252  0.0866  0.6840 -1.5141
    1SOL    HW3 2915   4.344   4.362   1.237  0.1964 -0.9655  0.1572
    1SOL    MW4 2916   4.272   4.405   1.262  0.3986 -0.2666 -0.4455
    1SOL     OW 2917   0.228   4.654   1.666  0.5826 -0.2485  0.1660
    1SOL    HW2 2918   0.303   4.708   1.641  0.7688 -0.6891 -0.2207
    1SOL    HW3 2919   0.152   4.710   1.647  0.7862 -0.0143  0.0323
    1SOL    MW4 2920   0.228   4.669   1.660  0.6340 -0.2757  0.0974
    1SOL     OW 2921   0.017   0.159   1.586 -0.4032 -0.1728 -0.0153
    1SOL    HW2 2922  -0.063   0.114   1.612 -0.6550  0.3494  0.1059
    1SOL    HW3 2923   0.017   0.155   1.490 -0.6521 -0.0276 -0.0198
    1SOL    MW4 2924   0.007   0.152   1.577 -0.4697 -0.0847  0.0001
    1SOL     OW 2925   4.490   0.427   1.642 -0.1143 -0.6536 -0.1515
    1SOL    HW2 2926   4.512   0.438   1.735 -0.2636 -0.6821 -0.1116
    1SOL    HW3 2927   4.487   0.332   1.630  0.5976 -0.6478 -0.3543
    1SOL    MW4 2928   4.493   0.416   1.653 -0.0401 -0.6566 -0.1731
    1SOL     OW 2929   0.238   0.533   1.515 -0.2739 -0.1284 -0.2361
    1SOL    HW2 2930   0.150   0.502   1.539 -1.1077  1.7465 -0.7347
    1SOL    HW3 2931   0.239   0.531   1.420  1.7449 -4.1007 -0.1987
    1SOL    MW4 2932   0.226   0.529   1.506 -0.1176 -0.4051 -0.2970
    1SOL     OW 2933   0.228   0.771   1.642 -0.3571  0.4295 -0.2687
    1SOL    HW2 2934   0.305   0.818   1.610  0.3293 -0.3244  0.2507
    1SOL    HW3 2935   0.233   0.685   1.600  0.1890 -0.3342  1.2942
    1SOL    MW4 2936   0.239   0.766   1.632 -0.1945  0.2292  0.0060
    1SOL     OW 2937   0.005   0.922   1.580  0.3012  0.1231  0.5267
    1SOL    HW2 2938   0.015   1.012   1.610 -0.9129 -0.6502  3.3727
    1SOL    HW3 2939   0.082   0.876   1.614 -0.0655 -0.3307  0.7541
    1SOL    MW4 2940   0.017   0.928   1.588  0.0926 -0.0389  0.9322
    1SOL     OW 2941   0.009   1.186   1.652  0.2217 -0.2802 -0.4128
    1SOL    HW2 2942   0.019   1.185   1.747  1.5100  0.3207 -0.5362
    1SOL    HW3 2943   0.087   1.231   1.620 -0.0873 -0.6912 -1.7731
    1SOL    MW4 2944   0.021   1.192   1.660  0.3509 -0.2551 -0.6087
    1SOL     OW 2945   0.234   1.304   1.571  0.1526 -0.3582 -0.0227
    1SOL    HW2 2946   0.229   1.395   1.601 -0.2404 -0.9678  1.7811
    1SOL    HW3 2947   0.227   1.311   1.475 -1.0261  1.4231  0.1543
    1SOL    MW4 2948   0.232   1.317   1.562 -0.0547 -0.2036  0.2387
    1SOL     OW 2949   0.225   1.577   1.638  0.1045 -0.2884  0.7222
    1SOL    HW2 2950   0.218   1.591   1.733 -0.7842 -3.0275  1.0997
    1SOL    HW3 2951   0.144   1.614   1.603  0.0717  0.0088  1.1041
    1SOL    MW4 2952   0.213   1.584   1.646 -0.0171 -0.6106  0.8223
    1SOL     OW 2953   4.472   1.709   1.537 -0.2405 -0.6478 -0.0210
    1SOL    HW2 2954   4.501   1.790   1.579 -0.2305 -1.0570  0.7780
    1SOL    HW3 2955   4.475   1.728   1.443  0.3050  0.0938  0.1404
    1SOL    MW4 2956   4.476   1.722   1.530 -0.1669 -0.6038  0.1059
    1SOL     OW 2957   0.027   1.955   1.637 -0.3884  0.1103 -0.2959
    1SOL    HW2 2958   0.029   1.959   1.732 -0.2048 -0.2925 -0.2838
    1SOL    HW3 2959  -0.058   1.991   1.613 -0.3101  0.4964  0.0052
    1SOL    MW4 2960   0.016   1.961   1.646 -0.3538  0.1082 -0.2545
    1SOL     OW 2961   0.228   2.104   1.546 -0.5453  0.4573  0.4611
    1SOL    HW2 2962   0.161   2.045   1.582 -0.9381 -0.5143 -1.7760
    1SOL    HW3 2963   0.232   2.082   1.453  1.7483  1.6439  0.2448
    1SOL    MW4 2964   0.219   2.093   1.539 -0.2945  0.4859  0.1374
    1SOL     OW 2965   0.256   2.349   1.687 -0.0419  0.4571 -0.0015
    1SOL    HW2 2966   0.276   2.325   1.777  0.6524  0.0902 -0.2511
    1SOL    HW3 2967   0.248   2.266   1.641 -1.6487  0.6025 -0.0245
    1SOL    MW4 2968   0.257   2.335   1.693 -0.1622  0.4280 -0.0374
    1SOL     OW 2969   0.044   2.452   1.559  0.4213 -0.0209 -0.3718
    1SOL    HW2 2970  -0.037   2.415   1.594  0.3294  0.9269  0.4350
    1SOL    HW3 2971   0.113   2.409   1.611  0.3042  1.0741  0.7127
    1SOL    MW4 2972   0.043   2.441   1.571  0.3937  0.2487 -0.1222
    1SOL     OW 2973   0.027   2.710   1.691 -0.3678 -0.3130 -0.2521
    1SOL    HW2 2974  -0.050   2.747   1.646  0.7942  1.4605 -0.8412
    1SOL    HW3 2975   0.034   2.621   1.656 -2.0972 -0.4593 -0.2634
    1SOL    MW4 2976   0.017   2.703   1.680 -0.4427 -0.0982 -0.3313
    1SOL     OW 2977   0.248   2.829   1.550  0.1917 -0.4310  0.3498
    1SOL    HW2 2978   0.330   2.799   1.588  0.0084  0.6450  1.6232
    1SOL    HW3 2979   0.180   2.794   1.607 -0.1865 -0.4869 -0.1267
    1SOL    MW4 2980   0.250   2.821   1.562  0.1176 -0.2966  0.4550
    1SOL     OW 2981   0.231   3.084   1.647  0.1983 -0.3040  0.6414
    1SOL    HW2 2982   0.146   3.128   1.642 -0.0761 -0.7372  1.3683
    1SOL    HW3 2983   0.220   3.004   1.595  0.4927  0.1639 -0.1401
    1SOL    MW4 2984   0.218   3.079   1.639  0.2009 -0.2995  0.6342
    1SOL     OW 2985   0.016   3.238   1.592  0.0651  0.0654  0.1265
    1SOL    HW2 2986   0.004   3.332   1.604  0.8488  0.3380 -1.2128
    1SOL    HW3 2987   0.019   3.225   1.498  3.6625 -0.7813  0.2515
    1SOL    MW4 2988   0.015   3.248   1.581  0.6431 -0.0100 -0.0339
    1SOL     OW 2989   4.490   3.512   1.682  0.0885  0.0565  0.2668
    1SOL    HW2 2990   4.483   3.523   1.777 -0.4600 -0.8779  0.3346
    1SOL    HW3 2991   4.408   3.547   1.648  1.1322  2.2960 -0.0351
    1SOL    MW4 2992   4.478   3.518   1.690  0.1540  0.2286  0.2360
    1SOL     OW 2993   0.239   3.612   1.525  0.3274 -0.1357  0.2551
    1SOL    HW2 2994   0.236   3.698   1.568 -1.3206 -0.0363 -0.0268
    1SOL    HW3 2995   0.175   3.559   1.573  0.1063 -0.6966 -0.6549
    1SOL    MW4 2996   0.230   3.616   1.537  0.0808 -0.1967  0.0979
    1SOL     OW 2997   0.214   3.869   1.637  0.1578  0.1871  0.2289
    1SOL    HW2 2998   0.204   3.871   1.732  1.4678  0.3334  0.3724
    1SOL    HW3 2999   0.299   3.910   1.621  0.1919 -0.3337 -0.9697
    1SOL    MW4 3000   0.224   3.875   1.647  0.3351  0.1376  0.0896
    1SOL     OW 3001   4.477   4.012   1.550  0.2077 -0.5608 -0.0257
    1SOL    HW2 3002   4.469   4.098   1.591 -0.3958 -1.4231  1.7014
    1SOL    HW3 3003   4.559   3.976   1.586  0.3727 -0.7921 -0.6127
    1SOL    MW4 3004   4.487   4.018   1.560  0.1497 -0.7052  0.1246
    1SOL     OW 3005   0.019   4.264   1.651  0.0987 -0.3671 -0.4382
    1SOL    HW2 3006   0.002   4.270   1.745  0.1460 -0.0972 -0.4487
    1SOL    HW3 3007  -0.043   4.325   1.611  0.1289 -0.4283 -0.5787
    1SOL    MW4 3008   0.008   4.273   1.658  0.1089 -0.3395 -0.4581
    1SOL     OW 3009   0.234   4.408   1.564 -0.1747 -0.3778  0.4293
    1SOL    HW2 3010   0.160   4.359   1.601 -1.2127 -0.0378 -1.1439
    1SOL    HW3 3011   0.223   4.496   1.600 -0.2070 -0.4772  0.6649
    1SOL    MW4 3012   0.223   4.413   1.574 -0.3159 -0.3462  0.2527
    1SOL     OW 3013   0.660   0.029   1.694  0.5266 -0.1355  0.5200
    1SOL    HW2 3014   0.736   0.069   1.653  0.5716 -1.2067 -0.4674
    1SOL    HW3 3015   0.585   0.063   1.644  0.5613 -1.2293 -0.2877
    1SOL    MW4 3016   0.660   0.039   1.682  0.5371 -0.4212  0.2831
    1SOL     OW 3017   0.439   0.139   1.581 -0.2686 -0.5670 -0.1343
    1SOL    HW2 3018   0.422   0.230   1.606  0.9330 -0.5911  0.8552
    1SOL    HW3 3019   0.455   0.143   1.487 -1.0005  0.1317 -0.2316
    1SOL    MW4 3020   0.439   0.152   1.572 -0.2066 -0.4780 -0.0168
    1SOL     OW 3021   0.440   0.405   1.659  0.2431  0.1439 -0.0991
    1SOL    HW2 3022   0.521   0.442   1.623  0.6323  0.3873  1.0101
    1SOL    HW3 3023   0.371   0.449   1.610  0.7299  1.6711  0.5274
    1SOL    MW4 3024   0.442   0.416   1.648  0.3587  0.3775  0.1298
    1SOL     OW 3025   0.675   0.536   1.581 -0.2435 -0.1134 -0.3899
    1SOL    HW2 3026   0.679   0.627   1.611  0.8033  0.0554 -1.0206
    1SOL    HW3 3027   0.667   0.542   1.486 -0.5262 -0.6804 -0.4026
    1SOL    MW4 3028   0.675   0.549   1.573 -0.1426 -0.1659 -0.4748
    1SOL     OW 3029   0.644   0.782   1.670  0.0389 -0.2027 -0.1439
    1SOL    HW2 3030   0.663   0.785   1.763  1.6688  0.5892 -0.4757
    1SOL    HW3 3031   0.723   0.818   1.628 -0.4001 -1.1552 -1.8526
    1SOL    MW4 3032   0.657   0.787   1.677  0.1960 -0.2239 -0.4132
    1SOL     OW 3033   0.462   0.926   1.536 -0.3049 -0.5001  0.2523
    1SOL    HW2 3034   0.464   1.005   1.590  0.2769 -1.1462  1.2104
    1SOL    HW3 3035   0.523   0.866   1.580 -0.7005 -1.4585 -0.4872
    1SOL    MW4 3036   0.470   0.929   1.549 -0.2804 -0.7119  0.2812
    1SOL     OW 3037   0.450   1.162   1.680 -0.0969  0.6991  0.4434
    1SOL    HW2 3038   0.531   1.204   1.653 -0.5757  2.5048  1.7589
    1SOL    HW3 3039   0.381   1.222   1.654 -0.8885  0.1151  1.1429
    1SOL    MW4 3040   0.451   1.175   1.673 -0.2645  0.8603  0.7092
    1SOL     OW 3041   0.675   1.271   1.569  0.2992 -0.4774 -0.3295
    1SOL    HW2 3042   0.680   1.365   1.586 -2.6338 -0.2126 -0.6004
    1SOL    HW3 3043   0.678   1.263   1.474 -1.9365 -0.3851 -0.4562
    1SOL    MW4 3044   0.676   1.282   1.559 -0.3827 -0.4303 -0.3821
    1SOL     OW 3045   0.660   1.545   1.614  0.0247  0.2259  0.0546
    1SOL    HW2 3046   0.744   1.583   1.590  0.1660  1.3309  2.1288
    1SOL    HW3 3047   0.595   1.608   1.584  0.0251  0.0988 -0.2117
    1SOL    MW4 3048   0.663   1.558   1.607  0.0434  0.3549  0.2931
    1SOL     OW 3049   0.437   1.712   1.541  0.0856 -0.0631  0.0789
    1SOL    HW2 3050   0.422   1.799   1.578 -0.5291 -0.0228 -0.2487
    1SOL    HW3 3051   0.373   1.656   1.584  1.0059 -0.5278  0.8717
    1SOL    MW4 3052   0.427   1.716   1.551  0.1259 -0.1191  0.1403
    1SOL     OW 3053   0.458   1.985   1.641 -0.1428 -0.2019 -0.5662
    1SOL    HW2 3054   0.457   1.984   1.736 -1.2651 -0.9031 -0.5747
    1SOL    HW3 3055   0.379   2.033   1.616  0.2887  0.2215 -1.1439
    1SOL    MW4 3056   0.447   1.991   1.650 -0.2339 -0.2384 -0.6435
    1SOL     OW 3057   0.672   2.098   1.529  0.0308 -0.1597  0.3245
    1SOL    HW2 3058   0.745   2.041   1.554  0.6290  0.5623  0.2475
    1SOL    HW3 3059   0.597   2.062   1.575  0.2820 -1.3705 -0.1770
    1SOL    MW4 3060   0.672   2.085   1.538  0.1429 -0.2244  0.2482
    1SOL     OW 3061   0.669   2.350   1.659 -0.1383  0.1702  0.3580
    1SOL    HW2 3062   0.592   2.398   1.632 -0.3776 -0.2636  0.2692
    1SOL    HW3 3063   0.657   2.261   1.625  0.0236 -0.1134  1.0084
    1SOL    MW4 3064   0.657   2.344   1.651 -0.1485  0.0756  0.4321
    1SOL     OW 3065   0.467   2.492   1.535  0.6613 -0.0845  0.1345
    1SOL    HW2 3066   0.506   2.570   1.576  1.5700 -0.6734  0.4088
    1SOL    HW3 3067   0.398   2.465   1.596  0.0321  0.7778 -0.1935
    1SOL    MW4 3068   0.463   2.499   1.549  0.6981 -0.0484  0.1274
    1SOL     OW 3069   0.487   2.748   1.661  0.3576  0.0692 -0.6560
    1SOL    HW2 3070   0.480   2.736   1.755  0.2757  0.4741 -0.6098
    1SOL    HW3 3071   0.571   2.792   1.648  1.6005 -2.2940 -0.9857
    1SOL    MW4 3072   0.497   2.752   1.672  0.5108 -0.1893 -0.6934
    1SOL     OW 3073   0.712   2.880   1.608  0.0886 -0.0868  0.3812
    1SOL    HW2 3074   0.706   2.974   1.626 -0.8407 -0.3694  1.6523
    1SOL    HW3 3075   0.699   2.873   1.514  1.1455  1.1440  0.1252
    1SOL    MW4 3076   0.709   2.892   1.598  0.1054  0.0384  0.5151
    1SOL     OW 3077   0.668   3.154   1.647  0.1559  0.0353 -0.0996
    1SOL    HW2 3078   0.735   3.200   1.598  0.3921  0.4381  0.5867
    1SOL    HW3 3079   0.588   3.204   1.632  0.1922  0.0611 -0.2040
    1SOL    MW4 3080   0.666   3.166   1.639  0.1917  0.0920 -0.0229
    1SOL     OW 3081   0.426   3.270   1.590  0.0234 -0.2223  0.5453
    1SOL    HW2 3082   0.356   3.209   1.610  0.3094 -0.7978 -0.2099
    1SOL    HW3 3083   0.428   3.275   1.494  0.4778  0.4091  0.5811
    1SOL    MW4 3084   0.417   3.263   1.580  0.1211 -0.2148  0.4505
    1SOL     OW 3085   0.423   3.540   1.704 -0.1988 -0.2072 -0.1704
    1SOL    HW2 3086   0.421   3.446   1.688  1.0070 -0.2646 -0.0310
    1SOL    HW3 3087   0.349   3.575   1.653 -0.4068 -1.1733 -0.5370
    1SOL    MW4 3088   0.413   3.532   1.695 -0.0672 -0.3421 -0.2003
    1SOL     OW 3089   0.682   3.647   1.604  0.7679  0.0614  0.3217
    1SOL    HW2 3090   0.758   3.598   1.636  0.4465  0.4703  1.7384
    1SOL    HW3 3091   0.607   3.601   1.641  0.3804  0.5091  0.0894
    1SOL    MW4 3092   0.682   3.634   1.613  0.6744  0.1743  0.4780
    1SOL     OW 3093   0.685   3.914   1.688 -0.5231 -0.3122 -0.0495
    1SOL    HW2 3094   0.763   3.949   1.645 -0.3018 -0.8987 -0.1346
    1SOL    HW3 3095   0.690   3.819   1.674 -0.6637 -0.4673  0.9092
    1SOL    MW4 3096   0.696   3.906   1.681 -0.5124 -0.4101  0.0657
    1SOL     OW 3097   0.444   4.016   1.589  0.0706  0.2165 -0.0135
    1SOL    HW2 3098   0.525   3.970   1.612  0.4615  0.8123 -0.1876
    1SOL    HW3 3099   0.453   4.033   1.495 -0.5629 -0.3142 -0.1749
    1SOL    MW4 3100   0.456   4.012   1.579  0.0386  0.2251 -0.0577
    1SOL     OW 3101   0.468   4.294   1.637  0.0923 -0.1528  0.4214
    1SOL    HW2 3102   0.469   4.200   1.617 -0.4853  0.0450 -0.5518
    1SOL    HW3 3103   0.379   4.322   1.615 -0.0453  0.4319  1.6425
    1SOL    MW4 3104   0.456   4.285   1.632 -0.0021 -0.0496  0.4542
    1SOL     OW 3105   0.676   4.436   1.540  0.2433  0.0018 -0.1695
    1SOL    HW2 3106   0.599   4.403   1.586  0.2079  1.1613  0.6236
    1SOL    HW3 3107   0.692   4.522   1.578  1.4510  0.1154 -0.8941
    1SOL    MW4 3108   0.668   4.443   1.551  0.3980  0.1702 -0.1605
    1SOL     OW 3109   1.088   4.655   1.706 -0.0252 -0.0458  0.1572
    1SOL    HW2 3110   1.095   4.657   1.802 -0.3385 -1.9771  0.2417
    1SOL    HW3 3111   1.169   4.697   1.676  0.0822  0.5720  1.2664
    1SOL    MW4 3112   1.100   4.661   1.715 -0.0523 -0.2189  0.3147
    1SOL     OW 3113   0.891   0.141   1.575  0.1043  0.1839 -0.0612
    1SOL    HW2 3114   0.896   0.229   1.614  1.2858  0.3638 -0.5862
    1SOL    HW3 3115   0.958   0.091   1.622 -1.1698 -0.6952  0.8562
    1SOL    MW4 3116   0.901   0.146   1.587  0.0921  0.0916 -0.0094
    1SOL     OW 3117   0.890   0.386   1.693  0.0600 -0.0671  0.2741
    1SOL    HW2 3118   0.887   0.407   1.786 -1.2267 -2.0240  0.6982
    1SOL    HW3 3119   0.813   0.430   1.657 -0.6910 -1.1462  0.5435
    1SOL    MW4 3120   0.879   0.395   1.701 -0.2089 -0.4676  0.3655
    1SOL     OW 3121   1.113   0.503   1.595 -0.0754 -0.1078  0.4326
    1SOL    HW2 3122   1.104   0.597   1.608  0.4331  0.0525 -0.3364
    1SOL    HW3 3123   1.040   0.465   1.643 -1.0016  0.7522 -0.2792
    1SOL    MW4 3124   1.102   0.510   1.603 -0.1304  0.0268  0.2372
    1SOL     OW 3125   1.101   0.781   1.636 -0.2484 -0.2124 -0.9554
    1SOL    HW2 3126   1.092   0.781   1.731  0.1518 -0.3043 -0.9177
    1SOL    HW3 3127   1.190   0.811   1.620 -0.4689  0.2457 -1.3199
    1SOL    MW4 3128   1.111   0.785   1.646 -0.2247 -0.1641 -0.9985
    1SOL     OW 3129   0.866   0.882   1.557 -0.2328  0.7118 -0.0661
    1SOL    HW2 3130   0.949   0.840   1.580 -0.9859 -0.5409  0.4015
    1SOL    HW3 3131   0.875   0.902   1.464  0.2425 -0.2555 -0.2337
    1SOL    MW4 3132   0.878   0.879   1.548 -0.2695  0.4190 -0.0267
    1SOL     OW 3133   0.896   1.143   1.687  0.0461  0.5760  0.1233
    1SOL    HW2 3134   0.897   1.056   1.647  0.3838  1.1158 -1.0860
    1SOL    HW3 3135   0.827   1.190   1.639  0.1264  1.0876  0.5046
    1SOL    MW4 3136   0.887   1.138   1.675  0.1013  0.7147  0.0141
    1SOL     OW 3137   1.113   1.244   1.531  0.2867  0.2232  0.2479
    1SOL    HW2 3138   1.189   1.196   1.563  0.1489 -0.1283  0.0567
    1SOL    HW3 3139   1.040   1.212   1.585 -0.1593 -1.2541 -1.2049
    1SOL    MW4 3140   1.113   1.233   1.542  0.2097 -0.0180  0.0311
    1SOL     OW 3141   1.089   1.519   1.643 -0.4773  0.3503  0.4634
    1SOL    HW2 3142   1.165   1.573   1.624 -0.3664 -0.0058 -0.0963
    1SOL    HW3 3143   1.110   1.433   1.607 -1.6764  0.5951 -0.8505
    1SOL    MW4 3144   1.101   1.515   1.636 -0.6210  0.3356  0.2162
    1SOL     OW 3145   0.884   1.680   1.560 -0.5340 -0.0594  0.2054
    1SOL    HW2 3146   0.960   1.633   1.594 -0.3965 -0.1025 -0.1642
    1SOL    HW3 3147   0.899   1.687   1.466 -1.0764 -0.2274  0.1029
    1SOL    MW4 3148   0.896   1.675   1.552 -0.5875 -0.0874  0.1429
    1SOL     OW 3149   0.906   1.953   1.593 -0.1542  0.9136  0.0555
    1SOL    HW2 3150   0.994   1.987   1.580 -0.4910  1.0351 -2.1543
    1SOL    HW3 3151   0.917   1.858   1.597  0.0706  0.9291 -0.1938
    1SOL    MW4 3152   0.919   1.945   1.592 -0.1690  0.9317 -0.2691
    1SOL     OW 3153   1.136   2.081   1.567  0.3393  0.2800 -0.0122
    1SOL    HW2 3154   1.219   2.050   1.604 -0.4353 -0.1821  1.3522
    1SOL    HW3 3155   1.130   2.173   1.595  0.0163  0.0887  0.5445
    1SOL    MW4 3156   1.146   2.089   1.575  0.1944  0.1936  0.2413
    1SOL     OW 3157   1.110   2.346   1.690  0.0740 -0.7048  0.2824
    1SOL    HW2 3158   1.176   2.403   1.652 -0.6209  0.6963  1.1334
    1SOL    HW3 3159   1.032   2.360   1.635 -0.8476  1.1127  2.0037
    1SOL    MW4 3160   1.108   2.355   1.677 -0.1392 -0.2799  0.6218
    1SOL     OW 3161   0.908   2.452   1.548 -0.6282 -0.3986  0.4088
    1SOL    HW2 3162   0.912   2.535   1.594 -0.5687  0.3562 -0.9459
    1SOL    HW3 3163   0.825   2.413   1.577 -0.8065  0.2659  0.8030
    1SOL    MW4 3164   0.898   2.458   1.558 -0.6438 -0.2115  0.2820
    1SOL     OW 3165   0.881   2.673   1.702 -0.3816 -0.4385  0.2746
    1SOL    HW2 3166   0.901   2.668   1.796 -1.8728 -3.0401  0.5221
    1SOL    HW3 3167   0.821   2.746   1.694 -0.6748 -0.5375  1.4555
    1SOL    MW4 3168   0.876   2.682   1.713 -0.6170 -0.7944  0.4631
    1SOL     OW 3169   1.077   2.834   1.589  0.1706 -0.2052  0.1727
    1SOL    HW2 3170   1.061   2.926   1.611  0.5560  0.4542 -2.1598
    1SOL    HW3 3171   1.008   2.786   1.635 -1.4521  1.4827 -0.4260
    1SOL    MW4 3172   1.066   2.840   1.598  0.0073  0.1044 -0.2140
    1SOL     OW 3173   1.070   3.111   1.633  0.1504 -0.1679  0.5521
    1SOL    HW2 3174   1.082   3.125   1.727  1.3236  1.5947  0.1707
    1SOL    HW3 3175   1.152   3.141   1.594 -0.0498 -1.5456 -0.9964
    1SOL    MW4 3176   1.082   3.117   1.640  0.2788 -0.1173  0.2973
    1SOL     OW 3177   0.865   3.263   1.506  0.1087 -0.2389 -0.2760
    1SOL    HW2 3178   0.939   3.212   1.538  0.4450  1.3257  1.4564
    1SOL    HW3 3179   0.873   3.258   1.410  1.9049 -0.8444 -0.1114
    1SOL    MW4 3180   0.876   3.256   1.497  0.3901 -0.1123 -0.0256
    1SOL     OW 3181   0.913   3.500   1.644  0.2174 -0.1930 -0.7193
    1SOL    HW2 3182   0.991   3.547   1.613 -0.2629  0.7928 -0.4419
    1SOL    HW3 3183   0.918   3.415   1.599  1.6208 -0.2695 -0.4634
    1SOL    MW4 3184   0.924   3.495   1.634  0.3392 -0.0730 -0.6489
    1SOL     OW 3185   1.122   3.665   1.560  0.2731 -0.2966 -0.0706
    1SOL    HW2 3186   1.195   3.613   1.594  0.9641  0.9110  0.2902
    1SOL    HW3 3187   1.128   3.654   1.465  1.2896  0.2610 -0.0847
    1SOL    MW4 3188   1.133   3.656   1.552  0.4984 -0.0637 -0.0248
    1SOL     OW 3189   1.111   3.904   1.675  0.0675 -0.0117 -0.1108
    1SOL    HW2 3190   1.197   3.937   1.649  0.1156 -0.9794 -1.2495
    1SOL    HW3 3191   1.107   3.816   1.636 -0.7283 -0.6578  1.4069
    1SOL    MW4 3192   1.122   3.897   1.666 -0.0310 -0.2248 -0.0608
    1SOL     OW 3193   0.899   4.009   1.557 -0.2004  0.4322  0.1567
    1SOL    HW2 3194   0.904   4.103   1.574  0.0028  0.4926 -0.2299
    1SOL    HW3 3195   0.977   3.973   1.598 -0.5723  0.3541  0.8050
    1SOL    MW4 3196   0.910   4.017   1.565 -0.2226  0.4301  0.1912
    1SOL     OW 3197   0.902   4.280   1.639 -0.1882  0.0049  0.5187
    1SOL    HW2 3198   0.879   4.279   1.732 -1.8271 -1.3030  0.1343
    1SOL    HW3 3199   0.830   4.328   1.597 -0.0370 -0.3906 -0.2054
    1SOL    MW4 3200   0.889   4.286   1.645 -0.3844 -0.2198  0.3724
    1SOL     OW 3201   1.114   4.426   1.549  0.1013  0.3357  0.1950
    1SOL    HW2 3202   1.040   4.379   1.588  1.2892  0.1155  2.2285
    1SOL    HW3 3203   1.106   4.515   1.583  0.3816  0.4856 -0.1358
    1SOL    MW4 3204   1.103   4.432   1.559  0.2949  0.3257  0.4196
    1SOL     OW 3205   1.555   0.005   1.659 -0.2093 -0.5201 -0.2321
    1SOL    HW2 3206   1.563  -0.006   1.754  1.1261 -0.7560 -0.3644
    1SOL    HW3 3207   1.465   0.036   1.646 -0.2736 -0.0959  1.1418
    1SOL    MW4 3208   1.544   0.007   1.670 -0.0415 -0.4954 -0.0683
    1SOL     OW 3209   1.311   0.095   1.607 -0.4847 -0.0836 -0.3446
    1SOL    HW2 3210   1.328   0.184   1.635  2.2408 -0.5564 -0.3988
    1SOL    HW3 3211   1.328   0.096   1.512 -0.5173 -0.6431 -0.3594
    1SOL    MW4 3212   1.316   0.107   1.598 -0.1293 -0.2198 -0.3537
    1SOL     OW 3213   1.323   0.361   1.697  0.0502 -0.7848 -0.8265
    1SOL    HW2 3214   1.388   0.419   1.657  1.0037 -0.1141  1.5776
    1SOL    HW3 3215   1.239   0.399   1.672  0.6417  2.2619  1.3727
    1SOL    MW4 3216   1.321   0.374   1.689  0.2543 -0.2943 -0.2192
    1SOL     OW 3217   1.542   0.472   1.547  0.1969  0.4591 -0.3081
    1SOL    HW2 3218   1.625   0.444   1.585 -0.0094 -1.1247 -0.9771
    1SOL    HW3 3219   1.556   0.468   1.453 -1.4636 -2.5317 -0.4895
    1SOL    MW4 3220   1.555   0.468   1.540 -0.0495 -0.1445 -0.4202
    1SOL     OW 3221   1.603   0.720   1.647  0.0532 -0.2799 -0.2861
    1SOL    HW2 3222   1.574   0.734   1.738  0.9203 -0.7212  0.0633
    1SOL    HW3 3223   1.576   0.631   1.627  0.4764 -0.4233 -0.2224
    1SOL    MW4 3224   1.595   0.710   1.657  0.2234 -0.3570 -0.2316
    1SOL     OW 3225   1.360   0.864   1.577  0.0788  0.0989  0.4297
    1SOL    HW2 3226   1.436   0.808   1.595 -0.4376 -0.4294  0.9628
    1SOL    HW3 3227   1.362   0.876   1.482  0.9359  0.2386  0.4549
    1SOL    MW4 3228   1.371   0.858   1.567  0.1237  0.0476  0.5035
    1SOL     OW 3229   1.326   1.142   1.655  0.7839  0.0020  0.1983
    1SOL    HW2 3230   1.323   1.139   1.750  2.0584 -1.2674  0.2096
    1SOL    HW3 3231   1.326   1.051   1.627 -1.5638  0.3668 -1.1064
    1SOL    MW4 3232   1.326   1.130   1.664  0.6423 -0.1174  0.0275
    1SOL     OW 3233   1.530   1.294   1.544  0.1010 -0.0553  0.4130
    1SOL    HW2 3234   1.458   1.243   1.581 -0.6284  0.5158 -0.1853
    1SOL    HW3 3235   1.540   1.261   1.455 -0.3337  0.8001  0.0452
    1SOL    MW4 3236   1.522   1.283   1.537 -0.0526  0.1330  0.2855
    1SOL     OW 3237   1.555   1.549   1.644 -0.1288  0.3855  0.1035
    1SOL    HW2 3238   1.539   1.547   1.739  0.2300 -1.6223  0.1493
    1SOL    HW3 3239   1.552   1.457   1.618  2.1555  0.7056 -1.4394
    1SOL    MW4 3240   1.553   1.536   1.653  0.2199  0.1628 -0.0939
    1SOL     OW 3241   1.313   1.665   1.565  0.0079  0.6121  0.0625
    1SOL    HW2 3242   1.383   1.622   1.614  0.4471  0.2892 -0.8238
    1SOL    HW3 3243   1.343   1.662   1.474 -0.8977  0.9858 -0.2525
    1SOL    MW4 3244   1.326   1.659   1.559 -0.0536  0.6187 -0.0960
    1SOL     OW 3245   1.347   1.930   1.655  0.6809  0.6559 -0.1594
    1SOL    HW2 3246   1.364   1.933   1.749  1.4658 -0.8622 -0.2516
    1SOL    HW3 3247   1.349   1.837   1.633 -3.1182  0.6821 -1.0124
    1SOL    MW4 3248   1.349   1.918   1.665  0.2831  0.4591 -0.2842
    1SOL     OW 3249   1.586   2.064   1.574  0.4344  0.3019  0.0499
    1SOL    HW2 3250   1.499   2.032   1.598  0.4897  0.3086  0.2556
    1SOL    HW3 3251   1.587   2.060   1.478  0.4860 -0.4066  0.0841
    1SOL    MW4 3252   1.574   2.060   1.564  0.4486  0.2093  0.0815
    1SOL     OW 3253   1.571   2.334   1.689 -0.4883  0.4773 -0.5625
    1SOL    HW2 3254   1.644   2.385   1.654  0.0488  0.5077  0.5677
    1SOL    HW3 3255   1.584   2.246   1.654  0.4726  0.3233  0.1423
    1SOL    MW4 3256   1.583   2.329   1.680 -0.2906  0.4609 -0.3203
    1SOL     OW 3257   1.355   2.451   1.596  0.2266 -0.3282  0.2115
    1SOL    HW2 3258   1.351   2.542   1.626 -0.4050 -0.3694  0.2734
    1SOL    HW3 3259   1.430   2.414   1.641 -0.0404 -0.0780  0.8735
    1SOL    MW4 3260   1.364   2.458   1.606  0.1081 -0.3004  0.3070
    1SOL     OW 3261   1.333   2.732   1.651 -0.1277  0.2371  0.1768
    1SOL    HW2 3262   1.386   2.810   1.639  0.2811 -0.0207  0.3013
    1SOL    HW3 3263   1.244   2.759   1.627  0.0004  0.7557  0.2970
    1SOL    MW4 3264   1.328   2.746   1.646 -0.0569  0.2716  0.2091
    1SOL     OW 3265   1.552   2.902   1.593  0.4809 -0.2763 -0.1716
    1SOL    HW2 3266   1.614   2.844   1.638  1.4129  1.6663  1.1082
    1SOL    HW3 3267   1.576   2.896   1.501  0.6189 -1.8448 -0.0526
    1SOL    MW4 3268   1.563   2.893   1.587  0.6222 -0.2270  0.0130
    1SOL     OW 3269   1.563   3.149   1.663  0.0839 -0.1852 -0.3325
    1SOL    HW2 3270   1.642   3.188   1.625 -0.7908  0.2313 -1.7566
    1SOL    HW3 3271   1.563   3.059   1.630  0.0044 -0.2176 -0.2455
    1SOL    MW4 3272   1.573   3.142   1.654 -0.0420 -0.1347 -0.5090
    1SOL     OW 3273   1.305   3.260   1.569  0.4471  0.0123  0.3004
    1SOL    HW2 3274   1.310   3.351   1.596  1.2706 -0.2398  1.0114
    1SOL    HW3 3275   1.389   3.222   1.595  0.2365 -0.8713 -0.2699
    1SOL    MW4 3276   1.316   3.267   1.576  0.5279 -0.1376  0.3189
    1SOL     OW 3277   1.329   3.520   1.682 -0.0624 -0.0623  0.1396
    1SOL    HW2 3278   1.347   3.503   1.774  0.5073 -0.2735 -0.0070
    1SOL    HW3 3279   1.412   3.554   1.647 -1.1624  3.0539  0.4117
    1SOL    MW4 3280   1.342   3.522   1.690 -0.1323  0.3209  0.1562
    1SOL     OW 3281   1.594   3.599   1.569 -0.2120  0.1298  0.0552
    1SOL    HW2 3282   1.598   3.684   1.614 -0.6354  0.3632 -0.3493
    1SOL    HW3 3283   1.576   3.622   1.478  0.8584 -0.3277 -0.2765
    1SOL    MW4 3284   1.592   3.614   1.563 -0.1266  0.1001 -0.0418
    1SOL     OW 3285   1.587   3.851   1.679 -0.1575  0.0642 -0.0626
    1SOL    HW2 3286   1.626   3.857   1.766 -0.3957  0.0390  0.0466
    1SOL    HW3 3287   1.512   3.909   1.682 -0.3926 -0.2333 -0.1289
    1SOL    MW4 3288   1.582   3.859   1.691 -0.2199  0.0217 -0.0570
    1SOL     OW 3289   1.370   4.029   1.601  0.1221  0.0785  0.4730
    1SOL    HW2 3290   1.374   4.117   1.637  1.0038  0.1999  0.0888
    1SOL    HW3 3291   1.360   4.042   1.506 -1.3863 -0.2361  0.5742
    1SOL    MW4 3292   1.369   4.042   1.593  0.0395  0.0529  0.4356
    1SOL     OW 3293   1.346   4.300   1.672  0.3381 -0.0798 -0.0540
    1SOL    HW2 3294   1.419   4.352   1.638  0.5667 -0.9640 -0.9405
    1SOL    HW3 3295   1.268   4.340   1.635  0.2378  1.6879  1.9415
    1SOL    MW4 3296   1.345   4.312   1.663  0.3550  0.0372  0.0924
    1SOL     OW 3297   1.561   4.428   1.548  0.3751 -0.0700  0.0482
    1SOL    HW2 3298   1.618   4.379   1.607  1.4195 -0.3404 -1.1658
    1SOL    HW3 3299   1.571   4.519   1.575 -0.6848 -0.3960  1.5690
    1SOL    MW4 3300   1.570   4.434   1.559  0.3730 -0.1488  0.0886
    1SOL     OW 3301   2.003   4.664   1.679 -0.6075  0.1379  0.0288
    1SOL    HW2 3302   2.009   4.670   1.775 -0.2466 -0.0859  0.0200
    1SOL    HW3 3303   1.922   4.711   1.658  0.0930  1.5055  0.3219
    1SOL    MW4 3304   1.993   4.671   1.689 -0.4675  0.2885  0.0662
    1SOL     OW 3305   1.781   0.118   1.540  0.3406  0.4676 -0.0326
    1SOL    HW2 3306   1.700   0.073   1.567 -0.3786  1.8892  0.2064
    1SOL    HW3 3307   1.774   0.125   1.445  0.1806  0.6134 -0.0091
    1SOL    MW4 3308   1.769   0.113   1.531  0.2247  0.6744  0.0020
    1SOL     OW 3309   1.753   0.368   1.664 -0.3286  0.2534  0.1970
    1SOL    HW2 3310   1.824   0.413   1.618  0.3958  0.3153  1.3556
    1SOL    HW3 3311   1.756   0.278   1.632  0.2317  0.2738  0.1901
    1SOL    MW4 3312   1.762   0.362   1.654 -0.1591  0.2643  0.3489
    1SOL     OW 3313   1.972   0.502   1.536 -0.1867 -0.0302  0.2766
    1SOL    HW2 3314   2.060   0.471   1.559 -0.4608  0.3292  1.8517
    1SOL    HW3 3315   1.972   0.594   1.561 -1.4201 -0.3416  1.4684
    1SOL    MW4 3316   1.984   0.510   1.542 -0.3855 -0.0239  0.6417
    1SOL     OW 3317   2.023   0.770   1.649 -0.1549  0.4191 -0.7096
    1SOL    HW2 3318   2.100   0.824   1.627  0.2948  0.5666  1.1540
    1SOL    HW3 3319   1.949   0.817   1.610  0.2948  2.1557  0.4596
    1SOL    MW4 3320   2.024   0.783   1.641 -0.0362  0.6676 -0.3095
    1SOL     OW 3321   1.791   0.868   1.534  0.1512 -0.1259  0.5286
    1SOL    HW2 3322   1.776   0.960   1.556 -2.1762 -0.3584  0.0813
    1SOL    HW3 3323   1.722   0.821   1.581  0.0209 -1.4230 -0.9182
    1SOL    MW4 3324   1.780   0.874   1.543 -0.1731 -0.3277  0.2785
    1SOL     OW 3325   1.720   1.127   1.628  0.3708 -0.3254 -0.4889
    1SOL    HW2 3326   1.802   1.165   1.595  0.1389  1.1848  0.6137
    1SOL    HW3 3327   1.656   1.198   1.620 -0.5045 -1.0561 -0.0621
    1SOL    MW4 3328   1.722   1.141   1.622  0.2247 -0.2227 -0.2871
    1SOL     OW 3329   1.980   1.249   1.560  0.0820  0.5502 -0.4124
    1SOL    HW2 3330   1.971   1.337   1.596  0.7007  0.0527  0.9824
    1SOL    HW3 3331   2.004   1.263   1.468 -0.4535  1.8304 -0.3644
    1SOL    MW4 3332   1.982   1.262   1.552  0.0930  0.6534 -0.2221
    1SOL     OW 3333   1.994   1.508   1.660  0.0024  0.1833  0.0121
    1SOL    HW2 3334   2.070   1.559   1.632  1.0650  0.3207  3.0193
    1SOL    HW3 3335   1.919   1.561   1.632  0.9923  0.7367 -1.7013
    1SOL    MW4 3336   1.994   1.522   1.652  0.2732  0.2744  0.1829
    1SOL     OW 3337   1.780   1.634   1.552  0.4063 -0.3147 -0.3639
    1SOL    HW2 3338   1.690   1.612   1.573  0.4530 -0.5241 -0.3778
    1SOL    HW3 3339   1.780   1.651   1.458  0.5823 -1.3469 -0.5565
    1SOL    MW4 3340   1.768   1.633   1.542  0.4358 -0.4786 -0.3911
    1SOL     OW 3341   1.784   1.887   1.668  0.4170 -0.3479  0.0366
    1SOL    HW2 3342   1.766   1.800   1.631 -0.0303  0.1087 -0.8130
    1SOL    HW3 3343   1.711   1.941   1.639  0.4786  0.2152  0.9263
    1SOL    MW4 3344   1.772   1.882   1.659  0.3661 -0.2133  0.0420
    1SOL     OW 3345   1.984   2.027   1.548 -0.0902 -0.7817  0.1974
    1SOL    HW2 3346   1.979   2.112   1.591 -0.5696  0.5628 -2.3752
    1SOL    HW3 3347   1.918   1.974   1.592 -1.7178  1.0543  0.0298
    1SOL    MW4 3348   1.975   2.031   1.559 -0.3682 -0.3622 -0.1643
    1SOL     OW 3349   2.004   2.265   1.674  0.2460 -0.1446  0.1801
    1SOL    HW2 3350   2.004   2.258   1.769  0.3508 -0.9014  0.1276
    1SOL    HW3 3351   1.930   2.322   1.654  0.1910 -0.0281  0.7122
    1SOL    MW4 3352   1.995   2.271   1.684  0.2526 -0.2294  0.2433
    1SOL     OW 3353   1.798   2.455   1.601 -0.2054  0.7807  0.5180
    1SOL    HW2 3354   1.790   2.549   1.619 -2.0216  0.5270  1.1889
    1SOL    HW3 3355   1.795   2.448   1.506 -0.4058  1.3743  0.4797
    1SOL    MW4 3356   1.797   2.467   1.591 -0.4716  0.8254  0.6014
    1SOL     OW 3357   1.779   2.732   1.668 -0.2083 -0.3978 -0.1343
    1SOL    HW2 3358   1.858   2.770   1.630 -0.6122  1.6939  0.9988
    1SOL    HW3 3359   1.799   2.723   1.761 -0.8776 -0.9820 -0.0405
    1SOL    MW4 3360   1.792   2.736   1.676 -0.3499 -0.1988  0.0275
    1SOL     OW 3361   2.012   2.843   1.558  0.4284  0.0080 -0.0230
    1SOL    HW2 3362   2.008   2.938   1.571  0.0538 -0.1232  0.8440
    1SOL    HW3 3363   2.019   2.832   1.463  2.0429  0.9473 -0.0359
    1SOL    MW4 3364   2.013   2.854   1.547  0.5918  0.1147  0.0895
    1SOL     OW 3365   1.982   3.111   1.658 -0.0887 -0.1735 -0.0237
    1SOL    HW2 3366   1.983   3.110   1.754 -0.0668 -1.1049 -0.0345
    1SOL    HW3 3367   2.062   3.157   1.634 -0.2865  0.4135  0.4021
    1SOL    MW4 3368   1.992   3.117   1.667 -0.1118 -0.2191  0.0311
    1SOL     OW 3369   1.789   3.264   1.546 -0.4296 -0.2306  0.2483
    1SOL    HW2 3370   1.817   3.348   1.582  1.1952  0.3994 -2.3647
    1SOL    HW3 3371   1.853   3.201   1.577 -0.1032 -0.0134  0.0191
    1SOL    MW4 3372   1.801   3.267   1.555 -0.1723 -0.1190 -0.1267
    1SOL     OW 3373   1.839   3.521   1.658  0.2448  0.0453  0.7792
    1SOL    HW2 3374   1.825   3.514   1.752 -0.5200  0.2596  0.6787
    1SOL    HW3 3375   1.760   3.562   1.624  0.4062 -0.2698  0.0041
    1SOL    MW4 3376   1.827   3.525   1.666  0.1651  0.0319  0.6636
    1SOL     OW 3377   2.068   3.632   1.571 -0.6264  0.3352  0.0204
    1SOL    HW2 3378   2.132   3.565   1.594 -0.9710 -0.4350 -1.2295
    1SOL    HW3 3379   1.986   3.601   1.610 -0.1456  1.6264  2.1489
    1SOL    MW4 3380   2.065   3.619   1.579 -0.6087  0.4039  0.1364
    1SOL     OW 3381   2.035   3.886   1.641  0.3872  0.3181 -0.3475
    1SOL    HW2 3382   2.108   3.940   1.611 -0.1274  0.7694 -0.7991
    1SOL    HW3 3383   2.061   3.796   1.620  1.6271  0.2825  1.1696
    1SOL    MW4 3384   2.048   3.881   1.634  0.4828  0.3729 -0.2069
    1SOL     OW 3385   1.789   4.009   1.576  0.0079  0.4642 -0.0226
    1SOL    HW2 3386   1.871   3.971   1.607  0.2059  1.3968  0.6295
    1SOL    HW3 3387   1.721   3.947   1.604  0.2866  0.7744  1.3684
    1SOL    MW4 3388   1.791   3.996   1.584  0.0707  0.6282  0.2470
    1SOL     OW 3389   1.769   4.274   1.679  0.5884  0.4577 -0.3538
    1SOL    HW2 3390   1.847   4.296   1.628  1.1168 -0.8899 -0.1584
    1SOL    HW3 3391   1.746   4.186   1.650 -0.3610  0.5185  0.2088
    1SOL    MW4 3392   1.776   4.265   1.669  0.5329  0.2875 -0.2539
    1SOL     OW 3393   2.008   4.385   1.573 -0.5075  0.0450  0.2653
    1SOL    HW2 3394   2.096   4.353   1.592 -0.7878 -0.0246  1.4451
    1SOL    HW3 3395   2.006   4.473   1.610 -1.1757 -0.2274  0.8826
    1SOL    MW4 3396   2.019   4.392   1.580 -0.6328  0.0000  0.5023
    1SOL     OW 3397   2.490   4.666   1.644  0.1307 -0.0348  0.2377
    1SOL    HW2 3398   2.482   4.638   1.735 -0.7709 -2.2839 -0.5164
    1SOL    HW3 3399   2.406   4.707   1.623  0.6829  1.3737  0.6798
    1SOL    MW4 3400   2.478   4.668   1.653  0.0844 -0.1454  0.1966
    1SOL     OW 3401   2.236   0.112   1.578 -0.2944 -0.3446 -0.2306
    1SOL    HW2 3402   2.157   0.078   1.619 -0.2859 -0.0940 -0.0031
    1SOL    HW3 3403   2.214   0.119   1.485  0.0909 -2.0430 -0.4549
    1SOL    MW4 3404   2.223   0.109   1.571 -0.2425 -0.5356 -0.2301
    1SOL     OW 3405   2.218   0.385   1.602 -0.4276  0.1778 -0.5238
    1SOL    HW2 3406   2.221   0.389   1.698  0.0810  0.6082 -0.5512
    1SOL    HW3 3407   2.244   0.296   1.581 -0.0397  0.2271 -0.2722
    1SOL    MW4 3408   2.222   0.374   1.612 -0.3090  0.2411 -0.4942
    1SOL     OW 3409   2.462   0.515   1.502  0.1679  0.1982 -0.1780
    1SOL    HW2 3410   2.530   0.460   1.540  0.6929  1.3875  0.6321
    1SOL    HW3 3411   2.380   0.478   1.536  0.6020  0.8803  1.6471
    1SOL    MW4 3412   2.460   0.503   1.512  0.2942  0.4452  0.1696
    1SOL     OW 3413   2.449   0.780   1.641 -0.2088  0.2409 -0.5609
    1SOL    HW2 3414   2.384   0.823   1.584  0.0049 -1.6474 -2.2639
    1SOL    HW3 3415   2.470   0.698   1.597  1.7306 -0.1931  1.0874
    1SOL    MW4 3416   2.443   0.775   1.628  0.0753 -0.0655 -0.5682
    1SOL     OW 3417   2.232   0.913   1.535  0.4001 -0.2880 -0.6367
    1SOL    HW2 3418   2.233   1.008   1.546  0.5829 -0.4991  1.3908
    1SOL    HW3 3419   2.215   0.899   1.442 -2.3904  1.7205 -0.4870
    1SOL    MW4 3420   2.230   0.924   1.524  0.0563 -0.0509 -0.3495
    1SOL     OW 3421   2.231   1.174   1.650  0.5663 -0.0010  0.3360
    1SOL    HW2 3422   2.217   1.158   1.743 -0.8137 -0.8278 -0.0142
    1SOL    HW3 3423   2.147   1.205   1.617  1.1549  0.6771 -0.5610
    1SOL    MW4 3424   2.218   1.176   1.657  0.4618 -0.0205  0.1714
    1SOL     OW 3425   2.479   1.247   1.558  0.1934  0.2703 -0.6799
    1SOL    HW2 3426   2.404   1.226   1.613  0.4288  0.0292 -0.4500
    1SOL    HW3 3427   2.442   1.258   1.471 -0.1691  0.5633 -0.4908
    1SOL    MW4 3428   2.465   1.246   1.554  0.1767  0.2773 -0.6248
    1SOL     OW 3429   2.443   1.507   1.678 -0.1062  0.3779 -0.1639
    1SOL    HW2 3430   2.523   1.548   1.646  0.6741 -0.2655  0.9451
    1SOL    HW3 3431   2.437   1.424   1.631 -0.7132  0.9061 -1.0467
    1SOL    MW4 3432   2.452   1.502   1.668 -0.0834  0.3625 -0.1340
    1SOL     OW 3433   2.211   1.662   1.573 -0.2373 -0.1346  0.2194
    1SOL    HW2 3434   2.283   1.620   1.621 -0.7679 -0.1383  1.0155
    1SOL    HW3 3435   2.224   1.755   1.588 -0.6036 -0.1538  0.6565
    1SOL    MW4 3436   2.222   1.669   1.581 -0.3555 -0.1377  0.3821
    1SOL     OW 3437   2.253   1.932   1.631  0.0621  0.1427  0.0586
    1SOL    HW2 3438   2.242   1.938   1.726  0.0044 -0.0961  0.0669
    1SOL    HW3 3439   2.170   1.963   1.596 -0.8329 -2.0765  0.1283
    1SOL    MW4 3440   2.241   1.937   1.639 -0.0639 -0.1816  0.0689
    1SOL     OW 3441   2.482   2.077   1.590  0.1524  0.1526  0.0045
    1SOL    HW2 3442   2.401   2.029   1.604  2.3327 -3.2553  1.6480
    1SOL    HW3 3443   2.512   2.047   1.504  1.3141 -1.2074  0.8600
    1SOL    MW4 3444   2.475   2.067   1.580  0.5934 -0.4766  0.3341
    1SOL     OW 3445   2.478   2.330   1.691  0.1333 -0.1844 -0.3074
    1SOL    HW2 3446   2.488   2.330   1.787 -1.6062  0.4056 -0.0866
    1SOL    HW3 3447   2.470   2.238   1.667 -0.1438 -0.3038  0.2284
    1SOL    MW4 3448   2.478   2.318   1.701 -0.1330 -0.1228 -0.2075
    1SOL     OW 3449   2.246   2.418   1.594 -0.3083  0.4667 -0.2922
    1SOL    HW2 3450   2.324   2.395   1.644  1.4179 -0.1343 -3.1229
    1SOL    HW3 3451   2.185   2.346   1.608 -0.7547  1.3231  2.5912
    1SOL    MW4 3452   2.248   2.406   1.602 -0.1392  0.5002 -0.2854
    1SOL     OW 3453   2.231   2.686   1.668 -0.6393  0.2788  0.0456
    1SOL    HW2 3454   2.219   2.597   1.634  1.8157  0.1283 -0.5577
    1SOL    HW3 3455   2.160   2.737   1.629 -1.2489 -1.1424 -0.7063
    1SOL    MW4 3456   2.220   2.681   1.658 -0.3958  0.0718 -0.1332
    1SOL     OW 3457   2.478   2.784   1.561  0.4389  0.1615 -0.1298
    1SOL    HW2 3458   2.470   2.872   1.600  0.8173 -0.2090  0.7938
    1SOL    HW3 3459   2.393   2.743   1.577  0.5449  0.0618  0.1802
    1SOL    MW4 3460   2.465   2.791   1.568  0.5026  0.0994  0.0330
    1SOL     OW 3461   2.439   3.040   1.675 -0.2607  0.0886 -0.2553
    1SOL    HW2 3462   2.518   3.081   1.641  0.2059 -0.8025 -0.2466
    1SOL    HW3 3463   2.368   3.085   1.629  0.3387 -0.7879 -2.0837
    1SOL    MW4 3464   2.440   3.051   1.665 -0.1199 -0.1447 -0.4954
    1SOL     OW 3465   2.238   3.199   1.572 -0.1944 -0.1758 -0.0006
    1SOL    HW2 3466   2.247   3.290   1.597  1.5163 -0.3738  0.1312
    1SOL    HW3 3467   2.250   3.198   1.477  0.2176 -0.3279  0.0542
    1SOL    MW4 3468   2.241   3.211   1.563  0.0856 -0.2220  0.0241
    1SOL     OW 3469   2.255   3.466   1.682 -0.0402 -0.1260  0.3885
    1SOL    HW2 3470   2.239   3.471   1.776  0.0997 -0.6653  0.4457
    1SOL    HW3 3471   2.336   3.515   1.668  0.4829 -0.8964  0.6940
    1SOL    MW4 3472   2.263   3.473   1.692  0.0474 -0.2990  0.4363
    1SOL     OW 3473   2.440   3.624   1.561  0.0677  0.3126  0.1369
    1SOL    HW2 3474   2.528   3.594   1.585  0.4427  1.2374 -0.0456
    1SOL    HW3 3475   2.435   3.712   1.597 -1.7637 -0.6923  2.4322
    1SOL    MW4 3476   2.451   3.632   1.569 -0.1242  0.3016  0.4157
    1SOL     OW 3477   2.459   3.884   1.654 -0.1911 -0.5110  0.1253
    1SOL    HW2 3478   2.456   3.854   1.745  0.4317  0.1083  0.3493
    1SOL    HW3 3479   2.548   3.916   1.642 -0.8389  1.2146 -0.1349
    1SOL    MW4 3480   2.470   3.884   1.664 -0.1945 -0.2017  0.1205
    1SOL     OW 3481   2.244   4.046   1.567 -0.1305 -0.5046  0.0855
    1SOL    HW2 3482   2.318   3.990   1.589  0.1011 -0.5618 -0.8014
    1SOL    HW3 3483   2.245   4.050   1.471 -0.2238  0.9077  0.1338
    1SOL    MW4 3484   2.254   4.039   1.557 -0.1125 -0.3257 -0.0252
    1SOL     OW 3485   2.257   4.288   1.664 -0.1787 -0.1432  0.4814
    1SOL    HW2 3486   2.341   4.323   1.633 -0.2573 -0.9072 -0.6486
    1SOL    HW3 3487   2.258   4.196   1.636 -1.2155 -0.2686  0.8285
    1SOL    MW4 3488   2.268   4.280   1.656 -0.3259 -0.2604  0.3781
    1SOL     OW 3489   2.495   4.381   1.562 -0.3499 -0.1683  0.1669
    1SOL    HW2 3490   2.506   4.476   1.572 -0.3253 -0.1388 -0.1133
    1SOL    HW3 3491   2.512   4.365   1.469 -2.0036 -0.2106 -0.1394
    1SOL    MW4 3492   2.499   4.392   1.551 -0.5648 -0.1698  0.0896
    1SOL     OW 3493   2.922   4.628   1.615 -0.4822 -0.3137  0.3891
    1SOL    HW2 3494   2.923   4.654   1.707  0.3883  0.2544  0.2282
    1SOL    HW3 3495   2.846   4.672   1.577  0.1607  0.8487  0.4443
    1SOL    MW4 3496   2.912   4.637   1.622 -0.2825 -0.0858  0.3752
    1SOL     OW 3497   2.707   0.125   1.552  0.7392 -0.1525 -0.2664
    1SOL    HW2 3498   2.684   0.213   1.583  2.4062  0.8242 -1.7437
    1SOL    HW3 3499   2.633   0.071   1.580 -1.1682  2.0336 -0.8478
    1SOL    MW4 3500   2.694   0.130   1.560  0.7074  0.2648 -0.5379
    1SOL     OW 3501   2.638   0.376   1.656  0.0909  0.6193 -0.3072
    1SOL    HW2 3502   2.639   0.357   1.750  0.0734 -0.0932 -0.4518
    1SOL    HW3 3503   2.724   0.415   1.639  0.3339  0.1720 -0.1150
    1SOL    MW4 3504   2.650   0.379   1.666  0.1206  0.4663 -0.3010
    1SOL     OW 3505   2.909   0.487   1.602 -0.1864 -0.1350  1.0117
    1SOL    HW2 3506   2.916   0.577   1.636 -1.3395  0.2952  0.1623
    1SOL    HW3 3507   2.918   0.496   1.507 -1.7959 -0.7162  0.7862
    1SOL    MW4 3508   2.911   0.500   1.594 -0.5507 -0.1549  0.8698
    1SOL     OW 3509   2.922   0.732   1.723 -0.1321 -0.0841 -0.0697
    1SOL    HW2 3510   2.908   0.733   1.818 -2.5362 -0.6097 -0.3876
    1SOL    HW3 3511   2.843   0.773   1.687  0.4002 -0.6152 -1.8955
    1SOL    MW4 3512   2.910   0.738   1.731 -0.3793 -0.2235 -0.3524
    1SOL     OW 3513   2.705   0.866   1.608  0.0673  0.5651 -0.1365
    1SOL    HW2 3514   2.617   0.845   1.639  0.8177 -1.5728  0.6226
    1SOL    HW3 3515   2.696   0.870   1.512 -1.4152  3.2002  0.0698
    1SOL    MW4 3516   2.692   0.864   1.599 -0.0293  0.6307 -0.0092
    1SOL     OW 3517   2.689   1.140   1.697  0.1180  0.1071  0.2721
    1SOL    HW2 3518   2.699   1.057   1.651  0.4937  0.9764 -1.2647
    1SOL    HW3 3519   2.616   1.183   1.653  0.7158  1.1116  0.2454
    1SOL    MW4 3520   2.681   1.135   1.685  0.2465  0.3544  0.0659
    1SOL     OW 3521   2.899   1.273   1.606 -0.1757 -0.4161  0.0942
    1SOL    HW2 3522   2.969   1.225   1.651  0.6137 -1.0349 -1.7480
    1SOL    HW3 3523   2.819   1.226   1.628  0.5593 -2.4927 -1.5233
    1SOL    MW4 3524   2.898   1.261   1.615  0.0255 -0.7718 -0.3623
    1SOL     OW 3525   2.903   1.531   1.677 -0.2177 -0.0771  0.0394
    1SOL    HW2 3526   2.819   1.572   1.654 -0.5764 -0.2980  0.9210
    1SOL    HW3 3527   2.893   1.439   1.653  0.7681  0.4316 -2.4052
    1SOL    MW4 3528   2.890   1.524   1.671 -0.1347 -0.0391 -0.1668
    1SOL     OW 3529   2.664   1.656   1.594 -0.0185 -0.0742  0.4132
    1SOL    HW2 3530   2.682   1.737   1.642 -1.9660  1.5016 -1.4140
    1SOL    HW3 3531   2.660   1.683   1.502 -3.1878 -1.7768 -0.0231
    1SOL    MW4 3532   2.666   1.670   1.588 -0.6936 -0.0911  0.1146
    1SOL     OW 3533   2.702   1.921   1.684 -0.0247 -0.2284  0.3395
    1SOL    HW2 3534   2.692   1.927   1.779  0.3329  1.6076  0.2824
    1SOL    HW3 3535   2.626   1.967   1.648 -0.2980 -1.1416 -0.2681
    1SOL    MW4 3536   2.691   1.928   1.692 -0.0136 -0.1067  0.2517
    1SOL     OW 3537   2.893   2.053   1.538  0.2307 -0.2090  0.0547
    1SOL    HW2 3538   2.913   2.136   1.580 -1.8670  0.7805 -0.7895
    1SOL    HW3 3539   2.843   2.004   1.604 -1.3300  0.5365 -0.5433
    1SOL    MW4 3540   2.889   2.057   1.552 -0.2520  0.0196 -0.1355
    1SOL     OW 3541   2.957   2.311   1.646  0.2434  0.0627 -0.4509
    1SOL    HW2 3542   2.946   2.289   1.739 -0.0303  1.4548 -0.1419
    1SOL    HW3 3543   2.880   2.363   1.625 -0.2149 -1.1252 -1.7468
    1SOL    MW4 3544   2.946   2.315   1.655  0.1471  0.0896 -0.5811
    1SOL     OW 3545   2.723   2.431   1.563  0.0982  0.0609  0.3732
    1SOL    HW2 3546   2.721   2.516   1.608 -0.6497  0.5995 -0.6590
    1SOL    HW3 3547   2.639   2.391   1.585 -0.9010  0.9489 -1.6926
    1SOL    MW4 3548   2.711   2.437   1.572 -0.1323  0.2491 -0.0355
    1SOL     OW 3549   2.707   2.658   1.700 -0.2640 -0.1743 -0.5029
    1SOL    HW2 3550   2.774   2.722   1.676 -0.8929 -0.2192 -2.4166
    1SOL    HW3 3551   2.624   2.702   1.681 -0.7615 -0.5514  0.7643
    1SOL    MW4 3552   2.705   2.672   1.694 -0.4125 -0.2301 -0.5882
    1SOL     OW 3553   2.913   2.798   1.566  0.4159  0.1548  0.0808
    1SOL    HW2 3554   2.989   2.759   1.609  0.1771  0.0862  0.4440
    1SOL    HW3 3555   2.914   2.890   1.593  0.0141  0.0100  0.5889
    1SOL    MW4 3556   2.923   2.805   1.575  0.3314  0.1266  0.1957
    1SOL     OW 3557   2.889   3.066   1.680  0.4073 -0.0519 -0.2026
    1SOL    HW2 3558   2.899   3.066   1.775  2.3396 -1.5845 -0.3556
    1SOL    HW3 3559   2.955   3.128   1.649 -0.2364  0.4650 -0.5655
    1SOL    MW4 3560   2.899   3.074   1.688  0.5774 -0.1860 -0.2706
    1SOL     OW 3561   2.660   3.176   1.590 -0.0309  0.9162 -0.0003
    1SOL    HW2 3562   2.733   3.125   1.626 -1.4342 -1.7685 -0.8175
    1SOL    HW3 3563   2.687   3.197   1.501 -0.2555 -0.1781 -0.3429
    1SOL    MW4 3564   2.673   3.172   1.583 -0.2458  0.4175 -0.1533
    1SOL     OW 3565   2.641   3.475   1.651 -0.5389  0.6069  0.0217
    1SOL    HW2 3566   2.648   3.480   1.746  0.1413 -0.3086  0.0206
    1SOL    HW3 3567   2.636   3.382   1.631 -0.8865  0.7974 -0.8263
    1SOL    MW4 3568   2.641   3.464   1.661 -0.4952  0.5114 -0.0902
    1SOL     OW 3569   2.903   3.596   1.587  0.0592 -0.1421  0.1503
    1SOL    HW2 3570   2.820   3.570   1.626 -1.3530  3.1557 -0.5712
    1SOL    HW3 3571   2.892   3.579   1.494 -0.6080  2.2146 -0.2289
    1SOL    MW4 3572   2.891   3.590   1.580 -0.2148  0.6039  0.0051
    1SOL     OW 3573   2.936   3.858   1.689 -0.2656 -0.4831  0.1684
    1SOL    HW2 3574   2.867   3.906   1.644 -0.4817 -0.2897  0.7056
    1SOL    HW3 3575   2.931   3.769   1.653  0.5731  0.0446 -1.3268
    1SOL    MW4 3576   2.927   3.853   1.678 -0.1833 -0.3881  0.0420
    1SOL     OW 3577   2.726   3.966   1.570  0.1581  0.4231 -0.3713
    1SOL    HW2 3578   2.728   4.056   1.602 -0.4793  0.5317 -0.6199
    1SOL    HW3 3579   2.706   3.975   1.477  0.5942  0.0465 -0.5017
    1SOL    MW4 3580   2.723   3.979   1.562  0.1311  0.3877 -0.4213
    1SOL     OW 3581   2.732   4.232   1.606  0.0050  0.1840 -0.0004
    1SOL    HW2 3582   2.812   4.281   1.586 -0.0145  0.6754  1.0767
    1SOL    HW3 3583   2.661   4.297   1.597 -0.1813 -0.0379 -0.1274
    1SOL    MW4 3584   2.733   4.247   1.602 -0.0222  0.2193  0.1248
    1SOL     OW 3585   2.958   4.362   1.560 -0.3509  0.2341 -0.1356
    1SOL    HW2 3586   2.935   4.450   1.590 -1.4133 -0.6725  1.7379
    1SOL    HW3 3587   2.957   4.369   1.464  2.0096  2.8672 -0.0215
    1SOL    MW4 3588   2.955   4.375   1.551 -0.1795  0.4616  0.1266
    1SOL     OW 3589   3.401   4.604   1.730 -0.3388  0.0440  0.2251
    1SOL    HW2 3590   3.460   4.663   1.683  0.9658  0.4970  2.3883
    1SOL    HW3 3591   3.427   4.517   1.702  1.4270  0.2403  1.2090
    1SOL    MW4 3592   3.412   4.600   1.720  0.0663  0.1292  0.6403
    1SOL     OW 3593   3.152   0.072   1.566  0.0635 -0.0321  0.1975
    1SOL    HW2 3594   3.222   0.020   1.603  0.4010 -0.3408 -0.8552
    1SOL    HW3 3595   3.073   0.019   1.578 -0.1900  0.7741  2.3419
    1SOL    MW4 3596   3.151   0.058   1.572  0.0749  0.0335  0.3415
    1SOL     OW 3597   3.148   0.346   1.655  0.3729 -0.4402  0.3612
    1SOL    HW2 3598   3.146   0.264   1.605  1.0804  0.4545 -1.1553
    1SOL    HW3 3599   3.062   0.385   1.639  0.0521 -0.8666  1.0468
    1SOL    MW4 3600   3.136   0.340   1.646  0.4239 -0.3784  0.2515
    1SOL     OW 3601   3.367   0.509   1.602  0.1304 -0.3422 -0.0214
    1SOL    HW2 3602   3.306   0.444   1.635 -1.2186  0.6630 -0.5192
    1SOL    HW3 3603   3.362   0.501   1.507 -0.4518  0.8433 -0.1035
    1SOL    MW4 3604   3.359   0.499   1.594 -0.1247 -0.0531 -0.0980
    1SOL     OW 3605   3.407   0.768   1.698 -0.3666  0.3974  0.4988
    1SOL    HW2 3606   3.409   0.755   1.792 -2.2381 -0.2255  0.4717
    1SOL    HW3 3607   3.384   0.683   1.661 -1.8116  1.1336 -0.3682
    1SOL    MW4 3608   3.404   0.755   1.705 -0.8042  0.4123  0.3810
    1SOL     OW 3609   3.138   0.865   1.616  0.1040  0.1900  0.2421
    1SOL    HW2 3610   3.214   0.819   1.652  0.0102 -0.1518  0.0087
    1SOL    HW3 3611   3.063   0.817   1.651  0.0050  0.2012  0.0455
    1SOL    MW4 3612   3.138   0.853   1.625  0.0787  0.1463  0.1854
    1SOL     OW 3613   3.143   1.137   1.680  0.9090  0.2900 -0.2886
    1SOL    HW2 3614   3.136   1.139   1.775 -0.4279 -1.0526 -0.3338
    1SOL    HW3 3615   3.130   1.045   1.657  1.5514  0.5509 -1.7401
    1SOL    MW4 3616   3.140   1.125   1.689  0.8173  0.1472 -0.4860
    1SOL     OW 3617   3.354   1.302   1.593 -0.3785  0.1364  0.0776
    1SOL    HW2 3618   3.443   1.269   1.611 -0.1227  0.2085 -0.9758
    1SOL    HW3 3619   3.297   1.227   1.610 -0.2869  0.5699  2.3474
    1SOL    MW4 3620   3.359   1.288   1.597 -0.3328  0.2031  0.2381
    1SOL     OW 3621   3.363   1.585   1.658  0.1813 -0.0917  0.3620
    1SOL    HW2 3622   3.382   1.582   1.751  2.6584 -0.2309 -0.1184
    1SOL    HW3 3623   3.365   1.493   1.630 -0.7785 -0.0717  0.2018
    1SOL    MW4 3624   3.365   1.572   1.666  0.3815 -0.1073  0.2774
    1SOL     OW 3625   3.130   1.654   1.555 -0.0084 -0.5258 -0.2157
    1SOL    HW2 3626   3.208   1.624   1.603  0.5421 -1.0143 -1.3852
    1SOL    HW3 3627   3.062   1.592   1.579  0.1362 -0.4788  0.3181
    1SOL    MW4 3628   3.132   1.642   1.565  0.0832 -0.5840 -0.2996
    1SOL     OW 3629   3.112   1.916   1.650  0.2285  0.2526  0.1510
    1SOL    HW2 3630   3.109   1.824   1.624 -0.4519  0.2379  0.2684
    1SOL    HW3 3631   3.045   1.958   1.596  0.1532  0.5767  0.4936
    1SOL    MW4 3632   3.103   1.909   1.639  0.1290  0.2935  0.2116
    1SOL     OW 3633   3.363   2.057   1.578  0.7306  0.2116  0.0196
    1SOL    HW2 3634   3.285   2.009   1.604  1.5525 -2.1484 -1.7158
    1SOL    HW3 3635   3.372   2.040   1.484  2.0554  2.3220 -0.2823
    1SOL    MW4 3636   3.354   2.049   1.569  1.0138  0.1786 -0.2491
    1SOL     OW 3637   3.391   2.316   1.659 -0.0788 -0.6050  0.1801
    1SOL    HW2 3638   3.464   2.359   1.615 -0.0780 -0.2562  0.5214
    1SOL    HW3 3639   3.390   2.227   1.623 -0.7918  0.0134 -1.3903
    1SOL    MW4 3640   3.400   2.310   1.648 -0.1726 -0.4776  0.0180
    1SOL     OW 3641   3.167   2.441   1.551 -0.2384 -0.5477 -0.2443
    1SOL    HW2 3642   3.245   2.411   1.599 -0.7279 -1.9704 -0.3287
    1SOL    HW3 3643   3.097   2.384   1.580 -0.9748 -0.1468 -1.1943
    1SOL    MW4 3644   3.168   2.430   1.561 -0.3998 -0.6824 -0.3809
    1SOL     OW 3645   3.143   2.680   1.689  0.1004  0.0037 -0.1676
    1SOL    HW2 3646   3.218   2.736   1.667 -0.1531  0.2278 -0.4655
    1SOL    HW3 3647   3.152   2.604   1.631  0.5378 -0.3501  0.3529
    1SOL    MW4 3648   3.154   2.677   1.678  0.1247 -0.0136 -0.1383
    1SOL     OW 3649   3.377   2.806   1.590 -0.1444 -0.2679  0.3154
    1SOL    HW2 3650   3.384   2.895   1.623  1.0277 -0.0867 -0.3696
    1SOL    HW3 3651   3.364   2.817   1.495 -0.8825 -0.8060  0.3548
    1SOL    MW4 3652   3.376   2.819   1.582 -0.0870 -0.3150  0.2301
    1SOL     OW 3653   3.367   3.091   1.672  0.0742 -0.0570  0.4066
    1SOL    HW2 3654   3.364   3.087   1.767 -0.8860 -0.6850  0.3531
    1SOL    HW3 3655   3.437   3.153   1.653  0.0967  0.2661  1.5195
    1SOL    MW4 3656   3.376   3.098   1.682 -0.0494 -0.0975  0.5465
    1SOL     OW 3657   3.126   3.218   1.623 -0.3376  0.3320 -0.0330
    1SOL    HW2 3658   3.205   3.167   1.644 -0.9548 -0.2444  0.8703
    1SOL    HW3 3659   3.132   3.231   1.528  0.2268 -0.7504 -0.1576
    1SOL    MW4 3660   3.137   3.213   1.613 -0.3445  0.1130  0.0697
    1SOL     OW 3661   3.115   3.484   1.703  0.8170  0.2292 -0.4133
    1SOL    HW2 3662   3.115   3.388   1.695  0.4511  0.0468  1.4626
    1SOL    HW3 3663   3.039   3.512   1.653  1.4689 -0.3726 -1.7772
    1SOL    MW4 3664   3.105   3.475   1.695  0.8550  0.1256 -0.3457
    1SOL     OW 3665   3.373   3.599   1.571 -0.2312 -0.3429  0.0214
    1SOL    HW2 3666   3.437   3.545   1.618 -0.8886 -0.3878  0.8899
    1SOL    HW3 3667   3.289   3.558   1.591 -0.7312  0.9886  0.6869
    1SOL    MW4 3668   3.371   3.586   1.580 -0.3839 -0.1731  0.2238
    1SOL     OW 3669   3.408   3.853   1.689  0.0811 -0.5104 -0.1537
    1SOL    HW2 3670   3.334   3.892   1.643 -0.5503  0.3734  1.5694
    1SOL    HW3 3671   3.399   3.759   1.675 -1.0137 -0.3558 -0.4698
    1SOL    MW4 3672   3.397   3.846   1.681 -0.1469 -0.3736  0.0319
    1SOL     OW 3673   3.169   3.959   1.575  0.2419 -0.4050  0.5128
    1SOL    HW2 3674   3.163   4.049   1.606 -0.0976  0.3976 -1.7855
    1SOL    HW3 3675   3.098   3.913   1.619  0.4358  0.4418  1.7190
    1SOL    MW4 3676   3.159   3.964   1.585  0.2227 -0.1874  0.3688
    1SOL     OW 3677   3.171   4.228   1.680 -0.5793  0.1959  0.0589
    1SOL    HW2 3678   3.162   4.231   1.775  1.4679  2.4908  0.2434
    1SOL    HW3 3679   3.105   4.290   1.647 -0.7898 -0.0439  0.0278
    1SOL    MW4 3680   3.161   4.237   1.688 -0.3374  0.4668  0.0793
    1SOL     OW 3681   3.391   4.372   1.585 -0.5436 -0.3292  0.9672
    1SOL    HW2 3682   3.307   4.343   1.620 -0.2921 -1.9046  0.2909
    1SOL    HW3 3683   3.375   4.385   1.492 -0.3128  0.4891  1.0318
    1SOL    MW4 3684   3.378   4.370   1.578 -0.4802 -0.4292  0.8864
    1SOL     OW 3685   3.819   4.620   1.643 -0.6885  0.6223  0.3992
    1SOL    HW2 3686   3.811   4.613   1.738 -0.7442  1.1860  0.4388
    1SOL    HW3 3687   3.883   4.690   1.629  0.4599 -0.4803  0.0361
    1SOL    MW4 3688   3.827   4.628   1.654 -0.5443  0.5512  0.3564
    1SOL     OW 3689   3.580   0.070   1.568  0.0087 -0.1609 -0.0883
    1SOL    HW2 3690   3.671   0.053   1.592 -0.0643  0.9105  1.0049
    1SOL    HW3 3691   3.582   0.087   1.474  0.8169 -0.9504 -0.2158
    1SOL    MW4 3692   3.592   0.070   1.559  0.1059 -0.1237  0.0391
    1SOL     OW 3693   3.582   0.356   1.662 -0.4142 -0.1111  0.2410
    1SOL    HW2 3694   3.583   0.285   1.599 -1.2002 -1.2192  1.4610
    1SOL    HW3 3695   3.512   0.414   1.631  0.5786  0.4512 -1.0482
    1SOL    MW4 3696   3.573   0.355   1.649 -0.3870 -0.1831  0.2317
    1SOL     OW 3697   3.804   0.524   1.584 -0.0973  0.2715 -0.0078
    1SOL    HW2 3698   3.721   0.482   1.608  0.6502 -1.4503 -0.3474
    1SOL    HW3 3699   3.792   0.548   1.492 -0.3810  0.4105  0.0647
    1SOL    MW4 3700   3.791   0.521   1.575 -0.0360  0.0626 -0.0432
    1SOL     OW 3701   3.842   0.818   1.634  0.5981  0.4310  0.0864
    1SOL    HW2 3702   3.759   0.853   1.602  0.3761 -0.7588 -0.6514
    1SOL    HW3 3703   3.837   0.724   1.616  1.9283  0.2906  0.4274
    1SOL    MW4 3704   3.830   0.810   1.628  0.7441  0.2555  0.0341
    1SOL     OW 3705   3.595   0.923   1.574  0.2781 -0.0433 -0.1644
    1SOL    HW2 3706   3.530   0.866   1.615  0.7761  0.2662  1.0764
    1SOL    HW3 3707   3.560   0.940   1.487 -0.9392 -0.4771  0.2289
    1SOL    MW4 3708   3.582   0.917   1.568  0.1831 -0.0598  0.0511
    1SOL     OW 3709   3.608   1.194   1.668 -0.3666 -0.1185 -0.4493
    1SOL    HW2 3710   3.681   1.235   1.623 -0.5459  0.6113 -0.0848
    1SOL    HW3 3711   3.614   1.102   1.644  1.0253 -0.1741  0.0549
    1SOL    MW4 3712   3.618   1.187   1.659 -0.2069 -0.0294 -0.3347
    1SOL     OW 3713   3.834   1.311   1.516  0.2983  0.2032  0.2749
    1SOL    HW2 3714   3.904   1.267   1.565 -1.8614 -1.7599  1.6761
    1SOL    HW3 3715   3.826   1.397   1.558  0.7029 -0.2235  1.2311
    1SOL    MW4 3716   3.842   1.317   1.528  0.0665 -0.1121  0.5860
    1SOL     OW 3717   3.823   1.558   1.644 -0.1443 -0.1561  0.2954
    1SOL    HW2 3718   3.845   1.577   1.735 -0.6342 -0.0414  0.3893
    1SOL    HW3 3719   3.739   1.602   1.629  0.2622  0.3937 -0.4086
    1SOL    MW4 3720   3.815   1.566   1.654 -0.1552 -0.0684  0.2149
    1SOL     OW 3721   3.600   1.707   1.586 -0.0592  0.4357  0.0024
    1SOL    HW2 3722   3.515   1.666   1.600 -0.4497  1.7284  1.5031
    1SOL    HW3 3723   3.609   1.710   1.490 -0.9890 -1.1244 -0.1471
    1SOL    MW4 3724   3.590   1.702   1.575 -0.2334  0.4005  0.1807
    1SOL     OW 3725   3.610   1.967   1.700  0.3812  0.1038 -0.6510
    1SOL    HW2 3726   3.613   1.881   1.659  0.1503  0.0743 -0.6076
    1SOL    HW3 3727   3.528   2.005   1.669  1.0098  0.7469 -1.5551
    1SOL    MW4 3728   3.599   1.961   1.690  0.4337  0.1848 -0.7645
    1SOL     OW 3729   3.837   2.058   1.576  0.1227 -0.1004  0.2363
    1SOL    HW2 3730   3.847   2.150   1.600  2.1998  0.0361 -0.9580
    1SOL    HW3 3731   3.757   2.030   1.620  0.4098  1.7945  2.0875
    1SOL    MW4 3732   3.828   2.066   1.585  0.4344  0.1678  0.3229
    1SOL     OW 3733   3.858   2.324   1.644 -0.1807 -0.4034  0.0195
    1SOL    HW2 3734   3.853   2.308   1.738  0.5801  0.5468  0.2356
    1SOL    HW3 3735   3.939   2.373   1.633 -1.3619  1.4318 -0.8335
    1SOL    MW4 3736   3.868   2.328   1.655 -0.2363 -0.0360 -0.0645
    1SOL     OW 3737   3.614   2.447   1.576 -0.2912  0.3753 -0.1997
    1SOL    HW2 3738   3.604   2.523   1.632 -0.6621  0.8194 -0.8519
    1SOL    HW3 3739   3.703   2.417   1.591  0.7739  2.5193 -1.8790
    1SOL    MW4 3740   3.624   2.453   1.585 -0.1996  0.7169 -0.5072
    1SOL     OW 3741   3.626   2.696   1.713  0.0218  0.3927  0.0447
    1SOL    HW2 3742   3.621   2.692   1.808  0.9615 -0.4479  0.0650
    1SOL    HW3 3743   3.542   2.732   1.686  0.6216  2.7911  1.3128
    1SOL    MW4 3744   3.614   2.700   1.722  0.2251  0.5982  0.2147
    1SOL     OW 3745   3.810   2.838   1.579 -0.2691  0.3137  0.0312
    1SOL    HW2 3746   3.896   2.803   1.605 -0.1495 -1.5609 -2.5860
    1SOL    HW3 3747   3.749   2.804   1.644  0.6416 -0.4261  0.5139
    1SOL    MW4 3748   3.814   2.829   1.591 -0.1333 -0.0312 -0.2505
    1SOL     OW 3749   3.812   3.080   1.708  0.0339 -0.3900  0.5287
    1SOL    HW2 3750   3.892   3.125   1.681 -0.6099  0.0923 -0.6265
    1SOL    HW3 3751   3.815   2.996   1.663 -1.2086  0.5529 -1.4347
    1SOL    MW4 3752   3.823   3.075   1.698 -0.2151 -0.2017  0.1173
    1SOL     OW 3753   3.589   3.232   1.614  0.2077 -0.0521  0.1808
    1SOL    HW2 3754   3.666   3.184   1.642  0.0759 -0.4929 -0.2064
    1SOL    HW3 3755   3.605   3.251   1.521 -0.7831 -1.4140 -0.2883
    1SOL    MW4 3756   3.601   3.228   1.605  0.0596 -0.2897  0.0678
    1SOL     OW 3757   3.583   3.483   1.717  0.0372 -0.1035 -0.0250
    1SOL    HW2 3758   3.664   3.523   1.684  1.2301 -1.1931  1.5481
    1SOL    HW3 3759   3.589   3.391   1.691 -1.2140  0.0328 -0.8452
    1SOL    MW4 3760   3.595   3.476   1.709  0.0296 -0.2291  0.0741
    1SOL     OW 3761   3.801   3.608   1.596  0.0099 -0.1733 -0.1625
    1SOL    HW2 3762   3.878   3.562   1.627  0.1670 -0.2332 -0.6383
    1SOL    HW3 3763   3.803   3.692   1.642 -0.1066 -0.5149  0.4654
    1SOL    MW4 3764   3.811   3.613   1.606  0.0153 -0.2260 -0.1426
    1SOL     OW 3765   3.820   3.866   1.729 -0.3826  0.0357 -0.2154
    1SOL    HW2 3766   3.907   3.896   1.701 -0.3826  0.3643  0.1417
    1SOL    HW3 3767   3.759   3.911   1.671 -0.3092 -0.2637 -0.5253
    1SOL    MW4 3768   3.824   3.876   1.718 -0.3726  0.0393 -0.2092
    1SOL     OW 3769   3.633   3.981   1.573 -0.0362  0.0904 -0.1763
    1SOL    HW2 3770   3.629   4.069   1.611 -1.0962  0.1772 -0.4920
    1SOL    HW3 3771   3.554   3.937   1.605  0.4978 -0.7559 -0.0068
    1SOL    MW4 3772   3.622   3.987   1.582 -0.1059 -0.0098 -0.1956
    1SOL     OW 3773   3.633   4.251   1.679  0.3208  0.4335 -0.1854
    1SOL    HW2 3774   3.617   4.267   1.772  0.7355  1.7674 -0.3384
    1SOL    HW3 3775   3.557   4.286   1.634  0.2597  0.0611 -0.3764
    1SOL    MW4 3776   3.621   4.257   1.685  0.3674  0.5603 -0.2308
    1SOL     OW 3777   3.847   4.363   1.565  0.4760  0.1855  0.0265
    1SOL    HW2 3778   3.775   4.322   1.612  1.0631  1.1809  1.8481
    1SOL    HW3 3779   3.839   4.456   1.584  1.7856  0.3991 -0.3917
    1SOL    MW4 3780   3.837   4.370   1.573  0.7262  0.3448  0.2117
    1SOL     OW 3781   4.252   4.665   1.626 -0.1735  0.2283  0.1902
    1SOL    HW2 3782   4.263   4.658   1.721  0.4188 -1.6643  0.0114
    1SOL    HW3 3783   4.291   4.584   1.592 -0.1181  1.0275 -1.6882
    1SOL    MW4 3784   4.259   4.653   1.634 -0.0882  0.0840 -0.0812
    1SOL     OW 3785   4.018   0.125   1.535  0.0585 -0.4885  0.0273
    1SOL    HW2 3786   4.022   0.210   1.578 -0.7823  0.1380 -1.1276
    1SOL    HW3 3787   4.099   0.081   1.562 -0.9483 -0.5633  3.1827
    1SOL    MW4 3788   4.029   0.130   1.544 -0.1855 -0.4157  0.2913
    1SOL     OW 3789   4.040   0.390   1.642 -0.1644  0.1033 -0.0762
    1SOL    HW2 3790   4.041   0.363   1.733 -0.4820  0.4460  0.0304
    1SOL    HW3 3791   3.956   0.433   1.630 -0.0284  0.2680 -0.4704
    1SOL    MW4 3792   4.029   0.392   1.652 -0.1888  0.1702 -0.1142
    1SOL     OW 3793   4.265   0.532   1.544 -0.0351  0.0581  0.4541
    1SOL    HW2 3794   4.189   0.487   1.582 -0.3988 -1.0265 -1.4951
    1SOL    HW3 3795   4.341   0.485   1.578 -0.3489 -0.7425  0.0670
    1SOL    MW4 3796   4.265   0.520   1.554 -0.1245 -0.1906  0.1458
    1SOL     OW 3797   4.256   0.778   1.652  0.0668  0.2534 -0.0136
    1SOL    HW2 3798   4.256   0.689   1.617 -0.4322 -0.1256  0.9096
    1SOL    HW3 3799   4.334   0.818   1.616  0.5703 -0.7304 -0.0428
    1SOL    MW4 3800   4.266   0.771   1.643  0.0672  0.0736  0.1043
    1SOL     OW 3801   4.069   0.959   1.583 -0.2420 -0.3525  0.4899
    1SOL    HW2 3802   4.146   0.911   1.613 -1.1999 -2.1238  0.1518
    1SOL    HW3 3803   3.995   0.912   1.621 -1.2471  0.2289 -0.7068
    1SOL    MW4 3804   4.069   0.947   1.592 -0.5012 -0.5095  0.2873
    1SOL     OW 3805   4.044   1.216   1.670 -0.0534  0.4038  0.0187
    1SOL    HW2 3806   4.058   1.220   1.765  0.5480 -0.9845 -0.0003
    1SOL    HW3 3807   4.051   1.123   1.649 -0.8542  0.6300 -1.2936
    1SOL    MW4 3808   4.047   1.204   1.680 -0.0796  0.2506 -0.1571
    1SOL     OW 3809   4.266   1.319   1.576 -0.1740  0.3042 -0.0846
    1SOL    HW2 3810   4.186   1.280   1.611  0.3027 -1.8426 -1.2588
    1SOL    HW3 3811   4.337   1.262   1.607  0.7008  1.0756 -0.6274
    1SOL    MW4 3812   4.265   1.306   1.584  0.0038  0.1228 -0.3111
    1SOL     OW 3813   4.301   1.561   1.691  0.4436  0.0946 -0.6636
    1SOL    HW2 3814   4.283   1.477   1.648 -2.3846 -0.7145  1.8657
    1SOL    HW3 3815   4.362   1.605   1.633  2.6211 -4.0185 -1.7045
    1SOL    MW4 3816   4.306   1.555   1.678  0.3572 -0.5549 -0.4673
    1SOL     OW 3817   4.066   1.649   1.555  0.2844  0.3828  0.3072
    1SOL    HW2 3818   4.129   1.591   1.598 -0.9855 -0.6832  0.7825
    1SOL    HW3 3819   3.981   1.623   1.592 -0.5583  1.0416 -1.1373
    1SOL    MW4 3820   4.063   1.638   1.566  0.0062  0.3290  0.1793
    1SOL     OW 3821   4.059   1.916   1.674  0.0293  0.0871 -0.1685
    1SOL    HW2 3822   4.055   1.830   1.632  1.1815  0.1404 -0.4054
    1SOL    HW3 3823   3.983   1.963   1.640 -0.7575 -0.9233  0.1678
    1SOL    MW4 3824   4.049   1.911   1.664  0.0768 -0.0391 -0.1553
    1SOL     OW 3825   4.277   2.061   1.582  0.5099 -0.0975 -0.0562
    1SOL    HW2 3826   4.201   2.011   1.611 -1.3717  2.3783 -0.6515
    1SOL    HW3 3827   4.257   2.086   1.492  1.7360  1.1256 -0.0035
    1SOL    MW4 3828   4.265   2.057   1.574  0.4239  0.3905 -0.1279
    1SOL     OW 3829   4.301   2.334   1.678  0.0197 -0.2862  0.4202
    1SOL    HW2 3830   4.299   2.353   1.772 -2.3695 -0.2653  0.3859
    1SOL    HW3 3831   4.295   2.239   1.672 -0.1046 -0.2702  0.2857
    1SOL    MW4 3832   4.300   2.324   1.690 -0.3114 -0.2813  0.3978
    1SOL     OW 3833   4.075   2.442   1.543  0.2589 -0.5746  0.6708
    1SOL    HW2 3834   4.069   2.536   1.564  0.5036 -0.5522  0.6448
    1SOL    HW3 3835   4.151   2.412   1.593  0.9359 -0.4955 -0.2832
    1SOL    MW4 3836   4.084   2.451   1.552  0.3805 -0.5612  0.5416
    1SOL     OW 3837   4.038   2.703   1.641  0.2661  0.0771  0.1819
    1SOL    HW2 3838   4.033   2.704   1.737 -0.8449 -0.0990  0.1310
    1SOL    HW3 3839   4.120   2.747   1.621  0.3437  0.4107  1.2067
    1SOL    MW4 3840   4.048   2.709   1.651  0.1292  0.0975  0.3105
    1SOL     OW 3841   4.297   2.832   1.575  0.1102 -0.1079  0.2195
    1SOL    HW2 3842   4.301   2.924   1.600 -0.0770 -0.1243  0.3105
    1SOL    HW3 3843   4.293   2.833   1.479  0.1260 -0.0214  0.2198
    1SOL    MW4 3844   4.297   2.844   1.565  0.0873 -0.0987  0.2314
    1SOL     OW 3845   4.287   3.090   1.673 -0.2355  0.2158  0.2278
    1SOL    HW2 3846   4.294   3.069   1.766 -0.5315  2.4278  0.7768
    1SOL    HW3 3847   4.365   3.142   1.655 -0.9999  1.1514 -0.3786
    1SOL    MW4 3848   4.298   3.094   1.683 -0.3757  0.6311  0.2203
    1SOL     OW 3849   4.044   3.194   1.610 -0.0877 -0.2125  0.1375
    1SOL    HW2 3850   4.049   3.289   1.610  0.0795 -0.2072  1.6415
    1SOL    HW3 3851   4.132   3.166   1.636 -0.0932 -0.7877 -0.4457
    1SOL    MW4 3852   4.056   3.203   1.613 -0.0663 -0.2875  0.2588
    1SOL     OW 3853   4.019   3.472   1.696 -0.4776  0.1590 -0.0894
    1SOL    HW2 3854   4.036   3.453   1.788 -2.1344 -0.1024  0.1727
    1SOL    HW3 3855   4.102   3.509   1.663  0.1471  0.1635  1.4648
    1SOL    MW4 3856   4.032   3.474   1.703 -0.6137  0.1254  0.1502
    1SOL     OW 3857   4.248   3.601   1.588  0.4175  0.0106  0.3273
    1SOL    HW2 3858   4.252   3.688   1.627  2.0683 -0.2832  0.8541
    1SOL    HW3 3859   4.240   3.618   1.494  1.4127  0.7272  0.3680
    1SOL    MW4 3860   4.247   3.615   1.581  0.7668  0.0660  0.4022
    1SOL     OW 3861   4.271   3.866   1.701 -0.0930  0.1853  0.0707
    1SOL    HW2 3862   4.198   3.912   1.660  0.2984  1.2280  0.5349
    1SOL    HW3 3863   4.349   3.899   1.656  0.0195 -1.9859 -1.4289
    1SOL    MW4 3864   4.272   3.877   1.690 -0.0262  0.0362 -0.0658
    1SOL     OW 3865   4.046   3.994   1.605  0.1856  0.0695 -0.5044
    1SOL    HW2 3866   4.051   4.088   1.624  0.4875  0.0255 -0.3610
    1SOL    HW3 3867   4.060   3.987   1.511  0.8430  0.1143 -0.4131
    1SOL    MW4 3868   4.048   4.006   1.595  0.3119  0.0696 -0.4735
    1SOL     OW 3869   4.100   4.256   1.639 -0.0806  0.4118  0.0153
    1SOL    HW2 3870   4.106   4.248   1.734 -0.6881 -2.2602 -0.1170
    1SOL    HW3 3871   4.016   4.300   1.623  0.6025  1.9904  0.7366
    1SOL    MW4 3872   4.090   4.261   1.649 -0.0706  0.2680  0.0930
    1SOL     OW 3873   4.304   4.408   1.538 -0.2760 -0.2533  0.2149
    1SOL    HW2 3874   4.223   4.369   1.571 -0.0638 -1.4595 -0.6342
    1SOL    HW3 3875   4.298   4.398   1.443  0.8495 -0.3103  0.1418
    1SOL    MW4 3876   4.293   4.401   1.530 -0.0997 -0.4201  0.0933
    1SOL     OW 3877   0.206   4.654   1.945 -0.1865  0.2517 -0.4104
    1SOL    HW2 3878   0.266   4.718   1.984 -0.3453 -0.3940  0.9226
    1SOL    HW3 3879   0.208   4.673   1.852  1.0041  1.1622 -0.2103
    1SOL    MW4 3880   0.214   4.665   1.938 -0.0504  0.2871 -0.2083
    1SOL     OW 3881   4.443   0.090   2.022  0.1007 -0.0795  0.0045
    1SOL    HW2 3882   4.469   0.182   2.019 -0.4784  0.0540 -1.0094
    1SOL    HW3 3883   4.521   0.043   1.993  0.5273  0.0677  0.9126
    1SOL    MW4 3884   4.457   0.096   2.018  0.0806 -0.0424 -0.0095
    1SOL     OW 3885   0.016   0.352   1.948 -0.0142  0.0454 -0.5008
    1SOL    HW2 3886  -0.068   0.394   1.966  0.2499 -0.2232  1.5558
    1SOL    HW3 3887   0.079   0.402   2.000  0.6709 -1.3596  0.0650
    1SOL    MW4 3888   0.013   0.364   1.957  0.1111 -0.1754 -0.1549
    1SOL     OW 3889   0.216   0.501   2.048  0.4483  0.1737 -0.1424
    1SOL    HW2 3890   0.302   0.471   2.017  0.2657  0.1649 -0.6407
    1SOL    HW3 3891   0.207   0.589   2.011 -0.5213 -0.5090 -1.5703
    1SOL    MW4 3892   0.226   0.509   2.039  0.2963  0.0824 -0.3965
    1SOL     OW 3893   0.204   0.743   1.919 -0.0638  0.1117 -0.5066
    1SOL    HW2 3894   0.273   0.799   1.955  0.4328 -0.6320 -0.2812
    1SOL    HW3 3895   0.214   0.750   1.824  1.2072 -1.0587 -0.4711
    1SOL    MW4 3896   0.215   0.751   1.911  0.1695 -0.1408 -0.4719
    1SOL     OW 3897   4.470   0.898   2.025  0.0037  0.4027 -0.0055
    1SOL    HW2 3898   4.395   0.843   2.001  0.0511  0.0844  0.5486
    1SOL    HW3 3899   4.544   0.858   1.979  0.1025 -0.2266  0.6838
    1SOL    MW4 3900   4.470   0.885   2.016  0.0229  0.2776  0.1585
    1SOL     OW 3901   0.016   1.162   1.930 -0.1439 -0.1656  0.2871
    1SOL    HW2 3902  -0.068   1.196   1.959 -0.3169 -0.3363 -0.0042
    1SOL    HW3 3903   0.018   1.071   1.962  0.7093  0.3850  1.8540
    1SOL    MW4 3904   0.005   1.154   1.938 -0.0544 -0.1154  0.4555
    1SOL     OW 3905   0.225   1.322   2.031  0.2212  0.2106  0.0046
    1SOL    HW2 3906   0.212   1.409   1.994 -2.4500  0.1215  0.6651
    1SOL    HW3 3907   0.160   1.267   1.987  0.4751 -0.9960  1.0979
    1SOL    MW4 3908   0.215   1.326   2.020 -0.0978  0.0397  0.2358
    1SOL     OW 3909   0.254   1.602   1.905  0.5502  0.0385  0.0894
    1SOL    HW2 3910   0.337   1.622   1.948  1.6674 -0.4988 -1.7595
    1SOL    HW3 3911   0.187   1.638   1.964  2.0815  0.5170  1.5759
    1SOL    MW4 3912   0.256   1.609   1.918  0.8996  0.0306  0.0417
    1SOL     OW 3913   0.039   1.692   2.063 -0.1736 -0.8860 -0.0279
    1SOL    HW2 3914   0.043   1.698   2.158 -0.3954 -0.7422 -0.0275
    1SOL    HW3 3915  -0.033   1.631   2.046 -1.6761  0.8595 -0.1478
    1SOL    MW4 3916   0.030   1.685   2.073 -0.4015 -0.6367 -0.0439
    1SOL     OW 3917   0.041   1.964   1.936 -0.6554  0.0859  0.5290
    1SOL    HW2 3918  -0.046   1.998   1.956 -2.1839 -3.3059  0.0550
    1SOL    HW3 3919   0.053   1.891   1.997  1.4064 -0.2116 -0.1755
    1SOL    MW4 3920   0.031   1.959   1.947 -0.5850 -0.4008  0.3734
    1SOL     OW 3921   0.271   2.065   2.033  0.4317 -0.2090  0.5786
    1SOL    HW2 3922   0.278   2.157   2.009  0.8975 -0.6731 -1.0957
    1SOL    HW3 3923   0.186   2.037   1.999  0.9344 -0.7739 -0.2232
    1SOL    MW4 3924   0.261   2.073   2.026  0.5594 -0.3445  0.2518
    1SOL     OW 3925   0.268   2.328   1.971  0.1693 -0.5496  0.1461
    1SOL    HW2 3926   0.343   2.371   2.010  0.1211  0.0307 -0.3965
    1SOL    HW3 3927   0.192   2.378   2.001  0.1977  0.4423 -1.3933
    1SOL    MW4 3928   0.268   2.340   1.980  0.1667 -0.3421 -0.1285
    1SOL     OW 3929   0.041   2.464   2.040 -0.0237 -0.5482  0.4366
    1SOL    HW2 3930   0.033   2.463   2.135 -2.1666 -0.1462  0.2650
    1SOL    HW3 3931   0.037   2.556   2.016  0.1631 -0.6717 -0.0792
    1SOL    MW4 3932   0.040   2.476   2.049 -0.2818 -0.5112  0.3459
    1SOL     OW 3933   0.032   2.729   1.962 -0.0449  0.3575  0.1197
    1SOL    HW2 3934  -0.054   2.766   1.983 -0.5488 -0.9145  0.3006
    1SOL    HW3 3935   0.037   2.732   1.867 -0.6064 -0.2834  0.0704
    1SOL    MW4 3936   0.021   2.735   1.952 -0.1855  0.1049  0.1371
    1SOL     OW 3937   0.268   2.847   2.048 -0.2397 -0.5264  0.0398
    1SOL    HW2 3938   0.266   2.936   2.014  1.0265 -0.9918 -1.3049
    1SOL    HW3 3939   0.186   2.808   2.019  0.4545 -0.6546 -1.8180
    1SOL    MW4 3940   0.257   2.853   2.040  0.0189 -0.6046 -0.3829
    1SOL     OW 3941   0.248   3.099   1.935 -0.2654 -0.1668 -0.0142
    1SOL    HW2 3942   0.331   3.142   1.956  0.3879 -1.7215  0.6406
    1SOL    HW3 3943   0.251   3.087   1.840  0.3387 -0.3830  0.0295
    1SOL    MW4 3944   0.259   3.103   1.925 -0.0995 -0.4003  0.0778
    1SOL     OW 3945   0.030   3.236   2.040  0.0755  0.4363 -0.1603
    1SOL    HW2 3946  -0.049   3.185   2.018 -0.2017  0.4938  0.6646
    1SOL    HW3 3947   0.101   3.191   1.994 -0.0440 -1.1957  1.1985
    1SOL    MW4 3948   0.029   3.223   2.031  0.0231  0.2286  0.1278
    1SOL     OW 3949   0.002   3.507   1.959  0.2691 -0.2973  0.3125
    1SOL    HW2 3950   0.074   3.550   2.005 -1.0713  0.2411  1.9683
    1SOL    HW3 3951  -0.002   3.419   1.998 -1.0701  0.2652  1.4671
    1SOL    MW4 3952   0.011   3.501   1.970 -0.0844 -0.1519  0.6832
    1SOL     OW 3953   0.184   3.644   2.092  0.0088 -0.1680  0.0877
    1SOL    HW2 3954   0.188   3.635   2.187 -1.1992  0.9954  0.2558
    1SOL    HW3 3955   0.256   3.590   2.060  0.2637 -0.7792  1.6467
    1SOL    MW4 3956   0.194   3.635   2.100 -0.1170 -0.0951  0.3157
    1SOL     OW 3957   0.184   3.872   1.924 -0.0405  0.1980  0.5149
    1SOL    HW2 3958   0.271   3.910   1.938  1.1618 -1.6173 -1.6909
    1SOL    HW3 3959   0.178   3.803   1.990  0.1865  0.3403  0.6856
    1SOL    MW4 3960   0.195   3.868   1.935  0.1481 -0.0226  0.2464
    1SOL     OW 3961   0.025   4.020   2.090 -0.2238 -0.0422  0.4943
    1SOL    HW2 3962   0.006   4.098   2.038 -0.1228  0.2289  0.8594
    1SOL    HW3 3963   0.078   3.965   2.033 -0.7271 -0.0693  0.0513
    1SOL    MW4 3964   0.029   4.023   2.076 -0.2769 -0.0100  0.4840
    1SOL     OW 3965   4.475   4.266   1.928 -0.7548  0.0422 -0.0758
    1SOL    HW2 3966   4.408   4.311   1.980  0.0540  1.8859 -0.5820
    1SOL    HW3 3967   4.558   4.293   1.967 -0.2610 -1.6198  0.0612
    1SOL    MW4 3968   4.477   4.276   1.940 -0.5829  0.0668 -0.1246
    1SOL     OW 3969   0.232   4.388   2.012 -0.0025  0.1462 -0.4114
    1SOL    HW2 3970   0.245   4.393   2.106 -0.9327 -0.7303 -0.2314
    1SOL    HW3 3971   0.213   4.478   1.985 -0.3956  0.2899  0.3400
    1SOL    MW4 3972   0.231   4.400   2.021 -0.1771  0.0496 -0.2887
    1SOL     OW 3973   0.672   0.026   1.969 -0.1525  0.2927 -0.2422
    1SOL    HW2 3974   0.674  -0.067   1.993  2.2990  0.5118  0.4871
    1SOL    HW3 3975   0.680   0.025   1.873 -0.9002 -0.2618 -0.3073
    1SOL    MW4 3976   0.673   0.013   1.959  0.0722  0.2484 -0.1546
    1SOL     OW 3977   0.427   0.142   2.057  0.4846 -0.0360  0.2975
    1SOL    HW2 3978   0.431   0.223   2.005  1.6356  0.3721  0.9907
    1SOL    HW3 3979   0.495   0.086   2.018  0.6338 -0.1310  0.6964
    1SOL    MW4 3980   0.437   0.145   2.045  0.6561  0.0053  0.4416
    1SOL     OW 3981   0.447   0.404   1.946 -0.2884 -0.0345  0.1318
    1SOL    HW2 3982   0.526   0.449   1.976  0.1277 -0.8641  0.2712
    1SOL    HW3 3983   0.452   0.407   1.851  0.8309 -1.6925  0.1234
    1SOL    MW4 3984   0.458   0.410   1.937 -0.0858 -0.3627  0.1490
    1SOL     OW 3985   0.669   0.497   2.063  0.0569  0.0953 -0.0217
    1SOL    HW2 3986   0.679   0.496   2.158 -0.6790 -1.6320  0.0512
    1SOL    HW3 3987   0.752   0.462   2.030 -0.0309 -0.1553  0.0220
    1SOL    MW4 3988   0.681   0.492   2.071 -0.0517 -0.1657 -0.0062
    1SOL     OW 3989   0.667   0.764   1.949 -0.0500  0.0436 -0.0869
    1SOL    HW2 3990   0.742   0.802   1.993  0.5633 -0.3520 -0.7769
    1SOL    HW3 3991   0.664   0.673   1.980  0.3014 -0.1964 -0.7359
    1SOL    MW4 3992   0.676   0.757   1.959  0.0772 -0.0403 -0.2637
    1SOL     OW 3993   0.428   0.868   2.041 -0.0182 -0.3275  0.5103
    1SOL    HW2 3994   0.431   0.961   2.019 -1.5030 -0.0442  1.4031
    1SOL    HW3 3995   0.513   0.833   2.012  0.7679  1.4078  0.6712
    1SOL    MW4 3996   0.440   0.876   2.034 -0.1104 -0.0612  0.6492
    1SOL     OW 3997   0.421   1.137   1.944  0.3421  0.2019  0.1487
    1SOL    HW2 3998   0.367   1.215   1.955 -1.4797 -1.1712  1.1859
    1SOL    HW3 3999   0.429   1.127   1.850 -1.0968  0.5133 -0.0190
    1SOL    MW4 4000   0.415   1.146   1.933 -0.0881  0.0619  0.2633
    1SOL     OW 4001   0.650   1.280   1.998 -0.2481 -0.2168 -0.2733
    1SOL    HW2 4002   0.653   1.277   2.093  0.2172 -1.6771 -0.3261
    1SOL    HW3 4003   0.571   1.230   1.975  0.7039 -1.5237 -0.7228
    1SOL    MW4 4004   0.640   1.273   2.007 -0.0611 -0.5819 -0.3395
    1SOL     OW 4005   0.686   1.548   1.883  0.2643  0.6638  0.0842
    1SOL    HW2 4006   0.682   1.455   1.904 -0.7359  0.6885  0.0247
    1SOL    HW3 4007   0.672   1.552   1.788  2.4487  0.7297 -0.2801
    1SOL    MW4 4008   0.684   1.536   1.873  0.4206  0.6757  0.0284
    1SOL     OW 4009   0.490   1.678   2.002 -0.1854 -0.2118 -0.4024
    1SOL    HW2 4010   0.493   1.684   2.097  0.6394 -1.8610 -0.3165
    1SOL    HW3 4011   0.566   1.625   1.978  0.0442  0.8089 -2.0379
    1SOL    MW4 4012   0.500   1.672   2.011 -0.0463 -0.2949 -0.6070
    1SOL     OW 4013   0.492   1.948   1.915 -0.3203  0.0710 -0.2727
    1SOL    HW2 4014   0.486   1.853   1.930  0.1626  0.1372  0.3796
    1SOL    HW3 4015   0.417   1.984   1.962 -0.2266  0.0507 -0.1045
    1SOL    MW4 4016   0.481   1.940   1.923 -0.2442  0.0772 -0.1645
    1SOL     OW 4017   0.728   2.039   2.011 -0.0615  0.1164  0.1022
    1SOL    HW2 4018   0.719   2.041   2.106 -0.3593  0.0683  0.0745
    1SOL    HW3 4019   0.645   2.003   1.979 -0.1159  0.5003 -0.1983
    1SOL    MW4 4020   0.716   2.035   2.019 -0.1080  0.1605  0.0589
    1SOL     OW 4021   0.704   2.316   1.941  0.3915 -0.0758 -0.3773
    1SOL    HW2 4022   0.728   2.230   1.976 -0.6226 -0.1131  0.2546
    1SOL    HW3 4023   0.712   2.307   1.846 -1.2571 -1.3599 -0.4130
    1SOL    MW4 4024   0.708   2.304   1.933  0.0401 -0.2503 -0.2987
    1SOL     OW 4025   0.502   2.472   2.049 -0.1915 -0.9320 -0.3208
    1SOL    HW2 4026   0.485   2.455   2.142 -0.2189  0.8274  0.0092
    1SOL    HW3 4027   0.568   2.407   2.025  0.9685 -0.3963  1.3372
    1SOL    MW4 4028   0.508   2.461   2.058 -0.0420 -0.6294 -0.0584
    1SOL     OW 4029   0.497   2.753   1.937  0.0538  0.4768 -0.1856
    1SOL    HW2 4030   0.510   2.669   1.982  0.9346  0.9161  0.3858
    1SOL    HW3 4031   0.412   2.784   1.968  0.5670  0.6837  1.0324
    1SOL    MW4 4032   0.488   2.746   1.947  0.2377  0.5622  0.0507
    1SOL     OW 4033   0.708   2.887   2.020 -0.0024  0.4173  0.3833
    1SOL    HW2 4034   0.706   2.897   2.115 -0.4082 -1.9859  0.6672
    1SOL    HW3 4035   0.631   2.833   1.999  1.6652 -1.5655 -0.9292
    1SOL    MW4 4036   0.698   2.881   2.030  0.1640 -0.1614  0.2475
    1SOL     OW 4037   0.690   3.140   1.914 -0.0626  0.3935  0.6567
    1SOL    HW2 4038   0.701   3.048   1.937  2.3911  0.9046  1.6660
    1SOL    HW3 4039   0.688   3.141   1.818  3.9245 -0.3885  0.4726
    1SOL    MW4 4040   0.691   3.128   1.904  0.7871  0.3576  0.7656
    1SOL     OW 4041   0.454   3.245   2.044 -0.2436  0.0589  0.3088
    1SOL    HW2 4042   0.448   3.334   2.009  0.4112 -0.3897 -0.9960
    1SOL    HW3 4043   0.534   3.209   2.005 -0.5955 -1.1591  0.6772
    1SOL    MW4 4044   0.464   3.252   2.034 -0.2036 -0.1609  0.1853
    1SOL     OW 4045   0.405   3.510   1.982  0.0948 -0.2026  0.7095
    1SOL    HW2 4046   0.473   3.573   2.006 -0.4293  0.0986  1.4406
    1SOL    HW3 4047   0.391   3.523   1.888 -0.3137  1.0831  0.9367
    1SOL    MW4 4048   0.412   3.520   1.973 -0.0283  0.0064  0.8359
    1SOL     OW 4049   0.649   3.636   2.045 -0.2962 -0.5297 -0.3514
    1SOL    HW2 4050   0.720   3.589   2.002 -0.2510 -0.0824 -0.7703
    1SOL    HW3 4051   0.669   3.729   2.031 -0.9175 -0.3971 -0.4062
    1SOL    MW4 4052   0.661   3.642   2.038 -0.3722 -0.4532 -0.4139
    1SOL     OW 4053   0.703   3.900   1.976  0.2423 -0.0822  0.0774
    1SOL    HW2 4054   0.775   3.955   2.007  0.7641 -0.6200 -0.1750
    1SOL    HW3 4055   0.711   3.900   1.881  0.6123 -1.0829  0.1004
    1SOL    MW4 4056   0.713   3.907   1.968  0.3600 -0.2851  0.0472
    1SOL     OW 4057   0.440   4.005   1.979  0.1215  0.5412 -0.2873
    1SOL    HW2 4058   0.450   4.091   1.938 -0.2202  0.0175 -1.4912
    1SOL    HW3 4059   0.530   3.974   1.991  0.2315  0.7788 -0.4871
    1SOL    MW4 4060   0.453   4.013   1.975  0.0909  0.5035 -0.4724
    1SOL     OW 4061   0.456   4.277   1.916 -0.7922 -0.3935 -0.1048
    1SOL    HW2 4062   0.379   4.321   1.951 -0.1026  0.4435  0.3688
    1SOL    HW3 4063   0.458   4.300   1.823 -0.6994  0.1942  0.0418
    1SOL    MW4 4064   0.446   4.286   1.908 -0.6890 -0.2055 -0.0230
    1SOL     OW 4065   0.649   4.421   2.057 -0.0016  0.1572 -0.1576
    1SOL    HW2 4066   0.728   4.383   2.020  0.8356  1.5216  0.2008
    1SOL    HW3 4067   0.578   4.384   2.004  1.0294  0.6211 -1.9204
    1SOL    MW4 4068   0.650   4.411   2.045  0.2449  0.3982 -0.3428
    1SOL     OW 4069   1.088   0.009   1.985  0.1959 -0.1770  0.2672
    1SOL    HW2 4070   1.176   0.040   2.004  0.7514 -1.3813 -0.2873
    1SOL    HW3 4071   1.088  -0.083   2.012 -0.8660 -0.2089  0.1885
    1SOL    MW4 4072   1.100   0.001   1.991  0.1290 -0.3401  0.1836
    1SOL     OW 4073   0.889   0.163   2.099  0.1592  0.0014 -0.1006
    1SOL    HW2 4074   0.960   0.107   2.068  0.8054  0.2602  0.9165
    1SOL    HW3 4075   0.810   0.125   2.060  0.4670 -2.1960  1.3628
    1SOL    MW4 4076   0.888   0.151   2.090  0.2850 -0.2544  0.2265
    1SOL     OW 4077   0.910   0.414   1.966 -0.2902  0.2613 -0.2917
    1SOL    HW2 4078   0.994   0.450   1.994  0.8656 -0.9488 -2.1073
    1SOL    HW3 4079   0.904   0.329   2.009 -0.7692  0.4959  0.1179
    1SOL    MW4 4080   0.920   0.408   1.975 -0.2009  0.1326 -0.4772
    1SOL     OW 4081   1.126   0.536   2.094 -0.4042 -0.6802 -0.0609
    1SOL    HW2 4082   1.201   0.481   2.075  0.5862  0.2276  1.0761
    1SOL    HW3 4083   1.135   0.611   2.034  0.0071 -0.2268  0.5547
    1SOL    MW4 4084   1.137   0.539   2.084 -0.2191 -0.5006  0.1705
    1SOL     OW 4085   1.098   0.753   1.909 -0.0170  0.2238 -0.1829
    1SOL    HW2 4086   1.170   0.803   1.947  0.6363 -0.4757 -0.4768
    1SOL    HW3 4087   1.019   0.791   1.947  0.4624  1.5193 -0.4668
    1SOL    MW4 4088   1.097   0.764   1.919  0.1323  0.3024 -0.2590
    1SOL     OW 4089   0.886   0.885   2.041  0.1910  0.7813 -0.2325
    1SOL    HW2 4090   0.887   0.891   2.136 -1.0036  1.8210 -0.2610
    1SOL    HW3 4091   0.897   0.976   2.011  0.5043  0.4728 -1.0723
    1SOL    MW4 4092   0.887   0.898   2.049  0.0747  0.8778 -0.3471
    1SOL     OW 4093   0.892   1.139   1.956 -0.4062 -0.1904 -0.0651
    1SOL    HW2 4094   0.820   1.200   1.973 -0.1451 -0.1525  0.9588
    1SOL    HW3 4095   0.902   1.140   1.861 -1.0662  0.6012 -0.1376
    1SOL    MW4 4096   0.884   1.148   1.946 -0.4588 -0.0808  0.0604
    1SOL     OW 4097   1.114   1.300   2.029  0.2395 -0.3139 -0.4310
    1SOL    HW2 4098   1.122   1.377   1.973 -0.8741  0.3824  0.3389
    1SOL    HW3 4099   1.032   1.258   2.002  0.0960 -0.4128  0.1450
    1SOL    MW4 4100   1.104   1.304   2.018  0.0737 -0.2352 -0.2537
    1SOL     OW 4101   1.114   1.550   1.912  0.0390 -0.3083 -0.0147
    1SOL    HW2 4102   1.038   1.602   1.938  0.2855 -0.9346  2.0360
    1SOL    HW3 4103   1.099   1.530   1.820 -1.6536  0.6486  0.0346
    1SOL    MW4 4104   1.102   1.554   1.904 -0.1519 -0.2646  0.2623
    1SOL     OW 4105   0.886   1.695   1.996  0.0332  0.5101  0.1403
    1SOL    HW2 4106   0.893   1.771   1.940 -1.3574  0.6294  0.1217
    1SOL    HW3 4107   0.824   1.637   1.952  1.1696 -0.7135  0.0780
    1SOL    MW4 4108   0.879   1.697   1.983 -0.0004  0.3643  0.1296
    1SOL     OW 4109   0.934   1.941   1.872  0.1836  0.0817  0.0125
    1SOL    HW2 4110   0.852   1.970   1.912 -1.1441 -4.4195  0.7944
    1SOL    HW3 4111   0.927   1.966   1.780 -2.1564 -0.3826  0.0507
    1SOL    MW4 4112   0.923   1.948   1.866 -0.3003 -0.5735  0.1206
    1SOL     OW 4113   1.151   2.044   2.034 -0.8367 -0.4618  0.1958
    1SOL    HW2 4114   1.139   2.137   2.014  0.2047  0.0477  1.7538
    1SOL    HW3 4115   1.070   2.002   2.007 -2.1032  1.2314  1.2451
    1SOL    MW4 4116   1.139   2.051   2.028 -0.8663 -0.1712  0.5400
    1SOL     OW 4117   1.119   2.304   1.967 -0.1188  0.4970  0.0211
    1SOL    HW2 4118   1.202   2.341   1.998  1.7215 -2.8839 -0.5955
    1SOL    HW3 4119   1.122   2.315   1.872 -1.0092  1.5829  0.1172
    1SOL    MW4 4120   1.131   2.310   1.959  0.0064  0.1943 -0.0476
    1SOL     OW 4121   0.918   2.484   2.005 -0.1188  0.1700  0.4884
    1SOL    HW2 4122   0.990   2.421   2.004  0.3775  0.7335 -0.1439
    1SOL    HW3 4123   0.842   2.434   1.977  0.4116 -0.0073 -0.6621
    1SOL    MW4 4124   0.917   2.469   2.001  0.0167  0.2213  0.2532
    1SOL     OW 4125   0.937   2.750   1.953  0.6294 -0.3505 -0.0810
    1SOL    HW2 4126   0.923   2.659   1.980 -0.5928 -1.1559 -3.2084
    1SOL    HW3 4127   0.852   2.791   1.967  0.4623 -0.3570 -1.0280
    1SOL    MW4 4128   0.924   2.743   1.959  0.4461 -0.4575 -0.6186
    1SOL     OW 4129   1.159   2.901   2.006 -0.8900  0.0294 -0.2094
    1SOL    HW2 4130   1.161   2.904   2.101  0.0149 -1.3198 -0.1691
    1SOL    HW3 4131   1.078   2.855   1.985 -3.2592  4.0172 -0.2413
    1SOL    MW4 4132   1.149   2.895   2.015 -1.0833  0.3774 -0.2084
    1SOL     OW 4133   1.161   3.153   1.894  0.2928  0.1413 -0.2057
    1SOL    HW2 4134   1.078   3.189   1.925 -0.8836 -1.2254 -1.6389
    1SOL    HW3 4135   1.168   3.067   1.936  1.1026  0.3424  0.0874
    1SOL    MW4 4136   1.151   3.147   1.903  0.2444 -0.0124 -0.3561
    1SOL     OW 4137   0.920   3.243   2.026 -0.0908  0.2619 -0.1322
    1SOL    HW2 4138   0.901   3.258   2.119  0.8135  2.1772 -0.2303
    1SOL    HW3 4139   0.837   3.214   1.989 -1.0657  1.7588  0.8148
    1SOL    MW4 4140   0.907   3.241   2.033 -0.1001  0.7119 -0.0203
    1SOL     OW 4141   0.896   3.498   1.932 -0.0038  0.3049 -0.3990
    1SOL    HW2 4142   0.901   3.408   1.965 -0.4316  0.7161  0.7787
    1SOL    HW3 4143   0.908   3.489   1.837 -3.3307 -1.3532 -0.7357
    1SOL    MW4 4144   0.898   3.485   1.924 -0.4991  0.1404 -0.2881
    1SOL     OW 4145   1.134   3.632   2.024 -0.1058 -0.1607 -0.0849
    1SOL    HW2 4146   1.132   3.620   2.119 -0.9143  0.5348 -0.0145
    1SOL    HW3 4147   1.053   3.593   1.993  1.2778 -2.6039 -0.7702
    1SOL    MW4 4148   1.123   3.625   2.033 -0.0299 -0.3912 -0.1659
    1SOL     OW 4149   1.132   3.895   1.953 -0.2309  0.0295 -0.1904
    1SOL    HW2 4150   1.125   3.805   1.985 -0.1758  0.1436  0.1473
    1SOL    HW3 4151   1.115   3.889   1.859  0.5708 -0.4458 -0.3068
    1SOL    MW4 4152   1.129   3.882   1.945 -0.1177 -0.0181 -0.1612
    1SOL     OW 4153   0.943   4.050   2.065 -0.1521  0.0622 -0.3446
    1SOL    HW2 4154   0.948   4.046   2.160 -0.3550 -2.1105 -0.4096
    1SOL    HW3 4155   1.011   3.990   2.034 -0.8690 -0.1593 -1.5418
    1SOL    MW4 4156   0.952   4.042   2.073 -0.2735 -0.2542 -0.5109
    1SOL     OW 4157   0.861   4.276   1.941  0.2309  0.5407 -0.4652
    1SOL    HW2 4158   0.936   4.325   1.976  0.5607  0.4704 -1.0678
    1SOL    HW3 4159   0.867   4.190   1.983 -0.2182  0.9359  0.4217
    1SOL    MW4 4160   0.872   4.271   1.951  0.2151  0.5841 -0.4276
    1SOL     OW 4161   1.083   4.396   2.038  0.2130 -0.4776 -0.0189
    1SOL    HW2 4162   1.079   4.404   2.134  0.5836 -1.0724  0.0512
    1SOL    HW3 4163   1.173   4.369   2.020 -0.3036 -2.0511 -0.3954
    1SOL    MW4 4164   1.094   4.393   2.049  0.1937 -0.7639 -0.0596
    1SOL     OW 4165   1.584   0.022   1.946 -0.0844  0.3653  0.1887
    1SOL    HW2 4166   1.656   0.073   1.983 -0.2349  0.7929 -0.0979
    1SOL    HW3 4167   1.592  -0.064   1.986  0.9543  0.2253 -0.3253
    1SOL    MW4 4168   1.594   0.018   1.957  0.0328  0.4034  0.0830
    1SOL     OW 4169   1.340   0.089   2.048 -0.3838  0.6541 -0.3894
    1SOL    HW2 4170   1.347   0.088   2.143 -0.1791 -2.9031 -0.3720
    1SOL    HW3 4171   1.429   0.076   2.017 -0.7242 -0.3186 -0.9988
    1SOL    MW4 4172   1.353   0.087   2.056 -0.4016  0.0564 -0.4673
    1SOL     OW 4173   1.345   0.359   1.986  0.0797 -0.0442 -0.3892
    1SOL    HW2 4174   1.331   0.264   1.994  1.1009 -0.2349 -0.8156
    1SOL    HW3 4175   1.356   0.373   1.892  0.7945  0.3788 -0.2387
    1SOL    MW4 4176   1.345   0.348   1.974  0.3088 -0.0135 -0.4255
    1SOL     OW 4177   1.580   0.526   2.050  0.5976  0.0735 -0.3010
    1SOL    HW2 4178   1.650   0.479   2.004  0.8347  1.5119 -1.4205
    1SOL    HW3 4179   1.502   0.473   2.035  1.3250 -1.2648  0.5149
    1SOL    MW4 4180   1.579   0.513   2.042  0.7248  0.0866 -0.3407
    1SOL     OW 4181   1.532   0.770   1.925  0.2401 -0.1626  0.4260
    1SOL    HW2 4182   1.597   0.834   1.954  0.4560  0.1851 -0.7975
    1SOL    HW3 4183   1.558   0.688   1.967  2.6012 -0.4741 -1.5774
    1SOL    MW4 4184   1.544   0.768   1.935  0.5801 -0.1578  0.0002
    1SOL     OW 4185   1.305   0.889   2.015 -0.8719  0.1387 -0.1863
    1SOL    HW2 4186   1.321   0.876   2.109  0.9290  0.8802 -0.3706
    1SOL    HW3 4187   1.384   0.854   1.973 -1.1317  0.9387 -1.3549
    1SOL    MW4 4188   1.318   0.882   2.022 -0.6686  0.3420 -0.3648
    1SOL     OW 4189   1.326   1.152   1.941  0.1061 -0.2902  0.7551
    1SOL    HW2 4190   1.323   1.062   1.973 -0.8330 -0.9835 -1.1834
    1SOL    HW3 4191   1.251   1.195   1.981  0.3987 -0.4358  1.4677
    1SOL    MW4 4192   1.316   1.146   1.950  0.0207 -0.4010  0.5932
    1SOL     OW 4193   1.558   1.271   2.016 -0.0964 -0.1597  0.1726
    1SOL    HW2 4194   1.551   1.356   1.973 -2.2862  0.0809  0.9116
    1SOL    HW3 4195   1.482   1.222   1.983 -0.0405 -1.0555  1.3624
    1SOL    MW4 4196   1.547   1.276   2.006 -0.3778 -0.2462  0.4270
    1SOL     OW 4197   1.541   1.519   1.909  0.3958 -0.0891 -0.2674
    1SOL    HW2 4198   1.617   1.559   1.951 -0.6735  0.9851  0.7109
    1SOL    HW3 4199   1.468   1.577   1.932 -1.2047 -2.5366  1.1118
    1SOL    MW4 4200   1.541   1.532   1.918  0.0434 -0.2704  0.0436
    1SOL     OW 4201   1.352   1.675   2.029 -0.0608  0.5276 -0.2575
    1SOL    HW2 4202   1.346   1.640   2.118  1.1715 -1.8120 -1.0692
    1SOL    HW3 4203   1.271   1.648   1.987  0.9343 -1.5095 -0.9144
    1SOL    MW4 4204   1.341   1.667   2.035  0.2332 -0.0498 -0.4511
    1SOL     OW 4205   1.379   1.931   1.938  0.5127 -0.4229 -0.1825
    1SOL    HW2 4206   1.379   1.841   1.971  0.6077  0.1988  1.6059
    1SOL    HW3 4207   1.293   1.965   1.965  0.3348 -0.0843 -1.1704
    1SOL    MW4 4208   1.367   1.923   1.946  0.5018 -0.2962 -0.0769
    1SOL     OW 4209   1.594   2.042   2.035  0.1134  0.1296 -0.0574
    1SOL    HW2 4210   1.593   2.132   2.004 -1.2566  0.2937  0.4208
    1SOL    HW3 4211   1.518   2.001   1.992 -0.7895 -0.0932  1.6824
    1SOL    MW4 4212   1.584   2.048   2.025 -0.1864  0.1218  0.2351
    1SOL     OW 4213   1.587   2.297   1.962  0.1309  0.4424 -0.3273
    1SOL    HW2 4214   1.673   2.339   1.972  0.8992 -0.8063 -1.5117
    1SOL    HW3 4215   1.559   2.321   1.874  0.1759 -0.7648 -0.6832
    1SOL    MW4 4216   1.595   2.306   1.952  0.2382  0.1185 -0.5306
    1SOL     OW 4217   1.346   2.430   2.054 -0.4992  0.4460 -0.4134
    1SOL    HW2 4218   1.346   2.503   1.993 -0.8774 -0.1775 -1.1754
    1SOL    HW3 4219   1.433   2.391   2.045 -0.8951 -0.2523 -1.3080
    1SOL    MW4 4220   1.357   2.434   2.045 -0.6013  0.2716 -0.6320
    1SOL     OW 4221   1.347   2.670   1.929 -0.0934  0.2852  0.0085
    1SOL    HW2 4222   1.283   2.731   1.965 -0.6728  0.6606 -1.6144
    1SOL    HW3 4223   1.350   2.690   1.836  1.4713 -0.5792 -0.1517
    1SOL    MW4 4224   1.339   2.680   1.922  0.0366  0.2208 -0.2266
    1SOL     OW 4225   1.584   2.836   2.013 -0.0703 -0.1779 -0.0100
    1SOL    HW2 4226   1.556   2.859   2.102  0.2831 -0.6613  0.2272
    1SOL    HW3 4227   1.504   2.807   1.969  0.0925 -1.9297  0.7840
    1SOL    MW4 4228   1.570   2.835   2.019 -0.0023 -0.4728  0.1259
    1SOL     OW 4229   1.585   3.115   1.961  0.6436  0.2097 -0.2225
    1SOL    HW2 4230   1.588   3.020   1.973  2.9649  0.2749  0.0072
    1SOL    HW3 4231   1.573   3.127   1.867 -1.0843 -0.2957 -0.0784
    1SOL    MW4 4232   1.584   3.104   1.950  0.7219  0.1516 -0.1731
    1SOL     OW 4233   1.355   3.222   2.068 -0.0957  0.4536  0.3102
    1SOL    HW2 4234   1.434   3.180   2.032  1.4695  2.7768  0.8943
    1SOL    HW3 4235   1.287   3.205   2.003  1.6291  0.8767 -1.6747
    1SOL    MW4 4236   1.357   3.214   2.055  0.3382  0.8159  0.1249
    1SOL     OW 4237   1.372   3.487   1.994 -0.2735 -0.2872 -0.4479
    1SOL    HW2 4238   1.363   3.398   2.027 -0.3808  0.0088  0.3397
    1SOL    HW3 4239   1.286   3.527   2.010  0.0412  0.2149 -0.0259
    1SOL    MW4 4240   1.359   3.481   2.000 -0.2462 -0.1819 -0.2882
    1SOL     OW 4241   1.607   3.613   2.099 -0.0229  0.2008  0.6540
    1SOL    HW2 4242   1.593   3.620   2.193 -0.2699 -0.7231  0.6919
    1SOL    HW3 4243   1.525   3.577   2.065  0.4534 -0.5166  0.2375
    1SOL    MW4 4244   1.594   3.609   2.107  0.0074 -0.0160  0.6039
    1SOL     OW 4245   1.633   3.853   1.938  0.1090 -0.1317 -0.2672
    1SOL    HW2 4246   1.702   3.910   1.974  0.6439  0.2889 -1.8791
    1SOL    HW3 4247   1.631   3.778   1.997  0.9336  0.5455  0.6500
    1SOL    MW4 4248   1.642   3.851   1.951  0.2884  0.0134 -0.3587
    1SOL     OW 4249   1.379   4.017   2.025 -0.3313 -0.1513  0.0441
    1SOL    HW2 4250   1.434   3.946   1.992  0.6556 -0.4303  2.2199
    1SOL    HW3 4251   1.290   3.981   2.025  0.2024 -1.4889  1.4098
    1SOL    MW4 4252   1.375   4.003   2.020 -0.1308 -0.3648  0.5114
    1SOL     OW 4253   1.347   4.299   1.960 -0.3293  0.5650 -0.1323
    1SOL    HW2 4254   1.371   4.208   1.979  4.1696  1.7371  0.3684
    1SOL    HW3 4255   1.332   4.301   1.866 -0.8685 -0.7423 -0.0935
    1SOL    MW4 4256   1.348   4.287   1.950  0.1932  0.5474 -0.0610
    1SOL     OW 4257   1.572   4.442   2.073  0.2545 -0.2619 -0.5284
    1SOL    HW2 4258   1.574   4.421   2.167 -0.7252  3.0039  0.2803
    1SOL    HW3 4259   1.491   4.403   2.042 -0.0913 -0.1932  0.2721
    1SOL    MW4 4260   1.562   4.434   2.082  0.0795  0.1783 -0.3159
    1SOL     OW 4261   2.013   4.659   1.955  0.0151 -0.1640 -0.6805
    1SOL    HW2 4262   2.096   4.697   1.982 -0.3928  1.2956 -1.3644
    1SOL    HW3 4263   2.013   4.571   1.991  1.5332  0.0780 -0.0545
    1SOL    MW4 4264   2.024   4.653   1.963  0.1616  0.0606 -0.6882
    1SOL     OW 4265   1.789   0.147   2.040  0.0058 -0.1921 -0.7354
    1SOL    HW2 4266   1.790   0.132   2.134  0.8581  0.7135 -0.5877
    1SOL    HW3 4267   1.855   0.087   2.005  0.3893  0.1638 -0.6327
    1SOL    MW4 4268   1.798   0.137   2.048  0.1688 -0.0257 -0.7024
    1SOL     OW 4269   1.775   0.395   1.929 -0.2086 -0.4085  0.0674
    1SOL    HW2 4270   1.782   0.307   1.966 -0.9430 -0.1216  0.8830
    1SOL    HW3 4271   1.766   0.380   1.835  1.3860 -1.1436  0.0125
    1SOL    MW4 4272   1.775   0.381   1.921 -0.0951 -0.4676  0.1678
    1SOL     OW 4273   2.019   0.484   2.023 -0.3969  0.3738  0.0666
    1SOL    HW2 4274   2.008   0.574   1.991  0.8583  0.2898 -0.6159
    1SOL    HW3 4275   1.939   0.439   1.995 -0.4268  0.9340 -0.7768
    1SOL    MW4 4276   2.007   0.490   2.015 -0.2356  0.4367 -0.1347
    1SOL     OW 4277   1.984   0.759   1.924 -0.1048 -0.0783  0.2042
    1SOL    HW2 4278   2.066   0.797   1.954 -0.8677  1.3917  0.4508
    1SOL    HW3 4279   1.997   0.743   1.830 -1.0272  4.2685 -0.7625
    1SOL    MW4 4280   1.997   0.762   1.916 -0.3272  0.6891  0.1092
    1SOL     OW 4281   1.749   0.912   2.013  0.6432 -0.5169 -0.2881
    1SOL    HW2 4282   1.771   0.993   1.968  0.0235 -0.6738 -0.8704
    1SOL    HW3 4283   1.814   0.848   1.982  0.7617 -0.4013 -0.2787
    1SOL    MW4 4284   1.761   0.914   2.003  0.5771 -0.5223 -0.3638
    1SOL     OW 4285   1.773   1.151   1.891  0.3346  0.1796 -0.4299
    1SOL    HW2 4286   1.689   1.184   1.921  0.8034  1.6017 -0.6381
    1SOL    HW3 4287   1.765   1.145   1.796  0.0512 -0.9162 -0.3491
    1SOL    MW4 4288   1.761   1.154   1.882  0.3589  0.2228 -0.4468
    1SOL     OW 4289   1.986   1.247   2.024 -0.0050 -0.1894 -0.1181
    1SOL    HW2 4290   2.066   1.219   1.978  0.3434  0.5388  0.0496
    1SOL    HW3 4291   1.915   1.204   1.976  0.4337 -0.2690 -0.6987
    1SOL    MW4 4292   1.987   1.237   2.012  0.0987 -0.1038 -0.1726
    1SOL     OW 4293   2.016   1.518   1.942  0.1202  0.0045 -0.0736
    1SOL    HW2 4294   1.995   1.434   1.984  0.5960 -0.2981 -0.4352
    1SOL    HW3 4295   2.012   1.500   1.848  0.0128  0.4435 -0.1541
    1SOL    MW4 4296   2.013   1.505   1.935  0.1690  0.0224 -0.1320
    1SOL     OW 4297   1.767   1.642   2.019 -0.1319  0.3365 -0.1237
    1SOL    HW2 4298   1.792   1.733   2.002 -0.8340  0.3970 -0.8591
    1SOL    HW3 4299   1.846   1.591   2.005  0.0245  0.7269 -0.6612
    1SOL    MW4 4300   1.781   1.647   2.015 -0.2038  0.3959 -0.2918
    1SOL     OW 4301   1.836   1.898   1.948 -0.0101  0.2519  0.0291
    1SOL    HW2 4302   1.754   1.942   1.970  0.8816  1.9455  0.0747
    1SOL    HW3 4303   1.836   1.893   1.853  0.0877  0.7468  0.0037
    1SOL    MW4 4304   1.825   1.903   1.939  0.1205  0.5407  0.0318
    1SOL     OW 4305   2.055   1.995   2.083 -0.0226  0.0593 -0.0059
    1SOL    HW2 4306   2.135   1.984   2.032  0.0620 -1.6213  0.4558
    1SOL    HW3 4307   1.987   1.951   2.031 -0.2763 -0.1049  0.4582
    1SOL    MW4 4308   2.056   1.987   2.069 -0.0448 -0.1841  0.1163
    1SOL     OW 4309   2.039   2.247   1.960 -0.4997  0.5027  0.2023
    1SOL    HW2 4310   2.121   2.292   1.978 -0.4245  0.7546 -0.7645
    1SOL    HW3 4311   2.044   2.167   2.012 -0.7612  1.7175  2.1824
    1SOL    MW4 4312   2.050   2.243   1.969 -0.5240  0.6964  0.3361
    1SOL     OW 4313   1.823   2.424   2.005  0.0168 -0.5978  0.3108
    1SOL    HW2 4314   1.804   2.428   2.098  4.0746  0.9281  1.1725
    1SOL    HW3 4315   1.895   2.361   1.997 -0.5088 -0.9813 -1.8440
    1SOL    MW4 4316   1.830   2.416   2.016  0.4828 -0.4470  0.1402
    1SOL     OW 4317   1.828   2.690   1.944  0.3615 -0.4942 -0.0064
    1SOL    HW2 4318   1.819   2.597   1.963 -0.4853 -0.4549 -0.1836
    1SOL    HW3 4319   1.752   2.730   1.987 -0.6389 -0.1957 -2.0064
    1SOL    MW4 4320   1.817   2.683   1.952  0.1178 -0.4497 -0.2937
    1SOL     OW 4321   2.066   2.820   2.039  0.3784 -0.2750 -0.6867
    1SOL    HW2 4322   2.056   2.822   2.134  0.8245  0.0979 -0.6513
    1SOL    HW3 4323   1.988   2.772   2.009  0.2634 -0.4446 -0.1344
    1SOL    MW4 4324   2.054   2.814   2.048  0.4222 -0.2484 -0.6092
    1SOL     OW 4325   2.031   3.079   1.943 -1.0025 -0.6500  0.0392
    1SOL    HW2 4326   1.956   3.119   1.987  0.3724  0.7312  1.1517
    1SOL    HW3 4327   2.045   2.997   1.990 -0.6024  0.0168  1.0933
    1SOL    MW4 4328   2.023   3.073   1.955 -0.7682 -0.3798  0.3250
    1SOL     OW 4329   1.825   3.241   2.056 -0.6963  0.3569 -0.3770
    1SOL    HW2 4330   1.828   3.239   2.152  0.8875  0.1037 -0.4063
    1SOL    HW3 4331   1.741   3.203   2.033 -0.5999 -0.6519  0.8936
    1SOL    MW4 4332   1.815   3.236   2.066 -0.4747  0.1900 -0.2131
    1SOL     OW 4333   1.762   3.455   1.925  0.2274 -0.2276  0.2191
    1SOL    HW2 4334   1.782   3.381   1.982 -0.6069 -0.4137  0.2760
    1SOL    HW3 4335   1.709   3.513   1.979 -0.8307 -0.5527 -0.4526
    1SOL    MW4 4336   1.758   3.453   1.939 -0.0223 -0.2952  0.1382
    1SOL     OW 4337   1.988   3.588   2.032  0.1164 -0.3596 -0.0157
    1SOL    HW2 4338   1.982   3.679   2.003 -0.2226 -0.4423 -0.2123
    1SOL    HW3 4339   1.900   3.553   2.018  0.0818 -0.5414  0.6377
    1SOL    MW4 4340   1.975   3.595   2.027  0.0670 -0.3943  0.0446
    1SOL     OW 4341   1.997   3.845   1.913 -0.3851  0.4125  0.4074
    1SOL    HW2 4342   2.082   3.870   1.948 -0.0761  0.5073 -0.3994
    1SOL    HW3 4343   1.998   3.875   1.822 -0.4809 -1.4115 -0.2195
    1SOL    MW4 4344   2.008   3.852   1.905 -0.3569  0.1848  0.2182
    1SOL     OW 4345   1.829   4.021   2.053 -0.2126 -0.2786  0.3643
    1SOL    HW2 4346   1.809   4.104   2.009 -1.2995 -1.3424 -1.2071
    1SOL    HW3 4347   1.896   3.980   1.998  0.6607 -0.2429  1.3920
    1SOL    MW4 4348   1.835   4.027   2.040 -0.2409 -0.4144  0.2925
    1SOL     OW 4349   1.763   4.262   1.962 -0.1240 -0.1264 -0.5108
    1SOL    HW2 4350   1.700   4.330   1.985 -0.7486 -0.1436 -2.1156
    1SOL    HW3 4351   1.771   4.267   1.867  0.4436 -1.7410 -0.5732
    1SOL    MW4 4352   1.756   4.271   1.953 -0.1315 -0.3419 -0.7309
    1SOL     OW 4353   1.983   4.394   2.054  0.2405  0.0203 -0.2994
    1SOL    HW2 4354   2.058   4.347   2.016  0.4186  0.2789 -0.2630
    1SOL    HW3 4355   1.907   4.347   2.020  0.4246 -0.5251  0.0230
    1SOL    MW4 4356   1.983   4.381   2.044  0.2881 -0.0172 -0.2520
    1SOL     OW 4357   2.482   4.600   1.909 -0.0735  0.0060 -0.1813
    1SOL    HW2 4358   2.556   4.638   1.955 -1.1133  1.1514  0.6061
    1SOL    HW3 4359   2.474   4.511   1.943 -0.3135  0.5681  1.2573
    1SOL    MW4 4360   2.491   4.594   1.919 -0.2425  0.2313  0.1124
    1SOL     OW 4361   2.280   0.114   2.013  0.0160 -0.2145  0.0756
    1SOL    HW2 4362   2.269   0.095   2.106  2.6607  1.4471  0.7835
    1SOL    HW3 4363   2.349   0.054   1.984 -0.4665 -0.4027 -0.7056
    1SOL    MW4 4364   2.288   0.104   2.021  0.3011 -0.0201  0.0656
    1SOL     OW 4365   2.232   0.369   1.878 -0.0922  0.1257 -0.4683
    1SOL    HW2 4366   2.235   0.280   1.913 -0.8314 -0.2381 -1.3120
    1SOL    HW3 4367   2.160   0.412   1.924  0.8742  0.5966  0.6306
    1SOL    MW4 4368   2.223   0.363   1.888 -0.0620  0.1399 -0.4345
    1SOL     OW 4369   2.464   0.486   1.998 -0.1650  0.2658  0.1832
    1SOL    HW2 4370   2.543   0.436   1.975  0.2128  0.8217  0.2580
    1SOL    HW3 4371   2.393   0.438   1.957  0.5514  1.5064 -2.6503
    1SOL    MW4 4372   2.465   0.473   1.989 -0.0205  0.5028 -0.1807
    1SOL     OW 4373   2.465   0.761   1.922 -0.2364 -0.2581  0.0193
    1SOL    HW2 4374   2.455   0.669   1.944  0.4066 -0.5617 -0.9548
    1SOL    HW3 4375   2.451   0.765   1.828 -0.1200  0.6197  0.0357
    1SOL    MW4 4376   2.462   0.750   1.913 -0.1366 -0.1823 -0.1072
    1SOL     OW 4377   2.223   0.889   2.017  0.0331  0.3052 -0.4190
    1SOL    HW2 4378   2.212   0.882   2.111 -0.3129  2.2007 -0.3049
    1SOL    HW3 4379   2.301   0.836   1.997 -0.9786 -1.6433  0.6484
    1SOL    MW4 4380   2.232   0.881   2.027 -0.1459  0.2981 -0.2632
    1SOL     OW 4381   2.221   1.141   1.926 -0.1626  0.4009 -0.0036
    1SOL    HW2 4382   2.290   1.194   1.966 -0.8924  1.2164  0.2149
    1SOL    HW3 4383   2.226   1.057   1.970 -0.2811  0.9513  1.0909
    1SOL    MW4 4384   2.231   1.137   1.937 -0.2747  0.5810  0.1696
    1SOL     OW 4385   2.424   1.292   2.056  0.2208 -0.4023  0.0740
    1SOL    HW2 4386   2.449   1.298   2.149 -1.4155  0.5443  0.4780
    1SOL    HW3 4387   2.437   1.381   2.023  1.1104 -0.8151 -0.6972
    1SOL    MW4 4388   2.429   1.305   2.064  0.1223 -0.3318  0.0255
    1SOL     OW 4389   2.484   1.541   1.958 -0.5262 -0.2777 -0.6327
    1SOL    HW2 4390   2.403   1.589   1.977 -0.6802 -0.5239 -0.6642
    1SOL    HW3 4391   2.480   1.525   1.864  0.7361  1.8556 -1.0625
    1SOL    MW4 4392   2.472   1.545   1.948 -0.3798 -0.0286 -0.6936
    1SOL     OW 4393   2.239   1.665   2.028  0.2293 -0.0268 -0.6069
    1SOL    HW2 4394   2.231   1.667   2.123 -0.0941  1.1477 -0.6480
    1SOL    HW3 4395   2.167   1.609   1.999  0.4778 -0.5927 -0.1533
    1SOL    MW4 4396   2.229   1.658   2.037  0.2196  0.0534 -0.5524
    1SOL     OW 4397   2.258   1.913   1.911  0.3521  0.0601  0.0919
    1SOL    HW2 4398   2.339   1.957   1.937  0.3059 -0.2788  0.7849
    1SOL    HW3 4399   2.253   1.835   1.965 -1.2717  0.9192  1.2308
    1SOL    MW4 4400   2.268   1.909   1.921  0.1318  0.1287  0.3337
    1SOL     OW 4401   2.486   2.044   2.026  0.1527 -0.1636  0.3502
    1SOL    HW2 4402   2.577   2.015   2.023 -0.0983 -0.8871 -1.5495
    1SOL    HW3 4403   2.488   2.135   1.999  0.2864 -0.3068 -0.1364
    1SOL    MW4 4404   2.498   2.052   2.022  0.1373 -0.2780  0.0355
    1SOL     OW 4405   2.488   2.317   1.969 -0.3934 -0.0910  0.2638
    1SOL    HW2 4406   2.571   2.346   2.007 -1.5642  1.9664  1.3389
    1SOL    HW3 4407   2.421   2.364   2.019 -2.2489 -2.2533 -0.1267
    1SOL    MW4 4408   2.490   2.327   1.981 -0.7930 -0.1049  0.3542
    1SOL     OW 4409   2.244   2.419   2.046  0.0531  0.2912 -0.3190
    1SOL    HW2 4410   2.222   2.433   2.138 -1.4169 -0.1452 -0.6040
    1SOL    HW3 4411   2.252   2.507   2.010 -0.4555  0.4512 -0.0420
    1SOL    MW4 4412   2.242   2.432   2.054 -0.2079  0.2549 -0.3202
    1SOL     OW 4413   2.278   2.693   1.943  0.4631 -0.1243  0.0551
    1SOL    HW2 4414   2.199   2.743   1.965  1.0131  0.9138 -0.2697
    1SOL    HW3 4415   2.277   2.688   1.847  0.3117 -0.9024  0.0990
    1SOL    MW4 4416   2.268   2.699   1.933  0.5155 -0.0899  0.0180
    1SOL     OW 4417   2.498   2.805   2.064  0.1744  0.4515 -0.0087
    1SOL    HW2 4418   2.486   2.896   2.037 -0.4746 -0.1039 -1.6871
    1SOL    HW3 4419   2.416   2.762   2.038 -0.1601 -0.3101  2.1823
    1SOL    MW4 4420   2.485   2.811   2.057  0.0446  0.2780  0.0591
    1SOL     OW 4421   2.445   3.056   1.947  0.2233  0.8657 -0.3665
    1SOL    HW2 4422   2.373   3.116   1.963  0.2471  0.7738  0.0752
    1SOL    HW3 4423   2.451   3.051   1.851 -0.1526  1.1125 -0.4022
    1SOL    MW4 4424   2.437   3.063   1.936  0.1767  0.8864 -0.3129
    1SOL     OW 4425   2.236   3.231   2.050 -0.1052 -0.3859  0.3959
    1SOL    HW2 4426   2.244   3.211   2.143  1.2664  0.4198  0.4581
    1SOL    HW3 4427   2.167   3.173   2.019 -0.0758 -1.1642  1.7652
    1SOL    MW4 4428   2.228   3.221   2.058  0.0796 -0.3822  0.5848
    1SOL     OW 4429   2.217   3.489   1.955  0.4566 -0.0364 -0.0528
    1SOL    HW2 4430   2.206   3.397   1.976  0.4464 -0.0330 -0.0449
    1SOL    HW3 4431   2.131   3.528   1.970  0.3202 -0.1303 -0.5777
    1SOL    MW4 4432   2.204   3.482   1.959  0.4370 -0.0482 -0.1210
    1SOL     OW 4433   2.443   3.604   2.042 -0.2682  0.2443 -0.1771
    1SOL    HW2 4434   2.440   3.601   2.137  1.5807 -1.6434 -0.1349
    1SOL    HW3 4435   2.372   3.547   2.013 -0.4899  0.3991  0.0606
    1SOL    MW4 4436   2.434   3.596   2.051 -0.0534  0.0157 -0.1402
    1SOL     OW 4437   2.488   3.873   1.947 -0.0865  0.2381 -0.5064
    1SOL    HW2 4438   2.408   3.922   1.967 -0.0602  1.2703 -2.8142
    1SOL    HW3 4439   2.471   3.785   1.981 -1.3399  1.0010  0.9484
    1SOL    MW4 4440   2.475   3.868   1.954 -0.2482  0.4747 -0.6189
    1SOL     OW 4441   2.232   3.967   2.020  0.4799 -0.0005  0.1112
    1SOL    HW2 4442   2.216   3.979   2.113  0.4543  1.1668 -0.0410
    1SOL    HW3 4443   2.211   4.052   1.980  0.0772 -0.6081 -1.0084
    1SOL    MW4 4444   2.227   3.980   2.027  0.4237  0.0734 -0.0563
    1SOL     OW 4445   2.191   4.256   1.942 -0.3933  0.4880 -0.4378
    1SOL    HW2 4446   2.273   4.280   1.984  0.0046 -1.4086 -0.0905
    1SOL    HW3 4447   2.204   4.275   1.850  0.6047 -0.2335 -0.4504
    1SOL    MW4 4448   2.203   4.262   1.936 -0.2091  0.1431 -0.3936
    1SOL     OW 4449   2.446   4.356   2.037  0.3906  0.5156  0.6793
    1SOL    HW2 4450   2.447   4.365   2.132  1.9466 -0.9773  0.8195
    1SOL    HW3 4451   2.538   4.343   2.013 -0.1259 -0.3197 -0.9096
    1SOL    MW4 4452   2.458   4.356   2.046  0.5279  0.2084  0.4883
    1SOL     OW 4453   2.950   4.655   1.917  0.0298  0.1133  0.1619
    1SOL    HW2 4454   3.034   4.688   1.950  0.2783  0.5809 -0.8954
    1SOL    HW3 4455   2.946   4.564   1.946  0.8152  0.1487  0.3810
    1SOL    MW4 4456   2.961   4.647   1.925  0.1662  0.1793  0.0513
    1SOL     OW 4457   2.702   0.064   2.006  0.1538  0.3814  0.0441
    1SOL    HW2 4458   2.711   0.087   2.098  1.8950  2.4901 -0.6006
    1SOL    HW3 4459   2.791   0.044   1.977 -0.5910 -1.8255 -0.8053
    1SOL    MW4 4460   2.715   0.064   2.014  0.2856  0.3684 -0.1528
    1SOL     OW 4461   2.699   0.341   1.929  0.4348  0.1319 -0.0015
    1SOL    HW2 4462   2.773   0.379   1.976  0.8970  0.5276 -1.0471
    1SOL    HW3 4463   2.698   0.249   1.956  1.0181  0.2366  0.3784
    1SOL    MW4 4464   2.709   0.334   1.939  0.5727  0.1980 -0.0893
    1SOL     OW 4465   2.929   0.445   2.032  0.5274 -0.3299 -0.4281
    1SOL    HW2 4466   3.002   0.415   1.979  1.0653 -0.1617  0.2109
    1SOL    HW3 4467   2.928   0.540   2.019  1.8889 -0.0436  1.3848
    1SOL    MW4 4468   2.938   0.454   2.023  0.7780 -0.2700 -0.1049
    1SOL     OW 4469   2.884   0.717   1.997 -0.0621  0.3055 -0.1048
    1SOL    HW2 4470   2.961   0.766   2.027 -0.7773  0.2660  1.8985
    1SOL    HW3 4471   2.810   0.774   2.020 -0.8113 -1.0666  0.9240
    1SOL    MW4 4472   2.885   0.731   2.004 -0.2551  0.1193  0.2952
    1SOL     OW 4473   2.670   0.867   2.086 -0.3140 -0.2739 -0.0166
    1SOL    HW2 4474   2.660   0.957   2.054 -0.9534  0.2662  1.6381
    1SOL    HW3 4475   2.609   0.816   2.033 -0.3099  0.3527 -0.6337
    1SOL    MW4 4476   2.660   0.872   2.075 -0.3979 -0.1199  0.1204
    1SOL     OW 4477   2.664   1.142   1.983 -0.1139 -0.4600  0.3033
    1SOL    HW2 4478   2.589   1.196   2.007 -0.1604 -0.7455  0.7973
    1SOL    HW3 4479   2.662   1.141   1.887 -0.6267 -0.3077  0.3074
    1SOL    MW4 4480   2.654   1.149   1.973 -0.1876 -0.4776  0.3690
    1SOL     OW 4481   2.896   1.265   2.066  0.2040  0.0577 -0.3343
    1SOL    HW2 4482   2.916   1.354   2.038  0.3980  0.5274  1.2668
    1SOL    HW3 4483   2.814   1.244   2.022 -0.3568  1.3918  0.0636
    1SOL    MW4 4484   2.888   1.274   2.057  0.1554  0.2956 -0.0706
    1SOL     OW 4485   2.916   1.528   1.964  0.1477 -0.2095 -0.2779
    1SOL    HW2 4486   2.995   1.577   1.987 -0.1176  0.5538 -0.9617
    1SOL    HW3 4487   2.913   1.532   1.868 -0.4110 -0.7211 -0.2799
    1SOL    MW4 4488   2.926   1.535   1.954  0.0389 -0.1764 -0.3684
    1SOL     OW 4489   2.704   1.665   2.072  0.1385 -0.0888  0.1080
    1SOL    HW2 4490   2.771   1.602   2.046  0.1326  0.7924 -2.0574
    1SOL    HW3 4491   2.628   1.643   2.019 -0.2212  1.0628  0.1354
    1SOL    MW4 4492   2.703   1.654   2.062  0.0904  0.1794 -0.1740
    1SOL     OW 4493   2.712   1.918   1.950  0.2362  0.3345 -0.4817
    1SOL    HW2 4494   2.799   1.955   1.962  0.8082 -0.0224 -3.3005
    1SOL    HW3 4495   2.718   1.829   1.986  1.3354 -0.0298 -1.5372
    1SOL    MW4 4496   2.724   1.911   1.956  0.4570  0.2394 -0.9929
    1SOL     OW 4497   2.949   2.010   2.044  0.0947 -0.1334  0.4243
    1SOL    HW2 4498   2.942   2.000   2.138 -1.7996 -0.3785  0.2658
    1SOL    HW3 4499   3.024   1.955   2.020  0.1656 -0.5994  1.6885
    1SOL    MW4 4500   2.958   2.001   2.053 -0.1462 -0.2275  0.5701
    1SOL     OW 4501   2.900   2.249   1.909  0.9233 -0.4980 -0.2157
    1SOL    HW2 4502   2.974   2.301   1.940 -0.3769  0.4179  1.4294
    1SOL    HW3 4503   2.900   2.170   1.964  0.0896 -0.0176  0.4973
    1SOL    MW4 4504   2.910   2.245   1.920  0.6416 -0.3140  0.0955
    1SOL     OW 4505   2.734   2.425   2.075 -0.0765 -0.0889  0.1934
    1SOL    HW2 4506   2.747   2.509   2.032 -1.5198  0.1786  0.2735
    1SOL    HW3 4507   2.804   2.370   2.040  0.3858  0.9060 -0.4707
    1SOL    MW4 4508   2.745   2.429   2.064 -0.2062  0.0777  0.1163
    1SOL     OW 4509   2.743   2.681   1.976  0.1176  0.3584 -0.6736
    1SOL    HW2 4510   2.655   2.717   1.992 -0.0137  0.0385 -0.6727
    1SOL    HW3 4511   2.740   2.650   1.885  0.6031  1.4193 -1.0642
    1SOL    MW4 4512   2.731   2.682   1.966  0.1645  0.4561 -0.7250
    1SOL     OW 4513   2.951   2.826   2.075 -0.5043  0.0601  0.1278
    1SOL    HW2 4514   2.937   2.913   2.036  0.0826  0.0609 -0.0910
    1SOL    HW3 4515   2.883   2.772   2.036 -1.3047  0.5821  0.7866
    1SOL    MW4 4516   2.940   2.831   2.065 -0.5324  0.1292  0.1857
    1SOL     OW 4517   2.928   3.084   1.967  0.0835 -0.2228  0.1400
    1SOL    HW2 4518   2.996   3.145   1.994  0.7322 -1.4567  1.3682
    1SOL    HW3 4519   2.848   3.117   2.008 -0.1561  1.4288 -1.5946
    1SOL    MW4 4520   2.927   3.097   1.976  0.1376 -0.1676  0.0733
    1SOL     OW 4521   2.670   3.208   2.021 -0.0974  0.1922  0.4226
    1SOL    HW2 4522   2.649   3.295   1.988  1.3094  0.2589 -0.3482
    1SOL    HW3 4523   2.602   3.151   1.985 -0.3842  0.7974  0.0081
    1SOL    MW4 4524   2.658   3.212   2.011  0.0501  0.2809  0.2661
    1SOL     OW 4525   2.669   3.486   1.917 -0.0272 -0.1776  0.4941
    1SOL    HW2 4526   2.748   3.516   1.962  0.0197  0.9874 -0.3472
    1SOL    HW3 4527   2.597   3.528   1.965 -0.0012  0.6864 -0.2087
    1SOL    MW4 4528   2.670   3.496   1.929 -0.0174  0.0901  0.2904
    1SOL     OW 4529   2.907   3.579   2.059  0.0908 -0.3337 -0.3181
    1SOL    HW2 4530   2.904   3.595   2.154  0.3615  2.3032 -0.7185
    1SOL    HW3 4531   2.998   3.558   2.042 -0.0422 -1.2493  0.0598
    1SOL    MW4 4532   2.918   3.578   2.070  0.1090 -0.1068 -0.3211
    1SOL     OW 4533   2.934   3.851   1.967  0.1064  0.0003 -0.5159
    1SOL    HW2 4534   2.923   3.759   1.991  0.0379  0.0900 -0.2086
    1SOL    HW3 4535   2.938   3.850   1.871  2.6119 -0.6119 -0.4425
    1SOL    MW4 4536   2.933   3.838   1.957  0.4277 -0.0684 -0.4658
    1SOL     OW 4537   2.709   4.007   2.050  0.4067  0.7623  0.4131
    1SOL    HW2 4538   2.796   3.968   2.038  1.0790  2.2098  0.5702
    1SOL    HW3 4539   2.650   3.946   2.004  1.2092 -1.3572  2.0970
    1SOL    MW4 4540   2.713   3.994   2.042  0.6013  0.6740  0.6559
    1SOL     OW 4541   2.707   4.271   1.938 -0.0448  0.0191  0.6125
    1SOL    HW2 4542   2.700   4.193   1.993 -2.4987 -0.3947 -0.2199
    1SOL    HW3 4543   2.727   4.237   1.851  1.0953  0.4806  0.6909
    1SOL    MW4 4544   2.708   4.256   1.934 -0.2184  0.0248  0.5130
    1SOL     OW 4545   2.930   4.397   2.027 -0.0033 -0.2859  0.3349
    1SOL    HW2 4546   2.917   4.406   2.121 -1.1245 -1.0702  0.2680
    1SOL    HW3 4547   2.851   4.353   1.996  0.7621 -0.8499 -0.8407
    1SOL    MW4 4548   2.918   4.393   2.035 -0.0503 -0.4635  0.1712
    1SOL     OW 4549   3.362   4.633   1.999 -0.4741  0.4319  0.2553
    1SOL    HW2 4550   3.365   4.546   2.039 -2.7174  0.3963  0.4412
    1SOL    HW3 4551   3.370   4.618   1.905 -0.9132  0.0179  0.2856
    1SOL    MW4 4552   3.363   4.620   1.992 -0.8283  0.3724  0.2840
    1SOL     OW 4553   3.173   0.130   2.062 -0.0862  0.4311  0.6011
    1SOL    HW2 4554   3.163   0.115   2.156 -0.5297 -0.7631  0.3805
    1SOL    HW3 4555   3.246   0.074   2.036 -0.3901  0.2437  0.1277
    1SOL    MW4 4556   3.181   0.121   2.071 -0.1850  0.2488  0.5093
    1SOL     OW 4557   3.179   0.384   1.924  0.1251 -0.4447 -0.0006
    1SOL    HW2 4558   3.178   0.298   1.966  1.4328 -0.8507 -0.7720
    1SOL    HW3 4559   3.164   0.365   1.831 -1.1977  0.3045  0.0538
    1SOL    MW4 4560   3.177   0.370   1.917  0.1233 -0.3994 -0.0951
    1SOL     OW 4561   3.386   0.506   2.080  0.0259 -0.0809 -0.1442
    1SOL    HW2 4562   3.472   0.490   2.041  0.3417 -0.4934  0.7064
    1SOL    HW3 4563   3.324   0.467   2.019  0.4920 -0.3978 -0.4171
    1SOL    MW4 4564   3.390   0.498   2.067  0.1287 -0.1771 -0.0679
    1SOL     OW 4565   3.400   0.749   1.967 -0.4955 -0.1738 -0.1394
    1SOL    HW2 4566   3.312   0.788   1.974 -0.2039  0.2139  1.7355
    1SOL    HW3 4567   3.389   0.661   2.001 -0.2496 -0.2845 -0.3473
    1SOL    MW4 4568   3.387   0.743   1.973 -0.4244 -0.1372  0.0805
    1SOL     OW 4569   3.131   0.838   2.022  0.1762  0.4890  0.0779
    1SOL    HW2 4570   3.142   0.856   2.115  1.4057  1.6692 -0.2832
    1SOL    HW3 4571   3.106   0.922   1.984 -0.2351  0.0345 -0.6869
    1SOL    MW4 4572   3.129   0.851   2.029  0.2842  0.5847 -0.0708
    1SOL     OW 4573   3.104   1.112   1.952  0.1496  0.0420  0.6119
    1SOL    HW2 4574   3.190   1.152   1.967  0.3834 -0.4680  0.6307
    1SOL    HW3 4575   3.043   1.169   1.999  0.4893  0.3351  0.7047
    1SOL    MW4 4576   3.107   1.125   1.960  0.2253  0.0134  0.6267
    1SOL     OW 4577   3.339   1.244   2.011 -0.1328  0.2692 -0.0757
    1SOL    HW2 4578   3.343   1.264   2.104 -2.7228  0.3119  0.0568
    1SOL    HW3 4579   3.335   1.329   1.968 -0.5731  0.2249 -0.1256
    1SOL    MW4 4580   3.339   1.258   2.017 -0.5326  0.2691 -0.0651
    1SOL     OW 4581   3.384   1.514   1.921 -0.4095 -0.1171  0.0581
    1SOL    HW2 4582   3.463   1.566   1.940 -0.3229  0.3453 -1.4807
    1SOL    HW3 4583   3.316   1.553   1.975 -0.3108  1.5502 -0.9790
    1SOL    MW4 4584   3.386   1.526   1.931 -0.3848  0.1638 -0.2817
    1SOL     OW 4585   3.174   1.648   2.065 -0.4513  0.2262  0.4842
    1SOL    HW2 4586   3.156   1.658   2.158  0.4014 -1.6583  0.8948
    1SOL    HW3 4587   3.171   1.737   2.029 -2.8793  0.7512  1.8930
    1SOL    MW4 4588   3.172   1.661   2.072 -0.6590  0.0467  0.7241
    1SOL     OW 4589   3.173   1.889   1.924  0.4051  0.0034 -0.6936
    1SOL    HW2 4590   3.240   1.952   1.948 -0.7118  0.3797  1.5452
    1SOL    HW3 4591   3.158   1.903   1.830  4.2637 -0.9089 -1.5156
    1SOL    MW4 4592   3.180   1.899   1.915  0.7670 -0.0672 -0.5066
    1SOL     OW 4593   3.361   2.070   2.013  0.1049  0.3078  0.3989
    1SOL    HW2 4594   3.444   2.023   2.003  0.9266  1.2272  2.5763
    1SOL    HW3 4595   3.378   2.156   1.973 -0.5210 -0.2809 -1.1444
    1SOL    MW4 4596   3.374   2.075   2.006  0.1309  0.3512  0.4826
    1SOL     OW 4597   3.365   2.331   1.932 -0.0314 -0.0489 -0.0242
    1SOL    HW2 4598   3.287   2.379   1.959 -0.2684 -0.2001 -0.4264
    1SOL    HW3 4599   3.368   2.344   1.837  0.1955 -0.3931 -0.0612
    1SOL    MW4 4600   3.355   2.339   1.923 -0.0327 -0.1142 -0.0823
    1SOL     OW 4601   3.111   2.425   2.001 -0.0385 -0.0365 -0.2525
    1SOL    HW2 4602   3.099   2.406   2.094 -1.2672 -0.2443 -0.4454
    1SOL    HW3 4603   3.134   2.518   1.998 -1.4852  0.3410  0.1583
    1SOL    MW4 4604   3.112   2.435   2.013 -0.3915 -0.0141 -0.2239
    1SOL     OW 4605   3.178   2.699   1.957  0.3671 -0.4424 -0.8219
    1SOL    HW2 4606   3.115   2.762   1.992  0.7437 -0.7935  0.5155
    1SOL    HW3 4607   3.157   2.694   1.864  0.7417  2.1569 -1.1089
    1SOL    MW4 4608   3.167   2.707   1.949  0.4663 -0.1457 -0.6833
    1SOL     OW 4609   3.380   2.834   2.078  0.1442  0.1388  0.3216
    1SOL    HW2 4610   3.376   2.814   2.171  0.5129  0.6881  0.4563
    1SOL    HW3 4611   3.324   2.768   2.037 -1.5791  1.0948  1.1033
    1SOL    MW4 4612   3.372   2.822   2.085 -0.0346  0.3374  0.4425
    1SOL     OW 4613   3.349   3.081   1.958  0.3483 -0.4887  0.6232
    1SOL    HW2 4614   3.414   3.133   2.005  1.3324 -2.1716  1.1530
    1SOL    HW3 4615   3.341   3.001   2.009 -0.6421 -1.1578 -0.5650
    1SOL    MW4 4616   3.356   3.077   1.971  0.3476 -0.7989  0.5364
    1SOL     OW 4617   3.121   3.244   2.052  0.4685 -0.1411 -0.1708
    1SOL    HW2 4618   3.133   3.338   2.041  0.3273 -0.0548  0.4262
    1SOL    HW3 4619   3.201   3.205   2.017  0.5040  0.1920 -0.4700
    1SOL    MW4 4620   3.133   3.251   2.046  0.4544 -0.0856 -0.1316
    1SOL     OW 4621   3.154   3.502   1.982 -0.1063 -0.0380 -0.0287
    1SOL    HW2 4622   3.231   3.558   1.997 -0.0287 -0.1007 -0.1968
    1SOL    HW3 4623   3.145   3.498   1.887 -0.6817  0.4640 -0.0005
    1SOL    MW4 4624   3.163   3.509   1.971 -0.1721  0.0198 -0.0473
    1SOL     OW 4625   3.383   3.636   2.075 -0.0753 -0.4066  0.2920
    1SOL    HW2 4626   3.466   3.588   2.073  0.4512  0.5120 -0.3656
    1SOL    HW3 4627   3.404   3.722   2.039 -1.0376  0.2864  1.3476
    1SOL    MW4 4628   3.397   3.641   2.070 -0.1328 -0.1938  0.3445
    1SOL     OW 4629   3.417   3.881   1.969 -0.4223  0.8397 -0.2590
    1SOL    HW2 4630   3.330   3.909   1.996 -0.6019  0.0736 -0.0348
    1SOL    HW3 4631   3.412   3.873   1.874 -0.4471  1.2910 -0.2980
    1SOL    MW4 4632   3.405   3.884   1.960 -0.4489  0.7980 -0.2346
    1SOL     OW 4633   3.164   3.985   2.054  0.0175  0.5200  0.4454
    1SOL    HW2 4634   3.171   3.981   2.149 -1.3671  0.2355  0.5536
    1SOL    HW3 4635   3.084   3.934   2.034 -0.0104  1.0431 -0.8095
    1SOL    MW4 4636   3.154   3.977   2.064 -0.1690  0.5519  0.2940
    1SOL     OW 4637   3.155   4.238   1.955  0.0812 -0.0576  0.6291
    1SOL    HW2 4638   3.149   4.155   2.003 -1.3507  0.5761  1.5555
    1SOL    HW3 4639   3.078   4.287   1.982 -0.0932  0.8149 -1.4043
    1SOL    MW4 4640   3.144   4.233   1.965 -0.1309  0.1411  0.4832
    1SOL     OW 4641   3.370   4.357   2.082  0.2157 -0.5378  0.1515
    1SOL    HW2 4642   3.450   4.334   2.034  0.3531  0.9138 -0.3549
    1SOL    HW3 4643   3.300   4.314   2.035  0.6230 -1.2316  0.1733
    1SOL    MW4 4644   3.372   4.348   2.070  0.2878 -0.4377  0.0873
    1SOL     OW 4645   3.825   4.612   1.936 -0.1316 -0.3218 -0.2009
    1SOL    HW2 4646   3.840   4.524   1.970  1.9517 -0.0147 -0.2860
    1SOL    HW3 4647   3.744   4.641   1.979  1.6908 -0.4387  3.4818
    1SOL    MW4 4648   3.816   4.604   1.946  0.3839 -0.2967  0.2738
    1SOL     OW 4649   3.606   0.101   2.036  0.2911 -0.4562 -0.2764
    1SOL    HW2 4650   3.618   0.088   2.130  0.8677  0.0824 -0.2738
    1SOL    HW3 4651   3.520   0.063   2.017  0.5060 -1.2518  0.3314
    1SOL    MW4 4652   3.596   0.094   2.046  0.3955 -0.4902 -0.1957
    1SOL     OW 4653   3.599   0.362   1.931 -0.2823 -0.3559 -0.2150
    1SOL    HW2 4654   3.612   0.271   1.958  1.3119 -0.5310 -1.4601
    1SOL    HW3 4655   3.587   0.357   1.836  1.4590  0.8713 -0.5271
    1SOL    MW4 4656   3.599   0.349   1.922  0.1581 -0.2171 -0.4206
    1SOL     OW 4657   3.836   0.502   2.006 -0.1853  0.0791  0.1577
    1SOL    HW2 4658   3.834   0.593   1.978 -0.5514 -0.2296 -0.8406
    1SOL    HW3 4659   3.750   0.467   1.979  0.9783 -1.2696 -1.9478
    1SOL    MW4 4660   3.824   0.509   1.999 -0.0801 -0.1395 -0.2515
    1SOL     OW 4661   3.852   0.760   1.922  0.2349 -0.0778 -0.1168
    1SOL    HW2 4662   3.772   0.802   1.952 -0.7631 -2.0560  0.0565
    1SOL    HW3 4663   3.847   0.764   1.826  0.0658  0.0178 -0.1035
    1SOL    MW4 4664   3.841   0.766   1.913  0.0808 -0.3262 -0.0923
    1SOL     OW 4665   3.626   0.882   2.042  0.2780 -0.1484  0.0867
    1SOL    HW2 4666   3.608   0.975   2.028  0.2865 -0.0905  0.4810
    1SOL    HW3 4667   3.543   0.838   2.023  0.0813  0.0011  0.6062
    1SOL    MW4 4668   3.613   0.889   2.037  0.2532 -0.1211  0.2069
    1SOL     OW 4669   3.600   1.162   1.958 -0.0069 -0.1431  0.2967
    1SOL    HW2 4670   3.513   1.197   1.979  1.0643  2.4914  0.5484
    1SOL    HW3 4671   3.605   1.166   1.862  0.0269  0.2015  0.3117
    1SOL    MW4 4672   3.589   1.167   1.948  0.1388  0.2500  0.3318
    1SOL     OW 4673   3.818   1.345   2.058  0.4959  0.0021 -0.0571
    1SOL    HW2 4674   3.810   1.325   2.152  1.1989  0.9340  0.2051
    1SOL    HW3 4675   3.749   1.292   2.017  0.6569 -0.9827  0.8957
    1SOL    MW4 4676   3.807   1.335   2.065  0.6096 -0.0048  0.1030
    1SOL     OW 4677   3.836   1.593   1.909  0.2300 -0.4847  0.5538
    1SOL    HW2 4678   3.910   1.642   1.945 -0.5604  0.5884  0.7394
    1SOL    HW3 4679   3.833   1.512   1.960  0.8281 -0.2184  1.0137
    1SOL    MW4 4680   3.845   1.589   1.920  0.2046 -0.3079  0.6391
    1SOL     OW 4681   3.601   1.659   2.024 -0.3063  0.1659 -0.2082
    1SOL    HW2 4682   3.585   1.751   2.002 -0.3187 -0.4906 -3.1074
    1SOL    HW3 4683   3.681   1.637   1.977  0.1702 -1.1036  1.1558
    1SOL    MW4 4684   3.609   1.668   2.015 -0.2451 -0.0883 -0.4110
    1SOL     OW 4685   3.597   1.928   1.967 -0.5077  0.2051 -0.1377
    1SOL    HW2 4686   3.682   1.925   2.012 -0.5118 -0.7662 -0.1799
    1SOL    HW3 4687   3.619   1.941   1.875 -0.3560 -0.9637 -0.2747
    1SOL    MW4 4688   3.611   1.929   1.961 -0.4880 -0.0772 -0.1613
    1SOL     OW 4689   3.848   2.025   2.076 -0.1243  0.5618  0.0332
    1SOL    HW2 4690   3.933   1.997   2.041 -1.3161 -1.3801 -1.4300
    1SOL    HW3 4691   3.828   2.105   2.027  1.6978  2.0934  1.7243
    1SOL    MW4 4692   3.857   2.032   2.065 -0.0410  0.5074  0.0632
    1SOL     OW 4693   3.834   2.274   1.920 -0.0727 -0.5280 -0.2054
    1SOL    HW2 4694   3.899   2.332   1.961 -0.9348 -0.7811  1.5307
    1SOL    HW3 4695   3.750   2.313   1.942 -0.6624 -2.4510  1.0022
    1SOL    MW4 4696   3.832   2.287   1.928 -0.2644 -0.8152  0.1831
    1SOL     OW 4697   3.621   2.422   2.030 -0.3009 -0.2331  0.3128
    1SOL    HW2 4698   3.624   2.516   2.011 -0.5887 -0.0335  1.2144
    1SOL    HW3 4699   3.541   2.391   1.988 -0.3769 -0.0075  0.2906
    1SOL    MW4 4700   3.611   2.430   2.022 -0.3490 -0.1769  0.4287
    1SOL     OW 4701   3.607   2.697   1.983  0.2769  0.5220 -0.0882
    1SOL    HW2 4702   3.678   2.732   2.037  0.6519 -0.4027  0.0154
    1SOL    HW3 4703   3.528   2.741   2.015  0.6060  0.5344  0.6982
    1SOL    MW4 4704   3.606   2.708   1.994  0.3698  0.4017  0.0293
    1SOL     OW 4705   3.822   2.850   2.049 -0.0570  0.3557 -0.0403
    1SOL    HW2 4706   3.825   2.853   2.145 -0.0002 -0.6262 -0.0071
    1SOL    HW3 4707   3.802   2.940   2.023 -0.9016  0.4633  0.9251
    1SOL    MW4 4708   3.820   2.862   2.058 -0.1609  0.2401  0.0913
    1SOL     OW 4709   3.807   3.104   1.978  0.0024  0.0940 -0.5191
    1SOL    HW2 4710   3.729   3.149   2.010 -0.4452 -0.8282 -0.3047
    1SOL    HW3 4711   3.792   3.095   1.884  0.3565  0.9090 -0.6554
    1SOL    MW4 4712   3.795   3.109   1.970 -0.0098  0.0799 -0.5088
    1SOL     OW 4713   3.575   3.210   2.066  0.2008 -0.4158 -0.3281
    1SOL    HW2 4714   3.572   3.204   2.161 -3.0419 -1.5701 -0.4677
    1SOL    HW3 4715   3.577   3.304   2.048 -0.7800 -0.1591  0.8435
    1SOL    MW4 4716   3.575   3.222   2.076 -0.3562 -0.5341 -0.1915
    1SOL     OW 4717   3.599   3.487   2.020  0.2114 -0.1728  0.1042
    1SOL    HW2 4718   3.681   3.527   2.049  0.6240 -0.8725 -0.0739
    1SOL    HW3 4719   3.601   3.493   1.925  0.0452 -0.1628  0.1018
    1SOL    MW4 4720   3.610   3.493   2.012  0.2437 -0.2637  0.0801
    1SOL     OW 4721   3.853   3.615   2.084  0.1522  0.0750  0.3212
    1SOL    HW2 4722   3.934   3.582   2.045  0.2116  0.4813  0.0947
    1SOL    HW3 4723   3.852   3.708   2.061  0.0352  0.2495  1.0354
    1SOL    MW4 4724   3.863   3.623   2.076  0.1445  0.1519  0.3858
    1SOL     OW 4725   3.841   3.878   2.004 -0.1558  0.2060 -0.2900
    1SOL    HW2 4726   3.765   3.927   2.034  1.0566  1.2861  1.0757
    1SOL    HW3 4727   3.838   3.887   1.908 -1.9248 -0.0603 -0.2771
    1SOL    MW4 4728   3.831   3.886   1.995 -0.2294  0.3133 -0.1080
    1SOL     OW 4729   3.632   4.036   2.067  0.7591 -0.0756  0.5584
    1SOL    HW2 4730   3.622   4.038   2.162  1.3631 -2.2983  0.6967
    1SOL    HW3 4731   3.561   3.979   2.037  0.9845  0.0735 -0.2717
    1SOL    MW4 4732   3.621   4.029   2.076  0.8686 -0.3490  0.4671
    1SOL     OW 4733   3.615   4.298   1.942  0.2083 -0.0817  0.0750
    1SOL    HW2 4734   3.698   4.319   1.983 -0.6743  1.4134  1.1468
    1SOL    HW3 4735   3.588   4.215   1.982  1.2644 -0.6701 -0.4253
    1SOL    MW4 4736   3.622   4.290   1.952  0.2310  0.0377  0.1503
    1SOL     OW 4737   3.865   4.367   2.042  0.4552 -0.2093  0.7167
    1SOL    HW2 4738   3.862   4.346   2.136  1.0414 -0.5372  0.6615
    1SOL    HW3 4739   3.937   4.314   2.008  0.8784  0.6581  0.2581
    1SOL    MW4 4740   3.874   4.357   2.050  0.5882 -0.1378  0.6490
    1SOL     OW 4741   4.249   4.625   1.894  0.4445  0.0767 -0.5108
    1SOL    HW2 4742   4.168   4.669   1.919 -0.7846 -1.4442 -1.7091
    1SOL    HW3 4743   4.318   4.673   1.940 -1.0934  1.6220  0.2311
    1SOL    MW4 4744   4.248   4.637   1.903  0.0792  0.0796 -0.5710
    1SOL     OW 4745   4.040   0.094   2.050 -0.4749 -0.1065 -0.4796
    1SOL    HW2 4746   4.031   0.084   2.145  1.0324 -1.9702 -0.4994
    1SOL    HW3 4747   3.964   0.049   2.014 -0.7051  0.0393 -0.1775
    1SOL    MW4 4748   4.029   0.087   2.058 -0.3066 -0.3332 -0.4423
    1SOL     OW 4749   4.047   0.346   1.925  0.0039  0.2269 -0.1405
    1SOL    HW2 4750   4.032   0.256   1.956 -2.1871  0.6828  0.2190
    1SOL    HW3 4751   3.965   0.391   1.943  0.3052  1.7441 -2.3623
    1SOL    MW4 4752   4.034   0.340   1.931 -0.2456  0.4872 -0.3861
    1SOL     OW 4753   4.262   0.493   2.020  0.4846  0.5714  0.0752
    1SOL    HW2 4754   4.243   0.499   2.114  0.7628 -0.0158  0.1683
    1SOL    HW3 4755   4.192   0.437   1.986  0.7673  0.2356  0.0456
    1SOL    MW4 4756   4.250   0.486   2.028  0.5584  0.4496  0.0834
    1SOL     OW 4757   4.256   0.761   1.936  0.4091 -0.0793 -0.1096
    1SOL    HW2 4758   4.234   0.672   1.963  1.9373 -0.3462  0.3100
    1SOL    HW3 4759   4.259   0.757   1.841  0.3920 -0.4503 -0.0960
    1SOL    MW4 4760   4.253   0.749   1.927  0.6084 -0.1634 -0.0525
    1SOL     OW 4761   4.059   0.914   2.080  0.6613 -0.1941 -0.1771
    1SOL    HW2 4762   4.134   0.872   2.038  0.8681 -0.0329  0.0213
    1SOL    HW3 4763   3.983   0.875   2.039  0.8480 -0.9716  0.2102
    1SOL    MW4 4764   4.059   0.904   2.069  0.7138 -0.2754 -0.0997
    1SOL     OW 4765   4.051   1.172   1.948 -0.1498  0.0635 -0.2153
    1SOL    HW2 4766   4.043   1.083   1.980 -0.1335  0.6894  1.5682
    1SOL    HW3 4767   3.986   1.222   1.998  1.4940  1.4964  0.5214
    1SOL    MW4 4768   4.041   1.167   1.959  0.0696  0.3352  0.1172
    1SOL     OW 4769   4.283   1.275   2.044  0.8619 -0.3620 -0.1844
    1SOL    HW2 4770   4.262   1.273   2.137  0.4530 -0.0168 -0.2681
    1SOL    HW3 4771   4.206   1.239   2.001  0.8601 -0.0771 -0.4193
    1SOL    MW4 4772   4.270   1.270   2.051  0.8078 -0.2788 -0.2263
    1SOL     OW 4773   4.296   1.553   1.984  0.3395  0.2277  0.3384
    1SOL    HW2 4774   4.305   1.458   1.996 -1.1192  0.0485  0.1018
    1SOL    HW3 4775   4.303   1.565   1.889  0.7021  0.3764  0.3843
    1SOL    MW4 4776   4.298   1.542   1.973  0.1950  0.2236  0.3133
    1SOL     OW 4777   4.060   1.697   2.067 -0.5907 -0.3211  0.4592
    1SOL    HW2 4778   4.038   1.693   2.160 -0.5586 -0.2098  0.4718
    1SOL    HW3 4779   4.134   1.638   2.057  0.0649  0.4566  0.6934
    1SOL    MW4 4780   4.067   1.689   2.078 -0.5002 -0.2038  0.4916
    1SOL     OW 4781   4.087   1.948   1.962  0.0650  0.2407  0.4944
    1SOL    HW2 4782   4.083   1.858   1.994 -1.7047  0.6545  1.4903
    1SOL    HW3 4783   4.090   1.939   1.866  0.6075 -0.8700  0.6032
    1SOL    MW4 4784   4.087   1.935   1.953 -0.0968  0.1488  0.6402
    1SOL     OW 4785   4.292   2.112   2.055 -0.0297 -0.1230  0.5618
    1SOL    HW2 4786   4.300   2.095   2.149  0.1755 -1.6129  0.2948
    1SOL    HW3 4787   4.227   2.048   2.025 -0.7328  0.9171 -0.1702
    1SOL    MW4 4788   4.284   2.101   2.064 -0.0954 -0.1822  0.4301
    1SOL     OW 4789   4.284   2.367   1.947  0.6387  0.5983 -0.2385
    1SOL    HW2 4790   4.292   2.280   1.986  2.3028  0.8524  0.0427
    1SOL    HW3 4791   4.365   2.412   1.972 -1.0578  2.9264  1.3005
    1SOL    MW4 4792   4.296   2.361   1.955  0.6347  0.9391  0.0017
    1SOL     OW 4793   4.033   2.464   2.020  0.1255 -0.0132  0.6443
    1SOL    HW2 4794   4.034   2.479   2.114  0.9804 -1.4344  0.8846
    1SOL    HW3 4795   4.123   2.436   1.999  0.5847  2.5444 -0.9898
    1SOL    MW4 4796   4.045   2.462   2.029  0.2995  0.1366  0.4604
    1SOL     OW 4797   4.048   2.720   1.926 -0.4551  0.3643  0.0366
    1SOL    HW2 4798   4.050   2.627   1.948 -1.4756  0.1568 -0.7038
    1SOL    HW3 4799   3.978   2.756   1.981 -1.3565  0.3148 -1.0633
    1SOL    MW4 4800   4.039   2.712   1.936 -0.7086  0.3304 -0.2064
    1SOL     OW 4801   4.279   2.831   2.028 -0.2609 -0.0166 -0.3767
    1SOL    HW2 4802   4.271   2.828   2.123  0.9610  0.6402 -0.2525
    1SOL    HW3 4803   4.191   2.808   1.996 -1.1146  1.3824  0.9075
    1SOL    MW4 4804   4.266   2.827   2.036 -0.2122  0.2544 -0.1907
    1SOL     OW 4805   4.301   3.092   1.948 -0.4804 -0.0321  0.1692
    1SOL    HW2 4806   4.233   3.126   2.006  0.0122  1.2323  0.0201
    1SOL    HW3 4807   4.301   2.997   1.964 -0.1074  0.3391  2.4860
    1SOL    MW4 4808   4.292   3.084   1.958 -0.3662  0.1838  0.4553
    1SOL     OW 4809   4.043   3.214   2.048  0.0059  0.5843  0.1016
    1SOL    HW2 4810   4.047   3.187   2.139  0.8746  1.2084  0.2525
    1SOL    HW3 4811   3.958   3.183   2.017 -0.1990  0.1945  1.0626
    1SOL    MW4 4812   4.032   3.207   2.056  0.0935  0.6154  0.2484
    1SOL     OW 4813   4.089   3.487   1.963  0.7999 -0.1009  0.1196
    1SOL    HW2 4814   4.152   3.537   2.014  0.3188  1.2273 -0.5690
    1SOL    HW3 4815   4.088   3.400   2.004  1.5417  0.4845  1.3986
    1SOL    MW4 4816   4.097   3.482   1.975  0.8345  0.1516  0.1975
    1SOL     OW 4817   4.290   3.632   2.074  0.1199 -0.5804 -0.3557
    1SOL    HW2 4818   4.292   3.720   2.035  1.1820 -0.5162 -0.1821
    1SOL    HW3 4819   4.370   3.590   2.041 -0.0889 -1.2818  0.0238
    1SOL    MW4 4820   4.301   3.638   2.064  0.2322 -0.6645 -0.2825
    1SOL     OW 4821   4.290   3.878   1.981  0.2015 -0.2262  0.1179
    1SOL    HW2 4822   4.374   3.916   2.006 -0.2402  0.6981  0.2365
    1SOL    HW3 4823   4.288   3.883   1.886  0.7414 -1.2704  0.0416
    1SOL    MW4 4824   4.301   3.883   1.972  0.2141 -0.2420  0.1236
    1SOL     OW 4825   4.060   4.005   2.098 -0.4362 -0.0342 -0.0762
    1SOL    HW2 4826   4.134   3.955   2.065  0.0394  1.3848 -1.2258
    1SOL    HW3 4827   3.983   3.957   2.068  0.0166 -0.5831 -0.3581
    1SOL    MW4 4828   4.060   3.992   2.090 -0.3142  0.0803 -0.2651
    1SOL     OW 4829   4.073   4.223   1.910 -0.1463  0.4871  0.0946
    1SOL    HW2 4830   4.138   4.282   1.950 -1.2996  1.1408  1.0280
    1SOL    HW3 4831   4.075   4.145   1.964 -1.2366  1.1157  1.0617
    1SOL    MW4 4832   4.082   4.220   1.922 -0.4420  0.6561  0.3453
    1SOL     OW 4833   4.262   4.386   2.054 -0.0558  0.2326 -0.5310
    1SOL    HW2 4834   4.260   4.406   2.147  1.0355 -0.5935 -0.3054
    1SOL    HW3 4835   4.249   4.470   2.010 -2.2536  0.3808  0.3528
    1SOL    MW4 4836   4.260   4.399   2.060 -0.2017  0.1426 -0.3843
    1SOL     OW 4837   0.210   4.643   2.401 -0.1274 -0.5265 -0.3665
    1SOL    HW2 4838   0.207   4.654   2.497 -2.3993 -1.5786 -0.2887
    1SOL    HW3 4839   0.278   4.704   2.373  0.4807 -0.0800  1.9041
    1SOL    MW4 4840   0.219   4.653   2.410 -0.3469 -0.6065 -0.0565
    1SOL     OW 4841   4.487   0.125   2.323  0.0145 -0.2427  0.1346
    1SOL    HW2 4842   4.563   0.075   2.354  1.7789  2.4913  0.3876
    1SOL    HW3 4843   4.487   0.112   2.228  0.8037 -0.2366  0.1319
    1SOL    MW4 4844   4.497   0.117   2.315  0.3514  0.1188  0.1678
    1SOL     OW 4845   4.463   0.378   2.432  0.3271  0.8827  0.0556
    1SOL    HW2 4846   4.529   0.428   2.384  1.1506  0.4528  0.7191
    1SOL    HW3 4847   4.460   0.293   2.387  0.6717  0.6900  0.3870
    1SOL    MW4 4848   4.471   0.373   2.420  0.4807  0.8005  0.1867
    1SOL     OW 4849   0.187   0.522   2.331 -0.3876 -0.3238 -0.6280
    1SOL    HW2 4850   0.252   0.467   2.376  1.0145  1.0842 -0.9118
    1SOL    HW3 4851   0.210   0.515   2.238 -0.5755  0.2579 -0.7202
    1SOL    MW4 4852   0.199   0.514   2.325 -0.2274 -0.0612 -0.6776
    1SOL     OW 4853   0.232   0.784   2.374  0.1691  0.5905  0.3153
    1SOL    HW2 4854   0.242   0.787   2.469  0.5853  0.2696  0.2832
    1SOL    HW3 4855   0.233   0.691   2.352  1.2250  0.6880 -0.1139
    1SOL    MW4 4856   0.234   0.772   2.383  0.3633  0.5611  0.2542
    1SOL     OW 4857   4.484   0.905   2.296  0.3007  0.1900  0.2349
    1SOL    HW2 4858   4.563   0.854   2.313 -0.6988 -1.2392  0.6638
    1SOL    HW3 4859   4.487   0.921   2.202  1.2398  0.3863  0.2886
    1SOL    MW4 4860   4.495   0.900   2.286  0.2928  0.0274  0.2987
    1SOL     OW 4861   4.490   1.155   2.414 -0.1531 -0.4977 -0.2131
    1SOL    HW2 4862   4.480   1.142   2.509 -0.4655  0.3717 -0.1174
    1SOL    HW3 4863   4.488   1.067   2.377 -1.3534 -0.7793  0.4738
    1SOL    MW4 4864   4.488   1.142   2.422 -0.3527 -0.4201 -0.1097
    1SOL     OW 4865   0.236   1.320   2.312  0.0916  0.1443 -0.1266
    1SOL    HW2 4866   0.167   1.260   2.341 -1.1689  1.5928 -0.0245
    1SOL    HW3 4867   0.242   1.305   2.217  0.1836 -0.5349 -0.0157
    1SOL    MW4 4868   0.227   1.310   2.303 -0.0626  0.2458 -0.0982
    1SOL     OW 4869   0.248   1.573   2.424  0.3065 -0.3497 -0.1649
    1SOL    HW2 4870   0.259   1.560   2.518  1.6076 -0.8151 -0.3696
    1SOL    HW3 4871   0.261   1.486   2.386  1.8878  0.1947 -0.9368
    1SOL    MW4 4872   0.252   1.560   2.431  0.6868 -0.3393 -0.2937
    1SOL     OW 4873   0.009   1.695   2.341  0.0690 -0.3417  0.2070
    1SOL    HW2 4874   0.015   1.782   2.380 -1.1458 -0.2307  0.1528
    1SOL    HW3 4875   0.087   1.649   2.373  0.3346  0.5230  0.8196
    1SOL    MW4 4876   0.020   1.700   2.350 -0.0563 -0.2130  0.2809
    1SOL     OW 4877   0.032   1.940   2.474  0.3261 -0.2284  0.4048
    1SOL    HW2 4878  -0.043   1.980   2.429 -0.0323 -0.9014  0.3974
    1SOL    HW3 4879   0.108   1.974   2.429 -0.0098 -0.2636 -0.1917
    1SOL    MW4 4880   0.032   1.950   2.462  0.2345 -0.3219  0.3252
    1SOL     OW 4881   0.240   2.045   2.318  0.2942 -0.7876 -0.1556
    1SOL    HW2 4882   0.319   1.999   2.347 -0.2944 -2.6011 -1.3760
    1SOL    HW3 4883   0.250   2.053   2.223 -0.6128 -0.2867 -0.2146
    1SOL    MW4 4884   0.252   2.040   2.310  0.0969 -0.9606 -0.3240
    1SOL     OW 4885   0.212   2.317   2.421 -0.2859 -0.1027 -0.0904
    1SOL    HW2 4886   0.197   2.298   2.513 -0.4080  0.6399  0.0502
    1SOL    HW3 4887   0.232   2.233   2.381  0.4092 -0.3254  0.7386
    1SOL    MW4 4888   0.212   2.304   2.428 -0.2103 -0.0341  0.0374
    1SOL     OW 4889   4.477   2.444   2.311 -0.0485  0.3788  0.0558
    1SOL    HW2 4890   4.461   2.536   2.331  0.0321  0.4990 -0.4193
    1SOL    HW3 4891   4.542   2.416   2.375 -0.3310  0.5556  0.4245
    1SOL    MW4 4892   4.483   2.452   2.322 -0.0753  0.4182  0.0417
    1SOL     OW 4893   4.478   2.705   2.403 -0.1224 -0.1012 -0.4008
    1SOL    HW2 4894   4.483   2.687   2.497 -0.7260  1.0643 -0.1413
    1SOL    HW3 4895   4.562   2.746   2.382  0.3824 -1.1908 -0.5662
    1SOL    MW4 4896   4.490   2.708   2.412 -0.1359 -0.0911 -0.3881
    1SOL     OW 4897   0.228   2.843   2.325  0.3234  0.0276  0.1172
    1SOL    HW2 4898   0.298   2.780   2.344  0.8828  0.4693 -0.4802
    1SOL    HW3 4899   0.227   2.851   2.230  0.0635  0.7066  0.1709
    1SOL    MW4 4900   0.237   2.836   2.315  0.3629  0.1755  0.0453
    1SOL     OW 4901   0.230   3.103   2.426 -0.5147  0.3214 -0.0214
    1SOL    HW2 4902   0.154   3.150   2.391 -1.3218 -1.9462 -1.4416
    1SOL    HW3 4903   0.221   3.014   2.390  1.5179 -0.6229  1.7426
    1SOL    MW4 4904   0.219   3.097   2.417 -0.3530 -0.1025  0.0241
    1SOL     OW 4905   0.010   3.211   2.315  0.0871 -0.2783 -0.3061
    1SOL    HW2 4906   0.002   3.300   2.349  2.5287 -0.3654  0.6050
    1SOL    HW3 4907   0.011   3.221   2.220 -1.9354  0.4178 -0.2830
    1SOL    MW4 4908   0.009   3.224   2.307  0.1424 -0.1976 -0.1831
    1SOL     OW 4909   0.014   3.474   2.440 -0.4459 -0.3155  0.4174
    1SOL    HW2 4910   0.009   3.443   2.531 -1.3325  1.2750  0.9225
    1SOL    HW3 4911  -0.068   3.522   2.427  0.0311  0.1303 -0.9958
    1SOL    MW4 4912   0.002   3.476   2.450 -0.5002 -0.0470  0.2975
    1SOL     OW 4913   0.230   3.629   2.357 -0.1681  0.0963 -0.2700
    1SOL    HW2 4914   0.304   3.576   2.386 -0.3914  0.2590  0.5882
    1SOL    HW3 4915   0.154   3.592   2.401 -0.6720 -0.3274 -1.4601
    1SOL    MW4 4916   0.230   3.617   2.367 -0.2640  0.0618 -0.3135
    1SOL     OW 4917   0.283   3.919   2.396 -0.1170 -0.1631  0.1479
    1SOL    HW2 4918   0.191   3.943   2.406  0.0852  0.1337  1.4653
    1SOL    HW3 4919   0.281   3.831   2.359 -0.9421 -0.2392  0.3589
    1SOL    MW4 4920   0.271   3.910   2.393 -0.1991 -0.1342  0.3493
    1SOL     OW 4921   4.487   4.008   2.365  0.3251 -0.1268  0.2344
    1SOL    HW2 4922   4.475   4.101   2.381  0.8976  0.0853 -0.5236
    1SOL    HW3 4923   4.510   4.002   2.272 -0.6373 -1.1039  0.0385
    1SOL    MW4 4924   4.489   4.019   2.355  0.2737 -0.2284  0.1085
    1SOL     OW 4925   4.487   4.279   2.431  0.0293 -0.2402  0.4486
    1SOL    HW2 4926   4.505   4.263   2.523  0.8641 -0.2154  0.2959
    1SOL    HW3 4927   4.567   4.320   2.397 -0.9200  1.3531  0.1094
    1SOL    MW4 4928   4.500   4.282   2.438  0.0142 -0.0272  0.3836
    1SOL     OW 4929   0.224   4.382   2.300  0.0758  0.2243  0.0167
    1SOL    HW2 4930   0.297   4.336   2.342 -0.9245 -0.4476  1.0229
    1SOL    HW3 4931   0.226   4.470   2.338  0.7549  0.4173 -0.4468
    1SOL    MW4 4932   0.234   4.387   2.310  0.0334  0.1612  0.0885
    1SOL     OW 4933   0.602   0.022   2.447  0.4256 -0.0339  0.2654
    1SOL    HW2 4934   0.605  -0.001   2.540 -1.0847  3.0878  1.1415
    1SOL    HW3 4935   0.692   0.049   2.426  0.3286  1.2015  1.3656
    1SOL    MW4 4936   0.614   0.022   2.457  0.2136  0.5409  0.5260
    1SOL     OW 4937   0.401   0.162   2.336 -0.1945  0.1696 -0.1999
    1SOL    HW2 4938   0.473   0.114   2.377 -0.6093  0.1490  0.4936
    1SOL    HW3 4939   0.419   0.155   2.242 -0.7678 -2.1774 -0.1755
    1SOL    MW4 4940   0.413   0.155   2.329 -0.3248 -0.1428 -0.1051
    1SOL     OW 4941   0.410   0.408   2.443 -0.3953 -0.3980  0.1465
    1SOL    HW2 4942   0.430   0.390   2.535  0.3883 -0.1386  0.0283
    1SOL    HW3 4943   0.401   0.321   2.403 -1.2763 -0.5104  0.5783
    1SOL    MW4 4944   0.411   0.394   2.450 -0.4081 -0.3786  0.1876
    1SOL     OW 4945   0.647   0.495   2.329 -0.1220  0.1513  0.1209
    1SOL    HW2 4946   0.641   0.587   2.355  0.9572  0.4502 -0.6599
    1SOL    HW3 4947   0.559   0.460   2.344 -0.3660  1.1381  1.0634
    1SOL    MW4 4948   0.635   0.503   2.335 -0.0118  0.3209  0.1421
    1SOL     OW 4949   0.651   0.751   2.422 -0.3272 -0.3938 -0.0955
    1SOL    HW2 4950   0.655   0.761   2.517  0.8357  1.4193 -0.3111
    1SOL    HW3 4951   0.588   0.817   2.392 -0.3645 -0.6602 -0.6192
    1SOL    MW4 4952   0.643   0.761   2.430 -0.1787 -0.1898 -0.1931
    1SOL     OW 4953   0.462   0.923   2.315 -0.5674  0.0160  0.0437
    1SOL    HW2 4954   0.387   0.873   2.348 -0.3115 -1.2638 -1.2598
    1SOL    HW3 4955   0.458   0.912   2.220  2.1201 -1.3216  0.0380
    1SOL    MW4 4956   0.451   0.915   2.307 -0.1791 -0.3293 -0.1287
    1SOL     OW 4957   0.448   1.177   2.439 -0.1014  0.1029  0.0078
    1SOL    HW2 4958   0.446   1.097   2.386  0.1289  0.3388 -0.3628
    1SOL    HW3 4959   0.373   1.228   2.409 -0.9226 -0.4715  1.0427
    1SOL    MW4 4960   0.438   1.173   2.428 -0.1794  0.0583  0.0951
    1SOL     OW 4961   0.650   1.287   2.278 -0.0172  0.1559  0.3865
    1SOL    HW2 4962   0.657   1.379   2.302  0.9437  0.1847  0.0192
    1SOL    HW3 4963   0.585   1.251   2.338  1.1560  0.5890  1.9422
    1SOL    MW4 4964   0.642   1.294   2.289  0.2644  0.2170  0.5434
    1SOL     OW 4965   0.670   1.550   2.420  0.1147  0.1994 -0.1066
    1SOL    HW2 4966   0.664   1.555   2.516 -0.1232  0.8284 -0.1567
    1SOL    HW3 4967   0.747   1.603   2.399  0.8658 -0.8962 -0.1691
    1SOL    MW4 4968   0.680   1.558   2.430  0.1824  0.1379 -0.1214
    1SOL     OW 4969   0.470   1.696   2.277  0.1300  0.5072 -0.6117
    1SOL    HW2 4970   0.544   1.646   2.311  0.2712  0.8058 -0.4788
    1SOL    HW3 4971   0.395   1.665   2.327  0.0651 -0.1958 -1.1257
    1SOL    MW4 4972   0.470   1.685   2.288  0.1401  0.4538 -0.6621
    1SOL     OW 4973   0.468   1.933   2.406  0.1139 -0.3684  0.3361
    1SOL    HW2 4974   0.545   1.983   2.379 -0.9733  0.5178 -1.1827
    1SOL    HW3 4975   0.476   1.850   2.360  1.1098 -1.0116  1.6377
    1SOL    MW4 4976   0.479   1.929   2.396  0.1019 -0.3363  0.3073
    1SOL     OW 4977   0.699   2.041   2.278 -0.3398 -0.0690  0.2629
    1SOL    HW2 4978   0.775   2.001   2.321  0.1334  0.4389 -0.0959
    1SOL    HW3 4979   0.692   2.128   2.317 -0.1622  0.2378 -0.3838
    1SOL    MW4 4980   0.708   2.047   2.288 -0.2539  0.0386  0.1302
    1SOL     OW 4981   0.703   2.283   2.393 -0.3213  0.3466 -0.1084
    1SOL    HW2 4982   0.709   2.294   2.487 -0.2228  2.7142 -0.3657
    1SOL    HW3 4983   0.765   2.347   2.357 -1.0225  0.1067 -1.7908
    1SOL    MW4 4984   0.712   2.293   2.400 -0.4008  0.6275 -0.3643
    1SOL     OW 4985   0.459   2.422   2.327  0.4571  0.1092 -0.1333
    1SOL    HW2 4986   0.533   2.368   2.354  1.6287  1.4416 -0.6649
    1SOL    HW3 4987   0.383   2.380   2.367  1.5070 -1.2197  0.4768
    1SOL    MW4 4988   0.458   2.410   2.336  0.7502  0.1099 -0.1230
    1SOL     OW 4989   0.459   2.685   2.376 -0.0849 -0.2168  0.0916
    1SOL    HW2 4990   0.436   2.685   2.469 -0.0337  1.6870  0.1170
    1SOL    HW3 4991   0.454   2.593   2.351  1.3564 -0.9478  2.3363
    1SOL    MW4 4992   0.455   2.673   2.385  0.1120 -0.0618  0.3912
    1SOL     OW 4993   0.669   2.883   2.316 -0.1811 -0.1901  0.2361
    1SOL    HW2 4994   0.750   2.843   2.347  0.4679  0.0277 -1.1766
    1SOL    HW3 4995   0.600   2.824   2.347  0.6511 -1.5320 -0.4074
    1SOL    MW4 4996   0.671   2.870   2.324  0.0144 -0.3383 -0.0350
    1SOL     OW 4997   0.678   3.125   2.438 -0.4257 -0.4911 -0.1801
    1SOL    HW2 4998   0.615   3.192   2.413  0.4579  0.2471 -0.4651
    1SOL    HW3 4999   0.663   3.053   2.377 -0.2795  0.1063 -0.9212
    1SOL    MW4 5000   0.668   3.124   2.427 -0.2899 -0.3150 -0.3154
    1SOL     OW 5001   0.454   3.250   2.337 -0.2296 -0.4394 -0.4556
    1SOL    HW2 5002   0.386   3.187   2.364 -0.0712 -1.0997 -1.5673
    1SOL    HW3 5003   0.452   3.248   2.242 -0.7472  1.8411 -0.5181
    1SOL    MW4 5004   0.444   3.241   2.328 -0.2770 -0.2255 -0.6104
    1SOL     OW 5005   0.444   3.501   2.453  0.2047 -0.2418 -0.0541
    1SOL    HW2 5006   0.511   3.557   2.415  1.8129 -1.5599  0.7450
    1SOL    HW3 5007   0.463   3.414   2.419 -1.0709 -0.6426  0.2291
    1SOL    MW4 5008   0.456   3.497   2.444  0.2486 -0.4685  0.0887
    1SOL     OW 5009   0.665   3.634   2.331  0.3465  0.3967 -0.0165
    1SOL    HW2 5010   0.685   3.726   2.350 -1.8561  1.0756 -0.7912
    1SOL    HW3 5011   0.661   3.630   2.236 -1.1984 -0.1156  0.0605
    1SOL    MW4 5012   0.667   3.646   2.321 -0.1478  0.4184 -0.1085
    1SOL     OW 5013   0.664   3.917   2.367  0.2830  0.2106 -0.5801
    1SOL    HW2 5014   0.648   3.919   2.461 -0.7048  0.2970 -0.7408
    1SOL    HW3 5015   0.589   3.962   2.329  0.1665 -0.7063 -1.4724
    1SOL    MW4 5016   0.652   3.923   2.374  0.1373  0.1011 -0.7188
    1SOL     OW 5017   0.461   4.053   2.246 -0.0641 -0.4718 -0.3797
    1SOL    HW2 5018   0.393   4.011   2.299  1.0203 -0.2187  1.2619
    1SOL    HW3 5019   0.436   4.035   2.156 -1.1863 -2.1574  0.2412
    1SOL    MW4 5020   0.449   4.045   2.241 -0.0691 -0.6604 -0.0811
    1SOL     OW 5021   0.467   4.272   2.414  0.1578 -0.5446 -0.4419
    1SOL    HW2 5022   0.537   4.333   2.392 -0.2213 -0.2640 -0.8763
    1SOL    HW3 5023   0.479   4.199   2.352 -1.3687  0.5914 -2.1138
    1SOL    MW4 5024   0.478   4.270   2.403 -0.0936 -0.3572 -0.7200
    1SOL     OW 5025   0.677   4.450   2.334  0.0042  0.3637  0.5699
    1SOL    HW2 5026   0.645   4.539   2.351  0.3719  0.9366 -1.6056
    1SOL    HW3 5027   0.674   4.441   2.239  0.3316 -1.8308  0.7463
    1SOL    MW4 5028   0.672   4.461   2.324  0.0958  0.1493  0.3061
    1SOL     OW 5029   1.123   0.020   2.468 -0.2913  0.7689 -0.3041
    1SOL    HW2 5030   1.110  -0.009   2.559 -0.7292 -0.9241 -0.8931
    1SOL    HW3 5031   1.036   0.048   2.440 -0.4042  0.1655 -0.5732
    1SOL    MW4 5032   1.110   0.020   2.476 -0.3639  0.4659 -0.4172
    1SOL     OW 5033   0.880   0.110   2.362  0.3884 -0.5009  0.1844
    1SOL    HW2 5034   0.870   0.199   2.396 -0.6425 -0.6899  0.3981
    1SOL    HW3 5035   0.896   0.122   2.268 -0.4769 -0.1061  0.0787
    1SOL    MW4 5036   0.880   0.124   2.354  0.1383 -0.4738  0.1988
    1SOL     OW 5037   0.853   0.366   2.483 -0.0384 -0.3424  0.1467
    1SOL    HW2 5038   0.938   0.394   2.449 -0.1153  0.1357  0.3465
    1SOL    HW3 5039   0.790   0.421   2.436 -0.1306  0.4819  1.2318
    1SOL    MW4 5040   0.856   0.377   2.472 -0.0607 -0.1706  0.3164
    1SOL     OW 5041   1.098   0.474   2.379 -0.3326 -0.3111  0.8379
    1SOL    HW2 5042   1.188   0.441   2.387 -0.1687  0.1336  0.8116
    1SOL    HW3 5043   1.091   0.500   2.287  0.3653  2.1601  1.4622
    1SOL    MW4 5044   1.109   0.473   2.368 -0.2190  0.0736  0.9172
    1SOL     OW 5045   1.117   0.751   2.421 -0.0520  0.3813  0.3176
    1SOL    HW2 5046   1.035   0.792   2.394 -1.2440 -1.1234  1.4995
    1SOL    HW3 5047   1.102   0.657   2.408  1.4395  0.0800  0.6625
    1SOL    MW4 5048   1.104   0.744   2.416 -0.0125  0.1430  0.5190
    1SOL     OW 5049   0.894   0.879   2.316 -0.0096  0.1781  0.1252
    1SOL    HW2 5050   0.888   0.971   2.342 -1.3952  0.0545  0.2738
    1SOL    HW3 5051   0.812   0.840   2.347  0.6788 -1.1592  0.2825
    1SOL    MW4 5052   0.882   0.886   2.324 -0.1016 -0.0146  0.1655
    1SOL     OW 5053   0.883   1.142   2.410 -0.3033  0.4468 -0.1477
    1SOL    HW2 5054   0.964   1.175   2.372 -0.1226  0.2986  0.1095
    1SOL    HW3 5055   0.814   1.185   2.360 -0.0666  0.9517 -0.0400
    1SOL    MW4 5056   0.885   1.152   2.399 -0.2483  0.4940 -0.0999
    1SOL     OW 5057   1.124   1.256   2.310  0.0779 -0.0524 -0.3719
    1SOL    HW2 5058   1.213   1.227   2.331 -0.3593 -0.7778  0.5235
    1SOL    HW3 5059   1.126   1.273   2.216  1.4413  0.9405 -0.1730
    1SOL    MW4 5060   1.136   1.254   2.300  0.2003 -0.0170 -0.2275
    1SOL     OW 5061   1.127   1.505   2.418 -0.0747 -0.0087  0.1968
    1SOL    HW2 5062   1.055   1.553   2.377 -0.1120 -0.2169  0.0189
    1SOL    HW3 5063   1.120   1.416   2.384 -0.0129 -0.1459  0.5408
    1SOL    MW4 5064   1.117   1.500   2.408 -0.0714 -0.0542  0.2189
    1SOL     OW 5065   0.919   1.649   2.316 -0.0611 -0.4891  0.1096
    1SOL    HW2 5066   0.951   1.735   2.344 -0.3311 -0.8164  1.4561
    1SOL    HW3 5067   0.910   1.657   2.221 -1.0101  1.2750  0.3221
    1SOL    MW4 5068   0.922   1.662   2.307 -0.2220 -0.2996  0.3152
    1SOL     OW 5069   0.925   1.910   2.413 -0.2525 -0.4448 -0.0593
    1SOL    HW2 5070   0.907   1.903   2.507 -1.0821 -0.2507 -0.2010
    1SOL    HW3 5071   0.988   1.981   2.405  1.4124 -1.8027  0.5457
    1SOL    MW4 5072   0.931   1.918   2.424 -0.1422 -0.5984  0.0017
    1SOL     OW 5073   1.132   2.063   2.302  0.0793  0.4401  0.0538
    1SOL    HW2 5074   1.192   2.004   2.348 -1.8765 -1.9488 -0.3769
    1SOL    HW3 5075   1.145   2.044   2.209  0.2875  1.5839 -0.1701
    1SOL    MW4 5076   1.141   2.053   2.296 -0.1514  0.2756 -0.0327
    1SOL     OW 5077   1.069   2.315   2.388  0.3070 -0.5698 -0.8010
    1SOL    HW2 5078   1.154   2.357   2.377 -0.2189  0.8307  0.3168
    1SOL    HW3 5079   1.081   2.227   2.354  2.2868 -0.4788 -0.3815
    1SOL    MW4 5080   1.082   2.309   2.382  0.4989 -0.3731 -0.5982
    1SOL     OW 5081   0.885   2.492   2.268 -0.5987  0.0011  0.3086
    1SOL    HW2 5082   0.954   2.449   2.318  0.7379  1.7442  0.0123
    1SOL    HW3 5083   0.919   2.496   2.179 -0.8481  1.3569  0.2690
    1SOL    MW4 5084   0.898   2.487   2.263 -0.4553  0.4101  0.2642
    1SOL     OW 5085   0.904   2.750   2.361  0.1695 -0.0464  0.2242
    1SOL    HW2 5086   0.898   2.731   2.455  1.0147 -0.4579  0.1994
    1SOL    HW3 5087   0.914   2.664   2.320 -0.1823  0.1356 -0.2416
    1SOL    MW4 5088   0.904   2.736   2.368  0.2346 -0.0768  0.1595
    1SOL     OW 5089   1.162   2.888   2.293 -0.1391  0.3633 -0.2255
    1SOL    HW2 5090   1.220   2.817   2.319 -0.1560  0.6797  0.6764
    1SOL    HW3 5091   1.074   2.855   2.311 -0.1445  0.6354  0.2448
    1SOL    MW4 5092   1.158   2.874   2.299 -0.1420  0.4408 -0.0443
    1SOL     OW 5093   1.127   3.137   2.411 -0.0791 -0.0928 -0.6927
    1SOL    HW2 5094   1.060   3.177   2.355  0.3829  0.0453 -1.1458
    1SOL    HW3 5095   1.128   3.045   2.384 -0.1612 -0.1185 -0.6097
    1SOL    MW4 5096   1.118   3.130   2.400 -0.0290 -0.0780 -0.7415
    1SOL     OW 5097   0.885   3.261   2.303  0.1908  0.0911  0.6560
    1SOL    HW2 5098   0.890   3.350   2.337  0.0435  0.1002  0.6553
    1SOL    HW3 5099   0.822   3.217   2.360  0.2713 -0.0156  0.6637
    1SOL    MW4 5100   0.877   3.267   2.315  0.1820  0.0782  0.6571
    1SOL     OW 5101   0.883   3.502   2.436 -0.1631 -0.2585 -0.0362
    1SOL    HW2 5102   0.877   3.481   2.530  0.3853 -0.8282 -0.1216
    1SOL    HW3 5103   0.801   3.548   2.416  0.0851  0.6079  0.9106
    1SOL    MW4 5104   0.871   3.505   2.446 -0.0580 -0.2191  0.0775
    1SOL     OW 5105   1.108   3.612   2.303 -0.0339 -0.2784  0.3190
    1SOL    HW2 5106   1.180   3.578   2.358  0.8663 -0.1277 -0.7473
    1SOL    HW3 5107   1.029   3.588   2.351  0.6434 -2.2258  0.5353
    1SOL    MW4 5108   1.107   3.604   2.317  0.1740 -0.5155  0.2069
    1SOL     OW 5109   1.104   3.876   2.409 -0.0904  0.6494 -0.4819
    1SOL    HW2 5110   1.175   3.928   2.371 -0.7685  1.2211 -0.9792
    1SOL    HW3 5111   1.110   3.791   2.364  0.1437  0.7704 -0.6831
    1SOL    MW4 5112   1.114   3.872   2.398 -0.1491  0.7408 -0.5741
    1SOL     OW 5113   0.910   4.046   2.345  0.2964 -0.5490 -0.1610
    1SOL    HW2 5114   0.972   3.981   2.378  0.6199  0.3754  1.0954
    1SOL    HW3 5115   0.824   4.005   2.356  0.6241 -1.4759 -1.0580
    1SOL    MW4 5116   0.907   4.032   2.351  0.3823 -0.5493 -0.1135
    1SOL     OW 5117   0.886   4.288   2.454  0.5025  0.1578 -0.0272
    1SOL    HW2 5118   0.869   4.201   2.419  1.0336 -0.1863  0.5617
    1SOL    HW3 5119   0.811   4.341   2.425  1.1400 -0.0167 -2.0118
    1SOL    MW4 5120   0.874   4.284   2.446  0.6566  0.0892 -0.2112
    1SOL     OW 5121   1.084   4.427   2.313 -0.2622  0.4112 -0.0851
    1SOL    HW2 5122   1.010   4.384   2.355  1.0288 -1.8340 -0.0594
    1SOL    HW3 5123   1.099   4.506   2.365 -1.3408 -0.1909  1.1431
    1SOL    MW4 5124   1.077   4.432   2.326 -0.2342  0.0358  0.0803
    1SOL     OW 5125   1.561   4.607   2.428  0.3546  0.2349 -0.4147
    1SOL    HW2 5126   1.623   4.642   2.365 -0.1588 -1.1345 -1.7011
    1SOL    HW3 5127   1.476   4.642   2.402 -0.0902 -1.5163 -1.4221
    1SOL    MW4 5128   1.558   4.616   2.416  0.2282 -0.1764 -0.7169
    1SOL     OW 5129   1.358   0.103   2.337  0.1050 -0.5560 -0.2683
    1SOL    HW2 5130   1.385   0.191   2.364  0.9928 -1.1926  0.9500
    1SOL    HW3 5131   1.277   0.087   2.385  1.0645 -1.2253  1.1629
    1SOL    MW4 5132   1.351   0.112   2.347  0.3488 -0.7283  0.0813
    1SOL     OW 5133   1.345   0.383   2.418 -0.2089 -0.4792  0.3050
    1SOL    HW2 5134   1.365   0.366   2.510  1.4858 -0.5828 -0.0736
    1SOL    HW3 5135   1.430   0.394   2.376 -0.8842 -2.2262 -1.6092
    1SOL    MW4 5136   1.359   0.382   2.425 -0.0743 -0.7234  0.0026
    1SOL     OW 5137   1.589   0.465   2.313 -0.1060  0.2681  0.0323
    1SOL    HW2 5138   1.677   0.430   2.327 -0.5564 -0.3642  1.3390
    1SOL    HW3 5139   1.588   0.489   2.220  0.7124 -1.7602 -0.5303
    1SOL    MW4 5140   1.601   0.464   2.303 -0.0576 -0.0829  0.1302
    1SOL     OW 5141   1.556   0.737   2.411 -0.0928 -0.2027 -0.1325
    1SOL    HW2 5142   1.628   0.776   2.363 -0.8384  0.3297 -0.8263
    1SOL    HW3 5143   1.567   0.643   2.399  0.7950 -0.1563  0.2315
    1SOL    MW4 5144   1.567   0.730   2.403 -0.0740 -0.1263 -0.1760
    1SOL     OW 5145   1.349   0.862   2.283 -0.4965 -0.0099 -0.0063
    1SOL    HW2 5146   1.410   0.801   2.323 -0.6596  0.7795  1.4678
    1SOL    HW3 5147   1.263   0.837   2.317 -0.6980  0.3451 -0.2485
    1SOL    MW4 5148   1.346   0.851   2.293 -0.5445  0.1411  0.1564
    1SOL     OW 5149   1.392   1.117   2.372  0.2785 -0.8152 -0.4712
    1SOL    HW2 5150   1.392   1.108   2.467  0.3707  0.5514 -0.3374
    1SOL    HW3 5151   1.391   1.026   2.339  0.3833 -1.2886  0.8192
    1SOL    MW4 5152   1.392   1.104   2.380  0.3046 -0.6971 -0.2832
    1SOL     OW 5153   1.616   1.240   2.272 -0.2868 -0.0775 -0.3412
    1SOL    HW2 5154   1.540   1.189   2.301 -1.0721  0.8212 -0.8075
    1SOL    HW3 5155   1.601   1.254   2.179 -0.1652  1.1717 -0.1773
    1SOL    MW4 5156   1.604   1.235   2.264 -0.3744  0.2059 -0.3810
    1SOL     OW 5157   1.592   1.473   2.412 -0.1472  0.3454  0.1706
    1SOL    HW2 5158   1.660   1.527   2.371  0.2180 -0.0384  0.2678
    1SOL    HW3 5159   1.600   1.387   2.369 -0.8765  0.4297 -0.1456
    1SOL    MW4 5160   1.602   1.469   2.401 -0.1953  0.3059  0.1419
    1SOL     OW 5161   1.362   1.616   2.290  0.4001  0.1216 -0.0643
    1SOL    HW2 5162   1.443   1.580   2.325  0.0658 -1.0456 -0.4790
    1SOL    HW3 5163   1.293   1.567   2.335 -0.0440 -0.4780 -1.3727
    1SOL    MW4 5164   1.364   1.605   2.301  0.2973 -0.1115 -0.2916
    1SOL     OW 5165   1.353   1.869   2.400 -0.0156  0.3371  0.2613
    1SOL    HW2 5166   1.433   1.915   2.373 -0.1361  0.3633 -0.0530
    1SOL    HW3 5167   1.361   1.783   2.359 -0.5970  0.6630 -0.5580
    1SOL    MW4 5168   1.365   1.864   2.391 -0.1084  0.3836  0.1116
    1SOL     OW 5169   1.571   2.008   2.314  0.0931  0.6956 -0.1621
    1SOL    HW2 5170   1.657   1.990   2.354 -0.6347 -1.4378  0.5174
    1SOL    HW3 5171   1.591   2.026   2.222  1.3675  1.3354  0.2156
    1SOL    MW4 5172   1.585   2.008   2.307  0.1653  0.4985 -0.0226
    1SOL     OW 5173   1.537   2.296   2.367 -0.2831 -0.0203 -0.0489
    1SOL    HW2 5174   1.532   2.297   2.463  0.7422 -1.2716  0.0289
    1SOL    HW3 5175   1.542   2.203   2.345 -0.5748  0.2683 -1.3285
    1SOL    MW4 5176   1.537   2.284   2.377 -0.1863 -0.1476 -0.2074
    1SOL     OW 5177   1.303   2.448   2.308 -0.0246 -0.1355 -0.5720
    1SOL    HW2 5178   1.378   2.405   2.348 -0.8388 -1.1198 -0.0757
    1SOL    HW3 5179   1.326   2.455   2.215  0.6194 -0.5404 -0.4467
    1SOL    MW4 5180   1.316   2.443   2.301 -0.0471 -0.3188 -0.4900
    1SOL     OW 5181   1.328   2.707   2.405  0.3231 -0.1539  0.3308
    1SOL    HW2 5182   1.333   2.707   2.501  2.0541  0.5977  0.2451
    1SOL    HW3 5183   1.327   2.614   2.381  0.4007 -0.3441  1.0523
    1SOL    MW4 5184   1.328   2.694   2.414  0.5617 -0.0801  0.4146
    1SOL     OW 5185   1.545   2.844   2.287  0.3317  0.0875  0.1322
    1SOL    HW2 5186   1.480   2.797   2.339 -0.7345 -0.1437 -1.3882
    1SOL    HW3 5187   1.561   2.925   2.336 -0.6607 -0.1238  0.8238
    1SOL    MW4 5188   1.538   2.848   2.301  0.0601  0.0291  0.0229
    1SOL     OW 5189   1.575   3.087   2.435  0.2699  0.4119  0.6566
    1SOL    HW2 5190   1.565   3.079   2.530 -0.6135  0.0827  0.5464
    1SOL    HW3 5191   1.520   3.161   2.411  0.1741  0.2467  0.3568
    1SOL    MW4 5192   1.566   3.095   2.444  0.1407  0.3467  0.6025
    1SOL     OW 5193   1.380   3.250   2.348 -0.0348  0.1008 -0.7844
    1SOL    HW2 5194   1.298   3.209   2.374  0.0359 -0.1135 -0.8976
    1SOL    HW3 5195   1.374   3.257   2.252  0.4610 -0.7494 -0.8858
    1SOL    MW4 5196   1.368   3.245   2.338  0.0399 -0.0401 -0.8125
    1SOL     OW 5197   1.335   3.500   2.431 -0.0515  0.3900 -0.2023
    1SOL    HW2 5198   1.323   3.502   2.526 -1.4959 -0.1029 -0.3643
    1SOL    HW3 5199   1.348   3.407   2.411  0.1283  0.4807 -0.5000
    1SOL    MW4 5200   1.335   3.488   2.441 -0.2183  0.3369 -0.2627
    1SOL     OW 5201   1.576   3.616   2.363 -0.1468 -0.1509  0.0247
    1SOL    HW2 5202   1.565   3.704   2.400 -0.0417 -0.7611  1.5656
    1SOL    HW3 5203   1.494   3.571   2.385  0.7542 -1.1676  1.3869
    1SOL    MW4 5204   1.563   3.622   2.371 -0.0139 -0.3655  0.4077
    1SOL     OW 5205   1.537   3.884   2.419  0.0929 -0.4821  0.1664
    1SOL    HW2 5206   1.543   3.898   2.514  1.7667 -0.6913  0.0988
    1SOL    HW3 5207   1.620   3.915   2.384 -1.4748  1.9334 -1.5694
    1SOL    MW4 5208   1.549   3.890   2.427  0.1068 -0.1910 -0.0718
    1SOL     OW 5209   1.307   4.022   2.296 -0.1523  0.0975  0.0621
    1SOL    HW2 5210   1.381   3.983   2.343  0.2371  1.6634  0.7549
    1SOL    HW3 5211   1.343   4.053   2.214 -0.3645 -0.5132 -0.2692
    1SOL    MW4 5212   1.321   4.021   2.292 -0.1289  0.2232  0.1099
    1SOL     OW 5213   1.305   4.272   2.422 -0.1202 -0.2958  0.1290
    1SOL    HW2 5214   1.308   4.190   2.373  0.1144 -0.8867  1.1202
    1SOL    HW3 5215   1.227   4.316   2.390 -0.5875 -1.1844  0.0359
    1SOL    MW4 5216   1.295   4.267   2.411 -0.1510 -0.4907  0.2477
    1SOL     OW 5217   1.573   4.346   2.361 -0.0730 -0.3165 -0.0645
    1SOL    HW2 5218   1.487   4.311   2.387 -0.1401 -0.1056  0.0034
    1SOL    HW3 5219   1.571   4.437   2.392  0.8160 -0.7808  1.4175
    1SOL    MW4 5220   1.561   4.353   2.369  0.0355 -0.3500  0.1400
    1SOL     OW 5221   2.004   4.622   2.422 -0.0154  0.1272  0.3504
    1SOL    HW2 5222   2.078   4.653   2.370  0.4807  0.4064  1.2140
    1SOL    HW3 5223   1.990   4.532   2.394 -0.2889  0.5375 -0.8615
    1SOL    MW4 5224   2.012   4.614   2.412  0.0138  0.2179  0.3045
    1SOL     OW 5225   1.792   0.083   2.306  0.2961 -0.1341  0.2884
    1SOL    HW2 5226   1.799   0.172   2.340  3.9516 -0.0333 -0.5220
    1SOL    HW3 5227   1.872   0.040   2.335 -0.3983 -2.5087 -1.1822
    1SOL    MW4 5228   1.803   0.089   2.314  0.6868 -0.4341 -0.0124
    1SOL     OW 5229   1.827   0.330   2.413 -0.1093  0.0719 -0.0881
    1SOL    HW2 5230   1.820   0.348   2.507  0.5856  0.6798 -0.1511
    1SOL    HW3 5231   1.904   0.379   2.385 -1.1879  1.0838 -1.2891
    1SOL    MW4 5232   1.836   0.339   2.422 -0.1600  0.2856 -0.2551
    1SOL     OW 5233   2.029   0.500   2.296  0.5020 -0.2249 -0.3639
    1SOL    HW2 5234   2.014   0.591   2.321  2.9687  0.2067 -0.2600
    1SOL    HW3 5235   2.018   0.499   2.201  0.8793  0.2950 -0.4179
    1SOL    MW4 5236   2.026   0.512   2.287  0.8774 -0.0993 -0.3576
    1SOL     OW 5237   1.958   0.756   2.392  0.4038  0.2327  0.0027
    1SOL    HW2 5238   2.037   0.807   2.372  0.1855  0.6986  0.3207
    1SOL    HW3 5239   1.886   0.807   2.353  0.1914  0.1443  0.2790
    1SOL    MW4 5240   1.959   0.770   2.384  0.3470  0.2825  0.0813
    1SOL     OW 5241   1.732   0.891   2.281 -0.1759  0.8142  0.0248
    1SOL    HW2 5242   1.740   0.980   2.315  0.9444  1.2900 -1.4365
    1SOL    HW3 5243   1.742   0.900   2.186  0.5656 -0.9312 -0.0972
    1SOL    MW4 5244   1.735   0.904   2.273  0.0697  0.6467 -0.1843
    1SOL     OW 5245   1.825   1.117   2.410 -0.1526  0.4519 -0.4180
    1SOL    HW2 5246   1.909   1.149   2.378 -0.3142 -0.1776 -1.4966
    1SOL    HW3 5247   1.759   1.173   2.368 -0.3717 -0.4433 -1.2745
    1SOL    MW4 5248   1.827   1.128   2.400 -0.2028  0.2506 -0.6733
    1SOL     OW 5249   2.037   1.246   2.303  0.5521  0.1695 -0.4308
    1SOL    HW2 5250   2.039   1.337   2.334 -0.6415 -0.1821  0.6990
    1SOL    HW3 5251   1.998   1.251   2.216 -0.7771  0.5893  0.1822
    1SOL    MW4 5252   2.032   1.259   2.295  0.2191  0.1786 -0.2010
    1SOL     OW 5253   2.013   1.524   2.416  0.2661 -0.4749 -0.1104
    1SOL    HW2 5254   2.014   1.549   2.508  1.9154 -1.0619  0.0398
    1SOL    HW3 5255   1.933   1.564   2.382  0.4204  1.0184  1.2063
    1SOL    MW4 5256   2.002   1.532   2.424  0.5040 -0.3554  0.0830
    1SOL     OW 5257   1.791   1.634   2.295 -0.2075 -0.7484  0.2137
    1SOL    HW2 5258   1.779   1.720   2.334 -0.0697 -0.4332 -0.4366
    1SOL    HW3 5259   1.779   1.648   2.201  1.5662 -1.1039 -0.0876
    1SOL    MW4 5260   1.788   1.647   2.288  0.0447 -0.7536  0.0880
    1SOL     OW 5261   1.790   1.890   2.417  0.4471 -0.2927 -0.6797
    1SOL    HW2 5262   1.782   1.887   2.512  0.7879  0.6803 -0.6169
    1SOL    HW3 5263   1.881   1.917   2.401  0.8806 -2.0377 -1.3017
    1SOL    MW4 5264   1.801   1.893   2.427  0.5491 -0.3945 -0.7534
    1SOL     OW 5265   2.025   2.038   2.356  0.3394  0.2412 -0.3876
    1SOL    HW2 5266   2.105   1.997   2.390  0.5349  0.1583 -0.9457
    1SOL    HW3 5267   2.028   2.023   2.262  0.6960  2.0347 -0.6735
    1SOL    MW4 5268   2.036   2.031   2.348  0.4127  0.4668 -0.4988
    1SOL     OW 5269   1.982   2.309   2.395  0.0751 -0.3298  0.2951
    1SOL    HW2 5270   2.055   2.349   2.349  0.5733 -0.5236  0.9096
    1SOL    HW3 5271   1.991   2.215   2.378  0.7428 -0.4896  1.4530
    1SOL    MW4 5272   1.993   2.302   2.387  0.2289 -0.3765  0.5288
    1SOL     OW 5273   1.760   2.439   2.271  0.0488  0.1589 -0.1905
    1SOL    HW2 5274   1.831   2.410   2.327 -0.4814 -0.1671  0.3224
    1SOL    HW3 5275   1.689   2.377   2.288 -0.2439  0.2826 -0.9364
    1SOL    MW4 5276   1.760   2.427   2.281 -0.0598  0.1326 -0.2210
    1SOL     OW 5277   1.766   2.690   2.403  0.1537 -0.0930  0.0121
    1SOL    HW2 5278   1.767   2.604   2.360  0.7558 -0.2250  0.2761
    1SOL    HW3 5279   1.706   2.743   2.350 -2.1170 -1.3745  1.2054
    1SOL    MW4 5280   1.758   2.686   2.390 -0.0665 -0.2794  0.2041
    1SOL     OW 5281   2.005   2.819   2.327  0.0106 -0.0271  0.1378
    1SOL    HW2 5282   2.080   2.773   2.365 -0.7695 -0.0966  1.6706
    1SOL    HW3 5283   1.929   2.771   2.360 -0.7380  0.7812 -0.3923
    1SOL    MW4 5284   2.005   2.806   2.337 -0.1910  0.0703  0.2701
    1SOL     OW 5285   2.011   3.070   2.441 -0.2761  0.6324  0.3244
    1SOL    HW2 5286   2.098   3.088   2.407 -0.7993  1.3656 -0.6528
    1SOL    HW3 5287   1.989   2.983   2.408 -1.3750  1.9353 -2.4876
    1SOL    MW4 5288   2.019   3.061   2.432 -0.4902  0.9007 -0.1755
    1SOL     OW 5289   1.816   3.216   2.331 -0.1671 -0.3546 -0.3206
    1SOL    HW2 5290   1.891   3.174   2.373  1.0800  0.3146 -1.8348
    1SOL    HW3 5291   1.740   3.165   2.360  1.1254 -2.5794 -0.7548
    1SOL    MW4 5292   1.816   3.204   2.341  0.1680 -0.5598 -0.5777
    1SOL     OW 5293   1.817   3.477   2.411  0.3777 -0.1127  0.3329
    1SOL    HW2 5294   1.811   3.386   2.383  0.4667  0.4327 -1.4968
    1SOL    HW3 5295   1.741   3.519   2.371  1.0664  0.8978  0.0754
    1SOL    MW4 5296   1.806   3.471   2.402  0.4805  0.0925  0.0577
    1SOL     OW 5297   2.038   3.585   2.307  0.2294  0.4002  0.2176
    1SOL    HW2 5298   1.964   3.539   2.347  0.3130  0.2960  0.2544
    1SOL    HW3 5299   2.017   3.589   2.214  0.1083  0.5007  0.2497
    1SOL    MW4 5300   2.025   3.579   2.300  0.2246  0.3996  0.2267
    1SOL     OW 5301   1.999   3.825   2.422 -0.0326 -0.1933 -0.2484
    1SOL    HW2 5302   2.005   3.820   2.517  2.0258 -0.5823 -0.3611
    1SOL    HW3 5303   2.012   3.735   2.393 -0.8464 -0.1053 -0.8955
    1SOL    MW4 5304   2.002   3.812   2.431  0.1316 -0.2334 -0.3486
    1SOL     OW 5305   1.772   3.976   2.304  0.3446  0.2307  0.4119
    1SOL    HW2 5306   1.855   3.936   2.331  0.4024 -0.0043 -0.0945
    1SOL    HW3 5307   1.781   3.986   2.209 -0.0380  0.5977  0.4136
    1SOL    MW4 5308   1.784   3.972   2.295  0.3017  0.2480  0.3452
    1SOL     OW 5309   1.792   4.215   2.458 -0.0978 -0.0699 -0.7122
    1SOL    HW2 5310   1.784   4.131   2.413 -0.0009 -0.2341 -0.4269
    1SOL    HW3 5311   1.707   4.257   2.448 -0.7547 -1.0249  0.7845
    1SOL    MW4 5312   1.780   4.209   2.451 -0.1718 -0.2179 -0.4773
    1SOL     OW 5313   1.988   4.355   2.332  0.5198  0.5844 -0.5799
    1SOL    HW2 5314   1.922   4.293   2.364  1.9903 -0.8523 -0.2949
    1SOL    HW3 5315   1.968   4.366   2.239  0.6703 -0.8622 -0.7899
    1SOL    MW4 5316   1.976   4.348   2.324  0.7335  0.2031 -0.5698
    1SOL     OW 5317   2.457   4.645   2.380  0.1254 -0.1530 -0.2691
    1SOL    HW2 5318   2.539   4.684   2.350 -0.4384  0.5043 -1.0062
    1SOL    HW3 5319   2.465   4.553   2.359 -0.3706  0.3434 -2.7690
    1SOL    MW4 5320   2.469   4.638   2.373 -0.0143 -0.0010 -0.6962
    1SOL     OW 5321   2.210   0.095   2.299 -0.1874  0.1811  0.0849
    1SOL    HW2 5322   2.216   0.180   2.343 -0.5529  1.1557 -1.7250
    1SOL    HW3 5323   2.291   0.050   2.325  0.0657  1.1077  0.9717
    1SOL    MW4 5324   2.222   0.100   2.308 -0.2024  0.4320 -0.0370
    1SOL     OW 5325   2.214   0.350   2.413 -0.2877  0.3321  0.2547
    1SOL    HW2 5326   2.296   0.378   2.373 -0.1947 -0.7260 -0.3156
    1SOL    HW3 5327   2.149   0.412   2.382  0.0139  0.2364 -0.5672
    1SOL    MW4 5328   2.216   0.362   2.404 -0.2356  0.1799  0.0710
    1SOL     OW 5329   2.452   0.499   2.285  0.3351 -0.6391  0.0903
    1SOL    HW2 5330   2.526   0.449   2.319  0.5916 -0.2307  0.1216
    1SOL    HW3 5331   2.459   0.489   2.190  0.6092 -0.3373  0.0794
    1SOL    MW4 5332   2.463   0.491   2.277  0.4051 -0.5454  0.0932
    1SOL     OW 5333   2.421   0.739   2.445 -0.5873  0.2149 -0.5053
    1SOL    HW2 5334   2.495   0.785   2.406 -0.2209 -1.0851 -1.3610
    1SOL    HW3 5335   2.418   0.655   2.400 -0.8998 -0.8310  1.4196
    1SOL    MW4 5336   2.431   0.734   2.434 -0.5801 -0.0946 -0.3645
    1SOL     OW 5337   2.205   0.849   2.288 -0.0200  0.0628 -0.3677
    1SOL    HW2 5338   2.224   0.936   2.323 -0.9788  0.3468 -0.5511
    1SOL    HW3 5339   2.264   0.791   2.336 -0.2420  0.6438  0.6312
    1SOL    MW4 5340   2.215   0.853   2.299 -0.1757  0.1770 -0.2599
    1SOL     OW 5341   2.260   1.100   2.369 -0.0459  0.3039 -0.1853
    1SOL    HW2 5342   2.336   1.155   2.354  0.1298 -0.6458 -3.1303
    1SOL    HW3 5343   2.186   1.151   2.336 -0.1954 -0.2777 -0.7519
    1SOL    MW4 5344   2.260   1.114   2.363 -0.0427  0.1018 -0.6483
    1SOL     OW 5345   2.475   1.308   2.319 -0.4441 -0.4788 -0.1762
    1SOL    HW2 5346   2.537   1.259   2.373  2.0689  0.7024 -1.9276
    1SOL    HW3 5347   2.463   1.391   2.365 -0.0907 -0.3863 -0.2519
    1SOL    MW4 5348   2.481   1.312   2.332 -0.0658 -0.3109 -0.4172
    1SOL     OW 5349   2.435   1.543   2.453  0.1030  0.3587  0.3369
    1SOL    HW2 5350   2.430   1.534   2.548  1.0307 -0.8679  0.2851
    1SOL    HW3 5351   2.523   1.578   2.437 -0.0645  0.5945 -0.0761
    1SOL    MW4 5352   2.446   1.547   2.463  0.2034  0.2279  0.2759
    1SOL     OW 5353   2.224   1.642   2.314  0.0221 -0.1709 -0.2225
    1SOL    HW2 5354   2.296   1.622   2.373  0.4488 -0.2941 -0.7821
    1SOL    HW3 5355   2.153   1.584   2.342  0.0632  0.0927  0.4553
    1SOL    MW4 5356   2.224   1.632   2.325  0.0837 -0.1523 -0.2069
    1SOL     OW 5357   2.241   1.890   2.451  0.2701 -0.0472  0.0865
    1SOL    HW2 5358   2.313   1.928   2.401 -0.2713  1.2840  0.2914
    1SOL    HW3 5359   2.219   1.809   2.405  3.3855 -1.6790  1.3089
    1SOL    MW4 5360   2.247   1.884   2.439  0.6096 -0.0868  0.2749
    1SOL     OW 5361   2.427   2.029   2.299 -0.0187  0.1629  0.3369
    1SOL    HW2 5362   2.508   1.989   2.331 -0.1092 -0.0758  0.2732
    1SOL    HW3 5363   2.437   2.034   2.204  0.5438  1.5329  0.4577
    1SOL    MW4 5364   2.439   2.024   2.291  0.0434  0.3121  0.3445
    1SOL     OW 5365   2.444   2.283   2.413 -0.1267  0.0060 -0.0036
    1SOL    HW2 5366   2.524   2.320   2.376 -0.7822  1.2502 -0.1924
    1SOL    HW3 5367   2.433   2.199   2.367  0.6539  0.1863 -0.5247
    1SOL    MW4 5368   2.453   2.276   2.402 -0.1101  0.1941 -0.0975
    1SOL     OW 5369   2.220   2.447   2.321  0.1323  0.0739  0.1134
    1SOL    HW2 5370   2.226   2.531   2.366  1.0018 -0.6165  1.3376
    1SOL    HW3 5371   2.298   2.399   2.350 -0.2708 -1.0875 -0.6865
    1SOL    MW4 5372   2.231   2.451   2.331  0.1938 -0.1705  0.1695
    1SOL     OW 5373   2.227   2.696   2.439 -0.1194 -0.0315  0.0301
    1SOL    HW2 5374   2.248   2.681   2.531  0.8707  0.4596 -0.1064
    1SOL    HW3 5375   2.303   2.744   2.404 -0.4923 -0.1859 -1.0307
    1SOL    MW4 5376   2.240   2.700   2.446 -0.0377  0.0129 -0.1278
    1SOL     OW 5377   2.480   2.798   2.356 -0.1400  0.1874  1.0615
    1SOL    HW2 5378   2.551   2.747   2.396 -1.2413 -2.2052  0.0380
    1SOL    HW3 5379   2.493   2.787   2.262 -1.0510  0.8798  0.8579
    1SOL    MW4 5380   2.491   2.790   2.349 -0.4058 -0.0367  0.8996
    1SOL     OW 5381   2.502   3.076   2.408 -0.1911 -0.0199  0.2836
    1SOL    HW2 5382   2.577   3.115   2.363 -0.2390 -0.5082 -0.2352
    1SOL    HW3 5383   2.509   2.983   2.389  1.0238 -0.5587  3.1392
    1SOL    MW4 5384   2.513   3.069   2.399 -0.0367 -0.1554  0.5920
    1SOL     OW 5385   2.245   3.176   2.315  0.0100 -0.2326  0.4362
    1SOL    HW2 5386   2.262   3.259   2.360  1.5492  0.2619 -1.0007
    1SOL    HW3 5387   2.321   3.121   2.336  1.3911  0.4528 -2.5025
    1SOL    MW4 5388   2.257   3.180   2.324  0.3953 -0.0768 -0.1411
    1SOL     OW 5389   2.259   3.431   2.425  0.5835 -0.0546  0.3926
    1SOL    HW2 5390   2.239   3.423   2.518 -0.3251 -0.5402  0.1596
    1SOL    HW3 5391   2.183   3.478   2.388 -0.4437 -2.4395 -0.6067
    1SOL    MW4 5392   2.246   3.436   2.432  0.3281 -0.4332  0.2298
    1SOL     OW 5393   2.489   3.573   2.309 -0.3042  0.4967  0.2128
    1SOL    HW2 5394   2.496   3.662   2.343  0.3240  0.1738  0.9321
    1SOL    HW3 5395   2.421   3.533   2.363  1.4216 -0.3376  1.8134
    1SOL    MW4 5396   2.481   3.580   2.321  0.0067  0.3440  0.5188
    1SOL     OW 5397   2.465   3.836   2.422 -0.4323 -0.0299  0.4889
    1SOL    HW2 5398   2.463   3.855   2.516 -0.3268  0.0294  0.4776
    1SOL    HW3 5399   2.387   3.880   2.387 -0.4937 -0.0847  0.5545
    1SOL    MW4 5400   2.454   3.844   2.430 -0.4263 -0.0293  0.4959
    1SOL     OW 5401   2.250   3.968   2.309 -0.5297  0.0418  0.1136
    1SOL    HW2 5402   2.223   4.059   2.322 -1.6647 -0.1848 -0.5876
    1SOL    HW3 5403   2.179   3.917   2.349  0.8491 -0.5355  1.8963
    1SOL    MW4 5404   2.237   3.974   2.316 -0.4976 -0.0641  0.2561
    1SOL     OW 5405   2.240   4.238   2.380 -0.1938  0.3827 -0.3060
    1SOL    HW2 5406   2.234   4.218   2.473  0.4638  1.5094 -0.0119
    1SOL    HW3 5407   2.155   4.277   2.358  0.0399  1.1081  0.0709
    1SOL    MW4 5408   2.228   4.241   2.389 -0.0763  0.6270 -0.2174
    1SOL     OW 5409   2.472   4.389   2.327  0.2182  0.0129  0.3924
    1SOL    HW2 5410   2.553   4.345   2.352 -0.4816 -0.7535  1.3454
    1SOL    HW3 5411   2.403   4.338   2.369 -0.8857 -0.2690 -1.6614
    1SOL    MW4 5412   2.473   4.377   2.336 -0.0198 -0.1254  0.2470
    1SOL     OW 5413   2.920   4.626   2.407 -0.1248 -0.1864  0.3006
    1SOL    HW2 5414   3.006   4.662   2.385 -0.1275 -0.2228  0.2320
    1SOL    HW3 5415   2.921   4.538   2.372  0.6394 -0.9970  2.2536
    1SOL    MW4 5416   2.932   4.619   2.400 -0.0246 -0.2985  0.5491
    1SOL     OW 5417   2.693   0.097   2.280  0.2509  0.3213  0.0909
    1SOL    HW2 5418   2.690   0.187   2.312  1.5089  0.3454  0.1419
    1SOL    HW3 5419   2.765   0.057   2.328 -0.3432 -0.7307  0.1102
    1SOL    MW4 5420   2.702   0.104   2.291  0.3386  0.1857  0.1004
    1SOL     OW 5421   2.679   0.360   2.388 -0.0550  0.0244  0.1765
    1SOL    HW2 5422   2.688   0.363   2.483 -1.2412 -0.1739  0.3129
    1SOL    HW3 5423   2.758   0.401   2.354  0.3968  0.0468  1.2514
    1SOL    MW4 5424   2.690   0.365   2.396 -0.1519  0.0012  0.3364
    1SOL     OW 5425   2.926   0.490   2.313 -0.3796 -0.1876  0.3771
    1SOL    HW2 5426   2.932   0.584   2.328  2.1608 -0.1827 -0.4400
    1SOL    HW3 5427   2.939   0.480   2.218 -1.4553 -1.3000  0.3343
    1SOL    MW4 5428   2.928   0.501   2.302 -0.1864 -0.3338  0.2637
    1SOL     OW 5429   2.903   0.774   2.360 -0.0949  0.3450 -0.3820
    1SOL    HW2 5430   2.942   0.773   2.447 -0.1585  0.3990 -0.3534
    1SOL    HW3 5431   2.817   0.812   2.372  0.3066  1.3492 -0.6342
    1SOL    MW4 5432   2.897   0.779   2.373 -0.0503  0.4846 -0.4113
    1SOL     OW 5433   2.635   0.881   2.355 -0.1305 -0.6027  0.2858
    1SOL    HW2 5434   2.641   0.975   2.374 -1.0341 -0.7791  1.5087
    1SOL    HW3 5435   2.630   0.876   2.259 -1.1473  0.6821  0.2552
    1SOL    MW4 5436   2.635   0.893   2.345 -0.3839 -0.4565  0.4432
    1SOL     OW 5437   2.663   1.146   2.435 -0.0526  0.0171  0.4249
    1SOL    HW2 5438   2.660   1.138   2.530 -0.4009 -0.0919  0.4060
    1SOL    HW3 5439   2.753   1.175   2.416  0.4399 -1.3285  0.6795
    1SOL    MW4 5440   2.675   1.149   2.445 -0.0336 -0.1749  0.4561
    1SOL     OW 5441   2.917   1.260   2.345 -0.2424 -0.4315 -0.1676
    1SOL    HW2 5442   3.005   1.226   2.362 -0.3852 -0.3547  0.7583
    1SOL    HW3 5443   2.908   1.257   2.250  1.4600  1.3411 -0.3972
    1SOL    MW4 5444   2.927   1.255   2.335 -0.0367 -0.1875 -0.0756
    1SOL     OW 5445   2.898   1.527   2.436 -0.3987  0.2427  0.1992
    1SOL    HW2 5446   2.901   1.540   2.531  3.6239  0.2845  0.1661
    1SOL    HW3 5447   2.898   1.432   2.424 -0.6239  0.2379  0.2399
    1SOL    MW4 5448   2.899   1.517   2.447  0.1023  0.2475  0.2005
    1SOL     OW 5449   2.673   1.662   2.338 -0.1144  0.0963 -0.4721
    1SOL    HW2 5450   2.748   1.618   2.377 -0.2389  1.4031  1.2594
    1SOL    HW3 5451   2.687   1.654   2.243  0.8687 -1.9154 -0.1661
    1SOL    MW4 5452   2.685   1.655   2.330 -0.0012  0.0032 -0.2034
    1SOL     OW 5453   2.690   1.930   2.423  0.5109  0.2876  0.2480
    1SOL    HW2 5454   2.666   1.940   2.515  0.0528 -1.4807  0.3236
    1SOL    HW3 5455   2.684   1.836   2.406  0.2707  0.6357 -1.6770
    1SOL    MW4 5456   2.686   1.919   2.433  0.4189  0.1001  0.0041
    1SOL     OW 5457   2.918   2.011   2.316  0.1179  0.0378  0.5547
    1SOL    HW2 5458   2.995   1.968   2.354  0.5952  1.5369  1.2848
    1SOL    HW3 5459   2.843   1.966   2.355  0.6135 -0.4153  0.9877
    1SOL    MW4 5460   2.918   1.999   2.326  0.2463  0.1756  0.7083
    1SOL     OW 5461   2.911   2.253   2.427  0.3500  0.7437 -0.1358
    1SOL    HW2 5462   2.942   2.255   2.518 -1.5934  0.5631  0.5611
    1SOL    HW3 5463   2.901   2.160   2.407 -0.0254  0.8057 -0.2453
    1SOL    MW4 5464   2.914   2.241   2.436  0.0439  0.7281 -0.0584
    1SOL     OW 5465   2.708   2.415   2.343  0.1361  0.2856 -0.0782
    1SOL    HW2 5466   2.781   2.361   2.374 -0.4476 -0.9290 -0.7662
    1SOL    HW3 5467   2.722   2.423   2.249 -0.1816  0.7169 -0.0892
    1SOL    MW4 5468   2.719   2.409   2.334  0.0172  0.1824 -0.1705
    1SOL     OW 5469   2.701   2.672   2.461  0.2492  0.6024 -0.1703
    1SOL    HW2 5470   2.782   2.713   2.431  0.8445  0.7333  1.5383
    1SOL    HW3 5471   2.711   2.580   2.437  1.3285  0.4403  0.8513
    1SOL    MW4 5472   2.713   2.665   2.454  0.4699  0.5982  0.1903
    1SOL     OW 5473   2.929   2.802   2.359 -0.3503 -0.4434 -0.0935
    1SOL    HW2 5474   2.931   2.894   2.386 -0.4477 -0.4677 -0.0009
    1SOL    HW3 5475   2.922   2.805   2.263  0.4162 -0.3581 -0.1521
    1SOL    MW4 5476   2.928   2.815   2.350 -0.2620 -0.4356 -0.0892
    1SOL     OW 5477   2.941   3.077   2.419 -0.4677  0.0668  0.1585
    1SOL    HW2 5478   3.024   3.120   2.396 -0.8764  1.1713  0.6932
    1SOL    HW3 5479   2.877   3.118   2.361 -0.6324 -0.8576 -0.3205
    1SOL    MW4 5480   2.944   3.088   2.408 -0.5434  0.0911  0.1657
    1SOL     OW 5481   2.723   3.188   2.304 -0.5266  0.0763  0.3518
    1SOL    HW2 5482   2.731   3.274   2.345  2.1323  0.3140 -0.5652
    1SOL    HW3 5483   2.706   3.207   2.211  0.3238 -0.3546  0.0984
    1SOL    MW4 5484   2.722   3.201   2.297 -0.0637  0.0510  0.1969
    1SOL     OW 5485   2.716   3.450   2.422 -0.3476  0.3089  0.5301
    1SOL    HW2 5486   2.783   3.508   2.385  0.1605 -0.5387  0.1141
    1SOL    HW3 5487   2.634   3.483   2.385  0.0106  0.3517 -0.2486
    1SOL    MW4 5488   2.714   3.462   2.412 -0.2334  0.2024  0.3724
    1SOL     OW 5489   2.938   3.596   2.322  0.1839 -0.1228  0.0835
    1SOL    HW2 5490   2.988   3.543   2.384  0.4529 -0.3536 -0.3220
    1SOL    HW3 5491   2.950   3.686   2.351 -0.8561 -0.3354  1.1995
    1SOL    MW4 5492   2.946   3.601   2.334  0.0818 -0.1812  0.1774
    1SOL     OW 5493   2.923   3.868   2.420  0.1300  0.2863 -0.1516
    1SOL    HW2 5494   2.908   3.852   2.513  0.0368  1.7462  0.0892
    1SOL    HW3 5495   2.842   3.909   2.390 -0.9497 -2.6779 -1.5080
    1SOL    MW4 5496   2.910   3.871   2.428 -0.0243  0.0877 -0.2987
    1SOL     OW 5497   2.680   3.979   2.321 -0.1292  0.0738  0.0928
    1SOL    HW2 5498   2.605   3.931   2.357 -0.9394  0.4760 -1.0218
    1SOL    HW3 5499   2.658   3.991   2.229  1.4392 -0.0312 -0.3003
    1SOL    MW4 5500   2.667   3.974   2.314 -0.0293  0.1132 -0.1063
    1SOL     OW 5501   2.686   4.245   2.427 -0.1770 -0.3132 -0.0036
    1SOL    HW2 5502   2.651   4.240   2.516 -0.7171 -0.1956 -0.2050
    1SOL    HW3 5503   2.693   4.153   2.399  1.5344 -0.4211  0.7436
    1SOL    MW4 5504   2.682   4.232   2.435 -0.0224 -0.3123  0.0682
    1SOL     OW 5505   2.906   4.370   2.299 -0.1277 -0.1419 -0.3899
    1SOL    HW2 5506   2.982   4.330   2.342 -0.1533  0.6429  0.3876
    1SOL    HW3 5507   2.831   4.326   2.340 -0.1356  0.1719 -0.0690
    1SOL    MW4 5508   2.906   4.359   2.310 -0.1321  0.0033 -0.2449
    1SOL     OW 5509   3.385   4.645   2.427 -0.3501 -0.3347 -0.2384
    1SOL    HW2 5510   3.401   4.638   2.521  0.2573  1.0046 -0.2336
    1SOL    HW3 5511   3.471   4.663   2.389 -0.7578  0.1470 -0.9397
    1SOL    MW4 5512   3.398   4.647   2.435 -0.3238 -0.0944 -0.3300
    1SOL     OW 5513   3.147   0.078   2.322  0.0617  0.2075  0.2678
    1SOL    HW2 5514   3.144   0.170   2.346  0.3115  0.1048  0.7013
    1SOL    HW3 5515   3.220   0.042   2.372  0.0782 -0.1862 -0.0353
    1SOL    MW4 5516   3.156   0.085   2.332  0.0968  0.1420  0.2851
    1SOL     OW 5517   3.145   0.346   2.393  0.0121 -0.2938  0.0631
    1SOL    HW2 5518   3.219   0.405   2.378 -0.6932  0.1333 -1.9209
    1SOL    HW3 5519   3.070   0.391   2.353 -1.0497 -1.3243  0.8711
    1SOL    MW4 5520   3.145   0.360   2.385 -0.2208 -0.3735 -0.0920
    1SOL     OW 5521   3.368   0.510   2.355 -0.3465  0.1451  0.3451
    1SOL    HW2 5522   3.445   0.463   2.386  0.4160  0.6128 -0.7972
    1SOL    HW3 5523   3.377   0.510   2.260 -2.3614 -0.8046  0.1415
    1SOL    MW4 5524   3.379   0.504   2.346 -0.5116  0.0815  0.1674
    1SOL     OW 5525   3.356   0.794   2.399  0.1272 -0.3305 -0.5928
    1SOL    HW2 5526   3.440   0.833   2.375  1.1260 -0.4290  2.4316
    1SOL    HW3 5527   3.362   0.703   2.371  1.3658 -0.5278  0.2414
    1SOL    MW4 5528   3.368   0.788   2.392  0.4222 -0.3695 -0.0837
    1SOL     OW 5529   3.135   0.909   2.287  0.2660 -0.1195 -0.1319
    1SOL    HW2 5530   3.202   0.866   2.340  0.0907  0.0157  0.2089
    1SOL    HW3 5531   3.053   0.868   2.314  0.1256  0.2565  0.0205
    1SOL    MW4 5532   3.133   0.898   2.298  0.2244 -0.0519 -0.0668
    1SOL     OW 5533   3.158   1.156   2.412  0.1140 -0.5526  0.1631
    1SOL    HW2 5534   3.234   1.207   2.386  0.6544 -1.0168  0.7977
    1SOL    HW3 5535   3.156   1.082   2.352  0.0495 -0.4347  0.0209
    1SOL    MW4 5536   3.168   1.153   2.401  0.1767 -0.5982  0.2282
    1SOL     OW 5537   3.369   1.295   2.306 -0.6042  0.4440  0.2247
    1SOL    HW2 5538   3.448   1.254   2.340 -1.2704 -0.0074  1.2581
    1SOL    HW3 5539   3.383   1.389   2.318  0.9006  0.5746 -2.0976
    1SOL    MW4 5540   3.381   1.302   2.312 -0.4938  0.4017  0.0546
    1SOL     OW 5541   3.343   1.566   2.405  0.1242 -0.1385  1.1521
    1SOL    HW2 5542   3.332   1.535   2.495  0.4597  1.6796  1.8248
    1SOL    HW3 5543   3.255   1.588   2.375 -0.1889 -2.1862  0.4856
    1SOL    MW4 5544   3.330   1.564   2.413  0.1271 -0.1688  1.1530
    1SOL     OW 5545   3.109   1.675   2.324  0.2654 -0.5424 -0.0137
    1SOL    HW2 5546   3.117   1.756   2.374 -2.2854 -0.2462 -0.0197
    1SOL    HW3 5547   3.041   1.625   2.370  0.0816 -1.6095 -1.4113
    1SOL    MW4 5548   3.101   1.679   2.337 -0.0956 -0.6441 -0.1988
    1SOL     OW 5549   3.150   1.929   2.458  0.5214  0.0186  0.3845
    1SOL    HW2 5550   3.161   1.928   2.553  0.7256  0.7562  0.3727
    1SOL    HW3 5551   3.227   1.975   2.425 -0.3345  1.1874 -0.0191
    1SOL    MW4 5552   3.161   1.935   2.466  0.4354  0.2700  0.3297
    1SOL     OW 5553   3.388   2.058   2.297  0.2025 -0.3255 -0.2260
    1SOL    HW2 5554   3.474   2.018   2.310  1.1022  1.6364 -0.0247
    1SOL    HW3 5555   3.370   2.048   2.203  0.3619 -1.2846 -0.1573
    1SOL    MW4 5556   3.397   2.051   2.286  0.3424 -0.1931 -0.1905
    1SOL     OW 5557   3.387   2.336   2.372  0.0381 -0.2018 -0.0396
    1SOL    HW2 5558   3.295   2.357   2.358 -0.8487 -2.1720  2.3708
    1SOL    HW3 5559   3.391   2.240   2.363  1.7208 -0.2061  0.5429
    1SOL    MW4 5560   3.376   2.326   2.369  0.1428 -0.4625  0.3552
    1SOL     OW 5561   3.110   2.373   2.282 -0.7428 -0.3702 -0.0114
    1SOL    HW2 5562   3.097   2.457   2.327  0.5961  0.5942 -1.3690
    1SOL    HW3 5563   3.041   2.316   2.316 -0.2111  0.5439  2.7027
    1SOL    MW4 5564   3.099   2.377   2.293 -0.4959 -0.1225  0.1674
    1SOL     OW 5565   3.121   2.636   2.414  0.1660  0.1464  0.3298
    1SOL    HW2 5566   3.122   2.652   2.508  0.3147  1.8422  0.0659
    1SOL    HW3 5567   3.056   2.697   2.380 -0.8872 -1.4197 -0.5205
    1SOL    MW4 5568   3.112   2.647   2.422  0.0465  0.1636  0.1829
    1SOL     OW 5569   3.348   2.795   2.355 -0.1546 -0.1546  0.3221
    1SOL    HW2 5570   3.335   2.884   2.387 -1.5307  0.9799 -3.1236
    1SOL    HW3 5571   3.267   2.749   2.378  0.7562 -0.6837  2.5373
    1SOL    MW4 5572   3.335   2.801   2.362 -0.2158 -0.0749  0.1597
    1SOL     OW 5573   3.341   3.053   2.449  0.0889 -0.5269  0.2835
    1SOL    HW2 5574   3.430   3.078   2.424  0.0272 -0.6320 -0.0470
    1SOL    HW3 5575   3.284   3.109   2.396 -0.0549 -2.0118 -1.1639
    1SOL    MW4 5576   3.345   3.064   2.439  0.0618 -0.7367  0.0489
    1SOL     OW 5577   3.158   3.215   2.336 -0.2966  0.0632  0.2430
    1SOL    HW2 5578   3.143   3.302   2.373 -0.5898  0.0180  0.2280
    1SOL    HW3 5579   3.148   3.227   2.242 -1.9714 -0.3220  0.3612
    1SOL    MW4 5580   3.155   3.228   2.329 -0.5562  0.0060  0.2568
    1SOL     OW 5581   3.125   3.456   2.465  0.0268 -0.3590  0.1819
    1SOL    HW2 5582   3.121   3.466   2.560 -0.3902 -0.2995  0.1578
    1SOL    HW3 5583   3.185   3.525   2.436  0.4885 -0.6478  0.4425
    1SOL    MW4 5584   3.133   3.466   2.473  0.0329 -0.3891  0.2131
    1SOL     OW 5585   3.349   3.617   2.365 -0.1396  0.2523 -0.0387
    1SOL    HW2 5586   3.419   3.567   2.406 -0.8585  0.6443  1.7133
    1SOL    HW3 5587   3.379   3.632   2.275  1.0552 -1.4074  0.0556
    1SOL    MW4 5588   3.362   3.612   2.358 -0.0768  0.0849  0.2053
    1SOL     OW 5589   3.381   3.877   2.466 -0.0442  0.1636  0.2298
    1SOL    HW2 5590   3.455   3.917   2.420  0.3481  0.4607  1.0945
    1SOL    HW3 5591   3.380   3.786   2.437 -0.1102  0.4651 -0.7350
    1SOL    MW4 5592   3.391   3.870   2.456 -0.0010  0.2427  0.2165
    1SOL     OW 5593   3.159   3.973   2.318 -0.1221  0.5819 -0.0635
    1SOL    HW2 5594   3.226   3.946   2.381 -0.3098 -0.3874 -0.2647
    1SOL    HW3 5595   3.077   3.942   2.356 -0.4347  1.5576  0.0669
    1SOL    MW4 5596   3.157   3.965   2.332 -0.1881  0.5827 -0.0732
    1SOL     OW 5597   3.150   4.267   2.399 -0.1407 -0.1011 -0.0126
    1SOL    HW2 5598   3.236   4.309   2.393 -0.5526  0.6958 -0.3691
    1SOL    HW3 5599   3.166   4.176   2.372  0.4560  0.2250 -0.7877
    1SOL    MW4 5600   3.163   4.260   2.394 -0.1163  0.0467 -0.1619
    1SOL     OW 5601   3.420   4.361   2.366  0.2189 -0.0210  0.5487
    1SOL    HW2 5602   3.415   4.452   2.397  1.2763 -0.0646  0.8744
    1SOL    HW3 5603   3.401   4.367   2.272 -2.1374  0.2214  1.0212
    1SOL    MW4 5604   3.417   4.374   2.358  0.0477  0.0052  0.6542
    1SOL     OW 5605   3.825   4.605   2.459  0.2921  0.0644 -0.5333
    1SOL    HW2 5606   3.807   4.640   2.547 -1.2083  1.1042 -1.2414
    1SOL    HW3 5607   3.902   4.655   2.429  0.8820 -0.3747  0.2247
    1SOL    MW4 5608   3.833   4.616   2.467  0.1719  0.1435 -0.5269
    1SOL     OW 5609   3.616   0.064   2.314  0.2708 -0.0796  0.0334
    1SOL    HW2 5610   3.604   0.150   2.353 -0.0811 -0.2051  0.2112
    1SOL    HW3 5611   3.699   0.032   2.350  0.0549 -0.1026  0.5066
    1SOL    MW4 5612   3.625   0.071   2.324  0.1960 -0.0992  0.1192
    1SOL     OW 5613   3.583   0.328   2.421 -0.0663 -0.3742 -0.1275
    1SOL    HW2 5614   3.581   0.307   2.515 -2.4535  1.0509  0.1956
    1SOL    HW3 5615   3.666   0.373   2.408  0.2548 -0.5088  1.3329
    1SOL    MW4 5616   3.593   0.331   2.432 -0.3393 -0.2039  0.1080
    1SOL     OW 5617   3.809   0.491   2.312 -0.3250  0.1027 -0.6523
    1SOL    HW2 5618   3.815   0.576   2.355  0.4018  0.1928 -0.9437
    1SOL    HW3 5619   3.830   0.508   2.221 -0.0360 -0.4164 -0.6827
    1SOL    MW4 5620   3.812   0.504   2.306 -0.1912  0.0461 -0.6948
    1SOL     OW 5621   3.814   0.740   2.444 -0.6473  0.9426  0.5060
    1SOL    HW2 5622   3.823   0.753   2.538 -1.8869  1.4947  0.5545
    1SOL    HW3 5623   3.892   0.780   2.406 -0.4235  1.2057  1.2534
    1SOL    MW4 5624   3.825   0.747   2.451 -0.7813  1.0502  0.6108
    1SOL     OW 5625   3.590   0.874   2.323 -0.4232  0.3182  0.5956
    1SOL    HW2 5626   3.663   0.835   2.370  0.6061  1.9904  0.4014
    1SOL    HW3 5627   3.618   0.875   2.231 -1.3486 -0.5275  0.3027
    1SOL    MW4 5628   3.603   0.869   2.317 -0.4096  0.4272  0.5312
    1SOL     OW 5629   3.575   1.143   2.409  0.3176 -0.0197  0.3282
    1SOL    HW2 5630   3.556   1.133   2.502  0.6982 -0.2512  0.3826
    1SOL    HW3 5631   3.576   1.053   2.375  0.0954  0.0691  0.0864
    1SOL    MW4 5632   3.573   1.130   2.417  0.3386 -0.0386  0.3035
    1SOL     OW 5633   3.818   1.256   2.326 -0.1023  0.2419 -0.2186
    1SOL    HW2 5634   3.833   1.336   2.376 -0.2143  0.0173  0.1755
    1SOL    HW3 5635   3.731   1.227   2.354  0.1080 -0.2366 -0.0648
    1SOL    MW4 5636   3.808   1.263   2.336 -0.0894  0.1491 -0.1462
    1SOL     OW 5637   3.821   1.535   2.421 -0.1903 -0.1525  0.3253
    1SOL    HW2 5638   3.815   1.537   2.516  0.6540  1.6085  0.3596
    1SOL    HW3 5639   3.737   1.569   2.390 -0.2441 -0.1728  0.4524
    1SOL    MW4 5640   3.810   1.540   2.429 -0.0861  0.0772  0.3467
    1SOL     OW 5641   3.601   1.652   2.319  0.2224  0.2034 -0.1291
    1SOL    HW2 5642   3.514   1.626   2.349  0.4408 -1.1087 -0.6114
    1SOL    HW3 5643   3.593   1.656   2.224  0.6744  0.1517 -0.1689
    1SOL    MW4 5644   3.588   1.649   2.311  0.3109  0.0235 -0.1981
    1SOL     OW 5645   3.591   1.912   2.394 -0.0749 -0.2686 -0.6751
    1SOL    HW2 5646   3.680   1.944   2.375  0.8460 -0.3656  3.0821
    1SOL    HW3 5647   3.593   1.820   2.369  0.6800 -0.1128 -1.2177
    1SOL    MW4 5648   3.603   1.904   2.388  0.1464 -0.2608 -0.2511
    1SOL     OW 5649   3.834   2.015   2.344 -0.2442 -0.2909  0.4117
    1SOL    HW2 5650   3.923   1.997   2.373  0.3724  0.0281 -1.2643
    1SOL    HW3 5651   3.836   2.004   2.249 -1.7746  0.5896  0.2561
    1SOL    MW4 5652   3.846   2.011   2.336 -0.3648 -0.1326  0.1700
    1SOL     OW 5653   3.866   2.277   2.412 -0.3605 -0.1556 -0.3824
    1SOL    HW2 5654   3.788   2.323   2.381 -0.5136 -0.6002 -0.6470
    1SOL    HW3 5655   3.857   2.188   2.379 -0.0153 -0.3568  0.0567
    1SOL    MW4 5656   3.854   2.272   2.404 -0.3350 -0.2410 -0.3595
    1SOL     OW 5657   3.639   2.394   2.309  0.6127  0.1291 -0.3069
    1SOL    HW2 5658   3.544   2.384   2.321  0.4773  1.3791 -0.3425
    1SOL    HW3 5659   3.649   2.407   2.214  0.5645  2.6761  0.0036
    1SOL    MW4 5660   3.627   2.394   2.298  0.5884  0.6301 -0.2706
    1SOL     OW 5661   3.580   2.663   2.390 -0.3690  0.2800  0.6086
    1SOL    HW2 5662   3.593   2.574   2.359  0.0311  1.6711 -3.6752
    1SOL    HW3 5663   3.488   2.682   2.372 -0.7529  0.3734  2.5860
    1SOL    MW4 5664   3.570   2.654   2.383 -0.3672  0.4761  0.3042
    1SOL     OW 5665   3.793   2.836   2.331  0.0107 -0.0071 -0.6932
    1SOL    HW2 5666   3.793   2.919   2.380  1.0626 -0.8998  0.8730
    1SOL    HW3 5667   3.709   2.795   2.353  1.0852 -1.0865  1.6402
    1SOL    MW4 5668   3.782   2.842   2.341  0.2911 -0.2673 -0.1788
    1SOL     OW 5669   3.801   3.086   2.445 -0.0203  0.0792  0.0896
    1SOL    HW2 5670   3.814   3.109   2.537  0.7916 -0.1911  0.0461
    1SOL    HW3 5671   3.870   3.134   2.399 -0.9321  0.8609 -0.4695
    1SOL    MW4 5672   3.812   3.095   2.451 -0.0336  0.1466  0.0098
    1SOL     OW 5673   3.583   3.201   2.342 -0.1723  0.2063 -0.0641
    1SOL    HW2 5674   3.593   3.290   2.376  3.1917  0.6294 -1.8873
    1SOL    HW3 5675   3.667   3.158   2.363 -0.0721 -1.1442 -3.0554
    1SOL    MW4 5676   3.595   3.207   2.350  0.2849  0.0837 -0.6993
    1SOL     OW 5677   3.578   3.452   2.448  0.3332 -0.2073  0.3382
    1SOL    HW2 5678   3.569   3.472   2.541 -0.5502  1.6966 -0.1452
    1SOL    HW3 5679   3.665   3.485   2.425 -0.1912  1.0219  0.0772
    1SOL    MW4 5680   3.589   3.459   2.457  0.1473  0.2062  0.2398
    1SOL     OW 5681   3.812   3.584   2.343 -0.4326  0.1226  0.0651
    1SOL    HW2 5682   3.824   3.668   2.388 -0.6631  0.0954  0.1812
    1SOL    HW3 5683   3.804   3.607   2.250  0.3798  0.1494 -0.0041
    1SOL    MW4 5684   3.812   3.598   2.337 -0.3557  0.1225  0.0713
    1SOL     OW 5685   3.843   3.841   2.446  0.3697  0.3536 -0.1407
    1SOL    HW2 5686   3.825   3.844   2.540  0.1980  0.5996 -0.1804
    1SOL    HW3 5687   3.914   3.904   2.433 -0.4759  1.2827 -0.3650
    1SOL    MW4 5688   3.850   3.850   2.457  0.2353  0.5088 -0.1755
    1SOL     OW 5689   3.625   3.995   2.342 -0.0307  0.0069 -0.0620
    1SOL    HW2 5690   3.644   4.071   2.398  0.3350  0.8711 -1.3309
    1SOL    HW3 5691   3.689   3.929   2.368 -0.7449 -0.1066  1.4813
    1SOL    MW4 5692   3.636   3.997   2.353 -0.0765  0.1059 -0.0260
    1SOL     OW 5693   3.646   4.249   2.470  0.1244  0.3578  0.2928
    1SOL    HW2 5694   3.728   4.279   2.430  0.2972  0.5522  0.7957
    1SOL    HW3 5695   3.578   4.302   2.428  0.3799  1.0875  0.8101
    1SOL    MW4 5696   3.648   4.260   2.459  0.1810  0.4802  0.4272
    1SOL     OW 5697   3.843   4.353   2.323  0.4972  0.2277 -0.5795
    1SOL    HW2 5698   3.919   4.317   2.368 -0.5849 -0.2914  0.8872
    1SOL    HW3 5699   3.834   4.441   2.358  0.2240  0.1661 -0.4914
    1SOL    MW4 5700   3.852   4.360   2.333  0.3183  0.1512 -0.3743
    1SOL     OW 5701   4.273   4.634   2.402  0.3595  0.1269  0.0359
    1SOL    HW2 5702   4.259   4.637   2.497  0.6543  0.9169  0.0617
    1SOL    HW3 5703   4.351   4.688   2.388 -0.0064  0.4619 -0.7165
    1SOL    MW4 5704   4.282   4.642   2.413  0.3505  0.2756 -0.0598
    1SOL     OW 5705   4.019   0.067   2.320  0.0636 -0.2709 -0.5363
    1SOL    HW2 5706   4.017   0.154   2.360 -0.5460 -1.0453  1.1336
    1SOL    HW3 5707   4.107   0.034   2.338 -0.2853 -0.7109  0.3665
    1SOL    MW4 5708   4.030   0.074   2.328 -0.0634 -0.4311 -0.1967
    1SOL     OW 5709   4.035   0.333   2.421  0.2214  0.0842 -0.2253
    1SOL    HW2 5710   4.105   0.380   2.376 -0.1936  1.0807  0.1532
    1SOL    HW3 5711   3.958   0.389   2.410 -0.2604 -0.4716  0.2942
    1SOL    MW4 5712   4.034   0.347   2.414  0.1030  0.1424 -0.1068
    1SOL     OW 5713   4.234   0.496   2.318  0.0518  0.0471 -0.0765
    1SOL    HW2 5714   4.238   0.588   2.345  0.3150 -0.4442  1.6040
    1SOL    HW3 5715   4.320   0.461   2.342 -0.6421 -1.0506  0.7916
    1SOL    MW4 5716   4.246   0.504   2.325 -0.0048 -0.1626  0.2599
    1SOL     OW 5717   4.270   0.767   2.405 -0.1816  0.2065  0.2390
    1SOL    HW2 5718   4.192   0.818   2.381 -0.4362 -0.0862  0.4414
    1SOL    HW3 5719   4.342   0.811   2.359 -0.7388 -0.7149 -1.5642
    1SOL    MW4 5720   4.269   0.780   2.396 -0.2885  0.0463  0.0277
    1SOL     OW 5721   4.025   0.891   2.353  0.2724 -0.3961 -0.7009
    1SOL    HW2 5722   4.028   0.979   2.390 -1.5584 -1.1349  1.3043
    1SOL    HW3 5723   4.033   0.904   2.259  0.0636  1.9187 -0.4189
    1SOL    MW4 5724   4.026   0.904   2.346  0.0038 -0.1882 -0.3991
    1SOL     OW 5725   4.042   1.135   2.445 -0.5445  0.1307 -0.0994
    1SOL    HW2 5726   4.035   1.153   2.539  0.0930 -0.1897  0.0085
    1SOL    HW3 5727   3.956   1.161   2.409 -0.9688 -0.2270  0.6476
    1SOL    MW4 5728   4.030   1.140   2.452 -0.5164  0.0412  0.0134
    1SOL     OW 5729   4.271   1.276   2.325  0.0206  0.1377 -0.3146
    1SOL    HW2 5730   4.201   1.233   2.375  1.2414  0.9910  2.1769
    1SOL    HW3 5731   4.352   1.240   2.361  0.9365 -0.4445 -2.8241
    1SOL    MW4 5732   4.272   1.265   2.336  0.3023  0.1734 -0.3171
    1SOL     OW 5733   4.292   1.521   2.457  0.0467  0.2794 -0.4006
    1SOL    HW2 5734   4.298   1.431   2.423 -0.8513  0.4886 -1.1529
    1SOL    HW3 5735   4.357   1.570   2.407 -0.7638  0.4334 -1.3130
    1SOL    MW4 5736   4.301   1.515   2.446 -0.1783  0.3275 -0.6204
    1SOL     OW 5737   4.060   1.668   2.371  0.1604  0.2256 -0.2176
    1SOL    HW2 5738   4.127   1.603   2.396 -1.2525 -1.3415 -0.4279
    1SOL    HW3 5739   3.977   1.629   2.399 -0.9714  0.7289 -2.7141
    1SOL    MW4 5740   4.058   1.654   2.378 -0.1755  0.0852 -0.5746
    1SOL     OW 5741   4.080   1.937   2.452  0.0572 -0.0196 -0.3560
    1SOL    HW2 5742   4.082   1.933   2.548  0.7833  1.0040 -0.3245
    1SOL    HW3 5743   4.081   1.845   2.424 -0.4903 -0.3262  0.6218
    1SOL    MW4 5744   4.080   1.924   2.461  0.0806  0.0751 -0.2229
    1SOL     OW 5745   4.293   2.054   2.340 -0.1763 -0.0186  0.2493
    1SOL    HW2 5746   4.294   2.142   2.377 -1.0470  0.1181 -0.0491
    1SOL    HW3 5747   4.223   2.009   2.386 -0.5148 -0.1931 -0.4227
    1SOL    MW4 5748   4.284   2.060   2.351 -0.3366 -0.0238  0.1214
    1SOL     OW 5749   4.259   2.324   2.432  0.0850 -0.0755  0.1465
    1SOL    HW2 5750   4.184   2.381   2.416  0.8955  1.0501  0.3004
    1SOL    HW3 5751   4.333   2.369   2.391  0.4674 -1.7865 -1.1097
    1SOL    MW4 5752   4.259   2.338   2.424  0.2427 -0.1528  0.0012
    1SOL     OW 5753   4.030   2.472   2.323 -0.0064 -0.3483 -0.2927
    1SOL    HW2 5754   4.005   2.553   2.367  0.6038 -0.3521  0.0743
    1SOL    HW3 5755   3.971   2.406   2.358  0.6017 -0.3882  0.6771
    1SOL    MW4 5756   4.019   2.474   2.333  0.1545 -0.3543 -0.1163
    1SOL     OW 5757   4.015   2.717   2.452  0.5438  0.0119  0.0282
    1SOL    HW2 5758   4.022   2.713   2.548 -1.3537 -0.6259  0.1540
    1SOL    HW3 5759   3.947   2.782   2.436  0.4639 -0.3025 -0.8883
    1SOL    MW4 5760   4.007   2.725   2.463  0.2828 -0.1137 -0.0761
    1SOL     OW 5761   4.244   2.816   2.301 -0.0138 -0.0008 -0.0187
    1SOL    HW2 5762   4.168   2.772   2.341 -0.1765 -0.1395 -0.4834
    1SOL    HW3 5763   4.319   2.783   2.351 -0.3797  1.1105  1.2814
    1SOL    MW4 5764   4.244   2.806   2.313 -0.0834  0.1276  0.0916
    1SOL     OW 5765   4.272   3.073   2.419 -0.3732 -0.1152  0.1398
    1SOL    HW2 5766   4.276   2.991   2.371  1.1634 -1.1583  1.9897
    1SOL    HW3 5767   4.354   3.118   2.397 -0.1103 -0.1645  0.9972
    1SOL    MW4 5768   4.284   3.068   2.410 -0.1359 -0.2594  0.4969
    1SOL     OW 5769   4.038   3.222   2.342 -0.2944  0.3958  0.1664
    1SOL    HW2 5770   4.040   3.312   2.372 -1.2476  0.7249 -0.7307
    1SOL    HW3 5771   4.116   3.182   2.380  0.0126  1.5341  0.7447
    1SOL    MW4 5772   4.048   3.228   2.351 -0.3800  0.5894  0.1245
    1SOL     OW 5773   4.047   3.478   2.436 -0.0549  0.1067  0.0065
    1SOL    HW2 5774   4.128   3.512   2.399  0.8419 -0.8946  0.9832
    1SOL    HW3 5775   3.978   3.519   2.385  1.0943 -0.0045 -1.6841
    1SOL    MW4 5776   4.049   3.488   2.425  0.2151 -0.0403 -0.0875
    1SOL     OW 5777   4.283   3.600   2.355  0.3826 -0.0298  0.2223
    1SOL    HW2 5778   4.261   3.685   2.394  2.0952  0.7270 -0.3882
    1SOL    HW3 5779   4.298   3.620   2.262 -0.6003 -1.2550 -0.2066
    1SOL    MW4 5780   4.282   3.614   2.348  0.4787 -0.0918  0.0851
    1SOL     OW 5781   4.265   3.859   2.465 -0.1506 -0.1456 -0.5047
    1SOL    HW2 5782   4.272   3.854   2.560  1.3134 -0.7146 -0.6289
    1SOL    HW3 5783   4.342   3.909   2.438 -0.0675 -0.7786 -1.4527
    1SOL    MW4 5784   4.276   3.865   2.474  0.0534 -0.3040 -0.6461
    1SOL     OW 5785   4.057   4.008   2.368 -0.0557 -0.1121  0.0798
    1SOL    HW2 5786   4.122   3.946   2.400 -0.1078 -0.2804 -0.1391
    1SOL    HW3 5787   4.071   4.010   2.274  0.4587  0.7917  0.1662
    1SOL    MW4 5788   4.067   4.000   2.360  0.0052 -0.0148  0.0625
    1SOL     OW 5789   4.052   4.272   2.468  0.2682  0.5213  0.6760
    1SOL    HW2 5790   4.130   4.317   2.436  0.1293  1.8311  2.1315
    1SOL    HW3 5791   4.063   4.181   2.439  0.9699  1.2896 -1.5482
    1SOL    MW4 5792   4.064   4.266   2.460  0.3424  0.7958  0.5744
    1SOL     OW 5793   4.260   4.376   2.330  0.0662 -0.0320 -0.5603
    1SOL    HW2 5794   4.270   4.468   2.351 -0.6266 -0.1820  0.4351
    1SOL    HW3 5795   4.340   4.335   2.364  0.3301  0.1760 -0.9196
    1SOL    MW4 5796   4.272   4.383   2.337  0.0091 -0.0243 -0.4761
    1SOL     OW 5797   0.237   4.659   2.673  0.7881  0.4058 -0.0838
    1SOL    HW2 5798   0.241   4.573   2.716  0.3407  0.5713  0.2928
    1SOL    HW3 5799   0.173   4.708   2.725  1.1518  1.0143 -0.2171
    1SOL    MW4 5800   0.229   4.654   2.686  0.7771  0.5074 -0.0520
    1SOL     OW 5801   0.005   0.111   2.801 -0.7675  0.0223 -0.1677
    1SOL    HW2 5802   0.017   0.101   2.895  0.6443  0.6928 -0.2668
    1SOL    HW3 5803  -0.012   0.204   2.788 -1.2257 -0.1091 -0.5547
    1SOL    MW4 5804   0.004   0.122   2.811 -0.6417  0.0935 -0.2320
    1SOL     OW 5805   4.484   0.395   2.723 -0.1194  0.5701 -0.7103
    1SOL    HW2 5806   4.573   0.422   2.743  0.5724 -0.6432 -2.0902
    1SOL    HW3 5807   4.481   0.389   2.628 -2.0843  1.9500 -0.7643
    1SOL    MW4 5808   4.495   0.398   2.713 -0.2866  0.5921 -0.8996
    1SOL     OW 5809   0.238   0.534   2.795  0.3889 -0.1826  1.0198
    1SOL    HW2 5810   0.226   0.527   2.889  1.4435 -1.2693  1.0799
    1SOL    HW3 5811   0.326   0.501   2.779  0.0005 -0.5557 -0.4132
    1SOL    MW4 5812   0.248   0.529   2.805  0.4768 -0.3753  0.8385
    1SOL     OW 5813   0.210   0.763   2.648  0.1076  0.6324  0.0119
    1SOL    HW2 5814   0.272   0.813   2.701 -0.3227  0.3251  0.8063
    1SOL    HW3 5815   0.214   0.674   2.684 -0.7511  0.5964  0.0313
    1SOL    MW4 5816   0.219   0.758   2.659 -0.0625  0.5872  0.1190
    1SOL     OW 5817   0.014   0.926   2.770  0.5944  0.4404  0.0669
    1SOL    HW2 5818  -0.070   0.894   2.738  1.1382 -0.4341 -0.4960
    1SOL    HW3 5819   0.079   0.881   2.716  1.5218 -0.8146  2.1648
    1SOL    MW4 5820   0.012   0.916   2.758  0.7882  0.1594  0.2697
    1SOL     OW 5821   4.477   1.192   2.679  0.1089 -0.0653 -0.1126
    1SOL    HW2 5822   4.558   1.233   2.710 -0.9760  0.5493  2.0146
    1SOL    HW3 5823   4.477   1.106   2.720 -0.2707 -0.0987 -0.1817
    1SOL    MW4 5824   4.487   1.186   2.689 -0.0839  0.0114  0.1590
    1SOL     OW 5825   0.213   1.288   2.826  0.1929 -0.2659  0.5998
    1SOL    HW2 5826   0.289   1.240   2.793 -0.9647 -0.7698 -1.3899
    1SOL    HW3 5827   0.216   1.372   2.780 -1.6793 -1.1407 -1.1720
    1SOL    MW4 5828   0.224   1.293   2.815 -0.2069 -0.4478  0.1037
    1SOL     OW 5829   0.228   1.531   2.691  0.0600 -0.7410 -0.3918
    1SOL    HW2 5830   0.303   1.571   2.736 -0.4565  0.5686 -0.6835
    1SOL    HW3 5831   0.153   1.585   2.717 -0.5091 -1.0031 -1.4736
    1SOL    MW4 5832   0.228   1.543   2.701 -0.0832 -0.6028 -0.5729
    1SOL     OW 5833   4.485   1.660   2.785 -0.0694  0.3204  0.3973
    1SOL    HW2 5834   4.510   1.656   2.878  0.2218  1.1452  0.3584
    1SOL    HW3 5835   4.489   1.753   2.763 -3.2943  0.4971  0.3889
    1SOL    MW4 5836   4.489   1.672   2.794 -0.4568  0.4525  0.3908
    1SOL     OW 5837   0.015   1.943   2.748 -0.1562 -0.2900  0.0677
    1SOL    HW2 5838   0.102   1.967   2.780 -0.3666  0.4045  0.1333
    1SOL    HW3 5839   0.020   1.955   2.653 -0.3845  0.4350  0.1421
    1SOL    MW4 5840   0.027   1.948   2.739 -0.2141 -0.1026  0.0863
    1SOL     OW 5841   0.252   2.051   2.816 -0.0529 -0.0479  0.2587
    1SOL    HW2 5842   0.319   2.011   2.760 -0.8455 -1.3528  0.2296
    1SOL    HW3 5843   0.233   2.136   2.775  1.5030  0.2936  0.2086
    1SOL    MW4 5844   0.259   2.057   2.804  0.0478 -0.1750  0.2484
    1SOL     OW 5845   0.183   2.299   2.690  0.1223  0.1807  0.2262
    1SOL    HW2 5846   0.250   2.361   2.718 -0.3241  0.5471  0.4860
    1SOL    HW3 5847   0.108   2.319   2.745 -0.6157  0.6050 -0.9212
    1SOL    MW4 5848   0.182   2.310   2.701 -0.0340  0.2851  0.1092
    1SOL     OW 5849   4.465   2.444   2.825 -0.4413 -0.1874  0.1619
    1SOL    HW2 5850   4.465   2.450   2.920  0.4134 -0.1586  0.1688
    1SOL    HW3 5851   4.385   2.396   2.803  0.2738 -1.8049  1.0079
    1SOL    MW4 5852   4.455   2.439   2.834 -0.2341 -0.3967  0.2742
    1SOL     OW 5853   4.473   2.681   2.675 -0.3635  0.0879  0.6290
    1SOL    HW2 5854   4.399   2.728   2.713 -0.5826  0.5071 -0.3024
    1SOL    HW3 5855   4.469   2.594   2.715 -1.3654  0.1061  0.5863
    1SOL    MW4 5856   4.463   2.675   2.686 -0.5245  0.1457  0.5007
    1SOL     OW 5857   0.182   2.830   2.816 -0.1475  0.3269  0.2126
    1SOL    HW2 5858   0.173   2.918   2.778  0.8849  0.3315 -0.0541
    1SOL    HW3 5859   0.111   2.779   2.777  0.7539  0.4026 -1.5597
    1SOL    MW4 5860   0.172   2.835   2.806  0.1076  0.3376 -0.0567
    1SOL     OW 5861   0.193   3.088   2.702 -0.3264  0.1961  0.0015
    1SOL    HW2 5862   0.279   3.124   2.724  0.5452 -2.2905  0.8526
    1SOL    HW3 5863   0.189   3.090   2.606  0.1165  1.5340  0.0033
    1SOL    MW4 5864   0.204   3.093   2.692 -0.1530  0.0446  0.1140
    1SOL     OW 5865   4.457   3.175   2.847  0.0952  0.1874  0.0514
    1SOL    HW2 5866   4.384   3.122   2.817  0.3914 -0.4047  0.3743
    1SOL    HW3 5867   4.534   3.137   2.805  0.1875  1.0158 -0.5568
    1SOL    MW4 5868   4.457   3.163   2.837  0.1469  0.2189  0.0138
    1SOL     OW 5869   4.476   3.422   2.701  0.1839 -0.0339  0.1526
    1SOL    HW2 5870   4.535   3.477   2.752 -0.3397 -0.3763  1.1634
    1SOL    HW3 5871   4.474   3.339   2.750 -0.1808 -0.4320 -0.5374
    1SOL    MW4 5872   4.484   3.418   2.714  0.0667 -0.1314  0.1948
    1SOL     OW 5873   0.194   3.571   2.835 -0.2566  0.0867 -0.5540
    1SOL    HW2 5874   0.209   3.577   2.929  1.4257 -0.3300 -0.7635
    1SOL    HW3 5875   0.258   3.506   2.805 -1.0022 -0.0276 -1.9282
    1SOL    MW4 5876   0.205   3.563   2.843 -0.1330  0.0167 -0.7629
    1SOL     OW 5877   0.241   3.861   2.711  0.1196 -0.1022  0.0040
    1SOL    HW2 5878   0.246   3.774   2.750 -0.7873 -0.3989 -0.5290
    1SOL    HW3 5879   0.267   3.848   2.620  0.5946  0.3000  0.0768
    1SOL    MW4 5880   0.245   3.848   2.704  0.0627 -0.0882 -0.0567
    1SOL     OW 5881   0.031   3.980   2.809 -0.0439 -0.1280  0.1666
    1SOL    HW2 5882   0.011   4.068   2.778  1.0461  0.4426  1.0446
    1SOL    HW3 5883   0.108   3.953   2.758  0.1512 -0.2271  0.5126
    1SOL    MW4 5884   0.039   3.988   2.798  0.1256 -0.0660  0.3281
    1SOL     OW 5885   0.007   4.249   2.715  0.1253  0.1253 -0.5542
    1SOL    HW2 5886  -0.068   4.307   2.731  0.9173  1.0497 -0.0758
    1SOL    HW3 5887   0.083   4.300   2.745  1.0971 -0.2423 -2.2969
    1SOL    MW4 5888   0.007   4.264   2.721  0.3580  0.1984 -0.7210
    1SOL     OW 5889   0.232   4.409   2.790  0.0900  0.3750 -0.0541
    1SOL    HW2 5890   0.226   4.393   2.884 -0.8741  0.2173 -0.1420
    1SOL    HW3 5891   0.304   4.353   2.761 -0.1576 -0.2122  0.4528
    1SOL    MW4 5892   0.241   4.399   2.799 -0.0699  0.2761  0.0010
    1SOL     OW 5893   0.646   4.618   2.701  0.3023 -0.7003  0.0644
    1SOL    HW2 5894   0.727   4.668   2.712  0.0817 -0.1553 -0.7265
    1SOL    HW3 5895   0.580   4.667   2.750  0.1378 -0.3230 -0.5175
    1SOL    MW4 5896   0.648   4.631   2.709  0.2515 -0.5784 -0.1166
    1SOL     OW 5897   0.440   0.103   2.802 -0.3429  0.1104 -0.0406
    1SOL    HW2 5898   0.431   0.093   2.897 -0.3570 -1.4861 -0.1917
    1SOL    HW3 5899   0.365   0.056   2.766  0.9330 -1.3227 -0.8999
    1SOL    MW4 5900   0.429   0.096   2.810 -0.1765 -0.2893 -0.1736
    1SOL     OW 5901   0.462   0.358   2.718  0.0352  0.4967 -0.0391
    1SOL    HW2 5902   0.533   0.410   2.756 -0.7858  1.1650  0.5756
    1SOL    HW3 5903   0.470   0.273   2.761  0.6775  0.4476 -0.2346
    1SOL    MW4 5904   0.473   0.353   2.729  0.0116  0.5784  0.0165
    1SOL     OW 5905   0.643   0.507   2.832  0.2199 -0.0653 -0.7410
    1SOL    HW2 5906   0.642   0.502   2.928 -0.0385  0.1657 -0.7318
    1SOL    HW3 5907   0.729   0.474   2.808 -0.2981 -1.5829 -0.5148
    1SOL    MW4 5908   0.654   0.502   2.842  0.1174 -0.2351 -0.7098
    1SOL     OW 5909   0.632   0.776   2.706 -0.3246  0.1737  0.0500
    1SOL    HW2 5910   0.718   0.815   2.724 -0.7813  1.2314  0.0010
    1SOL    HW3 5911   0.631   0.695   2.757  0.7392  0.1081 -0.0242
    1SOL    MW4 5912   0.643   0.771   2.715 -0.2446  0.3046  0.0339
    1SOL     OW 5913   0.399   0.905   2.776 -0.4083  0.1111  0.1127
    1SOL    HW2 5914   0.408   0.999   2.756  1.5962  0.3469  1.9442
    1SOL    HW3 5915   0.486   0.869   2.759 -1.0772 -1.3663 -0.2355
    1SOL    MW4 5916   0.412   0.913   2.771 -0.2321 -0.0528  0.3083
    1SOL     OW 5917   0.446   1.170   2.721  0.0257 -0.0432  0.4740
    1SOL    HW2 5918   0.517   1.228   2.749  0.0470  0.5654 -0.7772
    1SOL    HW3 5919   0.448   1.176   2.625 -1.3236 -0.4978  0.4145
    1SOL    MW4 5920   0.456   1.178   2.712 -0.1495 -0.0229  0.3011
    1SOL     OW 5921   0.670   1.292   2.821  0.1096 -0.2843 -0.3309
    1SOL    HW2 5922   0.668   1.265   2.913  1.6642  1.6184  0.3087
    1SOL    HW3 5923   0.732   1.231   2.780 -0.2435 -0.8562 -0.0296
    1SOL    MW4 5924   0.678   1.280   2.828  0.2680 -0.1087 -0.2067
    1SOL     OW 5925   0.668   1.540   2.703 -0.1188  0.1196 -0.7293
    1SOL    HW2 5926   0.584   1.575   2.735 -0.1202  0.6446 -1.2844
    1SOL    HW3 5927   0.670   1.450   2.734 -0.6079  0.2974 -0.1767
    1SOL    MW4 5928   0.657   1.533   2.711 -0.1835  0.2123 -0.7298
    1SOL     OW 5929   0.438   1.662   2.813 -0.0583  0.3845  0.1922
    1SOL    HW2 5930   0.457   1.680   2.905 -0.6673  0.4500  0.3040
    1SOL    HW3 5931   0.428   1.748   2.773  1.5903  0.4044 -0.2379
    1SOL    MW4 5932   0.439   1.675   2.820  0.0789  0.3957  0.1502
    1SOL     OW 5933   0.433   1.893   2.665 -0.3618 -0.4050 -0.2197
    1SOL    HW2 5934   0.506   1.948   2.692 -0.1948 -0.7303 -0.0191
    1SOL    HW3 5935   0.434   1.897   2.569 -0.7858  0.5206 -0.1942
    1SOL    MW4 5936   0.443   1.901   2.656 -0.3957 -0.3258 -0.1900
    1SOL     OW 5937   0.632   2.051   2.761 -0.1548 -0.0863 -0.4737
    1SOL    HW2 5938   0.644   2.050   2.857 -1.7856 -2.4646 -0.2556
    1SOL    HW3 5939   0.690   1.981   2.730  0.4071  0.7216 -1.2337
    1SOL    MW4 5940   0.641   2.041   2.770 -0.2959 -0.2935 -0.5450
    1SOL     OW 5941   0.623   2.318   2.674 -0.1610  0.4610  0.0061
    1SOL    HW2 5942   0.689   2.365   2.724 -1.3898  1.8673  0.3431
    1SOL    HW3 5943   0.622   2.230   2.711  1.7827  0.3085 -0.2753
    1SOL    MW4 5944   0.632   2.313   2.685 -0.0668  0.6261  0.0131
    1SOL     OW 5945   0.413   2.452   2.786 -0.3238  0.4377  0.2605
    1SOL    HW2 5946   0.398   2.535   2.740  0.8430  0.9973  0.8798
    1SOL    HW3 5947   0.476   2.405   2.731  1.1242  1.1356  1.2959
    1SOL    MW4 5948   0.419   2.456   2.773  0.0211  0.6039  0.4787
    1SOL     OW 5949   0.375   2.700   2.668  0.2732 -0.1434  0.0212
    1SOL    HW2 5950   0.456   2.750   2.685  0.4003  0.0233 -1.0085
    1SOL    HW3 5951   0.309   2.742   2.723  0.6423  0.4299  0.0324
    1SOL    MW4 5952   0.377   2.712   2.678  0.3387 -0.0455 -0.1132
    1SOL     OW 5953   0.634   2.821   2.754 -0.6914  0.0057 -0.0055
    1SOL    HW2 5954   0.651   2.797   2.845  0.6650 -2.0256 -0.7492
    1SOL    HW3 5955   0.654   2.914   2.749  2.0125 -0.4743  1.1250
    1SOL    MW4 5956   0.639   2.830   2.765 -0.1557 -0.3254  0.0458
    1SOL     OW 5957   0.684   3.102   2.706  0.4305 -0.5266 -0.1345
    1SOL    HW2 5958   0.774   3.117   2.732  0.2967  1.2782 -0.6508
    1SOL    HW3 5959   0.680   3.129   2.614 -0.7535 -0.0594  0.0361
    1SOL    MW4 5960   0.695   3.107   2.697  0.2566 -0.2272 -0.1802
    1SOL     OW 5961   0.439   3.213   2.800 -0.0742 -0.0631 -0.3893
    1SOL    HW2 5962   0.419   3.204   2.893  0.5137  2.9714  0.0651
    1SOL    HW3 5963   0.511   3.151   2.784 -0.1596 -0.5686  1.1461
    1SOL    MW4 5964   0.446   3.203   2.810 -0.0079  0.2706 -0.1268
    1SOL     OW 5965   0.439   3.472   2.744 -0.0270 -0.1993 -0.0021
    1SOL    HW2 5966   0.436   3.381   2.775  0.5573 -0.2576 -0.1108
    1SOL    HW3 5967   0.431   3.465   2.649  0.7235 -0.1878 -0.0713
    1SOL    MW4 5968   0.437   3.459   2.736  0.1491 -0.2055 -0.0255
    1SOL     OW 5969   0.672   3.621   2.793 -0.0735  0.4845  0.0185
    1SOL    HW2 5970   0.680   3.618   2.889 -1.0429  0.9074  0.1166
    1SOL    HW3 5971   0.590   3.574   2.775  0.2014  0.2514 -0.6194
    1SOL    MW4 5972   0.662   3.614   2.803 -0.1651  0.5095 -0.0529
    1SOL     OW 5973   0.668   3.863   2.654 -0.1443  0.6030  0.1299
    1SOL    HW2 5974   0.606   3.914   2.708  1.3867  0.9100  1.6579
    1SOL    HW3 5975   0.661   3.774   2.688  1.5057  0.9790  1.4980
    1SOL    MW4 5976   0.659   3.858   2.666  0.2754  0.6931  0.5121
    1SOL     OW 5977   0.470   3.995   2.809  0.3508 -0.3300  0.2881
    1SOL    HW2 5978   0.476   4.084   2.772 -1.1602 -0.0925  0.5910
    1SOL    HW3 5979   0.386   3.962   2.778  0.7732 -1.5487  0.4324
    1SOL    MW4 5980   0.459   4.002   2.800  0.2072 -0.4592  0.3469
    1SOL     OW 5981   0.443   4.249   2.688  0.1417 -0.1479 -0.3870
    1SOL    HW2 5982   0.520   4.293   2.724 -0.9032  0.4320  1.1837
    1SOL    HW3 5983   0.449   4.263   2.594  1.0171  1.4407 -0.1105
    1SOL    MW4 5984   0.454   4.257   2.681  0.1193  0.1373 -0.1431
    1SOL     OW 5985   0.646   4.376   2.808  0.1237  0.0802 -0.3980
    1SOL    HW2 5986   0.732   4.341   2.783 -0.2886 -0.9966 -0.3432
    1SOL    HW3 5987   0.650   4.469   2.783  1.6761  0.3009  0.5939
    1SOL    MW4 5988   0.658   4.384   2.801  0.2741 -0.0329 -0.2599
    1SOL     OW 5989   1.118   4.614   2.741  0.3477  0.0087 -0.7522
    1SOL    HW2 5990   1.201   4.646   2.775  0.2261  1.0920 -1.4596
    1SOL    HW3 5991   1.113   4.523   2.770  0.5428  0.7168  1.6058
    1SOL    MW4 5992   1.128   4.607   2.750  0.3575  0.2451 -0.5345
    1SOL     OW 5993   0.886   0.062   2.771  0.1606  0.0142 -0.1537
    1SOL    HW2 5994   0.878   0.053   2.866  0.4592 -2.5941 -0.3184
    1SOL    HW3 5995   0.973   0.028   2.752  0.5199  1.5264 -1.2708
    1SOL    MW4 5996   0.896   0.056   2.781  0.2474 -0.1305 -0.3228
    1SOL     OW 5997   0.872   0.337   2.754 -0.2753 -0.1541  0.1381
    1SOL    HW2 5998   0.895   0.245   2.749 -1.3222 -0.3888 -0.9438
    1SOL    HW3 5999   0.855   0.362   2.662 -1.5246  0.6842  0.5759
    1SOL    MW4 6000   0.872   0.328   2.741 -0.5784 -0.0744  0.0532
    1SOL     OW 6001   1.111   0.463   2.786  0.0026 -0.6086 -0.2068
    1SOL    HW2 6002   1.106   0.556   2.766 -0.9760 -0.4694  0.6609
    1SOL    HW3 6003   1.022   0.431   2.776  0.2531 -1.3681 -0.0777
    1SOL    MW4 6004   1.099   0.471   2.782 -0.0935 -0.6905 -0.0753
    1SOL     OW 6005   1.111   0.719   2.701 -0.0850 -0.0029 -0.0824
    1SOL    HW2 6006   1.192   0.765   2.723 -0.1913 -0.0088  0.3244
    1SOL    HW3 6007   1.101   0.732   2.607  0.2516  0.2170 -0.0899
    1SOL    MW4 6008   1.120   0.727   2.691 -0.0546  0.0253 -0.0298
    1SOL     OW 6009   0.879   0.877   2.789 -0.1530 -0.1464 -0.0407
    1SOL    HW2 6010   0.881   0.872   2.885 -0.7492 -0.4115 -0.0357
    1SOL    HW3 6011   0.952   0.822   2.760  0.9378  1.1087  0.2889
    1SOL    MW4 6012   0.889   0.869   2.798 -0.0877 -0.0157  0.0036
    1SOL     OW 6013   0.840   1.134   2.691 -0.6341 -0.4718  0.5281
    1SOL    HW2 6014   0.859   1.046   2.721  1.6704  0.1273  0.9256
    1SOL    HW3 6015   0.866   1.135   2.599  1.8668  0.4922  1.2025
    1SOL    MW4 6016   0.846   1.123   2.683 -0.0001 -0.2656  0.6695
    1SOL     OW 6017   1.095   1.238   2.791 -0.1331 -0.0395 -0.0991
    1SOL    HW2 6018   1.104   1.324   2.751 -1.4201 -0.5846 -1.6120
    1SOL    HW3 6019   1.005   1.211   2.770 -0.2411 -1.1112  1.6213
    1SOL    MW4 6020   1.084   1.246   2.783 -0.3171 -0.2527 -0.0720
    1SOL     OW 6021   1.117   1.477   2.686  0.2675 -0.0745  0.1783
    1SOL    HW2 6022   1.036   1.519   2.712  1.4059  1.5194  1.2369
    1SOL    HW3 6023   1.128   1.502   2.594  0.0651  0.5303  0.3146
    1SOL    MW4 6024   1.108   1.486   2.677  0.3910  0.2156  0.3359
    1SOL     OW 6025   0.910   1.636   2.775 -0.2214 -0.4001 -0.4827
    1SOL    HW2 6026   0.915   1.645   2.870 -1.2470  0.7737 -0.5220
    1SOL    HW3 6027   0.834   1.580   2.760 -1.2051  0.9558 -0.6599
    1SOL    MW4 6028   0.901   1.630   2.786 -0.4864 -0.0663 -0.5114
    1SOL     OW 6029   0.858   1.911   2.676  0.2733 -0.2042  0.5455
    1SOL    HW2 6030   0.922   1.979   2.699 -0.0573  0.0595  0.6899
    1SOL    HW3 6031   0.877   1.839   2.736  0.7921 -0.3403  0.2210
    1SOL    MW4 6032   0.869   1.911   2.687  0.2981 -0.1872  0.5219
    1SOL     OW 6033   1.055   2.071   2.765  0.4579 -0.2057  0.2021
    1SOL    HW2 6034   1.133   2.025   2.733  0.5531 -0.4531  0.7973
    1SOL    HW3 6035   1.064   2.161   2.731  1.0405 -0.2117  0.3523
    1SOL    MW4 6036   1.066   2.077   2.756  0.5473 -0.2391  0.3002
    1SOL     OW 6037   1.066   2.353   2.677 -0.2501  0.6284  0.4268
    1SOL    HW2 6038   1.151   2.384   2.707 -0.3146  2.5326 -1.2212
    1SOL    HW3 6039   1.074   2.348   2.582 -1.7657  0.1534  0.3048
    1SOL    MW4 6040   1.078   2.357   2.668 -0.4584  0.8168  0.1931
    1SOL     OW 6041   0.815   2.462   2.790 -0.1283  0.0074  0.5778
    1SOL    HW2 6042   0.832   2.555   2.777  0.7545  0.0949  2.2575
    1SOL    HW3 6043   0.892   2.418   2.754 -1.0886 -0.1726 -1.3471
    1SOL    MW4 6044   0.827   2.468   2.783 -0.1385 -0.0048  0.5455
    1SOL     OW 6045   0.876   2.716   2.648 -0.6123  0.0058 -0.3204
    1SOL    HW2 6046   0.948   2.754   2.698 -0.5681 -1.0157  0.4214
    1SOL    HW3 6047   0.798   2.760   2.682 -0.7552 -1.7648  1.8021
    1SOL    MW4 6048   0.875   2.727   2.659 -0.6253 -0.3626  0.0575
    1SOL     OW 6049   1.083   2.832   2.798  0.0000  0.0000  0.1297
    1SOL    HW2 6050   1.106   2.825   2.891  0.0000  0.0000  0.1293
    1SOL    HW3 6051   1.159   2.795   2.752  0.0000  0.0000  0.1282
    1SOL    MW4 6052   1.096   2.826   2.804  0.0000  0.0000  0.1292
    1SOL     OW 6053   1.148   3.096   2.697  0.0000  0.0000  0.1185
    1SOL    HW2 6054   1.122   3.007   2.721  0.0000  0.0000  0.1148
    1SOL    HW3 6055   1.136   3.101   2.603  0.0000  0.0000  0.1185
    1SOL    MW4 6056   1.143   3.085   2.688  0.0000  0.0000  0.1180
    1SOL     OW 6057   0.919   3.208   2.802  0.0000  0.0000 -0.0116
    1SOL    HW2 6058   0.902   3.286   2.749  0.0000  0.0000 -0.0003
    1SOL    HW3 6059   1.006   3.179   2.773  0.0000  0.0000 -0.0246
    1SOL    MW4 6060   0.928   3.214   2.791  0.0000  0.0000 -0.0117
    1SOL     OW 6061   0.887   3.462   2.699  0.0000  0.0000 -0.1741
    1SOL    HW2 6062   0.961   3.507   2.741  0.0000  0.0000 -0.1611
    1SOL    HW3 6063   0.810   3.512   2.728  0.0000  0.0000 -0.1816
    1SOL    MW4 6064   0.887   3.475   2.708  0.0000  0.0000 -0.1731
    1SOL     OW 6065   1.102   3.599   2.815  0.0000  0.0000  0.0420
    1SOL    HW2 6066   1.101   3.626   2.907  0.0000  0.0000  0.0427
    1SOL    HW3 6067   1.100   3.681   2.766  0.0000  0.0000  0.0442
    1SOL    MW4 6068   1.102   3.613   2.821  0.0000  0.0000  0.0427
    1SOL     OW 6069   1.098   3.851   2.701  0.0000  0.0000 -0.1800
    1SOL    HW2 6070   1.178   3.889   2.739  0.0000  0.0000 -0.1764
    1SOL    HW3 6071   1.110   3.859   2.607  0.0000  0.0000 -0.1795
    1SOL    MW4 6072   1.110   3.857   2.694  0.0000  0.0000 -0.1795
    1SOL     OW 6073   0.893   4.008   2.837  0.0000  0.0000  0.6868
    1SOL    HW2 6074   0.958   3.963   2.782  0.0000  0.0000  0.6901
    1SOL    HW3 6075   0.809   3.970   2.809  0.0000  0.0000  0.6818
    1SOL    MW4 6076   0.890   3.997   2.826  0.0000  0.0000  0.6864
    1SOL     OW 6077   0.888   4.266   2.746  0.0000  0.0000 -0.2286
    1SOL    HW2 6078   0.892   4.174   2.771  0.0000  0.0000 -0.2303
    1SOL    HW3 6079   0.884   4.265   2.650  0.0000  0.0000 -0.2284
    1SOL    MW4 6080   0.888   4.254   2.737  0.0000  0.0000 -0.2286
    1SOL     OW 6081   1.144   4.351   2.834  0.0000  0.0000 -0.4531
    1SOL    HW2 6082   1.136   4.378   2.925  0.0000  0.0000 -0.4540
    1SOL    HW3 6083   1.055   4.327   2.808  0.0000  0.0000 -0.4670
    1SOL    MW4 6084   1.131   4.351   2.842  0.0000  0.0000 -0.4549
    1SOL     OW 6085   1.587   4.606   2.702 -0.5518  0.7142 -0.0680
    1SOL    HW2 6086   1.581   4.517   2.736  1.2399  0.2104 -0.9907
    1SOL    HW3 6087   1.572   4.596   2.608 -0.2437  1.3602 -0.1891
    1SOL    MW4 6088   1.584   4.593   2.694 -0.2748  0.7334 -0.2055
    1SOL     OW 6089   1.363   0.065   2.792  0.0588  0.7286 -0.4544
    1SOL    HW2 6090   1.356   0.151   2.751  0.5978  1.4042  0.8323
    1SOL    HW3 6091   1.439   0.024   2.750 -0.1001  0.9423 -0.9512
    1SOL    MW4 6092   1.372   0.071   2.781  0.1090  0.8459 -0.3502
    1SOL     OW 6093   1.356   0.331   2.700 -0.3019 -0.1879  0.4912
    1SOL    HW2 6094   1.417   0.385   2.750 -0.2674  0.3203 -0.0828
    1SOL    HW3 6095   1.270   0.370   2.716 -0.0908  1.0652 -1.2000
    1SOL    MW4 6096   1.352   0.344   2.709 -0.2694  0.0445  0.1924
    1SOL     OW 6097   1.582   0.486   2.790 -0.3943 -0.1271 -0.1560
    1SOL    HW2 6098   1.657   0.433   2.761 -0.1027 -0.8676  1.8562
    1SOL    HW3 6099   1.598   0.572   2.751  0.2513 -0.9187 -1.7142
    1SOL    MW4 6100   1.594   0.490   2.781 -0.2708 -0.3293 -0.0961
    1SOL     OW 6101   1.595   0.743   2.682 -0.6116  0.0136 -0.2648
    1SOL    HW2 6102   1.509   0.776   2.708 -1.3273 -1.8927 -0.1158
    1SOL    HW3 6103   1.597   0.754   2.587 -0.4456  1.3587 -0.1108
    1SOL    MW4 6104   1.584   0.749   2.673 -0.6841 -0.0604 -0.2246
    1SOL     OW 6105   1.354   0.857   2.775 -0.5653 -0.3801 -0.3959
    1SOL    HW2 6106   1.357   0.872   2.870 -1.5987  0.3964 -0.4859
    1SOL    HW3 6107   1.346   0.944   2.737 -2.3142 -0.8370 -1.1128
    1SOL    MW4 6108   1.354   0.870   2.783 -0.9325 -0.3380 -0.5021
    1SOL     OW 6109   1.320   1.100   2.663 -0.2446 -0.1822  0.3655
    1SOL    HW2 6110   1.378   1.162   2.708 -1.0095  0.0784  0.9884
    1SOL    HW3 6111   1.232   1.128   2.685 -0.6730  0.4812 -2.0224
    1SOL    MW4 6112   1.316   1.112   2.672 -0.4020 -0.0603  0.1328
    1SOL     OW 6113   1.525   1.262   2.780  0.5347 -0.4592  0.1283
    1SOL    HW2 6114   1.523   1.247   2.875  0.5952  1.1778  0.3988
    1SOL    HW3 6115   1.611   1.231   2.752 -0.5016 -3.5151  0.1471
    1SOL    MW4 6116   1.536   1.256   2.789  0.4059 -0.6464  0.1669
    1SOL     OW 6117   1.536   1.515   2.686  0.1310  0.0215  0.4009
    1SOL    HW2 6118   1.525   1.430   2.728 -0.9692 -0.3636 -0.6207
    1SOL    HW3 6119   1.556   1.494   2.594  1.8978  0.8444  0.5814
    1SOL    MW4 6120   1.537   1.501   2.679  0.2190  0.0793  0.2899
    1SOL     OW 6121   1.328   1.663   2.789  0.4505 -0.1909  0.1811
    1SOL    HW2 6122   1.412   1.628   2.759  0.3230  1.0280 -1.7622
    1SOL    HW3 6123   1.263   1.601   2.756  0.4910 -0.2566  0.2255
    1SOL    MW4 6124   1.331   1.651   2.781  0.4390 -0.0389 -0.0696
    1SOL     OW 6125   1.287   1.902   2.669 -0.1065  0.2063 -0.3486
    1SOL    HW2 6126   1.294   1.818   2.713  0.3841  0.4372  0.0293
    1SOL    HW3 6127   1.305   1.883   2.577  1.7661  0.1566  0.0009
    1SOL    MW4 6128   1.291   1.889   2.663  0.2053  0.2303 -0.2527
    1SOL     OW 6129   1.515   2.049   2.795  0.3511 -0.0265 -0.2030
    1SOL    HW2 6130   1.595   2.003   2.771  1.4204  0.7351  1.8050
    1SOL    HW3 6131   1.450   2.018   2.732  2.7110  0.9338 -3.2639
    1SOL    MW4 6132   1.517   2.039   2.783  0.8036  0.2007 -0.3419
    1SOL     OW 6133   1.532   2.276   2.637 -0.1492 -0.0028 -0.4993
    1SOL    HW2 6134   1.599   2.323   2.686 -0.5459  0.4139 -0.3514
    1SOL    HW3 6135   1.523   2.192   2.682 -0.7068  0.4862  0.3185
    1SOL    MW4 6136   1.539   2.271   2.649 -0.2751  0.1163 -0.3722
    1SOL     OW 6137   1.313   2.432   2.752 -0.1200  0.2771 -0.1337
    1SOL    HW2 6138   1.317   2.439   2.847 -0.0763 -0.5610 -0.0708
    1SOL    HW3 6139   1.386   2.375   2.728 -2.3045 -2.5474 -0.3216
    1SOL    MW4 6140   1.323   2.425   2.761 -0.4026 -0.2062 -0.1502
    1SOL     OW 6141   1.322   2.705   2.686  0.6358 -0.0353  0.0429
    1SOL    HW2 6142   1.327   2.611   2.703 -0.9980 -0.2511 -0.5692
    1SOL    HW3 6143   1.408   2.738   2.712  0.5161 -1.3648  2.2416
    1SOL    MW4 6144   1.334   2.697   2.692  0.4045 -0.2394  0.2522
    1SOL     OW 6145   1.544   2.804   2.789  0.0774 -0.3138 -0.0524
    1SOL    HW2 6146   1.542   2.804   2.884  0.2567 -1.0227 -0.0443
    1SOL    HW3 6147   1.630   2.769   2.767 -0.2000 -0.7344 -0.4772
    1SOL    MW4 6148   1.555   2.800   2.798  0.0644 -0.4628 -0.1070
    1SOL     OW 6149   1.579   3.081   2.704 -0.1155  0.3611 -0.1361
    1SOL    HW2 6150   1.655   3.114   2.752  0.4335 -0.1657 -0.6459
    1SOL    HW3 6151   1.558   2.998   2.746 -0.6836  0.7038  0.2809
    1SOL    MW4 6152   1.586   3.075   2.716 -0.1180  0.3364 -0.1483
    1SOL     OW 6153   1.358   3.236   2.798 -0.0908  0.1432  0.4326
    1SOL    HW2 6154   1.430   3.181   2.769 -0.0283  0.3515  0.1941
    1SOL    HW3 6155   1.280   3.182   2.784 -0.0548  0.2174 -0.0603
    1SOL    MW4 6156   1.357   3.222   2.793 -0.0777  0.1805  0.3362
    1SOL     OW 6157   1.341   3.506   2.726 -0.0139 -0.1982  0.6534
    1SOL    HW2 6158   1.330   3.414   2.749 -0.3817 -0.5278 -0.7643
    1SOL    HW3 6159   1.259   3.548   2.752 -0.6751 -0.6838 -0.6147
    1SOL    MW4 6160   1.329   3.499   2.732 -0.1495 -0.3057  0.2990
    1SOL     OW 6161   1.599   3.622   2.822  0.1688  0.2540 -0.2527
    1SOL    HW2 6162   1.661   3.569   2.773 -1.0143 -0.4326 -1.0323
    1SOL    HW3 6163   1.513   3.587   2.798 -0.7147  3.0372 -1.4909
    1SOL    MW4 6164   1.596   3.611   2.812 -0.1040  0.5305 -0.5186
    1SOL     OW 6165   1.573   3.867   2.700 -0.2595  0.4062 -0.1045
    1SOL    HW2 6166   1.488   3.892   2.735  0.9627  1.7420  2.0414
    1SOL    HW3 6167   1.592   3.783   2.740  0.4271  1.1823  1.2245
    1SOL    MW4 6168   1.564   3.859   2.710 -0.0076  0.6847  0.3538
    1SOL     OW 6169   1.323   3.959   2.813 -0.5704  0.2728 -0.0850
    1SOL    HW2 6170   1.341   3.974   2.906  1.0983  0.7664 -0.4621
    1SOL    HW3 6171   1.316   4.047   2.776 -0.2913  0.0861 -0.5872
    1SOL    MW4 6172   1.325   3.973   2.821 -0.3134  0.3133 -0.2010
    1SOL     OW 6173   1.304   4.202   2.689  0.1107 -0.0121 -0.1819
    1SOL    HW2 6174   1.253   4.268   2.737  0.1444 -0.2441  0.1688
    1SOL    HW3 6175   1.290   4.224   2.597 -0.1875  0.2555 -0.0733
    1SOL    MW4 6176   1.295   4.214   2.683  0.0757 -0.0072 -0.1211
    1SOL     OW 6177   1.546   4.346   2.782 -0.0461 -0.0959  0.3247
    1SOL    HW2 6178   1.524   4.352   2.875  0.9060 -0.0776  0.5501
    1SOL    HW3 6179   1.479   4.288   2.746 -1.0054  0.6951  0.8229
    1SOL    MW4 6180   1.534   4.339   2.790 -0.0471  0.0110  0.4201
    1SOL     OW 6181   2.029   4.632   2.715  0.1099  0.1617  0.1868
    1SOL    HW2 6182   2.106   4.686   2.733 -1.2281  1.8642  0.9498
    1SOL    HW3 6183   2.022   4.630   2.620  1.3322 -0.3487  0.1036
    1SOL    MW4 6184   2.038   4.639   2.705  0.0947  0.3185  0.2766
    1SOL     OW 6185   1.788   0.089   2.835  0.2825 -0.1393 -0.0772
    1SOL    HW2 6186   1.865   0.046   2.797  0.1207 -2.5907  2.2222
    1SOL    HW3 6187   1.714   0.055   2.784  0.2963 -1.5686  0.8138
    1SOL    MW4 6188   1.789   0.079   2.823  0.2631 -0.6513  0.3438
    1SOL     OW 6189   1.799   0.332   2.694  0.1148  0.0990  0.0572
    1SOL    HW2 6190   1.877   0.382   2.719 -0.4252  0.8673  0.2246
    1SOL    HW3 6191   1.805   0.252   2.747  0.5834  0.3314  0.3649
    1SOL    MW4 6192   1.810   0.328   2.705  0.1053  0.2310  0.1199
    1SOL     OW 6193   2.000   0.500   2.796 -0.2571  0.4144 -0.0172
    1SOL    HW2 6194   2.078   0.470   2.750 -0.2340  0.8805 -0.2821
    1SOL    HW3 6195   1.984   0.588   2.763 -0.5516  0.5501  0.4736
    1SOL    MW4 6196   2.008   0.507   2.786 -0.2928  0.4938  0.0124
    1SOL     OW 6197   1.994   0.740   2.688 -0.0342  0.0072 -0.1935
    1SOL    HW2 6198   1.945   0.813   2.726  0.3670  0.1292  0.0844
    1SOL    HW3 6199   1.973   0.744   2.594 -0.1841  0.3489 -0.1476
    1SOL    MW4 6200   1.985   0.750   2.680 -0.0011  0.0684 -0.1507
    1SOL     OW 6201   1.794   0.900   2.830  0.3628 -0.3154 -0.1140
    1SOL    HW2 6202   1.797   0.989   2.795  0.4729 -0.1076  0.4217
    1SOL    HW3 6203   1.733   0.854   2.772  0.9699 -0.1247 -0.9126
    1SOL    MW4 6204   1.786   0.906   2.818  0.4574 -0.2629 -0.1490
    1SOL     OW 6205   1.779   1.171   2.697 -0.0994  0.2466  0.2896
    1SOL    HW2 6206   1.866   1.201   2.726 -0.2335  0.6618  0.2666
    1SOL    HW3 6207   1.791   1.149   2.605  0.1632 -0.4207  0.4800
    1SOL    MW4 6208   1.792   1.172   2.689 -0.0825  0.2133  0.3116
    1SOL     OW 6209   2.028   1.270   2.772 -0.1848 -0.3623 -0.6133
    1SOL    HW2 6210   2.037   1.252   2.866  0.2013  0.3304 -0.5166
    1SOL    HW3 6211   2.095   1.216   2.731 -0.1558 -0.4380 -0.4665
    1SOL    MW4 6212   2.038   1.260   2.779 -0.1299 -0.2809 -0.5808
    1SOL     OW 6213   2.034   1.542   2.692  0.6054 -0.5756  0.0085
    1SOL    HW2 6214   1.951   1.566   2.732 -0.5759 -1.1210 -2.0416
    1SOL    HW3 6215   2.048   1.451   2.717  0.2827 -0.6627 -0.1294
    1SOL    MW4 6216   2.025   1.533   2.700  0.4070 -0.6591 -0.2801
    1SOL     OW 6217   1.782   1.650   2.766 -0.2946 -0.1161  0.0057
    1SOL    HW2 6218   1.766   1.661   2.860 -0.8571  0.7494 -0.1853
    1SOL    HW3 6219   1.714   1.588   2.738 -1.0076  0.7014 -0.0922
    1SOL    MW4 6220   1.771   1.643   2.775 -0.4630  0.1059 -0.0322
    1SOL     OW 6221   1.750   1.929   2.697  0.0287  0.1351  0.4202
    1SOL    HW2 6222   1.831   1.971   2.728  0.5139 -1.0539  0.7745
    1SOL    HW3 6223   1.759   1.837   2.723 -0.1383 -0.6150 -2.0947
    1SOL    MW4 6224   1.762   1.923   2.705  0.0707 -0.1208  0.1354
    1SOL     OW 6225   2.002   2.055   2.746 -0.5390 -0.2075  0.3479
    1SOL    HW2 6226   2.001   2.081   2.838 -1.3504 -1.0339  0.5813
    1SOL    HW3 6227   1.992   2.137   2.698 -2.2129  0.0277  1.0563
    1SOL    MW4 6228   2.001   2.069   2.752 -0.8669 -0.2856  0.4723
    1SOL     OW 6229   2.001   2.320   2.662  0.3160  0.0181 -0.2291
    1SOL    HW2 6230   2.091   2.345   2.685  0.0222  0.8532  0.0362
    1SOL    HW3 6231   1.998   2.326   2.567  0.0195  1.8517 -0.1211
    1SOL    MW4 6232   2.012   2.324   2.653  0.2379  0.3703 -0.1798
    1SOL     OW 6233   1.748   2.427   2.764  0.3060 -0.2380  0.1802
    1SOL    HW2 6234   1.774   2.444   2.855 -0.8381 -0.9244  0.6513
    1SOL    HW3 6235   1.826   2.388   2.724  0.6715 -0.3646  1.0015
    1SOL    MW4 6236   1.762   2.424   2.771  0.2034 -0.3455  0.3507
    1SOL     OW 6237   1.792   2.701   2.701  0.2025  0.1329 -0.2400
    1SOL    HW2 6238   1.773   2.612   2.732  0.0829 -0.6008 -2.3230
    1SOL    HW3 6239   1.783   2.695   2.605  1.0334  2.1813 -0.4633
    1SOL    MW4 6240   1.788   2.688   2.692  0.2964  0.3066 -0.5443
    1SOL     OW 6241   2.026   2.842   2.769  0.0158 -0.3846  0.2695
    1SOL    HW2 6242   2.097   2.780   2.754  0.0686 -0.5484  1.1718
    1SOL    HW3 6243   1.948   2.796   2.740  0.4626  0.4297 -2.3451
    1SOL    MW4 6244   2.025   2.828   2.764  0.0815 -0.2985  0.0436
    1SOL     OW 6245   2.044   3.117   2.711  0.6767  0.2967 -0.1480
    1SOL    HW2 6246   2.037   3.024   2.734  3.1264  0.1396  0.1224
    1SOL    HW3 6247   2.040   3.117   2.615  2.4980 -0.3032 -0.2437
    1SOL    MW4 6248   2.043   3.105   2.701  1.2400  0.1967 -0.1252
    1SOL     OW 6249   1.802   3.203   2.805 -0.1946 -0.3178 -0.5045
    1SOL    HW2 6250   1.798   3.293   2.772  0.3918 -0.0222  0.2234
    1SOL    HW3 6251   1.884   3.169   2.771  0.4243 -0.0061  0.6419
    1SOL    MW4 6252   1.812   3.211   2.796 -0.0356 -0.2377 -0.2570
    1SOL     OW 6253   1.804   3.458   2.701  0.3594  0.2120  0.0408
    1SOL    HW2 6254   1.887   3.501   2.722 -0.2572  0.8976  1.0961
    1SOL    HW3 6255   1.806   3.448   2.606  1.5852  0.3518  0.0387
    1SOL    MW4 6256   1.815   3.462   2.691  0.4398  0.3211  0.1800
    1SOL     OW 6257   2.008   3.583   2.819 -0.2570 -0.3077  0.3782
    1SOL    HW2 6258   2.028   3.571   2.912 -0.4696 -0.2228  0.4336
    1SOL    HW3 6259   2.084   3.547   2.774 -0.0532 -0.1510  0.5908
    1SOL    MW4 6260   2.021   3.577   2.826 -0.2582 -0.2759  0.4137
    1SOL     OW 6261   2.005   3.824   2.695 -0.4310  0.0297  0.5550
    1SOL    HW2 6262   1.932   3.878   2.727  0.1960  0.5788  1.0760
    1SOL    HW3 6263   2.016   3.757   2.763  0.3122  0.6526  1.0520
    1SOL    MW4 6264   1.997   3.822   2.708 -0.2502  0.1843  0.6893
    1SOL     OW 6265   1.804   3.978   2.798 -0.1432  0.3938 -0.5187
    1SOL    HW2 6266   1.810   4.068   2.767 -0.6340  1.1598  1.5766
    1SOL    HW3 6267   1.723   3.945   2.759 -0.6154  1.2519 -0.2752
    1SOL    MW4 6268   1.795   3.985   2.788 -0.2701  0.6080 -0.2098
    1SOL     OW 6269   1.814   4.253   2.718 -0.1449 -0.0809 -0.3238
    1SOL    HW2 6270   1.724   4.278   2.737  0.2939  0.8803  0.5796
    1SOL    HW3 6271   1.817   4.240   2.623 -1.2053 -0.0437 -0.3616
    1SOL    MW4 6272   1.803   4.255   2.708 -0.2270  0.0510 -0.2096
    1SOL     OW 6273   2.058   4.385   2.807  0.7749 -0.0819 -0.1802
    1SOL    HW2 6274   1.978   4.335   2.794  0.4072  0.4709 -0.0591
    1SOL    HW3 6275   2.036   4.473   2.777  0.7380  0.5518  1.6188
    1SOL    MW4 6276   2.045   4.390   2.802  0.7217  0.0749  0.0732
    1SOL     OW 6277   2.470   4.628   2.672 -0.0664  0.1189 -0.1086
    1SOL    HW2 6278   2.554   4.667   2.699  0.9462 -1.7562 -0.4432
    1SOL    HW3 6279   2.468   4.640   2.577  0.2428 -0.5885 -0.2116
    1SOL    MW4 6280   2.481   4.634   2.663  0.1078 -0.2222 -0.1664
    1SOL     OW 6281   2.252   0.097   2.767 -0.0190  0.0678  0.1059
    1SOL    HW2 6282   2.259   0.082   2.861 -0.1329  1.4160  0.3436
    1SOL    HW3 6283   2.326   0.048   2.730  0.8219  0.6007  1.0304
    1SOL    MW4 6284   2.263   0.089   2.774  0.0770  0.3160  0.2594
    1SOL     OW 6285   2.225   0.365   2.692 -0.0796  0.0890 -0.2264
    1SOL    HW2 6286   2.219   0.272   2.713 -0.2584  0.0210 -0.5709
    1SOL    HW3 6287   2.235   0.368   2.597 -2.5676  0.5185 -0.5115
    1SOL    MW4 6288   2.225   0.353   2.682 -0.4313  0.1366 -0.3092
    1SOL     OW 6289   2.481   0.482   2.773  0.0154 -0.4546  0.1450
    1SOL    HW2 6290   2.480   0.574   2.750 -0.0956 -0.3759  0.4541
    1SOL    HW3 6291   2.402   0.446   2.733  0.0256 -0.4020  0.0782
    1SOL    MW4 6292   2.471   0.489   2.765  0.0024 -0.4372  0.1769
    1SOL     OW 6293   2.489   0.746   2.720 -0.1878 -0.3309  0.1183
    1SOL    HW2 6294   2.408   0.792   2.743 -0.3634 -0.8306  0.5102
    1SOL    HW3 6295   2.484   0.736   2.624 -0.1631  0.4243  0.0321
    1SOL    MW4 6296   2.478   0.751   2.710 -0.2074 -0.2971  0.1585
    1SOL     OW 6297   2.240   0.850   2.749 -0.1436 -0.1302 -0.0422
    1SOL    HW2 6298   2.242   0.872   2.842 -1.7218  0.8199 -0.2040
    1SOL    HW3 6299   2.157   0.805   2.737 -0.3293  0.4983 -1.1439
    1SOL    MW4 6300   2.229   0.847   2.760 -0.3767  0.0781 -0.2089
    1SOL     OW 6301   2.244   1.126   2.670  0.6392 -0.0530  0.2922
    1SOL    HW2 6302   2.222   1.033   2.678 -0.6636  0.0268 -1.7686
    1SOL    HW3 6303   2.255   1.140   2.576  1.3370  1.7825  0.6125
    1SOL    MW4 6304   2.242   1.116   2.658  0.5593  0.1998  0.0625
    1SOL     OW 6305   2.477   1.257   2.766 -0.1850  0.0643  0.1573
    1SOL    HW2 6306   2.558   1.208   2.753 -0.5679 -1.3177  2.6305
    1SOL    HW3 6307   2.409   1.198   2.734 -0.3046  0.7241 -0.7920
    1SOL    MW4 6308   2.479   1.242   2.760 -0.2513 -0.0310  0.3583
    1SOL     OW 6309   2.437   1.537   2.727  0.6340  0.3676 -0.1895
    1SOL    HW2 6310   2.357   1.568   2.769  1.0631  1.5061 -0.2051
    1SOL    HW3 6311   2.441   1.444   2.749 -1.2034  0.0608 -0.9824
    1SOL    MW4 6312   2.427   1.529   2.735  0.4480  0.4772 -0.2964
    1SOL     OW 6313   2.219   1.656   2.857 -0.1282 -0.1309  0.2661
    1SOL    HW2 6314   2.226   1.745   2.823  1.4210 -0.0140  0.8542
    1SOL    HW3 6315   2.156   1.613   2.799 -0.7675  1.2902 -0.1196
    1SOL    MW4 6316   2.211   1.662   2.845 -0.0079  0.0720  0.2930
    1SOL     OW 6317   2.244   1.912   2.727  0.1512 -0.2180  0.1136
    1SOL    HW2 6318   2.165   1.964   2.736 -0.5977 -1.4096  0.5728
    1SOL    HW3 6319   2.255   1.901   2.632  0.0327  0.3369  0.0352
    1SOL    MW4 6320   2.235   1.917   2.716  0.0367 -0.3021  0.1640
    1SOL     OW 6321   2.455   2.050   2.830  0.2900  0.1761 -0.7386
    1SOL    HW2 6322   2.455   2.139   2.794 -2.3443  1.0074  1.1670
    1SOL    HW3 6323   2.373   2.011   2.798  0.6445 -1.0230 -0.2363
    1SOL    MW4 6324   2.444   2.056   2.821 -0.0105  0.1278 -0.4208
    1SOL     OW 6325   2.466   2.289   2.699 -0.0452  0.2302 -0.2765
    1SOL    HW2 6326   2.547   2.337   2.714  0.1077  0.0834 -0.6379
    1SOL    HW3 6327   2.449   2.299   2.606  0.2101 -0.7653 -0.4361
    1SOL    MW4 6328   2.474   2.297   2.689  0.0086  0.0794 -0.3452
    1SOL     OW 6329   2.237   2.417   2.784 -0.0831 -0.2509 -0.2290
    1SOL    HW2 6330   2.237   2.424   2.879 -0.0529  1.6079 -0.3519
    1SOL    HW3 6331   2.325   2.386   2.763  0.3306  0.5639  0.2739
    1SOL    MW4 6332   2.249   2.414   2.794 -0.0246  0.1018 -0.1791
    1SOL     OW 6333   2.237   2.680   2.718  0.0238  0.0815 -0.0285
    1SOL    HW2 6334   2.328   2.703   2.736 -0.1451  0.8771 -0.1904
    1SOL    HW3 6335   2.230   2.588   2.744  1.2261 -0.3853 -1.2972
    1SOL    MW4 6336   2.248   2.671   2.723  0.1600  0.1247 -0.2174
    1SOL     OW 6337   2.473   2.805   2.828  0.2122 -0.1981  0.0169
    1SOL    HW2 6338   2.559   2.767   2.811 -0.3069  0.2140 -4.0460
    1SOL    HW3 6339   2.484   2.898   2.812 -0.6034  0.1103  1.1633
    1SOL    MW4 6340   2.486   2.812   2.824  0.0360 -0.1030 -0.3679
    1SOL     OW 6341   2.511   3.065   2.709  0.0271  0.1768  0.1137
    1SOL    HW2 6342   2.432   3.114   2.733  0.0518  0.3050 -0.0674
    1SOL    HW3 6343   2.511   3.064   2.614  0.3834  0.3987  0.1120
    1SOL    MW4 6344   2.501   3.071   2.700  0.0775  0.2232  0.0896
    1SOL     OW 6345   2.298   3.222   2.797  0.2447 -0.4368 -0.1805
    1SOL    HW2 6346   2.297   3.234   2.892 -0.0018  2.9626 -0.5441
    1SOL    HW3 6347   2.217   3.176   2.778 -0.2640 -0.1141  1.1414
    1SOL    MW4 6348   2.287   3.217   2.807  0.1450  0.0544 -0.0541
    1SOL     OW 6349   2.215   3.461   2.698  0.2576  0.1148  0.0946
    1SOL    HW2 6350   2.293   3.515   2.712  0.5454 -0.2666 -0.0288
    1SOL    HW3 6351   2.233   3.380   2.745  0.3167 -0.3189 -0.6560
    1SOL    MW4 6352   2.228   3.458   2.706  0.3035  0.0074 -0.0205
    1SOL     OW 6353   2.460   3.560   2.767 -0.2596  0.3412 -0.5225
    1SOL    HW2 6354   2.468   3.564   2.862  0.0502 -0.8015 -0.4893
    1SOL    HW3 6355   2.445   3.650   2.740 -2.9402  0.3580  0.8571
    1SOL    MW4 6356   2.459   3.572   2.776 -0.5724  0.1926 -0.3362
    1SOL     OW 6357   2.444   3.825   2.693  0.0580  0.5384 -0.4469
    1SOL    HW2 6358   2.513   3.839   2.758 -0.9834  0.1338  0.7864
    1SOL    HW3 6359   2.374   3.884   2.720 -0.8183 -0.4463 -0.5420
    1SOL    MW4 6360   2.444   3.834   2.705 -0.1948  0.3550 -0.2968
    1SOL     OW 6361   2.216   3.982   2.769  0.3350 -0.2177  0.5776
    1SOL    HW2 6362   2.215   3.968   2.863  1.0537  0.2855  0.6710
    1SOL    HW3 6363   2.146   3.927   2.735 -0.6282  0.3991  1.5112
    1SOL    MW4 6364   2.207   3.973   2.777  0.3028 -0.0696  0.7131
    1SOL     OW 6365   2.239   4.234   2.651 -0.0693 -0.1598  0.3822
    1SOL    HW2 6366   2.252   4.159   2.709 -0.8910 -1.3197 -0.9232
    1SOL    HW3 6367   2.166   4.282   2.689 -0.2465 -0.6188  0.6224
    1SOL    MW4 6368   2.231   4.231   2.664 -0.2007 -0.3734  0.2413
    1SOL     OW 6369   2.454   4.373   2.798 -0.0392  0.1793 -0.0400
    1SOL    HW2 6370   2.380   4.323   2.765  0.6613  0.2978 -1.8480
    1SOL    HW3 6371   2.451   4.456   2.751  0.4007  0.7713  0.9420
    1SOL    MW4 6372   2.444   4.377   2.788  0.1109  0.2732 -0.1490
    1SOL     OW 6373   2.938   4.573   2.683 -0.4142 -0.2519  0.0545
    1SOL    HW2 6374   3.010   4.625   2.718 -0.6287 -0.1548  0.3469
    1SOL    HW3 6375   2.938   4.593   2.589  0.2406 -0.6180 -0.0223
    1SOL    MW4 6376   2.948   4.583   2.675 -0.3562 -0.2871  0.0830
    1SOL     OW 6377   2.711   0.077   2.748  0.0477 -0.2581  0.2229
    1SOL    HW2 6378   2.708   0.100   2.841  1.5905  1.3094 -0.0845
    1SOL    HW3 6379   2.786   0.018   2.740  1.1880  1.2301 -0.3329
    1SOL    MW4 6380   2.720   0.072   2.759  0.4015  0.1451  0.1090
    1SOL     OW 6381   2.707   0.340   2.653 -0.1862  0.0697  0.2754
    1SOL    HW2 6382   2.714   0.251   2.687 -1.2660 -0.6726 -1.3640
    1SOL    HW3 6383   2.640   0.382   2.707 -1.4004 -0.8740 -0.4860
    1SOL    MW4 6384   2.699   0.334   2.664 -0.4888 -0.1527 -0.0412
    1SOL     OW 6385   2.935   0.454   2.719 -0.0725 -0.0900 -0.2663
    1SOL    HW2 6386   2.933   0.549   2.716  0.6807 -0.0666 -0.1080
    1SOL    HW3 6387   2.851   0.427   2.682 -0.9683  0.6602  1.1679
    1SOL    MW4 6388   2.924   0.463   2.714 -0.0913  0.0120 -0.0563
    1SOL     OW 6389   2.960   0.736   2.628 -0.3582  0.2101  0.0222
    1SOL    HW2 6390   3.034   0.784   2.667 -0.7517  1.5333 -0.8140
    1SOL    HW3 6391   2.883   0.768   2.675 -0.6763  0.7929 -0.8621
    1SOL    MW4 6392   2.960   0.747   2.639 -0.4520  0.4616 -0.2048
    1SOL     OW 6393   2.752   0.815   2.792 -0.2345 -0.1431  0.2390
    1SOL    HW2 6394   2.754   0.807   2.887  0.8387  0.7738  0.2984
    1SOL    HW3 6395   2.663   0.788   2.768 -0.2285 -1.2737  1.4035
    1SOL    MW4 6396   2.740   0.810   2.801 -0.0920 -0.1713  0.4003
    1SOL     OW 6397   2.698   1.096   2.704 -0.0517 -0.1359 -0.4230
    1SOL    HW2 6398   2.771   1.142   2.747  0.1044 -0.2810 -0.5328
    1SOL    HW3 6399   2.708   1.005   2.731 -0.8411  0.0268  0.4633
    1SOL    MW4 6400   2.709   1.090   2.713 -0.1349 -0.1334 -0.3204
    1SOL     OW 6401   2.902   1.251   2.798  0.6447 -0.2228  0.1714
    1SOL    HW2 6402   2.924   1.252   2.892  0.2941 -0.4691  0.2576
    1SOL    HW3 6403   2.981   1.220   2.755  1.2745  1.2371  0.2583
    1SOL    MW4 6404   2.915   1.247   2.805  0.6819 -0.0627  0.1941
    1SOL     OW 6405   2.898   1.501   2.708 -0.2799  0.3992  0.8330
    1SOL    HW2 6406   2.816   1.538   2.740  0.2106  0.9242  1.5036
    1SOL    HW3 6407   2.896   1.410   2.735 -1.3163  0.0146 -0.4713
    1SOL    MW4 6408   2.887   1.494   2.715 -0.3517  0.4178  0.7493
    1SOL     OW 6409   2.679   1.638   2.773 -0.5396  0.2047  0.3635
    1SOL    HW2 6410   2.704   1.639   2.866 -1.3126 -1.8862  0.6326
    1SOL    HW3 6411   2.589   1.605   2.773 -0.6741  0.5310 -1.1188
    1SOL    MW4 6412   2.670   1.634   2.785 -0.6595 -0.0280  0.2034
    1SOL     OW 6413   2.644   1.904   2.691  0.1665  0.0551  0.1512
    1SOL    HW2 6414   2.645   1.810   2.707  1.3924  0.1828  0.9024
    1SOL    HW3 6415   2.581   1.939   2.754  0.3552 -0.1693  0.4658
    1SOL    MW4 6416   2.636   1.896   2.701  0.3531  0.0422  0.2918
    1SOL     OW 6417   2.865   2.037   2.815 -0.1914 -0.0193 -0.1488
    1SOL    HW2 6418   2.870   2.113   2.757 -0.9351 -0.5568 -0.9434
    1SOL    HW3 6419   2.794   1.983   2.777  0.0252 -0.8827  0.6550
    1SOL    MW4 6420   2.856   2.040   2.802 -0.2611 -0.2043 -0.1476
    1SOL     OW 6421   2.967   2.268   2.687 -0.2950 -0.1594 -0.0219
    1SOL    HW2 6422   3.040   2.323   2.718 -0.5715 -0.3161  0.9337
    1SOL    HW3 6423   2.889   2.321   2.705 -0.6892 -1.4437  2.3081
    1SOL    MW4 6424   2.966   2.282   2.694 -0.3836 -0.3498  0.4115
    1SOL     OW 6425   2.716   2.399   2.749 -0.0509 -0.3058 -0.2828
    1SOL    HW2 6426   2.738   2.385   2.841  2.2422 -1.4346 -0.9654
    1SOL    HW3 6427   2.725   2.494   2.737  0.9631 -0.3120  0.3453
    1SOL    MW4 6428   2.720   2.410   2.760  0.3855 -0.4554 -0.2902
    1SOL     OW 6429   2.711   2.675   2.737 -0.0999  0.4992 -0.3661
    1SOL    HW2 6430   2.799   2.712   2.736  0.2413 -0.3068 -0.6197
    1SOL    HW3 6431   2.684   2.676   2.645 -0.8515  1.8870 -0.1527
    1SOL    MW4 6432   2.719   2.680   2.724 -0.1540  0.5760 -0.3715
    1SOL     OW 6433   2.959   2.806   2.784  0.1530 -0.3210 -0.2189
    1SOL    HW2 6434   2.936   2.813   2.876 -0.8910 -0.4305 -0.4603
    1SOL    HW3 6435   2.983   2.895   2.758  3.1212 -0.7785  0.8208
    1SOL    MW4 6436   2.959   2.819   2.793  0.4065 -0.3955 -0.1135
    1SOL     OW 6437   2.965   3.066   2.695  0.0047  0.3507 -0.0596
    1SOL    HW2 6438   2.882   3.098   2.731 -0.4679  0.0166 -0.8325
    1SOL    HW3 6439   2.960   3.087   2.601  0.4233 -0.4612 -0.2687
    1SOL    MW4 6440   2.954   3.073   2.687 -0.0024  0.1996 -0.1891
    1SOL     OW 6441   2.728   3.177   2.809 -0.3484 -0.1161  0.2391
    1SOL    HW2 6442   2.720   3.269   2.783  0.6328  0.5412  2.1286
    1SOL    HW3 6443   2.646   3.137   2.781 -0.8039  1.3516 -0.5860
    1SOL    MW4 6444   2.716   3.184   2.802 -0.2789  0.1640  0.3793
    1SOL     OW 6445   2.702   3.469   2.692  0.3054 -0.4069 -0.0014
    1SOL    HW2 6446   2.608   3.483   2.705  0.1076 -1.5236 -0.1286
    1SOL    HW3 6447   2.712   3.463   2.597  0.7639  1.3486 -0.0740
    1SOL    MW4 6448   2.691   3.470   2.681  0.3395 -0.3223 -0.0277
    1SOL     OW 6449   2.924   3.626   2.808 -0.0095  0.3399  0.0893
    1SOL    HW2 6450   2.907   3.617   2.902  1.4768 -0.8104  0.2678
    1SOL    HW3 6451   2.857   3.573   2.766  0.3345 -0.4822  0.5737
    1SOL    MW4 6452   2.913   3.618   2.815  0.2317  0.0796  0.1769
    1SOL     OW 6453   2.898   3.883   2.691 -0.5982  0.3139 -0.5404
    1SOL    HW2 6454   2.973   3.936   2.717  0.7883 -1.6541 -0.4203
    1SOL    HW3 6455   2.911   3.800   2.736 -1.9534 -0.6365 -1.8554
    1SOL    MW4 6456   2.910   3.879   2.700 -0.5941 -0.0710 -0.6983
    1SOL     OW 6457   2.658   3.957   2.835 -0.0723 -0.3437 -0.0984
    1SOL    HW2 6458   2.628   4.041   2.802  0.1213  0.2222  1.1108
    1SOL    HW3 6459   2.739   3.939   2.787 -0.7526 -0.4208 -1.2124
    1SOL    MW4 6460   2.665   3.965   2.825 -0.1366 -0.2792 -0.0858
    1SOL     OW 6461   2.634   4.195   2.712  0.2214  0.0987 -0.2625
    1SOL    HW2 6462   2.719   4.232   2.737  0.3536 -0.8617  0.7753
    1SOL    HW3 6463   2.570   4.262   2.736  0.6046  0.4425 -0.1925
    1SOL    MW4 6464   2.637   4.208   2.718  0.2892  0.0176 -0.1163
    1SOL     OW 6465   2.884   4.303   2.778  0.1709 -0.0911 -0.1662
    1SOL    HW2 6466   2.900   4.323   2.870  1.0827 -1.2340 -0.0743
    1SOL    HW3 6467   2.888   4.389   2.735  1.0158  0.3097  0.6709
    1SOL    MW4 6468   2.887   4.317   2.784  0.4027 -0.1898 -0.0434
    1SOL     OW 6469   3.398   4.576   2.699  0.0302 -0.2948  0.3059
    1SOL    HW2 6470   3.391   4.487   2.733 -0.5767 -0.3807 -0.0462
    1SOL    HW3 6471   3.331   4.625   2.747  0.0384 -0.1310  0.1506
    1SOL    MW4 6472   3.388   4.571   2.710 -0.0489 -0.2847  0.2389
    1SOL     OW 6473   3.164   0.051   2.767 -0.0522  0.2086  0.2729
    1SOL    HW2 6474   3.146   0.061   2.860  1.7022  0.5477  0.6005
    1SOL    HW3 6475   3.186   0.140   2.738 -1.5054  0.2693 -0.6742
    1SOL    MW4 6476   3.164   0.064   2.775 -0.0126  0.2614  0.1912
    1SOL     OW 6477   3.164   0.319   2.672  0.3381  0.1021 -0.0626
    1SOL    HW2 6478   3.081   0.362   2.694 -0.2674 -0.8085 -0.5346
    1SOL    HW3 6479   3.164   0.314   2.577  0.5633 -0.6063 -0.0308
    1SOL    MW4 6480   3.153   0.324   2.663  0.2878 -0.1115 -0.1206
    1SOL     OW 6481   3.385   0.465   2.731  0.7873  0.3889 -0.0669
    1SOL    HW2 6482   3.388   0.551   2.690 -0.3478  0.6983  0.4867
    1SOL    HW3 6483   3.297   0.432   2.709  0.8509 -0.2048  0.5757
    1SOL    MW4 6484   3.373   0.472   2.722  0.6459  0.3513  0.0908
    1SOL     OW 6485   3.381   0.739   2.664  0.6309 -0.5872  0.1668
    1SOL    HW2 6486   3.451   0.795   2.695 -0.0494 -0.5409  1.6666
    1SOL    HW3 6487   3.376   0.756   2.570  0.5598  1.7107  0.5693
    1SOL    MW4 6488   3.389   0.748   2.656  0.5317 -0.2779  0.4179
    1SOL     OW 6489   3.160   0.898   2.765 -0.3451  0.2887  0.1229
    1SOL    HW2 6490   3.176   0.901   2.859  0.9661  0.9260 -0.1057
    1SOL    HW3 6491   3.227   0.838   2.731 -0.2716  0.7145 -0.5010
    1SOL    MW4 6492   3.171   0.890   2.773 -0.1626  0.4290  0.0103
    1SOL     OW 6493   3.127   1.167   2.679  0.0323 -0.4611 -0.0547
    1SOL    HW2 6494   3.127   1.076   2.707  0.1463 -0.8813 -1.3582
    1SOL    HW3 6495   3.124   1.163   2.583  0.7872  0.8897 -0.1580
    1SOL    MW4 6496   3.127   1.155   2.670  0.1469 -0.3383 -0.2403
    1SOL     OW 6497   3.365   1.279   2.821 -0.0299  0.2506  0.7244
    1SOL    HW2 6498   3.371   1.264   2.915  0.0232 -0.9797  0.5318
    1SOL    HW3 6499   3.287   1.232   2.794 -0.5114  1.2809  0.2777
    1SOL    MW4 6500   3.356   1.271   2.830 -0.0863  0.2241  0.6399
    1SOL     OW 6501   3.332   1.523   2.676  0.0809 -0.2010  0.1960
    1SOL    HW2 6502   3.262   1.570   2.721 -0.3724 -0.3994 -0.2932
    1SOL    HW3 6503   3.346   1.444   2.728  0.0498 -0.0832  0.3820
    1SOL    MW4 6504   3.325   1.519   2.688  0.0169 -0.2117  0.1562
    1SOL     OW 6505   3.121   1.650   2.803  0.4006  0.5599 -0.0767
    1SOL    HW2 6506   3.125   1.739   2.770 -0.5173 -0.0274 -1.8099
    1SOL    HW3 6507   3.042   1.612   2.764 -1.1169  0.0172  3.3031
    1SOL    MW4 6508   3.111   1.657   2.794  0.0792  0.4108  0.1407
    1SOL     OW 6509   3.132   1.926   2.729  0.1794 -0.2714 -0.2147
    1SOL    HW2 6510   3.212   1.969   2.760 -0.6892  1.6279 -0.5603
    1SOL    HW3 6511   3.061   1.968   2.778 -0.6511 -1.7432 -0.1124
    1SOL    MW4 6512   3.133   1.938   2.740 -0.0446 -0.2149 -0.2468
    1SOL     OW 6513   3.364   2.038   2.817  0.2377  0.1040 -0.2638
    1SOL    HW2 6514   3.352   2.045   2.912 -1.5854 -0.1943 -0.4540
    1SOL    HW3 6515   3.370   2.129   2.787  3.0556  0.1879  0.3593
    1SOL    MW4 6516   3.363   2.051   2.825  0.3691  0.0753 -0.2065
    1SOL     OW 6517   3.360   2.291   2.653 -0.3359  0.1751 -0.0586
    1SOL    HW2 6518   3.428   2.346   2.693 -0.9919 -0.2664  1.7498
    1SOL    HW3 6519   3.360   2.314   2.561  0.9657  1.5570  0.2806
    1SOL    MW4 6520   3.369   2.301   2.646 -0.2508  0.2992  0.2248
    1SOL     OW 6521   3.168   2.401   2.815 -0.7127  0.6587 -0.5312
    1SOL    HW2 6522   3.159   2.485   2.770 -0.5442  1.0228  0.1195
    1SOL    HW3 6523   3.238   2.356   2.768  1.2882  2.0997  0.9836
    1SOL    MW4 6524   3.176   2.406   2.802 -0.4265  0.8965 -0.2453
    1SOL     OW 6525   3.159   2.650   2.700  0.1893 -0.3297  0.0910
    1SOL    HW2 6526   3.239   2.685   2.739  0.2432 -0.2743 -0.0682
    1SOL    HW3 6527   3.088   2.700   2.740  0.3778  1.3722 -1.6195
    1SOL    MW4 6528   3.160   2.661   2.711  0.2210 -0.0978 -0.1557
    1SOL     OW 6529   3.363   2.807   2.783 -0.1255  0.1341 -0.7140
    1SOL    HW2 6530   3.373   2.811   2.878 -1.8420 -2.2862 -0.3944
    1SOL    HW3 6531   3.444   2.765   2.753 -0.5050 -1.0320 -0.1176
    1SOL    MW4 6532   3.375   2.802   2.792 -0.4020 -0.3390 -0.5929
    1SOL     OW 6533   3.353   3.082   2.732  0.2807 -0.1718  0.2011
    1SOL    HW2 6534   3.344   2.993   2.768 -2.3013  0.3662  0.9838
    1SOL    HW3 6535   3.350   3.069   2.637  0.9183 -1.0102  0.2851
    1SOL    MW4 6536   3.351   3.068   2.724  0.0241 -0.2115  0.3157
    1SOL     OW 6537   3.146   3.219   2.848 -0.1849 -0.4927  0.1496
    1SOL    HW2 6538   3.224   3.184   2.804 -0.3460  0.7473 -1.1961
    1SOL    HW3 6539   3.073   3.170   2.811 -0.3989  1.0872 -1.6444
    1SOL    MW4 6540   3.147   3.208   2.837 -0.2346 -0.1209 -0.2646
    1SOL     OW 6541   3.142   3.494   2.732  0.1822 -0.3110 -0.2252
    1SOL    HW2 6542   3.145   3.400   2.749 -1.2972 -0.4717 -0.7397
    1SOL    HW3 6543   3.059   3.522   2.770  0.9681  0.9306  0.5847
    1SOL    MW4 6544   3.131   3.485   2.739  0.0908 -0.1686 -0.1862
    1SOL     OW 6545   3.363   3.624   2.830  0.3294  0.0858 -0.1793
    1SOL    HW2 6546   3.361   3.623   2.926  1.9507 -4.0133 -0.0959
    1SOL    HW3 6547   3.281   3.580   2.804  1.7579 -2.4346 -0.5405
    1SOL    MW4 6548   3.352   3.618   2.839  0.7319 -0.7880 -0.2162
    1SOL     OW 6549   3.384   3.872   2.733  0.0992 -0.0441  0.4582
    1SOL    HW2 6550   3.385   3.780   2.762  1.5992 -0.4994 -0.9357
    1SOL    HW3 6551   3.377   3.867   2.638 -0.5757  1.3141  0.4313
    1SOL    MW4 6552   3.384   3.859   2.724  0.2084  0.0751  0.2708
    1SOL     OW 6553   3.147   4.023   2.788  0.0624 -0.5490  0.3317
    1SOL    HW2 6554   3.149   4.108   2.745 -0.3987 -0.4944  0.4152
    1SOL    HW3 6555   3.230   3.981   2.764 -0.6144 -0.9196 -1.4275
    1SOL    MW4 6556   3.158   4.028   2.779 -0.0880 -0.5903  0.1106
    1SOL     OW 6557   3.141   4.278   2.683  0.0532 -0.2223  0.2197
    1SOL    HW2 6558   3.053   4.271   2.720  0.3258 -0.1471  0.8864
    1SOL    HW3 6559   3.127   4.279   2.588 -0.7093  0.4059  0.3281
    1SOL    MW4 6560   3.128   4.277   2.675 -0.0114 -0.1292  0.3219
    1SOL     OW 6561   3.379   4.328   2.806  0.0040  0.5079  0.2563
    1SOL    HW2 6562   3.351   4.330   2.898 -0.4253 -1.3379  0.1864
    1SOL    HW3 6563   3.298   4.311   2.757  0.5925 -0.8396 -0.2677
    1SOL    MW4 6564   3.364   4.326   2.812  0.0250  0.0868  0.1781
    1SOL     OW 6565   3.808   4.629   2.739 -0.0952 -0.0202 -0.2455
    1SOL    HW2 6566   3.814   4.545   2.784 -0.8300 -0.4068 -0.8655
    1SOL    HW3 6567   3.739   4.676   2.786 -0.2639 -0.0934 -0.4169
    1SOL    MW4 6568   3.799   4.624   2.751 -0.2143 -0.0806 -0.3500
    1SOL     OW 6569   3.587   0.058   2.847 -0.4366  0.5159  0.3844
    1SOL    HW2 6570   3.587   0.141   2.798  0.4584  0.9428  1.0861
    1SOL    HW3 6571   3.532  -0.000   2.795 -0.5625  1.3593 -0.4527
    1SOL    MW4 6572   3.580   0.061   2.834 -0.3347  0.6835  0.3662
    1SOL     OW 6573   3.601   0.281   2.697  0.2528  0.2949 -0.4724
    1SOL    HW2 6574   3.673   0.336   2.727 -0.1705  1.9607 -2.4254
    1SOL    HW3 6575   3.522   0.327   2.726 -0.0798 -1.9511  2.4067
    1SOL    MW4 6576   3.600   0.294   2.705  0.1528  0.2183 -0.3502
    1SOL     OW 6577   3.813   0.456   2.767  0.3214  0.3374 -0.3004
    1SOL    HW2 6578   3.808   0.476   2.860 -0.7643 -2.0775  0.1989
    1SOL    HW3 6579   3.906   0.436   2.752  0.4115  0.2133  0.3820
    1SOL    MW4 6580   3.825   0.456   2.777  0.1903  0.0024 -0.1445
    1SOL     OW 6581   3.838   0.732   2.713  0.1676  0.1110  0.2168
    1SOL    HW2 6582   3.753   0.762   2.743 -0.7737  0.1132 -2.3641
    1SOL    HW3 6583   3.844   0.641   2.744 -2.2560 -1.0241 -2.3996
    1SOL    MW4 6584   3.828   0.724   2.721 -0.2763 -0.0384 -0.4690
    1SOL     OW 6585   3.602   0.904   2.784 -0.1502 -0.2685 -0.0533
    1SOL    HW2 6586   3.592   0.909   2.879  0.2521  2.2013 -0.1027
    1SOL    HW3 6587   3.599   0.995   2.755 -1.0985 -1.0549 -2.5070
    1SOL    MW4 6588   3.600   0.916   2.793 -0.2220 -0.0464 -0.3836
    1SOL     OW 6589   3.587   1.155   2.694 -0.2830  0.0409  0.2738
    1SOL    HW2 6590   3.665   1.199   2.730 -0.4554 -0.5394  1.3523
    1SOL    HW3 6591   3.513   1.205   2.729 -0.4551 -0.5858  0.7948
    1SOL    MW4 6592   3.588   1.168   2.703 -0.3285 -0.1183  0.4849
    1SOL     OW 6593   3.794   1.289   2.819 -0.1104  0.1272 -0.2482
    1SOL    HW2 6594   3.876   1.251   2.788  0.4551  0.2337  1.0837
    1SOL    HW3 6595   3.790   1.375   2.775  0.3152 -0.0246 -0.5899
    1SOL    MW4 6596   3.805   1.296   2.809  0.0203  0.1212 -0.1175
    1SOL     OW 6597   3.808   1.538   2.699  0.7286 -0.1022  0.0408
    1SOL    HW2 6598   3.886   1.580   2.736  0.7799 -0.6194  0.5322
    1SOL    HW3 6599   3.735   1.572   2.751  0.7351 -0.3690  0.2269
    1SOL    MW4 6600   3.809   1.548   2.711  0.7362 -0.2056  0.1302
    1SOL     OW 6601   3.579   1.632   2.809 -0.1203  0.4686  0.1294
    1SOL    HW2 6602   3.579   1.723   2.779 -0.8040  0.6746  0.7505
    1SOL    HW3 6603   3.498   1.595   2.774 -0.0900  0.2415  0.2955
    1SOL    MW4 6604   3.568   1.639   2.800 -0.2065  0.4659  0.2332
    1SOL     OW 6605   3.588   1.890   2.687  0.0592  0.2213  0.1726
    1SOL    HW2 6606   3.512   1.945   2.705 -0.8694 -0.5594 -1.2565
    1SOL    HW3 6607   3.596   1.890   2.592  2.4695  1.0918  0.3277
    1SOL    MW4 6608   3.579   1.897   2.677  0.2549  0.2331  0.0045
    1SOL     OW 6609   3.828   2.031   2.791 -0.2597 -0.4836  0.0722
    1SOL    HW2 6610   3.908   1.986   2.764 -0.7197 -0.2227 -1.7781
    1SOL    HW3 6611   3.757   1.973   2.762 -0.7668 -0.2577  0.8508
    1SOL    MW4 6612   3.829   2.018   2.784 -0.3872 -0.4191 -0.0691
    1SOL     OW 6613   3.817   2.294   2.702 -0.2253 -0.0744  0.1951
    1SOL    HW2 6614   3.817   2.201   2.726 -0.7754 -0.0749  0.1940
    1SOL    HW3 6615   3.818   2.294   2.606 -3.3487 -0.1081  0.1190
    1SOL    MW4 6616   3.817   2.282   2.693 -0.7100 -0.0789  0.1848
    1SOL     OW 6617   3.570   2.436   2.768  0.0099  0.0143  0.3299
    1SOL    HW2 6618   3.581   2.447   2.863 -1.0607 -0.9061  0.5727
    1SOL    HW3 6619   3.643   2.381   2.742  1.0059  1.2831  0.4094
    1SOL    MW4 6620   3.581   2.430   2.777 -0.0002  0.0603  0.3722
    1SOL     OW 6621   3.600   2.709   2.675 -0.6827 -0.3316  0.1573
    1SOL    HW2 6622   3.596   2.616   2.697 -1.9803 -0.0206  1.3479
    1SOL    HW3 6623   3.582   2.713   2.581  0.2685 -1.3475 -0.0644
    1SOL    MW4 6624   3.597   2.698   2.665 -0.7286 -0.4246  0.2851
    1SOL     OW 6625   3.810   2.861   2.801  0.3235 -0.0421 -0.7750
    1SOL    HW2 6626   3.886   2.806   2.780 -0.8899 -2.2596  0.4579
    1SOL    HW3 6627   3.736   2.814   2.763 -0.6685  1.1595 -0.3669
    1SOL    MW4 6628   3.810   2.847   2.793  0.0327 -0.1762 -0.5586
    1SOL     OW 6629   3.795   3.116   2.712  0.0940 -0.4398  0.0790
    1SOL    HW2 6630   3.724   3.156   2.762  1.6310  1.5002  0.8016
    1SOL    HW3 6631   3.798   3.026   2.743 -0.1114  0.2706  2.2897
    1SOL    MW4 6632   3.786   3.110   2.723  0.2694 -0.0899  0.4661
    1SOL     OW 6633   3.579   3.230   2.848  0.4139 -0.4688 -0.4467
    1SOL    HW2 6634   3.586   3.313   2.802 -1.2150 -0.7492 -1.2287
    1SOL    HW3 6635   3.503   3.187   2.809 -0.7504 -0.8976  2.1908
    1SOL    MW4 6636   3.570   3.235   2.837  0.0453 -0.5622 -0.2019
    1SOL     OW 6637   3.592   3.487   2.736  0.3442 -0.0971 -0.3763
    1SOL    HW2 6638   3.675   3.531   2.757 -0.3358  0.6847  0.8030
    1SOL    HW3 6639   3.526   3.544   2.776 -0.8510 -0.0114 -2.4413
    1SOL    MW4 6640   3.594   3.500   2.744  0.0966  0.0169 -0.4928
    1SOL     OW 6641   3.839   3.617   2.833  0.4594 -0.0575 -0.4509
    1SOL    HW2 6642   3.919   3.572   2.804  0.8952  0.5942 -0.2705
    1SOL    HW3 6643   3.846   3.704   2.796  0.2436  0.2724  0.2836
    1SOL    MW4 6644   3.850   3.622   2.824  0.4885  0.0722 -0.3302
    1SOL     OW 6645   3.823   3.868   2.719  0.3290 -0.0285  0.4384
    1SOL    HW2 6646   3.899   3.914   2.754  0.6370 -1.0723  1.1876
    1SOL    HW3 6647   3.751   3.892   2.776  0.6051 -0.8910  1.1603
    1SOL    MW4 6648   3.824   3.877   2.731  0.4060 -0.2801  0.6328
    1SOL     OW 6649   3.624   3.983   2.850  0.1676 -0.4672  0.1201
    1SOL    HW2 6650   3.640   4.071   2.816  0.6570 -0.2710  0.8436
    1SOL    HW3 6651   3.541   3.956   2.809  0.7207 -0.2261 -1.1702
    1SOL    MW4 6652   3.615   3.991   2.840  0.3052 -0.4096  0.0455
    1SOL     OW 6653   3.634   4.239   2.739 -0.3810  0.1909 -0.2506
    1SOL    HW2 6654   3.548   4.278   2.756  1.0057  3.1965  0.3135
    1SOL    HW3 6655   3.648   4.251   2.646  0.0905  1.1995 -0.0587
    1SOL    MW4 6656   3.625   4.246   2.729 -0.1357  0.7200 -0.1509
    1SOL     OW 6657   3.814   4.391   2.871 -0.4227  0.0534  0.0506
    1SOL    HW2 6658   3.894   4.348   2.840  0.0477  0.0343  1.2844
    1SOL    HW3 6659   3.743   4.338   2.834  0.1210 -0.0951 -0.8140
    1SOL    MW4 6660   3.815   4.378   2.862 -0.2890  0.0315  0.0994
    1SOL     OW 6661   4.289   4.659   2.673  0.4159  0.3523  0.0706
    1SOL    HW2 6662   4.219   4.704   2.720 -0.0998 -0.3683 -0.0152
    1SOL    HW3 6663   4.369   4.691   2.714  0.0301  0.9921  0.3280
    1SOL    MW4 6664   4.291   4.669   2.684  0.2966  0.3417  0.0932
    1SOL     OW 6665   4.055   0.109   2.786  0.0191 -0.0742  0.5447
    1SOL    HW2 6666   4.062   0.113   2.881 -0.0239  0.5686  0.5254
    1SOL    HW3 6667   3.973   0.061   2.770  1.5502 -2.8726  0.7945
    1SOL    MW4 6668   4.045   0.103   2.796  0.2151 -0.3586  0.5753
    1SOL     OW 6669   4.076   0.381   2.707  0.0165  0.0838 -0.3810
    1SOL    HW2 6670   4.078   0.290   2.737  1.8542 -0.0734 -0.9144
    1SOL    HW3 6671   4.068   0.375   2.612 -1.9583  0.5314 -0.2668
    1SOL    MW4 6672   4.075   0.368   2.698 -0.0010  0.1221 -0.4363
    1SOL     OW 6673   4.275   0.558   2.799 -0.0875 -0.2121 -0.0223
    1SOL    HW2 6674   4.204   0.506   2.761 -0.8739  0.1162  0.9616
    1SOL    HW3 6675   4.355   0.516   2.768 -0.7167 -1.4887  0.0515
    1SOL    MW4 6676   4.276   0.546   2.790 -0.2742 -0.3373  0.1175
    1SOL     OW 6677   4.271   0.811   2.691 -0.0181 -0.0880 -0.6015
    1SOL    HW2 6678   4.267   0.720   2.722 -0.8447 -0.3068 -1.3199
    1SOL    HW3 6679   4.277   0.804   2.596  0.6089  0.6079 -0.6176
    1SOL    MW4 6680   4.271   0.798   2.682 -0.0443 -0.0251 -0.6983
    1SOL     OW 6681   4.026   0.898   2.789  0.0769 -0.1245 -0.4054
    1SOL    HW2 6682   4.106   0.872   2.744 -0.6067  1.7584 -2.8186
    1SOL    HW3 6683   3.959   0.839   2.755 -0.3619  1.0481 -1.6361
    1SOL    MW4 6684   4.028   0.887   2.779 -0.0706  0.2787 -0.8862
    1SOL     OW 6685   4.016   1.158   2.724  0.0779  0.3889  0.2846
    1SOL    HW2 6686   4.092   1.181   2.777  1.1890  1.1937 -1.6093
    1SOL    HW3 6687   4.009   1.062   2.732  1.3464  0.3061  0.3851
    1SOL    MW4 6688   4.025   1.148   2.732  0.3920  0.4841  0.0482
    1SOL     OW 6689   4.256   1.260   2.841  0.0383 -0.1215  0.2553
    1SOL    HW2 6690   4.239   1.347   2.805 -1.2324 -0.2809  0.4399
    1SOL    HW3 6691   4.316   1.219   2.779  0.9948  1.0499  0.4017
    1SOL    MW4 6692   4.262   1.266   2.828 -0.0029  0.0120  0.2987
    1SOL     OW 6693   4.250   1.515   2.726 -0.5462 -0.0906  0.1510
    1SOL    HW2 6694   4.329   1.546   2.770 -0.3896 -1.0295  0.5434
    1SOL    HW3 6695   4.274   1.514   2.633 -0.4152  0.5343  0.1739
    1SOL    MW4 6696   4.264   1.519   2.719 -0.5088 -0.1320  0.2058
    1SOL     OW 6697   4.027   1.656   2.804 -0.1613  0.0305  0.1153
    1SOL    HW2 6698   4.039   1.678   2.896 -0.1905  1.4594 -0.2113
    1SOL    HW3 6699   4.112   1.621   2.776  0.0782  0.3318  0.4717
    1SOL    MW4 6700   4.040   1.654   2.813 -0.1330  0.2589  0.1190
    1SOL     OW 6701   4.066   1.914   2.716 -0.3062 -0.1728 -0.0406
    1SOL    HW2 6702   4.133   1.951   2.773 -0.9267 -0.1725  0.6932
    1SOL    HW3 6703   4.051   1.826   2.751  0.5082 -0.7890 -1.2218
    1SOL    MW4 6704   4.073   1.907   2.728 -0.2804 -0.2540 -0.0997
    1SOL     OW 6705   4.256   2.043   2.855 -0.0355  0.0603  0.1605
    1SOL    HW2 6706   4.252   2.126   2.808  1.7468 -0.5072 -1.0639
    1SOL    HW3 6707   4.341   2.006   2.830 -0.8834 -2.2105  0.5480
    1SOL    MW4 6708   4.267   2.049   2.845  0.0873 -0.3142  0.0501
    1SOL     OW 6709   4.235   2.288   2.724 -0.1932  0.3088 -0.1919
    1SOL    HW2 6710   4.153   2.320   2.761 -0.8843  0.0872 -1.4986
    1SOL    HW3 6711   4.231   2.312   2.632  0.7757 -0.5721 -0.4792
    1SOL    MW4 6712   4.224   2.296   2.717 -0.1564  0.1636 -0.4025
    1SOL     OW 6713   4.024   2.442   2.800  0.4646  0.2912 -0.6805
    1SOL    HW2 6714   4.027   2.427   2.895 -0.3131  2.1331 -0.3464
    1SOL    HW3 6715   3.944   2.400   2.771  0.6334 -0.1563 -0.4970
    1SOL    MW4 6716   4.014   2.435   2.809  0.3843  0.4754 -0.6120
    1SOL     OW 6717   4.013   2.708   2.720  0.3978 -0.1634  0.1771
    1SOL    HW2 6718   4.096   2.743   2.753  0.1423 -0.5428  1.2492
    1SOL    HW3 6719   4.017   2.615   2.741 -0.0870 -0.2743 -0.2211
    1SOL    MW4 6720   4.024   2.700   2.727  0.2999 -0.2282  0.2658
    1SOL     OW 6721   4.275   2.811   2.805  0.1621  0.8431 -0.0203
    1SOL    HW2 6722   4.260   2.808   2.900  1.2262  0.3345  0.1360
    1SOL    HW3 6723   4.252   2.900   2.780 -0.6539  0.8208  0.6252
    1SOL    MW4 6724   4.270   2.822   2.814  0.1950  0.7734  0.0854
    1SOL     OW 6725   4.249   3.047   2.694  0.5714  0.2912  0.0799
    1SOL    HW2 6726   4.170   3.099   2.710  0.3168  0.0759 -0.4579
    1SOL    HW3 6727   4.265   3.058   2.600 -0.3623 -1.8295 -0.3459
    1SOL    MW4 6728   4.240   3.056   2.683  0.4148 -0.0172 -0.0472
    1SOL     OW 6729   4.052   3.187   2.789 -0.4461 -0.0690 -0.0850
    1SOL    HW2 6730   4.063   3.279   2.766 -0.9080  0.1299  0.4490
    1SOL    HW3 6731   3.968   3.163   2.751 -1.2109  0.2634  1.3406
    1SOL    MW4 6732   4.042   3.196   2.781 -0.6080  0.0012  0.1736
    1SOL     OW 6733   4.055   3.465   2.720  0.0753 -0.1218 -0.0674
    1SOL    HW2 6734   4.136   3.510   2.742  0.1990  0.1252 -0.9903
    1SOL    HW3 6735   4.050   3.471   2.624 -0.8594 -0.4225 -0.0416
    1SOL    MW4 6736   4.065   3.472   2.710 -0.0315 -0.1292 -0.1860
    1SOL     OW 6737   4.279   3.576   2.826 -0.3694  0.4586 -0.4554
    1SOL    HW2 6738   4.287   3.571   2.921 -0.6335  1.4689 -0.3787
    1SOL    HW3 6739   4.343   3.513   2.793 -1.1246 -0.7837  0.4095
    1SOL    MW4 6740   4.288   3.567   2.834 -0.5035  0.4277 -0.3314
    1SOL     OW 6741   4.287   3.839   2.741 -0.0876  0.0670  0.6190
    1SOL    HW2 6742   4.300   3.749   2.771  0.1980  0.0471  0.4424
    1SOL    HW3 6743   4.373   3.881   2.753  0.1662 -0.0770 -0.5924
    1SOL    MW4 6744   4.300   3.833   2.746 -0.0157  0.0451  0.4358
    1SOL     OW 6745   4.047   3.988   2.816  0.1654  0.3878 -0.0642
    1SOL    HW2 6746   4.040   4.002   2.910  1.9327 -2.6249  0.5560
    1SOL    HW3 6747   4.132   3.947   2.803 -0.0401  0.7459 -2.9949
    1SOL    MW4 6748   4.057   3.985   2.827  0.3719  0.0372 -0.3688
    1SOL     OW 6749   4.041   4.275   2.759 -0.0791 -0.4125  1.0235
    1SOL    HW2 6750   4.060   4.184   2.778 -0.7307 -0.3609  1.9995
    1SOL    HW3 6751   4.047   4.282   2.664 -0.5721 -1.5981  0.8968
    1SOL    MW4 6752   4.044   4.264   2.749 -0.2303 -0.5622  1.1353
    1SOL     OW 6753   4.273   4.409   2.818 -0.6565 -0.0108  0.6786
    1SOL    HW2 6754   4.195   4.354   2.814  0.0868 -1.0446  0.1463
    1SOL    HW3 6755   4.249   4.489   2.773 -0.4343 -1.5498 -2.2930
    1SOL    MW4 6756   4.260   4.412   2.812 -0.5293 -0.3505  0.2162
    1SOL     OW 6757   0.205   4.643   3.200 -0.0295 -0.1705  0.2406
    1SOL    HW2 6758   0.181   4.645   3.293  0.6200 -1.7268  0.4557
    1SOL    HW3 6759   0.132   4.686   3.156 -0.7163 -0.1148  1.3938
    1SOL    MW4 6760   0.193   4.649   3.207 -0.0344 -0.3686  0.4213
    1SOL     OW 6761   4.484   0.097   3.081 -0.7982 -0.5975 -0.0767
    1SOL    HW2 6762   4.404   0.054   3.111 -0.1677 -1.0799  0.9153
    1SOL    HW3 6763   4.481   0.185   3.119 -1.0946 -0.4450 -0.4485
    1SOL    MW4 6764   4.473   0.103   3.090 -0.7542 -0.6410  0.0050
    1SOL     OW 6765   4.447   0.350   3.174  0.0973 -0.1032 -0.3220
    1SOL    HW2 6766   4.443   0.368   3.267  0.3856 -0.0357 -0.3213
    1SOL    HW3 6767   4.370   0.393   3.137  0.1385  0.1132 -0.1556
    1SOL    MW4 6768   4.437   0.358   3.181  0.1407 -0.0658 -0.2999
    1SOL     OW 6769   0.210   0.477   3.067  0.1341 -0.1910  0.5553
    1SOL    HW2 6770   0.281   0.423   3.100 -0.6194 -0.6691  1.4177
    1SOL    HW3 6771   0.130   0.436   3.101 -0.4859  1.0830  0.6941
    1SOL    MW4 6772   0.209   0.465   3.076 -0.0471 -0.0860  0.6878
    1SOL     OW 6773   0.179   0.734   3.167  0.0657  0.1546 -0.0074
    1SOL    HW2 6774   0.171   0.720   3.261  0.1411 -0.3894 -0.0795
    1SOL    HW3 6775   0.193   0.646   3.131 -0.9605  0.2336 -0.6252
    1SOL    MW4 6776   0.180   0.721   3.175 -0.0597  0.0933 -0.0982
    1SOL     OW 6777   0.004   0.933   3.065 -0.0769 -0.5508  0.2125
    1SOL    HW2 6778   0.059   0.863   3.101 -1.4170 -2.2381 -0.9258
    1SOL    HW3 6779   0.026   0.936   2.972  1.0200  1.5685  0.5179
    1SOL    MW4 6780   0.014   0.924   3.058 -0.1087 -0.4938  0.1025
    1SOL     OW 6781   0.017   1.177   3.196  0.5539  0.7573 -0.2129
    1SOL    HW2 6782  -0.060   1.232   3.180  1.3844  1.2155 -3.0094
    1SOL    HW3 6783  -0.003   1.095   3.151  1.6347  0.8401 -0.8665
    1SOL    MW4 6784   0.004   1.173   3.188  0.8063  0.8286 -0.6683
    1SOL     OW 6785   0.246   1.295   3.097 -0.1229 -0.2301 -0.2991
    1SOL    HW2 6786   0.162   1.263   3.128 -0.1866 -1.0127 -1.2779
    1SOL    HW3 6787   0.237   1.299   3.002  0.9268 -0.2786 -0.4061
    1SOL    MW4 6788   0.234   1.291   3.089  0.0072 -0.3396 -0.4423
    1SOL     OW 6789   0.271   1.563   3.176 -0.0948 -0.0503 -0.0930
    1SOL    HW2 6790   0.195   1.600   3.132 -0.4243 -0.2482  0.3100
    1SOL    HW3 6791   0.271   1.471   3.151 -1.5273 -0.6650  2.0370
    1SOL    MW4 6792   0.261   1.556   3.167 -0.3273 -0.1575  0.2410
    1SOL     OW 6793   0.056   1.670   3.054 -0.0732  0.3937  0.1180
    1SOL    HW2 6794  -0.011   1.630   3.110  1.2042  0.2055  1.5701
    1SOL    HW3 6795   0.050   1.764   3.072 -0.9718  0.5489 -0.9298
    1SOL    MW4 6796   0.047   1.677   3.064 -0.0232  0.3893  0.1717
    1SOL     OW 6797   0.031   1.924   3.158 -0.3126  0.1290 -0.0358
    1SOL    HW2 6798  -0.048   1.975   3.141  1.0434  2.2836 -0.1519
    1SOL    HW3 6799   0.103   1.985   3.139  1.3658 -1.5814  0.6576
    1SOL    MW4 6800   0.030   1.939   3.153  0.0878  0.1875  0.0405
    1SOL     OW 6801   0.229   2.101   3.082  0.4358  0.3905 -0.0668
    1SOL    HW2 6802   0.239   2.195   3.096 -1.1495  0.6550 -0.5604
    1SOL    HW3 6803   0.236   2.090   2.987 -0.7612  0.1948 -0.1355
    1SOL    MW4 6804   0.231   2.112   3.071  0.0687  0.3994 -0.1409
    1SOL     OW 6805   0.226   2.364   3.162  0.2691 -0.3707 -0.6724
    1SOL    HW2 6806   0.235   2.353   3.257  0.5695 -1.8754 -0.8670
    1SOL    HW3 6807   0.303   2.414   3.137  1.7014 -2.4554 -0.5215
    1SOL    MW4 6808   0.237   2.369   3.171  0.4977 -0.8438 -0.6781
    1SOL     OW 6809   4.469   2.473   3.117  0.0251 -0.2785 -0.0230
    1SOL    HW2 6810   4.463   2.555   3.165 -0.2879 -0.9471  1.0978
    1SOL    HW3 6811   4.558   2.441   3.135 -0.2666 -0.7828  0.5299
    1SOL    MW4 6812   4.480   2.479   3.125 -0.0548 -0.4332  0.1981
    1SOL     OW 6813   4.473   2.722   3.220  0.2318 -0.2774 -0.3375
    1SOL    HW2 6814   4.487   2.725   3.315 -0.6019  2.4716 -0.2577
    1SOL    HW3 6815   4.553   2.762   3.183 -0.8432  1.6903 -0.6018
    1SOL    MW4 6816   4.486   2.728   3.228 -0.0200  0.3448 -0.3617
    1SOL     OW 6817   0.196   2.857   3.105 -0.5046 -0.5254  0.0937
    1SOL    HW2 6818   0.269   2.796   3.118 -0.2847 -0.1169  0.7985
    1SOL    HW3 6819   0.185   2.861   3.010  0.1946 -0.8186 -0.0042
    1SOL    MW4 6820   0.205   2.849   3.094 -0.3834 -0.5100  0.1738
    1SOL     OW 6821   0.221   3.107   3.260  0.2978  0.0717 -0.2190
    1SOL    HW2 6822   0.136   3.120   3.219  0.0993  1.1206  0.4839
    1SOL    HW3 6823   0.245   3.017   3.239 -0.7918 -0.0966 -0.7728
    1SOL    MW4 6824   0.213   3.097   3.252  0.1278  0.1879 -0.1993
    1SOL     OW 6825   4.472   3.193   3.131 -0.3697  0.2154 -0.1230
    1SOL    HW2 6826   4.397   3.147   3.168  0.7163 -0.7076  0.9646
    1SOL    HW3 6827   4.473   3.167   3.039 -1.6109  0.5694 -0.2597
    1SOL    MW4 6828   4.462   3.184   3.124 -0.3901  0.1404  0.0021
    1SOL     OW 6829   0.034   3.445   3.240  0.0886 -0.0277  0.2216
    1SOL    HW2 6830  -0.034   3.495   3.195  0.4714  1.0722  0.8579
    1SOL    HW3 6831   0.029   3.357   3.201  0.5021  0.9331 -2.0503
    1SOL    MW4 6832   0.024   3.440   3.229  0.1936  0.2441  0.0057
    1SOL     OW 6833   0.232   3.582   3.126  0.3974  0.5985  0.1748
    1SOL    HW2 6834   0.247   3.666   3.170 -0.4443  0.9808 -0.2604
    1SOL    HW3 6835   0.156   3.545   3.170  0.3387  0.3863 -0.1068
    1SOL    MW4 6836   0.224   3.588   3.137  0.2786  0.6208  0.0801
    1SOL     OW 6837   0.222   3.844   3.209 -0.1149  0.2940  0.0815
    1SOL    HW2 6838   0.235   3.844   3.303 -0.8937 -0.4851  0.1949
    1SOL    HW3 6839   0.305   3.875   3.173  1.2205 -2.1937  0.9009
    1SOL    MW4 6840   0.235   3.848   3.216 -0.0415 -0.1369  0.2043
    1SOL     OW 6841   0.002   3.986   3.096  0.2519 -0.4062 -0.0513
    1SOL    HW2 6842   0.073   3.942   3.143 -0.6464 -2.8354 -0.8982
    1SOL    HW3 6843   0.018   3.965   3.004  0.0433  1.4499 -0.5273
    1SOL    MW4 6844   0.014   3.977   3.090  0.1059 -0.4816 -0.2258
    1SOL     OW 6845   4.487   4.228   3.185  0.3798  0.0922  0.4484
    1SOL    HW2 6846   4.480   4.213   3.279  1.1440 -0.2173  0.4657
    1SOL    HW3 6847   4.479   4.141   3.146 -0.1704  0.2485  0.2124
    1SOL    MW4 6848   4.485   4.215   3.192  0.4077  0.0720  0.4196
    1SOL     OW 6849   0.215   4.360   3.097 -0.0921  0.2112  0.2218
    1SOL    HW2 6850   0.141   4.316   3.138  0.3365 -0.4080  0.3532
    1SOL    HW3 6851   0.224   4.442   3.145  0.1747 -0.3386  1.1399
    1SOL    MW4 6852   0.207   4.365   3.109 -0.0003  0.0567  0.3605
    1SOL     OW 6853   0.664   4.661   3.212  0.0659  0.5912  0.1313
    1SOL    HW2 6854   0.673   4.575   3.172 -2.1330 -0.0850  1.0380
    1SOL    HW3 6855   0.592   4.703   3.165  1.5861  2.2415 -0.7855
    1SOL    MW4 6856   0.656   4.655   3.201 -0.0237  0.7195  0.1299
    1SOL     OW 6857   0.432   0.108   3.073 -0.4714  0.4771  0.2361
    1SOL    HW2 6858   0.438   0.193   3.115 -2.8407  1.6371 -1.6741
    1SOL    HW3 6859   0.356   0.066   3.114 -0.9434  0.3921 -0.6945
    1SOL    MW4 6860   0.422   0.113   3.084 -0.8463  0.6189 -0.1385
    1SOL     OW 6861   0.433   0.362   3.178 -0.4597 -0.2745  0.3672
    1SOL    HW2 6862   0.415   0.376   3.271 -0.3219  1.6283  0.1325
    1SOL    HW3 6863   0.511   0.415   3.160 -0.6543 -0.3915 -0.8883
    1SOL    MW4 6864   0.441   0.371   3.188 -0.4672 -0.0389  0.1705
    1SOL     OW 6865   0.638   0.519   3.106 -0.2832  0.0133 -0.1126
    1SOL    HW2 6866   0.718   0.474   3.134  0.9033  1.0977 -1.7219
    1SOL    HW3 6867   0.653   0.611   3.127 -1.0132  0.2590 -0.6455
    1SOL    MW4 6868   0.651   0.525   3.112 -0.2229  0.1888 -0.3951
    1SOL     OW 6869   0.665   0.773   3.172  0.2642  0.5020  0.2876
    1SOL    HW2 6870   0.672   0.788   3.267 -1.9539 -0.7524  0.6688
    1SOL    HW3 6871   0.588   0.824   3.146  1.3549  1.5203 -1.0127
    1SOL    MW4 6872   0.656   0.782   3.181  0.1155  0.4708  0.1662
    1SOL     OW 6873   0.404   0.871   3.079  0.3934  0.0694 -0.1479
    1SOL    HW2 6874   0.334   0.813   3.107  1.5342 -1.2897 -0.0436
    1SOL    HW3 6875   0.391   0.882   2.985  0.3424 -0.5916 -0.2195
    1SOL    MW4 6876   0.393   0.865   3.070  0.5372 -0.1972 -0.1438
    1SOL     OW 6877   0.441   1.139   3.185 -0.2243  0.5625 -0.0299
    1SOL    HW2 6878   0.405   1.053   3.162 -0.2169  0.0988  1.6290
    1SOL    HW3 6879   0.370   1.201   3.166 -0.6776  0.0448 -0.0372
    1SOL    MW4 6880   0.427   1.136   3.180 -0.2832  0.4330  0.1881
    1SOL     OW 6881   0.679   1.264   3.093  0.1956  0.0913  0.0918
    1SOL    HW2 6882   0.752   1.211   3.126 -1.2665 -1.7109  0.5195
    1SOL    HW3 6883   0.600   1.216   3.120 -1.1851  2.4528  0.4332
    1SOL    MW4 6884   0.678   1.250   3.101 -0.1795  0.1652  0.1934
    1SOL     OW 6885   0.693   1.529   3.124 -0.2670 -0.3364 -0.2176
    1SOL    HW2 6886   0.676   1.533   3.218  1.9969 -1.1878  0.2411
    1SOL    HW3 6887   0.689   1.436   3.103 -1.7851 -0.0712 -1.1883
    1SOL    MW4 6888   0.690   1.517   3.134 -0.1686 -0.4137 -0.2854
    1SOL     OW 6889   0.480   1.711   3.082  0.0069 -0.0326  0.5376
    1SOL    HW2 6890   0.550   1.647   3.094 -0.7722 -0.7398  1.4227
    1SOL    HW3 6891   0.402   1.669   3.120 -0.5532  1.3532  0.9624
    1SOL    MW4 6892   0.479   1.697   3.089 -0.1698  0.0571  0.7105
    1SOL     OW 6893   0.469   1.976   3.200  0.0832 -0.0011  0.4215
    1SOL    HW2 6894   0.456   1.890   3.160 -0.8504  0.2413  0.1777
    1SOL    HW3 6895   0.394   2.027   3.169  1.4638  1.3628 -0.6913
    1SOL    MW4 6896   0.457   1.971   3.191  0.1422  0.2108  0.2425
    1SOL     OW 6897   0.672   2.062   3.032 -0.1645  0.0746  0.1556
    1SOL    HW2 6898   0.756   2.023   3.059  0.0481  0.0074 -0.5981
    1SOL    HW3 6899   0.607   2.019   3.087  0.1885 -0.5871  0.0566
    1SOL    MW4 6900   0.675   2.051   3.043 -0.0899 -0.0217  0.0429
    1SOL     OW 6901   0.678   2.334   3.158  0.5480  0.1813  0.0386
    1SOL    HW2 6902   0.676   2.330   3.254  0.5306 -0.2016  0.0215
    1SOL    HW3 6903   0.659   2.245   3.130 -1.2388  0.6509 -0.3376
    1SOL    MW4 6904   0.675   2.322   3.167  0.3099  0.1926 -0.0131
    1SOL     OW 6905   0.458   2.479   3.057 -0.4285 -0.0853 -0.1236
    1SOL    HW2 6906   0.531   2.427   3.090  0.1482  0.5843 -0.3269
    1SOL    HW3 6907   0.462   2.469   2.962 -0.1396  0.5728 -0.1781
    1SOL    MW4 6908   0.468   2.471   3.049 -0.3143  0.0896 -0.1576
    1SOL     OW 6909   0.429   2.743   3.167  0.1642 -0.3510  0.2737
    1SOL    HW2 6910   0.505   2.791   3.133  0.6032 -0.7489  0.6798
    1SOL    HW3 6911   0.442   2.654   3.135  0.6274 -0.7457  1.5575
    1SOL    MW4 6912   0.441   2.738   3.158  0.2832 -0.4556  0.4969
    1SOL     OW 6913   0.659   2.857   3.042 -0.7042  0.0239 -0.2691
    1SOL    HW2 6914   0.741   2.829   3.083 -0.8543  0.2156  0.1569
    1SOL    HW3 6915   0.647   2.947   3.071 -0.2720  0.5175 -1.5727
    1SOL    MW4 6916   0.668   2.865   3.051 -0.6670  0.1144 -0.3848
    1SOL     OW 6917   0.665   3.110   3.161  0.0930  0.2245 -0.0591
    1SOL    HW2 6918   0.655   3.088   3.253  0.6210 -0.3273 -0.1291
    1SOL    HW3 6919   0.591   3.166   3.141 -0.0267  0.3369  0.7015
    1SOL    MW4 6920   0.654   3.114   3.170  0.1469  0.1664  0.0319
    1SOL     OW 6921   0.417   3.232   3.074 -0.7709 -0.0469 -0.0532
    1SOL    HW2 6922   0.429   3.316   3.118 -2.3252 -0.0520  0.3883
    1SOL    HW3 6923   0.343   3.190   3.119  0.2735 -1.8622  0.0457
    1SOL    MW4 6924   0.409   3.237   3.086 -0.8382 -0.2868  0.0181
    1SOL     OW 6925   0.457   3.458   3.221 -0.1000  0.5576 -0.3152
    1SOL    HW2 6926   0.475   3.474   3.314  0.9760 -0.2926 -0.3559
    1SOL    HW3 6927   0.378   3.507   3.202 -1.2913 -0.6242  1.4885
    1SOL    MW4 6928   0.449   3.466   3.231 -0.1152  0.2897 -0.0827
    1SOL     OW 6929   0.674   3.560   3.084  0.1563 -0.1972  0.4134
    1SOL    HW2 6930   0.754   3.525   3.122 -0.3334 -1.6572  0.1540
    1SOL    HW3 6931   0.604   3.507   3.124 -0.5270 -0.2462 -0.8358
    1SOL    MW4 6932   0.675   3.548   3.094  0.0015 -0.3963  0.2141
    1SOL     OW 6933   0.655   3.819   3.180  0.1202 -0.3628 -0.2035
    1SOL    HW2 6934   0.668   3.826   3.274  1.1941 -0.1248 -0.3600
    1SOL    HW3 6935   0.657   3.725   3.161 -0.4948 -0.4264  0.0682
    1SOL    MW4 6936   0.657   3.808   3.190  0.1808 -0.3397 -0.1884
    1SOL     OW 6937   0.439   3.954   3.090 -0.2885  0.0289  0.1198
    1SOL    HW2 6938   0.514   3.903   3.120 -1.0033 -0.3018  1.3623
    1SOL    HW3 6939   0.456   3.969   2.997  2.4666  1.9899  0.8853
    1SOL    MW4 6940   0.451   3.949   3.081 -0.0193  0.2439  0.3846
    1SOL     OW 6941   0.454   4.220   3.169 -0.1705 -0.7387  0.1485
    1SOL    HW2 6942   0.449   4.128   3.143  0.7541 -0.5880 -0.5671
    1SOL    HW3 6943   0.368   4.256   3.145  0.2633 -0.8706 -1.6682
    1SOL    MW4 6944   0.442   4.213   3.162  0.0088 -0.7362 -0.1855
    1SOL     OW 6945   0.650   4.405   3.080 -0.2285 -0.1518 -0.2112
    1SOL    HW2 6946   0.568   4.364   3.110 -0.4723  0.3183 -0.2260
    1SOL    HW3 6947   0.651   4.390   2.986  0.0146 -0.7000 -0.1285
    1SOL    MW4 6948   0.639   4.397   3.072 -0.2286 -0.1621 -0.2024
    1SOL     OW 6949   1.084   4.637   3.200 -0.3617  0.0856 -0.1576
    1SOL    HW2 6950   1.163   4.654   3.150 -0.6591  0.4098 -0.5194
    1SOL    HW3 6951   1.015   4.683   3.153 -0.5248  0.9684  0.9264
    1SOL    MW4 6952   1.085   4.645   3.187 -0.4224  0.2451 -0.0622
    1SOL     OW 6953   0.880   0.094   3.051 -0.1206 -0.2376 -0.1518
    1SOL    HW2 6954   0.901   0.186   3.040 -0.4102 -0.3301 -1.6191
    1SOL    HW3 6955   0.809   0.092   3.114 -1.2079  0.6698 -1.3182
    1SOL    MW4 6956   0.873   0.106   3.058 -0.3023 -0.1301 -0.4995
    1SOL     OW 6957   0.876   0.384   3.144 -0.2437  0.8269  0.7226
    1SOL    HW2 6958   0.874   0.363   3.237  1.9103  0.1041  0.6482
    1SOL    HW3 6959   0.959   0.432   3.132 -0.7104  1.3005 -0.7303
    1SOL    MW4 6960   0.887   0.387   3.155 -0.0210  0.7941  0.5209
    1SOL     OW 6961   1.137   0.484   3.066 -0.1453 -0.3899  0.4815
    1SOL    HW2 6962   1.214   0.432   3.088 -0.6250 -0.8796  1.0204
    1SOL    HW3 6963   1.129   0.478   2.971 -0.1627 -1.2540  0.5368
    1SOL    MW4 6964   1.146   0.476   3.056 -0.2108 -0.5685  0.5598
    1SOL     OW 6965   1.118   0.746   3.166 -0.1206 -0.4398 -0.3185
    1SOL    HW2 6966   1.118   0.749   3.262  0.2729 -1.6268 -0.2714
    1SOL    HW3 6967   1.120   0.653   3.145 -1.1496 -0.2120 -1.4884
    1SOL    MW4 6968   1.118   0.734   3.176 -0.2043 -0.5663 -0.4668
    1SOL     OW 6969   0.887   0.887   3.075  0.1549  0.2383 -0.0001
    1SOL    HW2 6970   0.958   0.833   3.110  0.2687  0.1766 -0.3281
    1SOL    HW3 6971   0.807   0.842   3.103  0.2445  0.3196  0.3871
    1SOL    MW4 6972   0.886   0.874   3.083  0.1817  0.2409  0.0076
    1SOL     OW 6973   0.889   1.130   3.181 -0.2944  0.3200  0.2390
    1SOL    HW2 6974   0.969   1.173   3.151 -0.4696  0.8684  0.5415
    1SOL    HW3 6975   0.895   1.041   3.148  0.0361  0.6046 -0.4753
    1SOL    MW4 6976   0.900   1.124   3.173 -0.2739  0.4300  0.1848
    1SOL     OW 6977   1.121   1.244   3.068 -0.2508 -0.3568  0.1554
    1SOL    HW2 6978   1.204   1.196   3.069  0.0741  0.1735 -1.1187
    1SOL    HW3 6979   1.098   1.252   2.976 -1.0576  0.6526  0.4285
    1SOL    MW4 6980   1.129   1.239   3.056 -0.3145 -0.1537  0.0234
    1SOL     OW 6981   1.137   1.524   3.166  0.4297 -0.1515  0.2828
    1SOL    HW2 6982   1.197   1.581   3.119 -0.0909 -0.3644 -0.6471
    1SOL    HW3 6983   1.153   1.437   3.132  0.6890 -0.4548  1.1577
    1SOL    MW4 6984   1.147   1.520   3.155  0.3953 -0.2196  0.2756
    1SOL     OW 6985   0.921   1.657   3.049 -0.1218  0.0484  0.2439
    1SOL    HW2 6986   0.993   1.605   3.087  0.3567  0.6089  0.1067
    1SOL    HW3 6987   0.842   1.610   3.076  0.2519 -0.0733  1.1736
    1SOL    MW4 6988   0.920   1.644   3.058 -0.0094  0.1062  0.3486
    1SOL     OW 6989   0.913   1.933   3.126  0.5812  0.2572 -0.0883
    1SOL    HW2 6990   0.893   1.940   3.220 -0.0872  0.1403 -0.2206
    1SOL    HW3 6991   0.904   1.839   3.107  1.0599  0.2310 -0.1970
    1SOL    MW4 6992   0.909   1.921   3.136  0.5562  0.2383 -0.1202
    1SOL     OW 6993   1.126   2.074   3.032  0.1086 -0.0513 -0.3437
    1SOL    HW2 6994   1.050   2.033   3.074  1.4298 -0.9702  1.2317
    1SOL    HW3 6995   1.107   2.069   2.939 -1.4347 -0.9359 -0.0117
    1SOL    MW4 6996   1.113   2.068   3.025  0.0793 -0.2887 -0.0918
    1SOL     OW 6997   1.128   2.341   3.152  0.2240  0.3314 -0.6625
    1SOL    HW2 6998   1.052   2.382   3.112  0.5801  0.0797 -1.5966
    1SOL    HW3 6999   1.134   2.255   3.111 -0.5375 -0.6913  1.2954
    1SOL    MW4 7000   1.119   2.335   3.141  0.1706  0.1631 -0.5276
    1SOL     OW 7001   0.900   2.476   3.058  0.2265 -0.0481 -0.3774
    1SOL    HW2 7002   0.835   2.425   3.105  0.4486  0.5842  0.6441
    1SOL    HW3 7003   0.874   2.470   2.967 -0.1999 -1.3192 -0.1810
    1SOL    MW4 7004   0.888   2.469   3.052  0.1995 -0.1321 -0.2167
    1SOL     OW 7005   0.881   2.741   3.193 -0.1109  0.3388 -0.1497
    1SOL    HW2 7006   0.884   2.728   3.288 -2.3212  0.0252 -0.1027
    1SOL    HW3 7007   0.888   2.653   3.156 -0.9140  0.3117 -0.2345
    1SOL    MW4 7008   0.882   2.728   3.200 -0.5084  0.2940 -0.1547
    1SOL     OW 7009   1.143   2.831   3.075 -0.2212  0.3294  0.5952
    1SOL    HW2 7010   1.153   2.920   3.109 -0.9080  0.8884 -0.6332
    1SOL    HW3 7011   1.066   2.797   3.120  0.5977 -0.0084  1.7837
    1SOL    MW4 7012   1.135   2.839   3.085 -0.2038  0.3586  0.5898
    1SOL     OW 7013   1.141   3.088   3.182 -0.2990 -0.0982  0.2327
    1SOL    HW2 7014   1.206   3.150   3.148 -0.5732 -1.0738 -2.1582
    1SOL    HW3 7015   1.058   3.119   3.146 -0.7392 -0.5908  0.8197
    1SOL    MW4 7016   1.139   3.101   3.172 -0.3933 -0.2921 -0.0052
    1SOL     OW 7017   0.916   3.195   3.080 -0.4185  0.4495  0.2810
    1SOL    HW2 7018   0.828   3.157   3.086  0.3942 -1.4178  0.5691
    1SOL    HW3 7019   0.927   3.212   2.986 -0.5728 -0.5645  0.0733
    1SOL    MW4 7020   0.906   3.192   3.068 -0.3316  0.0691  0.2916
    1SOL     OW 7021   0.916   3.459   3.224 -0.0734 -0.1757  0.2101
    1SOL    HW2 7022   0.975   3.519   3.180 -0.0402  0.4248  1.0589
    1SOL    HW3 7023   0.925   3.376   3.176  0.6777  0.1950 -0.2933
    1SOL    MW4 7024   0.925   3.456   3.212  0.0300 -0.0474  0.2556
    1SOL     OW 7025   1.124   3.612   3.090  0.6724  0.3517  0.3435
    1SOL    HW2 7026   1.215   3.585   3.104  0.6716  0.2634  0.1735
    1SOL    HW3 7027   1.122   3.704   3.118  0.5396  0.0094  1.4890
    1SOL    MW4 7028   1.136   3.621   3.096  0.6547  0.2949  0.4723
    1SOL     OW 7029   1.081   3.856   3.194 -0.5628 -0.4193 -0.1932
    1SOL    HW2 7030   1.103   3.866   3.286  0.5644  0.3985 -0.5535
    1SOL    HW3 7031   1.009   3.918   3.180 -0.5134 -0.3056  0.0522
    1SOL    MW4 7032   1.074   3.865   3.204 -0.4077 -0.2964 -0.2084
    1SOL     OW 7033   0.859   4.008   3.118 -0.2975 -0.1418 -0.0607
    1SOL    HW2 7034   0.773   3.965   3.127  0.5418 -1.8200  0.0667
    1SOL    HW3 7035   0.874   4.012   3.024 -0.4527  0.0515 -0.0790
    1SOL    MW4 7036   0.849   4.003   3.107 -0.2073 -0.3386 -0.0463
    1SOL     OW 7037   0.876   4.266   3.216  0.0669 -0.0200  0.4625
    1SOL    HW2 7038   0.883   4.172   3.205  0.7501  0.2294 -1.5242
    1SOL    HW3 7039   0.792   4.290   3.178  1.1127  0.4885 -1.6162
    1SOL    MW4 7040   0.866   4.257   3.210  0.2951  0.0801 -0.0739
    1SOL     OW 7041   1.087   4.371   3.104 -0.1715  0.7542  0.1062
    1SOL    HW2 7042   1.007   4.326   3.129 -0.0576  0.0973 -0.7092
    1SOL    HW3 7043   1.077   4.459   3.141 -1.2081  0.6397  0.1111
    1SOL    MW4 7044   1.075   4.377   3.113 -0.2933  0.6523 -0.0010
    1SOL     OW 7045   1.552   4.647   3.173  0.4349 -0.1637  0.1327
    1SOL    HW2 7046   1.549   4.646   3.269  1.0538  1.5388  0.1810
    1SOL    HW3 7047   1.466   4.682   3.147  0.0859 -1.0683  0.0381
    1SOL    MW4 7048   1.540   4.651   3.182  0.4705 -0.0587  0.1268
    1SOL     OW 7049   1.310   0.069   3.070  0.5935  0.7089  0.3370
    1SOL    HW2 7050   1.317   0.158   3.104 -1.3622  1.1410 -0.3644
    1SOL    HW3 7051   1.334   0.076   2.978  0.2790  0.5399  0.2407
    1SOL    MW4 7052   1.314   0.082   3.062  0.2941  0.7436  0.2317
    1SOL     OW 7053   1.338   0.326   3.165 -0.6031  0.3313 -0.3230
    1SOL    HW2 7054   1.347   0.331   3.260 -1.9374  0.0045 -0.1563
    1SOL    HW3 7055   1.416   0.369   3.130  0.0472  0.1784  0.9185
    1SOL    MW4 7056   1.349   0.332   3.173 -0.6933  0.2680 -0.1369
    1SOL     OW 7057   1.566   0.450   3.065 -0.5421 -0.1141  0.2208
    1SOL    HW2 7058   1.573   0.532   3.113 -0.8895  0.0016  0.0779
    1SOL    HW3 7059   1.569   0.476   2.973 -3.1692  0.0053  0.1159
    1SOL    MW4 7060   1.567   0.464   3.059 -0.9346 -0.0831  0.1881
    1SOL     OW 7061   1.564   0.715   3.200 -0.3730  0.1407 -0.0945
    1SOL    HW2 7062   1.539   0.721   3.292  0.6062  2.7260  0.0379
    1SOL    HW3 7063   1.488   0.748   3.152 -0.5974 -0.4974 -0.1844
    1SOL    MW4 7064   1.551   0.720   3.206 -0.2735  0.3976 -0.0889
    1SOL     OW 7065   1.356   0.835   3.068  0.3492 -0.6134 -0.6332
    1SOL    HW2 7066   1.364   0.928   3.091  1.4916 -0.8037 -0.2234
    1SOL    HW3 7067   1.270   0.809   3.103  0.7697 -0.1415  0.7796
    1SOL    MW4 7068   1.345   0.844   3.076  0.5554 -0.5763 -0.3927
    1SOL     OW 7069   1.345   1.113   3.144 -0.2838  0.3622 -0.0789
    1SOL    HW2 7070   1.334   1.129   3.238  1.8096 -1.5536  0.5522
    1SOL    HW3 7071   1.421   1.165   3.120 -0.0818 -0.0961 -0.4348
    1SOL    MW4 7072   1.354   1.122   3.153  0.0190  0.0490 -0.0427
    1SOL     OW 7073   1.556   1.248   3.050 -0.0525 -0.1711  0.6232
    1SOL    HW2 7074   1.642   1.214   3.074  0.9501  1.7931 -0.1488
    1SOL    HW3 7075   1.556   1.339   3.077 -1.3535  0.2543 -0.6993
    1SOL    MW4 7076   1.567   1.255   3.057 -0.0919  0.1441  0.3469
    1SOL     OW 7077   1.562   1.510   3.134  0.1628  0.1539 -0.2022
    1SOL    HW2 7078   1.631   1.574   3.118  0.1300  0.2626  0.0846
    1SOL    HW3 7079   1.481   1.558   3.114  0.0955  0.4230  0.6895
    1SOL    MW4 7080   1.560   1.525   3.129  0.1496  0.2036 -0.0467
    1SOL     OW 7081   1.359   1.663   3.068 -0.1910 -0.3594 -0.1520
    1SOL    HW2 7082   1.354   1.754   3.095 -0.6113 -0.2593 -0.5549
    1SOL    HW3 7083   1.345   1.666   2.973 -0.5912 -0.8799 -0.1100
    1SOL    MW4 7084   1.357   1.675   3.059 -0.2993 -0.4148 -0.1998
    1SOL     OW 7085   1.330   1.919   3.179 -0.4907  0.3987 -0.1867
    1SOL    HW2 7086   1.317   1.899   3.272 -0.7540  1.2410 -0.0377
    1SOL    HW3 7087   1.248   1.959   3.151 -1.4024 -2.2335 -1.4695
    1SOL    MW4 7088   1.318   1.922   3.188 -0.6458  0.1625 -0.3362
    1SOL     OW 7089   1.551   2.054   3.075 -0.1741  0.6075 -0.3162
    1SOL    HW2 7090   1.475   2.013   3.116  1.1921 -2.1888 -0.5185
    1SOL    HW3 7091   1.538   2.043   2.981  0.0067  0.9691 -0.3858
    1SOL    MW4 7092   1.539   2.047   3.068  0.0302  0.2861 -0.3521
    1SOL     OW 7093   1.574   2.315   3.131 -0.0235  0.4976  0.2172
    1SOL    HW2 7094   1.653   2.358   3.098 -0.3493  0.2000 -0.9981
    1SOL    HW3 7095   1.580   2.225   3.097 -0.9317  0.5057  0.0028
    1SOL    MW4 7096   1.585   2.309   3.122 -0.1862  0.4594  0.0284
    1SOL     OW 7097   1.354   2.457   3.046 -0.0386 -0.5129 -0.1184
    1SOL    HW2 7098   1.426   2.407   3.085 -0.0994  1.3057  2.4697
    1SOL    HW3 7099   1.275   2.412   3.076 -0.0383 -0.9322 -0.7365
    1SOL    MW4 7100   1.353   2.445   3.055 -0.0465 -0.3285  0.1416
    1SOL     OW 7101   1.339   2.696   3.200 -0.3031  0.4710  0.0457
    1SOL    HW2 7102   1.341   2.614   3.151  1.1290  0.9790 -0.7532
    1SOL    HW3 7103   1.261   2.741   3.167  0.5996  0.7765 -1.7102
    1SOL    MW4 7104   1.329   2.691   3.189  0.0050  0.5784 -0.2913
    1SOL     OW 7105   1.550   2.810   3.067  0.0019  0.2073 -0.3036
    1SOL    HW2 7106   1.632   2.769   3.096 -0.2399  1.1493  1.8015
    1SOL    HW3 7107   1.482   2.763   3.115 -0.5003  1.0205 -0.2057
    1SOL    MW4 7108   1.552   2.798   3.077 -0.0962  0.4389 -0.0126
    1SOL     OW 7109   1.566   3.080   3.143 -0.4922 -0.0037  0.2718
    1SOL    HW2 7110   1.567   3.068   3.238  0.2917 -0.6160  0.1846
    1SOL    HW3 7111   1.553   2.993   3.107 -0.4888  0.1864 -0.1992
    1SOL    MW4 7112   1.565   3.067   3.151 -0.3883 -0.0591  0.1979
    1SOL     OW 7113   1.345   3.240   3.074 -0.0875 -0.4833 -0.1209
    1SOL    HW2 7114   1.421   3.190   3.103  0.8980  1.1718  0.2296
    1SOL    HW3 7115   1.355   3.243   2.978 -0.4827 -1.4572 -0.1993
    1SOL    MW4 7116   1.357   3.234   3.065 -0.0097 -0.3932 -0.0851
    1SOL     OW 7117   1.359   3.498   3.160 -0.3686 -0.5582 -0.4778
    1SOL    HW2 7118   1.359   3.496   3.256 -1.0957  0.6785 -0.4468
    1SOL    HW3 7119   1.353   3.406   3.135 -3.0452 -0.7480  0.6835
    1SOL    MW4 7120   1.358   3.486   3.170 -0.8174 -0.4201 -0.3204
    1SOL     OW 7121   1.618   3.587   3.085  0.0703 -0.2903  0.2811
    1SOL    HW2 7122   1.532   3.551   3.109 -0.1930  0.5067  0.5554
    1SOL    HW3 7123   1.609   3.612   2.994 -0.8830  2.3429  1.0516
    1SOL    MW4 7124   1.605   3.585   3.076 -0.0902  0.1621  0.4191
    1SOL     OW 7125   1.550   3.844   3.172 -0.2775  0.1124  0.3273
    1SOL    HW2 7126   1.629   3.886   3.137 -0.7095  1.0964  0.5145
    1SOL    HW3 7127   1.556   3.753   3.143  1.0079  0.1457  0.4719
    1SOL    MW4 7128   1.561   3.838   3.164 -0.1649  0.2468  0.3712
    1SOL     OW 7129   1.327   3.990   3.090 -0.3221  0.0838  0.4335
    1SOL    HW2 7130   1.398   3.939   3.129 -1.0488 -1.8597 -0.7110
    1SOL    HW3 7131   1.247   3.945   3.117 -1.0388  1.1730  0.1739
    1SOL    MW4 7132   1.326   3.978   3.099 -0.5125 -0.0288  0.2484
    1SOL     OW 7133   1.336   4.262   3.196  0.3408  0.1668  0.3496
    1SOL    HW2 7134   1.324   4.180   3.148  1.1419  0.9943 -1.2811
    1SOL    HW3 7135   1.259   4.314   3.174  2.0064  1.6172 -2.2689
    1SOL    MW4 7136   1.324   4.258   3.187  0.6661  0.4673 -0.2112
    1SOL     OW 7137   1.539   4.406   3.054  0.2316  0.3408 -0.4646
    1SOL    HW2 7138   1.477   4.355   3.105  0.7341  0.2161  0.0297
    1SOL    HW3 7139   1.555   4.485   3.105 -0.5300  0.9930 -1.2208
    1SOL    MW4 7140   1.533   4.409   3.067  0.1973  0.4106 -0.4990
    1SOL     OW 7141   2.038   4.659   3.192 -0.1185 -0.0435  0.1485
    1SOL    HW2 7142   2.035   4.662   3.288  0.3930 -0.4490  0.1788
    1SOL    HW3 7143   1.952   4.690   3.165 -0.0042  0.7920  0.7265
    1SOL    MW4 7144   2.026   4.663   3.201 -0.0358  0.0134  0.2286
    1SOL     OW 7145   1.802   0.080   3.095  0.4458  0.0896  0.2316
    1SOL    HW2 7146   1.723   0.035   3.126 -0.2192  0.7053 -0.5469
    1SOL    HW3 7147   1.790   0.086   3.000  0.5987  1.7833  0.3113
    1SOL    MW4 7148   1.790   0.075   3.087  0.3781  0.3943  0.1392
    1SOL     OW 7149   1.794   0.343   3.171 -0.0799  0.4948  0.2258
    1SOL    HW2 7150   1.799   0.250   3.149  0.1901  0.5491  0.0469
    1SOL    HW3 7151   1.718   0.375   3.121 -0.1483  0.3788  0.2556
    1SOL    MW4 7152   1.785   0.335   3.161 -0.0533  0.4867  0.2060
    1SOL     OW 7153   2.021   0.479   3.083  0.5606 -0.4615 -0.4356
    1SOL    HW2 7154   1.944   0.434   3.117 -0.2350  1.1287 -0.0726
    1SOL    HW3 7155   1.999   0.500   2.993  0.0943  1.0056  0.0060
    1SOL    MW4 7156   2.008   0.476   3.076  0.3941 -0.0581 -0.3295
    1SOL     OW 7157   2.032   0.749   3.182 -0.1087 -0.5945 -0.1960
    1SOL    HW2 7158   1.942   0.778   3.171 -0.0892 -0.7427 -0.7295
    1SOL    HW3 7159   2.032   0.658   3.151 -0.2852 -1.3453  1.9069
    1SOL    MW4 7160   2.020   0.741   3.177 -0.1295 -0.7131  0.0110
    1SOL     OW 7161   1.791   0.841   3.119  0.3431  0.0390  0.4639
    1SOL    HW2 7162   1.712   0.800   3.153  1.0539 -1.4809  0.3195
    1SOL    HW3 7163   1.776   0.848   3.024  0.0723  0.4744  0.5350
    1SOL    MW4 7164   1.779   0.837   3.111  0.4013 -0.1041  0.4539
    1SOL     OW 7165   1.784   1.126   3.130  0.0501  0.0560  0.3913
    1SOL    HW2 7166   1.770   1.145   3.223  0.6217  1.4165  0.2061
    1SOL    HW3 7167   1.789   1.031   3.126 -0.3333 -0.0335  1.7081
    1SOL    MW4 7168   1.783   1.116   3.142  0.0749  0.2236  0.5405
    1SOL     OW 7169   2.024   1.244   3.041 -0.3206  0.1351 -0.1429
    1SOL    HW2 7170   2.106   1.204   3.068 -0.1594  0.9202  0.5505
    1SOL    HW3 7171   1.956   1.195   3.087 -0.2950 -0.8942 -1.1680
    1SOL    MW4 7172   2.026   1.232   3.050 -0.2959  0.1029 -0.1867
    1SOL     OW 7173   1.981   1.536   3.126  0.1931 -0.3643 -0.0765
    1SOL    HW2 7174   1.984   1.533   3.222  0.4941 -1.2433 -0.1067
    1SOL    HW3 7175   1.993   1.445   3.099 -3.1771 -0.6697 -0.8706
    1SOL    MW4 7176   1.983   1.523   3.135 -0.2118 -0.5206 -0.1855
    1SOL     OW 7177   1.763   1.677   3.038 -0.1063 -0.0281  0.0157
    1SOL    HW2 7178   1.772   1.767   3.068  0.7147  0.1337 -0.6727
    1SOL    HW3 7179   1.841   1.633   3.071  0.0708 -0.1970 -0.6109
    1SOL    MW4 7180   1.774   1.683   3.046  0.0254 -0.0291 -0.1578
    1SOL     OW 7181   1.805   1.953   3.150 -0.3733 -0.1558 -0.2828
    1SOL    HW2 7182   1.881   2.001   3.118 -1.0130  0.1823 -1.3007
    1SOL    HW3 7183   1.730   2.000   3.115 -1.0345 -1.0080 -0.0254
    1SOL    MW4 7184   1.805   1.965   3.141 -0.5450 -0.2235 -0.3836
    1SOL     OW 7185   2.026   2.083   3.021 -0.0368  0.3133  0.5713
    1SOL    HW2 7186   2.095   2.026   3.053 -0.4375  0.4339  1.6740
    1SOL    HW3 7187   2.028   2.159   3.080  1.0478  1.8388 -1.3749
    1SOL    MW4 7188   2.035   2.086   3.033  0.0536  0.5305  0.4599
    1SOL     OW 7189   2.030   2.309   3.162 -0.0198 -0.3253  0.0774
    1SOL    HW2 7190   2.111   2.346   3.129 -0.8852  0.0552 -1.6982
    1SOL    HW3 7191   2.041   2.307   3.257  2.1501 -0.5271 -0.1548
    1SOL    MW4 7192   2.042   2.314   3.170  0.1521 -0.3016 -0.1876
    1SOL     OW 7193   1.811   2.444   3.041  0.4299  0.0299  0.0798
    1SOL    HW2 7194   1.809   2.530   3.084 -0.3673 -0.6120  1.3682
    1SOL    HW3 7195   1.879   2.395   3.087 -1.2097 -1.0540  1.4549
    1SOL    MW4 7196   1.819   2.449   3.053  0.1082 -0.1979  0.4311
    1SOL     OW 7197   1.787   2.692   3.146 -0.0314 -0.2430 -0.3454
    1SOL    HW2 7198   1.786   2.699   3.242  0.9718 -1.4038 -0.2274
    1SOL    HW3 7199   1.868   2.735   3.120 -0.3422  0.1387 -0.6914
    1SOL    MW4 7200   1.797   2.698   3.155  0.0600 -0.3459 -0.3755
    1SOL     OW 7201   2.016   2.829   3.054 -0.3134  0.1040  0.1910
    1SOL    HW2 7202   2.015   2.919   3.088 -0.6923  0.4214 -0.6413
    1SOL    HW3 7203   2.029   2.840   2.960 -2.6141 -0.6149 -0.2190
    1SOL    MW4 7204   2.018   2.843   3.046 -0.6669  0.0508  0.0269
    1SOL     OW 7205   2.045   3.105   3.161  0.1547  0.0423  0.0739
    1SOL    HW2 7206   2.038   3.096   3.256  1.1336 -0.1973  0.1365
    1SOL    HW3 7207   1.965   3.151   3.134  0.7359  1.8238  1.2504
    1SOL    MW4 7208   2.034   3.110   3.170  0.3605  0.2456  0.2377
    1SOL     OW 7209   1.797   3.215   3.083  0.4262  0.2776 -0.8430
    1SOL    HW2 7210   1.710   3.177   3.095 -0.9541  3.5280 -0.1437
    1SOL    HW3 7211   1.807   3.222   2.988 -0.1184 -0.0064 -0.9214
    1SOL    MW4 7212   1.787   3.211   3.072  0.1723  0.6688 -0.7613
    1SOL     OW 7213   1.840   3.457   3.198 -0.5289  0.2083 -0.5932
    1SOL    HW2 7214   1.830   3.366   3.169  0.8199 -0.5363  1.1538
    1SOL    HW3 7215   1.769   3.504   3.155 -2.7647 -2.1398  0.3754
    1SOL    MW4 7216   1.829   3.451   3.188 -0.6459 -0.1996 -0.2348
    1SOL     OW 7217   2.060   3.573   3.091 -0.2610 -0.0130  0.2331
    1SOL    HW2 7218   2.045   3.664   3.116 -0.1069 -0.0672  0.5325
    1SOL    HW3 7219   1.987   3.526   3.131 -0.4533  0.0089 -0.0972
    1SOL    MW4 7220   2.048   3.579   3.100 -0.2663 -0.0174  0.2291
    1SOL     OW 7221   2.029   3.849   3.168  0.3820  0.4958  0.3471
    1SOL    HW2 7222   2.025   3.841   3.263  0.9812 -1.2953  0.2319
    1SOL    HW3 7223   1.945   3.888   3.144  0.1211  0.7143  1.5773
    1SOL    MW4 7224   2.018   3.853   3.177  0.4268  0.2885  0.4942
    1SOL     OW 7225   1.787   3.976   3.072 -0.2348  0.0878 -0.0716
    1SOL    HW2 7226   1.789   4.066   3.105  0.4010 -0.0924  0.3864
    1SOL    HW3 7227   1.789   3.985   2.976 -0.8064  0.5762 -0.0376
    1SOL    MW4 7228   1.787   3.989   3.063 -0.2263  0.1287 -0.0069
    1SOL     OW 7229   1.770   4.248   3.133  0.1184 -0.1350  0.4488
    1SOL    HW2 7230   1.844   4.305   3.115 -0.5228  0.7658  0.6142
    1SOL    HW3 7231   1.694   4.297   3.101 -0.6635  0.0221  2.4732
    1SOL    MW4 7232   1.770   4.262   3.126 -0.0693  0.0048  0.7379
    1SOL     OW 7233   2.010   4.390   3.077 -0.1093 -0.2016 -0.3882
    1SOL    HW2 7234   2.027   4.475   3.117 -1.1021 -0.3384  0.3478
    1SOL    HW3 7235   2.045   4.397   2.988  1.2940  0.4172  0.2041
    1SOL    MW4 7236   2.017   4.402   3.071 -0.0551 -0.1378 -0.2127
    1SOL     OW 7237   2.457   4.647   3.213  0.6273 -0.2522  0.2657
    1SOL    HW2 7238   2.458   4.556   3.184  1.5975  0.1566 -1.0162
    1SOL    HW3 7239   2.384   4.687   3.166  1.5608  0.1573 -0.8641
    1SOL    MW4 7240   2.447   4.641   3.203  0.8783 -0.1445 -0.0525
    1SOL     OW 7241   2.246   0.074   3.041  0.2049  0.4238 -0.0306
    1SOL    HW2 7242   2.251   0.165   3.070 -0.9336  0.3404  0.4630
    1SOL    HW3 7243   2.177   0.036   3.095  0.9481 -0.8422  0.0427
    1SOL    MW4 7244   2.238   0.081   3.052  0.1526  0.2458  0.0441
    1SOL     OW 7245   2.246   0.324   3.162  0.4712 -0.1202  0.2281
    1SOL    HW2 7246   2.237   0.315   3.257 -0.2526 -0.1006  0.1672
    1SOL    HW3 7247   2.173   0.380   3.136  0.0117 -1.0297 -0.4823
    1SOL    MW4 7248   2.235   0.331   3.171  0.3152 -0.2376  0.1264
    1SOL     OW 7249   2.462   0.469   3.058  0.1494 -0.1478  0.0999
    1SOL    HW2 7250   2.388   0.409   3.068  0.2881 -0.4773 -0.8182
    1SOL    HW3 7251   2.469   0.484   2.964  2.3034 -1.4735  0.0058
    1SOL    MW4 7252   2.453   0.463   3.047  0.4518 -0.3662 -0.0336
    1SOL     OW 7253   2.462   0.742   3.081 -0.3338  0.3206 -0.0888
    1SOL    HW2 7254   2.549   0.776   3.061 -1.1116  1.4030 -1.6752
    1SOL    HW3 7255   2.477   0.650   3.104  1.1102  0.2174 -1.4070
    1SOL    MW4 7256   2.475   0.734   3.081 -0.2460  0.4498 -0.4723
    1SOL     OW 7257   2.218   0.881   3.027  0.1198 -0.0441 -0.1906
    1SOL    HW2 7258   2.299   0.831   3.034 -0.3523 -0.5121  2.2711
    1SOL    HW3 7259   2.152   0.826   3.069 -0.9383  1.5001  0.2019
    1SOL    MW4 7260   2.220   0.867   3.033 -0.0823  0.0979  0.1857
    1SOL     OW 7261   2.265   1.137   3.118  0.2470 -0.2228 -0.0808
    1SOL    HW2 7262   2.248   1.131   3.212 -2.8077 -0.3990 -0.5926
    1SOL    HW3 7263   2.268   1.046   3.088 -2.2137 -0.1414 -0.6747
    1SOL    MW4 7264   2.263   1.124   3.126 -0.4807 -0.2352 -0.2265
    1SOL     OW 7265   2.510   1.221   3.035 -0.1214  0.2246  0.4150
    1SOL    HW2 7266   2.421   1.200   3.063  0.1448  0.1479  1.1919
    1SOL    HW3 7267   2.501   1.238   2.941 -0.6728 -1.4626  0.1402
    1SOL    MW4 7268   2.497   1.221   3.026 -0.1590 -0.0081  0.4814
    1SOL     OW 7269   2.501   1.460   3.167 -0.0290  0.0886 -0.0031
    1SOL    HW2 7270   2.426   1.517   3.151 -0.3328  0.0098  1.0861
    1SOL    HW3 7271   2.479   1.379   3.122  0.8925  1.1771 -2.4881
    1SOL    MW4 7272   2.488   1.457   3.159  0.0522  0.2218 -0.1874
    1SOL     OW 7273   2.257   1.620   3.124  0.4138  0.2540  0.2011
    1SOL    HW2 7274   2.170   1.586   3.143  1.0135 -2.2835 -1.3673
    1SOL    HW3 7275   2.262   1.625   3.029  2.1129  0.0102  0.2461
    1SOL    MW4 7276   2.246   1.616   3.114  0.7169 -0.1131  0.0002
    1SOL     OW 7277   2.212   1.907   3.124  0.3037  0.4728  0.3830
    1SOL    HW2 7278   2.293   1.957   3.134  0.8770 -0.0483 -1.5883
    1SOL    HW3 7279   2.241   1.815   3.121 -0.2023  0.3668 -1.7948
    1SOL    MW4 7280   2.227   1.901   3.125  0.3126  0.3902 -0.1643
    1SOL     OW 7281   2.451   2.035   3.111 -0.5403  0.0398 -0.5304
    1SOL    HW2 7282   2.517   1.970   3.133  0.8355  1.7120  0.5008
    1SOL    HW3 7283   2.447   2.036   3.016  0.1249 -0.8514 -0.5660
    1SOL    MW4 7284   2.459   2.027   3.102 -0.2711  0.1428 -0.3991
    1SOL     OW 7285   2.487   2.290   3.173  0.2912 -0.1043  0.0269
    1SOL    HW2 7286   2.466   2.305   3.265  0.1509  2.2132 -0.3517
    1SOL    HW3 7287   2.460   2.200   3.156 -1.8434  0.2061  1.6407
    1SOL    MW4 7288   2.481   2.281   3.183 -0.0088  0.2427  0.1898
    1SOL     OW 7289   2.283   2.430   3.059 -0.0564  0.4914 -0.4475
    1SOL    HW2 7290   2.282   2.520   3.092 -0.0812  0.1948  0.3779
    1SOL    HW3 7291   2.362   2.392   3.096  0.4102  0.4227 -1.4979
    1SOL    MW4 7292   2.293   2.437   3.068  0.0021  0.4432 -0.4771
    1SOL     OW 7293   2.224   2.676   3.174 -0.0031  0.4986 -0.4716
    1SOL    HW2 7294   2.294   2.738   3.152 -0.0836  0.5446 -0.6002
    1SOL    HW3 7295   2.145   2.713   3.134 -0.6003  1.7217  1.7876
    1SOL    MW4 7296   2.223   2.689   3.166 -0.0925  0.6661 -0.1905
    1SOL     OW 7297   2.477   2.809   3.103 -0.1902  0.1761 -0.3393
    1SOL    HW2 7298   2.456   2.900   3.123 -0.2667  0.3601 -1.2443
    1SOL    HW3 7299   2.485   2.806   3.008 -1.2013 -0.9650 -0.4118
    1SOL    MW4 7300   2.475   2.821   3.093 -0.3338  0.0496 -0.4683
    1SOL     OW 7301   2.469   3.067   3.169  0.2805 -0.1797 -0.0084
    1SOL    HW2 7302   2.551   3.109   3.144  0.3103  0.6724  1.4509
    1SOL    HW3 7303   2.401   3.132   3.149  0.1400 -0.1628  0.5184
    1SOL    MW4 7304   2.471   3.081   3.163  0.2661 -0.0653  0.2534
    1SOL     OW 7305   2.254   3.222   3.065 -0.3425  0.3101 -0.0946
    1SOL    HW2 7306   2.255   3.312   3.098  1.1441  0.3281 -0.1708
    1SOL    HW3 7307   2.176   3.183   3.105 -0.9648  1.6106 -0.0118
    1SOL    MW4 7308   2.244   3.229   3.075 -0.2284  0.4842 -0.0939
    1SOL     OW 7309   2.307   3.460   3.192  0.3290 -0.4215  0.4286
    1SOL    HW2 7310   2.374   3.523   3.164 -0.5556 -0.0851 -1.0138
    1SOL    HW3 7311   2.224   3.503   3.170 -0.2806 -2.0194 -0.4427
    1SOL    MW4 7312   2.305   3.474   3.185  0.1316 -0.5879  0.1233
    1SOL     OW 7313   2.512   3.605   3.064  0.3731 -0.2587 -0.4595
    1SOL    HW2 7314   2.583   3.563   3.114  0.4552  0.5709  0.1375
    1SOL    HW3 7315   2.506   3.694   3.101  1.5216  0.9353 -3.0069
    1SOL    MW4 7316   2.521   3.611   3.076  0.5355  0.0083 -0.7167
    1SOL     OW 7317   2.489   3.875   3.181  0.4988  0.1809  0.2648
    1SOL    HW2 7318   2.500   3.869   3.276  0.2683  0.2032  0.2943
    1SOL    HW3 7319   2.572   3.911   3.150  0.5265  0.3041  0.4740
    1SOL    MW4 7320   2.501   3.879   3.190  0.4721  0.2003  0.2964
    1SOL     OW 7321   2.260   3.990   3.063  0.1030 -0.0383  0.2583
    1SOL    HW2 7322   2.337   3.954   3.108 -1.0039 -0.7088  1.6666
    1SOL    HW3 7323   2.186   3.942   3.100 -0.9113 -0.1938 -1.8863
    1SOL    MW4 7324   2.260   3.979   3.074 -0.1769 -0.1473  0.1614
    1SOL     OW 7325   2.230   4.239   3.171 -0.0607  0.2250  0.0242
    1SOL    HW2 7326   2.246   4.158   3.121 -1.5607 -0.4348  0.5778
    1SOL    HW3 7327   2.158   4.281   3.125 -0.6036  0.2530  0.8893
    1SOL    MW4 7328   2.223   4.234   3.158 -0.3302  0.1411  0.2115
    1SOL     OW 7329   2.440   4.401   3.082 -0.2910  0.7745 -0.5228
    1SOL    HW2 7330   2.354   4.360   3.090  0.7985 -1.6146 -0.5710
    1SOL    HW3 7331   2.463   4.388   2.990  1.0555 -0.5916 -0.0102
    1SOL    MW4 7332   2.432   4.393   3.071  0.0303  0.2794 -0.4613
    1SOL     OW 7333   2.908   4.635   3.138 -0.4392  0.2024 -0.3148
    1SOL    HW2 7334   2.990   4.677   3.111  0.0139 -0.2144  0.4041
    1SOL    HW3 7335   2.919   4.543   3.114 -1.6256  0.5722 -2.3325
    1SOL    MW4 7336   2.921   4.629   3.131 -0.5357  0.1960 -0.4864
    1SOL     OW 7337   2.658   0.066   3.049  0.2529 -0.3046 -0.0189
    1SOL    HW2 7338   2.741   0.030   3.081 -0.2138  0.1074  1.7258
    1SOL    HW3 7339   2.592   0.029   3.108 -0.8449 -0.8303 -1.5488
    1SOL    MW4 7340   2.660   0.056   3.061  0.0463 -0.3196  0.0095
    1SOL     OW 7341   2.702   0.347   3.123  0.2863  0.4040 -0.5156
    1SOL    HW2 7342   2.690   0.255   3.101 -0.3727  0.2893  0.3355
    1SOL    HW3 7343   2.622   0.390   3.094  0.5433  0.7002 -0.8034
    1SOL    MW4 7344   2.690   0.341   3.116  0.2334  0.4279 -0.4416
    1SOL     OW 7345   2.941   0.471   3.010 -0.0747 -0.0279  0.2329
    1SOL    HW2 7346   2.871   0.440   3.067 -1.4927  1.8059 -0.4767
    1SOL    HW3 7347   2.904   0.468   2.922  0.4189  1.7397 -0.0598
    1SOL    MW4 7348   2.927   0.467   3.006 -0.1965  0.4472  0.1009
    1SOL     OW 7349   2.967   0.736   3.120 -0.1334  0.0678 -0.2113
    1SOL    HW2 7350   2.961   0.720   3.214  2.2913  1.1377  0.1655
    1SOL    HW3 7351   2.964   0.648   3.080 -1.9468 -0.3429  0.7684
    1SOL    MW4 7352   2.966   0.722   3.127 -0.0527  0.1548 -0.0324
    1SOL     OW 7353   2.729   0.855   3.076  0.2458  0.0418  0.1588
    1SOL    HW2 7354   2.737   0.948   3.099  1.1439  0.6165 -2.2614
    1SOL    HW3 7355   2.807   0.814   3.113 -0.3765  0.1717  1.6138
    1SOL    MW4 7356   2.740   0.862   3.084  0.2820  0.1348  0.0312
    1SOL     OW 7357   2.737   1.104   3.154  0.0670  0.3963  0.6994
    1SOL    HW2 7358   2.819   1.149   3.134 -0.2367  1.1878  1.2207
    1SOL    HW3 7359   2.672   1.145   3.097  0.0546 -0.3491  0.1616
    1SOL    MW4 7360   2.739   1.115   3.144  0.0255  0.4023  0.6971
    1SOL     OW 7361   2.952   1.260   3.068  0.3890  0.2573 -0.6958
    1SOL    HW2 7362   3.030   1.221   3.106  0.6049 -0.8934 -2.2658
    1SOL    HW3 7363   2.950   1.349   3.103  1.4462 -0.2402  0.7032
    1SOL    MW4 7364   2.962   1.267   3.078  0.5569  0.0398 -0.7181
    1SOL     OW 7365   2.945   1.522   3.175  0.0016 -0.3937 -0.1970
    1SOL    HW2 7366   2.958   1.522   3.270 -0.3735 -0.8842 -0.1460
    1SOL    HW3 7367   3.014   1.579   3.141 -0.8327  1.0703  0.5088
    1SOL    MW4 7368   2.956   1.530   3.183 -0.1581 -0.2652 -0.0973
    1SOL     OW 7369   2.719   1.577   3.046  0.0774  0.2029  0.3240
    1SOL    HW2 7370   2.797   1.536   3.082 -0.2461 -1.4577 -0.7983
    1SOL    HW3 7371   2.646   1.525   3.080 -0.4244  0.6030 -0.1161
    1SOL    MW4 7372   2.720   1.565   3.055 -0.0315  0.0367  0.1178
    1SOL     OW 7373   2.668   1.842   3.149  0.2625  0.0906 -0.1102
    1SOL    HW2 7374   2.745   1.891   3.120 -0.4005  0.3631 -1.4276
    1SOL    HW3 7375   2.696   1.750   3.146  0.6357  0.2072 -0.2611
    1SOL    MW4 7376   2.682   1.836   3.145  0.2246  0.1417 -0.3040
    1SOL     OW 7377   2.902   2.010   3.084  0.0377  0.1167 -0.3025
    1SOL    HW2 7378   2.910   2.102   3.108 -0.3195  0.2892 -0.8263
    1SOL    HW3 7379   2.880   2.011   2.991  1.8703 -0.5493 -0.7695
    1SOL    MW4 7380   2.900   2.022   3.075  0.2322  0.0515 -0.4332
    1SOL     OW 7381   2.942   2.286   3.160 -0.1024  0.2506 -0.0295
    1SOL    HW2 7382   3.021   2.338   3.150  0.6891 -0.8645  0.2711
    1SOL    HW3 7383   2.875   2.334   3.112  0.1867  2.3963  1.6647
    1SOL    MW4 7384   2.944   2.299   3.152  0.0401  0.3870  0.2337
    1SOL     OW 7385   2.705   2.401   3.057  0.0069 -0.4170 -0.0865
    1SOL    HW2 7386   2.700   2.493   3.085 -0.3543 -0.0804 -1.2615
    1SOL    HW3 7387   2.628   2.360   3.096  0.3098 -0.2887  0.6590
    1SOL    MW4 7388   2.694   2.408   3.066 -0.0010 -0.3555 -0.1433
    1SOL     OW 7389   2.703   2.652   3.169  0.0710 -0.1983 -0.5205
    1SOL    HW2 7390   2.698   2.650   3.264  1.1561  0.2746 -0.4522
    1SOL    HW3 7391   2.621   2.692   3.141 -0.3338 -0.5217  0.2007
    1SOL    MW4 7392   2.692   2.657   3.178  0.1607 -0.1788 -0.4165
    1SOL     OW 7393   2.901   2.806   3.060  0.1216  0.0470 -0.2419
    1SOL    HW2 7394   2.986   2.779   3.096 -0.2500 -1.1498 -0.2345
    1SOL    HW3 7395   2.837   2.761   3.116 -0.4984  0.1843 -0.8416
    1SOL    MW4 7396   2.904   2.796   3.072 -0.0093 -0.0927 -0.3202
    1SOL     OW 7397   2.926   3.053   3.179  0.1460  0.1982  0.1470
    1SOL    HW2 7398   2.855   3.115   3.166 -0.0131  0.3282  1.5564
    1SOL    HW3 7399   2.900   2.976   3.128 -0.6579  0.5047  0.0872
    1SOL    MW4 7400   2.913   3.051   3.170  0.0188  0.2561  0.3252
    1SOL     OW 7401   2.703   3.197   3.083 -0.0568 -0.1833  0.0647
    1SOL    HW2 7402   2.712   3.284   3.121 -0.0756  0.0833 -0.5387
    1SOL    HW3 7403   2.724   3.209   2.990 -0.8837 -0.6532 -0.1944
    1SOL    MW4 7404   2.707   3.210   3.076 -0.1683 -0.2100 -0.0489
    1SOL     OW 7405   2.732   3.460   3.182  0.3547  0.5703 -0.0410
    1SOL    HW2 7406   2.724   3.477   3.276 -0.7064  1.7637 -0.3372
    1SOL    HW3 7407   2.813   3.504   3.157  0.5573  0.3862  0.2812
    1SOL    MW4 7408   2.742   3.468   3.191  0.2415  0.7036 -0.0374
    1SOL     OW 7409   2.942   3.622   3.113 -0.1637 -0.6376  0.2946
    1SOL    HW2 7410   3.016   3.565   3.131  1.6881  1.0448 -1.6934
    1SOL    HW3 7411   2.963   3.704   3.158  0.5019  0.7337 -2.3761
    1SOL    MW4 7412   2.954   3.625   3.121  0.1683 -0.2346 -0.3200
    1SOL     OW 7413   2.967   3.862   3.224 -0.5684 -0.8701 -0.1600
    1SOL    HW2 7414   2.955   3.859   3.319 -0.0174  1.4210  0.0165
    1SOL    HW3 7415   2.886   3.901   3.191  0.4283  1.0996 -0.3318
    1SOL    MW4 7416   2.955   3.867   3.232 -0.3638 -0.3083 -0.1593
    1SOL     OW 7417   2.732   3.987   3.093  0.5430  0.1595  0.3538
    1SOL    HW2 7418   2.714   4.079   3.111  0.0711  0.0501  0.4309
    1SOL    HW3 7419   2.718   3.979   2.998  1.0291  0.2707  0.2721
    1SOL    MW4 7420   2.728   3.998   3.083  0.5450  0.1600  0.3533
    1SOL     OW 7421   2.684   4.258   3.148  0.0864  0.2187 -0.0986
    1SOL    HW2 7422   2.685   4.277   3.242 -1.1296  0.5652 -0.1458
    1SOL    HW3 7423   2.608   4.307   3.114 -0.9950 -1.9213 -0.8372
    1SOL    MW4 7424   2.674   4.267   3.156 -0.2170 -0.0176 -0.2022
    1SOL     OW 7425   2.909   4.374   3.032 -0.1254  0.1923 -0.2289
    1SOL    HW2 7426   2.971   4.347   3.101  0.0215  0.8243 -0.1174
    1SOL    HW3 7427   2.825   4.338   3.061  0.0229  0.0594  0.0445
    1SOL    MW4 7428   2.906   4.365   3.045 -0.0863  0.2580 -0.1783
    1SOL     OW 7429   3.323   4.614   3.192 -0.4317  0.0568  0.1256
    1SOL    HW2 7430   3.406   4.652   3.161  0.9930 -1.3475  2.1116
    1SOL    HW3 7431   3.315   4.532   3.142  0.3981 -0.7764  1.3330
    1SOL    MW4 7432   3.333   4.608   3.181 -0.1345 -0.2379  0.5469
    1SOL     OW 7433   3.139   0.094   3.040 -0.0460 -0.0442  0.1435
    1SOL    HW2 7434   3.147   0.183   3.074 -1.4643 -0.7302  2.3111
    1SOL    HW3 7435   3.203   0.044   3.090  0.1798 -0.4197 -0.5177
    1SOL    MW4 7436   3.149   0.099   3.051 -0.2034 -0.1843  0.3424
    1SOL     OW 7437   3.163   0.371   3.165 -0.2653  0.1236  0.1007
    1SOL    HW2 7438   3.252   0.386   3.134  0.1956 -2.0736  0.3226
    1SOL    HW3 7439   3.108   0.418   3.102  0.9695  0.3467 -0.8363
    1SOL    MW4 7440   3.167   0.379   3.152 -0.0415 -0.1368  0.0062
    1SOL     OW 7441   3.377   0.502   3.026 -0.2893  0.0083  0.2736
    1SOL    HW2 7442   3.442   0.451   3.076 -0.2840  0.0509  0.3107
    1SOL    HW3 7443   3.400   0.485   2.934 -0.7925 -0.7034  0.2747
    1SOL    MW4 7444   3.389   0.493   3.021 -0.3550 -0.0800  0.2789
    1SOL     OW 7445   3.376   0.733   3.164 -0.0322  0.3210  0.3008
    1SOL    HW2 7446   3.360   0.717   3.257 -2.4985  0.7129 -0.0177
    1SOL    HW3 7447   3.370   0.646   3.124 -1.7966  0.4978  0.1460
    1SOL    MW4 7448   3.373   0.719   3.171 -0.5903  0.3961  0.2387
    1SOL     OW 7449   3.178   0.891   3.058 -0.1890  0.0632  0.1848
    1SOL    HW2 7450   3.246   0.833   3.093 -1.6262 -0.6400  1.8851
    1SOL    HW3 7451   3.095   0.848   3.082 -1.2412  0.9373 -1.7860
    1SOL    MW4 7452   3.176   0.877   3.066 -0.5174  0.0858  0.1493
    1SOL     OW 7453   3.167   1.125   3.185  0.0635  0.0136 -0.4465
    1SOL    HW2 7454   3.249   1.165   3.157 -0.6241  1.0780 -0.9591
    1SOL    HW3 7455   3.171   1.036   3.149  2.7370 -1.2981  2.8479
    1SOL    MW4 7456   3.178   1.118   3.176  0.3252 -0.0188 -0.0794
    1SOL     OW 7457   3.379   1.249   3.095  0.2275 -0.3866  0.1978
    1SOL    HW2 7458   3.450   1.199   3.136 -0.3783  1.0938  3.1648
    1SOL    HW3 7459   3.394   1.339   3.122 -1.5773  0.2822 -0.9185
    1SOL    MW4 7460   3.390   1.254   3.104 -0.0906 -0.1029  0.4420
    1SOL     OW 7461   3.386   1.521   3.188  0.2512  0.2839  0.1666
    1SOL    HW2 7462   3.402   1.523   3.283 -1.2037  1.0933  0.4146
    1SOL    HW3 7463   3.458   1.571   3.151  0.6754  0.2157  0.8825
    1SOL    MW4 7464   3.397   1.528   3.196  0.1154  0.3817  0.2937
    1SOL     OW 7465   3.162   1.671   3.081  0.0768 -0.1382 -0.5435
    1SOL    HW2 7466   3.237   1.618   3.110  1.6994  1.1781 -2.2026
    1SOL    HW3 7467   3.147   1.644   2.991 -0.3535  0.8222 -0.7617
    1SOL    MW4 7468   3.170   1.660   3.073  0.2341  0.1622 -0.7911
    1SOL     OW 7469   3.143   1.919   3.182  0.2027  0.2259  0.4380
    1SOL    HW2 7470   3.157   1.831   3.147  0.8922  0.7085 -0.5003
    1SOL    HW3 7471   3.057   1.945   3.148  0.2961  0.1850  0.1723
    1SOL    MW4 7472   3.133   1.911   3.173  0.3061  0.2841  0.2792
    1SOL     OW 7473   3.355   2.086   3.098  0.3818  0.0591 -0.1420
    1SOL    HW2 7474   3.431   2.035   3.124  0.9447  1.4262  0.9633
    1SOL    HW3 7475   3.280   2.035   3.129  0.9196 -0.2418  0.6810
    1SOL    MW4 7476   3.355   2.073   3.105  0.5269  0.2000  0.1123
    1SOL     OW 7477   3.395   2.338   3.193  0.1412 -0.0581  0.1626
    1SOL    HW2 7478   3.395   2.340   3.288 -1.2436  0.3969  0.1589
    1SOL    HW3 7479   3.360   2.252   3.171 -1.2817  0.5319  0.0694
    1SOL    MW4 7480   3.390   2.327   3.202 -0.2291  0.0799  0.1497
    1SOL     OW 7481   3.152   2.439   3.099  0.0817  0.2221  0.1473
    1SOL    HW2 7482   3.240   2.426   3.136 -0.0106 -0.2380  0.2060
    1SOL    HW3 7483   3.161   2.417   3.007  0.7281  3.0620 -0.5304
    1SOL    MW4 7484   3.165   2.435   3.092  0.1550  0.5360  0.0658
    1SOL     OW 7485   3.135   2.709   3.161  0.2405  0.2245 -0.6543
    1SOL    HW2 7486   3.139   2.715   3.257  0.8618  0.7970 -0.7081
    1SOL    HW3 7487   3.131   2.616   3.143 -1.7052  0.1535 -0.0066
    1SOL    MW4 7488   3.135   2.698   3.171  0.0658  0.2906 -0.5758
    1SOL     OW 7489   3.363   2.828   3.059 -0.3081  0.3574 -0.3719
    1SOL    HW2 7490   3.362   2.908   3.112 -0.1507  0.7704 -0.9788
    1SOL    HW3 7491   3.290   2.776   3.092  0.8155 -0.1320  1.3645
    1SOL    MW4 7492   3.353   2.832   3.070 -0.1392  0.3474 -0.2227
    1SOL     OW 7493   3.370   3.062   3.210  0.0532 -0.3106  0.3256
    1SOL    HW2 7494   3.368   3.053   3.305  1.0908 -0.1625  0.3714
    1SOL    HW3 7495   3.303   3.127   3.191  0.6342  0.5256  1.0752
    1SOL    MW4 7496   3.361   3.070   3.220  0.2668 -0.1810  0.4303
    1SOL     OW 7497   3.151   3.210   3.126  0.0764 -0.0282  0.5057
    1SOL    HW2 7498   3.073   3.156   3.142  0.1354 -0.4555 -0.6046
    1SOL    HW3 7499   3.156   3.217   3.031  0.2961  1.6311  0.6290
    1SOL    MW4 7500   3.141   3.204   3.116  0.1128  0.1345  0.3753
    1SOL     OW 7501   3.164   3.471   3.212  0.7320  0.3730 -0.1317
    1SOL    HW2 7502   3.246   3.501   3.172  0.1820  1.3731 -0.5493
    1SOL    HW3 7503   3.153   3.382   3.180 -0.0781  1.4031 -2.8775
    1SOL    MW4 7504   3.174   3.463   3.202  0.5524  0.6409 -0.5491
    1SOL     OW 7505   3.391   3.577   3.101 -0.4740  0.2536 -0.2239
    1SOL    HW2 7506   3.464   3.541   3.152 -1.5610 -1.2631  0.3019
    1SOL    HW3 7507   3.391   3.670   3.122 -0.3874 -0.2057  1.9267
    1SOL    MW4 7508   3.401   3.584   3.111 -0.6058 -0.0074  0.1292
    1SOL     OW 7509   3.369   3.847   3.192  0.4426  0.2287 -0.0768
    1SOL    HW2 7510   3.344   3.853   3.284 -0.5090  0.6980 -0.3588
    1SOL    HW3 7511   3.300   3.893   3.145  1.5843  1.0922 -0.9329
    1SOL    MW4 7512   3.357   3.854   3.198  0.4675  0.4046 -0.2270
    1SOL     OW 7513   3.170   3.998   3.072  0.4463 -0.0493 -0.0989
    1SOL    HW2 7514   3.092   3.953   3.105  0.8838 -0.0785  0.9418
    1SOL    HW3 7515   3.154   4.010   2.979 -0.5047 -0.6670 -0.0217
    1SOL    MW4 7516   3.158   3.993   3.064  0.3788 -0.1347  0.0486
    1SOL     OW 7517   3.087   4.224   3.205 -0.3148 -0.0256 -0.3310
    1SOL    HW2 7518   3.095   4.206   3.299 -0.7140  0.3759 -0.2174
    1SOL    HW3 7519   3.101   4.139   3.163 -1.7329 -0.5360  0.1860
    1SOL    MW4 7520   3.090   4.210   3.212 -0.5546 -0.0401 -0.2480
    1SOL     OW 7521   3.291   4.365   3.076 -0.4507 -0.0474  0.0123
    1SOL    HW2 7522   3.366   4.326   3.122 -0.2792  0.4777  0.1862
    1SOL    HW3 7523   3.215   4.317   3.109 -0.1529 -0.8519 -0.4601
    1SOL    MW4 7524   3.291   4.353   3.086 -0.3889 -0.0839 -0.0269
    1SOL     OW 7525   3.818   4.642   3.206  0.0213  0.3554 -0.0252
    1SOL    HW2 7526   3.800   4.554   3.174  0.1957  0.2774  0.0912
    1SOL    HW3 7527   3.737   4.691   3.190 -0.1648  0.1047  0.1585
    1SOL    MW4 7528   3.805   4.637   3.200  0.0198  0.3119  0.0143
    1SOL     OW 7529   3.582   0.070   3.129 -0.0391  0.3623  0.2123
    1SOL    HW2 7530   3.585   0.165   3.142  1.3818  0.2986  0.4223
    1SOL    HW3 7531   3.575   0.059   3.034 -3.0003  0.7061  0.3534
    1SOL    MW4 7532   3.582   0.081   3.118 -0.2425  0.3992  0.2587
    1SOL     OW 7533   3.578   0.358   3.160 -0.0171 -0.5474  0.1650
    1SOL    HW2 7534   3.574   0.372   3.254  0.4502 -1.4536  0.3251
    1SOL    HW3 7535   3.662   0.394   3.133  0.0319 -0.6601  0.1647
    1SOL    MW4 7536   3.588   0.364   3.169  0.0510 -0.6818  0.1860
    1SOL     OW 7537   3.808   0.496   3.064  0.2303  0.2930  0.5089
    1SOL    HW2 7538   3.885   0.474   3.118  2.0311  0.9814 -1.7041
    1SOL    HW3 7539   3.796   0.590   3.078  0.0827  0.2830  0.4486
    1SOL    MW4 7540   3.817   0.506   3.073  0.4485  0.3825  0.2089
    1SOL     OW 7541   3.806   0.756   3.138  0.2446 -0.4857 -0.0925
    1SOL    HW2 7542   3.810   0.744   3.233  1.6920  0.5381 -0.0022
    1SOL    HW3 7543   3.882   0.810   3.118 -1.1100  0.9109 -1.6070
    1SOL    MW4 7544   3.817   0.762   3.148  0.2568 -0.1663 -0.2804
    1SOL     OW 7545   3.582   0.896   3.061  0.4758 -0.0259  0.5576
    1SOL    HW2 7546   3.662   0.855   3.094  0.7045 -0.3789 -0.4308
    1SOL    HW3 7547   3.511   0.839   3.092  0.6825 -0.3054  0.5194
    1SOL    MW4 7548   3.583   0.883   3.069  0.5329 -0.1094  0.4222
    1SOL     OW 7549   3.592   1.126   3.200 -0.0201  0.0630  0.2210
    1SOL    HW2 7550   3.666   1.176   3.167  0.5896  0.1615  1.7141
    1SOL    HW3 7551   3.593   1.045   3.148  1.2927 -0.0485  0.4105
    1SOL    MW4 7552   3.602   1.122   3.188  0.2332  0.0613  0.4430
    1SOL     OW 7553   3.791   1.292   3.112  0.6172  0.0895 -0.3814
    1SOL    HW2 7554   3.801   1.386   3.126 -0.6543  0.2373 -0.3464
    1SOL    HW3 7555   3.774   1.284   3.018  0.8971 -0.1140 -0.4131
    1SOL    MW4 7556   3.790   1.304   3.101  0.4864  0.0823 -0.3808
    1SOL     OW 7557   3.840   1.552   3.183 -0.0224  0.0545  0.0129
    1SOL    HW2 7558   3.819   1.514   3.269 -0.6838  1.4881  0.4966
    1SOL    HW3 7559   3.756   1.583   3.150  0.1049 -1.1401 -1.4968
    1SOL    MW4 7560   3.826   1.551   3.190 -0.0925  0.0862 -0.1223
    1SOL     OW 7561   3.606   1.658   3.094  0.3700 -0.0399  0.5371
    1SOL    HW2 7562   3.597   1.750   3.118 -1.2143 -0.1980  0.5989
    1SOL    HW3 7563   3.598   1.657   2.999  0.4828 -0.1078  0.5279
    1SOL    MW4 7564   3.604   1.670   3.084  0.1760 -0.0696  0.5441
    1SOL     OW 7565   3.596   1.922   3.191  0.1606 -0.3837  0.7429
    1SOL    HW2 7566   3.591   1.914   3.286  0.8424  1.3724  0.9585
    1SOL    HW3 7567   3.687   1.949   3.174  0.2529 -1.3996 -0.4622
    1SOL    MW4 7568   3.608   1.924   3.201  0.2627 -0.2861  0.6125
    1SOL     OW 7569   3.826   2.013   3.073 -0.0864  0.6610 -0.1432
    1SOL    HW2 7570   3.841   2.103   3.103 -1.2695  1.2578 -1.2590
    1SOL    HW3 7571   3.821   2.021   2.977  1.3804 -0.8407 -0.3491
    1SOL    MW4 7572   3.827   2.026   3.064 -0.0491  0.5417 -0.3176
    1SOL     OW 7573   3.822   2.273   3.154 -0.4616 -0.6663 -0.0606
    1SOL    HW2 7574   3.816   2.284   3.249  0.0453 -0.6337 -0.0304
    1SOL    HW3 7575   3.758   2.335   3.119  1.6683  1.7304  0.1486
    1SOL    MW4 7576   3.813   2.283   3.162 -0.1140 -0.3459 -0.0288
    1SOL     OW 7577   3.604   2.450   3.071 -0.2357 -0.1683 -0.3029
    1SOL    HW2 7578   3.621   2.538   3.104 -0.3023 -0.1443 -0.3323
    1SOL    HW3 7579   3.522   2.424   3.112  0.2188 -0.5556  0.3747
    1SOL    MW4 7580   3.596   2.458   3.081 -0.1845 -0.2162 -0.2174
    1SOL     OW 7581   3.599   2.710   3.194  0.3177  0.4253 -0.3731
    1SOL    HW2 7582   3.684   2.741   3.163  0.8272 -0.1114  0.4527
    1SOL    HW3 7583   3.535   2.755   3.139  1.1607  0.3097 -1.4643
    1SOL    MW4 7584   3.602   2.720   3.183  0.4959  0.3393 -0.4082
    1SOL     OW 7585   3.836   2.826   3.100 -0.4519 -0.1389  0.0807
    1SOL    HW2 7586   3.847   2.915   3.133 -0.5462 -0.4094  0.8367
    1SOL    HW3 7587   3.848   2.835   3.005 -1.5071  0.8571  0.0243
    1SOL    MW4 7588   3.839   2.839   3.092 -0.6034 -0.0432  0.1731
    1SOL     OW 7589   3.845   3.075   3.221 -0.6197  0.2632  0.6131
    1SOL    HW2 7590   3.914   3.129   3.183  0.0274  0.1493  1.6002
    1SOL    HW3 7591   3.764   3.121   3.200 -0.1782  0.8605  0.2077
    1SOL    MW4 7592   3.844   3.088   3.213 -0.4761  0.3269  0.6897
    1SOL     OW 7593   3.602   3.208   3.142 -0.9369 -0.1572 -0.0078
    1SOL    HW2 7594   3.524   3.159   3.168 -1.3149 -0.0587 -0.9401
    1SOL    HW3 7595   3.601   3.206   3.047 -0.5999  1.1205 -0.0402
    1SOL    MW4 7596   3.592   3.201   3.133 -0.9425  0.0241 -0.1352
    1SOL     OW 7597   3.609   3.465   3.212  0.0948 -0.1973  0.5109
    1SOL    HW2 7598   3.694   3.498   3.183 -1.0644  0.5043 -2.2730
    1SOL    HW3 7599   3.608   3.373   3.185 -0.6604  0.2405 -1.0374
    1SOL    MW4 7600   3.620   3.457   3.205 -0.1578 -0.0472 -0.0606
    1SOL     OW 7601   3.839   3.594   3.136  0.6826  0.1609  0.3007
    1SOL    HW2 7602   3.819   3.685   3.160 -1.2338  0.0363 -0.6833
    1SOL    HW3 7603   3.829   3.592   3.041  0.4947 -1.1324  0.3415
    1SOL    MW4 7604   3.835   3.606   3.127  0.4048 -0.0260  0.1764
    1SOL     OW 7605   3.803   3.875   3.195 -0.1955 -0.3108  0.4702
    1SOL    HW2 7606   3.784   3.857   3.287  1.5479  0.7018  1.0348
    1SOL    HW3 7607   3.727   3.923   3.163 -0.8598 -0.7852  1.3313
    1SOL    MW4 7608   3.790   3.879   3.203 -0.0529 -0.2401  0.6580
    1SOL     OW 7609   3.578   4.027   3.128 -0.0742  0.0650 -0.4501
    1SOL    HW2 7610   3.496   3.990   3.161  0.1258  0.2102  0.2226
    1SOL    HW3 7611   3.577   4.008   3.034 -0.4506 -0.7521 -0.2896
    1SOL    MW4 7612   3.567   4.019   3.120 -0.0973 -0.0238 -0.3402
    1SOL     OW 7613   3.539   4.297   3.183 -0.3558  0.4692 -0.2044
    1SOL    HW2 7614   3.628   4.332   3.177  0.7006 -1.7931  1.5292
    1SOL    HW3 7615   3.547   4.205   3.160 -1.9203 -0.1871  1.6991
    1SOL    MW4 7616   3.551   4.290   3.179 -0.4230  0.0844  0.2756
    1SOL     OW 7617   3.794   4.374   3.135  0.3778 -0.1064 -0.0834
    1SOL    HW2 7618   3.880   4.342   3.160 -0.3283 -0.7850  1.5704
    1SOL    HW3 7619   3.798   4.383   3.040  2.2156 -0.2580 -0.0420
    1SOL    MW4 7620   3.806   4.371   3.126  0.5269 -0.2165  0.1402
    1SOL     OW 7621   4.250   4.627   3.176 -0.0789 -0.1137  0.2000
    1SOL    HW2 7622   4.262   4.628   3.271 -1.2683 -0.1004  0.3572
    1SOL    HW3 7623   4.259   4.534   3.152 -1.1660 -0.3154  0.5245
    1SOL    MW4 7624   4.252   4.615   3.185 -0.3796 -0.1388  0.2635
    1SOL     OW 7625   4.044   0.103   3.072  0.0386  0.4102  0.2088
    1SOL    HW2 7626   4.125   0.056   3.093 -0.9844 -1.3925  0.1920
    1SOL    HW3 7627   3.975   0.052   3.114 -1.0263  2.3844  0.9155
    1SOL    MW4 7628   4.046   0.091   3.080 -0.2370  0.4328  0.2997
    1SOL     OW 7629   4.023   0.372   3.177 -0.7428  0.3647  0.2826
    1SOL    HW2 7630   4.100   0.413   3.138  0.7721 -0.0359  2.7299
    1SOL    HW3 7631   4.033   0.279   3.158 -0.2459  0.2261  1.2085
    1SOL    MW4 7632   4.034   0.365   3.169 -0.4773  0.2935  0.7277
    1SOL     OW 7633   4.254   0.493   3.063 -0.2559 -0.0583 -0.0773
    1SOL    HW2 7634   4.273   0.579   3.102  0.2248 -0.0980 -0.2248
    1SOL    HW3 7635   4.249   0.509   2.969 -0.3826 -0.1563 -0.0890
    1SOL    MW4 7636   4.255   0.507   3.056 -0.2089 -0.0765 -0.0985
    1SOL     OW 7637   4.273   0.775   3.132 -0.3277  0.1112  0.1154
    1SOL    HW2 7638   4.195   0.830   3.126  0.0056  0.5776  0.0510
    1SOL    HW3 7639   4.345   0.832   3.106 -0.0805 -0.5826 -0.7398
    1SOL    MW4 7640   4.272   0.790   3.128 -0.2508  0.0812 -0.0062
    1SOL     OW 7641   4.023   0.928   3.079 -0.2985 -0.2900  0.1090
    1SOL    HW2 7642   4.041   1.022   3.083  1.7005 -0.6317 -0.1350
    1SOL    HW3 7643   4.021   0.908   2.986 -0.0179 -0.5938  0.1666
    1SOL    MW4 7644   4.025   0.938   3.068  0.0024 -0.3752  0.0842
    1SOL     OW 7645   4.051   1.201   3.189  0.0009  0.7805 -0.4023
    1SOL    HW2 7646   4.048   1.171   3.280  0.6891  0.8507 -0.3470
    1SOL    HW3 7647   3.965   1.240   3.173 -0.0009  1.0977  0.3385
    1SOL    MW4 7648   4.040   1.202   3.199  0.0916  0.8316 -0.2973
    1SOL     OW 7649   4.287   1.339   3.123 -0.3237  0.0712  0.4120
    1SOL    HW2 7650   4.206   1.303   3.159 -0.9593  0.6255 -0.4535
    1SOL    HW3 7651   4.281   1.321   3.029  0.3295  0.5647  0.2780
    1SOL    MW4 7652   4.276   1.332   3.116 -0.3209  0.2095  0.2804
    1SOL     OW 7653   4.303   1.604   3.200  0.0723  0.1411  0.4295
    1SOL    HW2 7654   4.228   1.646   3.157  0.1275  2.2533  2.2801
    1SOL    HW3 7655   4.297   1.512   3.175 -2.9814  0.3303  0.2709
    1SOL    MW4 7656   4.292   1.597   3.191 -0.3238  0.4447  0.6528
    1SOL     OW 7657   4.054   1.714   3.085  0.1663 -0.0071 -0.0061
    1SOL    HW2 7658   4.064   1.782   3.152 -1.0767 -0.2094  0.3776
    1SOL    HW3 7659   3.984   1.658   3.117  0.2494 -0.6842 -0.9989
    1SOL    MW4 7660   4.046   1.716   3.098  0.0134 -0.1231 -0.0863
    1SOL     OW 7661   4.042   1.945   3.234  0.3884  0.2122  0.3971
    1SOL    HW2 7662   4.121   1.986   3.200 -0.6510  2.6083  0.7265
    1SOL    HW3 7663   3.975   1.961   3.167 -0.5566  0.9448  1.4926
    1SOL    MW4 7664   4.043   1.953   3.221  0.1268  0.6250  0.5851
    1SOL     OW 7665   4.279   2.053   3.128  0.6503 -0.1253 -0.2704
    1SOL    HW2 7666   4.269   2.147   3.148  1.6850 -0.1716  0.4822
    1SOL    HW3 7667   4.269   2.048   3.033 -0.9671  0.5419 -0.1501
    1SOL    MW4 7668   4.276   2.065   3.118  0.5736 -0.0436 -0.1554
    1SOL     OW 7669   4.266   2.310   3.202  0.0526 -0.4582  0.2738
    1SOL    HW2 7670   4.185   2.348   3.169 -0.1708 -1.6950 -0.6272
    1SOL    HW3 7671   4.336   2.367   3.170 -0.3358 -0.3921 -0.4523
    1SOL    MW4 7672   4.265   2.322   3.194 -0.0286 -0.6127  0.0591
    1SOL     OW 7673   4.049   2.416   3.064 -0.1013 -0.1542 -0.4922
    1SOL    HW2 7674   4.030   2.507   3.087  0.3764 -0.1501 -0.1189
    1SOL    HW3 7675   3.974   2.367   3.099  0.6694 -0.1590  1.1865
    1SOL    MW4 7676   4.036   2.421   3.072  0.0634 -0.1543 -0.2217
    1SOL     OW 7677   4.029   2.662   3.168  0.4797 -0.4213  0.6487
    1SOL    HW2 7678   4.048   2.667   3.262  2.2668  2.5055  0.2114
    1SOL    HW3 7679   3.949   2.713   3.158  0.1975 -0.8738  0.6076
    1SOL    MW4 7680   4.021   2.670   3.179  0.6776 -0.0951  0.5853
    1SOL     OW 7681   4.236   2.801   3.074  0.2683 -0.2011 -0.2551
    1SOL    HW2 7682   4.169   2.740   3.102  1.2092 -1.5279 -0.8719
    1SOL    HW3 7683   4.316   2.773   3.120  0.6985  0.6083 -0.4844
    1SOL    MW4 7684   4.238   2.789   3.084  0.4487 -0.2692 -0.3667
    1SOL     OW 7685   4.252   3.061   3.207 -0.1914 -0.3289  0.1194
    1SOL    HW2 7686   4.180   3.105   3.162  0.2439  0.4013  0.1320
    1SOL    HW3 7687   4.245   2.970   3.180 -0.4267 -0.0465 -0.7817
    1SOL    MW4 7688   4.241   3.055   3.198 -0.1645 -0.1953  0.0021
    1SOL     OW 7689   4.034   3.201   3.080  0.5332  0.0458  0.2988
    1SOL    HW2 7690   4.047   3.291   3.110  1.4776 -0.2535  0.8206
    1SOL    HW3 7691   4.054   3.204   2.986 -3.2882  1.1622 -0.5668
    1SOL    MW4 7692   4.038   3.213   3.071  0.1540  0.1538  0.2534
    1SOL     OW 7693   4.069   3.454   3.173  0.2655 -0.3898 -0.4118
    1SOL    HW2 7694   4.075   3.435   3.267  0.8706 -0.9063 -0.5520
    1SOL    HW3 7695   3.992   3.510   3.165 -1.5717 -2.7278  0.0307
    1SOL    MW4 7696   4.059   3.459   3.184  0.1030 -0.7663 -0.3717
    1SOL     OW 7697   4.318   3.564   3.096  0.5883 -0.4041  0.1150
    1SOL    HW2 7698   4.301   3.658   3.093  0.5606 -0.4021  0.3089
    1SOL    HW3 7699   4.237   3.526   3.132  0.8298 -0.4374  0.6359
    1SOL    MW4 7700   4.305   3.571   3.101  0.6166 -0.4082  0.2096
    1SOL     OW 7701   4.276   3.832   3.147  0.5505  0.2984  0.1700
    1SOL    HW2 7702   4.191   3.871   3.131  0.2336 -1.2780 -2.2022
    1SOL    HW3 7703   4.338   3.905   3.142 -0.6022  1.3830  1.5328
    1SOL    MW4 7704   4.273   3.847   3.144  0.3562  0.2334  0.0367
    1SOL     OW 7705   4.022   3.992   3.088  0.2725 -0.0159 -0.1258
    1SOL    HW2 7706   4.010   4.081   3.122  0.6323  0.0510 -0.1786
    1SOL    HW3 7707   3.948   3.943   3.124 -0.8897  0.7053 -1.4834
    1SOL    MW4 7708   4.010   3.998   3.097  0.1659  0.0882 -0.3119
    1SOL     OW 7709   4.036   4.259   3.177 -0.5341 -0.1425 -0.8906
    1SOL    HW2 7710   4.048   4.251   3.272 -1.7435 -1.8236 -0.8436
    1SOL    HW3 7711   4.113   4.307   3.147  0.0301  0.1215  0.8989
    1SOL    MW4 7712   4.047   4.264   3.186 -0.6189 -0.3290 -0.6483
    1SOL     OW 7713   4.269   4.368   3.080  0.2216 -0.1338  0.3387
    1SOL    HW2 7714   4.332   4.301   3.107 -1.1964 -1.9571 -0.7856
    1SOL    HW3 7715   4.288   4.382   2.987  0.0571  0.5228  0.4056
    1SOL    MW4 7716   4.280   4.361   3.071  0.0124 -0.2875  0.1993
    1SOL     OW 7717   0.189   4.664   3.476 -0.2132 -0.1297  0.1056
    1SOL    HW2 7718   0.276   4.696   3.501  0.1279 -0.1147 -1.0644
    1SOL    HW3 7719   0.185   4.576   3.512  0.5036 -0.3281 -0.2885
    1SOL    MW4 7720   0.200   4.657   3.484 -0.0736 -0.1539 -0.1009
    1SOL     OW 7721   4.479   0.125   3.587  0.2780 -0.1515  0.0636
    1SOL    HW2 7722   4.481   0.211   3.546  0.0775 -0.6534 -1.0106
    1SOL    HW3 7723   4.549   0.076   3.546  0.0727 -0.6663  0.3166
    1SOL    MW4 7724   4.488   0.130   3.576  0.2251 -0.2856 -0.0448
    1SOL     OW 7725   4.488   0.371   3.470 -0.1356 -0.4801 -0.6675
    1SOL    HW2 7726   4.413   0.417   3.507 -0.4288 -1.3720 -0.1531
    1SOL    HW3 7727   4.564   0.411   3.512 -0.4213 -0.9127  0.2525
    1SOL    MW4 7728   4.488   0.383   3.480 -0.2117 -0.6549 -0.4783
    1SOL     OW 7729   0.228   0.473   3.581  0.0461 -0.3774 -0.5048
    1SOL    HW2 7730   0.298   0.425   3.538  1.1463  1.7052 -1.0956
    1SOL    HW3 7731   0.228   0.559   3.539 -1.2672  0.4614  1.1367
    1SOL    MW4 7732   0.237   0.478   3.570  0.0180  0.0080 -0.3660
    1SOL     OW 7733   0.209   0.729   3.464 -0.3255  0.3750 -0.2083
    1SOL    HW2 7734   0.282   0.783   3.495 -0.0268  0.6650 -1.3746
    1SOL    HW3 7735   0.131   0.777   3.490 -0.0762  0.6311  0.0689
    1SOL    MW4 7736   0.208   0.742   3.471 -0.2532  0.4470 -0.3254
    1SOL     OW 7737   4.470   0.858   3.546  0.0854 -0.3800  0.0419
    1SOL    HW2 7738   4.448   0.853   3.639  0.2563 -0.0124  0.1031
    1SOL    HW3 7739   4.479   0.952   3.529  1.8200 -0.5404  0.0629
    1SOL    MW4 7740   4.468   0.870   3.556  0.3362 -0.3526  0.0529
    1SOL     OW 7741   4.470   1.129   3.481 -0.3487 -0.1389 -0.4239
    1SOL    HW2 7742   4.545   1.173   3.521 -1.4499  0.8894  0.5337
    1SOL    HW3 7743   4.479   1.147   3.387 -0.0105  0.9033 -0.1897
    1SOL    MW4 7744   4.481   1.137   3.474 -0.4497  0.1342 -0.2668
    1SOL     OW 7745   0.216   1.266   3.559 -0.6442  0.2972 -0.1535
    1SOL    HW2 7746   0.297   1.227   3.527  0.3045  1.4260  0.8194
    1SOL    HW3 7747   0.215   1.354   3.521 -0.3487  1.0395  1.5140
    1SOL    MW4 7748   0.227   1.273   3.550 -0.4801  0.5440  0.1948
    1SOL     OW 7749   0.184   1.515   3.445 -0.1022  0.1437  0.1463
    1SOL    HW2 7750   0.261   1.558   3.483 -1.2692  0.7451  1.8846
    1SOL    HW3 7751   0.200   1.517   3.351  2.0075  0.2728  0.4770
    1SOL    MW4 7752   0.196   1.521   3.438  0.0222  0.2401  0.4194
    1SOL     OW 7753   4.463   1.677   3.539  0.0895 -0.0695  0.4721
    1SOL    HW2 7754   4.380   1.634   3.521 -0.5820  1.2191  0.5056
    1SOL    HW3 7755   4.529   1.615   3.506 -0.9573  0.0685 -2.0073
    1SOL    MW4 7756   4.461   1.663   3.532 -0.1373  0.1189  0.1495
    1SOL     OW 7757   0.030   1.928   3.432 -0.6653 -0.0460 -0.3503
    1SOL    HW2 7758   0.006   1.848   3.480  2.5920 -0.5217  0.6088
    1SOL    HW3 7759   0.028   1.902   3.340 -2.0255 -0.5261 -0.2036
    1SOL    MW4 7760   0.027   1.914   3.426 -0.4150 -0.1720 -0.2043
    1SOL     OW 7761   0.233   2.077   3.507 -0.2901  0.0015 -0.2098
    1SOL    HW2 7762   0.239   2.072   3.603  0.5957 -0.4453 -0.2872
    1SOL    HW3 7763   0.157   2.023   3.485  0.0540 -0.6351  0.1635
    1SOL    MW4 7764   0.224   2.069   3.517 -0.1278 -0.1416 -0.1709
    1SOL     OW 7765   0.225   2.351   3.431 -0.5282  0.2200  0.0790
    1SOL    HW2 7766   0.155   2.386   3.487 -0.4228  0.6374 -0.0499
    1SOL    HW3 7767   0.225   2.257   3.449 -1.0677  0.2324  0.1429
    1SOL    MW4 7768   0.216   2.343   3.441 -0.5855  0.2766  0.0706
    1SOL     OW 7769   0.014   2.442   3.587 -0.5367 -0.1263 -0.1360
    1SOL    HW2 7770   0.026   2.444   3.682  1.3425 -1.1004 -0.3339
    1SOL    HW3 7771  -0.071   2.399   3.575 -0.8874  0.1847  1.1052
    1SOL    MW4 7772   0.004   2.436   3.598 -0.3347 -0.2136  0.0014
    1SOL     OW 7773   0.015   2.719   3.491 -0.6954  0.2451  0.1575
    1SOL    HW2 7774   0.084   2.771   3.533  0.5854 -0.0404 -1.5335
    1SOL    HW3 7775   0.025   2.632   3.529  0.5210 -0.0370 -0.7666
    1SOL    MW4 7776   0.025   2.715   3.502 -0.3659  0.1702 -0.1876
    1SOL     OW 7777   0.241   2.804   3.641  0.6105  0.0556 -0.3507
    1SOL    HW2 7778   0.316   2.769   3.593  0.1667  0.0568 -1.0396
    1SOL    HW3 7779   0.246   2.899   3.628  0.5692  0.0679 -0.2762
    1SOL    MW4 7780   0.252   2.812   3.633  0.5465  0.0572 -0.4320
    1SOL     OW 7781   0.205   3.061   3.549  0.0951 -0.0279 -0.1313
    1SOL    HW2 7782   0.129   3.112   3.577  0.4881  0.5059 -0.0376
    1SOL    HW3 7783   0.205   3.068   3.454  0.0145 -0.0529 -0.1334
    1SOL    MW4 7784   0.195   3.069   3.540  0.1363  0.0391 -0.1192
    1SOL     OW 7785   4.489   3.223   3.650  0.0451 -0.1705 -0.5028
    1SOL    HW2 7786   4.423   3.178   3.597 -1.6017  0.8621  0.6228
    1SOL    HW3 7787   4.499   3.309   3.608 -0.0786  0.0564 -0.0661
    1SOL    MW4 7788   4.482   3.228   3.637 -0.1884 -0.0043 -0.2968
    1SOL     OW 7789   0.005   3.468   3.527  0.3554 -0.1507 -0.0787
    1SOL    HW2 7790  -0.082   3.506   3.532 -0.1279 -1.0992 -1.1143
    1SOL    HW3 7791   0.020   3.454   3.434  1.9096  0.6594  0.0215
    1SOL    MW4 7792  -0.004   3.471   3.515  0.4973 -0.1690 -0.2022
    1SOL     OW 7793   0.229   3.609   3.596 -0.0966  0.1491  0.3310
    1SOL    HW2 7794   0.219   3.587   3.689  0.1081  0.3356  0.3980
    1SOL    HW3 7795   0.148   3.578   3.556  0.4977 -1.4103  0.2863
    1SOL    MW4 7796   0.217   3.602   3.603  0.0089 -0.0319  0.3338
    1SOL     OW 7797   0.232   3.866   3.477  0.4234  0.1175 -0.1343
    1SOL    HW2 7798   0.166   3.925   3.514 -1.2581 -1.6272 -0.2708
    1SOL    HW3 7799   0.221   3.784   3.526  1.3632 -0.7073 -1.2923
    1SOL    MW4 7800   0.222   3.863   3.488  0.3255 -0.2215 -0.3049
    1SOL     OW 7801   0.007   3.975   3.588  0.0844 -0.2475  0.1113
    1SOL    HW2 7802   0.014   3.973   3.683  0.5252 -1.0554  0.0659
    1SOL    HW3 7803   0.006   4.068   3.566 -0.3338 -0.0565  0.9265
    1SOL    MW4 7804   0.008   3.987   3.598  0.0874 -0.3290  0.2129
    1SOL     OW 7805   4.473   4.221   3.493 -0.0551  0.0257 -0.1848
    1SOL    HW2 7806   4.400   4.275   3.521 -0.4127 -0.5400 -0.0261
    1SOL    HW3 7807   4.551   4.272   3.516 -0.4005  0.7055 -0.5172
    1SOL    MW4 7808   4.474   4.235   3.500 -0.1483  0.0410 -0.2077
    1SOL     OW 7809   0.192   4.389   3.548  0.2534 -0.7119  0.3303
    1SOL    HW2 7810   0.199   4.370   3.642  1.0076 -1.3113  0.1596
    1SOL    HW3 7811   0.278   4.366   3.513  0.0688 -0.2024 -0.4620
    1SOL    MW4 7812   0.204   4.384   3.556  0.3286 -0.7234  0.2034
    1SOL     OW 7813   0.673   4.636   3.490 -0.1429  0.7567  0.0761
    1SOL    HW2 7814   0.743   4.696   3.517  2.0543 -1.2967 -0.8565
    1SOL    HW3 7815   0.680   4.631   3.395 -2.2659  1.3274 -0.1276
    1SOL    MW4 7816   0.683   4.643   3.481 -0.1330  0.5608 -0.0737
    1SOL     OW 7817   0.452   0.111   3.565 -0.0057  0.2677  0.7085
    1SOL    HW2 7818   0.453   0.114   3.661 -0.2905 -0.4184  0.7345
    1SOL    HW3 7819   0.519   0.047   3.543 -0.1316  0.2218  0.4612
    1SOL    MW4 7820   0.461   0.103   3.575 -0.0599  0.1711  0.6793
    1SOL     OW 7821   0.445   0.368   3.469  0.3934 -0.1607  0.0568
    1SOL    HW2 7822   0.510   0.420   3.516 -1.4201 -0.0670  2.5585
    1SOL    HW3 7823   0.460   0.278   3.499  0.0324 -0.2847 -0.1271
    1SOL    MW4 7824   0.455   0.363   3.479  0.1065 -0.1647  0.3626
    1SOL     OW 7825   0.659   0.504   3.562 -0.3170 -0.1349  0.3634
    1SOL    HW2 7826   0.658   0.506   3.658  0.4430  0.7444  0.3557
    1SOL    HW3 7827   0.728   0.443   3.540 -1.1874 -1.1402  0.3727
    1SOL    MW4 7828   0.668   0.496   3.572 -0.3315 -0.1515  0.3636
    1SOL     OW 7829   0.657   0.778   3.463 -0.0429 -0.0480 -0.5656
    1SOL    HW2 7830   0.571   0.810   3.489  0.6429  0.5958  0.9754
    1SOL    HW3 7831   0.657   0.686   3.489  0.2103  0.2970  0.7307
    1SOL    MW4 7832   0.645   0.770   3.470  0.0811  0.0824 -0.1912
    1SOL     OW 7833   0.415   0.864   3.571 -0.2959  0.1432  0.1081
    1SOL    HW2 7834   0.402   0.853   3.666  1.5760 -0.2774  0.3444
    1SOL    HW3 7835   0.397   0.956   3.555 -1.9749 -0.0817  0.6347
    1SOL    MW4 7836   0.411   0.875   3.582 -0.2704  0.0581  0.2089
    1SOL     OW 7837   0.446   1.148   3.468  0.3439 -0.0029  0.2100
    1SOL    HW2 7838   0.524   1.197   3.494  0.0017  1.5338 -1.5575
    1SOL    HW3 7839   0.455   1.136   3.373 -1.0744 -0.7143  0.1483
    1SOL    MW4 7840   0.457   1.153   3.459  0.1116  0.1060 -0.0312
    1SOL     OW 7841   0.661   1.315   3.529  0.1278  0.4289 -0.2278
    1SOL    HW2 7842   0.735   1.260   3.507 -1.5001 -1.4941 -1.0861
    1SOL    HW3 7843   0.675   1.395   3.479  1.8907  0.3200  0.0601
    1SOL    MW4 7844   0.672   1.318   3.520  0.1455  0.1607 -0.3030
    1SOL     OW 7845   0.642   1.557   3.384 -0.2914 -0.0919  0.0603
    1SOL    HW2 7846   0.713   1.596   3.435 -1.7094  0.6746  1.5180
    1SOL    HW3 7847   0.562   1.580   3.433 -1.5068 -1.2711 -1.3115
    1SOL    MW4 7848   0.641   1.565   3.397 -0.6389 -0.1464  0.0715
    1SOL     OW 7849   0.413   1.628   3.543 -0.0073 -0.6997  0.2586
    1SOL    HW2 7850   0.420   1.631   3.638  0.3981 -0.8804  0.2339
    1SOL    HW3 7851   0.412   1.720   3.515  0.0002 -0.6502  0.4249
    1SOL    MW4 7852   0.414   1.640   3.552  0.0472 -0.7170  0.2773
    1SOL     OW 7853   0.424   1.886   3.453 -0.3035 -0.4980 -0.0866
    1SOL    HW2 7854   0.363   1.954   3.484  0.3408 -0.6576  1.6042
    1SOL    HW3 7855   0.447   1.913   3.364 -0.6119  1.1182  0.3093
    1SOL    MW4 7856   0.419   1.899   3.445 -0.2592 -0.3058  0.1888
    1SOL     OW 7857   0.654   2.056   3.510 -0.0775  0.3608 -0.3105
    1SOL    HW2 7858   0.667   2.055   3.605 -1.4885 -2.2912 -0.0945
    1SOL    HW3 7859   0.577   2.001   3.496 -1.0973  2.3278 -2.8471
    1SOL    MW4 7860   0.646   2.049   3.521 -0.3982  0.2704 -0.6166
    1SOL     OW 7861   0.629   2.332   3.425 -0.1031 -0.0492 -0.1125
    1SOL    HW2 7862   0.717   2.353   3.456  0.9203 -1.3793 -1.9503
    1SOL    HW3 7863   0.618   2.239   3.445 -0.3931 -0.3092 -1.4127
    1SOL    MW4 7864   0.639   2.323   3.431 -0.0064 -0.2592 -0.5264
    1SOL     OW 7865   0.439   2.484   3.540  0.6159  0.0489 -0.2518
    1SOL    HW2 7866   0.512   2.440   3.498  1.3880 -0.3580  1.4905
    1SOL    HW3 7867   0.362   2.432   3.516  1.1091 -0.4482 -0.7440
    1SOL    MW4 7868   0.438   2.472   3.531  0.7829 -0.0706 -0.0870
    1SOL     OW 7869   0.447   2.746   3.462  0.1129  0.7557  0.2442
    1SOL    HW2 7870   0.435   2.652   3.470 -0.4124  0.8215  0.2325
    1SOL    HW3 7871   0.453   2.762   3.367  1.8943  0.5298  0.3010
    1SOL    MW4 7872   0.446   2.736   3.450  0.2787  0.7348  0.2501
    1SOL     OW 7873   0.675   2.830   3.576  0.1706 -0.0025 -0.2077
    1SOL    HW2 7874   0.751   2.785   3.540 -0.1832 -0.2505 -0.6564
    1SOL    HW3 7875   0.600   2.785   3.538 -0.1950  0.7075 -0.3544
    1SOL    MW4 7876   0.675   2.818   3.566  0.0756  0.0584 -0.2861
    1SOL     OW 7877   0.644   3.077   3.443  0.3033  0.3076 -0.0050
    1SOL    HW2 7878   0.572   3.130   3.477 -0.7479 -0.7016 -0.6021
    1SOL    HW3 7879   0.648   3.001   3.501  0.9071  0.3786  0.0469
    1SOL    MW4 7880   0.635   3.074   3.455  0.2443  0.1838 -0.0770
    1SOL     OW 7881   0.442   3.217   3.579 -0.0935  0.6259 -0.1876
    1SOL    HW2 7882   0.438   3.211   3.675  0.3301 -1.3072 -0.2721
    1SOL    HW3 7883   0.359   3.181   3.549 -0.4735  1.7779 -0.5430
    1SOL    MW4 7884   0.430   3.211   3.588 -0.0877  0.5229 -0.2456
    1SOL     OW 7885   0.469   3.479   3.479 -0.2480  0.0630 -0.3907
    1SOL    HW2 7886   0.469   3.384   3.492  1.0070 -0.0905 -1.4352
    1SOL    HW3 7887   0.385   3.508   3.515 -1.0527 -1.5551 -0.9156
    1SOL    MW4 7888   0.458   3.470   3.485 -0.1886 -0.1705 -0.5977
    1SOL     OW 7889   0.685   3.622   3.554 -0.2131 -0.1665 -0.2903
    1SOL    HW2 7890   0.747   3.560   3.516 -0.1797 -0.8320  0.8595
    1SOL    HW3 7891   0.599   3.581   3.541 -0.3038  0.1549 -0.7120
    1SOL    MW4 7892   0.682   3.608   3.547 -0.2207 -0.2120 -0.1941
    1SOL     OW 7893   0.671   3.874   3.462 -0.1372 -0.1038 -0.1803
    1SOL    HW2 7894   0.606   3.921   3.514  1.2732  1.4500  0.2231
    1SOL    HW3 7895   0.663   3.783   3.490 -0.5240  0.4484  1.5569
    1SOL    MW4 7896   0.661   3.868   3.473 -0.0021  0.1740  0.1023
    1SOL     OW 7897   0.457   4.005   3.581 -0.1787 -0.1104 -0.2296
    1SOL    HW2 7898   0.448   4.089   3.536  1.8830 -0.2805 -0.9966
    1SOL    HW3 7899   0.389   3.949   3.542 -2.2642  1.4709  1.0230
    1SOL    MW4 7900   0.447   4.008   3.570 -0.1818  0.0758 -0.1657
    1SOL     OW 7901   0.414   4.284   3.447 -0.1872 -0.2720  0.4444
    1SOL    HW2 7902   0.491   4.316   3.493  0.0660  1.7625 -1.3073
    1SOL    HW3 7903   0.446   4.259   3.360 -1.3897  0.0815 -0.1185
    1SOL    MW4 7904   0.429   4.285   3.441 -0.3124  0.0434  0.1388
    1SOL     OW 7905   0.629   4.387   3.599 -0.0722  0.5912 -0.2877
    1SOL    HW2 7906   0.708   4.334   3.592 -0.4920  0.1149 -1.4404
    1SOL    HW3 7907   0.656   4.475   3.574  0.4553  0.7751  0.9018
    1SOL    MW4 7908   0.643   4.392   3.595 -0.0580  0.5527 -0.2828
    1SOL     OW 7909   1.100   4.653   3.478  0.4949  0.5658  0.0181
    1SOL    HW2 7910   1.176   4.702   3.509  0.1753  1.0423  0.0570
    1SOL    HW3 7911   1.097   4.668   3.384  1.4238 -0.8259 -0.2480
    1SOL    MW4 7912   1.109   4.662   3.470  0.5754  0.4449 -0.0119
    1SOL     OW 7913   0.888   0.129   3.560 -0.3490 -0.6543 -0.0835
    1SOL    HW2 7914   0.890   0.133   3.656 -0.0448  0.2069 -0.1243
    1SOL    HW3 7915   0.973   0.091   3.537  0.6216  1.4764 -0.1160
    1SOL    MW4 7916   0.900   0.124   3.570 -0.1808 -0.2596 -0.0935
    1SOL     OW 7917   0.885   0.365   3.423 -0.1695 -0.1150  0.4853
    1SOL    HW2 7918   0.959   0.413   3.459  0.5443 -0.2208 -0.8176
    1SOL    HW3 7919   0.891   0.278   3.463 -0.2772  0.2481  1.2852
    1SOL    MW4 7920   0.896   0.360   3.433 -0.0895 -0.0810  0.4191
    1SOL     OW 7921   1.089   0.512   3.548 -0.3809 -0.2889  0.3612
    1SOL    HW2 7922   1.111   0.503   3.641 -1.6384 -0.8374  0.6111
    1SOL    HW3 7923   1.107   0.604   3.529  1.9698 -0.6784  0.5841
    1SOL    MW4 7924   1.094   0.523   3.558 -0.2367 -0.4127  0.4232
    1SOL     OW 7925   1.136   0.758   3.457  0.0452  0.0009 -0.3101
    1SOL    HW2 7926   1.218   0.806   3.467  0.3244 -0.1232 -1.9716
    1SOL    HW3 7927   1.072   0.811   3.504  0.6831  1.0969 -0.6618
    1SOL    MW4 7928   1.139   0.771   3.465  0.1661  0.1292 -0.5758
    1SOL     OW 7929   0.893   0.922   3.531  0.2734  0.0470  0.2128
    1SOL    HW2 7930   0.894   1.018   3.528  1.0895 -0.0018 -1.3738
    1SOL    HW3 7931   0.808   0.899   3.494  0.9812  0.1098 -1.4884
    1SOL    MW4 7932   0.882   0.932   3.526  0.4746  0.0489 -0.2210
    1SOL     OW 7933   0.889   1.190   3.464  0.1696  0.3937 -0.0608
    1SOL    HW2 7934   0.962   1.250   3.479  1.7175 -1.2376 -0.8425
    1SOL    HW3 7935   0.894   1.168   3.372 -0.8716 -0.3263  0.0405
    1SOL    MW4 7936   0.899   1.195   3.454  0.2364  0.0834 -0.1504
    1SOL     OW 7937   1.104   1.353   3.512 -0.1567  0.2805  0.3437
    1SOL    HW2 7938   1.100   1.343   3.607  0.2972  2.6004  0.6347
    1SOL    HW3 7939   1.101   1.448   3.497 -1.9830 -0.1058 -2.0471
    1SOL    MW4 7940   1.103   1.364   3.523 -0.3378  0.5355  0.0665
    1SOL     OW 7941   1.083   1.607   3.422  0.1942  0.4349 -0.4316
    1SOL    HW2 7942   1.173   1.627   3.448  0.0682  2.0793 -1.2010
    1SOL    HW3 7943   1.092   1.574   3.332  0.2320 -1.4869  0.2549
    1SOL    MW4 7944   1.096   1.605   3.413  0.1826  0.3983 -0.4425
    1SOL     OW 7945   0.834   1.691   3.533 -0.1635  0.1240  0.4221
    1SOL    HW2 7946   0.830   1.782   3.503  1.7057  0.0896  0.0323
    1SOL    HW3 7947   0.914   1.656   3.494 -1.5049 -2.0771 -0.4846
    1SOL    MW4 7948   0.844   1.698   3.524 -0.0938 -0.1709  0.2511
    1SOL     OW 7949   0.898   1.958   3.416 -0.5422 -0.4195  0.5974
    1SOL    HW2 7950   0.963   1.982   3.482 -0.2538 -0.4964  0.3376
    1SOL    HW3 7951   0.815   1.992   3.452 -0.2678  0.2274  0.6317
    1SOL    MW4 7952   0.895   1.966   3.430 -0.4680 -0.3443  0.5674
    1SOL     OW 7953   1.122   2.051   3.574 -0.3162 -0.1652  0.0549
    1SOL    HW2 7954   1.170   1.987   3.521  1.8074  0.3196  1.3630
    1SOL    HW3 7955   1.130   2.132   3.525  1.2213  0.1714  0.8347
    1SOL    MW4 7956   1.129   2.053   3.560  0.1668 -0.0572  0.3304
    1SOL     OW 7957   1.114   2.303   3.431  0.1841 -0.0075  0.0552
    1SOL    HW2 7958   1.174   2.365   3.473 -1.5729  2.0340 -0.3460
    1SOL    HW3 7959   1.120   2.322   3.338 -0.9328  0.1165 -0.0046
    1SOL    MW4 7960   1.123   2.314   3.424 -0.1950  0.2782 -0.0055
    1SOL     OW 7961   0.876   2.421   3.517  0.1236 -0.2418  0.0811
    1SOL    HW2 7962   0.895   2.423   3.611  0.7484  0.0384 -0.0410
    1SOL    HW3 7963   0.950   2.374   3.479 -0.1078 -0.3209 -0.2710
    1SOL    MW4 7964   0.889   2.415   3.524  0.1755 -0.2153  0.0186
    1SOL     OW 7965   0.900   2.699   3.468 -0.4048  0.0348 -0.2450
    1SOL    HW2 7966   0.976   2.732   3.516 -0.0302 -0.7172 -0.3209
    1SOL    HW3 7967   0.888   2.610   3.500 -1.3134  0.1825 -0.1653
    1SOL    MW4 7968   0.908   2.692   3.478 -0.4752 -0.0451 -0.2446
    1SOL     OW 7969   1.125   2.854   3.545  0.5293 -0.3802  0.0576
    1SOL    HW2 7970   1.120   2.853   3.641 -1.6460 -1.7107 -0.0307
    1SOL    HW3 7971   1.199   2.797   3.524  1.7581  0.8505  0.9668
    1SOL    MW4 7972   1.134   2.846   3.555  0.4044 -0.3934  0.1659
    1SOL     OW 7973   1.096   3.117   3.452 -0.1268 -0.0901 -0.0651
    1SOL    HW2 7974   1.116   3.028   3.480 -0.6850 -0.2162 -0.0584
    1SOL    HW3 7975   1.127   3.121   3.361  1.0609  0.1098  0.3370
    1SOL    MW4 7976   1.103   3.106   3.443 -0.0436 -0.0803 -0.0112
    1SOL     OW 7977   0.855   3.214   3.559  0.5718 -0.2104  0.5146
    1SOL    HW2 7978   0.932   3.169   3.525 -0.0593 -1.1659  0.3247
    1SOL    HW3 7979   0.782   3.174   3.512  0.1035  2.0899 -0.7975
    1SOL    MW4 7980   0.856   3.203   3.548  0.4268 -0.0329  0.3164
    1SOL     OW 7981   0.917   3.480   3.499  0.1125 -0.1148  0.6496
    1SOL    HW2 7982   0.894   3.391   3.528  1.9342 -0.7533  0.2422
    1SOL    HW3 7983   0.922   3.473   3.404 -1.4473  0.8790  0.4750
    1SOL    MW4 7984   0.915   3.467   3.490  0.1470 -0.0677  0.5729
    1SOL     OW 7985   1.144   3.636   3.578  0.0514 -0.0642 -0.2957
    1SOL    HW2 7986   1.163   3.619   3.670 -0.4750 -1.7284 -0.4790
    1SOL    HW3 7987   1.069   3.580   3.558 -0.5772  1.1495 -1.4398
    1SOL    MW4 7988   1.137   3.626   3.587 -0.1009 -0.1235 -0.4706
    1SOL     OW 7989   1.127   3.884   3.455  0.0923  0.1576  0.1187
    1SOL    HW2 7990   1.206   3.934   3.476  0.5409 -0.2198 -0.6556
    1SOL    HW3 7991   1.134   3.804   3.508 -0.4954  0.7870  1.1573
    1SOL    MW4 7992   1.138   3.880   3.465  0.0739  0.1905  0.1538
    1SOL     OW 7993   0.889   3.964   3.592  0.3698 -0.0246 -0.1976
    1SOL    HW2 7994   0.964   3.923   3.550 -0.0541 -0.7400 -0.2506
    1SOL    HW3 7995   0.812   3.922   3.552 -0.0412 -0.2630  0.8365
    1SOL    MW4 7996   0.888   3.953   3.581  0.2596 -0.1507 -0.0682
    1SOL     OW 7997   0.878   4.236   3.515  0.2508 -0.1257  0.0759
    1SOL    HW2 7998   0.898   4.146   3.540 -1.0575 -0.5947 -0.5274
    1SOL    HW3 7999   0.897   4.240   3.421  0.0560  0.1448  0.0466
    1SOL    MW4 8000   0.883   4.225   3.506  0.0525 -0.1521 -0.0076
    1SOL     OW 8001   1.105   4.380   3.584 -0.3217 -0.0134  0.0197
    1SOL    HW2 8002   1.014   4.351   3.582 -0.1499 -0.4768 -1.8778
    1SOL    HW3 8003   1.101   4.474   3.566 -0.4466  0.0229  0.2384
    1SOL    MW4 8004   1.092   4.388   3.581 -0.3154 -0.0696 -0.2019
    1SOL     OW 8005   1.573   4.654   3.478  0.0387  0.0486  0.2963
    1SOL    HW2 8006   1.573   4.567   3.517 -0.4183 -0.4222 -0.7205
    1SOL    HW3 8007   1.490   4.693   3.506  0.5333  0.3886  1.2672
    1SOL    MW4 8008   1.562   4.647   3.487  0.0437  0.0315  0.2902
    1SOL     OW 8009   1.336   0.098   3.547 -0.4604 -0.3542  0.2421
    1SOL    HW2 8010   1.333   0.110   3.641  0.8753  0.8315  0.1635
    1SOL    HW3 8011   1.353   0.186   3.512 -1.0469 -0.7542 -1.1067
    1SOL    MW4 8012   1.338   0.111   3.555 -0.3614 -0.2505  0.0539
    1SOL     OW 8013   1.345   0.355   3.451 -0.1867 -0.2139  0.2784
    1SOL    HW2 8014   1.421   0.406   3.479 -0.0842  0.7665 -1.7039
    1SOL    HW3 8015   1.270   0.413   3.465 -0.0084  0.7556 -2.5223
    1SOL    MW4 8016   1.345   0.369   3.457 -0.1498  0.0434 -0.3524
    1SOL     OW 8017   1.543   0.521   3.542  0.3830 -0.1624  0.0697
    1SOL    HW2 8018   1.529   0.519   3.637  1.0014  1.2618  0.2198
    1SOL    HW3 8019   1.620   0.466   3.528 -0.5595 -1.5328  0.2118
    1SOL    MW4 8020   1.551   0.514   3.553  0.3403 -0.1552  0.1082
    1SOL     OW 8021   1.571   0.783   3.465 -0.0066 -0.5252 -0.2605
    1SOL    HW2 8022   1.496   0.839   3.484 -0.0453 -0.5739 -0.2703
    1SOL    HW3 8023   1.547   0.698   3.500  0.6252 -0.1944  1.0086
    1SOL    MW4 8024   1.558   0.779   3.472  0.0715 -0.4880 -0.0944
    1SOL     OW 8025   1.342   0.920   3.520  0.1815  0.0760  0.2437
    1SOL    HW2 8026   1.328   0.924   3.615  1.2145  2.1280  0.3202
    1SOL    HW3 8027   1.334   1.011   3.491 -0.6255 -0.6051 -1.7160
    1SOL    MW4 8028   1.339   0.932   3.529  0.2114  0.2568 -0.0048
    1SOL     OW 8029   1.327   1.205   3.432  0.4060 -0.0868 -0.0625
    1SOL    HW2 8030   1.401   1.258   3.461 -0.0198  0.1043  0.7139
    1SOL    HW3 8031   1.250   1.253   3.463 -0.0132 -0.6810 -0.1695
    1SOL    MW4 8032   1.326   1.218   3.440  0.2946 -0.1400  0.0257
    1SOL     OW 8033   1.575   1.311   3.514  0.1352 -0.2563  0.4367
    1SOL    HW2 8034   1.582   1.302   3.609 -0.0112  0.0432  0.4776
    1SOL    HW3 8035   1.642   1.252   3.479  0.9386  0.4480  0.7536
    1SOL    MW4 8036   1.585   1.302   3.522  0.2218 -0.1239  0.4838
    1SOL     OW 8037   1.600   1.573   3.408 -0.0348  0.2086  0.5198
    1SOL    HW2 8038   1.582   1.487   3.446  0.1992  0.0540  0.2766
    1SOL    HW3 8039   1.577   1.564   3.316  1.1117  0.0601  0.2415
    1SOL    MW4 8040   1.594   1.560   3.401  0.1475  0.1686  0.4508
    1SOL     OW 8041   1.356   1.622   3.520  0.2817  0.0364  0.0370
    1SOL    HW2 8042   1.363   1.639   3.614  0.1409 -0.8736  0.2177
    1SOL    HW3 8043   1.446   1.601   3.492  0.3047  0.1968 -0.0085
    1SOL    MW4 8044   1.369   1.622   3.528  0.2662 -0.0625  0.0551
    1SOL     OW 8045   1.311   1.892   3.452  0.0883 -0.1498 -0.4649
    1SOL    HW2 8046   1.385   1.938   3.492 -0.6698  0.2387  0.5272
    1SOL    HW3 8047   1.332   1.800   3.461  0.1024 -0.0523  0.4899
    1SOL    MW4 8048   1.323   1.886   3.458 -0.0098 -0.0856 -0.2081
    1SOL     OW 8049   1.538   2.043   3.538  0.1112 -0.2917 -0.2577
    1SOL    HW2 8050   1.605   1.988   3.497 -1.3258 -0.4038 -2.5783
    1SOL    HW3 8051   1.559   2.132   3.508 -1.1160 -0.4129 -1.5476
    1SOL    MW4 8052   1.550   2.048   3.528 -0.2403 -0.3223 -0.7343
    1SOL     OW 8053   1.566   2.305   3.437  0.4977 -0.1291  0.0037
    1SOL    HW2 8054   1.486   2.343   3.473  0.3102 -0.4293 -0.0955
    1SOL    HW3 8055   1.561   2.323   3.343  0.3505 -0.4998 -0.0615
    1SOL    MW4 8056   1.554   2.313   3.429  0.4536 -0.2174 -0.0179
    1SOL     OW 8057   1.342   2.436   3.573 -0.1356 -0.1621 -0.1725
    1SOL    HW2 8058   1.326   2.440   3.667 -0.2616  0.5629 -0.2187
    1SOL    HW3 8059   1.351   2.528   3.547 -0.5101 -0.3422 -0.9341
    1SOL    MW4 8060   1.341   2.449   3.582 -0.2018 -0.0904 -0.2792
    1SOL     OW 8061   1.347   2.690   3.478  0.2375  0.2587 -0.3188
    1SOL    HW2 8062   1.420   2.741   3.515 -0.4209  0.5769  0.5608
    1SOL    HW3 8063   1.353   2.705   3.384  1.1451  0.5056 -0.2333
    1SOL    MW4 8064   1.358   2.698   3.471  0.2705  0.3333 -0.1915
    1SOL     OW 8065   1.566   2.816   3.557 -0.5681 -0.4936  0.0789
    1SOL    HW2 8066   1.638   2.769   3.515  0.9949  1.4356  0.5042
    1SOL    HW3 8067   1.573   2.905   3.523 -1.3986  0.2428  1.8016
    1SOL    MW4 8068   1.577   2.821   3.547 -0.4714 -0.1421  0.3624
    1SOL     OW 8069   1.571   3.077   3.450  0.3202 -0.1514  0.1208
    1SOL    HW2 8070   1.652   3.112   3.486  0.3618 -2.3081  2.2802
    1SOL    HW3 8071   1.502   3.134   3.483  0.9838  2.1763 -2.3866
    1SOL    MW4 8072   1.573   3.089   3.459  0.4133 -0.1290  0.0751
    1SOL     OW 8073   1.350   3.222   3.530 -0.4840  0.0816  0.1057
    1SOL    HW2 8074   1.359   3.228   3.625 -0.9093  0.7525  0.1063
    1SOL    HW3 8075   1.258   3.200   3.515 -0.2252 -0.8637 -0.1214
    1SOL    MW4 8076   1.339   3.220   3.541 -0.5059  0.0453  0.0756
    1SOL     OW 8077   1.364   3.498   3.467 -0.1727 -0.0686 -0.0501
    1SOL    HW2 8078   1.345   3.410   3.498 -1.6161  0.1838 -0.1914
    1SOL    HW3 8079   1.288   3.550   3.495 -0.8224  0.4707 -2.7110
    1SOL    MW4 8080   1.352   3.493   3.475 -0.4489  0.0358 -0.4201
    1SOL     OW 8081   1.593   3.624   3.556 -0.4088  0.0027 -0.1843
    1SOL    HW2 8082   1.586   3.633   3.651  0.7613 -1.8141  0.1004
    1SOL    HW3 8083   1.517   3.571   3.530  0.7919 -1.9180  0.1363
    1SOL    MW4 8084   1.582   3.618   3.565 -0.0961 -0.4902 -0.1042
    1SOL     OW 8085   1.551   3.895   3.444 -0.3724 -0.2672  0.0588
    1SOL    HW2 8086   1.572   3.808   3.478  1.6964 -0.0903 -0.7126
    1SOL    HW3 8087   1.546   3.883   3.349  0.0393  0.4812 -0.0573
    1SOL    MW4 8088   1.553   3.882   3.436 -0.0452 -0.1452 -0.0582
    1SOL     OW 8089   1.339   4.018   3.550  0.3181  0.1944 -0.4138
    1SOL    HW2 8090   1.339   4.112   3.531  0.1839  0.2954  0.1032
    1SOL    HW3 8091   1.428   3.989   3.529  0.2426  0.3558 -0.9700
    1SOL    MW4 8092   1.350   4.027   3.544  0.2905  0.2284 -0.4191
    1SOL     OW 8093   1.349   4.276   3.468 -0.5339  0.4107  0.2258
    1SOL    HW2 8094   1.266   4.313   3.499 -0.7593  0.0942  0.0078
    1SOL    HW3 8095   1.337   4.269   3.373 -0.2004  0.5074  0.1778
    1SOL    MW4 8096   1.336   4.280   3.460 -0.5196  0.3824  0.1905
    1SOL     OW 8097   1.578   4.374   3.580  0.1329  0.1467 -0.1204
    1SOL    HW2 8098   1.651   4.336   3.530 -0.0169  0.8245 -0.8706
    1SOL    HW3 8099   1.500   4.331   3.544  0.0864  0.0779  0.0619
    1SOL    MW4 8100   1.578   4.363   3.568  0.1070  0.2270 -0.1955
    1SOL     OW 8101   1.998   4.627   3.457  0.6934  0.2471  0.0835
    1SOL    HW2 8102   2.078   4.665   3.494  0.1286  0.7232  0.8211
    1SOL    HW3 8103   1.927   4.676   3.497  0.0035 -0.6233 -0.0581
    1SOL    MW4 8104   1.999   4.638   3.467  0.5280  0.1950  0.1619
    1SOL     OW 8105   1.798   0.123   3.577  0.0967 -0.2692  0.1621
    1SOL    HW2 8106   1.797   0.115   3.673 -1.0115 -2.3122 -0.0026
    1SOL    HW3 8107   1.725   0.069   3.547 -0.0640  0.9973 -1.8041
    1SOL    MW4 8108   1.788   0.115   3.586 -0.0708 -0.3717 -0.1190
    1SOL     OW 8109   1.788   0.368   3.466 -0.5839 -0.1856 -0.0046
    1SOL    HW2 8110   1.783   0.281   3.505  2.1223 -0.4069 -0.1116
    1SOL    HW3 8111   1.784   0.352   3.372  2.0558 -0.3829 -0.0990
    1SOL    MW4 8112   1.787   0.354   3.459  0.1215 -0.2409 -0.0312
    1SOL     OW 8113   2.031   0.468   3.557 -0.3718  0.0289  0.2379
    1SOL    HW2 8114   2.024   0.558   3.526 -0.7352 -0.2293 -0.4350
    1SOL    HW3 8115   1.955   0.423   3.520  0.9987 -1.0946 -1.3034
    1SOL    MW4 8116   2.020   0.474   3.548 -0.2391 -0.1534 -0.0541
    1SOL     OW 8117   1.998   0.755   3.457  0.2832 -0.1831  0.0227
    1SOL    HW2 8118   2.070   0.801   3.501  0.7163 -1.2362  0.4113
    1SOL    HW3 8119   2.025   0.751   3.365  0.5157 -0.1823  0.0903
    1SOL    MW4 8120   2.011   0.761   3.451  0.3710 -0.3219  0.0827
    1SOL     OW 8121   1.792   0.911   3.538  0.6736  0.3598  0.0455
    1SOL    HW2 8122   1.862   0.849   3.521 -0.1978 -0.3381 -1.0221
    1SOL    HW3 8123   1.712   0.867   3.509 -0.0342  1.7152 -0.1269
    1SOL    MW4 8124   1.791   0.897   3.532  0.4654  0.4466 -0.1183
    1SOL     OW 8125   1.778   1.157   3.401  0.2276 -0.2456 -0.3112
    1SOL    HW2 8126   1.863   1.201   3.411 -0.2917  0.8897 -0.8952
    1SOL    HW3 8127   1.791   1.072   3.444  1.2629  0.4251  0.7483
    1SOL    MW4 8128   1.791   1.151   3.408  0.2955 -0.0073 -0.2484
    1SOL     OW 8129   2.022   1.272   3.517  0.0549 -0.2816 -0.0996
    1SOL    HW2 8130   1.996   1.261   3.608 -1.7208  0.1021 -0.5355
    1SOL    HW3 8131   1.999   1.363   3.497  2.4578  0.3146 -0.3119
    1SOL    MW4 8132   2.016   1.283   3.526  0.1378 -0.1523 -0.1850
    1SOL     OW 8133   1.991   1.547   3.402  0.2813  0.1258 -0.0704
    1SOL    HW2 8134   2.079   1.580   3.421  0.1437 -0.9895  2.7359
    1SOL    HW3 8135   1.932   1.606   3.448 -0.3139 -0.3652 -0.1989
    1SOL    MW4 8136   1.995   1.559   3.410  0.1847 -0.0862  0.2830
    1SOL     OW 8137   1.812   1.690   3.535  0.3351  0.6085  0.3559
    1SOL    HW2 8138   1.804   1.784   3.519  0.4243  0.4858 -0.4485
    1SOL    HW3 8139   1.739   1.652   3.486  0.6737  0.2103  0.1582
    1SOL    MW4 8140   1.801   1.697   3.526  0.3916  0.5398  0.2236
    1SOL     OW 8141   1.793   1.945   3.429 -0.4003  0.2590 -0.2267
    1SOL    HW2 8142   1.858   2.006   3.465 -2.2379  2.5534 -0.6300
    1SOL    HW3 8143   1.803   1.952   3.334  0.1169 -0.9123 -0.2630
    1SOL    MW4 8144   1.803   1.954   3.421 -0.5745  0.4071 -0.2847
    1SOL     OW 8145   2.021   2.100   3.565 -0.0185 -0.2952  0.0048
    1SOL    HW2 8146   2.071   2.041   3.509  0.3312 -0.5860  0.6150
    1SOL    HW3 8147   2.035   2.186   3.527  1.5371 -0.2762  0.5736
    1SOL    MW4 8148   2.030   2.103   3.553  0.2327 -0.3309  0.1605
    1SOL     OW 8149   2.065   2.333   3.433  0.4444  0.9045  0.6335
    1SOL    HW2 8150   1.991   2.384   3.467 -0.2756  0.9428 -0.9282
    1SOL    HW3 8151   2.142   2.375   3.469 -0.1031  3.4447 -1.0142
    1SOL    MW4 8152   2.065   2.345   3.442  0.2770  1.2445  0.2100
    1SOL     OW 8153   1.807   2.454   3.503 -0.0786  0.7286  0.1234
    1SOL    HW2 8154   1.820   2.462   3.598 -3.0491  1.7625  0.4995
    1SOL    HW3 8155   1.734   2.391   3.495  0.9029 -0.2206 -1.5333
    1SOL    MW4 8156   1.799   2.447   3.515 -0.3409  0.7398 -0.0455
    1SOL     OW 8157   1.780   2.710   3.420  0.0003 -0.1488 -0.0400
    1SOL    HW2 8158   1.854   2.751   3.465  0.0311  0.4294 -0.6075
    1SOL    HW3 8159   1.789   2.617   3.440 -0.3296  0.1610  1.6350
    1SOL    MW4 8160   1.791   2.703   3.428 -0.0392 -0.0315  0.1061
    1SOL     OW 8161   2.002   2.841   3.525  0.6263 -0.5814 -0.0045
    1SOL    HW2 8162   2.024   2.837   3.618 -1.3341  0.8948  0.5414
    1SOL    HW3 8163   2.013   2.933   3.501  0.1328 -0.7731 -0.9939
    1SOL    MW4 8164   2.007   2.852   3.534  0.3026 -0.4122 -0.0629
    1SOL     OW 8165   2.025   3.095   3.420  0.1348 -0.2365  0.1784
    1SOL    HW2 8166   2.092   3.132   3.478  0.3961 -0.0372 -0.2459
    1SOL    HW3 8167   1.942   3.130   3.454  0.3167  0.1689  0.2140
    1SOL    MW4 8168   2.023   3.104   3.432  0.1934 -0.1566  0.1273
    1SOL     OW 8169   1.804   3.196   3.544 -0.0893  0.3935  0.0263
    1SOL    HW2 8170   1.802   3.185   3.639 -1.9337 -0.0653 -0.0506
    1SOL    HW3 8171   1.825   3.288   3.531  0.2656  0.4334  0.8858
    1SOL    MW4 8172   1.806   3.207   3.555 -0.2857  0.3381  0.1297
    1SOL     OW 8173   1.839   3.482   3.489 -0.0595  0.0910  0.1433
    1SOL    HW2 8174   1.756   3.525   3.508  0.1451  0.0234  1.1934
    1SOL    HW3 8175   1.844   3.482   3.393 -1.6380 -0.6164  0.0428
    1SOL    MW4 8176   1.828   3.488   3.479 -0.2409 -0.0114  0.2685
    1SOL     OW 8177   2.053   3.611   3.585  0.2299 -0.1430  0.0977
    1SOL    HW2 8178   2.125   3.578   3.531 -0.5419  0.9071 -1.6112
    1SOL    HW3 8179   1.975   3.566   3.551 -0.3323  0.9019 -0.0270
    1SOL    MW4 8180   2.052   3.601   3.573  0.0539  0.1333 -0.1442
    1SOL     OW 8181   2.003   3.857   3.449  0.2537 -0.0790  0.0600
    1SOL    HW2 8182   1.927   3.908   3.476  0.5117 -0.3201  1.2867
    1SOL    HW3 8183   1.998   3.777   3.500  1.0448 -0.3208 -0.2342
    1SOL    MW4 8184   1.993   3.853   3.460  0.3922 -0.1426  0.1826
    1SOL     OW 8185   1.785   4.017   3.529 -0.6680  0.2744 -0.0947
    1SOL    HW2 8186   1.787   4.012   3.625 -1.9801 -0.6850 -0.1055
    1SOL    HW3 8187   1.696   3.990   3.505 -0.0491 -0.4710 -1.6385
    1SOL    MW4 8188   1.773   4.013   3.538 -0.7595  0.0491 -0.2999
    1SOL     OW 8189   1.779   4.276   3.415  0.5552 -0.0209 -0.2925
    1SOL    HW2 8190   1.796   4.186   3.444 -0.3367  0.2047  0.9456
    1SOL    HW3 8191   1.762   4.267   3.321  0.0462 -1.2002 -0.1015
    1SOL    MW4 8192   1.779   4.263   3.407  0.3703 -0.1469 -0.1040
    1SOL     OW 8193   1.996   4.369   3.557  0.0458  0.0997  0.2985
    1SOL    HW2 8194   1.922   4.335   3.507 -0.3751  1.2709  0.0947
    1SOL    HW3 8195   2.014   4.455   3.518 -0.0570  0.8799  1.9122
    1SOL    MW4 8196   1.989   4.376   3.546 -0.0232  0.3572  0.4845
    1SOL     OW 8197   2.464   4.648   3.500  0.0702  0.0079 -0.0102
    1SOL    HW2 8198   2.462   4.553   3.515 -0.8756  0.0288  0.0032
    1SOL    HW3 8199   2.459   4.657   3.405  2.3422 -0.0070 -0.1735
    1SOL    MW4 8200   2.463   4.636   3.489  0.2451  0.0081 -0.0298
    1SOL     OW 8201   2.216   0.091   3.562  0.4706  0.3164  0.0839
    1SOL    HW2 8202   2.226   0.171   3.510  1.2497 -0.1204 -0.4473
    1SOL    HW3 8203   2.297   0.042   3.547  0.4136 -0.1297  1.1744
    1SOL    MW4 8204   2.228   0.095   3.553  0.5658  0.1999  0.1574
    1SOL     OW 8205   2.241   0.329   3.451 -0.5845 -0.2070 -0.5244
    1SOL    HW2 8206   2.307   0.395   3.474 -1.5319  0.5924 -0.0708
    1SOL    HW3 8207   2.159   0.365   3.484 -1.3317 -0.9549 -1.5665
    1SOL    MW4 8208   2.239   0.343   3.459 -0.8080 -0.2002 -0.6020
    1SOL     OW 8209   2.435   0.503   3.530  0.0630  0.0416 -0.0419
    1SOL    HW2 8210   2.488   0.448   3.472  2.0423  1.3515  0.4851
    1SOL    HW3 8211   2.429   0.587   3.485 -0.4743  0.3080  0.5208
    1SOL    MW4 8212   2.441   0.507   3.516  0.2537  0.2496  0.1020
    1SOL     OW 8213   2.413   0.755   3.410  0.3105 -0.2631  0.5691
    1SOL    HW2 8214   2.502   0.775   3.439  0.7430 -0.0251 -0.9275
    1SOL    HW3 8215   2.418   0.751   3.315 -1.0527 -1.3638  0.5236
    1SOL    MW4 8216   2.426   0.757   3.402  0.1879 -0.3769  0.3657
    1SOL     OW 8217   2.212   0.906   3.530 -0.0213  0.0932 -0.0884
    1SOL    HW2 8218   2.225   0.991   3.489  2.0121 -0.7183 -1.2122
    1SOL    HW3 8219   2.283   0.852   3.496 -1.2582 -2.0549  0.6297
    1SOL    MW4 8220   2.223   0.910   3.520  0.0839 -0.2972 -0.1419
    1SOL     OW 8221   2.241   1.147   3.400  0.0568  0.3498 -0.4398
    1SOL    HW2 8222   2.309   1.187   3.454 -0.6013  0.7602  0.0966
    1SOL    HW3 8223   2.159   1.183   3.434 -0.3159  1.4252 -2.3749
    1SOL    MW4 8224   2.239   1.157   3.412 -0.0792  0.5460 -0.6242
    1SOL     OW 8225   2.449   1.256   3.556  0.3194 -0.3685  0.1500
    1SOL    HW2 8226   2.464   1.240   3.649 -1.5218 -1.2815  0.3021
    1SOL    HW3 8227   2.523   1.214   3.512  1.0620 -0.1453  1.1816
    1SOL    MW4 8228   2.461   1.248   3.562  0.1745 -0.4594  0.3064
    1SOL     OW 8229   2.484   1.506   3.435  0.2517 -0.0815 -0.3168
    1SOL    HW2 8230   2.466   1.420   3.471 -0.1819 -0.1252 -0.6322
    1SOL    HW3 8231   2.486   1.492   3.340 -0.0069  0.2871 -0.3784
    1SOL    MW4 8232   2.482   1.493   3.427  0.1602 -0.0385 -0.3662
    1SOL     OW 8233   2.247   1.667   3.511  0.0716 -0.0940 -0.1439
    1SOL    HW2 8234   2.240   1.653   3.606  1.7834 -0.5206 -0.0509
    1SOL    HW3 8235   2.335   1.635   3.489  0.0132  0.7884 -1.7388
    1SOL    MW4 8236   2.258   1.661   3.521  0.2897 -0.0337 -0.3424
    1SOL     OW 8237   2.167   1.925   3.411 -0.4799  0.3598  0.0921
    1SOL    HW2 8238   2.198   1.839   3.439 -2.2791 -0.2628  0.2519
    1SOL    HW3 8239   2.192   1.930   3.318 -0.0717 -0.2000  0.1662
    1SOL    MW4 8240   2.174   1.914   3.402 -0.6638  0.2037  0.1230
    1SOL     OW 8241   2.419   2.027   3.528  0.3012 -0.2867  0.1799
    1SOL    HW2 8242   2.426   2.012   3.622 -0.4406 -1.3637  0.0709
    1SOL    HW3 8243   2.335   1.988   3.504  0.7616 -0.5457 -1.0279
    1SOL    MW4 8244   2.409   2.020   3.537  0.2639 -0.4630  0.0062
    1SOL     OW 8245   2.426   2.312   3.444  0.3610  0.2073  0.1135
    1SOL    HW2 8246   2.505   2.352   3.481  1.1138  0.8427 -2.1053
    1SOL    HW3 8247   2.429   2.221   3.476  0.7521  0.8307  1.9193
    1SOL    MW4 8248   2.437   2.305   3.453  0.5119  0.3736  0.0591
    1SOL     OW 8249   2.259   2.461   3.597  0.3227  0.2693  0.0721
    1SOL    HW2 8250   2.237   2.538   3.545 -0.6294  0.9081  1.3935
    1SOL    HW3 8251   2.321   2.412   3.543  0.1215  1.4252 -1.2214
    1SOL    MW4 8252   2.264   2.464   3.583  0.1707  0.5062  0.0758
    1SOL     OW 8253   2.227   2.675   3.439 -0.1668 -0.0282 -0.2743
    1SOL    HW2 8254   2.147   2.722   3.463 -0.3241  0.6826 -2.1020
    1SOL    HW3 8255   2.219   2.662   3.345  1.0395 -1.5497 -0.1711
    1SOL    MW4 8256   2.216   2.680   3.430 -0.0288 -0.1352 -0.5019
    1SOL     OW 8257   2.464   2.796   3.532 -0.0234 -0.2086  0.1489
    1SOL    HW2 8258   2.462   2.890   3.515 -0.4470  0.1032  1.9198
    1SOL    HW3 8259   2.376   2.765   3.509 -0.0099 -0.1219 -0.0269
    1SOL    MW4 8260   2.452   2.804   3.526 -0.0772 -0.1562  0.3591
    1SOL     OW 8261   2.454   3.066   3.459 -0.1566 -0.4208  0.0294
    1SOL    HW2 8262   2.539   3.096   3.489 -0.1534 -0.0832 -0.3146
    1SOL    HW3 8263   2.462   3.062   3.364 -0.4316 -0.6716  0.0159
    1SOL    MW4 8264   2.466   3.069   3.450 -0.1926 -0.4091 -0.0176
    1SOL     OW 8265   2.234   3.211   3.558  0.1713  0.6224 -0.2690
    1SOL    HW2 8266   2.231   3.200   3.653 -0.6095  0.7777 -0.2682
    1SOL    HW3 8267   2.318   3.174   3.532 -0.7110 -1.8334  0.1885
    1SOL    MW4 8268   2.245   3.205   3.567 -0.0479  0.3188 -0.2086
    1SOL     OW 8269   2.276   3.462   3.467 -0.3263  0.2059 -0.4661
    1SOL    HW2 8270   2.271   3.372   3.499  0.8957  0.1993 -0.2784
    1SOL    HW3 8271   2.284   3.454   3.372  1.3574  0.0478 -0.3317
    1SOL    MW4 8272   2.276   3.449   3.458  0.0570  0.1841 -0.4237
    1SOL     OW 8273   2.496   3.599   3.579 -0.2448 -0.2507 -0.1762
    1SOL    HW2 8274   2.493   3.689   3.545  1.5441 -0.1280 -0.0443
    1SOL    HW3 8275   2.410   3.563   3.558 -0.7020  1.2367 -0.9501
    1SOL    MW4 8276   2.484   3.606   3.572 -0.0691 -0.0381 -0.2608
    1SOL     OW 8277   2.478   3.854   3.474  0.1830 -0.6105  0.1168
    1SOL    HW2 8278   2.548   3.909   3.508  0.1662 -0.4647 -0.0891
    1SOL    HW3 8279   2.398   3.901   3.496  0.2101  0.0279 -1.0991
    1SOL    MW4 8280   2.477   3.867   3.481  0.1843 -0.5069 -0.0708
    1SOL     OW 8281   2.219   4.002   3.599  0.0841  0.1205 -0.1046
    1SOL    HW2 8282   2.234   4.090   3.566  1.8761 -0.4574 -0.8862
    1SOL    HW3 8283   2.143   3.971   3.551 -1.0144  1.4841  0.7040
    1SOL    MW4 8284   2.211   4.009   3.589  0.1760  0.2241 -0.1011
    1SOL     OW 8285   2.235   4.247   3.466 -0.2391  0.2067 -0.6617
    1SOL    HW2 8286   2.146   4.278   3.482 -0.5141 -0.5050 -0.8005
    1SOL    HW3 8287   2.236   4.223   3.374 -0.4289 -1.4842 -0.2411
    1SOL    MW4 8288   2.224   4.248   3.456 -0.3004 -0.1101 -0.6244
    1SOL     OW 8289   2.464   4.366   3.557 -0.0095  0.3323 -0.1831
    1SOL    HW2 8290   2.459   4.368   3.652 -1.9023 -0.2531 -0.2374
    1SOL    HW3 8291   2.381   4.326   3.530  0.4000  0.7136 -2.0793
    1SOL    MW4 8292   2.452   4.361   3.566 -0.2053  0.3052 -0.4406
    1SOL     OW 8293   2.946   4.649   3.430 -0.1409 -0.0308 -0.0918
    1SOL    HW2 8294   2.866   4.696   3.454 -0.2467  0.3019 -1.0611
    1SOL    HW3 8295   2.943   4.646   3.334  0.0648 -1.6589 -0.0603
    1SOL    MW4 8296   2.935   4.655   3.420 -0.1278 -0.2017 -0.2155
    1SOL     OW 8297   2.721   0.125   3.503 -0.4872  0.0611  0.0766
    1SOL    HW2 8298   2.698   0.203   3.453  0.4046 -1.2822 -2.4996
    1SOL    HW3 8299   2.639   0.077   3.511 -0.5916  0.1762 -0.2835
    1SOL    MW4 8300   2.707   0.129   3.498 -0.3834 -0.1009 -0.3109
    1SOL     OW 8301   2.652   0.377   3.388  0.3978 -0.2127 -0.7116
    1SOL    HW2 8302   2.732   0.410   3.430 -0.2812  1.6850 -0.8572
    1SOL    HW3 8303   2.665   0.393   3.295 -0.1492  0.1256 -0.7342
    1SOL    MW4 8304   2.664   0.383   3.381  0.2360  0.0823 -0.7339
    1SOL     OW 8305   2.902   0.461   3.464  0.8828 -0.4656 -0.0188
    1SOL    HW2 8306   2.901   0.479   3.558  0.7995  0.1051 -0.1273
    1SOL    HW3 8307   2.909   0.547   3.423 -0.1255 -0.6315 -0.5566
    1SOL    MW4 8308   2.903   0.474   3.471  0.7389 -0.4122 -0.1040
    1SOL     OW 8309   2.899   0.742   3.390  0.3095 -0.0757 -0.4456
    1SOL    HW2 8310   2.965   0.785   3.444 -0.4821  0.8986 -0.2287
    1SOL    HW3 8311   2.816   0.770   3.428 -0.2266 -1.3742 -0.6495
    1SOL    MW4 8312   2.897   0.752   3.402  0.1342 -0.1186 -0.4439
    1SOL     OW 8313   2.670   0.858   3.515 -0.4673  0.3670  0.2692
    1SOL    HW2 8314   2.679   0.865   3.610 -0.2974  2.7616  0.1111
    1SOL    HW3 8315   2.663   0.949   3.485 -1.2178 -0.3851 -1.9417
    1SOL    MW4 8316   2.670   0.871   3.523 -0.5438  0.5838 -0.0432
    1SOL     OW 8317   2.672   1.139   3.445 -0.1922 -0.1328 -0.0579
    1SOL    HW2 8318   2.738   1.200   3.478 -0.9662  0.7734 -0.1835
    1SOL    HW3 8319   2.688   1.137   3.350 -0.3146  0.0471 -0.0819
    1SOL    MW4 8320   2.683   1.147   3.437 -0.3104  0.0105 -0.0775
    1SOL     OW 8321   2.925   1.269   3.531 -0.2093 -0.0576  0.0646
    1SOL    HW2 8322   2.925   1.282   3.626 -0.1324 -0.7013  0.1568
    1SOL    HW3 8323   3.009   1.227   3.512 -0.1712  0.1816 -0.3067
    1SOL    MW4 8324   2.936   1.265   3.541 -0.1943 -0.1110  0.0279
    1SOL     OW 8325   2.963   1.532   3.461 -0.2618  0.1165  0.3614
    1SOL    HW2 8326   2.877   1.568   3.483 -0.3911  0.0233  0.0051
    1SOL    HW3 8327   2.956   1.439   3.482  0.0024  0.2551  1.0736
    1SOL    MW4 8328   2.951   1.525   3.467 -0.2439  0.1224  0.4082
    1SOL     OW 8329   2.707   1.657   3.504  0.2610  0.2775 -0.2307
    1SOL    HW2 8330   2.676   1.745   3.485  0.1408  0.1531 -0.6022
    1SOL    HW3 8331   2.634   1.600   3.483  0.0416  0.1591  0.8159
    1SOL    MW4 8332   2.694   1.661   3.499  0.2160  0.2456 -0.1414
    1SOL     OW 8333   2.635   1.908   3.410  0.6180 -0.3881 -0.1161
    1SOL    HW2 8334   2.554   1.956   3.425  1.4148  1.1377 -0.6077
    1SOL    HW3 8335   2.630   1.880   3.319 -0.1435 -1.8661  0.3491
    1SOL    MW4 8336   2.623   1.910   3.400  0.6225 -0.3818 -0.1194
    1SOL     OW 8337   2.872   2.017   3.497 -0.8173  0.1049  0.3372
    1SOL    HW2 8338   2.869   2.005   3.592  0.1484 -2.8231  0.0498
    1SOL    HW3 8339   2.792   1.975   3.466 -1.0372  0.8997 -0.1760
    1SOL    MW4 8340   2.861   2.010   3.506 -0.7191 -0.1762  0.2315
    1SOL     OW 8341   2.902   2.276   3.433  0.1451  0.0110  0.6068
    1SOL    HW2 8342   2.893   2.183   3.451  0.7886 -0.1767 -0.0138
    1SOL    HW3 8343   2.914   2.281   3.338 -0.1263  0.7445  0.6040
    1SOL    MW4 8344   2.902   2.265   3.423  0.1943  0.0830  0.5248
    1SOL     OW 8345   2.653   2.417   3.548 -0.0475 -0.2341 -0.5679
    1SOL    HW2 8346   2.647   2.395   3.641  0.2009 -0.6117 -0.6455
    1SOL    HW3 8347   2.736   2.380   3.519  0.1376  0.3617 -0.8123
    1SOL    MW4 8348   2.663   2.409   3.557  0.0098 -0.2053 -0.6104
    1SOL     OW 8349   2.701   2.681   3.458  0.0794 -0.2630  0.1535
    1SOL    HW2 8350   2.676   2.593   3.484  0.9542 -1.0107 -1.4305
    1SOL    HW3 8351   2.625   2.735   3.479 -0.4783 -1.4015  1.0967
    1SOL    MW4 8352   2.688   2.676   3.464  0.1214 -0.5119  0.0691
    1SOL     OW 8353   2.925   2.809   3.529  0.2074 -0.1460 -0.5326
    1SOL    HW2 8354   2.903   2.813   3.622 -0.1188 -0.7508 -0.5853
    1SOL    HW3 8355   2.854   2.760   3.489  0.7920 -0.6503 -0.9671
    1SOL    MW4 8356   2.913   2.803   3.536  0.2415 -0.2921 -0.5968
    1SOL     OW 8357   2.939   3.081   3.463  0.4376  0.3428  0.1187
    1SOL    HW2 8358   2.921   2.992   3.492  0.8622  0.2364  0.0477
    1SOL    HW3 8359   2.947   3.075   3.368 -1.5080  0.7809 -0.1037
    1SOL    MW4 8360   2.938   3.069   3.454  0.2367  0.3865  0.0801
    1SOL     OW 8361   2.684   3.191   3.532 -0.2630 -0.1300  0.3986
    1SOL    HW2 8362   2.689   3.210   3.626  1.8013  1.2011  0.0544
    1SOL    HW3 8363   2.771   3.157   3.510 -0.6916 -0.2935 -1.0623
    1SOL    MW4 8364   2.696   3.189   3.542 -0.0472  0.0236  0.1605
    1SOL     OW 8365   2.712   3.447   3.469 -0.5181  0.1731  0.2674
    1SOL    HW2 8366   2.688   3.355   3.477 -0.8722  0.2552  0.1703
    1SOL    HW3 8367   2.636   3.495   3.503  0.3207  0.4059  1.8698
    1SOL    MW4 8368   2.699   3.441   3.474 -0.4542  0.2146  0.4661
    1SOL     OW 8369   2.957   3.578   3.578 -0.4226  0.3909  0.0603
    1SOL    HW2 8370   2.947   3.665   3.539  0.1742  0.7334  0.6612
    1SOL    HW3 8371   2.891   3.524   3.534  1.3811  0.3284 -2.6518
    1SOL    MW4 8372   2.947   3.582   3.567 -0.1059  0.4280 -0.2184
    1SOL     OW 8373   2.920   3.852   3.490  0.1620  0.4430  0.1793
    1SOL    HW2 8374   2.991   3.879   3.549  0.6445  0.6801 -0.5074
    1SOL    HW3 8375   2.844   3.903   3.520  0.6578  1.3267 -0.0425
    1SOL    MW4 8376   2.919   3.862   3.502  0.2911  0.5908  0.0591
    1SOL     OW 8377   2.674   4.015   3.573 -0.1483  0.2624  0.1551
    1SOL    HW2 8378   2.678   4.043   3.664  1.4656 -1.0723  0.5258
    1SOL    HW3 8379   2.684   4.095   3.522  0.6987  0.8163  1.1828
    1SOL    MW4 8380   2.676   4.029   3.578  0.1764  0.1597  0.3395
    1SOL     OW 8381   2.690   4.288   3.432  0.2998 -0.0021 -0.5299
    1SOL    HW2 8382   2.766   4.336   3.465  0.0543  0.1511 -0.1848
    1SOL    HW3 8383   2.616   4.323   3.481 -0.0233 -0.0065 -1.0104
    1SOL    MW4 8384   2.690   4.299   3.443  0.2246  0.0176 -0.5479
    1SOL     OW 8385   2.923   4.392   3.557  0.3942  0.8701  0.1728
    1SOL    HW2 8386   2.905   4.416   3.648 -0.0298 -0.8086  0.5504
    1SOL    HW3 8387   2.922   4.475   3.509 -0.2420  1.6723  1.5541
    1SOL    MW4 8388   2.921   4.406   3.562  0.2544  0.7539  0.4051
    1SOL     OW 8389   3.378   4.600   3.470  0.3763  0.7438 -0.0964
    1SOL    HW2 8390   3.311   4.662   3.497  1.3234  2.1210 -0.8473
    1SOL    HW3 8391   3.357   4.581   3.378 -0.7825 -1.2272  0.5337
    1SOL    MW4 8392   3.366   4.606   3.461  0.3481  0.6652 -0.1123
    1SOL     OW 8393   3.182   0.097   3.525  0.4671  0.1434  0.2670
    1SOL    HW2 8394   3.170   0.191   3.508  0.0172 -0.0518 -0.4855
    1SOL    HW3 8395   3.100   0.057   3.499  0.0745 -0.2747  2.0760
    1SOL    MW4 8396   3.170   0.104   3.520  0.3557  0.0625  0.4065
    1SOL     OW 8397   3.150   0.357   3.454 -0.3775  0.3424  0.8360
    1SOL    HW2 8398   3.064   0.398   3.465  0.1420  1.8606 -0.5176
    1SOL    HW3 8399   3.151   0.328   3.363  0.1421 -0.6598  1.1504
    1SOL    MW4 8400   3.138   0.359   3.443 -0.2403  0.4105  0.6988
    1SOL     OW 8401   3.364   0.491   3.536 -0.0860 -0.5193 -0.0165
    1SOL    HW2 8402   3.379   0.479   3.630  1.3988 -0.8948 -0.2890
    1SOL    HW3 8403   3.281   0.447   3.519 -1.3465  1.1779  1.4655
    1SOL    MW4 8404   3.355   0.484   3.546 -0.0563 -0.3449  0.1431
    1SOL     OW 8405   3.327   0.757   3.448 -0.0217 -0.6984  0.0031
    1SOL    HW2 8406   3.409   0.803   3.464 -0.5611 -0.0624  1.0785
    1SOL    HW3 8407   3.333   0.678   3.502  0.1151 -0.9173 -0.3384
    1SOL    MW4 8408   3.338   0.752   3.457 -0.0751 -0.6434  0.0999
    1SOL     OW 8409   3.094   0.845   3.543  0.0576  0.0508  0.0570
    1SOL    HW2 8410   3.095   0.939   3.524 -0.4339 -0.3167 -1.8921
    1SOL    HW3 8411   3.176   0.812   3.507 -0.2512 -0.4332 -0.2147
    1SOL    MW4 8412   3.105   0.853   3.536 -0.0479 -0.0615 -0.2360
    1SOL     OW 8413   3.139   1.116   3.464 -0.1966 -0.2410 -0.0295
    1SOL    HW2 8414   3.216   1.163   3.497  0.0012 -1.9896  2.1396
    1SOL    HW3 8415   3.151   1.113   3.369  1.9395  0.3475  0.1981
    1SOL    MW4 8416   3.151   1.122   3.456  0.1113 -0.3942  0.2868
    1SOL     OW 8417   3.347   1.273   3.561  0.1544  0.3125 -1.0715
    1SOL    HW2 8418   3.422   1.223   3.529  1.1575  1.1739 -0.1031
    1SOL    HW3 8419   3.365   1.363   3.536  0.8420  0.9704  1.6188
    1SOL    MW4 8420   3.359   1.278   3.554  0.3779  0.5130 -0.5887
    1SOL     OW 8421   3.395   1.520   3.469 -0.5259  0.2196 -0.3258
    1SOL    HW2 8422   3.468   1.573   3.504  0.5191 -0.7240 -1.0473
    1SOL    HW3 8423   3.320   1.579   3.472  0.3506  1.3459  0.0689
    1SOL    MW4 8424   3.395   1.535   3.474 -0.2720  0.2438 -0.3688
    1SOL     OW 8425   3.196   1.682   3.539 -0.1958  0.1324 -0.2795
    1SOL    HW2 8426   3.185   1.765   3.493 -1.7906  0.3700  0.5065
    1SOL    HW3 8427   3.124   1.627   3.508 -0.5709 -0.1272  0.9947
    1SOL    MW4 8428   3.185   1.686   3.529 -0.4554  0.1293 -0.0076
    1SOL     OW 8429   3.168   1.947   3.461  0.1068  0.1812  0.5465
    1SOL    HW2 8430   3.077   1.968   3.478 -0.0372  0.0360 -0.0246
    1SOL    HW3 8431   3.177   1.954   3.366  0.6992  0.2338  0.6009
    1SOL    MW4 8432   3.157   1.951   3.450  0.1659  0.1692  0.4783
    1SOL     OW 8433   3.382   2.068   3.620  0.1781  0.4282 -0.0788
    1SOL    HW2 8434   3.378   2.149   3.568 -1.4451  0.2159 -0.3169
    1SOL    HW3 8435   3.313   2.013   3.583 -0.0161 -0.3055  1.3460
    1SOL    MW4 8436   3.372   2.072   3.608 -0.0620  0.3033  0.0777
    1SOL     OW 8437   3.380   2.315   3.473  0.3637 -0.2436  0.4833
    1SOL    HW2 8438   3.446   2.363   3.523  0.2633  0.0383  0.3464
    1SOL    HW3 8439   3.297   2.353   3.500  0.1328 -1.6679  1.8310
    1SOL    MW4 8440   3.378   2.326   3.483  0.3202 -0.3946  0.6430
    1SOL     OW 8441   3.111   2.420   3.533 -0.1930  0.0095  0.2771
    1SOL    HW2 8442   3.109   2.504   3.487  0.9293 -0.8892 -1.4902
    1SOL    HW3 8443   3.039   2.370   3.495  0.3220 -0.4949 -0.0563
    1SOL    MW4 8444   3.102   2.424   3.522  0.0231 -0.1752  0.0000
    1SOL     OW 8445   3.147   2.682   3.441  0.2697  0.0604 -0.0879
    1SOL    HW2 8446   3.224   2.696   3.495  1.1514  0.9444 -1.5569
    1SOL    HW3 8447   3.080   2.737   3.481  0.4406 -0.5361  1.0529
    1SOL    MW4 8448   3.148   2.691   3.453  0.4084  0.0982 -0.1314
    1SOL     OW 8449   3.359   2.775   3.591 -0.2438  0.2037  0.4382
    1SOL    HW2 8450   3.440   2.756   3.543 -0.4242 -1.3458  0.7113
    1SOL    HW3 8451   3.350   2.870   3.587  1.0069  0.2912 -0.5450
    1SOL    MW4 8452   3.368   2.785   3.584 -0.1028  0.0110  0.3445
    1SOL     OW 8453   3.370   3.043   3.506 -0.3867 -0.0363  0.1663
    1SOL    HW2 8454   3.448   3.083   3.545 -0.7429  0.0271  0.8193
    1SOL    HW3 8455   3.297   3.086   3.550 -0.7757 -1.0974  0.5659
    1SOL    MW4 8456   3.371   3.054   3.517 -0.4849 -0.1678  0.3049
    1SOL     OW 8457   3.157   3.175   3.613 -0.0844 -0.5996 -0.5241
    1SOL    HW2 8458   3.164   3.268   3.589 -1.5379  0.1680  1.8482
    1SOL    HW3 8459   3.082   3.143   3.564  1.6599 -1.1125 -2.9629
    1SOL    MW4 8460   3.148   3.183   3.603 -0.0463 -0.5660 -0.5329
    1SOL     OW 8461   3.164   3.425   3.503  0.5473  0.1536  0.4524
    1SOL    HW2 8462   3.092   3.487   3.515  0.0943 -0.4791  1.0337
    1SOL    HW3 8463   3.181   3.425   3.409 -0.3156  0.1821  0.2939
    1SOL    MW4 8464   3.157   3.434   3.492  0.3738  0.0739  0.5081
    1SOL     OW 8465   3.366   3.590   3.594  0.1347 -0.0896 -0.1140
    1SOL    HW2 8466   3.347   3.668   3.542  0.2045  1.0653  1.5505
    1SOL    HW3 8467   3.298   3.528   3.569  0.5652  0.2108 -2.0544
    1SOL    MW4 8468   3.354   3.592   3.584  0.2007  0.1023 -0.1502
    1SOL     OW 8469   3.330   3.826   3.470  0.2798 -0.2886 -0.0316
    1SOL    HW2 8470   3.419   3.856   3.490  0.1898  0.3381 -0.5325
    1SOL    HW3 8471   3.274   3.875   3.531  0.2333 -0.3170 -0.0513
    1SOL    MW4 8472   3.334   3.837   3.481  0.2618 -0.2096 -0.1004
    1SOL     OW 8473   3.140   3.965   3.618 -0.1495  0.1452  0.1980
    1SOL    HW2 8474   3.140   3.994   3.709  0.4828 -0.0515  0.2612
    1SOL    HW3 8475   3.132   4.046   3.567 -1.8289  0.1594  0.4508
    1SOL    MW4 8476   3.139   3.980   3.623 -0.2875  0.1214  0.2396
    1SOL     OW 8477   3.124   4.215   3.486  0.2921  0.3510  0.1064
    1SOL    HW2 8478   3.202   4.260   3.518  0.4290  0.7126 -0.7084
    1SOL    HW3 8479   3.051   4.272   3.510  0.3118  0.2007  0.5274
    1SOL    MW4 8480   3.124   4.228   3.493  0.3128  0.3786  0.0544
    1SOL     OW 8481   3.356   4.337   3.582  0.2724  0.3703 -0.2512
    1SOL    HW2 8482   3.368   4.352   3.675  1.4656 -0.9032 -0.1874
    1SOL    HW3 8483   3.358   4.425   3.543 -2.0012  1.0547  1.0794
    1SOL    MW4 8484   3.358   4.351   3.589  0.1302  0.2933 -0.0672
    1SOL     OW 8485   3.826   4.606   3.488 -0.4134 -0.2508  0.0842
    1SOL    HW2 8486   3.752   4.656   3.523 -0.6408 -0.9004  0.5536
    1SOL    HW3 8487   3.821   4.619   3.394 -1.6311 -0.9425  0.0360
    1SOL    MW4 8488   3.815   4.614   3.481 -0.6042 -0.4277  0.1400
    1SOL     OW 8489   3.597   0.108   3.519  1.0667  0.0685  0.1637
    1SOL    HW2 8490   3.575   0.193   3.482 -0.3716 -0.7100 -0.8452
    1SOL    HW3 8491   3.516   0.058   3.513  1.2389 -0.5907  2.9906
    1SOL    MW4 8492   3.583   0.112   3.513  0.8996 -0.1212  0.4034
    1SOL     OW 8493   3.568   0.372   3.427 -0.2700  0.0410  0.5747
    1SOL    HW2 8494   3.645   0.407   3.472  0.4429 -0.4431 -0.2629
    1SOL    HW3 8495   3.495   0.423   3.462  0.2928 -0.1833  2.1232
    1SOL    MW4 8496   3.569   0.383   3.438 -0.1016 -0.0525  0.6685
    1SOL     OW 8497   3.791   0.475   3.575 -0.0286  0.1896  0.1222
    1SOL    HW2 8498   3.782   0.465   3.670 -1.5514 -1.9563 -0.2235
    1SOL    HW3 8499   3.874   0.432   3.554 -0.0590  0.0020  0.3836
    1SOL    MW4 8500   3.801   0.468   3.585 -0.2337 -0.1183  0.1109
    1SOL     OW 8501   3.823   0.725   3.413  0.7644 -0.1830 -0.0895
    1SOL    HW2 8502   3.889   0.769   3.467 -0.0245  0.6381  0.2172
    1SOL    HW3 8503   3.809   0.641   3.456  0.4375  0.2991  0.7722
    1SOL    MW4 8504   3.830   0.720   3.426  0.6170 -0.0111  0.0646
    1SOL     OW 8505   3.590   0.860   3.524 -0.5146  0.4245  0.1368
    1SOL    HW2 8506   3.588   0.855   3.619 -1.7356  1.7811  0.1852
    1SOL    HW3 8507   3.669   0.811   3.499 -1.5305 -2.0700  1.6798
    1SOL    MW4 8508   3.600   0.853   3.533 -0.8097  0.2744  0.3467
    1SOL     OW 8509   3.595   1.135   3.474 -0.0131  0.4433  0.1020
    1SOL    HW2 8510   3.602   1.045   3.507  0.2578  0.5812  0.4273
    1SOL    HW3 8511   3.596   1.127   3.379 -0.1776  0.0869  0.1317
    1SOL    MW4 8512   3.596   1.122   3.466  0.0010  0.4145  0.1490
    1SOL     OW 8513   3.813   1.245   3.585  0.1995 -0.1344 -0.2724
    1SOL    HW2 8514   3.794   1.263   3.677 -0.1458  1.1062 -0.5795
    1SOL    HW3 8515   3.730   1.213   3.549  0.0827  0.2858 -0.3767
    1SOL    MW4 8516   3.800   1.243   3.592  0.1385  0.0846 -0.3266
    1SOL     OW 8517   3.790   1.499   3.445  0.6263 -0.1249 -0.2681
    1SOL    HW2 8518   3.860   1.546   3.491  0.6580  0.0204 -0.4658
    1SOL    HW3 8519   3.798   1.409   3.475  1.0311 -0.1505 -0.4538
    1SOL    MW4 8520   3.800   1.494   3.455  0.6840 -0.1092 -0.3188
    1SOL     OW 8521   3.616   1.651   3.583 -0.0034  0.0376 -0.2158
    1SOL    HW2 8522   3.628   1.741   3.552  0.6530  0.0586  0.0934
    1SOL    HW3 8523   3.667   1.598   3.522  2.0623  0.1675  1.3485
    1SOL    MW4 8524   3.624   1.656   3.571  0.3557  0.0576  0.0315
    1SOL     OW 8525   3.620   1.927   3.495  0.7201 -0.2067 -0.1179
    1SOL    HW2 8526   3.696   1.969   3.535  0.8040 -0.2466 -0.2376
    1SOL    HW3 8527   3.545   1.970   3.536  0.8055 -0.3239  0.1692
    1SOL    MW4 8528   3.620   1.938   3.506  0.7424 -0.2276 -0.0958
    1SOL     OW 8529   3.809   2.067   3.626 -0.2754  0.0602  0.4824
    1SOL    HW2 8530   3.809   2.066   3.722  0.6721  0.8807  0.5091
    1SOL    HW3 8531   3.898   2.039   3.602 -0.0380  1.2607 -0.1115
    1SOL    MW4 8532   3.821   2.063   3.635 -0.1192  0.3269  0.4077
    1SOL     OW 8533   3.800   2.296   3.450  0.4153  0.2501  0.7961
    1SOL    HW2 8534   3.868   2.350   3.489  0.1876 -0.6728  2.5449
    1SOL    HW3 8535   3.790   2.223   3.511 -0.5998 -0.7689 -0.5612
    1SOL    MW4 8536   3.807   2.293   3.463  0.2513 -0.0060  0.8478
    1SOL     OW 8537   3.591   2.447   3.576 -0.0919 -0.2316 -0.2136
    1SOL    HW2 8538   3.620   2.536   3.556 -0.8351  0.1816  0.5293
    1SOL    HW3 8539   3.668   2.392   3.558  1.3109  0.9029  2.1562
    1SOL    MW4 8540   3.605   2.451   3.571 -0.0048 -0.0277  0.1972
    1SOL     OW 8541   3.605   2.712   3.468  0.5081 -0.3018  0.2671
    1SOL    HW2 8542   3.686   2.760   3.489 -0.1326  1.0971 -0.3892
    1SOL    HW3 8543   3.605   2.706   3.373 -0.9764  1.1877  0.1544
    1SOL    MW4 8544   3.616   2.717   3.458  0.2275  0.0796  0.1657
    1SOL     OW 8545   3.857   2.810   3.586  0.2305  0.3032  0.0537
    1SOL    HW2 8546   3.856   2.814   3.681  0.7226  0.2122  0.0655
    1SOL    HW3 8547   3.857   2.902   3.558 -1.1962  0.3266  0.1174
    1SOL    MW4 8548   3.857   2.823   3.595  0.1073  0.2940  0.0637
    1SOL     OW 8549   3.853   3.070   3.516  0.2792  0.1861  0.4575
    1SOL    HW2 8550   3.937   3.097   3.555  1.0550 -2.4048  0.6553
    1SOL    HW3 8551   3.862   3.092   3.423  1.3702 -0.4900  0.3956
    1SOL    MW4 8552   3.866   3.077   3.509  0.5257 -0.2449  0.4754
    1SOL     OW 8553   3.597   3.175   3.608 -0.2534 -0.1759  0.1781
    1SOL    HW2 8554   3.588   3.264   3.574 -0.9942 -0.6074 -0.7659
    1SOL    HW3 8555   3.678   3.142   3.569 -1.0282 -0.6200 -1.0830
    1SOL    MW4 8556   3.606   3.182   3.598 -0.4530 -0.2913 -0.1130
    1SOL     OW 8557   3.573   3.416   3.502 -0.5924  0.4249 -0.3050
    1SOL    HW2 8558   3.523   3.496   3.519  0.1748  0.8810 -0.1843
    1SOL    HW3 8559   3.591   3.418   3.408 -1.0148  0.1356 -0.3923
    1SOL    MW4 8560   3.569   3.427   3.492 -0.5469  0.4468 -0.3006
    1SOL     OW 8561   3.823   3.517   3.563  0.1243  0.0338  0.2363
    1SOL    HW2 8562   3.843   3.528   3.656 -0.1526 -0.7577  0.3936
    1SOL    HW3 8563   3.739   3.470   3.562  0.0441  0.1822 -0.4165
    1SOL    MW4 8564   3.814   3.513   3.575  0.0775 -0.0513  0.1709
    1SOL     OW 8565   3.802   3.806   3.470  0.1902 -0.3209  0.0059
    1SOL    HW2 8566   3.717   3.841   3.495  0.2728 -0.7991  0.9751
    1SOL    HW3 8567   3.803   3.716   3.504  0.5922 -0.7457 -1.0846
    1SOL    MW4 8568   3.791   3.798   3.478  0.2542 -0.4401 -0.0103
    1SOL     OW 8569   3.576   3.949   3.544 -0.4314 -0.1504  0.0545
    1SOL    HW2 8570   3.550   3.963   3.635  0.9067  0.2463  0.3987
    1SOL    HW3 8571   3.585   4.037   3.508 -1.4175 -0.3145 -0.5996
    1SOL    MW4 8572   3.574   3.963   3.551 -0.3850 -0.1199  0.0136
    1SOL     OW 8573   3.599   4.222   3.475 -0.1373 -0.0941 -0.5123
    1SOL    HW2 8574   3.528   4.265   3.522 -0.7391  0.4773 -1.9109
    1SOL    HW3 8575   3.588   4.251   3.384  1.3873 -0.6588 -0.8830
    1SOL    MW4 8576   3.588   4.232   3.469 -0.0157 -0.0935 -0.7460
    1SOL     OW 8577   3.806   4.353   3.594  0.0785 -0.2393  0.3141
    1SOL    HW2 8578   3.745   4.293   3.550  1.2677 -2.0820  1.1210
    1SOL    HW3 8579   3.800   4.434   3.544  0.0614 -1.7054 -2.1302
    1SOL    MW4 8580   3.797   4.356   3.582  0.2329 -0.6757  0.0978
    1SOL     OW 8581   4.275   4.644   3.455  0.3704  0.5614 -0.0984
    1SOL    HW2 8582   4.275   4.557   3.496  1.1749 -0.1966 -1.6259
    1SOL    HW3 8583   4.347   4.690   3.497 -0.6383  0.8397  1.3783
    1SOL    MW4 8584   4.284   4.638   3.466  0.3438  0.4978 -0.1047
    1SOL     OW 8585   4.046   0.095   3.522 -0.2510 -0.1745  0.0424
    1SOL    HW2 8586   4.120   0.047   3.484  0.7827 -0.0950  1.8676
    1SOL    HW3 8587   3.972   0.035   3.514  0.1539 -0.5274 -1.2081
    1SOL    MW4 8588   4.046   0.081   3.516 -0.0610 -0.2106  0.1183
    1SOL     OW 8589   4.035   0.355   3.478  0.3488 -0.1436  0.0450
    1SOL    HW2 8590   4.032   0.261   3.497  0.0247 -0.0737  0.3505
    1SOL    HW3 8591   4.025   0.361   3.383  1.1473 -0.4570 -0.0630
    1SOL    MW4 8592   4.034   0.344   3.468  0.4110 -0.1757  0.0710
    1SOL     OW 8593   4.269   0.496   3.575 -0.2076  0.7889  0.4129
    1SOL    HW2 8594   4.253   0.580   3.533  1.8179  0.0225 -1.9817
    1SOL    HW3 8595   4.200   0.439   3.543  1.9565 -0.1051 -2.9539
    1SOL    MW4 8596   4.258   0.500   3.565  0.3452  0.5698 -0.3474
    1SOL     OW 8597   4.250   0.730   3.425  0.0277 -0.1082 -0.3123
    1SOL    HW2 8598   4.331   0.771   3.455  0.0993 -0.5444  0.1048
    1SOL    HW3 8599   4.256   0.731   3.330  0.2300  0.4396 -0.2988
    1SOL    MW4 8600   4.262   0.736   3.417  0.0639 -0.0936 -0.2553
    1SOL     OW 8601   4.029   0.836   3.550  0.0856 -0.4918  0.5249
    1SOL    HW2 8602   4.019   0.926   3.518 -0.0995 -0.5302  0.4703
    1SOL    HW3 8603   4.107   0.803   3.506  0.2116 -0.3223  0.6235
    1SOL    MW4 8604   4.038   0.843   3.540  0.0777 -0.4744  0.5307
    1SOL     OW 8605   4.023   1.108   3.459 -0.1381  0.0714  0.0949
    1SOL    HW2 8606   4.102   1.147   3.495 -0.5699  1.3025 -0.2714
    1SOL    HW3 8607   3.952   1.163   3.493 -0.6542  0.4359 -1.5420
    1SOL    MW4 8608   4.024   1.120   3.468 -0.2627  0.2819 -0.1695
    1SOL     OW 8609   4.253   1.271   3.556  0.1168 -0.1191  0.0382
    1SOL    HW2 8610   4.251   1.362   3.527  0.7846 -0.4605 -1.0985
    1SOL    HW3 8611   4.337   1.238   3.526  0.6022 -0.6442  1.9091
    1SOL    MW4 8612   4.264   1.279   3.548  0.2689 -0.2335  0.1352
    1SOL     OW 8613   4.235   1.556   3.451 -0.1781  0.0311  0.0547
    1SOL    HW2 8614   4.145   1.588   3.461 -0.0082  0.6973 -0.5420
    1SOL    HW3 8615   4.261   1.584   3.363 -0.4422 -2.7596 -0.9824
    1SOL    MW4 8616   4.226   1.564   3.441 -0.1903 -0.2491 -0.1607
    1SOL     OW 8617   3.979   1.677   3.539 -0.5026  0.1702 -0.1197
    1SOL    HW2 8618   3.996   1.678   3.634 -3.0980  1.2263  0.3790
    1SOL    HW3 8619   3.993   1.768   3.512  0.6130 -0.2087 -0.8406
    1SOL    MW4 8620   3.983   1.689   3.548 -0.6976  0.2594 -0.1493
    1SOL     OW 8621   4.060   1.965   3.522  0.2001 -0.2032  0.0773
    1SOL    HW2 8622   4.144   2.005   3.543  0.6259 -0.8684 -0.3657
    1SOL    HW3 8623   4.054   1.968   3.427  0.6027 -1.9354 -0.0113
    1SOL    MW4 8624   4.070   1.971   3.512  0.3090 -0.5195  0.0072
    1SOL     OW 8625   4.320   2.057   3.561  0.0550 -0.1079 -0.2270
    1SOL    HW2 8626   4.312   2.143   3.518 -1.1222  0.3345  0.8400
    1SOL    HW3 8627   4.397   2.018   3.521  0.7008  1.5183 -0.6358
    1SOL    MW4 8628   4.329   2.063   3.550 -0.0153  0.1650 -0.1402
    1SOL     OW 8629   4.251   2.330   3.485  0.4318  0.1551  0.3285
    1SOL    HW2 8630   4.163   2.365   3.498 -0.2041 -0.9137 -0.9270
    1SOL    HW3 8631   4.259   2.321   3.390  1.9868  0.4516  0.4189
    1SOL    MW4 8632   4.241   2.333   3.474  0.5536  0.0532  0.1748
    1SOL     OW 8633   3.996   2.449   3.553  0.1374  0.0974 -0.1175
    1SOL    HW2 8634   3.992   2.449   3.648 -2.2579 -0.4242 -0.1927
    1SOL    HW3 8635   4.024   2.538   3.530  1.6997 -0.0627  1.0742
    1SOL    MW4 8636   3.999   2.461   3.562  0.0274  0.0074  0.0298
    1SOL     OW 8637   4.068   2.696   3.451 -0.1427  0.3602 -0.4315
    1SOL    HW2 8638   4.146   2.734   3.490 -0.6407 -0.3154  1.2753
    1SOL    HW3 8639   3.995   2.731   3.503 -1.0457  1.6014 -2.4925
    1SOL    MW4 8640   4.069   2.706   3.463 -0.3276  0.4346 -0.4783
    1SOL     OW 8641   4.275   2.816   3.595  0.1061  0.1624  0.2238
    1SOL    HW2 8642   4.282   2.819   3.690  0.8039 -1.3284  0.2375
    1SOL    HW3 8643   4.356   2.774   3.566 -0.5775 -0.3865 -0.9460
    1SOL    MW4 8644   4.287   2.811   3.604  0.1078 -0.1068  0.0715
    1SOL     OW 8645   4.311   3.069   3.491  0.5961 -0.2490  0.2662
    1SOL    HW2 8646   4.306   2.979   3.523 -1.1635  0.2135  1.3702
    1SOL    HW3 8647   4.300   3.060   3.396 -0.5643 -1.1423  0.4610
    1SOL    MW4 8648   4.309   3.056   3.483  0.2108 -0.3061  0.4375
    1SOL     OW 8649   4.080   3.181   3.600  0.4123  0.3356  0.1791
    1SOL    HW2 8650   4.072   3.269   3.562 -0.2255  0.2775  0.1775
    1SOL    HW3 8651   4.169   3.154   3.577  0.5955  0.9580  0.1308
    1SOL    MW4 8652   4.090   3.189   3.592  0.3519  0.4098  0.1726
    1SOL     OW 8653   4.054   3.415   3.450  0.0065 -0.0360  0.1291
    1SOL    HW2 8654   4.114   3.487   3.471 -1.2399  1.6182 -1.7220
    1SOL    HW3 8655   3.967   3.449   3.472 -0.4276 -1.7927  1.2284
    1SOL    MW4 8656   4.050   3.429   3.456 -0.2151 -0.0496  0.0298
    1SOL     OW 8657   4.220   3.597   3.553  0.0461 -0.3830 -0.0347
    1SOL    HW2 8658   4.234   3.610   3.646 -2.4411  0.7397  0.2210
    1SOL    HW3 8659   4.236   3.683   3.513  1.3399 -0.9124 -0.6847
    1SOL    MW4 8660   4.224   3.610   3.560 -0.1116 -0.3049 -0.0868
    1SOL     OW 8661   4.306   3.834   3.454 -0.2356 -0.6488  0.1721
    1SOL    HW2 8662   4.382   3.885   3.482 -0.3303 -0.2175 -0.3482
    1SOL    HW3 8663   4.323   3.813   3.363  0.2427 -2.3709  0.6336
    1SOL    MW4 8664   4.318   3.838   3.446 -0.1850 -0.8190  0.1645
    1SOL     OW 8665   4.051   3.954   3.517  0.2035  0.1167  0.1726
    1SOL    HW2 8666   4.131   3.906   3.495 -0.1906 -0.8199  0.7425
    1SOL    HW3 8667   3.980   3.895   3.491 -0.2938  0.6623  0.2844
    1SOL    MW4 8668   4.053   3.940   3.511  0.0858  0.0651  0.2625
    1SOL     OW 8669   4.045   4.223   3.482 -0.3512 -0.0226  0.3787
    1SOL    HW2 8670   4.027   4.133   3.510 -2.0687 -0.2493 -1.3673
    1SOL    HW3 8671   3.978   4.276   3.524 -0.3911  0.2077  0.0245
    1SOL    MW4 8672   4.034   4.218   3.491 -0.5827 -0.0224  0.1018
    1SOL     OW 8673   4.268   4.389   3.568  0.1232 -0.6081 -0.5293
    1SOL    HW2 8674   4.270   4.402   3.663 -0.0435  1.1809 -0.7539
    1SOL    HW3 8675   4.193   4.332   3.554  0.3855 -1.2089  0.4499
    1SOL    MW4 8676   4.258   4.384   3.579  0.1359 -0.4511 -0.4296
    1SOL     OW 8677   0.237   4.613   3.969  0.9218  0.5301 -0.2871
    1SOL    HW2 8678   0.254   4.618   4.063  1.2138 -0.7450 -0.2643
    1SOL    HW3 8679   0.162   4.670   3.955 -0.5562 -1.0130  1.0849
    1SOL    MW4 8680   0.229   4.621   3.980  0.7653  0.1583 -0.1032
    1SOL     OW 8681   0.014   0.087   3.866  0.1261 -0.3122  0.2917
    1SOL    HW2 8682  -0.004   0.178   3.890  0.5269 -0.0378 -0.4208
    1SOL    HW3 8683  -0.005   0.083   3.772 -0.3183 -1.0759  0.4087
    1SOL    MW4 8684   0.009   0.098   3.856  0.1206 -0.3768  0.2131
    1SOL     OW 8685   4.479   0.337   3.959 -0.0160  0.1399  0.4320
    1SOL    HW2 8686   4.414   0.404   3.939 -0.5065 -0.7124 -0.8261
    1SOL    HW3 8687   4.561   0.373   3.925  0.0231  0.7868  1.1720
    1SOL    MW4 8688   4.481   0.351   3.952 -0.0753  0.1127  0.3636
    1SOL     OW 8689   0.224   0.487   3.855 -0.3819 -0.5263  0.2430
    1SOL    HW2 8690   0.193   0.572   3.884  0.4086 -0.3932  0.7367
    1SOL    HW3 8691   0.215   0.488   3.760  2.1325  1.1674 -0.0378
    1SOL    MW4 8692   0.219   0.498   3.846  0.0541 -0.2852  0.2708
    1SOL     OW 8693   0.145   0.736   3.920  0.3532 -0.4611 -0.5548
    1SOL    HW2 8694   0.167   0.768   4.007 -0.9697 -1.5265  0.1846
    1SOL    HW3 8695   0.078   0.797   3.888 -0.5722 -1.2128 -0.0403
    1SOL    MW4 8696   0.139   0.748   3.927  0.0566 -0.7008 -0.3893
    1SOL     OW 8697   4.414   0.878   3.827  0.0557 -0.1438  0.4402
    1SOL    HW2 8698   4.330   0.852   3.864 -0.8298  0.1684 -1.3145
    1SOL    HW3 8699   4.430   0.966   3.861 -0.8269  0.2051 -0.0542
    1SOL    MW4 8700   4.405   0.886   3.836 -0.1774 -0.0566  0.1435
    1SOL     OW 8701   4.477   1.132   3.938 -0.1540 -0.0183  0.6617
    1SOL    HW2 8702   4.411   1.181   3.888  1.8033  1.5291 -0.4849
    1SOL    HW3 8703   4.561   1.167   3.907  1.2502 -2.7658  1.2347
    1SOL    MW4 8704   4.479   1.143   3.927  0.2899 -0.1767  0.5858
    1SOL     OW 8705   0.208   1.241   3.842  0.2983 -0.1453 -0.0554
    1SOL    HW2 8706   0.187   1.330   3.870  0.1997 -0.4437  0.8177
    1SOL    HW3 8707   0.223   1.249   3.748 -1.4166  0.4883 -0.2967
    1SOL    MW4 8708   0.207   1.254   3.833  0.0590 -0.1012  0.0279
    1SOL     OW 8709   0.173   1.523   3.869  0.5838  0.1882  0.0386
    1SOL    HW2 8710   0.166   1.529   3.965 -0.7356 -0.9232  0.0243
    1SOL    HW3 8711   0.100   1.577   3.837 -1.1322 -2.2135 -0.2662
    1SOL    MW4 8712   0.162   1.531   3.878  0.1833 -0.2753 -0.0031
    1SOL     OW 8713   4.430   1.658   3.794  0.3208 -0.3563 -0.4179
    1SOL    HW2 8714   4.429   1.744   3.837 -1.7547 -0.1859 -0.7917
    1SOL    HW3 8715   4.443   1.678   3.701  0.2883 -0.4734 -0.4472
    1SOL    MW4 8716   4.432   1.672   3.788  0.0429 -0.3494 -0.4714
    1SOL     OW 8717   0.002   1.935   3.887 -0.1053  0.0982 -0.0427
    1SOL    HW2 8718   0.014   1.925   3.982  0.3246  1.5056  0.0682
    1SOL    HW3 8719  -0.083   1.978   3.878  0.6512  1.6237 -0.1797
    1SOL    MW4 8720  -0.007   1.939   3.898  0.0512  0.4852 -0.0460
    1SOL     OW 8721   0.219   2.081   3.795 -0.1119 -0.1919 -0.1574
    1SOL    HW2 8722   0.224   2.163   3.844  1.8986 -0.9101  0.8939
    1SOL    HW3 8723   0.135   2.043   3.820 -0.7067  1.1527 -0.0492
    1SOL    MW4 8724   0.209   2.087   3.804  0.0749 -0.1092 -0.0043
    1SOL     OW 8725   0.249   2.314   3.940  0.1957 -0.0313  0.3702
    1SOL    HW2 8726   0.259   2.313   4.036  1.2387 -0.2250  0.2705
    1SOL    HW3 8727   0.173   2.370   3.924  0.5720  0.7599  1.2739
    1SOL    MW4 8728   0.240   2.321   3.951  0.3830  0.0477  0.4764
    1SOL     OW 8729   0.029   2.475   3.861 -0.4786  0.0258 -0.0003
    1SOL    HW2 8730  -0.050   2.437   3.900 -0.2209 -0.0370  0.4631
    1SOL    HW3 8731   0.026   2.568   3.885  0.3418 -0.2603  1.2943
    1SOL    MW4 8732   0.018   2.482   3.869 -0.3364 -0.0205  0.2317
    1SOL     OW 8733   4.487   2.713   3.999 -0.1009  0.2350  0.2643
    1SOL    HW2 8734   4.478   2.714   4.094  0.7469 -0.1248  0.3541
    1SOL    HW3 8735   4.577   2.741   3.983 -0.5428  1.2531 -0.4829
    1SOL    MW4 8736   4.498   2.717   4.009 -0.0472  0.3219  0.1779
    1SOL     OW 8737   0.251   2.770   3.925  0.4870  0.1403 -0.1863
    1SOL    HW2 8738   0.343   2.744   3.936  0.5623  0.2788 -0.4914
    1SOL    HW3 8739   0.237   2.769   3.831 -0.0096 -0.5133 -0.1016
    1SOL    MW4 8740   0.262   2.767   3.914  0.4314  0.0722 -0.2153
    1SOL     OW 8741   0.222   3.065   3.990  0.1133  0.2381  0.1495
    1SOL    HW2 8742   0.210   3.066   4.085 -0.4387 -1.9550  0.1262
    1SOL    HW3 8743   0.257   2.978   3.972  0.6184  0.7953 -1.6309
    1SOL    MW4 8744   0.225   3.054   4.000  0.1071  0.0222 -0.0882
    1SOL     OW 8745   4.490   3.203   3.929  0.0662 -0.0129 -0.3360
    1SOL    HW2 8746   4.572   3.158   3.950  0.5663  1.1868  0.3596
    1SOL    HW3 8747   4.492   3.216   3.835  0.3507 -0.6131 -0.4126
    1SOL    MW4 8748   4.501   3.199   3.920  0.1693  0.0663 -0.2546
    1SOL     OW 8749   4.481   3.476   3.987  0.2904  0.6295 -0.0464
    1SOL    HW2 8750   4.569   3.491   3.952  0.2803 -0.5397 -0.6049
    1SOL    HW3 8751   4.472   3.380   3.989 -0.5297  0.7272  1.1178
    1SOL    MW4 8752   4.492   3.465   3.983  0.1807  0.4880  0.0339
    1SOL     OW 8753   0.224   3.569   3.881  0.0991 -0.5922  0.2201
    1SOL    HW2 8754   0.310   3.531   3.901  0.8976  0.7383 -0.6206
    1SOL    HW3 8755   0.225   3.654   3.925 -0.4286 -0.1872 -0.5360
    1SOL    MW4 8756   0.236   3.575   3.889  0.1348 -0.3633  0.0098
    1SOL     OW 8757   0.230   3.841   3.937 -0.3188  0.4862  0.1150
    1SOL    HW2 8758   0.218   3.853   4.032 -0.5686 -0.7528  0.2502
    1SOL    HW3 8759   0.311   3.888   3.917 -1.6028  2.9305  0.4697
    1SOL    MW4 8760   0.239   3.849   3.947 -0.5211  0.6454  0.1798
    1SOL     OW 8761   4.476   3.991   3.872  0.5031 -0.1705 -0.4456
    1SOL    HW2 8762   4.400   3.944   3.906  0.9445  1.4627  3.0794
    1SOL    HW3 8763   4.551   3.938   3.899  0.8347  0.8915  0.7921
    1SOL    MW4 8764   4.476   3.978   3.880  0.6050  0.1853  0.1829
    1SOL     OW 8765   4.487   4.256   3.928  0.0199  0.2781 -0.1803
    1SOL    HW2 8766   4.572   4.291   3.904  0.0649 -0.5840 -1.3161
    1SOL    HW3 8767   4.492   4.163   3.906 -1.1236  0.1654  0.0018
    1SOL    MW4 8768   4.499   4.249   3.922 -0.1251  0.1502 -0.3064
    1SOL     OW 8769   0.225   4.369   3.828 -0.2407 -0.3854 -0.0033
    1SOL    HW2 8770   0.293   4.322   3.875 -0.5154 -0.7414  0.0391
    1SOL    HW3 8771   0.228   4.458   3.864  0.4946 -0.2800 -0.3119
    1SOL    MW4 8772   0.234   4.375   3.839 -0.1799 -0.4182 -0.0384
    1SOL     OW 8773   0.653   4.639   3.944  0.6985 -0.2062 -0.2860
    1SOL    HW2 8774   0.669   4.552   3.909  1.9054 -0.0754 -0.0783
    1SOL    HW3 8775   0.577   4.671   3.894  2.3946 -0.0076 -2.8371
    1SOL    MW4 8776   0.645   4.632   3.932  1.0815 -0.1626 -0.5953
    1SOL     OW 8777   0.432   0.096   3.841  0.1038 -0.1925  0.2617
    1SOL    HW2 8778   0.448   0.184   3.875 -0.6352  0.8320 -1.9859
    1SOL    HW3 8779   0.354   0.066   3.888 -0.3115  0.7920  0.2042
    1SOL    MW4 8780   0.424   0.104   3.852 -0.0485  0.0725 -0.0420
    1SOL     OW 8781   0.458   0.357   3.939  0.8091  0.1638  0.0921
    1SOL    HW2 8782   0.532   0.408   3.906 -0.3628 -0.1557 -3.2237
    1SOL    HW3 8783   0.383   0.416   3.932  0.0308 -0.8796 -0.5673
    1SOL    MW4 8784   0.458   0.371   3.934  0.5518 -0.0160 -0.4325
    1SOL     OW 8785   0.665   0.502   3.836  0.2712 -0.2258  0.0511
    1SOL    HW2 8786   0.746   0.470   3.874 -0.3685  0.5733  2.1848
    1SOL    HW3 8787   0.655   0.590   3.873 -0.6708  0.3627 -1.5631
    1SOL    MW4 8788   0.674   0.510   3.846  0.0625 -0.0427  0.1192
    1SOL     OW 8789   0.636   0.765   3.933  0.1688  0.4602 -0.6305
    1SOL    HW2 8790   0.690   0.829   3.888 -0.5183  1.2540 -0.3356
    1SOL    HW3 8791   0.546   0.787   3.908 -0.0999 -0.1874 -0.2712
    1SOL    MW4 8792   0.631   0.776   3.924  0.0427  0.4794 -0.5443
    1SOL     OW 8793   0.391   0.850   3.835  0.0789  0.3068  0.0595
    1SOL    HW2 8794   0.409   0.936   3.873 -1.7540  1.5999 -1.8379
    1SOL    HW3 8795   0.298   0.835   3.854 -0.1614 -0.2485 -1.5018
    1SOL    MW4 8796   0.381   0.859   3.842 -0.1946  0.4041 -0.3967
    1SOL     OW 8797   0.431   1.125   3.941  0.0521 -0.3605  0.0328
    1SOL    HW2 8798   0.500   1.166   3.888  0.0214 -2.3385 -1.6192
    1SOL    HW3 8799   0.351   1.171   3.915 -0.2279 -2.3667 -2.9642
    1SOL    MW4 8800   0.429   1.137   3.930  0.0112 -0.8863 -0.5805
    1SOL     OW 8801   0.595   1.273   3.790 -0.2149  0.2260  0.4818
    1SOL    HW2 8802   0.672   1.247   3.840 -0.5872  0.5563  1.2520
    1SOL    HW3 8803   0.629   1.303   3.706  0.3473 -1.2981  0.1340
    1SOL    MW4 8804   0.609   1.273   3.786 -0.1899  0.0685  0.5374
    1SOL     OW 8805   0.616   1.510   3.974 -0.4232 -0.2279  0.1400
    1SOL    HW2 8806   0.683   1.567   3.936 -0.3446  0.2175  0.9527
    1SOL    HW3 8807   0.606   1.440   3.909 -0.5527  0.7173 -0.8751
    1SOL    MW4 8808   0.624   1.508   3.960 -0.4299 -0.0446  0.1135
    1SOL     OW 8809   0.424   1.643   3.825 -0.0620  0.0231  0.4889
    1SOL    HW2 8810   0.489   1.603   3.883  0.9507  0.0680 -0.6108
    1SOL    HW3 8811   0.343   1.593   3.842  0.8413 -1.6006  0.1110
    1SOL    MW4 8812   0.422   1.631   3.835  0.1908 -0.1854  0.2940
    1SOL     OW 8813   0.436   1.932   3.918  0.0045  0.4155  0.0907
    1SOL    HW2 8814   0.431   1.842   3.885  1.2010  1.1029 -2.0789
    1SOL    HW3 8815   0.356   1.974   3.887  1.0611  1.0211 -1.9365
    1SOL    MW4 8816   0.425   1.926   3.910  0.3017  0.5862 -0.4632
    1SOL     OW 8817   0.662   2.062   3.800  0.4116  0.0133 -0.1455
    1SOL    HW2 8818   0.667   2.154   3.829  1.7088 -0.7559  2.1942
    1SOL    HW3 8819   0.583   2.029   3.842  0.2641 -0.1072 -0.5185
    1SOL    MW4 8820   0.652   2.070   3.810  0.5633 -0.1040  0.1140
    1SOL     OW 8821   0.701   2.303   3.912 -0.3803  0.0738 -0.0344
    1SOL    HW2 8822   0.783   2.345   3.885 -0.5144 -0.2362 -0.9351
    1SOL    HW3 8823   0.632   2.356   3.872 -0.5859 -0.3071 -0.1932
    1SOL    MW4 8824   0.703   2.315   3.903 -0.4251 -0.0169 -0.1740
    1SOL     OW 8825   0.468   2.436   3.828 -0.1939 -0.5632 -0.1483
    1SOL    HW2 8826   0.397   2.381   3.860 -0.0122  0.1724  1.5302
    1SOL    HW3 8827   0.444   2.456   3.737 -2.1455 -0.2528  0.4330
    1SOL    MW4 8828   0.456   2.431   3.820 -0.4274 -0.4251  0.1497
    1SOL     OW 8829   0.501   2.677   4.010  0.1044 -0.3328 -0.3840
    1SOL    HW2 8830   0.572   2.715   3.959  0.4201 -0.4795 -0.0594
    1SOL    HW3 8831   0.473   2.601   3.960  1.4240 -1.3633  0.3820
    1SOL    MW4 8832   0.507   2.672   3.997  0.3201 -0.4883 -0.2403
    1SOL     OW 8833   0.704   2.810   3.862  0.4682  0.2427 -0.1650
    1SOL    HW2 8834   0.788   2.768   3.881  1.0786  1.2284 -0.6408
    1SOL    HW3 8835   0.704   2.824   3.768  0.2081  1.1738 -0.0335
    1SOL    MW4 8836   0.715   2.806   3.852  0.5144  0.4957 -0.2108
    1SOL     OW 8837   0.679   3.070   3.968  0.1163 -0.4100 -0.0052
    1SOL    HW2 8838   0.660   3.051   4.060 -1.0419 -0.0173 -0.1520
    1SOL    HW3 8839   0.692   2.983   3.929 -1.8315 -0.7576  0.0315
    1SOL    MW4 8840   0.678   3.056   3.975 -0.2935 -0.4041 -0.0196
    1SOL     OW 8841   0.448   3.209   3.866  0.5920 -0.0454 -0.4973
    1SOL    HW2 8842   0.513   3.140   3.881 -1.4019 -1.7051  0.6144
    1SOL    HW3 8843   0.368   3.177   3.907 -1.6525  0.8797 -3.9374
    1SOL    MW4 8844   0.446   3.196   3.874  0.0328 -0.1426 -0.8044
    1SOL     OW 8845   0.460   3.459   3.977 -0.3524 -0.6929 -0.4550
    1SOL    HW2 8846   0.521   3.511   3.926 -0.8181 -0.4062 -0.7225
    1SOL    HW3 8847   0.470   3.370   3.943  0.5671 -0.8151  0.1197
    1SOL    MW4 8848   0.469   3.454   3.966 -0.2925 -0.6714 -0.4146
    1SOL     OW 8849   0.656   3.603   3.832 -0.2400  0.2580 -0.3432
    1SOL    HW2 8850   0.655   3.693   3.864  0.5446 -0.2293  1.1173
    1SOL    HW3 8851   0.675   3.611   3.739  0.5492  1.5881 -0.0860
    1SOL    MW4 8852   0.659   3.616   3.824 -0.0324  0.3693 -0.1163
    1SOL     OW 8853   0.686   3.853   3.940  0.0506 -0.3567 -1.2223
    1SOL    HW2 8854   0.677   3.869   4.034 -1.3872 -0.2976 -1.3638
    1SOL    HW3 8855   0.762   3.906   3.915 -0.3644  0.6886 -0.3442
    1SOL    MW4 8856   0.695   3.862   3.949 -0.1939 -0.2110 -1.1251
    1SOL     OW 8857   0.452   3.971   3.854 -0.4688  0.0616  0.8146
    1SOL    HW2 8858   0.534   3.925   3.870 -0.9822 -0.4994  1.8679
    1SOL    HW3 8859   0.453   3.989   3.760  1.1457  0.6164  0.9155
    1SOL    MW4 8860   0.463   3.967   3.844 -0.3235  0.0610  0.9670
    1SOL     OW 8861   0.417   4.225   3.966  0.4484 -0.2051  0.2233
    1SOL    HW2 8862   0.494   4.276   3.939 -0.0036  0.0840 -0.5283
    1SOL    HW3 8863   0.435   4.137   3.933  0.8716 -0.3606  0.8467
    1SOL    MW4 8864   0.430   4.220   3.958  0.4446 -0.1879  0.2062
    1SOL     OW 8865   0.650   4.363   3.887 -0.6001  0.5372  0.1585
    1SOL    HW2 8866   0.728   4.333   3.934 -0.7519  2.0551  1.4051
    1SOL    HW3 8867   0.664   4.335   3.797  1.0663  0.1887  0.5094
    1SOL    MW4 8868   0.662   4.355   3.881 -0.4003  0.6919  0.3693
    1SOL     OW 8869   1.117   4.656   3.920  0.6028 -0.0600 -0.5800
    1SOL    HW2 8870   1.191   4.693   3.872  1.3659 -0.3324  0.3643
    1SOL    HW3 8871   1.111   4.566   3.888  0.4682  0.0605 -0.8974
    1SOL    MW4 8872   1.126   4.649   3.909  0.6857 -0.0800 -0.4973
    1SOL     OW 8873   0.866   0.128   3.839  0.2448  0.1608 -0.1390
    1SOL    HW2 8874   0.944   0.086   3.874  0.3321  0.1344 -0.3641
    1SOL    HW3 8875   0.793   0.075   3.872  0.3721 -0.3928 -0.7320
    1SOL    MW4 8876   0.867   0.115   3.848  0.2731  0.0843 -0.2468
    1SOL     OW 8877   0.896   0.383   3.936  0.1682 -0.4845  0.2640
    1SOL    HW2 8878   0.911   0.376   4.030  0.8380  0.5900  0.2514
    1SOL    HW3 8879   0.891   0.292   3.906  1.5444 -0.8552  1.0902
    1SOL    MW4 8880   0.897   0.370   3.945  0.4381 -0.3916  0.3712
    1SOL     OW 8881   1.117   0.517   3.828 -0.4862 -0.1709 -0.2159
    1SOL    HW2 8882   1.191   0.484   3.879 -0.1876  1.6126  0.5567
    1SOL    HW3 8883   1.041   0.471   3.865 -0.0153 -0.4383  0.4335
    1SOL    MW4 8884   1.117   0.507   3.840 -0.3848  0.0292 -0.0281
    1SOL     OW 8885   1.065   0.801   3.877 -0.2153 -0.1788  0.3668
    1SOL    HW2 8886   1.094   0.804   3.968 -1.6376 -2.4298  0.9520
    1SOL    HW3 8887   1.063   0.707   3.856 -1.8227  0.1996 -1.3039
    1SOL    MW4 8888   1.068   0.789   3.886 -0.6150 -0.4258  0.2236
    1SOL     OW 8889   0.824   0.926   3.800  0.3874  0.2302  0.2365
    1SOL    HW2 8890   0.893   0.878   3.846  0.8000 -0.4201 -1.0404
    1SOL    HW3 8891   0.846   0.918   3.708 -1.5323 -0.1825 -0.2095
    1SOL    MW4 8892   0.836   0.919   3.794  0.1885  0.0900  0.0088
    1SOL     OW 8893   0.832   1.200   3.898 -0.1246  0.1124 -0.0886
    1SOL    HW2 8894   0.845   1.202   3.993  0.6604  0.5721 -0.1965
    1SOL    HW3 8895   0.841   1.108   3.874 -1.3516 -0.1515  0.4108
    1SOL    MW4 8896   0.835   1.188   3.907 -0.1829  0.1383 -0.0370
    1SOL     OW 8897   1.105   1.288   3.800  0.3694  0.2511 -0.1620
    1SOL    HW2 8898   1.113   1.377   3.834  0.2580  0.0770  0.3281
    1SOL    HW3 8899   1.030   1.251   3.847  0.7209 -0.2628 -0.0042
    1SOL    MW4 8900   1.096   1.295   3.811  0.4011  0.1605 -0.0768
    1SOL     OW 8901   1.092   1.552   3.884 -0.9514 -0.1739  0.0376
    1SOL    HW2 8902   1.078   1.561   3.978 -0.5476  0.4990  0.0376
    1SOL    HW3 8903   1.174   1.599   3.868 -0.6435 -0.9047 -0.5341
    1SOL    MW4 8904   1.101   1.559   3.894 -0.8576 -0.1816 -0.0379
    1SOL     OW 8905   0.827   1.675   3.835 -0.1079 -0.3419  0.3512
    1SOL    HW2 8906   0.915   1.639   3.844  0.8476  1.7097 -0.6229
    1SOL    HW3 8907   0.814   1.683   3.741 -1.5860 -1.1512  0.4566
    1SOL    MW4 8908   0.837   1.671   3.824 -0.1768 -0.1780  0.2367
    1SOL     OW 8909   0.897   1.917   3.927 -0.1370  0.0855  0.0371
    1SOL    HW2 8910   0.863   1.837   3.889 -0.4731  0.7233 -1.0373
    1SOL    HW3 8911   0.826   1.981   3.916  0.2081  0.5898  0.6691
    1SOL    MW4 8912   0.883   1.915   3.921 -0.1358  0.2362 -0.0215
    1SOL     OW 8913   1.149   2.014   3.850 -0.4140 -0.1888  0.0565
    1SOL    HW2 8914   1.068   1.980   3.889 -0.9540  0.2592 -0.6683
    1SOL    HW3 8915   1.134   2.011   3.756  0.1778  0.4733 -0.0622
    1SOL    MW4 8916   1.136   2.009   3.843 -0.4072 -0.0422 -0.0548
    1SOL     OW 8917   1.139   2.292   3.891  0.2238  0.3957 -0.3228
    1SOL    HW2 8918   1.141   2.198   3.870  0.4702  0.7889 -2.1457
    1SOL    HW3 8919   1.118   2.295   3.984  0.4281 -1.4824 -0.1912
    1SOL    MW4 8920   1.136   2.280   3.900  0.2832  0.2000 -0.5457
    1SOL     OW 8921   0.921   2.421   3.804  0.4250  0.1032  0.2680
    1SOL    HW2 8922   0.938   2.509   3.838  0.2545 -0.0032  0.6361
    1SOL    HW3 8923   1.003   2.373   3.821  0.2113 -0.0524  0.8691
    1SOL    MW4 8924   0.934   2.426   3.811  0.3744  0.0687  0.3958
    1SOL     OW 8925   0.946   2.670   3.924 -0.2438  0.7931  0.8566
    1SOL    HW2 8926   0.945   2.677   4.020  0.6639 -2.4238  1.1474
    1SOL    HW3 8927   1.018   2.726   3.896 -0.2565  1.4332  2.0707
    1SOL    MW4 8928   0.955   2.679   3.933 -0.1258  0.4528  1.0552
    1SOL     OW 8929   1.141   2.859   3.821 -0.2332 -0.0766  0.0334
    1SOL    HW2 8930   1.218   2.821   3.863 -1.0106 -2.1528 -0.3514
    1SOL    HW3 8931   1.132   2.946   3.861  0.9919 -0.6927  1.7058
    1SOL    MW4 8932   1.150   2.866   3.832 -0.1739 -0.4320  0.2034
    1SOL     OW 8933   1.124   3.111   3.945  0.2618  0.0686 -0.2479
    1SOL    HW2 8934   1.198   3.156   3.905  0.0516 -0.7157 -1.5271
    1SOL    HW3 8935   1.048   3.166   3.924  0.2215 -0.0810 -0.4906
    1SOL    MW4 8936   1.123   3.124   3.937  0.2290 -0.0548 -0.4485
    1SOL     OW 8937   0.887   3.244   3.865  0.3899 -0.4154  0.0149
    1SOL    HW2 8938   0.815   3.189   3.893  0.3915 -0.5530 -0.2472
    1SOL    HW3 8939   0.876   3.251   3.770  0.1043  0.4379  0.1086
    1SOL    MW4 8940   0.876   3.238   3.856  0.3524 -0.3211 -0.0072
    1SOL     OW 8941   0.900   3.496   3.976  0.1459 -0.4289 -0.5151
    1SOL    HW2 8942   0.897   3.404   3.950 -0.2606 -0.7202  0.5566
    1SOL    HW3 8943   0.811   3.529   3.962  0.0823 -0.4213 -0.0985
    1SOL    MW4 8944   0.888   3.488   3.970  0.0839 -0.4663 -0.3185
    1SOL     OW 8945   1.162   3.598   3.857  0.1140 -0.0040 -0.2207
    1SOL    HW2 8946   1.168   3.687   3.893 -0.1905 -0.0785  0.0201
    1SOL    HW3 8947   1.076   3.567   3.885  0.8518 -0.9606  1.0487
    1SOL    MW4 8948   1.151   3.606   3.866  0.1712 -0.1402 -0.0215
    1SOL     OW 8949   1.136   3.857   3.962 -0.4171 -0.1611  0.1238
    1SOL    HW2 8950   1.149   3.873   4.055  0.4535  1.4641 -0.2696
    1SOL    HW3 8951   1.206   3.906   3.918 -1.9902  0.7278 -1.4956
    1SOL    MW4 8952   1.147   3.865   3.968 -0.5097  0.1705 -0.1419
    1SOL     OW 8953   0.905   3.999   3.883 -0.6170 -0.1797 -0.2342
    1SOL    HW2 8954   0.980   3.951   3.916 -0.2619  0.5678  0.0498
    1SOL    HW3 8955   0.905   3.981   3.789  0.5958  0.7522 -0.4178
    1SOL    MW4 8956   0.915   3.990   3.875 -0.4101  0.0417 -0.2208
    1SOL     OW 8957   0.881   4.254   3.971  0.1813 -0.3880 -0.4673
    1SOL    HW2 8958   0.876   4.258   4.066 -3.4613  1.6142 -0.6677
    1SOL    HW3 8959   0.879   4.160   3.951  1.9014 -0.8631  1.4180
    1SOL    MW4 8960   0.880   4.242   3.981 -0.0723 -0.1864 -0.2449
    1SOL     OW 8961   1.096   4.377   3.863  0.0781 -0.4407  0.1827
    1SOL    HW2 8962   1.024   4.321   3.892  0.9611 -1.8282 -0.2202
    1SOL    HW3 8963   1.095   4.369   3.767 -2.1511  3.2536 -0.2011
    1SOL    MW4 8964   1.086   4.368   3.854 -0.0994 -0.1359  0.0789
    1SOL     OW 8965   1.548   0.004   3.937  0.6711 -0.0922 -0.0113
    1SOL    HW2 8966   1.548   0.008   4.033  3.3412 -1.5764  0.0915
    1SOL    HW3 8967   1.539  -0.090   3.918  0.8619  0.1351 -1.2171
    1SOL    MW4 8968   1.547  -0.008   3.947  1.0486 -0.2584 -0.1569
    1SOL     OW 8969   1.332   0.130   3.812  0.5873 -0.1606  0.3250
    1SOL    HW2 8970   1.324   0.209   3.865 -2.2857 -0.6635  0.7395
    1SOL    HW3 8971   1.406   0.082   3.850  2.0384  2.0768  0.3697
    1SOL    MW4 8972   1.341   0.134   3.824  0.3997  0.0683  0.3858
    1SOL     OW 8973   1.341   0.393   3.935 -0.0796  0.8808  0.4250
    1SOL    HW2 8974   1.355   0.384   4.029  0.1504  2.4409  0.5522
    1SOL    HW3 8975   1.423   0.429   3.902 -0.5109  1.2904 -0.2183
    1SOL    MW4 8976   1.354   0.397   3.943 -0.1061  1.1407  0.3569
    1SOL     OW 8977   1.590   0.522   3.825  0.0953 -0.0037  0.4450
    1SOL    HW2 8978   1.675   0.487   3.853  0.2500  0.0082 -0.0075
    1SOL    HW3 8979   1.584   0.608   3.867  0.0395 -0.2604  0.9669
    1SOL    MW4 8980   1.600   0.529   3.834  0.1084 -0.0359  0.4542
    1SOL     OW 8981   1.542   0.780   3.901  0.3073 -0.0901 -0.0617
    1SOL    HW2 8982   1.617   0.828   3.865  0.8529 -1.3991 -0.7184
    1SOL    HW3 8983   1.466   0.828   3.870  0.8538  1.8111  1.3805
    1SOL    MW4 8984   1.542   0.793   3.892  0.4514 -0.0119  0.0420
    1SOL     OW 8985   1.309   0.915   3.809  0.2810  0.4350  0.1290
    1SOL    HW2 8986   1.303   1.000   3.852 -0.2039  0.9090 -0.8620
    1SOL    HW3 8987   1.222   0.877   3.816  0.9363 -0.8020  2.1815
    1SOL    MW4 8988   1.297   0.921   3.815  0.3035  0.3344  0.2689
    1SOL     OW 8989   1.350   1.198   3.923  0.4865  0.3145  0.1727
    1SOL    HW2 8990   1.422   1.244   3.878  0.2455 -0.0553 -0.5930
    1SOL    HW3 8991   1.271   1.238   3.888  0.3034  0.2897  0.5594
    1SOL    MW4 8992   1.349   1.209   3.913  0.4306  0.2625  0.1228
    1SOL     OW 8993   1.572   1.326   3.803  0.1425 -0.5009 -0.2078
    1SOL    HW2 8994   1.632   1.268   3.851 -1.8561 -2.1222  0.3968
    1SOL    HW3 8995   1.571   1.407   3.855  1.9520 -0.3839 -0.3408
    1SOL    MW4 8996   1.580   1.329   3.816  0.1174 -0.6994 -0.1454
    1SOL     OW 8997   1.554   1.576   3.944 -0.2456  0.2907 -0.2623
    1SOL    HW2 8998   1.572   1.548   4.034 -0.3780  0.7119 -0.1038
    1SOL    HW3 8999   1.639   1.604   3.911 -0.3555  0.9635  0.0227
    1SOL    MW4 9000   1.568   1.576   3.952 -0.2776  0.4350 -0.2038
    1SOL     OW 9001   1.343   1.663   3.791  0.1009  0.2006  0.1962
    1SOL    HW2 9002   1.355   1.755   3.813  1.0313  0.3808 -0.9868
    1SOL    HW3 9003   1.417   1.619   3.833 -1.1177 -0.2261  1.9532
    1SOL    MW4 9004   1.355   1.669   3.800  0.0629  0.1680  0.2720
    1SOL     OW 9005   1.393   1.916   3.883  0.1035 -0.5619  0.5073
    1SOL    HW2 9006   1.413   1.900   3.975 -0.4135  0.2244  0.7619
    1SOL    HW3 9007   1.303   1.949   3.883  0.2862 -0.0465 -0.2288
    1SOL    MW4 9008   1.384   1.918   3.895  0.0594 -0.3899  0.4442
    1SOL     OW 9009   1.595   2.104   3.799 -0.4720 -0.3463 -0.2078
    1SOL    HW2 9010   1.514   2.083   3.845 -1.4813  0.7460 -1.4406
    1SOL    HW3 9011   1.577   2.085   3.707  0.1985  1.1887 -0.6859
    1SOL    MW4 9012   1.582   2.099   3.793 -0.5167  0.0005 -0.4334
    1SOL     OW 9013   1.627   2.365   3.883 -0.2253  0.0462 -0.2775
    1SOL    HW2 9014   1.709   2.399   3.848  0.6474 -0.8918  0.8499
    1SOL    HW3 9015   1.622   2.276   3.850 -0.7002  0.0329 -0.1726
    1SOL    MW4 9016   1.637   2.358   3.874 -0.1729 -0.0794 -0.1149
    1SOL     OW 9017   1.350   2.471   3.852  0.1057 -0.1356 -0.1382
    1SOL    HW2 9018   1.435   2.429   3.859 -0.3837 -1.3109 -1.1493
    1SOL    HW3 9019   1.288   2.405   3.882 -0.4875  0.6068  0.2943
    1SOL    MW4 9020   1.353   2.457   3.857 -0.0372 -0.1926 -0.2143
    1SOL     OW 9021   1.362   2.745   3.936  0.6626 -0.0362  0.1507
    1SOL    HW2 9022   1.389   2.766   4.026  0.8459  0.1795  0.0451
    1SOL    HW3 9023   1.364   2.649   3.932  0.0491 -0.0653  0.5649
    1SOL    MW4 9024   1.366   2.735   3.947  0.6057 -0.0114  0.1915
    1SOL     OW 9025   1.608   2.815   3.824 -0.2598  0.0784  0.4016
    1SOL    HW2 9026   1.534   2.768   3.864  0.1639 -0.0562  1.0470
    1SOL    HW3 9027   1.584   2.824   3.732 -1.6310  1.1358  0.8500
    1SOL    MW4 9028   1.595   2.810   3.817 -0.3848  0.2000  0.5457
    1SOL     OW 9029   1.563   3.086   3.957  0.6220 -0.1931  0.0315
    1SOL    HW2 9030   1.586   3.100   4.049 -0.6222 -1.7734  0.5947
    1SOL    HW3 9031   1.571   2.992   3.945 -1.0820 -0.2193 -0.9709
    1SOL    MW4 9032   1.567   3.076   3.968  0.2332 -0.4048 -0.0265
    1SOL     OW 9033   1.359   3.231   3.846  0.1066 -0.0541  0.3950
    1SOL    HW2 9034   1.352   3.311   3.897 -0.2863 -0.4499  0.9657
    1SOL    HW3 9035   1.421   3.177   3.895  0.6655  0.0487 -0.1879
    1SOL    MW4 9036   1.367   3.234   3.859  0.1284 -0.0927  0.3932
    1SOL     OW 9037   1.392   3.476   3.960 -0.1737  0.2808  0.3330
    1SOL    HW2 9038   1.465   3.514   3.911  0.6511 -0.7958  0.6957
    1SOL    HW3 9039   1.314   3.519   3.926  0.6542  1.5453  0.0351
    1SOL    MW4 9040   1.392   3.486   3.949  0.0443  0.3057  0.3417
    1SOL     OW 9041   1.577   3.651   3.837 -0.3591 -0.2057 -0.4887
    1SOL    HW2 9042   1.655   3.601   3.861 -0.2826 -0.2752 -0.8946
    1SOL    HW3 9043   1.581   3.729   3.892  0.0604 -0.1483 -0.6041
    1SOL    MW4 9044   1.588   3.655   3.848 -0.2937 -0.2069 -0.5574
    1SOL     OW 9045   1.541   3.928   3.944  0.0102  0.0982 -0.3587
    1SOL    HW2 9046   1.607   3.961   3.884 -0.9412  0.5051 -1.2033
    1SOL    HW3 9047   1.460   3.970   3.915 -0.3540  0.7655  1.5935
    1SOL    MW4 9048   1.539   3.938   3.932 -0.1633  0.2401 -0.2127
    1SOL     OW 9049   1.310   4.031   3.840 -0.3633  0.4848  0.3447
    1SOL    HW2 9050   1.316   4.118   3.879  0.8034  0.0980  1.0774
    1SOL    HW3 9051   1.319   4.045   3.746  2.5716  0.9406  0.6364
    1SOL    MW4 9052   1.312   4.044   3.833  0.1781  0.4935  0.4802
    1SOL     OW 9053   1.323   4.267   3.988 -0.3168 -0.2365 -0.3005
    1SOL    HW2 9054   1.403   4.315   3.965 -0.0057 -0.5618  0.1018
    1SOL    HW3 9055   1.252   4.326   3.961  0.0319 -0.5961 -2.0428
    1SOL    MW4 9056   1.324   4.281   3.981 -0.2296 -0.3271 -0.4773
    1SOL     OW 9057   1.539   4.407   3.866  0.3243  0.1347  0.2465
    1SOL    HW2 9058   1.627   4.378   3.892 -0.0957 -0.6647  0.8006
    1SOL    HW3 9059   1.539   4.397   3.770  0.3786 -1.1872  0.3773
    1SOL    MW4 9060   1.551   4.402   3.856  0.2761 -0.1454  0.3366
    1SOL     OW 9061   2.031   4.623   3.931  0.8890 -0.1395 -0.1047
    1SOL    HW2 9062   2.113   4.661   3.903  0.6814 -1.3470 -2.4454
    1SOL    HW3 9063   2.026   4.539   3.886 -0.5335 -1.1531  1.8344
    1SOL    MW4 9064   2.041   4.617   3.921  0.6740 -0.4325 -0.1576
    1SOL     OW 9065   1.803   0.110   3.860 -0.1529  0.6533  0.0679
    1SOL    HW2 9066   1.879   0.067   3.898 -0.3629 -1.8269 -2.1690
    1SOL    HW3 9067   1.728   0.065   3.898 -0.5895  2.8129  1.9414
    1SOL    MW4 9068   1.803   0.099   3.870 -0.2383  0.6110  0.0198
    1SOL     OW 9069   1.823   0.403   3.914 -0.2044  0.0331  0.3230
    1SOL    HW2 9070   1.813   0.399   4.009  0.9118  0.4335  0.4673
    1SOL    HW3 9071   1.827   0.312   3.887  1.6757 -0.0884  0.9242
    1SOL    MW4 9072   1.823   0.391   3.923  0.1911  0.0699  0.4215
    1SOL     OW 9073   2.042   0.542   3.805 -0.1354 -0.7996 -0.3163
    1SOL    HW2 9074   1.958   0.509   3.838 -0.3541  0.5309  0.4769
    1SOL    HW3 9075   2.042   0.517   3.713 -0.7628 -2.0785  0.0146
    1SOL    MW4 9076   2.031   0.534   3.797 -0.2470 -0.7927 -0.1681
    1SOL     OW 9077   2.021   0.779   3.934 -0.1377 -0.4171  0.1041
    1SOL    HW2 9078   2.024   0.769   4.029 -0.6386 -0.6492  0.0953
    1SOL    HW3 9079   2.034   0.691   3.900  0.3921 -0.2803 -0.0495
    1SOL    MW4 9080   2.023   0.766   3.942 -0.1338 -0.4297  0.0827
    1SOL     OW 9081   1.780   0.902   3.832 -0.0119  0.0737 -0.4357
    1SOL    HW2 9082   1.866   0.870   3.860  0.2907  0.3976 -0.9754
    1SOL    HW3 9083   1.788   0.909   3.737 -0.0226  1.8655 -0.3193
    1SOL    MW4 9084   1.793   0.899   3.823  0.0266  0.3529 -0.4916
    1SOL     OW 9085   1.741   1.167   3.941 -0.0929  0.1902  0.0860
    1SOL    HW2 9086   1.743   1.157   4.036 -0.3274  1.2616  0.2017
    1SOL    HW3 9087   1.764   1.080   3.908  1.8662  0.2673  1.1276
    1SOL    MW4 9088   1.745   1.154   3.949  0.1346  0.3418  0.2387
    1SOL     OW 9089   1.988   1.269   3.804 -0.2395 -0.1243  0.2212
    1SOL    HW2 9090   2.066   1.231   3.844 -0.3948 -0.1346  0.5224
    1SOL    HW3 9091   1.916   1.237   3.858 -0.6423 -1.6955 -1.2028
    1SOL    MW4 9092   1.988   1.260   3.817 -0.3132 -0.3330  0.0730
    1SOL     OW 9093   2.034   1.529   3.883  0.0399 -0.1805 -0.4684
    1SOL    HW2 9094   1.955   1.575   3.855  0.1119  0.2631  0.0454
    1SOL    HW3 9095   2.025   1.441   3.847 -1.2861 -0.5227  0.6633
    1SOL    MW4 9096   2.023   1.523   3.874 -0.1252 -0.1670 -0.2513
    1SOL     OW 9097   1.787   1.654   3.820  0.1827 -0.1500  0.1111
    1SOL    HW2 9098   1.799   1.743   3.853 -0.9726 -0.5860  1.7545
    1SOL    HW3 9099   1.771   1.665   3.726  1.2441  1.2757  0.0815
    1SOL    MW4 9100   1.786   1.667   3.812  0.1704 -0.0194  0.3240
    1SOL     OW 9101   1.792   1.922   3.906  0.1635 -0.0808 -0.0786
    1SOL    HW2 9102   1.794   1.919   4.002  1.0134  2.9686  0.0559
    1SOL    HW3 9103   1.719   1.981   3.886  0.0352 -0.6449 -1.3087
    1SOL    MW4 9104   1.782   1.930   3.916  0.2586  0.2472 -0.2232
    1SOL     OW 9105   2.020   2.065   3.830  0.2512  0.2765  0.4806
    1SOL    HW2 9106   1.941   2.015   3.850  0.3335  0.0052  0.1263
    1SOL    HW3 9107   2.015   2.083   3.736  0.1072  1.1393  0.6535
    1SOL    MW4 9108   2.009   2.061   3.820  0.2432  0.3545  0.4570
    1SOL     OW 9109   2.017   1.993   4.330 -0.1803 -0.1145  0.1146
    1SOL    HW2 9110   2.015   1.961   4.420 -1.6389  0.0815  0.1569
    1SOL    HW3 9111   2.016   2.088   4.339 -2.5348 -0.1009 -0.1474
    1SOL    MW4 9112   2.017   2.001   4.343 -0.6833 -0.0870  0.0858
    1SOL     OW 9113   1.865   2.446   3.783 -0.3634  0.4971  0.1644
    1SOL    HW2 9114   1.880   2.533   3.819  1.5661  0.6200 -0.8611
    1SOL    HW3 9115   1.918   2.388   3.837  0.5444  0.3395 -0.8870
    1SOL    MW4 9116   1.874   2.450   3.795  0.0108  0.4923 -0.1097
    1SOL     OW 9117   1.853   2.707   3.907  0.1650  0.3887 -0.1811
    1SOL    HW2 9118   1.834   2.659   3.987  0.2836  0.6371 -0.0040
    1SOL    HW3 9119   1.769   2.745   3.881  0.0171 -0.1157 -0.4588
    1SOL    MW4 9120   1.839   2.706   3.914  0.1612  0.3548 -0.1943
    1SOL     OW 9121   2.080   2.808   3.789  0.4037 -0.0330 -0.1479
    1SOL    HW2 9122   2.004   2.781   3.840  0.0159  0.4719 -0.4523
    1SOL    HW3 9123   2.155   2.779   3.841  0.0069 -0.0159  0.4444
    1SOL    MW4 9124   2.080   2.801   3.803  0.2999  0.0358 -0.1099
    1SOL     OW 9125   2.020   3.150   3.986 -0.6235 -0.1615 -0.1051
    1SOL    HW2 9126   2.023   3.054   3.981 -0.9398 -0.3380  2.4366
    1SOL    HW3 9127   2.100   3.179   3.944 -0.9309 -1.4938 -1.6807
    1SOL    MW4 9128   2.031   3.141   3.980 -0.7060 -0.3607  0.0224
    1SOL     OW 9129   1.787   3.209   3.848  0.5347 -0.6084  0.1728
    1SOL    HW2 9130   1.865   3.190   3.901  0.6178  0.4010  0.4121
    1SOL    HW3 9131   1.717   3.161   3.892  1.1241 -2.0330 -0.4000
    1SOL    MW4 9132   1.788   3.200   3.861  0.6236 -0.6630  0.1287
    1SOL     OW 9133   1.794   3.474   3.915  0.1489 -0.6225  0.5803
    1SOL    HW2 9134   1.878   3.513   3.891 -0.2711 -0.0010  0.1031
    1SOL    HW3 9135   1.805   3.380   3.898  1.1099 -0.7047  1.5861
    1SOL    MW4 9136   1.807   3.466   3.910  0.2203 -0.5512  0.6502
    1SOL     OW 9137   2.024   3.592   3.860 -0.5167  0.0617  0.7318
    1SOL    HW2 9138   2.107   3.556   3.891 -0.2899 -0.1443 -0.0997
    1SOL    HW3 9139   2.033   3.595   3.765 -0.6817  1.9824  0.7651
    1SOL    MW4 9140   2.036   3.588   3.851 -0.5083  0.2878  0.6263
    1SOL     OW 9141   1.979   3.852   3.952  0.1295  0.2037 -0.2980
    1SOL    HW2 9142   2.062   3.886   3.917  0.0305  0.1893 -0.5456
    1SOL    HW3 9143   1.975   3.762   3.919  0.6094 -0.2033  0.7201
    1SOL    MW4 9144   1.990   3.844   3.943  0.1798  0.1481 -0.1965
    1SOL     OW 9145   1.772   4.031   3.814 -0.0801  0.2720 -0.0487
    1SOL    HW2 9146   1.762   4.117   3.854  2.9781  1.3990 -1.5875
    1SOL    HW3 9147   1.826   3.981   3.875  0.2568  0.2842 -0.3341
    1SOL    MW4 9148   1.777   4.036   3.827  0.3679  0.4225 -0.2894
    1SOL     OW 9149   1.779   4.284   3.949  0.3680  0.1842  0.1291
    1SOL    HW2 9150   1.864   4.307   3.911  0.4159 -1.7477 -1.0535
    1SOL    HW3 9151   1.795   4.281   4.043  0.8129  2.9030  0.1711
    1SOL    MW4 9152   1.792   4.286   3.956  0.4330  0.2885 -0.0210
    1SOL     OW 9153   1.993   4.374   3.829 -0.3594  0.5415  0.1604
    1SOL    HW2 9154   2.080   4.340   3.848 -0.6750 -0.0879  0.4870
    1SOL    HW3 9155   1.991   4.383   3.734 -1.1062 -2.6800 -0.1928
    1SOL    MW4 9156   2.004   4.371   3.819 -0.4997  0.0329  0.1569
    1SOL     OW 9157   2.489   4.620   3.893 -0.3784  0.3064  0.3780
    1SOL    HW2 9158   2.487   4.642   3.986  0.4996  0.7455  0.2976
    1SOL    HW3 9159   2.561   4.672   3.858  0.4774 -1.2483 -0.1966
    1SOL    MW4 9160   2.498   4.630   3.901 -0.1495  0.1593  0.2916
    1SOL     OW 9161   2.247   0.071   3.835  0.3987  0.4125  0.1461
    1SOL    HW2 9162   2.334   0.034   3.849  0.5886  0.0315 -1.9523
    1SOL    HW3 9163   2.239   0.081   3.740 -1.9686  0.0926  0.2624
    1SOL    MW4 9164   2.257   0.067   3.824  0.1113  0.3200 -0.1156
    1SOL     OW 9165   2.230   0.353   3.892  0.4922 -0.1502 -0.4323
    1SOL    HW2 9166   2.216   0.260   3.880  0.8986 -0.4108  1.0608
    1SOL    HW3 9167   2.152   0.394   3.853  0.3766 -1.0866 -1.2126
    1SOL    MW4 9168   2.218   0.346   3.885  0.5305 -0.3082 -0.3383
    1SOL     OW 9169   2.443   0.534   3.812  0.2644  0.2546  0.1690
    1SOL    HW2 9170   2.380   0.467   3.841 -0.8137  1.3073  0.2903
    1SOL    HW3 9171   2.446   0.523   3.717  1.5591 -1.2272  0.3497
    1SOL    MW4 9172   2.435   0.524   3.803  0.2930  0.1979  0.2089
    1SOL     OW 9173   2.458   0.792   3.899  0.4182  0.1742 -0.3071
    1SOL    HW2 9174   2.373   0.829   3.871  0.3498  0.4721  0.2807
    1SOL    HW3 9175   2.459   0.704   3.861 -0.5328 -0.1519  0.3891
    1SOL    MW4 9176   2.447   0.786   3.890  0.2837  0.1705 -0.1373
    1SOL     OW 9177   2.228   0.903   3.801 -0.5644 -0.3063 -0.0089
    1SOL    HW2 9178   2.155   0.865   3.850  0.1971 -0.9347  0.6439
    1SOL    HW3 9179   2.198   0.903   3.710 -1.6295  0.0425  0.3355
    1SOL    MW4 9180   2.214   0.898   3.796 -0.6046 -0.3431  0.1228
    1SOL     OW 9181   2.215   1.163   3.915  0.1866  0.2675  0.9787
    1SOL    HW2 9182   2.224   1.154   4.009 -4.1307  1.2587  1.5994
    1SOL    HW3 9183   2.226   1.074   3.881  1.0647 -0.2034  2.4667
    1SOL    MW4 9184   2.217   1.150   3.923 -0.2670  0.3362  1.2569
    1SOL     OW 9185   2.467   1.260   3.827  0.2252  0.3690 -0.5205
    1SOL    HW2 9186   2.466   1.349   3.862 -0.1215 -0.5245  1.8216
    1SOL    HW3 9187   2.379   1.227   3.844  0.2710 -0.3421 -1.6308
    1SOL    MW4 9188   2.455   1.267   3.834  0.1855  0.1572 -0.3581
    1SOL     OW 9189   2.457   1.527   3.924  0.3201  0.0447  0.1078
    1SOL    HW2 9190   2.540   1.564   3.896 -0.3653  1.9742  0.5255
    1SOL    HW3 9191   2.391   1.573   3.871 -0.5593 -0.6457  0.5810
    1SOL    MW4 9192   2.459   1.538   3.913  0.1132  0.2081  0.2253
    1SOL     OW 9193   2.248   1.656   3.790  0.2393  0.5312 -0.0244
    1SOL    HW2 9194   2.236   1.745   3.823  0.1866  0.3516  0.4404
    1SOL    HW3 9195   2.170   1.609   3.820  0.1438  0.3902 -0.4866
    1SOL    MW4 9196   2.236   1.661   3.798  0.2198  0.4889 -0.0241
    1SOL     OW 9197   2.227   1.903   3.900  0.0890 -0.3664 -0.1942
    1SOL    HW2 9198   2.218   1.896   3.995 -0.0212  0.5282 -0.1320
    1SOL    HW3 9199   2.153   1.958   3.874 -0.0830 -0.9031 -0.8400
    1SOL    MW4 9200   2.216   1.909   3.909  0.0520 -0.3191 -0.2711
    1SOL     OW 9201   2.458   2.015   3.811 -0.1064  0.2117 -0.4602
    1SOL    HW2 9202   2.457   2.098   3.858 -0.8700 -0.1231  0.1248
    1SOL    HW3 9203   2.390   1.962   3.853 -0.1287 -0.4477 -1.2993
    1SOL    MW4 9204   2.449   2.019   3.823 -0.2100  0.0806 -0.4940
    1SOL     OW 9205   2.445   2.257   3.951  0.1095  0.2406 -0.0198
    1SOL    HW2 9206   2.514   2.313   3.915  1.7741 -2.2283 -0.8043
    1SOL    HW3 9207   2.463   2.254   4.045  1.2678 -0.5996 -0.2544
    1SOL    MW4 9208   2.457   2.264   3.958  0.4818 -0.1960 -0.1543
    1SOL     OW 9209   2.229   2.441   3.882  0.3109  0.1523 -0.2039
    1SOL    HW2 9210   2.218   2.444   3.787  0.7895  0.5708 -0.2450
    1SOL    HW3 9211   2.296   2.374   3.897 -0.0256 -0.1738 -0.1362
    1SOL    MW4 9212   2.236   2.432   3.872  0.3297  0.1645 -0.2003
    1SOL     OW 9213   2.298   2.716   3.959 -0.7010 -0.3505  0.4465
    1SOL    HW2 9214   2.316   2.734   4.051 -2.8300  0.5370  0.7189
    1SOL    HW3 9215   2.277   2.623   3.956 -0.5295 -0.4031  0.8432
    1SOL    MW4 9216   2.298   2.706   3.971 -0.9594 -0.2401  0.5348
    1SOL     OW 9217   2.511   2.826   3.833  0.1353  0.1368 -0.5772
    1SOL    HW2 9218   2.429   2.793   3.869  0.4519  0.2892  0.2996
    1SOL    HW3 9219   2.503   2.812   3.739  0.0863 -2.0350 -0.2804
    1SOL    MW4 9220   2.499   2.820   3.825  0.1709 -0.1297 -0.4225
    1SOL     OW 9221   2.493   3.088   3.924 -0.1227  0.2460  0.3532
    1SOL    HW2 9222   2.495   3.077   4.019  0.5339  0.4961  0.3694
    1SOL    HW3 9223   2.492   2.998   3.889  1.3448  0.1390  0.5646
    1SOL    MW4 9224   2.493   3.074   3.932  0.1576  0.2646  0.3831
    1SOL     OW 9225   2.253   3.209   3.849 -0.0139  0.0451  0.1635
    1SOL    HW2 9226   2.269   3.304   3.855 -1.3938  0.3061 -0.1880
    1SOL    HW3 9227   2.332   3.170   3.888  0.6869  1.3254  0.0834
    1SOL    MW4 9228   2.266   3.216   3.855 -0.1035  0.2484  0.1066
    1SOL     OW 9229   2.268   3.479   3.934  0.0980  0.2482 -0.3101
    1SOL    HW2 9230   2.274   3.471   4.029  0.6389 -0.1830 -0.3774
    1SOL    HW3 9231   2.344   3.531   3.909 -0.0409  0.3584 -0.5129
    1SOL    MW4 9232   2.279   3.485   3.943  0.1512  0.2058 -0.3457
    1SOL     OW 9233   2.501   3.606   3.864  0.4413 -0.2053 -0.1752
    1SOL    HW2 9234   2.568   3.549   3.902 -1.2939 -1.8126  0.5709
    1SOL    HW3 9235   2.510   3.594   3.769  0.5838 -1.1565 -0.0438
    1SOL    MW4 9236   2.511   3.597   3.856  0.2315 -0.5429 -0.0596
    1SOL     OW 9237   2.469   3.879   3.912 -0.6525  0.0776 -0.3173
    1SOL    HW2 9238   2.552   3.924   3.895 -1.2771  1.3515 -0.1023
    1SOL    HW3 9239   2.492   3.786   3.914  0.8830  0.4475  0.3907
    1SOL    MW4 9240   2.483   3.873   3.910 -0.5322  0.2944 -0.1955
    1SOL     OW 9241   2.221   3.996   3.871  0.1858 -0.0676 -0.0561
    1SOL    HW2 9242   2.305   3.959   3.895 -0.1239 -1.9459 -1.8177
    1SOL    HW3 9243   2.227   4.013   3.777 -1.0281  0.7883  0.0016
    1SOL    MW4 9244   2.233   3.994   3.862 -0.0153 -0.2024 -0.2811
    1SOL     OW 9245   2.219   4.267   3.939  0.0713  0.0749 -0.3319
    1SOL    HW2 9246   2.212   4.293   4.031  0.6512  0.4482 -0.3926
    1SOL    HW3 9247   2.221   4.171   3.942  0.5864  0.0944  0.0848
    1SOL    MW4 9248   2.218   4.258   3.952  0.2155  0.1268 -0.2849
    1SOL     OW 9249   2.455   4.362   3.829  0.0597  0.2360 -0.6633
    1SOL    HW2 9250   2.381   4.325   3.877  0.1097  0.9976  0.0214
    1SOL    HW3 9251   2.457   4.454   3.856  2.2243 -0.1401  0.5403
    1SOL    MW4 9252   2.446   4.369   3.839  0.3517  0.2875 -0.4141
    1SOL     OW 9253   2.907   0.010   3.865  0.1120  0.4163  0.3104
    1SOL    HW2 9254   2.896   0.001   3.960 -0.9274  0.1256  0.1626
    1SOL    HW3 9255   2.996   0.044   3.855  0.5160 -0.3033  1.3476
    1SOL    MW4 9256   2.917   0.014   3.876  0.0284  0.2832  0.4277
    1SOL     OW 9257   2.667   0.157   3.776 -0.3346 -0.3564  0.2769
    1SOL    HW2 9258   2.749   0.124   3.812  0.2939  0.3459 -0.4793
    1SOL    HW3 9259   2.680   0.154   3.681 -1.4246 -0.8370  0.1387
    1SOL    MW4 9260   2.680   0.153   3.768 -0.3958 -0.3271  0.1590
    1SOL     OW 9261   2.684   0.421   3.870 -0.3915  0.3074 -0.3385
    1SOL    HW2 9262   2.658   0.332   3.846 -1.6557  0.5204  0.2039
    1SOL    HW3 9263   2.603   0.472   3.866  0.4614  1.6302 -1.4892
    1SOL    MW4 9264   2.670   0.416   3.866 -0.4456  0.5100 -0.4189
    1SOL     OW 9265   2.927   0.499   3.747  0.2487  0.1353 -0.2235
    1SOL    HW2 9266   2.995   0.448   3.790 -0.5053 -1.0988 -0.4800
    1SOL    HW3 9267   2.847   0.477   3.795 -0.3283 -0.0587 -1.2721
    1SOL    MW4 9268   2.925   0.490   3.759  0.0732 -0.0531 -0.3958
    1SOL     OW 9269   2.922   0.752   3.878 -0.2630  0.1557 -0.5530
    1SOL    HW2 9270   3.003   0.803   3.877  0.3106 -0.7386 -2.2117
    1SOL    HW3 9271   2.938   0.680   3.817 -1.6323 -1.1120  0.5386
    1SOL    MW4 9272   2.935   0.749   3.870 -0.3679 -0.1296 -0.6278
    1SOL     OW 9273   2.696   0.911   3.789  0.3108  0.0698  0.3399
    1SOL    HW2 9274   2.765   0.854   3.824  0.6123 -1.3327 -2.4311
    1SOL    HW3 9275   2.616   0.881   3.832  0.8237 -0.9252  0.6140
    1SOL    MW4 9276   2.695   0.899   3.800  0.4184 -0.2465  0.0107
    1SOL     OW 9277   2.701   1.151   3.940  0.0357 -0.0475  0.0830
    1SOL    HW2 9278   2.719   1.075   3.885  0.2811 -0.0976  0.2307
    1SOL    HW3 9279   2.619   1.186   3.906  0.6299  0.4414 -0.8847
    1SOL    MW4 9280   2.693   1.146   3.928  0.1464  0.0104 -0.0255
    1SOL     OW 9281   2.923   1.290   3.833  0.3451 -0.1808 -0.6281
    1SOL    HW2 9282   2.914   1.380   3.864 -0.2930 -0.5238  0.1867
    1SOL    HW3 9283   2.846   1.245   3.867  0.2011 -0.8237 -1.7925
    1SOL    MW4 9284   2.912   1.296   3.841  0.2420 -0.3109 -0.6742
    1SOL     OW 9285   2.908   1.558   3.911 -0.3082 -0.0525 -0.3539
    1SOL    HW2 9286   2.915   1.542   4.005 -1.3536 -2.0038 -0.5831
    1SOL    HW3 9287   2.993   1.595   3.887 -0.0980  0.6597  1.3793
    1SOL    MW4 9288   2.920   1.560   3.920 -0.4187 -0.2161 -0.1554
    1SOL     OW 9289   2.671   1.639   3.773 -0.5235  0.0698  0.0362
    1SOL    HW2 9290   2.756   1.617   3.813 -1.1004 -0.3671  1.0381
    1SOL    HW3 9291   2.690   1.644   3.679  0.6029 -0.0787  0.2395
    1SOL    MW4 9292   2.685   1.637   3.766 -0.4513 -0.0075  0.1950
    1SOL     OW 9293   2.689   1.898   3.911  0.0072  0.3361 -0.0210
    1SOL    HW2 9294   2.686   1.810   3.874 -0.8276  0.2416  0.2598
    1SOL    HW3 9295   2.611   1.942   3.877 -0.0313  0.6932  0.5192
    1SOL    MW4 9296   2.679   1.892   3.902 -0.1080  0.3706  0.0873
    1SOL     OW 9297   2.905   2.014   3.793 -0.3591  0.2817  0.2086
    1SOL    HW2 9298   2.906   2.107   3.818  0.2771  0.1204  0.7859
    1SOL    HW3 9299   2.827   1.979   3.837 -0.3200  0.4303  0.3978
    1SOL    MW4 9300   2.895   2.022   3.802 -0.2699  0.2801  0.3095
    1SOL     OW 9301   2.892   2.244   3.947  0.5291  0.2568  0.3669
    1SOL    HW2 9302   2.895   2.286   4.033 -1.0700  1.1214  0.0315
    1SOL    HW3 9303   2.956   2.292   3.895  1.6295 -0.3877  1.1280
    1SOL    MW4 9304   2.901   2.256   3.951  0.4632  0.2859  0.4232
    1SOL     OW 9305   2.654   2.381   3.833 -0.1615 -0.4359  0.2777
    1SOL    HW2 9306   2.659   2.473   3.857 -1.2012 -0.5834  1.0877
    1SOL    HW3 9307   2.735   2.343   3.868 -0.3026 -0.0716  1.0080
    1SOL    MW4 9308   2.666   2.388   3.841 -0.3173 -0.4075  0.4809
    1SOL     OW 9309   2.681   2.629   3.952 -0.4727  0.0095 -0.3068
    1SOL    HW2 9310   2.671   2.613   4.046  1.7861  1.7569  0.2879
    1SOL    HW3 9311   2.614   2.695   3.932 -1.8901 -1.3745 -0.2610
    1SOL    MW4 9312   2.671   2.636   3.962 -0.3617  0.0572 -0.2224
    1SOL     OW 9313   2.882   2.780   3.811  0.0197  0.4570 -0.2015
    1SOL    HW2 9314   2.878   2.864   3.856  1.6661  0.2886  0.2844
    1SOL    HW3 9315   2.806   2.732   3.843 -1.1987  1.9340 -0.8458
    1SOL    MW4 9316   2.872   2.785   3.821  0.0761  0.6294 -0.2227
    1SOL     OW 9317   2.902   3.036   3.914 -0.5898  0.0814 -0.4482
    1SOL    HW2 9318   2.985   3.083   3.903 -0.4807 -0.4358 -1.8940
    1SOL    HW3 9319   2.837   3.091   3.870 -0.9353  0.2314  0.2401
    1SOL    MW4 9320   2.904   3.050   3.907 -0.6208  0.0327 -0.5479
    1SOL     OW 9321   2.707   3.210   3.832 -0.0534 -0.1899 -0.1808
    1SOL    HW2 9322   2.710   3.291   3.884  0.0911 -0.1682 -0.2225
    1SOL    HW3 9323   2.624   3.169   3.856  0.2072 -0.3903  0.3840
    1SOL    MW4 9324   2.697   3.215   3.842  0.0000 -0.2134 -0.1116
    1SOL     OW 9325   2.703   3.449   3.973  0.0812 -0.3456  0.0017
    1SOL    HW2 9326   2.720   3.461   4.067 -1.2687  0.4895  0.1700
    1SOL    HW3 9327   2.757   3.516   3.931  0.1358 -0.2303  0.2487
    1SOL    MW4 9328   2.712   3.460   3.980 -0.0899 -0.2205  0.0563
    1SOL     OW 9329   2.877   3.644   3.871 -0.8334 -0.4688  0.1226
    1SOL    HW2 9330   2.953   3.601   3.910 -0.3272  0.7486  0.4887
    1SOL    HW3 9331   2.886   3.628   3.777  1.3748  2.0114 -0.1315
    1SOL    MW4 9332   2.888   3.636   3.864 -0.4752  0.0191  0.1376
    1SOL     OW 9333   2.905   3.916   3.967  0.5379  0.0709 -0.4656
    1SOL    HW2 9334   2.914   3.933   4.061  1.1479  2.4020 -0.9108
    1SOL    HW3 9335   2.907   3.820   3.960  1.9807 -0.1127  1.7489
    1SOL    MW4 9336   2.906   3.906   3.979  0.8090  0.3541 -0.2320
    1SOL     OW 9337   2.698   4.060   3.847 -0.8876  0.1380 -0.1809
    1SOL    HW2 9338   2.707   4.143   3.894 -2.1846 -0.6405  1.4847
    1SOL    HW3 9339   2.770   4.006   3.881 -0.3398  0.4076 -0.9053
    1SOL    MW4 9340   2.709   4.064   3.858 -0.9863  0.0715 -0.0567
    1SOL     OW 9341   2.667   4.306   4.010  0.4807  0.0650 -0.1822
    1SOL    HW2 9342   2.735   4.345   3.954 -0.1618  1.8514  0.2330
    1SOL    HW3 9343   2.586   4.319   3.962  0.3320 -1.4524 -0.3604
    1SOL    MW4 9344   2.666   4.313   3.997  0.3765  0.1006 -0.1509
    1SOL     OW 9345   2.888   4.412   3.844  0.1634  0.1302  0.0705
    1SOL    HW2 9346   2.973   4.380   3.874  0.6069 -0.1212 -1.3729
    1SOL    HW3 9347   2.892   4.507   3.854  0.8497  0.1713 -0.5449
    1SOL    MW4 9348   2.900   4.420   3.849  0.3126  0.1020 -0.2010
    1SOL     OW 9349   3.349   4.634   3.946  0.0804  0.1812  0.3500
    1SOL    HW2 9350   3.337   4.627   4.041  0.4019 -2.8038  0.2241
    1SOL    HW3 9351   3.425   4.691   3.935  0.4981 -0.0651  1.9124
    1SOL    MW4 9352   3.357   4.641   3.957  0.1781 -0.2456  0.5395
    1SOL     OW 9353   3.161   0.106   3.807  0.5906 -0.0691 -0.2668
    1SOL    HW2 9354   3.232   0.057   3.849  1.3912  1.4651  0.2409
    1SOL    HW3 9355   3.186   0.110   3.714  0.8769 -0.0182 -0.1879
    1SOL    MW4 9356   3.174   0.100   3.800  0.7339  0.1400 -0.1893
    1SOL     OW 9357   3.130   0.367   3.874 -0.1378 -0.0099 -0.5520
    1SOL    HW2 9358   3.152   0.367   3.967 -0.1679  0.9816 -0.5440
    1SOL    HW3 9359   3.144   0.276   3.846  1.9349  0.1411 -0.0760
    1SOL    MW4 9360   3.135   0.355   3.882  0.1318  0.1408 -0.4885
    1SOL     OW 9361   3.364   0.491   3.821  0.5257 -0.0911 -0.1368
    1SOL    HW2 9362   3.422   0.430   3.868  0.3770 -1.2855 -1.4507
    1SOL    HW3 9363   3.277   0.453   3.830  0.6236 -0.9034 -2.1806
    1SOL    MW4 9364   3.360   0.478   3.828  0.5188 -0.3559 -0.5798
    1SOL     OW 9365   3.363   0.754   3.903 -0.2164  0.4781 -0.0605
    1SOL    HW2 9366   3.356   0.775   3.997  1.0863  0.3280  0.0731
    1SOL    HW3 9367   3.384   0.661   3.901  0.6012  0.6683 -0.4792
    1SOL    MW4 9368   3.365   0.745   3.915  0.0634  0.4834 -0.0980
    1SOL     OW 9369   3.132   0.925   3.829 -0.0425  0.1755  0.2558
    1SOL    HW2 9370   3.202   0.864   3.854 -0.1383  0.2249  0.6580
    1SOL    HW3 9371   3.105   0.897   3.742  0.5791  0.2451  0.0398
    1SOL    MW4 9372   3.138   0.913   3.821  0.0267  0.1912  0.2801
    1SOL     OW 9373   3.144   1.169   3.939 -0.1409  0.2499 -0.0754
    1SOL    HW2 9374   3.147   1.084   3.896  0.9031 -0.1822  0.8604
    1SOL    HW3 9375   3.062   1.209   3.907 -1.3566 -1.6694  0.5849
    1SOL    MW4 9376   3.133   1.163   3.929 -0.1633 -0.0602  0.1352
    1SOL     OW 9377   3.363   1.293   3.837 -0.4917 -0.0693  0.0069
    1SOL    HW2 9378   3.280   1.272   3.880 -1.1545  0.7634 -0.8610
    1SOL    HW3 9379   3.345   1.284   3.744  0.0263  1.4051 -0.2460
    1SOL    MW4 9380   3.350   1.289   3.831 -0.5109  0.2351 -0.1411
    1SOL     OW 9381   3.382   1.552   3.944 -0.0352 -0.4854  0.4183
    1SOL    HW2 9382   3.304   1.596   3.910  0.4950 -0.6729 -1.0893
    1SOL    HW3 9383   3.387   1.471   3.894 -0.7677 -2.1070  2.8853
    1SOL    MW4 9384   3.372   1.547   3.933 -0.0620 -0.7242  0.5448
    1SOL     OW 9385   3.153   1.668   3.835  0.2906  0.8680  0.5751
    1SOL    HW2 9386   3.145   1.761   3.858 -3.3291  1.2629 -1.8983
    1SOL    HW3 9387   3.173   1.669   3.741 -0.0211 -0.8713  0.4849
    1SOL    MW4 9388   3.155   1.680   3.826 -0.2282  0.6907  0.2367
    1SOL     OW 9389   3.129   1.934   3.924  0.2058 -0.3390  0.0448
    1SOL    HW2 9390   3.104   1.932   4.017  0.2912 -1.2843  0.0559
    1SOL    HW3 9391   3.051   1.965   3.879  0.0272 -0.2825  0.3900
    1SOL    MW4 9392   3.116   1.938   3.931  0.1936 -0.4565  0.0918
    1SOL     OW 9393   3.371   2.076   3.900  0.0733  0.1517  0.0549
    1SOL    HW2 9394   3.294   2.025   3.925  1.8987 -3.4979 -1.3779
    1SOL    HW3 9395   3.376   2.065   3.805  2.1588  0.6136  0.0925
    1SOL    MW4 9396   3.361   2.068   3.891  0.5894 -0.2689 -0.1290
    1SOL     OW 9397   3.326   2.342   3.960 -0.0879  0.1147 -0.3573
    1SOL    HW2 9398   3.243   2.361   3.918 -0.8812  0.1128  1.1798
    1SOL    HW3 9399   3.346   2.251   3.934 -0.1381  0.3939 -1.3918
    1SOL    MW4 9400   3.318   2.332   3.951 -0.1991  0.1512 -0.2909
    1SOL     OW 9401   3.076   2.409   3.811 -0.4236 -0.8186  0.3666
    1SOL    HW2 9402   3.100   2.497   3.840  0.8057 -1.2586  0.7401
    1SOL    HW3 9403   3.088   2.411   3.716  2.7516 -1.4692  0.6834
    1SOL    MW4 9404   3.081   2.421   3.802  0.1576 -0.9625  0.4575
    1SOL     OW 9405   3.101   2.652   3.933 -0.2038  0.0676  0.2695
    1SOL    HW2 9406   3.063   2.631   4.019 -0.6002  0.5302  0.2041
    1SOL    HW3 9407   3.036   2.707   3.891  1.3373  2.4318  0.9036
    1SOL    MW4 9408   3.088   2.656   3.939 -0.0527  0.4408  0.3445
    1SOL     OW 9409   3.315   2.805   3.875 -0.1604  0.2991  0.5884
    1SOL    HW2 9410   3.237   2.759   3.908  0.1123 -0.6859 -0.1253
    1SOL    HW3 9411   3.326   2.772   3.786 -0.3659  2.2798 -0.2004
    1SOL    MW4 9412   3.306   2.794   3.868 -0.1514  0.4306  0.3901
    1SOL     OW 9413   3.351   3.069   3.981 -0.0963 -0.1864 -0.0696
    1SOL    HW2 9414   3.441   3.096   3.965  0.2447 -1.0893  0.2761
    1SOL    HW3 9415   3.343   2.984   3.938 -0.1121 -1.1446  1.7790
    1SOL    MW4 9416   3.362   3.061   3.974 -0.0532 -0.4318  0.2201
    1SOL     OW 9417   3.123   3.195   3.896 -0.1274  0.0031  0.3178
    1SOL    HW2 9418   3.199   3.144   3.926 -0.0804 -0.4557 -0.5654
    1SOL    HW3 9419   3.135   3.203   3.801 -0.4516  1.1500  0.3641
    1SOL    MW4 9420   3.135   3.189   3.888 -0.1643  0.0942  0.2074
    1SOL     OW 9421   3.109   3.480   3.983 -0.1406 -0.2515  0.0914
    1SOL    HW2 9422   3.195   3.514   3.959  0.0334 -0.8442 -0.1381
    1SOL    HW3 9423   3.118   3.385   3.977 -0.6939 -0.3319  0.4738
    1SOL    MW4 9424   3.122   3.472   3.979 -0.1905 -0.3402  0.1116
    1SOL     OW 9425   3.374   3.576   3.878 -0.2621  0.3841 -0.0943
    1SOL    HW2 9426   3.385   3.668   3.902 -0.0153  0.2813  0.1899
    1SOL    HW3 9427   3.364   3.577   3.783  2.0140  0.5108 -0.3678
    1SOL    MW4 9428   3.375   3.589   3.868  0.0708  0.3872 -0.0930
    1SOL     OW 9429   3.352   3.871   3.943 -0.2926  0.2184 -0.0176
    1SOL    HW2 9430   3.418   3.914   3.890  0.0686  0.6790  0.7884
    1SOL    HW3 9431   3.279   3.934   3.947 -0.1522  0.3619  0.3628
    1SOL    MW4 9432   3.351   3.885   3.937 -0.2265  0.2980  0.1390
    1SOL     OW 9433   3.140   4.038   3.875  0.1975 -0.2098 -0.1821
    1SOL    HW2 9434   3.134   4.128   3.906 -2.4162 -0.1380 -0.7673
    1SOL    HW3 9435   3.061   3.996   3.908  2.2234 -2.8049  1.5960
    1SOL    MW4 9436   3.129   4.044   3.883  0.1202 -0.5426 -0.0246
    1SOL     OW 9437   3.127   4.307   3.945  0.1982 -0.3221  0.4355
    1SOL    HW2 9438   3.135   4.273   4.034  0.2683  0.4491  0.7203
    1SOL    HW3 9439   3.217   4.314   3.914  0.1938 -0.1309  0.4697
    1SOL    MW4 9440   3.140   4.303   3.953  0.2072 -0.1955  0.4776
    1SOL     OW 9441   3.386   4.346   3.868 -0.1812  0.1850  0.1803
    1SOL    HW2 9442   3.474   4.316   3.893  0.0094  1.0624  0.5715
    1SOL    HW3 9443   3.387   4.440   3.886 -0.6448  0.5139 -1.4035
    1SOL    MW4 9444   3.398   4.354   3.874 -0.2172  0.3443  0.0226
    1SOL     OW 9445   3.807   0.010   3.907 -0.3103  0.1517 -0.0683
    1SOL    HW2 9446   3.892   0.038   3.873  0.4212 -1.0940  0.7074
    1SOL    HW3 9447   3.807  -0.085   3.896 -1.1202  0.0233  1.0407
    1SOL    MW4 9448   3.818   0.001   3.901 -0.3207 -0.0296  0.1802
    1SOL     OW 9449   3.557   0.092   3.804 -0.2981  0.1069 -0.1704
    1SOL    HW2 9450   3.636   0.052   3.840 -0.5210 -0.8622 -0.7613
    1SOL    HW3 9451   3.576   0.102   3.711 -0.6832  0.3429 -0.2250
    1SOL    MW4 9452   3.570   0.088   3.797 -0.3784  0.0102 -0.2558
    1SOL     OW 9453   3.545   0.322   3.958 -0.1203  0.2414 -0.1087
    1SOL    HW2 9454   3.623   0.373   3.933 -0.3733  1.0437  0.7135
    1SOL    HW3 9455   3.543   0.250   3.895  2.1430 -0.6590  0.7784
    1SOL    MW4 9456   3.555   0.319   3.946  0.1450  0.2284  0.1166
    1SOL     OW 9457   3.771   0.453   3.869 -0.1605 -0.0953  0.1787
    1SOL    HW2 9458   3.862   0.427   3.874 -0.2599 -0.5941 -0.6088
    1SOL    HW3 9459   3.771   0.545   3.896  0.8800  0.5670 -2.0034
    1SOL    MW4 9460   3.783   0.462   3.873 -0.0367 -0.0737 -0.2131
    1SOL     OW 9461   3.785   0.740   3.960  0.0584 -0.1079 -0.8925
    1SOL    HW2 9462   3.859   0.789   3.923 -0.4113  1.4390  0.1615
    1SOL    HW3 9463   3.708   0.781   3.921 -0.4187  1.1501  1.3142
    1SOL    MW4 9464   3.784   0.752   3.950 -0.0665  0.2621 -0.4623
    1SOL     OW 9465   3.591   0.875   3.803 -0.0585  0.2684 -0.0103
    1SOL    HW2 9466   3.589   0.968   3.823  1.9663  0.3403 -0.0244
    1SOL    HW3 9467   3.511   0.839   3.843  0.0012  1.7098  1.4295
    1SOL    MW4 9468   3.580   0.882   3.811  0.2167  0.4681  0.1779
    1SOL     OW 9469   3.560   1.129   3.917 -0.6319  0.4051  0.1326
    1SOL    HW2 9470   3.638   1.182   3.901 -0.6783  0.3022 -0.4408
    1SOL    HW3 9471   3.490   1.175   3.872 -0.9694  0.6547  0.8918
    1SOL    MW4 9472   3.561   1.142   3.909 -0.6824  0.4244  0.1574
    1SOL     OW 9473   3.783   1.284   3.854  0.2040 -0.3886 -0.0978
    1SOL    HW2 9474   3.869   1.251   3.880 -0.3032 -0.7929  1.1242
    1SOL    HW3 9475   3.778   1.371   3.893 -0.9227 -1.3523  2.0057
    1SOL    MW4 9476   3.794   1.291   3.863 -0.0114 -0.5690  0.3407
    1SOL     OW 9477   3.776   1.546   3.947 -0.0447 -0.0598 -0.0555
    1SOL    HW2 9478   3.762   1.569   4.038  1.0302  0.5969 -0.0488
    1SOL    HW3 9479   3.713   1.599   3.899 -1.1632 -1.0005  0.3596
    1SOL    MW4 9480   3.766   1.556   3.952 -0.0505 -0.0972  0.0005
    1SOL     OW 9481   3.567   1.714   3.843 -0.4372  0.2047 -0.1541
    1SOL    HW2 9482   3.496   1.656   3.873  0.2532 -0.4470  0.2219
    1SOL    HW3 9483   3.581   1.689   3.752  0.7227 -1.0867  0.3783
    1SOL    MW4 9484   3.559   1.703   3.835 -0.1931 -0.0516 -0.0343
    1SOL     OW 9485   3.588   1.938   3.997 -0.0681  0.3644 -0.1347
    1SOL    HW2 9486   3.583   1.856   3.948 -1.2686 -0.0492  0.6615
    1SOL    HW3 9487   3.512   1.989   3.968 -0.2873  0.4837  0.6367
    1SOL    MW4 9488   3.578   1.934   3.987 -0.2556  0.3256  0.0720
    1SOL     OW 9489   3.810   2.071   3.905  0.2483 -0.7957 -0.6356
    1SOL    HW2 9490   3.880   2.007   3.920  0.7537  0.1295  1.1272
    1SOL    HW3 9491   3.731   2.028   3.936  0.6628 -0.4165  1.0016
    1SOL    MW4 9492   3.809   2.057   3.911  0.3698 -0.6237 -0.1872
    1SOL     OW 9493   3.789   2.333   3.964 -0.4086  0.3127  0.0188
    1SOL    HW2 9494   3.699   2.360   3.944 -0.7799 -1.5210 -0.9457
    1SOL    HW3 9495   3.792   2.241   3.938  1.9919  0.5822 -0.7680
    1SOL    MW4 9496   3.778   2.324   3.958 -0.1407  0.1066 -0.2124
    1SOL     OW 9497   3.565   2.454   3.869 -0.0910  0.5392  0.3276
    1SOL    HW2 9498   3.478   2.429   3.900  0.3734 -0.6625  0.6700
    1SOL    HW3 9499   3.558   2.451   3.774 -0.5899  1.0580  0.3419
    1SOL    MW4 9500   3.553   2.451   3.861 -0.0956  0.4489  0.3746
    1SOL     OW 9501   3.568   2.720   3.936 -0.1693 -0.4093  0.4644
    1SOL    HW2 9502   3.561   2.631   3.901  0.1948 -0.2257 -0.1004
    1SOL    HW3 9503   3.485   2.761   3.914  0.3616 -0.0446 -0.9422
    1SOL    MW4 9504   3.556   2.714   3.928 -0.0513 -0.3374  0.2046
    1SOL     OW 9505   3.824   2.840   3.868 -0.0066  0.6315  0.4255
    1SOL    HW2 9506   3.890   2.798   3.922  1.3295  1.0510 -0.8391
    1SOL    HW3 9507   3.744   2.790   3.884  0.5604  0.2597  2.1434
    1SOL    MW4 9508   3.822   2.828   3.877  0.2449  0.6380  0.4852
    1SOL     OW 9509   3.857   3.087   3.975 -0.0331 -0.0049  0.3943
    1SOL    HW2 9510   3.773   3.124   3.947 -0.3551 -0.6363  0.5251
    1SOL    HW3 9511   3.862   3.003   3.930  0.9941  0.4715 -0.4120
    1SOL    MW4 9512   3.847   3.081   3.965  0.0598 -0.0255  0.3057
    1SOL     OW 9513   3.587   3.180   3.896  0.1063  0.2380 -0.1912
    1SOL    HW2 9514   3.598   3.272   3.921 -2.3633  0.8553 -1.2478
    1SOL    HW3 9515   3.606   3.178   3.802 -0.5523 -0.1918 -0.3204
    1SOL    MW4 9516   3.591   3.192   3.887 -0.3061  0.2627 -0.3479
    1SOL     OW 9517   3.601   3.451   3.950  0.0839 -0.0018 -0.3043
    1SOL    HW2 9518   3.592   3.454   4.045  1.9813  3.6118 -0.1297
    1SOL    HW3 9519   3.520   3.489   3.917 -0.9056 -1.9710 -0.1917
    1SOL    MW4 9520   3.589   3.456   3.958  0.2038  0.2153 -0.2663
    1SOL     OW 9521   3.852   3.539   3.829 -0.2139  0.5708 -0.0141
    1SOL    HW2 9522   3.852   3.634   3.837 -0.3954  0.3871  2.8522
    1SOL    HW3 9523   3.763   3.512   3.851  0.4936 -0.3925  1.8240
    1SOL    MW4 9524   3.840   3.548   3.833 -0.1445  0.4196  0.6068
    1SOL     OW 9525   3.783   3.803   3.890  0.5399 -0.2090  0.5252
    1SOL    HW2 9526   3.794   3.818   3.984 -1.9613  1.7339  0.5575
    1SOL    HW3 9527   3.844   3.864   3.849 -0.2746  0.8576  0.8726
    1SOL    MW4 9528   3.793   3.813   3.897  0.1025  0.1879  0.5753
    1SOL     OW 9529   3.574   3.995   3.809 -0.0384  0.0174  0.2901
    1SOL    HW2 9530   3.598   4.075   3.855 -1.0703 -0.5093  1.8116
    1SOL    HW3 9531   3.648   3.936   3.823 -0.3034 -0.1072  1.2310
    1SOL    MW4 9532   3.587   3.997   3.817 -0.2096 -0.0682  0.6149
    1SOL     OW 9533   3.628   4.223   3.955 -0.0953 -0.0547 -0.2462
    1SOL    HW2 9534   3.612   4.254   4.045 -0.3478  0.2005 -0.3807
    1SOL    HW3 9535   3.704   4.273   3.927 -0.0932 -0.0424 -0.2201
    1SOL    MW4 9536   3.636   4.233   3.963 -0.1285 -0.0196 -0.2608
    1SOL     OW 9537   3.844   4.392   3.881  0.0154  0.4072  0.2891
    1SOL    HW2 9538   3.918   4.337   3.908  0.1716  1.1312  1.4061
    1SOL    HW3 9539   3.844   4.387   3.786  0.8569 -0.4513  0.3198
    1SOL    MW4 9540   3.854   4.384   3.872  0.1471  0.3891  0.4406
    1SOL     OW 9541   4.265   4.665   3.941 -0.2351 -0.1082  0.3115
    1SOL    HW2 9542   4.253   4.680   4.035  0.6464 -1.5010  0.6558
    1SOL    HW3 9543   4.348   4.708   3.920 -0.6918  0.6613  0.0466
    1SOL    MW4 9544   4.275   4.673   3.950 -0.1793 -0.1907  0.3216
    1SOL     OW 9545   4.052   0.110   3.790  0.2644 -0.4874 -0.1177
    1SOL    HW2 9546   4.116   0.060   3.840  1.9621  1.3744 -0.3672
    1SOL    HW3 9547   4.069   0.087   3.699  0.2757 -0.3232 -0.1562
    1SOL    MW4 9548   4.063   0.100   3.785  0.4902 -0.2201 -0.1557
    1SOL     OW 9549   4.041   0.380   3.903  0.0199 -0.1049 -0.4910
    1SOL    HW2 9550   4.071   0.391   3.993 -0.4371  1.3836 -0.5105
    1SOL    HW3 9551   4.059   0.288   3.882 -0.3096 -0.5760  1.2810
    1SOL    MW4 9552   4.047   0.369   3.912 -0.0844  0.0293 -0.2596
    1SOL     OW 9553   4.280   0.522   3.854 -0.3427  0.3193 -0.5023
    1SOL    HW2 9554   4.192   0.486   3.868  0.9051 -2.3864  0.9452
    1SOL    HW3 9555   4.299   0.505   3.762  0.1267 -2.7526  0.0930
    1SOL    MW4 9556   4.271   0.515   3.844 -0.1163 -0.4430 -0.2329
    1SOL     OW 9557   4.228   0.751   3.992  0.3443 -0.4494  0.6085
    1SOL    HW2 9558   4.145   0.777   3.951  0.2794  0.1063  1.0876
    1SOL    HW3 9559   4.253   0.670   3.946 -0.7085 -0.8874  0.7860
    1SOL    MW4 9560   4.220   0.744   3.981  0.1965 -0.4339  0.6950
    1SOL     OW 9561   4.029   0.871   3.830 -0.5478  0.0416  0.2630
    1SOL    HW2 9562   4.041   0.961   3.860 -0.8101 -0.2784  1.3627
    1SOL    HW3 9563   4.014   0.878   3.736 -1.3851  1.2159  0.4827
    1SOL    MW4 9564   4.028   0.883   3.821 -0.6933  0.1543  0.4368
    1SOL     OW 9565   4.008   1.134   3.910 -0.0924 -0.1274  0.0505
    1SOL    HW2 9566   4.014   1.130   4.005 -1.0729 -0.1064  0.1187
    1SOL    HW3 9567   4.082   1.189   3.884  0.2041 -0.1669  0.7956
    1SOL    MW4 9568   4.018   1.141   3.919 -0.1826 -0.1299  0.1576
    1SOL     OW 9569   4.250   1.264   3.830  0.1695  0.0100 -0.2695
    1SOL    HW2 9570   4.237   1.354   3.862 -3.1577  0.2533 -2.0295
    1SOL    HW3 9571   4.245   1.272   3.735  1.9189 -1.7724 -0.5159
    1SOL    MW4 9572   4.247   1.277   3.822 -0.0381 -0.1931 -0.5343
    1SOL     OW 9573   4.238   1.516   3.939 -0.5688 -0.4023 -0.0080
    1SOL    HW2 9574   4.157   1.560   3.914 -0.2107  0.2876  0.0281
    1SOL    HW3 9575   4.307   1.564   3.892 -0.0900 -0.3794  0.7094
    1SOL    MW4 9576   4.237   1.528   3.929 -0.4582 -0.3083  0.0913
    1SOL     OW 9577   4.021   1.658   3.826 -0.2688  0.2535 -0.4355
    1SOL    HW2 9578   4.035   1.741   3.873  0.2471 -1.5258  2.6608
    1SOL    HW3 9579   3.946   1.618   3.869  0.5535 -1.6916 -0.7780
    1SOL    MW4 9580   4.013   1.664   3.838 -0.0920 -0.2379 -0.0722
    1SOL     OW 9581   4.030   1.909   3.959 -0.1160  0.1284 -0.2261
    1SOL    HW2 9582   4.028   1.918   4.054 -0.3487 -1.1895 -0.1011
    1SOL    HW3 9583   4.094   1.975   3.930 -0.2211  0.6893  0.8164
    1SOL    MW4 9584   4.038   1.919   3.968 -0.1607  0.0285 -0.0722
    1SOL     OW 9585   4.250   2.074   3.851 -0.4794 -0.0280  0.5005
    1SOL    HW2 9586   4.252   2.165   3.881 -2.8815  0.4399 -0.6090
    1SOL    HW3 9587   4.259   2.080   3.756 -1.4545 -0.8698  0.3434
    1SOL    MW4 9588   4.252   2.087   3.843 -0.9246 -0.0772  0.3335
    1SOL     OW 9589   4.246   2.347   3.944  0.1189 -0.1304  0.1018
    1SOL    HW2 9590   4.244   2.356   4.039 -2.0747  0.9727 -0.0212
    1SOL    HW3 9591   4.166   2.390   3.914  0.5743 -0.8359 -2.2192
    1SOL    MW4 9592   4.236   2.354   3.953 -0.1106 -0.0780 -0.2205
    1SOL     OW 9593   4.010   2.467   3.831 -0.2919  0.2095  0.3534
    1SOL    HW2 9594   4.028   2.553   3.869 -1.9459  0.7366 -0.0471
    1SOL    HW3 9595   3.929   2.438   3.873  0.0008 -0.9632  0.1453
    1SOL    MW4 9596   4.002   2.474   3.842 -0.4716  0.1242  0.2732
    1SOL     OW 9597   4.059   2.714   3.965 -0.1757 -0.1289 -0.2518
    1SOL    HW2 9598   4.069   2.712   4.060 -2.4632  2.9706  0.1232
    1SOL    HW3 9599   4.135   2.763   3.934  0.3281 -0.7351  0.0138
    1SOL    MW4 9600   4.071   2.720   3.974 -0.4110  0.2000 -0.1674
    1SOL     OW 9601   4.275   2.854   3.882 -0.3800  0.3380  0.0991
    1SOL    HW2 9602   4.273   2.938   3.928  1.9115  0.7783 -0.5264
    1SOL    HW3 9603   4.346   2.805   3.925  0.1956 -0.1534 -1.3910
    1SOL    MW4 9604   4.284   2.858   3.894 -0.0014  0.3314 -0.1802
    1SOL     OW 9605   4.260   3.088   4.026 -0.0293  0.0292 -0.4224
    1SOL    HW2 9606   4.200   3.131   3.964 -1.1296 -0.8118  0.0432
    1SOL    HW3 9607   4.347   3.119   4.000 -0.5116  0.0028 -2.1428
    1SOL    MW4 9608   4.263   3.098   4.014 -0.2375 -0.0854 -0.5884
    1SOL     OW 9609   4.093   3.236   3.877  0.1963 -0.2355 -0.1542
    1SOL    HW2 9610   4.014   3.205   3.921 -0.3971  2.1524  0.5593
    1SOL    HW3 9611   4.081   3.212   3.785 -1.8076  0.8736 -0.2177
    1SOL    MW4 9612   4.081   3.229   3.871 -0.1469  0.2258 -0.0684
    1SOL     OW 9613   4.050   3.483   4.011 -0.5215 -0.0243  0.2273
    1SOL    HW2 9614   4.076   3.401   3.969 -0.0598  0.0835  0.3004
    1SOL    HW3 9615   3.984   3.519   3.952 -0.0669 -0.0051 -0.2847
    1SOL    MW4 9616   4.045   3.477   3.997 -0.4010 -0.0074  0.1690
    1SOL     OW 9617   4.262   3.612   3.869 -0.2538 -0.0988  0.0179
    1SOL    HW2 9618   4.193   3.568   3.917 -0.7805 -0.9669 -1.4904
    1SOL    HW3 9619   4.343   3.572   3.899 -0.5437 -0.3185  0.5019
    1SOL    MW4 9620   4.263   3.601   3.879 -0.3614 -0.2425 -0.1175
    1SOL     OW 9621   4.210   3.874   3.938  0.0963 -0.1658 -0.1002
    1SOL    HW2 9622   4.147   3.921   3.884 -2.2411 -1.2265  1.6418
    1SOL    HW3 9623   4.217   3.788   3.899 -1.0072 -0.6761  0.7970
    1SOL    MW4 9624   4.203   3.869   3.926 -0.3576 -0.3731  0.2480
    1SOL     OW 9625   4.005   4.003   3.794  0.1339 -0.0292 -0.3821
    1SOL    HW2 9626   4.021   4.087   3.836 -0.7304  0.2526 -0.5903
    1SOL    HW3 9627   4.032   4.016   3.703  0.1082 -0.0106 -0.3874
    1SOL    MW4 9628   4.010   4.016   3.788  0.0167  0.0100 -0.4103
    1SOL     OW 9629   4.077   4.228   3.924  0.0793 -0.1417  0.0683
    1SOL    HW2 9630   4.062   4.241   4.018 -1.3342  0.1677 -0.1886
    1SOL    HW3 9631   4.147   4.290   3.902 -0.6574  0.9037  0.6135
    1SOL    MW4 9632   4.084   4.238   3.934 -0.2046  0.0367  0.1066
    1SOL     OW 9633   4.278   4.400   3.833 -0.3066  0.4842  0.4219
    1SOL    HW2 9634   4.275   4.478   3.888 -0.7515 -0.0835  1.2235
    1SOL    HW3 9635   4.356   4.352   3.863  1.1262  1.5817 -1.4310
    1SOL    MW4 9636   4.288   4.404   3.844 -0.1764  0.5541  0.2828
    1SOL     OW 9637   0.231   0.014   4.251  0.0918  0.2672  0.2977
    1SOL    HW2 9638   0.323   0.041   4.258  0.0892  0.3814 -0.1006
    1SOL    HW3 9639   0.228  -0.070   4.297  0.4445  0.1553  0.1229
    1SOL    MW4 9640   0.243   0.006   4.258  0.1380  0.2670  0.2222
    1SOL     OW 9641   4.491   0.151   4.304 -0.0217  0.3397  0.1662
    1SOL    HW2 9642   4.492   0.243   4.280  0.4440  0.6036  1.1585
    1SOL    HW3 9643   4.578   0.119   4.282 -0.6817 -0.2848 -1.6842
    1SOL    MW4 9644   4.502   0.159   4.298 -0.0472  0.2921  0.0529
    1SOL     OW 9645   4.488   0.417   4.227 -0.2535  0.7139 -0.8034
    1SOL    HW2 9646   4.571   0.464   4.234  0.5694 -0.9211  0.9294
    1SOL    HW3 9647   4.490   0.377   4.140  1.1975 -0.0317 -0.4451
    1SOL    MW4 9648   4.499   0.418   4.216  0.0463  0.3998 -0.5274
    1SOL     OW 9649   4.363   2.164   4.765 -0.1773  0.3556  0.0634
    1SOL    HW2 9650   4.316   2.150   4.683  0.6268 -2.1738 -0.0188
    1SOL    HW3 9651   4.453   2.182   4.738  0.2353 -1.1685  0.3931
    1SOL    MW4 9652   4.369   2.165   4.750 -0.0162 -0.1791  0.0958
    1SOL     OW 9653   0.204   0.817   4.176 -0.0547 -0.3538 -0.2602
    1SOL    HW2 9654   0.138   0.862   4.229 -1.6574 -0.8940 -1.7722
    1SOL    HW3 9655   0.211   0.730   4.214 -0.7392 -0.5293 -0.5353
    1SOL    MW4 9656   0.196   0.811   4.188 -0.3565 -0.4482 -0.4964
    1SOL     OW 9657   0.037   1.200   4.216  0.4160  0.2240  0.1654
    1SOL    HW2 9658   0.012   1.201   4.124 -0.3079  1.0679  0.3577
    1SOL    HW3 9659  -0.038   1.238   4.262  0.8278 -0.0417  1.0870
    1SOL    MW4 9660   0.024   1.205   4.210  0.3748  0.3003  0.3123
    1SOL     OW 9661   4.267   1.268   4.307  0.4670 -0.0343 -0.1689
    1SOL    HW2 9662   4.252   1.258   4.401 -0.2532  2.4205  0.0019
    1SOL    HW3 9663   4.182   1.246   4.267  0.0849  1.2298 -0.0714
    1SOL    MW4 9664   4.254   1.263   4.315  0.3214  0.4563 -0.1330
    1SOL     OW 9665   0.431   0.050   4.590 -0.3925 -0.3263 -0.4312
    1SOL    HW2 9666   0.505   0.030   4.648  0.7162 -0.7525 -1.9721
    1SOL    HW3 9667   0.364  -0.015   4.613  0.3246 -0.9787 -0.1687
    1SOL    MW4 9668   0.432   0.039   4.601 -0.1516 -0.4686 -0.5999
    1SOL     OW 9669   4.480   1.677   4.298 -0.0014 -0.0848 -0.6210
    1SOL    HW2 9670   4.397   1.631   4.287 -0.5154  0.6042  0.3434
    1SOL    HW3 9671   4.469   1.759   4.250  0.1472 -0.0063 -0.5203
    1SOL    MW4 9672   4.468   1.682   4.290 -0.0497  0.0165 -0.4802
    1SOL     OW 9673   4.025   2.730   4.690  0.4246 -0.3786 -0.1272
    1SOL    HW2 9674   4.045   2.646   4.647 -0.5211 -0.6202 -0.1040
    1SOL    HW3 9675   4.111   2.768   4.710  0.8728 -0.1422 -2.4487
    1SOL    MW4 9676   4.039   2.724   4.687  0.3586 -0.3793 -0.4311
    1SOL     OW 9677   0.240   2.269   4.227 -0.4661  0.5458 -0.4149
    1SOL    HW2 9678   0.309   2.305   4.283 -1.4245  0.7822  0.6316
    1SOL    HW3 9679   0.243   2.175   4.241  1.6802  0.2145 -2.7359
    1SOL    MW4 9680   0.249   2.262   4.236 -0.3094  0.5331 -0.5832
    1SOL     OW 9681   3.559   1.667   4.651 -0.5310  0.4335  0.1788
    1SOL    HW2 9682   3.474   1.710   4.660 -0.4880  0.4256  0.6426
    1SOL    HW3 9683   3.537   1.576   4.629 -0.6254  0.6420 -0.5887
    1SOL    MW4 9684   3.545   1.660   4.650 -0.5379  0.4600  0.1392
    1SOL     OW 9685   0.270   1.989   4.290 -0.0439  0.1298 -0.0168
    1SOL    HW2 9686   0.286   1.980   4.384  1.8177  1.0850 -0.2092
    1SOL    HW3 9687   0.323   1.920   4.250  2.1202  2.0073 -0.5436
    1SOL    MW4 9688   0.279   1.979   4.297  0.4873  0.5035 -0.1116
    1SOL     OW 9689   0.040   2.433   4.356  0.2037 -0.4848  0.1909
    1SOL    HW2 9690   0.071   2.436   4.447  1.8770  1.3607 -0.4078
    1SOL    HW3 9691   0.101   2.374   4.312  0.4727  0.0323 -0.1276
    1SOL    MW4 9692   0.052   2.425   4.362  0.4599 -0.1729  0.0696
    1SOL     OW 9693   4.483   2.701   4.279 -0.4630  0.1318  0.2390
    1SOL    HW2 9694   4.564   2.749   4.297 -0.6443  0.5200  0.0300
    1SOL    HW3 9695   4.499   2.613   4.312  0.1007  0.1659  0.0617
    1SOL    MW4 9696   4.496   2.695   4.285 -0.4125  0.1876  0.1879
    1SOL     OW 9697   0.232   2.828   4.362  0.4147  0.2129  0.2214
    1SOL    HW2 9698   0.315   2.806   4.320  0.2764  1.5612 -0.7710
    1SOL    HW3 9699   0.209   2.914   4.327 -0.0918  1.0229  2.4601
    1SOL    MW4 9700   0.240   2.836   4.352  0.3296  0.4978  0.3867
    1SOL     OW 9701   0.152   3.082   4.257 -0.4820 -0.1751 -0.4425
    1SOL    HW2 9702   0.222   3.143   4.281  0.1808 -0.8669 -0.6088
    1SOL    HW3 9703   0.075   3.113   4.305  0.5342 -0.8565  1.6677
    1SOL    MW4 9704   0.151   3.094   4.267 -0.2605 -0.3564 -0.1864
    1SOL     OW 9705   4.423   3.195   4.421 -0.0005 -0.2831 -0.3417
    1SOL    HW2 9706   4.339   3.159   4.391 -0.4116  0.2687  0.1529
    1SOL    HW3 9707   4.433   3.275   4.370  0.1220 -0.2318 -0.2336
    1SOL    MW4 9708   4.413   3.201   4.410 -0.0381 -0.2031 -0.2623
    1SOL     OW 9709   4.437   3.466   4.286  0.3809  0.2898 -0.0883
    1SOL    HW2 9710   4.373   3.534   4.306  0.5822  0.4752 -0.0670
    1SOL    HW3 9711   4.457   3.477   4.193 -1.2641 -1.1846 -0.6414
    1SOL    MW4 9712   4.431   3.476   4.276  0.1907  0.1197 -0.1583
    1SOL     OW 9713   0.176   3.622   4.312  0.1152 -0.4100 -0.2141
    1SOL    HW2 9714   0.246   3.570   4.273  1.2458  0.5301  0.5343
    1SOL    HW3 9715   0.101   3.563   4.313  1.3446 -1.9995  0.5229
    1SOL    MW4 9716   0.175   3.607   4.307  0.4265 -0.4957 -0.0186
    1SOL     OW 9717   0.178   3.883   4.214 -0.1512 -0.2501  0.1022
    1SOL    HW2 9718   0.097   3.929   4.234 -1.1275 -1.5569 -0.8137
    1SOL    HW3 9719   0.170   3.800   4.261  0.4898 -0.5427 -0.3071
    1SOL    MW4 9720   0.166   3.878   4.223 -0.1954 -0.4613 -0.0720
    1SOL     OW 9721   4.437   4.004   4.312  0.6812 -0.3177 -0.5182
    1SOL    HW2 9722   4.434   3.996   4.407 -1.1445 -0.9329 -0.6087
    1SOL    HW3 9723   4.350   3.976   4.283  0.4455  2.0212 -2.2108
    1SOL    MW4 9724   4.425   3.999   4.321  0.4091 -0.0901 -0.7534
    1SOL     OW 9725   4.470   4.270   4.234  0.2207 -0.5367 -0.1207
    1SOL    HW2 9726   4.468   4.178   4.260  0.2300 -0.7716 -0.9520
    1SOL    HW3 9727   4.474   4.268   4.139 -2.6727  0.3430 -0.2886
    1SOL    MW4 9728   4.470   4.258   4.225 -0.1593 -0.4520 -0.2527
    1SOL     OW 9729   0.210   4.401   4.322 -0.3584  0.4146  0.1361
    1SOL    HW2 9730   0.130   4.360   4.289 -0.1971  0.3222 -0.1441
    1SOL    HW3 9731   0.280   4.341   4.297 -0.2394  0.3175  0.7055
    1SOL    MW4 9732   0.209   4.388   4.314 -0.3214  0.3891  0.1745
    1SOL     OW 9733   0.703   4.658   4.210 -0.2667  0.3261 -0.2006
    1SOL    HW2 9734   0.630   4.710   4.241 -1.7278 -0.8283 -1.6328
    1SOL    HW3 9735   0.685   4.643   4.117  0.6980 -1.7058 -0.1025
    1SOL    MW4 9736   0.691   4.663   4.201 -0.3322 -0.0939 -0.3767
    1SOL     OW 9737   0.479   0.126   4.313  0.0186  0.1603  0.0047
    1SOL    HW2 9738   0.480   0.109   4.407  0.7707  0.5630  0.0717
    1SOL    HW3 9739   0.469   0.221   4.306 -1.4027 -0.0023 -0.3425
    1SOL    MW4 9740   0.477   0.136   4.324 -0.0697  0.1920 -0.0319
    1SOL     OW 9741   0.434   0.380   4.210 -0.0059  0.6117  0.0243
    1SOL    HW2 9742   0.521   0.411   4.235  0.0922  1.1516 -0.9361
    1SOL    HW3 9743   0.445   0.349   4.120 -0.9647  1.3238 -0.3450
    1SOL    MW4 9744   0.447   0.380   4.201 -0.1194  0.7769 -0.1512
    1SOL     OW 9745   0.704   0.469   4.309  0.0037  0.0763  0.2973
    1SOL    HW2 9746   0.730   0.472   4.401  1.9275 -0.7406 -0.2036
    1SOL    HW3 9747   0.717   0.559   4.278 -3.3801  1.0845  1.4871
    1SOL    MW4 9748   0.709   0.481   4.317 -0.1889  0.1015  0.3881
    1SOL     OW 9749   0.731   0.721   4.203 -0.0626 -0.3828  0.4406
    1SOL    HW2 9750   0.654   0.756   4.249 -0.9898 -1.6468 -0.1096
    1SOL    HW3 9751   0.705   0.718   4.111  1.0827  0.2828  0.0826
    1SOL    MW4 9752   0.717   0.725   4.197 -0.0339 -0.4618  0.3214
    1SOL     OW 9753   3.840   1.669   4.649  0.5812  0.2742  0.2861
    1SOL    HW2 9754   3.746   1.687   4.650  0.4931  0.0254 -1.4218
    1SOL    HW3 9755   3.879   1.745   4.691 -0.3973  0.3188  1.1387
    1SOL    MW4 9756   3.833   1.681   4.655  0.4406  0.2472  0.1731
    1SOL     OW 9757   0.539   1.103   4.200  0.3204 -0.3064 -0.1510
    1SOL    HW2 9758   0.577   1.191   4.203  1.9742 -1.0282  0.2183
    1SOL    HW3 9759   0.515   1.091   4.108  1.9530 -0.2394 -0.6035
    1SOL    MW4 9760   0.541   1.113   4.188  0.7540 -0.3929 -0.1626
    1SOL     OW 9761   0.651   1.361   4.233 -0.2380  0.0338 -0.1843
    1SOL    HW2 9762   0.611   1.385   4.317  0.8530 -1.4275  0.7853
    1SOL    HW3 9763   0.654   1.442   4.183 -1.0799  0.8821  1.1126
    1SOL    MW4 9764   0.646   1.375   4.238 -0.2052 -0.0470  0.1149
    1SOL     OW 9765   4.210   2.064   4.567 -0.3672  0.2267  0.0295
    1SOL    HW2 9766   4.202   1.969   4.563  1.9077  0.0121 -0.1329
    1SOL    HW3 9767   4.123   2.094   4.592 -0.5868 -2.0351  2.1932
    1SOL    MW4 9768   4.197   2.055   4.570 -0.0968 -0.0997  0.2942
    1SOL     OW 9769   0.203   1.558   4.141 -0.2981 -0.5566  0.2727
    1SOL    HW2 9770   0.244   1.497   4.203 -1.7018 -0.4483  1.3110
    1SOL    HW3 9771   0.128   1.594   4.188 -0.4432  0.7459 -0.9253
    1SOL    MW4 9772   0.199   1.555   4.155 -0.5025 -0.3705  0.2518
    1SOL     OW 9773   0.707   2.078   4.355 -0.2935 -0.4241  0.1205
    1SOL    HW2 9774   0.785   2.086   4.410 -0.4592  0.4489  0.2284
    1SOL    HW3 9775   0.701   2.161   4.309 -0.6701 -0.8140 -0.5474
    1SOL    MW4 9776   0.717   2.090   4.356 -0.3650 -0.3605  0.0467
    1SOL     OW 9777   0.718   1.985   4.722  0.5206  0.0815  0.4272
    1SOL    HW2 9778   0.792   2.036   4.687  0.5585  0.1238  0.5704
    1SOL    HW3 9779   0.663   1.968   4.645  0.0671  1.0696  0.5177
    1SOL    MW4 9780   0.721   1.990   4.707  0.4658  0.2174  0.4578
    1SOL     OW 9781   0.700   2.316   4.209  0.2295 -0.2971 -0.0302
    1SOL    HW2 9782   0.687   2.326   4.115 -0.2749 -0.4908  0.0173
    1SOL    HW3 9783   0.776   2.371   4.229 -1.0716  1.6078 -0.1609
    1SOL    MW4 9784   0.708   2.325   4.199 -0.0087 -0.0713 -0.0410
    1SOL     OW 9785   0.471   2.425   4.365  0.1928 -0.3671  0.2610
    1SOL    HW2 9786   0.467   2.517   4.338  1.9068 -0.3390  0.0294
    1SOL    HW3 9787   0.534   2.385   4.305  0.6239 -1.3357  1.3402
    1SOL    MW4 9788   0.479   2.432   4.354  0.4759 -0.4911  0.3724
    1SOL     OW 9789   0.477   2.698   4.277  0.2162  0.1984 -0.2354
    1SOL    HW2 9790   0.554   2.748   4.305  0.2880 -0.8709  1.5244
    1SOL    HW3 9791   0.476   2.708   4.182  0.0551  3.7988  0.0627
    1SOL    MW4 9792   0.487   2.706   4.268  0.2044  0.5326  0.0362
    1SOL     OW 9793   0.219   3.599   4.616  0.2102  0.0720  0.6065
    1SOL    HW2 9794   0.314   3.601   4.614  0.2239  0.8362  1.6406
    1SOL    HW3 9795   0.193   3.590   4.524  1.2372  2.3084  0.0527
    1SOL    MW4 9796   0.228   3.598   4.604  0.3475  0.4680  0.6695
    1SOL     OW 9797   0.612   3.093   4.238  0.4890  0.1151 -0.0532
    1SOL    HW2 9798   0.683   3.154   4.258 -0.2530  1.0502 -0.2682
    1SOL    HW3 9799   0.532   3.145   4.246 -0.2433 -1.1331  1.0428
    1SOL    MW4 9800   0.611   3.108   4.242  0.2945  0.0737  0.0629
    1SOL     OW 9801   0.367   3.227   4.342  0.2188  0.5311 -0.3457
    1SOL    HW2 9802   0.410   3.232   4.427  1.0873 -0.7009 -0.6926
    1SOL    HW3 9803   0.366   3.317   4.310  0.8151  0.8499  0.5263
    1SOL    MW4 9804   0.372   3.239   4.349  0.4121  0.4108 -0.2766
    1SOL     OW 9805   0.405   3.484   4.278 -0.3770 -0.3422  0.3354
    1SOL    HW2 9806   0.483   3.512   4.327  0.4151 -1.0771 -0.4843
    1SOL    HW3 9807   0.433   3.483   4.186 -1.1940 -1.1289  0.0855
    1SOL    MW4 9808   0.419   3.488   4.272 -0.3803 -0.5431  0.1941
    1SOL     OW 9809   0.646   3.609   4.361  0.4254  0.2818 -0.0114
    1SOL    HW2 9810   0.661   3.600   4.455  0.1221  0.2292  0.0316
    1SOL    HW3 9811   0.729   3.581   4.321  0.5270  0.2272  0.2347
    1SOL    MW4 9812   0.659   3.604   4.368  0.3988  0.2675  0.0267
    1SOL     OW 9813   0.671   3.867   4.223  0.2265  0.1713  0.0186
    1SOL    HW2 9814   0.597   3.922   4.251 -1.0149 -0.1515 -2.4441
    1SOL    HW3 9815   0.662   3.786   4.274 -1.3531 -0.0037 -0.5094
    1SOL    MW4 9816   0.660   3.864   4.234 -0.1457  0.1056 -0.3762
    1SOL     OW 9817   0.424   3.970   4.321  0.4262 -0.0468  0.2743
    1SOL    HW2 9818   0.427   4.061   4.290 -1.9763  0.1796  0.6056
    1SOL    HW3 9819   0.340   3.937   4.290  0.9194 -1.9210  0.8711
    1SOL    MW4 9820   0.413   3.978   4.313  0.1743 -0.2639  0.3967
    1SOL     OW 9821   0.409   4.231   4.232 -0.0402 -0.0331 -0.3499
    1SOL    HW2 9822   0.475   4.296   4.255 -0.0002 -0.4702  0.8046
    1SOL    HW3 9823   0.402   4.236   4.137 -0.8240  2.4041 -0.1864
    1SOL    MW4 9824   0.417   4.240   4.223 -0.1383  0.2303 -0.1764
    1SOL     OW 9825   0.631   4.381   4.281  0.4121 -0.1441 -0.2220
    1SOL    HW2 9826   0.638   4.389   4.376 -0.4399  0.3888 -0.2000
    1SOL    HW3 9827   0.660   4.465   4.247 -2.7599  0.9856 -0.2571
    1SOL    MW4 9828   0.636   4.393   4.289 -0.1189  0.0753 -0.2232
    1SOL     OW 9829   1.131   4.650   4.224 -0.2447 -0.2840  0.4350
    1SOL    HW2 9830   1.121   4.565   4.267 -3.0098  0.6530  1.7634
    1SOL    HW3 9831   1.109   4.633   4.132 -1.9059 -0.8084  0.9064
    1SOL    MW4 9832   1.126   4.636   4.217 -0.8287 -0.2294  0.6728
    1SOL     OW 9833   0.906   0.116   4.331  0.4368 -0.2716  0.6709
    1SOL    HW2 9834   0.978   0.074   4.284  0.2639  0.9237 -0.6808
    1SOL    HW3 9835   0.827   0.075   4.297  0.3533  0.0854  0.4291
    1SOL    MW4 9836   0.905   0.105   4.321  0.4030 -0.0668  0.4606
    1SOL     OW 9837   0.934   0.355   4.201 -0.3908 -0.0540 -0.2686
    1SOL    HW2 9838   0.948   0.270   4.243  1.2573  1.5835  2.6841
    1SOL    HW3 9839   0.855   0.390   4.243  0.1300  0.7323  0.0829
    1SOL    MW4 9840   0.926   0.348   4.212 -0.1046  0.2658  0.1669
    1SOL     OW 9841   1.143   0.546   4.219  0.1479 -0.0943 -0.0811
    1SOL    HW2 9842   1.065   0.491   4.221 -0.7779  1.2039  0.6126
    1SOL    HW3 9843   1.217   0.485   4.219 -0.8785 -1.3402 -1.3442
    1SOL    MW4 9844   1.143   0.531   4.220 -0.1097 -0.0874 -0.1559
    1SOL     OW 9845   1.153   0.812   4.144 -0.1470 -0.2502  0.1765
    1SOL    HW2 9846   1.219   0.857   4.197  0.7700 -0.7054 -0.5818
    1SOL    HW3 9847   1.148   0.725   4.182 -0.4593 -0.1560  0.3561
    1SOL    MW4 9848   1.161   0.807   4.156 -0.0672 -0.2978  0.1011
    1SOL     OW 9849   0.915   0.911   4.262 -0.3214  0.0332 -0.2205
    1SOL    HW2 9850   0.999   0.883   4.227 -0.2712 -0.7633  0.5226
    1SOL    HW3 9851   0.854   0.843   4.234 -0.5852  0.2343 -0.1314
    1SOL    MW4 9852   0.918   0.899   4.253 -0.3496 -0.0454 -0.1106
    1SOL     OW 9853   0.904   1.183   4.185 -0.1069 -0.2115 -0.5417
    1SOL    HW2 9854   0.907   1.096   4.225 -0.5534  0.3573  0.7235
    1SOL    HW3 9855   0.830   1.226   4.226  0.8851  1.2355 -0.2256
    1SOL    MW4 9856   0.895   1.177   4.195 -0.0349  0.0545 -0.3333
    1SOL     OW 9857   1.124   1.311   4.276  0.2778  0.2899  0.1611
    1SOL    HW2 9858   1.088   1.332   4.362  1.0279 -0.7087  0.7215
    1SOL    HW3 9859   1.057   1.258   4.234  0.4798 -0.3543  0.6512
    1SOL    MW4 9860   1.110   1.307   4.282  0.4035  0.0731  0.2999
    1SOL     OW 9861   1.078   1.564   4.158  0.3018 -0.4393 -0.1225
    1SOL    HW2 9862   1.012   1.611   4.209  0.0140  1.4873 -2.1779
    1SOL    HW3 9863   1.090   1.481   4.205 -1.5470  0.3286  1.8107
    1SOL    MW4 9864   1.071   1.559   4.171  0.0200 -0.0836 -0.1383
    1SOL     OW 9865   0.574   1.684   4.379 -0.4906 -0.0730  0.3598
    1SOL    HW2 9866   0.546   1.600   4.415 -0.8812 -0.3392 -0.5519
    1SOL    HW3 9867   0.512   1.701   4.307  0.2525  0.4664 -0.1543
    1SOL    MW4 9868   0.562   1.675   4.374 -0.4441 -0.0370  0.1721
    1SOL     OW 9869   0.900   1.918   4.211 -0.1437 -0.5250  0.2106
    1SOL    HW2 9870   0.829   1.977   4.236  0.5404  0.9608 -1.2663
    1SOL    HW3 9871   0.890   1.906   4.116  1.4892 -0.3813 -0.0093
    1SOL    MW4 9872   0.890   1.924   4.201  0.1620 -0.3101 -0.0134
    1SOL     OW 9873   1.142   2.047   4.280  0.0878 -0.4228  0.1043
    1SOL    HW2 9874   1.162   2.029   4.372  1.3178  0.5389  0.0412
    1SOL    HW3 9875   1.058   2.003   4.265  1.2210 -2.9764  0.9063
    1SOL    MW4 9876   1.133   2.039   4.290  0.3996 -0.6330  0.2017
    1SOL     OW 9877   1.135   2.319   4.171 -0.3381 -0.4733  0.5362
    1SOL    HW2 9878   1.202   2.368   4.218 -0.2871 -0.3814  0.3682
    1SOL    HW3 9879   1.141   2.230   4.205  1.3537 -0.9929 -1.0283
    1SOL    MW4 9880   1.144   2.314   4.181 -0.1081 -0.5298  0.3080
    1SOL     OW 9881   0.922   2.467   4.269  0.1708  0.4863  0.0894
    1SOL    HW2 9882   0.929   2.450   4.363  1.2975 -1.3539 -0.2936
    1SOL    HW3 9883   0.997   2.421   4.231  0.8132  2.8140 -1.5320
    1SOL    MW4 9884   0.933   2.458   4.276  0.4042  0.5505 -0.1750
    1SOL     OW 9885   0.921   2.739   4.195  0.5469 -0.1511  0.0177
    1SOL    HW2 9886   0.925   2.656   4.243  1.5282 -0.8423 -1.2372
    1SOL    HW3 9887   1.007   2.779   4.212  0.6086 -0.0518 -0.5402
    1SOL    MW4 9888   0.933   2.733   4.204  0.6846 -0.2291 -0.2213
    1SOL     OW 9889   1.175   2.835   4.278  0.1300 -0.1952 -0.7506
    1SOL    HW2 9890   1.151   2.928   4.273 -0.0194 -0.0879  1.3884
    1SOL    HW3 9891   1.264   2.832   4.243  0.6850  1.0084  0.5061
    1SOL    MW4 9892   1.184   2.847   4.273  0.1837 -0.0222 -0.3028
    1SOL     OW 9893   1.081   3.099   4.220 -0.2037  0.1974 -0.3409
    1SOL    HW2 9894   1.131   3.172   4.256  0.0187  0.3702 -1.0056
    1SOL    HW3 9895   1.095   3.104   4.126 -0.5006 -0.4720 -0.4223
    1SOL    MW4 9896   1.090   3.109   4.213 -0.2136  0.1318 -0.4396
    1SOL     OW 9897   0.848   3.217   4.290 -0.2843 -0.0285  0.1157
    1SOL    HW2 9898   0.853   3.223   4.385 -0.3451  0.7042  0.0798
    1SOL    HW3 9899   0.927   3.170   4.264 -0.6826 -0.9739  0.5865
    1SOL    MW4 9900   0.859   3.212   4.299 -0.3448 -0.0565  0.1731
    1SOL     OW 9901   0.880   3.479   4.248 -0.2979  0.5519 -0.4921
    1SOL    HW2 9902   0.881   3.384   4.260  0.8273  0.6194  0.0174
    1SOL    HW3 9903   0.898   3.491   4.155 -0.2805  0.2647 -0.5279
    1SOL    MW4 9904   0.882   3.468   4.238 -0.1471  0.5231 -0.4292
    1SOL     OW 9905   1.126   3.600   4.357 -0.2197  0.0763 -0.3076
    1SOL    HW2 9906   1.133   3.687   4.317  0.3770  0.5327  0.7642
    1SOL    HW3 9907   1.055   3.557   4.309  0.3410  0.6819 -1.7154
    1SOL    MW4 9908   1.118   3.606   4.345 -0.0669  0.2165 -0.3519
    1SOL     OW 9909   1.169   3.873   4.253  0.1853  0.0701 -0.3043
    1SOL    HW2 9910   1.238   3.925   4.295  0.1299  0.9511 -1.2824
    1SOL    HW3 9911   1.088   3.914   4.282  0.1538  0.9075 -1.5368
    1SOL    MW4 9912   1.168   3.885   4.263  0.1738  0.2966 -0.5960
    1SOL     OW 9913   0.917   3.979   4.310 -0.1020 -0.0451  0.1151
    1SOL    HW2 9914   0.922   4.073   4.294 -0.9448  0.0367  0.3195
    1SOL    HW3 9915   0.839   3.951   4.262 -0.0173 -0.5898  0.2945
    1SOL    MW4 9916   0.907   3.988   4.301 -0.2020 -0.1063  0.1664
    1SOL     OW 9917   0.876   4.248   4.241 -0.2732 -0.4391  0.0332
    1SOL    HW2 9918   0.948   4.305   4.271  0.3410 -1.0237 -0.3242
    1SOL    HW3 9919   0.797   4.289   4.276  0.3374 -0.4606  1.4551
    1SOL    MW4 9920   0.875   4.261   4.249 -0.1116 -0.5183  0.1736
    1SOL     OW 9921   1.089   4.393   4.331 -0.2027  0.1435  0.2170
    1SOL    HW2 9922   1.090   4.403   4.426 -1.6550 -0.3208  0.3102
    1SOL    HW3 9923   1.172   4.352   4.310  0.3986  0.8356  1.2154
    1SOL    MW4 9924   1.100   4.389   4.340 -0.3151  0.1731  0.3610
    1SOL     OW 9925   1.576   4.615   4.244 -0.4040  0.4050  0.1645
    1SOL    HW2 9926   1.650   4.676   4.244 -0.7633  0.8421 -0.4681
    1SOL    HW3 9927   1.503   4.667   4.277 -0.3846 -0.0818  0.9753
    1SOL    MW4 9928   1.576   4.630   4.248 -0.4488  0.3986  0.1884
    1SOL     OW 9929   1.356   0.108   4.311  0.4341  0.7360 -0.2663
    1SOL    HW2 9930   1.328   0.110   4.403  0.4487  2.4081 -0.2790
    1SOL    HW3 9931   1.281   0.073   4.264 -0.6512  2.5920  0.0420
    1SOL    MW4 9932   1.343   0.104   4.317  0.2928  1.2015 -0.2270
    1SOL     OW 9933   1.353   0.367   4.212 -0.0619  0.3745  0.0625
    1SOL    HW2 9934   1.431   0.407   4.250 -0.6910  0.1855  1.6116
    1SOL    HW3 9935   1.351   0.278   4.248 -0.4776  0.0530 -0.7237
    1SOL    MW4 9936   1.363   0.361   4.222 -0.1998  0.3071  0.1636
    1SOL     OW 9937   1.586   0.512   4.284 -0.0693 -0.3362  0.0085
    1SOL    HW2 9938   1.571   0.599   4.247  1.2766 -0.0841  0.0516
    1SOL    HW3 9939   1.628   0.529   4.368  0.2221 -1.0336  0.0069
    1SOL    MW4 9940   1.589   0.526   4.290  0.1467 -0.3949  0.0138
    1SOL     OW 9941   1.561   0.769   4.176  0.4805 -0.2131 -0.0442
    1SOL    HW2 9942   1.635   0.819   4.210 -0.6703  1.0973  0.5727
    1SOL    HW3 9943   1.559   0.788   4.082  0.2963  0.5777  0.1198
    1SOL    MW4 9944   1.570   0.778   4.168  0.3043  0.0640  0.0591
    1SOL     OW 9945   1.352   0.927   4.283 -0.3417  0.2941 -0.0433
    1SOL    HW2 9946   1.347   1.019   4.254  0.9127  0.8048  1.2798
    1SOL    HW3 9947   1.431   0.893   4.240 -0.2706  0.1229  0.2224
    1SOL    MW4 9948   1.362   0.935   4.274 -0.1668  0.3389  0.1669
    1SOL     OW 9949   1.369   1.197   4.199  0.5732  0.4734  0.3066
    1SOL    HW2 9950   1.291   1.237   4.238 -0.0417  0.0535 -0.4771
    1SOL    HW3 9951   1.358   1.209   4.105  0.0737 -2.0648  0.0075
    1SOL    MW4 9952   1.357   1.203   4.192  0.4262  0.0831  0.1636
    1SOL     OW 9953   1.546   1.236   4.396 -0.0450 -0.1941  0.4309
    1SOL    HW2 9954   1.482   1.233   4.325 -0.1660 -1.1997  0.5713
    1SOL    HW3 9955   1.629   1.210   4.355 -0.1457 -0.9338  0.6770
    1SOL    MW4 9956   1.549   1.232   4.381 -0.0741 -0.4244  0.4821
    1SOL     OW 9957   1.565   1.494   4.203 -0.3667  0.2062 -0.1945
    1SOL    HW2 9958   1.489   1.533   4.247  0.3666  1.0207  0.3767
    1SOL    HW3 9959   1.580   1.412   4.250 -0.5271  0.3452  0.1033
    1SOL    MW4 9960   1.557   1.489   4.215 -0.2911  0.3320 -0.0796
    1SOL     OW 9961   1.335   1.631   4.256 -0.2895 -1.1503 -0.6771
    1SOL    HW2 9962   1.346   1.721   4.225 -0.2521 -0.7654  0.4143
    1SOL    HW3 9963   1.249   1.604   4.223 -1.4302  0.1912  1.0826
    1SOL    MW4 9964   1.325   1.639   4.247 -0.4350 -0.9224 -0.3009
    1SOL     OW 9965   1.371   1.902   4.167 -0.1014  0.7538  0.3925
    1SOL    HW2 9966   1.438   1.940   4.224 -0.9247  1.3480  0.9632
    1SOL    HW3 9967   1.290   1.947   4.190 -0.8987 -0.6289  0.3627
    1SOL    MW4 9968   1.369   1.913   4.177 -0.3153  0.6497  0.4644
    1SOL     OW 9969   1.597   1.971   4.326 -0.5089 -0.3419  0.0332
    1SOL    HW2 9970   1.621   2.063   4.330 -1.0331 -0.1633 -0.8665
    1SOL    HW3 9971   1.674   1.927   4.288  0.1831 -0.4564  1.5047
    1SOL    MW4 9972   1.611   1.977   4.322 -0.4867 -0.3334  0.1082
    1SOL     OW 9973   1.736   2.270   4.118 -0.0821  0.0562  0.2664
    1SOL    HW2 9974   1.682   2.291   4.042  0.3854 -0.8664 -0.3282
    1SOL    HW3 9975   1.826   2.275   4.085  0.0703 -1.8411  0.3743
    1SOL    MW4 9976   1.741   2.273   4.104 -0.0004 -0.3159  0.2017
    1SOL     OW 9977   1.498   2.305   4.775  0.1952 -0.4893 -0.0634
    1SOL    HW2 9978   1.591   2.326   4.781 -0.0911  0.6835  0.3557
    1SOL    HW3 9979   1.454   2.389   4.764 -0.8212 -1.0333 -0.3071
    1SOL    MW4 9980   1.504   2.319   4.774  0.0235 -0.4063 -0.0401
    1SOL     OW 9981   1.148   2.525   4.542  0.3671 -0.3381  0.5983
    1SOL    HW2 9982   1.216   2.491   4.484 -2.1270 -1.1719 -1.9407
    1SOL    HW3 9983   1.144   2.618   4.522  1.4745 -0.0928  1.5100
    1SOL    MW4 9984   1.156   2.533   4.532  0.1843 -0.4156  0.3834
    1SOL     OW 9985   0.536   1.433   4.489  0.3492 -0.3647 -0.0147
    1SOL    HW2 9986   0.461   1.424   4.549 -0.0817  0.3670 -0.4248
    1SOL    HW3 9987   0.610   1.395   4.536 -0.5306 -2.2300 -0.0966
    1SOL    MW4 9988   0.536   1.427   4.503  0.1763 -0.5143 -0.0796
    1SOL     OW 9989   1.431   2.808   4.190 -0.7013 -0.7135  0.1107
    1SOL    HW2 9990   1.451   2.738   4.252 -0.1231 -1.7203 -1.1807
    1SOL    HW3 9991   1.504   2.870   4.199 -0.9016 -0.5851  0.8230
    1SOL    MW4 9992   1.444   2.807   4.199 -0.6514 -0.8295  0.0343
    1SOL     OW 9993   1.823   3.727   4.864  0.0476 -0.2992  0.1256
    1SOL    HW2 9994   1.758   3.774   4.812  0.3594 -2.1273 -2.0001
    1SOL    HW3 9995   1.901   3.783   4.862 -1.1535  1.4935  1.9674
    1SOL    MW4 9996   1.825   3.740   4.857 -0.0697 -0.3037  0.0882
    1SOL     OW 9997   1.388   3.497   4.253 -0.0164  0.5252 -0.0345
    1SOL    HW2 9998   1.304   3.539   4.272  0.7224  1.6904  0.7036
    1SOL    HW3 9999   1.389   3.486   4.158 -1.5499 -0.6665  0.0608
    1SOL    MW410000   1.377   3.501   4.243 -0.1212  0.5217  0.0763
    1SOL     OW10001   1.601   3.673   4.323  0.0882 -0.4926 -0.2497
    1SOL    HW210002   1.525   3.624   4.291 -1.9704  1.8303  0.9204
    1SOL    HW310003   1.610   3.646   4.414  0.4854 -0.5462 -0.3056
    1SOL    MW410004   1.592   3.663   4.331 -0.1311 -0.1931 -0.1025
    1SOL     OW10005   1.579   3.944   4.249 -0.2162  0.2660  0.5987
    1SOL    HW210006   1.573   3.935   4.154  0.4068 -0.2832  0.6121
    1SOL    HW310007   1.575   3.855   4.282  2.3751  0.2295  0.9211
    1SOL    MW410008   1.578   3.931   4.241  0.2079  0.1886  0.6428
    1SOL     OW10009   1.359   4.026   4.399  0.2053  0.4487 -0.3099
    1SOL    HW210010   1.432   3.998   4.344  0.2822  0.8071 -0.3969
    1SOL    HW310011   1.338   4.114   4.367 -0.3703  0.2848 -0.3985
    1SOL    MW410012   1.365   4.034   4.387  0.1396  0.4740 -0.3333
    1SOL     OW10013   1.323   4.270   4.268  0.2258 -0.2920  0.2282
    1SOL    HW210014   1.408   4.307   4.290 -0.1415  0.6949  0.0114
    1SOL    HW310015   1.324   4.261   4.173  0.1047 -0.3379  0.2308
    1SOL    MW410016   1.334   4.273   4.258  0.1613 -0.1678  0.2003
    1SOL     OW10017   1.325   4.262   4.730  0.6106 -0.2840 -0.3044
    1SOL    HW210018   1.395   4.314   4.689  1.8360 -0.7035  1.2128
    1SOL    HW310019   1.345   4.172   4.703  1.4340 -0.5655  1.2092
    1SOL    MW410020   1.337   4.257   4.721  0.8808 -0.3762  0.0958
    1SOL     OW10021   2.021   4.664   4.212 -0.0572 -0.0517 -0.2758
    1SOL    HW210022   1.937   4.708   4.219 -0.2130 -0.3592 -0.1882
    1SOL    HW310023   2.031   4.646   4.119  1.0083  2.1014 -0.6059
    1SOL    MW410024   2.011   4.667   4.201  0.0627  0.1917 -0.3076
    1SOL     OW10025   1.790   0.129   4.256  0.3837  0.0576 -0.2104
    1SOL    HW210026   1.806   0.135   4.350 -0.7768 -0.9847  0.0554
    1SOL    HW310027   1.796   0.220   4.225 -1.1574  0.6523  1.1794
    1SOL    MW410028   1.793   0.142   4.264  0.0272 -0.0015  0.0081
    1SOL     OW10029   1.801   0.388   4.175  0.3416  0.2815 -0.3043
    1SOL    HW210030   1.868   0.412   4.240  0.9396 -1.1600 -0.3493
    1SOL    HW310031   1.721   0.430   4.206  0.3510 -1.3117  2.0303
    1SOL    MW410032   1.800   0.396   4.188  0.4216 -0.1189 -0.0029
    1SOL     OW10033   2.012   0.492   4.320 -0.1750  0.1701 -0.6750
    1SOL    HW210034   2.022   0.541   4.401 -0.0996 -0.3435 -0.3670
    1SOL    HW310035   2.102   0.473   4.292 -0.2117 -0.3354 -0.4557
    1SOL    MW410036   2.025   0.496   4.327 -0.1700  0.0356 -0.6056
    1SOL     OW10037   2.003   0.756   4.225  0.0615  0.4617 -0.2012
    1SOL    HW210038   2.079   0.797   4.267 -0.0823  0.5385 -0.0177
    1SOL    HW310039   2.011   0.663   4.248  0.4831  0.3542 -0.7616
    1SOL    MW410040   2.014   0.749   4.234  0.0980  0.4576 -0.2508
    1SOL     OW10041   1.782   0.903   4.307 -0.2456  0.8197  0.9438
    1SOL    HW210042   1.773   0.882   4.400 -1.7502  0.4657  0.7399
    1SOL    HW310043   1.852   0.845   4.276 -1.9212 -1.4174  1.1750
    1SOL    MW410044   1.790   0.893   4.315 -0.6652  0.4779  0.9475
    1SOL     OW10045   1.757   1.172   4.230  0.1775  0.0854 -0.1776
    1SOL    HW210046   1.760   1.079   4.253 -0.2182 -0.0287 -0.5628
    1SOL    HW310047   1.848   1.200   4.233  0.6806 -1.0470 -2.9162
    1SOL    MW410048   1.769   1.163   4.233  0.1917 -0.0790 -0.5894
    1SOL     OW10049   2.021   1.277   4.243  0.2525 -0.4939  0.2673
    1SOL    HW210050   2.004   1.366   4.214  1.7747 -0.4186 -0.4327
    1SOL    HW310051   2.033   1.284   4.338  0.1475  0.0172  0.2410
    1SOL    MW410052   2.021   1.290   4.252  0.4394 -0.4164  0.1717
    1SOL     OW10053   1.997   1.528   4.173 -0.3012  0.1543  0.1690
    1SOL    HW210054   2.008   1.533   4.078  0.7994 -1.6668  0.1873
    1SOL    HW310055   2.081   1.556   4.208 -0.7071  0.8201  0.6251
    1SOL    MW410056   2.010   1.533   4.165 -0.2093  0.0018  0.2313
    1SOL     OW10057   1.779   1.639   4.312  0.2052  0.2310 -0.1126
    1SOL    HW210058   1.705   1.589   4.277  1.0492 -0.2184 -1.3090
    1SOL    HW310059   1.856   1.599   4.270  1.2745 -0.4502  2.4233
    1SOL    MW410060   1.780   1.627   4.302  0.4575  0.0819  0.0639
    1SOL     OW10061   1.817   1.870   4.186  0.4521 -0.6916 -0.1769
    1SOL    HW210062   1.801   1.786   4.229  1.1976 -0.9081 -0.3104
    1SOL    HW310063   1.894   1.905   4.230 -0.1589  0.1699  0.2288
    1SOL    MW410064   1.825   1.864   4.197  0.4699 -0.6063 -0.1411
    1SOL     OW10065   1.607   2.250   4.363  0.0540  0.3704 -0.0466
    1SOL    HW210066   1.629   2.260   4.271 -0.1025 -0.0414 -0.1282
    1SOL    HW310067   1.673   2.302   4.410  0.4414  0.1530 -0.3554
    1SOL    MW410068   1.618   2.259   4.357  0.0844  0.2871 -0.0978
    1SOL     OW10069   1.970   2.883   4.179 -0.4113 -0.1178  0.6106
    1SOL    HW210070   2.000   2.795   4.157  0.3218  0.1734  0.4371
    1SOL    HW310071   1.961   2.883   4.275 -1.4324 -0.6945  0.5269
    1SOL    MW410072   1.973   2.872   4.189 -0.4493 -0.1554  0.5765
    1SOL     OW10073   1.809   2.413   4.473  0.3736  0.2931 -0.4298
    1SOL    HW210074   1.793   2.504   4.448 -3.7153 -0.1227  0.2985
    1SOL    HW310075   1.794   2.411   4.568  0.8781 -1.0657 -0.3631
    1SOL    MW410076   1.805   2.425   4.483 -0.0994  0.0591 -0.3238
    1SOL     OW10077   1.508   2.637   4.385 -0.0170 -0.1101  0.0196
    1SOL    HW210078   1.601   2.627   4.367 -0.0873  0.6126 -0.7305
    1SOL    HW310079   1.503   2.708   4.448  0.0172 -0.8699  0.8930
    1SOL    MW410080   1.519   2.645   4.391 -0.0218 -0.1152  0.0358
    1SOL     OW10081   1.417   3.087   4.309 -0.3094 -0.3720 -0.2966
    1SOL    HW210082   1.460   3.034   4.376  0.3920  0.1076 -0.3716
    1SOL    HW310083   1.486   3.142   4.273 -0.4540 -1.3524 -2.1341
    1SOL    MW410084   1.432   3.087   4.313 -0.2359 -0.4380 -0.5488
    1SOL     OW10085   2.074   3.177   4.272  0.0350 -0.7184 -0.6030
    1SOL    HW210086   2.044   3.173   4.181  0.2078  0.0379 -0.6996
    1SOL    HW310087   1.996   3.161   4.325 -0.0714 -1.1304 -0.8802
    1SOL    MW410088   2.060   3.174   4.267  0.0436 -0.6728 -0.6523
    1SOL     OW10089   1.247   3.286   4.388  0.8388  0.2504 -0.3162
    1SOL    HW210090   1.298   3.208   4.369  1.0184  0.5633 -1.1174
    1SOL    HW310091   1.302   3.359   4.359 -0.2034  0.5690 -1.5429
    1SOL    MW410092   1.261   3.286   4.382  0.7248  0.3340 -0.5832
    1SOL     OW10093   1.766   3.486   4.213 -0.4512 -0.0622 -0.2751
    1SOL    HW210094   1.702   3.549   4.245  0.5743  0.4962  0.7133
    1SOL    HW310095   1.770   3.501   4.119 -0.8678  0.7207 -0.1683
    1SOL    MW410096   1.758   3.496   4.205 -0.3709  0.1149 -0.1302
    1SOL     OW10097   1.991   3.598   4.295  0.1477 -0.2909  0.3637
    1SOL    HW210098   1.917   3.542   4.270 -0.6205  0.0234  1.8905
    1SOL    HW310099   1.974   3.681   4.250 -0.4868 -0.1792  0.8087
    1SOL    MW410100   1.979   3.602   4.286 -0.0373 -0.2346  0.6237
    1SOL     OW10101   2.007   3.872   4.221 -0.0011  0.6695  0.0339
    1SOL    HW210102   1.942   3.924   4.270 -0.3430  0.2637  0.0157
    1SOL    HW310103   1.975   3.874   4.131 -0.1976  0.1580  0.0877
    1SOL    MW410104   1.994   3.879   4.216 -0.0721  0.5486  0.0386
    1SOL     OW10105   1.814   4.036   4.369  0.4368  0.1359  0.1863
    1SOL    HW210106   1.725   4.003   4.357  0.6593 -0.5002  0.2622
    1SOL    HW310107   1.828   4.036   4.463  0.8314 -0.6173  0.1321
    1SOL    MW410108   1.804   4.032   4.380  0.5182 -0.0472  0.1893
    1SOL     OW10109   1.839   4.276   4.217  0.0944  0.5238 -0.0420
    1SOL    HW210110   1.890   4.341   4.265  0.7980  0.0576 -0.1524
    1SOL    HW310111   1.832   4.202   4.277 -0.8596  0.7653  0.1533
    1SOL    MW410112   1.845   4.275   4.231  0.0613  0.4945 -0.0310
    1SOL     OW10113   2.027   4.424   4.337 -0.0186 -0.0286 -0.2193
    1SOL    HW210114   2.004   4.459   4.424 -0.5283  0.1721 -0.4381
    1SOL    HW310115   2.027   4.501   4.280 -0.0451 -0.2204 -0.4753
    1SOL    MW410116   2.024   4.439   4.341 -0.0894 -0.0272 -0.2818
    1SOL     OW10117   2.438   4.642   4.172 -0.0823  0.2072 -0.3286
    1SOL    HW210118   2.503   4.691   4.223 -0.2720 -0.9959  1.1009
    1SOL    HW310119   2.430   4.558   4.217 -2.7927  0.4009 -0.3539
    1SOL    MW410120   2.445   4.637   4.185 -0.4647  0.0744 -0.1431
    1SOL     OW10121   2.261   0.153   4.265 -0.2565 -0.2544  0.1582
    1SOL    HW210122   2.318   0.081   4.240 -0.5123 -1.5107  3.1068
    1SOL    HW310123   2.172   0.121   4.248 -0.3422 -0.4586  0.9582
    1SOL    MW410124   2.257   0.140   4.259 -0.3014 -0.4471  0.6523
    1SOL     OW10125   2.272   0.422   4.177 -0.1818  0.5076 -0.1384
    1SOL    HW210126   2.289   0.330   4.192  1.1176  0.7064 -0.3361
    1SOL    HW310127   2.259   0.429   4.082 -1.0704  0.4035 -0.0247
    1SOL    MW410128   2.273   0.411   4.166 -0.1276  0.5201 -0.1493
    1SOL     OW10129   2.520   0.509   4.267 -0.0545  0.2109  0.2099
    1SOL    HW210130   2.529   0.529   4.360  1.5176 -1.4419  0.4488
    1SOL    HW310131   2.430   0.480   4.256 -0.4625  1.1433  1.0573
    1SOL    MW410132   2.509   0.508   4.278  0.0994  0.1159  0.3529
    1SOL     OW10133   2.482   0.796   4.177  0.4016 -0.3198 -0.3736
    1SOL    HW210134   2.477   0.706   4.210 -0.1575 -0.1757 -0.0567
    1SOL    HW310135   2.481   0.787   4.081  0.6534 -0.6668 -0.3422
    1SOL    MW410136   2.481   0.783   4.168  0.3610 -0.3466 -0.3276
    1SOL     OW10137   2.251   0.882   4.315  0.4302 -0.1481  0.0559
    1SOL    HW210138   2.224   0.969   4.288  0.6012  0.1281  0.7736
    1SOL    HW310139   2.330   0.864   4.263  1.1181  0.6354  0.8083
    1SOL    MW410140   2.258   0.891   4.305  0.5436 -0.0083  0.2499
    1SOL     OW10141   2.256   1.137   4.193 -0.0608  0.2140 -0.4262
    1SOL    HW210142   2.329   1.186   4.231 -0.2971  0.2707 -0.0523
    1SOL    HW310143   2.178   1.177   4.230 -0.2547 -0.4357 -0.1334
    1SOL    MW410144   2.256   1.149   4.203 -0.1175  0.1357 -0.3381
    1SOL     OW10145   2.469   1.263   4.319 -0.3871 -0.0441 -0.0317
    1SOL    HW210146   2.465   1.355   4.294 -0.7608 -0.3145 -1.0186
    1SOL    HW310147   2.552   1.232   4.281  0.1424  0.0746  0.9998
    1SOL    MW410148   2.480   1.271   4.310 -0.3664 -0.0641 -0.0257
    1SOL     OW10149   2.470   1.559   4.204  0.4609  0.0632 -0.3624
    1SOL    HW210150   2.541   1.618   4.231  0.2597  0.5429 -0.8609
    1SOL    HW310151   2.491   1.537   4.113  0.5233 -0.6191 -0.1816
    1SOL    MW410152   2.482   1.564   4.196  0.4427  0.0366 -0.4039
    1SOL     OW10153   1.749   0.835   4.579  0.2641  0.0977 -0.2111
    1SOL    HW210154   1.832   0.860   4.620  1.3108 -0.8785 -1.7175
    1SOL    HW310155   1.693   0.912   4.590  1.3346  0.7380  0.8688
    1SOL    MW410156   1.752   0.848   4.586  0.5434  0.0534 -0.2675
    1SOL     OW10157   2.017   0.953   4.639 -0.3114 -0.0707 -0.1202
    1SOL    HW210158   2.106   0.918   4.652 -0.3404 -0.5764 -1.3050
    1SOL    HW310159   2.030   1.036   4.594 -0.3514  0.6595  1.1758
    1SOL    MW410160   2.031   0.959   4.635 -0.3204 -0.0411 -0.1059
    1SOL     OW10161   2.315   2.637   4.726  0.1347  0.1118  0.0932
    1SOL    HW210162   2.244   2.610   4.668  0.0889  0.0682  0.1700
    1SOL    HW310163   2.391   2.586   4.697 -0.5511 -1.9896  1.8775
    1SOL    MW410164   2.316   2.627   4.715  0.0381 -0.1709  0.3381
    1SOL     OW10165   2.650   2.406   4.383 -0.1193  0.2880  0.3173
    1SOL    HW210166   2.608   2.351   4.318  0.0149 -1.7141  1.8723
    1SOL    HW310167   2.679   2.345   4.451  1.4850  2.0979  1.3090
    1SOL    MW410168   2.648   2.391   4.383  0.1099  0.2627  0.6528
    1SOL     OW10169   3.558   3.510   4.697  0.4023 -0.0699 -0.1747
    1SOL    HW210170   3.576   3.427   4.653  0.8100  1.1953 -2.4342
    1SOL    HW310171   3.641   3.557   4.697  0.2575  0.2422  1.4060
    1SOL    MW410172   3.571   3.505   4.691  0.4373  0.1383 -0.2646
    1SOL     OW10173   2.016   2.300   3.974  0.8685 -0.7143  0.7237
    1SOL    HW210174   2.032   2.218   3.927  0.3250  0.2207 -1.1614
    1SOL    HW310175   2.094   2.353   3.958 -0.6853  0.8658 -1.9498
    1SOL    MW410176   2.028   2.297   3.966  0.5920 -0.3827  0.1218
    1SOL     OW10177   2.190   3.223   4.747  0.1640  0.0409 -0.0232
    1SOL    HW210178   2.241   3.185   4.819 -0.4748 -0.4674  0.1682
    1SOL    HW310179   2.129   3.154   4.722  0.1784  0.3268 -0.8595
    1SOL    MW410180   2.189   3.209   4.753  0.0815  0.0114 -0.1078
    1SOL     OW10181   2.383   2.819   4.214 -0.0539  0.2429  0.0072
    1SOL    HW210182   2.438   2.895   4.194 -1.3359  0.9939 -0.7650
    1SOL    HW310183   2.311   2.854   4.266 -0.2489 -0.5847  0.3040
    1SOL    MW410184   2.381   2.833   4.218 -0.2487  0.2329 -0.0553
    1SOL     OW10185   2.073   2.626   4.231 -0.4973 -0.7740 -0.1517
    1SOL    HW210186   2.051   2.674   4.311 -1.3941 -2.1789  0.4716
    1SOL    HW310187   1.989   2.602   4.193 -0.0717 -0.0868 -1.5448
    1SOL    MW410188   2.059   2.629   4.237 -0.5596 -0.8688 -0.2532
    1SOL     OW10189   2.243   3.504   4.204 -0.2574  0.4154 -0.5267
    1SOL    HW210190   2.248   3.416   4.241 -1.2325  0.5976  0.0711
    1SOL    HW310191   2.159   3.539   4.236  0.4349  1.8183 -0.1725
    1SOL    MW410192   2.232   3.497   4.213 -0.2947  0.6244 -0.4010
    1SOL     OW10193   2.477   3.626   4.294 -0.7545  0.1447  0.3153
    1SOL    HW210194   2.401   3.572   4.271 -0.3467 -0.3105  0.0473
    1SOL    HW310195   2.459   3.710   4.251 -0.8467 -0.1396 -0.2139
    1SOL    MW410196   2.464   3.630   4.285 -0.7129  0.0474  0.2103
    1SOL     OW10197   2.465   3.892   4.185  0.6558 -0.1101  0.1356
    1SOL    HW210198   2.541   3.943   4.212  1.1665 -1.0476  0.4779
    1SOL    HW310199   2.460   3.903   4.090  1.4609 -0.3914  0.0651
    1SOL    MW410200   2.474   3.900   4.176  0.8295 -0.2711  0.1712
    1SOL     OW10201   2.245   3.988   4.302  0.2325 -0.3178  0.2370
    1SOL    HW210202   2.318   3.941   4.262  1.2167  2.1603 -1.0222
    1SOL    HW310203   2.169   3.961   4.251  1.0188  0.5009 -1.4564
    1SOL    MW410204   2.245   3.979   4.290  0.4663  0.1171 -0.1516
    1SOL     OW10205   2.221   4.285   4.217 -0.6677  0.0300  0.2937
    1SOL    HW210206   2.232   4.193   4.243 -2.2041  0.0666  1.0953
    1SOL    HW310207   2.146   4.315   4.267 -1.0304  1.3343 -1.0248
    1SOL    MW410208   2.213   4.277   4.227 -0.9181  0.2065  0.2255
    1SOL     OW10209   2.424   4.413   4.346  0.2405 -0.0561  0.0727
    1SOL    HW210210   2.498   4.356   4.330  0.1863 -0.2980  0.6712
    1SOL    HW310211   2.348   4.363   4.316  0.3856  0.4588 -1.1642
    1SOL    MW410212   2.423   4.399   4.340  0.2525 -0.0205 -0.0110
    1SOL     OW10213   2.898   4.631   4.156 -0.1343 -0.5831  0.1000
    1SOL    HW210214   2.965   4.690   4.192 -0.2085 -0.6176  0.2945
    1SOL    HW310215   2.898   4.556   4.216 -2.3278  0.6586  1.7351
    1SOL    MW410216   2.907   4.629   4.169 -0.4334 -0.4239  0.3414
    1SOL     OW10217   2.672   0.117   4.245 -0.5433  0.4371  0.1996
    1SOL    HW210218   2.687   0.203   4.206  2.3273 -0.0697  0.0391
    1SOL    HW310219   2.745   0.063   4.214 -1.3618 -1.5944  1.6323
    1SOL    MW410220   2.684   0.121   4.236 -0.2728  0.1022  0.3672
    1SOL     OW10221   2.719   0.365   4.131  0.3282  0.1637  0.3204
    1SOL    HW210222   2.646   0.407   4.178  1.1373  0.9656  0.8671
    1SOL    HW310223   2.705   0.387   4.039  0.5816  1.3867  0.5684
    1SOL    MW410224   2.707   0.373   4.125  0.4685  0.4309  0.4249
    1SOL     OW10225   2.936   0.508   4.261 -0.4678 -0.1330 -0.1123
    1SOL    HW210226   2.909   0.597   4.283  0.1893 -0.0534  0.3687
    1SOL    HW310227   2.861   0.472   4.213  0.0971  1.4109 -2.2568
    1SOL    MW410228   2.923   0.515   4.257 -0.3066  0.0812 -0.3319
    1SOL     OW10229   2.885   0.785   4.362 -0.1174  0.0233  0.1697
    1SOL    HW210230   2.921   0.772   4.450 -0.3172  0.9420  0.3972
    1SOL    HW310231   2.959   0.815   4.310 -0.1477  0.1625  0.2043
    1SOL    MW410232   2.900   0.788   4.367 -0.1478  0.1628  0.2041
    1SOL     OW10233   2.660   0.933   4.331 -0.0814  0.2333  0.3765
    1SOL    HW210234   2.591   0.881   4.292  0.2034  0.6155 -0.6438
    1SOL    HW310235   2.737   0.876   4.332 -0.3703 -0.1456  1.3874
    1SOL    MW410236   2.661   0.919   4.326 -0.0820  0.2337  0.3753
    1SOL     OW10237   2.720   1.177   4.223  0.2057  0.0680 -0.6797
    1SOL    HW210238   2.689   1.091   4.253 -0.7297  0.7714  0.4159
    1SOL    HW310239   2.717   1.172   4.128 -1.0845 -0.6753 -0.6174
    1SOL    MW410240   2.716   1.165   4.215 -0.0882  0.0629 -0.5264
    1SOL     OW10241   2.939   1.268   4.380  0.1383  0.4099  0.4711
    1SOL    HW210242   3.019   1.226   4.349 -0.5134  0.2795 -1.1019
    1SOL    HW310243   2.869   1.227   4.328 -0.6799  2.2688  0.0662
    1SOL    MW410244   2.940   1.257   4.369 -0.0553  0.6380  0.2103
    1SOL     OW10245   2.944   1.504   4.196  0.3171 -0.2124  0.1039
    1SOL    HW210246   2.994   1.568   4.247  1.6820 -1.1536 -0.0105
    1SOL    HW310247   2.944   1.426   4.250  1.9484 -1.2842 -1.3647
    1SOL    MW410248   2.951   1.502   4.210  0.7124 -0.4780 -0.1049
    1SOL     OW10249   2.713   1.683   4.291 -0.1995 -0.0181 -0.0088
    1SOL    HW210250   2.784   1.622   4.272 -0.0729  0.3770 -0.8409
    1SOL    HW310251   2.707   1.684   4.386 -1.0931 -2.3459  0.0003
    1SOL    MW410252   2.721   1.675   4.301 -0.3004 -0.2731 -0.1178
    1SOL     OW10253   2.743   1.948   4.179 -0.2396  0.4187  0.8176
    1SOL    HW210254   2.736   1.864   4.224 -1.2194  0.1573  0.1979
    1SOL    HW310255   2.733   1.927   4.086 -1.3133  1.2918  0.7168
    1SOL    MW410256   2.741   1.935   4.173 -0.5105  0.4995  0.7224
    1SOL     OW10257   2.910   2.142   4.299 -0.0945 -0.7904  0.1197
    1SOL    HW210258   2.839   2.097   4.254  0.2246  0.1788 -1.3644
    1SOL    HW310259   2.911   2.230   4.262 -0.0804  0.1728  2.2911
    1SOL    MW410260   2.900   2.147   4.288 -0.0508 -0.5355  0.2108
    1SOL     OW10261   2.859   2.383   4.196 -0.0455  0.3085  0.0733
    1SOL    HW210262   2.911   2.462   4.186 -0.8357  0.6630 -1.4595
    1SOL    HW310263   2.795   2.403   4.264 -0.1996  0.9784 -0.2684
    1SOL    MW410264   2.857   2.396   4.203 -0.1702  0.4437 -0.1740
    1SOL     OW10265   2.398   2.077   4.678 -0.1543  0.0544 -0.2134
    1SOL    HW210266   2.307   2.102   4.691 -0.0647  0.4065 -0.2741
    1SOL    HW310267   2.393   2.003   4.617 -0.3882  0.1829 -0.3530
    1SOL    MW410268   2.385   2.070   4.671 -0.1733  0.1178 -0.2394
    1SOL     OW10269   2.633   2.641   4.242  0.1781  0.5437  0.5921
    1SOL    HW210270   2.628   2.576   4.311  0.9394  1.1335  1.2043
    1SOL    HW310271   2.546   2.682   4.242 -0.3066 -0.4659  0.1951
    1SOL    MW410272   2.621   2.638   4.251  0.2146  0.4880  0.6204
    1SOL     OW10273   2.804   2.840   4.312  0.1323  0.0048  0.0170
    1SOL    HW210274   2.782   2.871   4.400 -1.1065 -0.0845 -0.2552
    1SOL    HW310275   2.737   2.775   4.293 -0.3048  0.9000 -1.4914
    1SOL    MW410276   2.793   2.835   4.321 -0.0887  0.1109 -0.2184
    1SOL     OW10277   2.808   3.087   4.202 -0.4508  0.1939 -0.0930
    1SOL    HW210278   2.836   3.003   4.240  0.0303  0.5281  0.3091
    1SOL    HW310279   2.830   3.080   4.109  0.4450  0.2255  0.1102
    1SOL    MW410280   2.815   3.075   4.195 -0.2689  0.2422 -0.0129
    1SOL     OW10281   2.710   3.480   4.242 -0.3984  0.2511 -0.0992
    1SOL    HW210282   2.634   3.537   4.247 -1.0041 -0.6746  1.6097
    1SOL    HW310283   2.698   3.417   4.313  0.9724 -1.1174 -1.0407
    1SOL    MW410284   2.699   3.479   4.252 -0.2975 -0.0515  0.0024
    1SOL     OW10285   2.929   3.653   4.281 -0.0836  0.4956  0.0921
    1SOL    HW210286   2.857   3.593   4.257 -0.6920  1.1048  0.3843
    1SOL    HW310287   2.911   3.676   4.372  0.8544  0.1389  0.3742
    1SOL    MW410288   2.917   3.648   4.290 -0.0401  0.5286  0.1678
    1SOL     OW10289   2.821   3.481   4.656  0.2691 -0.1744 -0.4587
    1SOL    HW210290   2.911   3.464   4.683 -0.2048 -0.3547  1.0423
    1SOL    HW310291   2.768   3.456   4.731 -1.0669 -0.3613 -1.4455
    1SOL    MW410292   2.826   3.476   4.669  0.0303 -0.2229 -0.3910
    1SOL     OW10293   2.959   3.935   4.241 -0.3424  0.0567  0.0292
    1SOL    HW210294   3.039   3.954   4.291 -1.1792  1.1863  0.9583
    1SOL    HW310295   2.946   3.841   4.253  0.7570 -0.1123  0.0000
    1SOL    MW410296   2.968   3.925   4.250 -0.3076  0.1833  0.1483
    1SOL     OW10297   2.687   4.015   4.275 -0.4625  0.3143 -0.1676
    1SOL    HW210298   2.691   4.109   4.294  0.1974  0.2698 -0.0725
    1SOL    HW310299   2.776   3.992   4.248 -0.7050 -0.2148 -0.5260
    1SOL    MW410300   2.699   4.024   4.274 -0.4077  0.2384 -0.2027
    1SOL     OW10301   2.670   4.283   4.282 -0.4555  0.1878  0.1485
    1SOL    HW210302   2.744   4.342   4.301  0.8103 -1.3458  0.0757
    1SOL    HW310303   2.656   4.290   4.188 -0.8904  1.0359  0.2725
    1SOL    MW410304   2.678   4.292   4.272 -0.3462  0.0973  0.1554
    1SOL     OW10305   2.920   4.420   4.329 -0.2465  0.1944 -0.0913
    1SOL    HW210306   2.937   4.446   4.420 -1.1408 -1.3373  0.5386
    1SOL    HW310307   2.982   4.349   4.313 -1.4008 -0.8443 -0.0254
    1SOL    MW410308   2.930   4.414   4.339 -0.5167 -0.1445  0.0000
    1SOL     OW10309   3.336   4.627   4.219  0.1364 -0.1774  0.3400
    1SOL    HW210310   3.415   4.675   4.245  0.7666 -1.1464  0.2662
    1SOL    HW310311   3.342   4.544   4.267 -1.0855 -0.0728  0.6986
    1SOL    MW410312   3.347   4.622   4.229  0.0579 -0.2913  0.3777
    1SOL     OW10313   3.104   0.112   4.252 -0.3210 -0.6026 -0.9584
    1SOL    HW210314   3.092   0.112   4.347 -0.5026 -0.1424 -0.9769
    1SOL    HW310315   3.177   0.053   4.237 -0.2524 -0.6306 -0.5252
    1SOL    MW410316   3.112   0.104   4.263 -0.3357 -0.5456 -0.9036
    1SOL     OW10317   3.154   0.359   4.153  0.3580  0.5266  0.2581
    1SOL    HW210318   3.131   0.269   4.174 -0.1899  0.8677  1.1847
    1SOL    HW310319   3.078   0.410   4.183  0.8765  1.3355  0.2049
    1SOL    MW410320   3.141   0.354   4.160  0.3541  0.6783  0.3738
    1SOL     OW10321   3.349   0.527   4.278  0.1126 -0.1008  0.4969
    1SOL    HW210322   3.433   0.482   4.288 -0.3851 -1.1691 -0.1151
    1SOL    HW310323   3.293   0.464   4.234 -0.7057  0.9848 -0.0312
    1SOL    MW410324   3.353   0.513   4.273 -0.0610 -0.0985  0.3462
    1SOL     OW10325   3.374   0.789   4.178  0.1136 -0.1890 -0.2572
    1SOL    HW210326   3.447   0.824   4.229 -0.2658  0.1272  0.0746
    1SOL    HW310327   3.377   0.695   4.194 -0.3962 -0.0202  0.8718
    1SOL    MW410328   3.384   0.781   4.187 -0.0038 -0.1250 -0.0639
    1SOL     OW10329   3.589   0.954   4.631 -0.8893  0.2846 -0.5525
    1SOL    HW210330   3.668   0.991   4.670 -1.2116 -0.1149  0.4973
    1SOL    HW310331   3.607   0.953   4.537  0.9835 -1.2601 -0.2008
    1SOL    MW410332   3.602   0.959   4.624 -0.6847  0.0280 -0.3676
    1SOL     OW10333   3.143   1.170   4.222  0.3976 -0.0608 -0.4272
    1SOL    HW210334   3.224   1.213   4.249  0.4763 -1.2465  1.2871
    1SOL    HW310335   3.150   1.164   4.126  1.8056  0.8557 -0.4038
    1SOL    MW410336   3.155   1.175   4.213  0.5937 -0.0963 -0.1979
    1SOL     OW10337   3.384   1.319   4.344 -0.1851 -0.2374 -0.3941
    1SOL    HW210338   3.450   1.269   4.295  1.0976  0.1976  0.8607
    1SOL    HW310339   3.378   1.403   4.299  1.5902  0.4707  0.6188
    1SOL    MW410340   3.392   1.323   4.332  0.2182 -0.0865 -0.0949
    1SOL     OW10341   3.372   1.572   4.231 -0.0139 -0.1879  0.0623
    1SOL    HW210342   3.288   1.611   4.257  0.4800  2.0699 -1.6250
    1SOL    HW310343   3.376   1.584   4.136  0.7728 -3.2084 -0.3142
    1SOL    MW410344   3.361   1.579   4.222  0.1554 -0.2885 -0.2103
    1SOL     OW10345   3.120   1.688   4.300  0.0328 -0.1618 -0.4090
    1SOL    HW210346   3.088   1.767   4.255 -1.8084 -0.4220  0.4193
    1SOL    HW310347   3.096   1.702   4.392  0.6762 -1.2057 -0.0795
    1SOL    MW410348   3.113   1.701   4.306 -0.1254 -0.3339 -0.2561
    1SOL     OW10349   3.108   1.967   4.201 -0.2183  0.1623 -0.0539
    1SOL    HW210350   3.187   1.993   4.248 -0.8646 -0.9137  1.6607
    1SOL    HW310351   3.037   2.015   4.245 -0.5458  1.1066 -1.5608
    1SOL    MW410352   3.109   1.977   4.213 -0.3467  0.1450 -0.0272
    1SOL     OW10353   3.346   2.111   4.318  0.3536 -0.0674  0.6412
    1SOL    HW210354   3.435   2.092   4.292 -0.0804  0.1220 -1.0167
    1SOL    HW310355   3.325   2.194   4.275 -0.7599 -0.3150  0.6821
    1SOL    MW410356   3.355   2.119   4.309  0.1495 -0.0751  0.4282
    1SOL     OW10357   3.342   2.387   4.238 -0.1809 -0.0978  0.1311
    1SOL    HW210358   3.428   2.425   4.251 -1.6524  2.8566  1.7287
    1SOL    HW310359   3.336   2.375   4.143  1.9052 -0.1606 -0.0145
    1SOL    MW410360   3.352   2.391   4.227 -0.1001  0.2837  0.3223
    1SOL     OW10361   3.177   2.569   4.365  0.2890  0.0074  0.0366
    1SOL    HW210362   3.239   2.642   4.365  0.3371  0.0384 -2.4307
    1SOL    HW310363   3.225   2.498   4.321  0.0402 -1.3413  1.8911
    1SOL    MW410364   3.192   2.569   4.359  0.2625 -0.1667 -0.0439
    1SOL     OW10365   2.977   2.629   4.185  0.6290  0.2642 -0.2071
    1SOL    HW210366   3.052   2.624   4.245  0.0893 -0.8338  0.3873
    1SOL    HW310367   2.925   2.702   4.219  0.3807 -0.2832  0.6122
    1SOL    MW410368   2.980   2.638   4.197  0.5250  0.0470 -0.0210
    1SOL     OW10369   3.332   2.797   4.391 -0.2633 -0.1959 -0.0658
    1SOL    HW210370   3.402   2.778   4.328 -2.3153 -0.7553 -2.2734
    1SOL    HW310371   3.301   2.885   4.366 -0.7002 -0.1700  0.5579
    1SOL    MW410372   3.338   2.806   4.379 -0.5920 -0.2663 -0.2751
    1SOL     OW10373   3.294   3.059   4.256 -0.2377  0.1559  0.2486
    1SOL    HW210374   3.209   3.102   4.262  0.4273  1.4308  0.8314
    1SOL    HW310375   3.307   3.043   4.163 -0.8856  0.4194  0.1103
    1SOL    MW410376   3.284   3.062   4.245 -0.2356  0.3586  0.3071
    1SOL     OW10377   3.055   3.198   4.292  0.1631  0.1863  0.1399
    1SOL    HW210378   3.065   3.293   4.284 -0.8037  0.3875  1.1593
    1SOL    HW310379   2.966   3.180   4.262 -0.1272 -0.2226  1.2232
    1SOL    MW410380   3.045   3.208   4.287 -0.0026  0.1590  0.4177
    1SOL     OW10381   3.131   3.473   4.270  0.1942 -0.3953 -0.0202
    1SOL    HW210382   3.069   3.541   4.296  1.6203  0.4052  1.3300
    1SOL    HW310383   3.128   3.474   4.174 -0.4166  1.0013 -0.0046
    1SOL    MW410384   3.122   3.482   4.261  0.3016 -0.1056  0.1602
    1SOL     OW10385   3.389   3.583   4.313 -0.0876  0.0008 -0.0532
    1SOL    HW210386   3.392   3.634   4.394 -1.0760  0.6648 -0.4290
    1SOL    HW310387   3.301   3.545   4.311  0.2926 -0.8825 -0.2882
    1SOL    MW410388   3.378   3.584   4.323 -0.1678 -0.0279 -0.1340
    1SOL     OW10389   3.407   3.848   4.220  0.2268  0.0795  0.6297
    1SOL    HW210390   3.411   3.754   4.232  0.6210  0.1593  1.1626
    1SOL    HW310391   3.387   3.860   4.127 -2.1482 -0.5597  1.0119
    1SOL    MW410392   3.405   3.837   4.209 -0.0343  0.0057  0.7505
    1SOL     OW10393   3.200   3.997   4.352  0.0544 -0.1280 -0.3598
    1SOL    HW210394   3.215   4.004   4.446  1.3505 -1.2678 -0.4726
    1SOL    HW310395   3.261   3.930   4.322 -1.0255 -0.4829 -1.8620
    1SOL    MW410396   3.210   3.989   4.360  0.0830 -0.3252 -0.5722
    1SOL     OW10397   3.136   4.236   4.216 -0.1396  0.7393 -0.0591
    1SOL    HW210398   3.211   4.288   4.245 -1.2105  1.6179  1.1583
    1SOL    HW310399   3.153   4.149   4.252 -0.3893  1.2891  1.4348
    1SOL    MW410400   3.148   4.231   4.225 -0.3140  0.9279  0.2980
    1SOL     OW10401   3.340   4.385   4.338  0.2080 -0.1589  0.1915
    1SOL    HW210402   3.338   4.364   4.431  1.9907  0.7391  0.4498
    1SOL    HW310403   3.418   4.342   4.305 -0.3303 -0.3438 -0.8612
    1SOL    MW410404   3.350   4.377   4.346  0.3722 -0.0648  0.0873
    1SOL     OW10405   3.824   4.655   4.172  0.4936 -0.2571  0.0013
    1SOL    HW210406   3.887   4.724   4.193  1.6756 -1.2920 -0.0885
    1SOL    HW310407   3.821   4.655   4.076 -0.3467  0.4079  0.0224
    1SOL    MW410408   3.832   4.664   4.162  0.5386 -0.3057 -0.0072
    1SOL     OW10409   3.572   0.083   4.305 -0.3827  0.0773  0.1964
    1SOL    HW210410   3.572   0.179   4.305 -1.9282  0.1110  1.8047
    1SOL    HW310411   3.652   0.059   4.259  0.9930  2.1425  1.4327
    1SOL    MW410412   3.582   0.093   4.299 -0.4048  0.3542  0.5717
    1SOL     OW10413   3.583   0.360   4.258 -0.0903  0.4537 -0.1478
    1SOL    HW210414   3.660   0.412   4.278  0.1245  0.1627 -0.2201
    1SOL    HW310415   3.574   0.364   4.163 -1.3262  2.1407  0.0298
    1SOL    MW410416   3.592   0.367   4.248 -0.2248  0.6379 -0.1340
    1SOL     OW10417   3.835   0.515   4.323 -0.1208  0.1593  0.0630
    1SOL    HW210418   3.810   0.509   4.415 -0.0913  0.4180  0.0876
    1SOL    HW310419   3.833   0.609   4.304 -1.9814 -0.0304 -0.7215
    1SOL    MW410420   3.831   0.527   4.333 -0.3626  0.1683 -0.0372
    1SOL     OW10421   3.788   0.767   4.235 -0.4005 -0.2607 -0.3557
    1SOL    HW210422   3.866   0.810   4.268 -0.0979 -0.6486 -0.5535
    1SOL    HW310423   3.799   0.767   4.140  0.4127 -2.2452 -0.2930
    1SOL    MW410424   3.800   0.772   4.227 -0.2532 -0.5737 -0.3738
    1SOL     OW10425   3.582   0.908   4.338 -0.1983 -0.1957  0.1605
    1SOL    HW210426   3.662   0.866   4.307 -1.8881 -1.4472 -2.6775
    1SOL    HW310427   3.580   0.992   4.291  0.2916  0.6171  1.5524
    1SOL    MW410428   3.593   0.914   4.328 -0.3567 -0.2537 -0.0300
    1SOL     OW10429   3.578   1.143   4.203 -0.1445  0.0495  0.1533
    1SOL    HW210430   3.641   1.213   4.219  0.2543 -0.3612  0.3733
    1SOL    HW310431   3.571   1.138   4.108  1.6275 -1.2207  0.0670
    1SOL    MW410432   3.585   1.151   4.193  0.1419 -0.1721  0.1707
    1SOL     OW10433   3.779   1.330   4.228  0.7332 -0.3380  0.2392
    1SOL    HW210434   3.762   1.317   4.321 -2.4364 -0.6505 -0.3438
    1SOL    HW310435   3.786   1.425   4.219 -0.9948 -0.1666  0.5013
    1SOL    MW410436   3.778   1.341   4.239  0.0868 -0.3566  0.1969
    1SOL     OW10437   3.806   1.623   4.237 -0.1934  0.0697  0.2096
    1SOL    HW210438   3.894   1.640   4.271 -0.5853  0.3544  1.0930
    1SOL    HW310439   3.747   1.661   4.301 -0.9845 -0.6200 -0.0867
    1SOL    MW410440   3.810   1.630   4.250 -0.3495  0.0163  0.2875
    1SOL     OW10441   3.594   2.001   4.268  0.5561 -0.2429 -0.0120
    1SOL    HW210442   3.578   1.973   4.178  0.7570  0.6287 -0.3220
    1SOL    HW310443   3.583   1.921   4.320  0.5147 -0.7659 -0.8135
    1SOL    MW410444   3.590   1.987   4.263  0.5770 -0.1971 -0.1583
    1SOL     OW10445   3.586   1.726   4.381 -0.2349 -0.7546 -0.0387
    1SOL    HW210446   3.570   1.725   4.475 -0.3535 -0.4283 -0.0545
    1SOL    HW310447   3.509   1.683   4.343  0.3321 -1.8952  0.0870
    1SOL    MW410448   3.574   1.720   4.388 -0.1755 -0.8619 -0.0234
    1SOL     OW10449   3.829   2.116   4.345 -0.2152  0.0252  0.4346
    1SOL    HW210450   3.752   2.065   4.321  0.4851 -0.7743 -0.1326
    1SOL    HW310451   3.902   2.072   4.302  0.4175  1.4324  0.0184
    1SOL    MW410452   3.828   2.104   4.336 -0.0393  0.1051  0.3047
    1SOL     OW10453   3.822   2.353   4.216  0.2354 -0.1935  0.0641
    1SOL    HW210454   3.823   2.265   4.254 -1.2773  0.0050  0.6024
    1SOL    HW310455   3.818   2.338   4.121  1.0806 -0.6889  0.0994
    1SOL    MW410456   3.822   2.340   4.208  0.1473 -0.2325  0.1402
    1SOL     OW10457   3.589   2.508   4.293  0.1676 -0.0900  0.4225
    1SOL    HW210458   3.596   2.495   4.387 -0.2392 -0.0302  0.4632
    1SOL    HW310459   3.673   2.478   4.258  0.5111  0.3812  0.8529
    1SOL    MW410460   3.601   2.502   4.301  0.1593 -0.0198  0.4845
    1SOL     OW10461   3.555   2.765   4.219 -0.0570  0.5165 -0.0636
    1SOL    HW210462   3.551   2.674   4.249 -0.6263  0.4531 -0.3152
    1SOL    HW310463   3.562   2.758   4.124 -0.1687  0.7381 -0.0886
    1SOL    MW410464   3.555   2.752   4.210 -0.1469  0.5374 -0.1001
    1SOL     OW10465   3.794   2.815   4.339 -0.3972 -0.2292 -0.1511
    1SOL    HW210466   3.794   2.820   4.434 -0.8464 -0.0188 -0.1622
    1SOL    HW310467   3.708   2.780   4.317 -0.3485 -0.1427 -0.4848
    1SOL    MW410468   3.783   2.811   4.349 -0.4504 -0.1903 -0.1969
    1SOL     OW10469   3.744   3.053   4.221 -0.2069 -0.6493  0.4626
    1SOL    HW210470   3.752   2.958   4.232 -0.2582 -0.7179 -0.0765
    1SOL    HW310471   3.785   3.071   4.137  0.0025 -0.1594  0.6678
    1SOL    MW410472   3.750   3.043   4.211 -0.1860 -0.5939  0.4187
    1SOL     OW10473   3.534   3.186   4.339  0.1812  0.1427 -0.1786
    1SOL    HW210474   3.601   3.143   4.286  0.4376  0.3475 -0.0219
    1SOL    HW310475   3.454   3.136   4.322  0.7023 -1.0525  0.8316
    1SOL    MW410476   3.532   3.174   4.330  0.2837  0.0119 -0.0253
    1SOL     OW10477   3.591   3.423   4.224  0.0063  0.0764  0.2288
    1SOL    HW210478   3.569   3.341   4.268 -0.5968  0.2046  0.1662
    1SOL    HW310479   3.515   3.479   4.237 -0.4565 -0.1082 -1.5329
    1SOL    MW410480   3.578   3.420   4.232 -0.1342  0.0691 -0.0119
    1SOL     OW10481   3.820   3.595   4.359 -0.2875  0.1298 -0.0467
    1SOL    HW210482   3.907   3.558   4.346  0.1341  0.0276  2.6335
    1SOL    HW310483   3.760   3.532   4.319  0.7968 -0.4261 -0.7961
    1SOL    MW410484   3.823   3.582   4.352 -0.0889  0.0429  0.2074
    1SOL     OW10485   3.819   3.834   4.194  0.2090 -0.4862  0.2082
    1SOL    HW210486   3.741   3.884   4.218  0.9297  0.1558  1.2296
    1SOL    HW310487   3.813   3.753   4.244  1.3385  0.5384  2.0734
    1SOL    MW410488   3.808   3.830   4.204  0.4532 -0.2663  0.5898
    1SOL     OW10489   3.614   4.006   4.311 -0.0308  0.4773  0.0001
    1SOL    HW210490   3.614   3.998   4.406  0.3416  0.1271 -0.0286
    1SOL    HW310491   3.537   3.957   4.283  0.7029 -0.7115  0.0202
    1SOL    MW410492   3.604   3.998   4.320  0.1152  0.2747 -0.0010
    1SOL     OW10493   3.562   4.270   4.241  0.3141  0.4097 -0.1857
    1SOL    HW210494   3.634   4.329   4.265 -0.5586  0.5071  2.3726
    1SOL    HW310495   3.590   4.185   4.274 -0.0541  0.1251 -0.6118
    1SOL    MW410496   3.575   4.267   4.249  0.1504  0.3853  0.0958
    1SOL     OW10497   3.783   4.412   4.263  0.3935  0.2954 -0.3529
    1SOL    HW210498   3.869   4.372   4.254  0.5736  0.5174  0.3809
    1SOL    HW310499   3.792   4.498   4.220  0.9815  0.9568  1.0823
    1SOL    MW410500   3.795   4.418   4.256  0.4947  0.4115 -0.0663
    1SOL     OW10501   4.260   0.026   4.221  0.0174  0.2202  0.1002
    1SOL    HW210502   4.259  -0.058   4.267  0.8568 -0.3954 -0.9932
    1SOL    HW310503   4.345   0.064   4.242  0.9624 -0.6551 -1.9509
    1SOL    MW410504   4.271   0.020   4.230  0.2527  0.0238 -0.3152
    1SOL     OW10505   3.074   0.123   4.514  0.1665 -0.8113  0.1024
    1SOL    HW210506   3.152   0.132   4.569  0.1990 -0.8203  0.0574
    1SOL    HW310507   3.036   0.211   4.511  0.1800 -0.8050  0.1164
    1SOL    MW410508   3.079   0.135   4.521  0.1726 -0.8117  0.0982
    1SOL     OW10509   4.087   0.436   4.196  0.3769  0.3586  0.2336
    1SOL    HW210510   4.006   0.477   4.225  0.0872  0.0206 -0.0950
    1SOL    HW310511   4.153   0.466   4.259  0.1951  1.4254 -0.0713
    1SOL    MW410512   4.085   0.445   4.208  0.3147  0.4548  0.1497
    1SOL     OW10513   4.261   0.526   4.383  0.2289 -0.1381 -0.3154
    1SOL    HW210514   4.338   0.483   4.347  0.2465  0.2210 -0.7058
    1SOL    HW310515   4.231   0.467   4.452  0.9099 -0.2299 -0.0975
    1SOL    MW410516   4.267   0.513   4.387  0.3214 -0.1028 -0.3381
    1SOL     OW10517   0.022   0.952   4.341  0.2464  0.4375  0.2971
    1SOL    HW210518   0.027   1.044   4.318  1.6394  0.3835  0.3171
    1SOL    HW310519  -0.062   0.922   4.307  0.5903  1.2728 -1.3102
    1SOL    MW410520   0.011   0.960   4.334  0.4754  0.5406  0.0873
    1SOL     OW10521   4.016   0.906   4.335 -0.0546 -0.7021  0.1408
    1SOL    HW210522   4.018   0.908   4.430 -0.1708 -0.2646  0.1326
    1SOL    HW310523   4.108   0.901   4.309  0.0059 -0.2518  0.2635
    1SOL    MW410524   4.028   0.906   4.344 -0.0615 -0.5849  0.1554
    1SOL     OW10525   4.020   1.158   4.200  0.1197 -0.6980  0.2857
    1SOL    HW210526   4.010   1.076   4.249 -0.5962 -0.6262  0.2609
    1SOL    HW310527   3.937   1.204   4.212 -0.2468 -0.8952 -1.3749
    1SOL    MW410528   4.008   1.153   4.208 -0.0229 -0.7147  0.0634
    1SOL     OW10529   3.331   1.090   4.642 -0.0938  0.4169  0.3726
    1SOL    HW210530   3.267   1.031   4.603  0.2769 -0.0126  0.4077
    1SOL    HW310531   3.416   1.047   4.626 -0.0084 -0.2065  2.4100
    1SOL    MW410532   3.334   1.076   4.635 -0.0336  0.2781  0.6461
    1SOL     OW10533   4.250   1.539   4.221 -0.0080 -0.0757  0.4185
    1SOL    HW210534   4.255   1.453   4.264 -1.8415 -0.2706  0.2797
    1SOL    HW310535   4.254   1.519   4.128 -0.2783 -0.0194  0.3921
    1SOL    MW410536   4.251   1.525   4.214 -0.2851 -0.0941  0.3967
    1SOL     OW10537   4.068   1.709   4.297  0.1718  0.0740 -0.0575
    1SOL    HW210538   4.094   1.730   4.387  1.0958  1.3880 -0.6080
    1SOL    HW310539   4.131   1.644   4.268  0.3125  0.1760  0.0166
    1SOL    MW410540   4.080   1.703   4.305  0.3123  0.2607 -0.1202
    1SOL     OW10541   4.043   1.977   4.217  0.0722 -0.0250 -0.6986
    1SOL    HW210542   4.128   2.021   4.224 -0.7426  1.3618  0.7592
    1SOL    HW310543   4.058   1.890   4.254  0.7829  0.3452 -0.0991
    1SOL    MW410544   4.056   1.971   4.223  0.0587  0.2068 -0.4272
    1SOL     OW10545   0.014   1.930   4.167  0.1308 -0.0673  0.1127
    1SOL    HW210546   0.085   1.961   4.223 -0.2729  1.2921 -0.1129
    1SOL    HW310547  -0.063   1.980   4.195 -0.2095  0.1876 -1.2312
    1SOL    MW410548   0.013   1.941   4.178  0.0324  0.1456 -0.0939
    1SOL     OW10549   4.301   2.359   4.217 -0.0987 -0.5528 -0.4997
    1SOL    HW210550   4.227   2.401   4.261 -1.2415 -0.9935 -1.9300
    1SOL    HW310551   4.378   2.389   4.264 -1.1583  0.3491  0.6890
    1SOL    MW410552   4.301   2.368   4.229 -0.3886 -0.4921 -0.5317
    1SOL     OW10553   4.079   2.452   4.335  0.0154  0.3975 -0.1586
    1SOL    HW210554   3.996   2.421   4.298 -0.2537 -0.3250  1.0144
    1SOL    HW310555   4.061   2.462   4.429  1.6336 -1.1123  0.3397
    1SOL    MW410556   4.066   2.449   4.343  0.1931  0.1030  0.0620
    1SOL     OW10557   4.055   2.723   4.246  0.2662 -0.3226  0.0353
    1SOL    HW210558   4.062   2.635   4.285  0.6190  0.2196  1.2132
    1SOL    HW310559   3.966   2.751   4.267  0.3334 -0.1790  0.1289
    1SOL    MW410560   4.044   2.715   4.254  0.3209 -0.2320  0.2031
    1SOL     OW10561   4.260   2.840   4.399  0.1619  0.0171 -0.0233
    1SOL    HW210562   4.192   2.809   4.340 -0.0977 -0.7316  0.6566
    1SOL    HW310563   4.340   2.799   4.367  0.1893  0.3752 -0.4246
    1SOL    MW410564   4.262   2.831   4.387  0.1311 -0.0346  0.0134
    1SOL     OW10565   4.202   3.082   4.287  0.0448  0.4576 -0.6921
    1SOL    HW210566   4.219   2.997   4.327  2.8348  0.9487 -0.7561
    1SOL    HW310567   4.220   3.070   4.194  0.0687  1.0026 -0.7634
    1SOL    MW410568   4.207   3.069   4.280  0.4163  0.5944 -0.7100
    1SOL     OW10569   3.950   3.207   4.371 -0.0997 -0.3401  0.0037
    1SOL    HW210570   4.029   3.166   4.335  0.8877 -0.3380  2.1381
    1SOL    HW310571   3.878   3.158   4.332  1.0198 -2.3963  0.4587
    1SOL    MW410572   3.951   3.195   4.361  0.1783 -0.6111  0.3457
    1SOL     OW10573   4.054   3.462   4.280 -0.1835  0.6473  0.1798
    1SOL    HW210574   4.000   3.387   4.306 -0.7429  0.4415 -1.5246
    1SOL    HW310575   4.039   3.471   4.186  2.6187  0.6801 -0.3141
    1SOL    MW410576   4.045   3.453   4.271  0.1125  0.6247 -0.1101
    1SOL     OW10577   4.246   3.651   4.361 -0.4772 -0.4530  0.0164
    1SOL    HW210578   4.229   3.709   4.287 -0.9973 -0.3790  0.1894
    1SOL    HW310579   4.184   3.579   4.350 -0.7487 -0.3029  0.5253
    1SOL    MW410580   4.235   3.650   4.350 -0.5817 -0.4234  0.1063
    1SOL     OW10581   4.211   3.901   4.208  0.1599 -0.2706  0.1236
    1SOL    HW210582   4.133   3.955   4.225  1.3007  1.2310  0.7110
    1SOL    HW310583   4.218   3.900   4.113  0.3820  1.0417  0.1055
    1SOL    MW410584   4.202   3.908   4.198  0.3405  0.1009  0.1984
    1SOL     OW10585   3.979   4.049   4.252 -0.3768 -0.3401  0.0287
    1SOL    HW210586   3.998   4.039   4.345 -1.5427  0.0848  0.3135
    1SOL    HW310587   3.914   3.982   4.232  0.9892 -1.4318 -0.8295
    1SOL    MW410588   3.973   4.039   4.262 -0.3505 -0.4282 -0.0467
    1SOL     OW10589   4.027   4.316   4.192  0.1580  0.1004  0.0182
    1SOL    HW210590   4.099   4.360   4.237  1.1268  0.6600 -1.9874
    1SOL    HW310591   4.025   4.227   4.229  0.0155  0.9545  2.0915
    1SOL    MW410592   4.036   4.310   4.203  0.2675  0.2866  0.0272
    1SOL     OW10593   3.804   3.621   4.637  0.2458  0.1652  0.4210
    1SOL    HW210594   3.804   3.610   4.542 -0.7804 -0.2789  0.4696
    1SOL    HW310595   3.887   3.583   4.665  1.2481  1.6729 -0.4438
    1SOL    MW410596   3.815   3.615   4.628  0.2427  0.3054  0.3133
    1SOL     OW10597   4.032   0.139   4.305  0.2175  0.4371  0.2616
    1SOL    HW210598   4.038   0.232   4.282  0.7152  0.0956 -1.0107
    1SOL    HW310599   4.111   0.100   4.269 -0.2053 -0.5666  0.3961
    1SOL    MW410600   4.043   0.146   4.297  0.2270  0.2596  0.1111
    1SOL     OW10601   0.259   4.477   4.580 -0.2211 -0.8557 -0.1487
    1SOL    HW210602   0.257   4.448   4.489 -0.2131  0.1361 -0.4726
    1SOL    HW310603   0.168   4.493   4.603  0.0153  2.1142 -1.0582
    1SOL    MW410604   0.247   4.475   4.571 -0.1889 -0.3333 -0.3109
    1SOL     OW10605   4.259   4.388   4.598  0.7066 -0.4602  0.0217
    1SOL    HW210606   4.178   4.434   4.617  1.1332  0.9468 -1.4812
    1SOL    HW310607   4.328   4.450   4.621  1.3065 -0.7419 -1.0110
    1SOL    MW410608   4.258   4.402   4.604  0.8421 -0.3119 -0.3128
    1SOL     OW10609   3.815   2.287   4.571 -0.3407 -0.1492 -0.3120
    1SOL    HW210610   3.729   2.330   4.569 -0.9226 -1.2580 -0.0176
    1SOL    HW310611   3.812   2.225   4.498 -0.2590 -1.0501  0.4427
    1SOL    MW410612   3.803   2.284   4.561 -0.4067 -0.4144 -0.1731
    1SOL     OW10613   0.654   4.627   4.718  0.1255  0.0873 -0.0248
    1SOL    HW210614   0.710   4.699   4.689 -1.3826  1.6085  0.7708
    1SOL    HW310615   0.708   4.580   4.782 -0.1351  2.7057  2.2291
    1SOL    MW410616   0.669   4.630   4.723 -0.1079  0.6332  0.3777
    1SOL     OW10617   0.160   0.909   4.571  0.6897  0.1217 -0.4004
    1SOL    HW210618   0.115   0.926   4.488  0.3293  0.8759 -0.0474
    1SOL    HW310619   0.172   0.995   4.611 -0.4261 -0.3516  1.0056
    1SOL    MW410620   0.156   0.923   4.565  0.4949  0.1588 -0.1683
    1SOL     OW10621   4.025   4.488   4.694 -0.2976 -0.2109 -0.6043
    1SOL    HW210622   3.944   4.479   4.643 -0.3222 -1.1514 -0.3935
    1SOL    HW310623   4.020   4.420   4.760  0.7252 -0.3396 -0.6561
    1SOL    MW410624   4.014   4.478   4.696 -0.1659 -0.3519 -0.5836
    1SOL     OW10625   4.024   1.852   4.766  0.2021  0.3209  0.3520
    1SOL    HW210626   4.102   1.848   4.822  0.4748  0.3766 -0.0209
    1SOL    HW310627   3.998   1.944   4.767  1.3624  0.6943 -1.1692
    1SOL    MW410628   4.031   1.864   4.773  0.3915  0.3777  0.1016
    1SOL     OW10629   0.474   0.847   4.273  0.5604 -0.4286 -0.1347
    1SOL    HW210630   0.495   0.935   4.243  0.1033 -0.0496  0.6443
    1SOL    HW310631   0.386   0.830   4.240  0.1739 -0.1256  0.7140
    1SOL    MW410632   0.466   0.856   4.265  0.4491 -0.3386  0.0801
    1SOL     OW10633   3.534   0.391   4.775 -0.1025 -0.1791 -0.2613
    1SOL    HW210634   3.553   0.478   4.740 -1.2256  0.7715  1.3959
    1SOL    HW310635   3.613   0.340   4.756  0.1519  0.8799 -2.2003
    1SOL    MW410636   3.547   0.396   4.768 -0.2170  0.0860 -0.2985
    1SOL     OW10637   4.179   1.797   4.538 -0.0963 -0.1045  0.3280
    1SOL    HW210638   4.106   1.793   4.601  0.5741 -0.7312  1.0896
    1SOL    HW310639   4.255   1.770   4.590  1.0466  2.6013  0.0858
    1SOL    MW410640   4.179   1.793   4.553  0.1431  0.1696  0.3967
    1SOL     OW10641   0.411   1.772   4.163 -0.3251 -0.2910  0.5013
    1SOL    HW210642   0.331   1.721   4.145 -0.8807  0.2067  1.4803
    1SOL    HW310643   0.440   1.803   4.078 -1.7072  0.2785  0.2183
    1SOL    MW410644   0.404   1.769   4.150 -0.5808 -0.1502  0.5932
    1SOL     OW10645   0.901   1.789   4.771 -0.0944  0.3192  0.1927
    1SOL    HW210646   0.963   1.853   4.807 -0.5776 -0.4382  2.4500
    1SOL    HW310647   0.817   1.834   4.773  0.0263  0.6035 -0.8998
    1SOL    MW410648   0.898   1.804   4.776 -0.1422  0.2569  0.3462
    1SOL     OW10649   2.621   3.158   4.909  0.0148 -0.1204 -0.0527
    1SOL    HW210650   2.526   3.142   4.913  0.1877 -0.9432  1.0939
    1SOL    HW310651   2.660   3.080   4.949  1.0715  1.3744  1.8912
    1SOL    MW410652   2.613   3.146   4.915  0.1771 -0.0317  0.3552
    1SOL     OW10653   4.292   2.821   4.705 -0.3922  0.0486 -0.0726
    1SOL    HW210654   4.283   2.839   4.611  2.0800 -0.7623 -0.5206
    1SOL    HW310655   4.288   2.906   4.747  0.1405  0.5913 -1.1050
    1SOL    MW410656   4.291   2.834   4.698  0.0043  0.0131 -0.2675
    1SOL     OW10657   1.655   3.623   4.604 -0.0553  0.2278 -0.2078
    1SOL    HW210658   1.618   3.563   4.669 -1.0480 -0.1893 -1.1432
    1SOL    HW310659   1.750   3.616   4.617 -0.2196 -0.1885  0.8861
    1SOL    MW410660   1.663   3.614   4.615 -0.2081  0.1180 -0.1864
    1SOL     OW10661   0.542   1.923   4.516 -0.2103 -0.2722  0.2370
    1SOL    HW210662   0.558   1.838   4.474 -2.3713  0.0576 -1.2955
    1SOL    HW310663   0.575   1.988   4.454 -0.6501  0.0880  0.3738
    1SOL    MW410664   0.548   1.920   4.502 -0.5534 -0.1812  0.0529
    1SOL     OW10665   1.331   3.547   4.727  0.1586 -0.1047 -0.2319
    1SOL    HW210666   1.402   3.532   4.788 -0.8840  1.0464  1.3021
    1SOL    HW310667   1.321   3.465   4.680  0.9496 -1.0129  1.1783
    1SOL    MW410668   1.339   3.535   4.729  0.1253 -0.0730  0.1559
    1SOL     OW10669   1.355   3.990   4.667 -0.2680 -0.1856  0.1228
    1SOL    HW210670   1.284   3.930   4.692  1.1066 -1.7870  0.2743
    1SOL    HW310671   1.350   3.995   4.572 -0.7009 -0.1663  0.1461
    1SOL    MW410672   1.345   3.983   4.658 -0.1435 -0.3943  0.1459
    1SOL     OW10673   4.469   4.570   4.676 -0.0083 -0.5878  0.6385
    1SOL    HW210674   4.448   4.651   4.630  0.1855 -1.0243 -0.2262
    1SOL    HW310675   4.490   4.597   4.765 -1.4753  0.1544  0.7655
    1SOL    MW410676   4.469   4.584   4.682 -0.1760 -0.5479  0.5412
    1SOL     OW10677   0.667   4.372   4.555 -0.1176  0.7583 -0.1232
    1SOL    HW210678   0.653   4.449   4.610  0.1716  1.0464 -0.4526
    1SOL    HW310679   0.733   4.321   4.603 -1.1213  0.1556  0.6551
    1SOL    MW410680   0.674   4.375   4.569 -0.2119  0.7172 -0.0639
    1SOL     OW10681   3.997   4.253   4.850 -0.0237 -0.4487 -0.1054
    1SOL    HW210682   4.061   4.206   4.796  1.7724  0.4353  1.1928
    1SOL    HW310683   3.926   4.190   4.862  1.2082 -1.9455 -0.4843
    1SOL    MW410684   3.996   4.238   4.845  0.3760 -0.5298  0.0157
    1SOL     OW10685   4.440   3.987   4.625  1.0235  0.1580 -0.4195
    1SOL    HW210686   4.389   3.907   4.634 -0.8315  1.4658  1.2561
    1SOL    HW310687   4.521   3.970   4.672  0.5561 -0.6723  0.0855
    1SOL    MW410688   4.444   3.974   4.632  0.7172  0.2213 -0.1316
    1SOL     OW10689   4.051   3.993   4.518 -0.4543 -0.2018  0.0056
    1SOL    HW210690   4.089   4.060   4.576 -0.8993 -1.9864  2.4116
    1SOL    HW310691   4.106   3.916   4.531 -1.3074 -0.9979 -1.0308
    1SOL    MW410692   4.063   3.992   4.527 -0.6261 -0.5424  0.1860
    1SOL     OW10693   0.852   3.960   4.578 -0.5591 -0.3257  0.1024
    1SOL    HW210694   0.865   3.981   4.486  1.7722  0.6771  0.6402
    1SOL    HW310695   0.838   4.045   4.621 -1.2564 -0.7512  0.7328
    1SOL    MW410696   0.852   3.974   4.572 -0.3435 -0.2496  0.2561
    1SOL     OW10697   4.274   0.822   4.260  0.1281 -0.2092  0.0455
    1SOL    HW210698   4.250   0.811   4.168 -1.3538 -0.4979  0.4669
    1SOL    HW310699   4.256   0.737   4.300  0.2739  0.0705  0.7118
    1SOL    MW410700   4.269   0.810   4.253 -0.0482 -0.2103  0.1893
    1SOL     OW10701   1.695   0.553   4.532  0.0052 -0.3240  0.7932
    1SOL    HW210702   1.765   0.493   4.561  1.6433 -0.2287 -2.7299
    1SOL    HW310703   1.731   0.640   4.547  0.3078 -0.2752 -0.1591
    1SOL    MW410704   1.709   0.557   4.538  0.2612 -0.3049  0.2027
    1SOL     OW10705   0.023   0.686   4.658 -0.3314  0.3732 -0.2011
    1SOL    HW210706   0.061   0.770   4.633  0.2479  0.0085 -0.5611
    1SOL    HW310707   0.045   0.677   4.751  0.2200  0.3002 -0.3331
    1SOL    MW410708   0.031   0.696   4.667 -0.1822  0.3155 -0.2666
    1SOL     OW10709   1.351   0.875   4.567 -0.1909  0.5441 -0.1357
    1SOL    HW210710   1.348   0.883   4.472  0.3651 -0.8164 -0.2838
    1SOL    HW310711   1.428   0.926   4.593 -0.7496  1.5005 -0.3353
    1SOL    MW410712   1.361   0.883   4.558 -0.1912  0.4908 -0.1812
    1SOL     OW10713   1.306   0.301   4.790  0.0110 -0.3552  0.2795
    1SOL    HW210714   1.270   0.385   4.818 -1.2948 -0.8028  0.0106
    1SOL    HW310715   1.392   0.296   4.830 -0.4913  0.4844  1.4659
    1SOL    MW410716   1.312   0.311   4.799 -0.2276 -0.3035  0.4005
    1SOL     OW10717   3.768   1.285   4.497  0.0827  0.3207 -0.0636
    1SOL    HW210718   3.786   1.208   4.551  0.0191  0.6310  0.4093
    1SOL    HW310719   3.689   1.323   4.536  0.6068  1.1022  0.2474
    1SOL    MW410720   3.760   1.280   4.510  0.1435  0.4649  0.0396
    1SOL     OW10721   0.090   1.188   4.664  0.2456  0.0911 -0.1123
    1SOL    HW210722   0.141   1.250   4.612 -0.5701 -1.2295 -2.6010
    1SOL    HW310723   0.092   1.223   4.753  1.2616  2.7216 -1.1280
    1SOL    MW410724   0.097   1.201   4.669  0.2721  0.2639 -0.5751
    1SOL     OW10725   0.796   0.503   4.584 -0.0158  0.6819 -0.1588
    1SOL    HW210726   0.756   0.585   4.611 -1.3633  0.3334 -1.0328
    1SOL    HW310727   0.883   0.527   4.555 -0.9662  2.0716 -1.9535
    1SOL    MW410728   0.802   0.517   4.584 -0.3189  0.8193 -0.5112
    1SOL     OW10729   0.289   1.294   4.271  0.0569 -0.1589 -0.4227
    1SOL    HW210730   0.347   1.225   4.241 -0.5937 -1.1845  0.6501
    1SOL    HW310731   0.202   1.255   4.273 -0.4862  0.9920 -0.8168
    1SOL    MW410732   0.285   1.280   4.268 -0.1006 -0.1425 -0.3333
    1SOL     OW10733   1.478   3.228   4.843 -0.3673  0.0619  0.0172
    1SOL    HW210734   1.502   3.136   4.854 -0.6398 -0.0444 -0.2474
    1SOL    HW310735   1.415   3.228   4.771 -0.3557  0.4588  0.0023
    1SOL    MW410736   1.473   3.216   4.835 -0.4017  0.1001 -0.0200
    1SOL     OW10737   0.393   0.762   4.533 -0.4095 -0.4906 -0.0059
    1SOL    HW210738   0.325   0.823   4.563 -0.4778 -0.4297 -0.2806
    1SOL    HW310739   0.423   0.800   4.450 -0.5303 -0.8877 -0.2328
    1SOL    MW410740   0.388   0.775   4.526 -0.4344 -0.5349 -0.0720
    1SOL     OW10741   4.376   1.667   4.722  0.0794 -0.4403 -0.3260
    1SOL    HW210742   4.457   1.672   4.672  0.3673 -0.9297  0.0973
    1SOL    HW310743   4.384   1.737   4.787 -0.2801  0.1747 -0.9290
    1SOL    MW410744   4.388   1.677   4.724  0.0701 -0.4237 -0.3500
    1SOL     OW10745   1.105   3.069   4.793  0.2400 -0.2709  0.2089
    1SOL    HW210746   1.191   3.030   4.777 -0.3060 -1.7653  0.8544
    1SOL    HW310747   1.047   3.029   4.728  0.0086  0.7390 -0.2311
    1SOL    MW410748   1.109   3.059   4.782  0.1374 -0.3350  0.2360
    1SOL     OW10749   1.239   1.736   4.511 -0.6062 -0.3169  0.2634
    1SOL    HW210750   1.272   1.686   4.436  1.2819 -0.9022  1.4473
    1SOL    HW310751   1.164   1.685   4.543  0.8806 -2.0838  1.0462
    1SOL    MW410752   1.233   1.722   4.505 -0.1608 -0.6273  0.5231
    1SOL     OW10753   1.417   2.803   4.949  0.2674 -0.5764  0.3793
    1SOL    HW210754   1.502   2.846   4.959 -0.2674  0.1500  1.9997
    1SOL    HW310755   1.387   2.788   5.039 -2.4818  1.5471 -0.1191
    1SOL    MW410756   1.424   2.807   4.962 -0.1659 -0.2005  0.5269
    1SOL     OW10757   0.795   3.196   4.544 -0.2309  0.4971 -0.4750
    1SOL    HW210758   0.825   3.268   4.599  0.4446 -0.5036  0.4718
    1SOL    HW310759   0.700   3.209   4.537 -0.2402  0.9413  0.4532
    1SOL    MW410760   0.787   3.208   4.550 -0.1430  0.4237 -0.2275
    1SOL     OW10761   1.817   0.097   4.524  0.7899 -0.2359 -0.1238
    1SOL    HW210762   1.883   0.030   4.544  1.8466  0.9516  0.4763
    1SOL    HW310763   1.738   0.067   4.568  0.8224 -1.8707 -1.1588
    1SOL    MW410764   1.815   0.084   4.532  0.9338 -0.2949 -0.1817
    1SOL     OW10765   2.421   2.897   4.644  0.1650 -0.2331 -0.0104
    1SOL    HW210766   2.358   2.920   4.577  0.0071  0.4296  0.3580
    1SOL    HW310767   2.387   2.816   4.682 -0.9706  0.6145  0.8165
    1SOL    MW410768   2.408   2.889   4.641 -0.0057 -0.0339  0.1473
    1SOL     OW10769   0.192   3.919   4.722  0.2187 -0.0957 -0.0335
    1SOL    HW210770   0.164   3.827   4.719 -0.6309  0.1665 -0.3712
    1SOL    HW310771   0.281   3.918   4.686  1.1037 -1.1030  2.0688
    1SOL    MW410772   0.200   3.907   4.717  0.2234 -0.1938  0.1993
    1SOL     OW10773   1.612   3.885   4.727 -0.3898  0.1593  0.1905
    1SOL    HW210774   1.601   3.802   4.681  0.4730  0.3449 -0.3553
    1SOL    HW310775   1.528   3.930   4.716 -0.4846 -0.1801 -0.4394
    1SOL    MW410776   1.599   3.880   4.720 -0.2885  0.1390  0.0358
    1SOL     OW10777   1.561   3.482   4.859 -0.2230 -0.0510  0.0532
    1SOL    HW210778   1.544   3.389   4.874  0.7441 -0.2661 -0.1236
    1SOL    HW310779   1.647   3.497   4.898 -0.0562  0.6022 -0.5458
    1SOL    MW410780   1.570   3.472   4.866 -0.0734  0.0067 -0.0491
    1SOL     OW10781   1.899   3.456   4.814 -0.0008  0.4893 -0.3826
    1SOL    HW210782   1.995   3.455   4.807  0.1286  1.5012  0.9964
    1SOL    HW310783   1.877   3.549   4.817 -0.9617  0.2472  0.1071
    1SOL    MW410784   1.909   3.468   4.814 -0.1105  0.5908 -0.1364
    1SOL     OW10785   0.661   3.528   4.638 -0.2843  0.1370 -0.0427
    1SOL    HW210786   0.748   3.494   4.655  0.2205  0.9679 -0.9745
    1SOL    HW310787   0.661   3.616   4.676 -0.1017  0.8683 -1.6950
    1SOL    MW410788   0.672   3.535   4.645 -0.1937  0.3428 -0.3839
    1SOL     OW10789   4.282   1.201   4.595 -0.8880 -0.1766  0.2858
    1SOL    HW210790   4.249   1.290   4.605 -0.8824 -0.3167  1.6752
    1SOL    HW310791   4.377   1.209   4.600 -0.7590  0.0010 -1.8797
    1SOL    MW410792   4.290   1.214   4.597 -0.8707 -0.1717  0.1831
    1SOL     OW10793   0.849   0.931   4.554  0.0761  0.2936 -0.4826
    1SOL    HW210794   0.933   0.894   4.583  1.4233  2.9677 -0.8762
    1SOL    HW310795   0.857   0.935   4.459 -0.7155  0.0812 -0.5599
    1SOL    MW410796   0.861   0.926   4.545  0.1494  0.6184 -0.5455
    1SOL     OW10797   0.657   0.737   4.660 -0.0456 -0.5677  0.6288
    1SOL    HW210798   0.571   0.758   4.625 -0.1624 -1.1576  0.5624
    1SOL    HW310799   0.709   0.817   4.645 -0.8213  0.1081  1.4720
    1SOL    MW410800   0.653   0.751   4.654 -0.1634 -0.5564  0.7315
    1SOL     OW10801   1.091   0.793   4.652 -0.8701  0.0755  0.0202
    1SOL    HW210802   1.171   0.829   4.612 -1.7167  0.7901 -1.0708
    1SOL    HW310803   1.074   0.713   4.602 -0.1320 -0.7742  1.1030
    1SOL    MW410804   1.100   0.788   4.640 -0.8845  0.0576  0.0191
    1SOL     OW10805   2.064   1.252   4.501 -0.0510  0.2569 -0.2856
    1SOL    HW210806   2.038   1.328   4.554 -0.1249 -0.9562  1.4639
    1SOL    HW310807   2.154   1.234   4.528 -0.4998 -1.1189  0.3510
    1SOL    MW410808   2.072   1.260   4.511 -0.1199 -0.0846  0.0296
    1SOL     OW10809   0.836   0.159   4.608  0.0454 -0.2876 -0.5062
    1SOL    HW210810   0.838   0.147   4.513  1.2738  0.2418 -0.5550
    1SOL    HW310811   0.800   0.247   4.620 -1.2447 -0.8213 -0.4357
    1SOL    MW410812   0.832   0.169   4.597  0.0373 -0.2882 -0.5031
    1SOL     OW10813   0.256   1.926   4.583  0.4211  0.7661  0.0369
    1SOL    HW210814   0.348   1.954   4.580 -0.0292  2.1714 -2.2384
    1SOL    HW310815   0.213   1.990   4.640  0.8362  0.0912  1.1257
    1SOL    MW410816   0.263   1.938   4.590  0.4165  0.8625 -0.1197
    1SOL     OW10817   0.196   0.247   4.664 -0.1860 -0.5451  0.1939
    1SOL    HW210818   0.225   0.335   4.642 -1.2923 -0.1344  0.3126
    1SOL    HW310819   0.273   0.192   4.652  1.1826  0.8028  2.5974
    1SOL    MW410820   0.210   0.251   4.659 -0.1514 -0.3130  0.5269
    1SOL     OW10821   2.076   0.656   4.527  0.1965  0.0010 -0.7084
    1SOL    HW210822   2.068   0.746   4.559  0.4699  0.5001 -2.0127
    1SOL    HW310823   2.159   0.626   4.564 -0.3351 -0.0445  0.4860
    1SOL    MW410824   2.086   0.664   4.536  0.1626  0.0609 -0.7234
    1SOL     OW10825   1.406   0.599   4.614 -0.0139 -0.0070  0.4469
    1SOL    HW210826   1.396   0.692   4.594 -0.0175  0.2210  1.5223
    1SOL    HW310827   1.496   0.578   4.587 -0.7700 -0.2693 -2.0302
    1SOL    MW410828   1.417   0.608   4.608 -0.1141 -0.0115  0.2618
    1SOL     OW10829   1.362   2.563   4.770 -0.1003 -0.2803 -0.2704
    1SOL    HW210830   1.276   2.581   4.732  0.1263 -0.5459 -0.9196
    1SOL    HW310831   1.380   2.638   4.826 -1.2466 -0.7533  0.7513
    1SOL    MW410832   1.353   2.575   4.773 -0.2216 -0.3779 -0.2217
    1SOL     OW10833   2.058   2.939   4.696  0.1395  0.2067 -0.1689
    1SOL    HW210834   1.969   2.961   4.725  0.4652 -0.6100  1.5025
    1SOL    HW310835   2.045   2.897   4.611 -1.1315 -0.4934  0.3496
    1SOL    MW410836   2.044   2.937   4.689  0.0148  0.0067  0.1202
    1SOL     OW10837   1.666   2.922   4.981 -0.3940  0.3403 -0.4112
    1SOL    HW210838   1.713   2.951   4.902 -1.3097  0.0200 -1.0830
    1SOL    HW310839   1.713   2.843   5.009 -0.3476  0.1906 -0.9055
    1SOL    MW410840   1.679   2.916   4.974 -0.5087  0.2782 -0.5651
    1SOL     OW10841   1.696   2.918   4.197  0.1593  0.1442 -0.4109
    1SOL    HW210842   1.723   2.874   4.278  1.5213  2.1725  0.2667
    1SOL    HW310843   1.778   2.939   4.153 -0.4549  2.0951 -0.6594
    1SOL    MW410844   1.711   2.915   4.202  0.2580  0.6688 -0.3548
    1SOL     OW10845   3.814   3.101   4.712 -0.4858  0.0703  0.6781
    1SOL    HW210846   3.740   3.140   4.665  0.0646  0.5355  0.1865
    1SOL    HW310847   3.807   3.007   4.695 -0.3252  0.2267 -0.3127
    1SOL    MW410848   3.804   3.094   4.703 -0.3920  0.1523  0.4826
    1SOL     OW10849   0.910   3.380   4.724 -0.0898 -0.4169  0.3884
    1SOL    HW210850   0.956   3.339   4.798  0.3507  0.2558  0.4964
    1SOL    HW310851   0.972   3.445   4.691 -0.2075 -0.8724 -0.7182
    1SOL    MW410852   0.924   3.384   4.730 -0.0472 -0.3884  0.2570
    1SOL     OW10853   0.733   2.523   4.745  0.4008 -0.2111  0.0900
    1SOL    HW210854   0.735   2.610   4.704  0.2962 -0.4357 -0.3965
    1SOL    HW310855   0.729   2.541   4.839  0.0387  0.3107 -0.0226
    1SOL    MW410856   0.733   2.537   4.752  0.3392 -0.1719  0.0105
    1SOL     OW10857   0.062   3.114   4.642 -0.5656 -0.1705  0.4259
    1SOL    HW210858   0.010   3.147   4.569  1.0565  0.3010 -0.5406
    1SOL    HW310859   0.002   3.115   4.716 -1.8008  0.7894 -0.5615
    1SOL    MW410860   0.047   3.119   4.642 -0.5146  0.0184  0.1688
    1SOL     OW10861   2.011   3.883   4.698  0.0347  0.5495  0.2042
    1SOL    HW210862   2.099   3.897   4.662 -0.0124  0.7114  0.1517
    1SOL    HW310863   1.982   3.800   4.660  0.0559  0.6312  0.0092
    1SOL    MW410864   2.019   3.874   4.688  0.0315  0.5817  0.1712
    1SOL     OW10865   1.082   3.590   4.653  0.2337  0.6041  0.1789
    1SOL    HW210866   1.094   3.582   4.558 -1.2081 -0.8536  0.0960
    1SOL    HW310867   1.169   3.574   4.689  0.1999 -1.9917 -0.7580
    1SOL    MW410868   1.095   3.587   4.645  0.0391  0.0694  0.0443
    1SOL     OW10869   4.429   0.165   4.567 -0.4962  0.6329  0.1275
    1SOL    HW210870   4.511   0.207   4.592  1.5534 -3.7848  1.3254
    1SOL    HW310871   4.436   0.154   4.473 -0.5073  1.7662 -0.0201
    1SOL    MW410872   4.441   0.169   4.558 -0.2275  0.1996  0.2661
    1SOL     OW10873   0.634   3.792   4.681  0.3337 -0.1536  0.4704
    1SOL    HW210874   0.564   3.850   4.652  0.2895 -0.9583 -1.0794
    1SOL    HW310875   0.714   3.830   4.643  0.1516 -1.7614 -1.5847
    1SOL    MW410876   0.635   3.805   4.672  0.3039 -0.4721 -0.0043
    1SOL     OW10877   0.848   4.449   4.877  0.1093 -0.0813 -0.3692
    1SOL    HW210878   0.815   4.417   4.961  0.4903  0.4611 -0.0103
    1SOL    HW310879   0.939   4.472   4.894  0.7709 -1.8215 -1.4196
    1SOL    MW410880   0.855   4.448   4.891  0.2468 -0.2394 -0.4601
    1SOL     OW10881   2.556   0.537   4.529  0.1269 -0.0033  0.0622
    1SOL    HW210882   2.603   0.611   4.569  1.7710 -1.7143  1.3592
    1SOL    HW310883   2.593   0.460   4.572 -1.0593 -1.6288 -1.8092
    1SOL    MW410884   2.567   0.537   4.540  0.1874 -0.4435 -0.0138
    1SOL     OW10885   1.084   0.538   4.492  0.8779  0.0916  0.4271
    1SOL    HW210886   1.155   0.499   4.544  0.6473  0.0839  0.7404
    1SOL    HW310887   1.118   0.540   4.403  1.1716 -0.1606  0.5306
    1SOL    MW410888   1.097   0.533   4.487  0.8862  0.0573  0.4826
    1SOL     OW10889   2.167   3.496   4.701  0.4515  0.1426  0.1409
    1SOL    HW210890   2.186   3.405   4.725  0.4294  0.0326 -0.2562
    1SOL    HW310891   2.247   3.543   4.723  0.6983 -0.0850 -0.2568
    1SOL    MW410892   2.180   3.490   4.707  0.4809  0.0982  0.0358
    1SOL     OW10893   0.225   0.523   4.568 -0.0411  0.3372 -0.1287
    1SOL    HW210894   0.152   0.574   4.603  1.0023  1.4654  0.4412
    1SOL    HW310895   0.297   0.585   4.561  0.7391 -0.6526 -1.1232
    1SOL    MW410896   0.225   0.538   4.572  0.1995  0.3554 -0.1845
    1SOL     OW10897   1.093   4.407   4.610  0.0324  0.0817 -0.3391
    1SOL    HW210898   1.090   4.496   4.644 -0.5703  0.4914 -1.4163
    1SOL    HW310899   1.174   4.369   4.645 -0.9103  0.2480  2.0527
    1SOL    MW410900   1.103   4.413   4.619 -0.1714  0.1574 -0.1659
    1SOL     OW10901   1.567   0.022   4.638  0.3143 -0.5054 -0.3953
    1SOL    HW210902   1.562  -0.074   4.645 -1.1840 -0.4374 -0.3709
    1SOL    HW310903   1.479   0.048   4.612  1.0371  0.7769 -1.5601
    1SOL    MW410904   1.555   0.013   4.636  0.2121 -0.3273 -0.5455
    1SOL     OW10905   1.222   0.558   4.840  0.3422 -0.0243  0.5196
    1SOL    HW210906   1.279   0.579   4.767 -0.7861 -0.0087 -0.3691
    1SOL    HW310907   1.152   0.623   4.836  0.8457  0.6774  2.2929
    1SOL    MW410908   1.220   0.569   4.830  0.2598  0.0703  0.6366
    1SOL     OW10909   1.313   0.133   4.583 -0.3259 -0.1115 -0.3223
    1SOL    HW210910   1.332   0.211   4.635 -0.6931  0.8016 -1.5376
    1SOL    HW310911   1.230   0.100   4.620  0.2066 -0.3653  0.6752
    1SOL    MW410912   1.304   0.139   4.595 -0.3042 -0.0245 -0.3514
    1SOL     OW10913   2.222   4.569   4.685  0.4537  0.2022  0.1084
    1SOL    HW210914   2.246   4.632   4.617 -0.1653  0.4942  0.1597
    1SOL    HW310915   2.296   4.508   4.688 -0.6659 -1.3365 -2.6273
    1SOL    MW410916   2.235   4.569   4.677  0.2244  0.0381 -0.2456
    1SOL     OW10917   1.090   0.019   4.693  0.0318 -0.0272  0.1743
    1SOL    HW210918   1.135   0.023   4.777  0.9587  2.0022 -0.3846
    1SOL    HW310919   1.010   0.069   4.705  0.1876  0.3054 -0.1597
    1SOL    MW410920   1.085   0.026   4.705  0.1748  0.2842  0.0567
    1SOL     OW10921   1.003   1.605   4.595  0.0825  0.0241  0.3146
    1SOL    HW210922   0.954   1.620   4.515 -0.8970 -1.0788  0.6901
    1SOL    HW310923   0.968   1.669   4.657 -0.0811 -0.0030  0.2495
    1SOL    MW410924   0.992   1.615   4.593 -0.0683 -0.1251  0.3557
    1SOL     OW10925   0.942   2.963   4.590 -0.0309 -0.2221 -0.3609
    1SOL    HW210926   0.873   2.897   4.599  0.7492 -0.8990  0.8318
    1SOL    HW310927   0.895   3.045   4.579 -1.0475 -0.6268  0.8376
    1SOL    MW410928   0.927   2.965   4.590 -0.0621 -0.3645 -0.0458
    1SOL     OW10929   1.810   2.560   4.140  0.0576 -0.1945  0.2559
    1SOL    HW210930   1.783   2.621   4.209 -0.3814 -0.9195  0.7389
    1SOL    HW310931   1.769   2.477   4.164  1.2582 -0.8755  0.0312
    1SOL    MW410932   1.801   2.557   4.153  0.1582 -0.3798  0.2899
    1SOL     OW10933   0.919   2.390   4.562 -0.6585  0.2310 -0.0094
    1SOL    HW210934   0.865   2.430   4.629 -0.6255  0.4227 -0.0973
    1SOL    HW310935   1.004   2.432   4.571 -0.2634 -0.7095  0.7202
    1SOL    MW410936   0.923   2.401   4.572 -0.6020  0.1323  0.0753
    1SOL     OW10937   2.415   3.296   4.574  0.1559 -0.4628  0.7080
    1SOL    HW210938   2.329   3.267   4.604  0.4308 -1.2996  0.7130
    1SOL    HW310939   2.436   3.370   4.630 -0.3837 -0.5079  0.9763
    1SOL    MW410940   2.406   3.302   4.585  0.1211 -0.5791  0.7439
    1SOL     OW10941   0.254   2.903   4.641  0.6473 -0.4792  0.1286
    1SOL    HW210942   0.190   2.973   4.656  0.7509 -0.3698  0.0580
    1SOL    HW310943   0.250   2.887   4.547  1.2362  0.0176  0.0142
    1SOL    MW410944   0.245   2.910   4.631  0.7387 -0.3994  0.1040
    1SOL     OW10945   1.182   2.007   4.555 -0.2367 -0.0172  0.0902
    1SOL    HW210946   1.266   2.051   4.569  0.2165 -1.1852  1.1208
    1SOL    HW310947   1.204   1.914   4.548 -1.2533 -0.1572 -1.3872
    1SOL    MW410948   1.196   2.000   4.556 -0.3110 -0.1898  0.0310
    1SOL     OW10949   0.456   2.395   4.660 -0.0383  0.0255 -0.4847
    1SOL    HW210950   0.493   2.387   4.572  1.6185 -1.6219  0.3336
    1SOL    HW310951   0.526   2.433   4.712 -0.5879 -0.1578  0.4015
    1SOL    MW410952   0.470   2.399   4.655  0.1078 -0.2162 -0.2599
    1SOL     OW10953   1.345   2.948   4.728  0.2772 -0.3719  0.2844
    1SOL    HW210954   1.346   2.889   4.804 -0.5203 -0.6301  0.1009
    1SOL    HW310955   1.294   2.901   4.662 -0.1844  0.4397  0.0602
    1SOL    MW410956   1.339   2.934   4.729  0.1111 -0.2990  0.2313
    1SOL     OW10957   1.105   4.496   4.956  0.2122  0.0059  0.2222
    1SOL    HW210958   1.141   4.412   4.928 -1.5191 -0.8235  0.4099
    1SOL    HW310959   1.179   4.556   4.952  0.6029 -0.5898 -3.8853
    1SOL    MW410960   1.119   4.493   4.952  0.0353 -0.1822 -0.2947
    1SOL     OW10961   2.485   3.749   4.533 -0.0443 -0.1335 -0.6466
    1SOL    HW210962   2.483   3.713   4.445 -1.2775 -0.9606 -0.2946
    1SOL    HW310963   2.397   3.787   4.546 -0.3066 -1.1580  0.6765
    1SOL    MW410964   2.473   3.749   4.523 -0.2415 -0.3777 -0.4258
    1SOL     OW10965   2.341   3.267   4.315  0.0737  0.1806 -0.0014
    1SOL    HW210966   2.249   3.240   4.316  0.5262 -1.5676 -1.6324
    1SOL    HW310967   2.364   3.274   4.408 -1.3923 -0.4939  0.4499
    1SOL    MW410968   2.332   3.264   4.328 -0.0601 -0.1390 -0.1569
    1SOL     OW10969   1.652   3.227   4.229  0.5310 -0.0835 -0.3597
    1SOL    HW210970   1.666   3.321   4.220 -1.3217  0.2081 -0.3023
    1SOL    HW310971   1.730   3.196   4.275  0.7162  1.5866  0.4958
    1SOL    MW410972   1.664   3.235   4.234  0.3111  0.1755 -0.2394
    1SOL     OW10973   1.310   0.008   4.965  0.6717 -0.0744  0.0805
    1SOL    HW210974   1.405   0.024   4.967  0.7765 -0.5659 -0.6685
    1SOL    HW310975   1.272   0.094   4.945  1.0713 -0.1969 -1.2540
    1SOL    MW410976   1.318   0.022   4.962  0.7383 -0.1554 -0.1945
    1SOL     OW10977   1.961   4.526   4.585 -0.1439 -0.3108 -0.0089
    1SOL    HW210978   1.907   4.451   4.609  0.0795 -0.8935 -1.2869
    1SOL    HW310979   2.038   4.519   4.642 -1.0065  0.0287  1.2044
    1SOL    MW410980   1.964   4.515   4.595 -0.2284 -0.3433 -0.0172
    1SOL     OW10981   2.713   0.547   4.881  0.1571  0.3921 -0.0575
    1SOL    HW210982   2.699   0.482   4.812 -0.5087  1.6915 -1.1716
    1SOL    HW310983   2.686   0.503   4.961 -1.7527 -0.2277 -1.0009
    1SOL    MW410984   2.707   0.533   4.882 -0.1826  0.4817 -0.3290
    1SOL     OW10985   0.418   3.967   4.602  0.5480  0.0545 -0.3052
    1SOL    HW210986   0.431   4.059   4.626  1.7915 -0.2875  0.3905
    1SOL    HW310987   0.403   3.969   4.508 -1.0761  1.1162 -0.0538
    1SOL    MW410988   0.417   3.980   4.593  0.4978  0.1493 -0.1812
    1SOL     OW10989   2.289   0.125   4.533  0.0544 -0.4524 -0.0091
    1SOL    HW210990   2.263   0.135   4.441 -0.0457  2.4518  0.3187
    1SOL    HW310991   2.274   0.210   4.573  2.2744 -1.0050  2.1794
    1SOL    MW410992   2.284   0.137   4.526  0.3340 -0.1421  0.3228
    1SOL     OW10993   2.570   0.144   4.539  0.1624  0.1898 -0.3574
    1SOL    HW210994   2.607   0.134   4.451 -0.4390 -1.2320 -0.4515
    1SOL    HW310995   2.476   0.136   4.526  0.0348  0.5193  0.3501
    1SOL    MW410996   2.563   0.142   4.525  0.0660  0.0457 -0.2766
    1SOL     OW10997   2.679   0.336   4.690  0.1026  0.0363 -0.1562
    1SOL    HW210998   2.763   0.337   4.645 -0.3351  1.5603 -0.9909
    1SOL    HW310999   2.634   0.260   4.655  1.2394 -0.9742  0.5318
    1SOL    MW411000   2.684   0.326   4.680  0.1948  0.1041 -0.1755
    1SOL     OW11001   1.572   1.049   4.597 -0.5300 -0.1204  0.1144
    1SOL    HW211002   1.550   1.104   4.521 -0.5467  0.0141  0.2164
    1SOL    HW311003   1.575   1.110   4.670 -1.0869 -0.3449  0.3249
    1SOL    MW411004   1.570   1.064   4.596 -0.6057 -0.1321  0.1554
    1SOL     OW11005   1.783   1.666   4.585 -0.1379 -0.2533 -0.2639
    1SOL    HW211006   1.687   1.663   4.591 -0.1139  0.0452  0.3924
    1SOL    HW311007   1.802   1.650   4.493 -0.8075 -0.6213 -0.3413
    1SOL    MW411008   1.773   1.664   4.574 -0.2232 -0.2624 -0.1869
    1SOL     OW11009   1.336   2.411   4.366 -0.7881 -0.2970  0.1064
    1SOL    HW211010   1.374   2.338   4.416  0.0928 -0.9087 -1.4046
    1SOL    HW311011   1.407   2.474   4.358 -1.2752  0.3228  0.6111
    1SOL    MW411012   1.350   2.410   4.371 -0.7361 -0.2959 -0.0267
    1SOL     OW11013   2.792   2.633   4.666 -0.5183 -0.1991 -1.3824
    1SOL    HW211014   2.773   2.727   4.660 -0.4020 -0.1061 -0.2831
    1SOL    HW311015   2.707   2.591   4.655 -0.8278  0.0967 -0.1947
    1SOL    MW411016   2.778   2.640   4.663 -0.5438 -0.1481 -1.0810
    1SOL     OW11017   0.729   2.790   4.621 -0.6480  0.2420  0.2451
    1SOL    HW211018   0.653   2.844   4.643 -0.1124  0.2343  2.2442
    1SOL    HW311019   0.731   2.788   4.526 -2.2497  1.5254  0.1693
    1SOL    MW411020   0.719   2.797   4.612 -0.7887  0.4103  0.4988
    1SOL     OW11021   0.920   2.108   4.557 -0.1580 -0.2437  0.2958
    1SOL    HW211022   0.925   2.203   4.566 -1.3375 -0.0828 -0.7106
    1SOL    HW311023   1.012   2.080   4.556  0.2354  1.0182 -0.8556
    1SOL    MW411024   0.933   2.117   4.558 -0.2618 -0.0560  0.0105
    1SOL     OW11025   2.477   1.980   4.264 -0.2145  0.2124 -0.2946
    1SOL    HW211026   2.564   1.952   4.236 -0.2520 -1.5783  1.2828
    1SOL    HW311027   2.468   1.945   4.353 -1.6575  2.3263  0.4323
    1SOL    MW411028   2.487   1.971   4.272 -0.4096  0.2551  0.0091
    1SOL     OW11029   1.513   1.793   4.539 -0.1069  0.0597  0.0127
    1SOL    HW211030   1.418   1.785   4.539 -0.3017  2.0270  0.9515
    1SOL    HW311031   1.535   1.831   4.454 -0.2898  0.6353  0.2149
    1SOL    MW411032   1.503   1.797   4.528 -0.1566  0.3951  0.1636
    1SOL     OW11033   2.252   2.445   4.342  0.2528  0.0790  0.0200
    1SOL    HW211034   2.203   2.513   4.295  0.7891  0.5091  0.0722
    1SOL    HW311035   2.187   2.377   4.360 -0.3987  0.7702  0.3474
    1SOL    MW411036   2.237   2.445   4.339  0.2377  0.2270  0.0701
    1SOL     OW11037   1.102   3.861   4.673  0.1720 -0.4439  0.0104
    1SOL    HW211038   1.094   3.766   4.686 -2.3206  0.0431  2.4940
    1SOL    HW311039   1.014   3.890   4.650  0.9239  1.2924 -0.7798
    1SOL    MW411040   1.089   3.852   4.672 -0.0577 -0.1507  0.2337
    1SOL     OW11041   1.955   3.626   4.572  0.3377  0.2352  0.9810
    1SOL    HW211042   1.968   3.617   4.477 -0.2359  1.0014  0.8271
    1SOL    HW311043   2.025   3.574   4.610 -0.2155 -1.1677  0.1252
    1SOL    MW411044   1.966   3.618   4.564  0.1889  0.1514  0.8478
    1SOL     OW11045   3.287   4.011   4.621 -0.0212  0.2403 -0.1347
    1SOL    HW211046   3.382   4.002   4.621 -0.0988 -0.6777 -0.1364
    1SOL    HW311047   3.256   3.937   4.674 -0.7749 -0.0010 -0.8957
    1SOL    MW411048   3.295   4.000   4.628 -0.1309  0.0877 -0.2351
    1SOL     OW11049   1.734   3.299   4.673 -0.1261  0.1785 -0.1720
    1SOL    HW211050   1.795   3.361   4.713 -1.0486  0.1464  1.3203
    1SOL    HW311051   1.652   3.311   4.721 -0.7753 -1.0613 -0.9402
    1SOL    MW411052   1.731   3.309   4.685 -0.3334  0.0107 -0.0768
    1SOL     OW11053   2.688   3.944   4.551 -0.0668  0.4043  0.2020
    1SOL    HW211054   2.610   3.887   4.557  0.3520 -0.2429 -0.4604
    1SOL    HW311055   2.689   3.974   4.460  0.7922 -0.0670  0.0543
    1SOL    MW411056   2.678   3.940   4.540  0.1018  0.2568  0.0949
    1SOL     OW11057   2.670   3.295   4.470 -0.3530  0.2148 -0.1253
    1SOL    HW211058   2.693   3.381   4.506  0.3826 -0.5271  1.2146
    1SOL    HW311059   2.579   3.281   4.497 -0.4734  0.5732 -0.3459
    1SOL    MW411060   2.661   3.305   4.478 -0.2720  0.1645  0.0224
    1SOL     OW11061   2.893   3.745   4.539  0.1227  0.3816 -0.0300
    1SOL    HW211062   2.833   3.819   4.546  0.6925  0.7096  1.5583
    1SOL    HW311063   2.847   3.673   4.583  0.0812  0.1184 -0.5024
    1SOL    MW411064   2.879   3.745   4.546  0.1924  0.3903  0.1173
    1SOL     OW11065   1.786   3.026   4.750  0.0893  0.0478 -0.2761
    1SOL    HW211066   1.762   3.114   4.722 -0.0911  0.1017  0.0504
    1SOL    HW311067   1.777   2.972   4.671 -0.8312  0.1164 -0.2249
    1SOL    MW411068   1.782   3.030   4.736 -0.0558  0.0639 -0.2260
    1SOL     OW11069   1.574   4.350   4.325  0.2247  0.3284 -0.0739
    1SOL    HW211070   1.655   4.310   4.293 -0.5852 -1.4379  0.0098
    1SOL    HW311071   1.574   4.438   4.287  1.2967 -0.2909 -1.5561
    1SOL    MW411072   1.585   4.357   4.316  0.2593  0.0138 -0.2580
    1SOL     OW11073   1.257   3.270   4.665  0.6361 -0.4709  0.6363
    1SOL    HW211074   1.189   3.219   4.708 -0.3420  0.8622  0.7075
    1SOL    HW311075   1.233   3.269   4.572  0.6569 -0.2315  0.6254
    1SOL    MW411076   1.245   3.263   4.658  0.5097 -0.2635  0.6442
    1SOL     OW11077   2.934   4.538   4.569  0.1434  0.7018 -0.9057
    1SOL    HW211078   2.843   4.562   4.583  0.2466  2.0631 -2.5203
    1SOL    HW311079   2.981   4.621   4.563  1.5016  0.0248 -0.0984
    1SOL    MW411080   2.928   4.552   4.570  0.3364  0.7920 -1.0123
    1SOL     OW11081   2.338   0.608   4.682 -0.0825  0.4891  0.2784
    1SOL    HW211082   2.407   0.575   4.625 -1.9212  0.5371 -2.0861
    1SOL    HW311083   2.342   0.703   4.671  0.5398  0.5900  1.4101
    1SOL    MW411084   2.347   0.616   4.673 -0.2432  0.5087  0.1159
    1SOL     OW11085   1.046   1.318   4.567  0.2549  0.4246 -0.5218
    1SOL    HW211086   1.024   1.411   4.578 -1.3112  0.0906 -0.7463
    1SOL    HW311087   1.071   1.289   4.654  0.5590  1.0080 -0.4108
    1SOL    MW411088   1.047   1.327   4.580  0.0883  0.4574 -0.5369
    1SOL     OW11089   1.533   4.416   4.611  0.6208 -0.0722  0.6375
    1SOL    HW211090   1.532   4.406   4.516 -1.0072 -1.0311  0.7328
    1SOL    HW311091   1.616   4.376   4.638  0.5393 -0.8921 -0.2795
    1SOL    MW411092   1.544   4.409   4.602  0.3952 -0.3071  0.5293
    1SOL     OW11093   2.213   0.355   4.658 -0.3362  0.1866  0.2221
    1SOL    HW211094   2.121   0.381   4.651 -0.2198  0.1541 -1.5423
    1SOL    HW311095   2.259   0.437   4.677 -0.6766  0.2628  0.7392
    1SOL    MW411096   2.207   0.369   4.660 -0.3660  0.1924  0.0577
    1SOL     OW11097   1.570   0.204   4.873 -0.3528 -0.5391  0.4095
    1SOL    HW211098   1.655   0.248   4.872 -0.7486  0.2447  0.9522
    1SOL    HW311099   1.580   0.131   4.811  0.4477  0.0486 -0.1626
    1SOL    MW411100   1.583   0.200   4.865 -0.2995 -0.3582  0.4063
    1SOL     OW11101   1.911   0.361   4.630  0.3125 -0.1396 -0.5049
    1SOL    HW211102   1.894   0.282   4.577 -0.9668 -1.1640  1.3629
    1SOL    HW311103   1.885   0.336   4.719  0.5486  2.1841  0.2472
    1SOL    MW411104   1.905   0.347   4.635  0.1749  0.0318 -0.1593
    1SOL     OW11105   2.899   1.895   4.693  0.4133  0.0290  0.2309
    1SOL    HW211106   2.884   1.959   4.623  0.2178  0.5371  0.7284
    1SOL    HW311107   2.860   1.936   4.771  1.4438 -0.1196  0.8366
    1SOL    MW411108   2.892   1.909   4.694  0.5238  0.0764  0.3767
    1SOL     OW11109   2.215   1.640   4.311 -0.1033  0.1576  0.1650
    1SOL    HW211110   2.301   1.604   4.289 -0.3769 -0.6219  0.3435
    1SOL    HW311111   2.207   1.718   4.255  0.4050 -0.1861 -0.3986
    1SOL    MW411112   2.225   1.646   4.300 -0.0722  0.0092  0.1140
    1SOL     OW11113   1.990   1.488   4.646 -0.4963 -0.4319  0.2514
    1SOL    HW211114   2.053   1.559   4.631 -0.3189 -0.1262  2.3820
    1SOL    HW311115   1.905   1.532   4.651 -0.5470 -0.5272  0.2165
    1SOL    MW411116   1.987   1.503   4.645 -0.4796 -0.4041  0.5279
    1SOL     OW11117   2.215   1.889   4.170  0.2816 -0.4024  0.1427
    1SOL    HW211118   2.301   1.916   4.203  0.2721 -1.8221  1.3777
    1SOL    HW311119   2.153   1.921   4.235 -0.1529  0.6465 -0.7616
    1SOL    MW411120   2.218   1.897   4.183  0.2229 -0.4513  0.1864
    1SOL     OW11121   2.198   1.690   4.574 -0.5023  0.1556  0.4154
    1SOL    HW211122   2.152   1.774   4.577 -0.9996 -0.0897 -0.1720
    1SOL    HW311123   2.202   1.668   4.481  0.7388  0.1301  0.4718
    1SOL    MW411124   2.193   1.698   4.562 -0.4044  0.1199  0.3452
    1SOL     OW11125   2.642   2.221   4.588 -0.2626 -0.1754  0.3971
    1SOL    HW211126   2.716   2.208   4.648 -0.7406  1.3975  1.3582
    1SOL    HW311127   2.573   2.164   4.621 -0.2352  0.0440  0.8288
    1SOL    MW411128   2.643   2.212   4.600 -0.3223  0.0613  0.5813
    1SOL     OW11129   1.401   2.196   4.541 -0.2521  0.2806  0.0017
    1SOL    HW211130   1.475   2.186   4.481 -1.0805 -2.4533 -0.6361
    1SOL    HW311131   1.441   2.216   4.625  1.0597  1.5757 -0.9012
    1SOL    MW411132   1.416   2.197   4.544 -0.1885  0.0908 -0.2017
    1SOL     OW11133   2.117   2.541   4.561 -0.0170 -0.1794  0.4539
    1SOL    HW211134   2.171   2.518   4.485 -0.7127 -2.2633  0.5685
    1SOL    HW311135   2.056   2.607   4.528  0.7882  0.1672 -0.3642
    1SOL    MW411136   2.116   2.547   4.546 -0.0029 -0.4089  0.3614
    1SOL     OW11137   3.172   4.536   4.730 -0.5951 -0.3208 -0.3547
    1SOL    HW211138   3.201   4.621   4.695  0.0848 -0.0296  0.9086
    1SOL    HW311139   3.090   4.519   4.684  1.1257 -0.7811 -3.4014
    1SOL    MW411140   3.165   4.545   4.719 -0.2785 -0.3433 -0.5898
    1SOL     OW11141   3.321   1.809   4.599  0.0635  0.7040  0.5916
    1SOL    HW211142   3.234   1.769   4.592 -0.0283  0.8805  0.7418
    1SOL    HW311143   3.304   1.901   4.618  0.2820  0.7682  0.4802
    1SOL    MW411144   3.307   1.816   4.600  0.0801  0.7359  0.5975
    1SOL     OW11145   2.773   3.109   4.678 -0.0227  0.0390 -0.2899
    1SOL    HW211146   2.738   3.156   4.602  0.1864 -0.0824 -0.4629
    1SOL    HW311147   2.722   3.142   4.752  0.1981  0.6294 -0.3952
    1SOL    MW411148   2.762   3.120   4.678  0.0341  0.1009 -0.3266
    1SOL     OW11149   2.465   3.532   4.713  0.3472  0.0024 -0.0379
    1SOL    HW211150   2.481   3.604   4.652 -0.0296  0.7291  0.7118
    1SOL    HW311151   2.552   3.513   4.749  0.4632  0.0125 -0.3034
    1SOL    MW411152   2.479   3.539   4.709  0.3133  0.0997  0.0262
    1SOL     OW11153   1.517   2.896   4.513 -0.0818 -0.5981  0.0669
    1SOL    HW211154   1.609   2.906   4.492  0.3306 -1.6992  1.2782
    1SOL    HW311155   1.507   2.937   4.599 -1.2295  1.6272 -1.0794
    1SOL    MW411156   1.527   2.903   4.522 -0.1789 -0.4499  0.0749
    1SOL     OW11157   2.842   2.216   4.763 -0.1748  0.1565 -0.6042
    1SOL    HW211158   2.862   2.290   4.819  0.5904 -0.2696 -0.3000
    1SOL    HW311159   2.909   2.219   4.694 -0.7257  0.3120 -1.1367
    1SOL    MW411160   2.853   2.226   4.761 -0.1466  0.1206 -0.6342
    1SOL     OW11161   3.571   3.966   4.583  0.0760  0.2104  0.5082
    1SOL    HW211162   3.539   3.876   4.582  1.4039 -0.2650 -0.6064
    1SOL    HW311163   3.655   3.961   4.628  1.6377  0.3515 -2.3316
    1SOL    MW411164   3.578   3.954   4.589  0.4573  0.1662 -0.0138
    1SOL     OW11165   1.862   0.286   4.899  0.0437  0.2512 -0.3175
    1SOL    HW211166   1.917   0.209   4.889  0.7932  0.8506 -0.9230
    1SOL    HW311167   1.871   0.311   4.991 -1.1512 -1.0730  0.1746
    1SOL    MW411168   1.870   0.279   4.909 -0.0151  0.1556 -0.3328
    1SOL     OW11169   1.799   4.330   4.686  0.0268  0.0826 -0.4080
    1SOL    HW211170   1.830   4.337   4.777  0.5590  0.4379 -0.6170
    1SOL    HW311171   1.787   4.236   4.673 -0.2131  0.0403  0.0860
    1SOL    MW411172   1.802   4.318   4.697  0.0654  0.1245 -0.3705
    1SOL     OW11173   3.133   0.894   4.278 -0.0301 -0.3362  0.3835
    1SOL    HW211174   3.206   0.866   4.224  0.9122  0.1606  1.3778
    1SOL    HW311175   3.125   0.988   4.261 -1.3852 -0.6540 -0.8259
    1SOL    MW411176   3.142   0.903   4.269 -0.0849 -0.3126  0.3548
    1SOL     OW11177   2.672   4.589   4.666 -0.1724  0.6822  0.2818
    1SOL    HW211178   2.693   4.602   4.759 -0.7498  1.3079  0.3294
    1SOL    HW311179   2.636   4.673   4.638 -1.7741 -0.0740 -0.0221
    1SOL    MW411180   2.670   4.602   4.675 -0.4601  0.6647  0.2475
    1SOL     OW11181   4.185   0.314   4.579 -0.7230 -0.3183 -0.0592
    1SOL    HW211182   4.121   0.242   4.577 -0.8299 -0.2937  1.4756
    1SOL    HW311183   4.270   0.270   4.585 -0.7021 -0.3358 -0.4993
    1SOL    MW411184   4.188   0.298   4.580 -0.7348 -0.3173  0.0858
    1SOL     OW11185   2.690   1.718   4.584  0.5007  0.3209  0.3191
    1SOL    HW211186   2.751   1.753   4.650  0.0847 -0.8577  1.3530
    1SOL    HW311187   2.676   1.627   4.611 -0.5844  0.1678 -0.7475
    1SOL    MW411188   2.696   1.711   4.596  0.3026  0.1452  0.3147
    1SOL     OW11189   0.880   4.232   4.682 -0.2060  0.1022 -0.2800
    1SOL    HW211190   0.955   4.286   4.657 -0.7780  0.6017 -0.9448
    1SOL    HW311191   0.855   4.264   4.769  1.4884 -1.3091  0.7364
    1SOL    MW411192   0.886   4.244   4.691 -0.0580 -0.0172 -0.2337
    1SOL     OW11193   2.288   0.887   4.594 -0.4781  0.1168 -0.0464
    1SOL    HW211194   2.366   0.941   4.606 -0.6011  0.5314 -1.0278
    1SOL    HW311195   2.280   0.879   4.499  0.1895 -2.5403  0.0521
    1SOL    MW411196   2.297   0.893   4.583 -0.4063 -0.1791 -0.1636
    1SOL     OW11197   3.565   0.661   4.649  0.2613  0.4584  0.2517
    1SOL    HW211198   3.652   0.635   4.619 -0.0255 -0.1540 -0.0619
    1SOL    HW311199   3.564   0.756   4.640 -0.2254  0.2186 -2.8076
    1SOL    MW411200   3.577   0.670   4.644  0.1593  0.3459 -0.1931
    1SOL     OW11201   3.192   1.312   4.752 -0.1084  0.3564 -0.0694
    1SOL    HW211202   3.192   1.297   4.847  0.0087 -0.9658 -0.2607
    1SOL    HW311203   3.232   1.233   4.716  0.8938  1.3535 -1.1534
    1SOL    MW411204   3.197   1.299   4.760  0.0393  0.3135 -0.2379
    1SOL     OW11205   2.420   1.844   4.524  0.1284 -0.5226 -0.3388
    1SOL    HW211206   2.505   1.808   4.548 -1.0441 -1.2934  2.9702
    1SOL    HW311207   2.357   1.781   4.560 -1.8646  1.4961 -0.2364
    1SOL    MW411208   2.423   1.831   4.532 -0.2894 -0.3580  0.1121
    1SOL     OW11209   3.259   2.546   4.761 -0.0894  0.2087 -0.0871
    1SOL    HW211210   3.300   2.487   4.698 -1.0623 -0.7765  0.1986
    1SOL    HW311211   3.165   2.534   4.748 -0.3121 -0.7160  2.2144
    1SOL    MW411212   3.252   2.537   4.751 -0.2475 -0.0432  0.2542
    1SOL     OW11213   2.460   2.278   4.225  0.0803  0.4198  0.0962
    1SOL    HW211214   2.387   2.333   4.252 -0.6121 -0.2019 -0.5162
    1SOL    HW311215   2.438   2.191   4.256  0.0635  0.0217 -1.0194
    1SOL    MW411216   2.448   2.274   4.233 -0.0134  0.2854 -0.1311
    1SOL     OW11217   3.010   2.234   4.552 -0.7168 -0.0273  0.1451
    1SOL    HW211218   3.002   2.329   4.567  0.0280  0.1739 -0.7246
    1SOL    HW311219   2.980   2.221   4.462 -0.7374 -0.6121  0.2332
    1SOL    MW411220   3.005   2.245   4.542 -0.6211 -0.0780  0.0415
    1SOL     OW11221   3.286   2.103   4.604 -0.3505  0.2469  0.0978
    1SOL    HW211222   3.312   2.088   4.513  1.1493  0.6974  0.4522
    1SOL    HW311223   3.190   2.111   4.600 -0.3059  0.1250 -1.4166
    1SOL    MW411224   3.277   2.102   4.591 -0.1469  0.2902 -0.0548
    1SOL     OW11225   2.036   2.277   4.405  0.0413 -0.1364  0.0042
    1SOL    HW211226   2.074   2.263   4.492 -0.0790  0.0955  0.0959
    1SOL    HW311227   1.957   2.328   4.422 -0.1570 -0.3748 -0.2125
    1SOL    MW411228   2.031   2.282   4.419 -0.0007 -0.1371 -0.0124
    1SOL     OW11229   3.561   3.215   4.628  0.1028  0.1335  0.0476
    1SOL    HW211230   3.478   3.175   4.653 -0.6813  1.3795 -0.4908
    1SOL    HW311231   3.571   3.194   4.536  0.6563 -0.4626  0.2393
    1SOL    MW411232   3.552   3.207   4.620  0.0722  0.2193  0.0019
    1SOL     OW11233   2.565   1.207   4.755  0.2656  0.1236  0.0107
    1SOL    HW211234   2.583   1.133   4.696 -1.6635 -1.1141  0.9430
    1SOL    HW311235   2.594   1.177   4.841 -0.4464  0.4678  0.3774
    1SOL    MW411236   2.571   1.193   4.758 -0.0832  0.0057  0.1817
    1SOL     OW11237   3.583   4.245   4.666  0.4021  0.1541 -0.0204
    1SOL    HW211238   3.496   4.282   4.652  0.0561 -0.1533  1.2203
    1SOL    HW311239   3.575   4.154   4.636  0.3936  0.2192 -0.2179
    1SOL    MW411240   3.570   4.238   4.660  0.3552  0.1221  0.1173
    1SOL     OW11241   2.341   3.062   4.883  0.0101 -0.4405 -0.1845
    1SOL    HW211242   2.356   3.022   4.798 -0.2542  0.0331 -0.4570
    1SOL    HW311243   2.305   2.991   4.937 -0.5409 -0.5536 -0.6906
    1SOL    MW411244   2.338   3.047   4.879 -0.0978 -0.3929 -0.2875
    1SOL     OW11245   4.199   4.140   4.694  0.0333 -0.2375  0.0062
    1SOL    HW211246   4.212   4.226   4.657  1.8513 -0.4069  0.2251
    1SOL    HW311247   4.281   4.094   4.679 -0.0797 -1.1455  1.9558
    1SOL    MW411248   4.212   4.145   4.687  0.2584 -0.3800  0.2923
    1SOL     OW11249   2.692   2.874   4.589 -0.1397 -0.1139  0.0574
    1SOL    HW211250   2.727   2.953   4.630  0.8001  0.1144 -1.1751
    1SOL    HW311251   2.597   2.881   4.603  0.0823  0.3865  1.4245
    1SOL    MW411252   2.684   2.886   4.596  0.0138 -0.0179  0.0749
    1SOL     OW11253   0.527   3.260   4.602 -0.1481  1.3932 -0.0410
    1SOL    HW211254   0.439   3.246   4.637  0.2929  1.0003  0.9291
    1SOL    HW311255   0.561   3.336   4.650  0.0561  1.5175 -0.3801
    1SOL    MW411256   0.520   3.268   4.613 -0.0630  1.3576  0.0424
    1SOL     OW11257   2.510   3.070   4.199  0.0007  0.1334  0.1798
    1SOL    HW211258   2.468   3.151   4.227  0.7978  0.4190  0.5721
    1SOL    HW311259   2.603   3.084   4.216  0.6475  0.6318 -3.3843
    1SOL    MW411260   2.517   3.083   4.205  0.1912  0.2367 -0.2384
    1SOL     OW11261   2.244   3.919   4.573 -0.7027  0.2374 -0.5461
    1SOL    HW211262   2.303   3.982   4.615  0.3927 -1.0645 -0.0880
    1SOL    HW311263   2.235   3.950   4.483  0.5940  0.5439 -0.5845
    1SOL    MW411264   2.251   3.931   4.567 -0.3872  0.1063 -0.4911
    1SOL     OW11265   2.458   4.144   4.576  0.3782  0.7987 -0.4855
    1SOL    HW211266   2.543   4.101   4.579 -0.6393 -1.1586  1.1628
    1SOL    HW311267   2.477   4.237   4.591  2.3372  0.5785 -1.4992
    1SOL    MW411268   2.472   4.151   4.578  0.5023  0.5112 -0.4020
    1SOL     OW11269   4.259   0.738   4.564  0.1701  0.2726 -0.5449
    1SOL    HW211270   4.239   0.673   4.497  0.2834 -0.5131  0.1765
    1SOL    HW311271   4.345   0.713   4.597 -0.3458  0.0208  0.6383
    1SOL    MW411272   4.268   0.726   4.559  0.1173  0.1357 -0.2942
    1SOL     OW11273   2.985   0.724   4.603 -0.2117  0.4041  0.5867
    1SOL    HW211274   3.070   0.762   4.581 -0.2501  0.4377  0.4977
    1SOL    HW311275   3.007   0.646   4.655 -0.0992 -0.1982 -0.3642
    1SOL    MW411276   2.999   0.719   4.607 -0.2019  0.3291  0.4492
    1SOL     OW11277   2.319   1.230   4.564 -0.1327  0.1535 -0.2486
    1SOL    HW211278   2.376   1.220   4.641 -0.1535 -2.4663 -0.5137
    1SOL    HW311279   2.379   1.254   4.493  0.3937 -0.7062 -0.1061
    1SOL    MW411280   2.335   1.231   4.565 -0.0658 -0.3055 -0.2646
    1SOL     OW11281   2.960   1.429   4.633  0.0134 -0.2807  0.2555
    1SOL    HW211282   3.042   1.405   4.676  0.2863  0.5319  0.1998
    1SOL    HW311283   2.959   1.375   4.554 -0.1920 -1.3216  0.9643
    1SOL    MW411284   2.971   1.419   4.628  0.0222 -0.3108  0.3424
    1SOL     OW11285   3.134   0.470   4.685  0.6022 -0.4351  0.2441
    1SOL    HW211286   3.184   0.427   4.754  0.5639 -0.1954  0.4221
    1SOL    HW311287   3.198   0.525   4.640  0.7240 -0.9448 -0.2023
    1SOL    MW411288   3.149   0.472   4.688  0.6135 -0.4707  0.2079
    1SOL     OW11289   2.708   0.738   4.665 -0.0438  0.5293 -0.2445
    1SOL    HW211290   2.800   0.758   4.649  0.0296  0.7746  0.4632
    1SOL    HW311291   2.707   0.691   4.748 -0.6104  1.0770  0.0690
    1SOL    MW411292   2.720   0.735   4.674 -0.1090  0.6340 -0.1097
    1SOL     OW11293   2.542   2.504   4.636 -0.1652  0.5075 -0.7292
    1SOL    HW211294   2.533   2.494   4.541 -1.7278  0.1330 -0.5647
    1SOL    HW311295   2.558   2.416   4.668  0.2466  0.6160 -0.6414
    1SOL    MW411296   2.543   2.491   4.627 -0.3169  0.4725 -0.6962
    1SOL     OW11297   3.842   1.085   4.696  0.3028 -0.2379 -0.4978
    1SOL    HW211298   3.871   1.168   4.734 -0.6712 -0.1132 -0.0138
    1SOL    HW311299   3.923   1.040   4.673  0.8382  0.8998 -0.8855
    1SOL    MW411300   3.857   1.090   4.698  0.2449 -0.0714 -0.4849
    1SOL     OW11301   3.967   1.417   4.643 -0.8313  0.7415  0.1248
    1SOL    HW211302   3.930   1.499   4.676 -4.1625 -1.1089  1.2163
    1SOL    HW311303   3.911   1.394   4.570  0.1373 -0.5315 -0.2197
    1SOL    MW411304   3.955   1.425   4.638 -1.1430  0.3295  0.2232
    1SOL     OW11305   3.595   2.433   4.556  0.8007 -0.3917  0.0101
    1SOL    HW211306   3.588   2.505   4.618 -0.5855 -0.5173  0.0083
    1SOL    HW311307   3.509   2.391   4.557  0.1362  0.7268 -3.3311
    1SOL    MW411308   3.583   2.437   4.564  0.5302 -0.2606 -0.4306
    1SOL     OW11309   3.288   0.287   4.881 -0.7137  0.0891 -0.3591
    1SOL    HW211310   3.316   0.270   4.971 -0.3079  1.2271 -0.2594
    1SOL    HW311311   3.365   0.324   4.838 -1.2199  0.5614 -0.8780
    1SOL    MW411312   3.302   0.289   4.887 -0.7269  0.3016 -0.4148
    1SOL     OW11313   4.145   2.328   4.845 -0.0067  0.3219 -0.3774
    1SOL    HW211314   4.169   2.387   4.916 -1.9053  0.7405 -0.0569
    1SOL    HW311315   4.224   2.275   4.830  0.0548 -0.5407  2.7676
    1SOL    MW411316   4.159   2.329   4.852 -0.2494  0.2632  0.0796
    1SOL     OW11317   3.297   3.101   4.701  0.0911  0.2785 -0.1309
    1SOL    HW211318   3.214   3.116   4.656 -0.2227  1.6332  0.8328
    1SOL    HW311319   3.302   3.007   4.712 -2.0294  0.2685  1.0599
    1SOL    MW411320   3.286   3.091   4.697 -0.2303  0.4559  0.1531
    1SOL     OW11321   1.846   3.135   4.415  0.2020 -0.4516  0.1997
    1SOL    HW211322   1.821   3.195   4.485  0.0266 -0.3471  0.0495
    1SOL    HW311323   1.830   3.048   4.450  1.7714 -0.4582  0.9254
    1SOL    MW411324   1.841   3.132   4.429  0.3860 -0.4387  0.2756
    1SOL     OW11325   3.067   1.694   4.570 -0.3387  0.5489 -0.4289
    1SOL    HW211326   3.046   1.606   4.601  0.1186 -0.1398 -1.9968
    1SOL    HW311327   3.019   1.753   4.629 -0.8688 -0.7560  0.4634
    1SOL    MW411328   3.058   1.690   4.582 -0.3483  0.2859 -0.5183
    1SOL     OW11329   3.030   2.503   4.610 -0.7776  0.4072  0.0713
    1SOL    HW211330   2.955   2.562   4.624  0.6786  2.0406  1.2964
    1SOL    HW311331   3.085   2.549   4.546 -0.1029 -0.0696  0.3062
    1SOL    MW411332   3.027   2.517   4.604 -0.4966  0.5596  0.2637
    1SOL     OW11333   3.066   3.182   4.572  0.0790  0.2600 -0.0013
    1SOL    HW211334   2.980   3.163   4.612  0.0597  0.4693  0.0595
    1SOL    HW311335   3.053   3.168   4.479  0.0416  0.0576  0.0353
    1SOL    MW411336   3.053   3.178   4.565  0.0713  0.2611  0.0114
    1SOL     OW11337   3.324   3.359   4.826  0.2020  0.0014  0.0112
    1SOL    HW211338   3.343   3.269   4.800 -0.4747  0.6603 -2.9858
    1SOL    HW311339   3.390   3.411   4.780 -0.1535  1.1254  0.7751
    1SOL    MW411340   3.335   3.354   4.816  0.0660  0.2365 -0.2832
    1SOL     OW11341   0.439   2.117   4.765  0.1841 -0.6784 -0.2000
    1SOL    HW211342   0.463   2.202   4.730 -2.1126 -0.6006 -1.6622
    1SOL    HW311343   0.521   2.068   4.770  1.8267  2.1917  2.3599
    1SOL    MW411344   0.453   2.121   4.761  0.0978 -0.2897 -0.0553
    1SOL     OW11345   3.828   3.921   4.689  0.1651  0.0041 -0.1346
    1SOL    HW211346   3.902   3.954   4.637 -0.0242 -1.1333 -1.1435
    1SOL    HW311347   3.835   3.826   4.683 -0.9328 -0.1169  0.4135
    1SOL    MW411348   3.839   3.913   4.681 -0.0050 -0.1616 -0.1955
    1SOL     OW11349   2.206   2.793   4.922 -0.0422 -0.8578 -0.3709
    1SOL    HW211350   2.257   2.728   4.873 -0.1288  0.4239 -2.2012
    1SOL    HW311351   2.156   2.840   4.855  0.4220  1.4490  0.8477
    1SOL    MW411352   2.207   2.791   4.907  0.0074 -0.3846 -0.4520
    1SOL     OW11353   3.307   4.321   4.618  0.1675 -0.0700  0.1631
    1SOL    HW211354   3.255   4.241   4.628  0.7773 -0.5078 -0.1117
    1SOL    HW311355   3.254   4.390   4.658 -0.1168 -0.7139  0.9010
    1SOL    MW411356   3.294   4.320   4.625  0.2105 -0.2127  0.2246
    1SOL     OW11357   2.446   4.424   4.622 -0.4235 -0.5392 -0.2469
    1SOL    HW211358   2.425   4.431   4.529 -0.4910  1.1518 -0.1106
    1SOL    HW311359   2.532   4.466   4.630 -1.1019  0.6768  0.7039
    1SOL    MW411360   2.455   4.430   4.610 -0.5219 -0.1554 -0.1040
    1SOL     OW11361   2.682   3.453   4.888  0.0683  0.2046 -0.2691
    1SOL    HW211362   2.661   3.364   4.917 -0.6364  0.7078  0.7984
    1SOL    HW311363   2.712   3.497   4.967 -0.4853  1.1880 -0.6045
    1SOL    MW411364   2.684   3.447   4.902 -0.0978  0.4008 -0.1721
    1SOL     OW11365   3.331   2.369   4.558  0.1080 -0.3699  0.0514
    1SOL    HW211366   3.298   2.284   4.588 -3.0879  0.6904 -0.2632
    1SOL    HW311367   3.276   2.391   4.483  2.5983  0.8266 -1.5010
    1SOL    MW411368   3.319   2.361   4.552  0.0150 -0.0720 -0.1945
    1SOL     OW11369   2.089   0.133   4.826 -0.0053  0.3792  0.1482
    1SOL    HW211370   2.139   0.205   4.788  0.7716 -0.5807 -0.6592
    1SOL    HW311371   2.140   0.054   4.806  0.1426 -0.2157  2.7057
    1SOL    MW411372   2.102   0.132   4.818  0.1166  0.1740  0.3796
    1SOL     OW11373   3.309   0.611   4.536 -0.6114 -0.7440 -0.0640
    1SOL    HW211374   3.319   0.584   4.445  1.5568 -0.0205 -0.0693
    1SOL    HW311375   3.398   0.632   4.565 -1.7428  2.8250  1.0431
    1SOL    MW411376   3.322   0.610   4.528 -0.4747 -0.1777  0.0811
    1SOL     OW11377   3.213   0.867   4.519 -0.4738 -0.2541 -0.0399
    1SOL    HW211378   3.188   0.877   4.427 -0.3756 -0.3260 -0.0747
    1SOL    HW311379   3.257   0.782   4.522  0.9377  0.4549 -0.2318
    1SOL    MW411380   3.215   0.857   4.507 -0.2747 -0.1700 -0.0696
    1SOL     OW11381   2.584   0.978   4.598 -0.2956 -0.3799 -0.0235
    1SOL    HW211382   2.630   0.906   4.641  1.0234  0.3838 -0.1269
    1SOL    HW311383   2.615   0.975   4.507 -0.2809  0.2664 -0.0424
    1SOL    MW411384   2.594   0.968   4.591 -0.1197 -0.1938 -0.0396
    1SOL     OW11385   4.314   1.924   4.913 -0.1626  0.2908  0.6602
    1SOL    HW211386   4.327   2.004   4.863 -0.0376 -0.6224 -0.7978
    1SOL    HW311387   4.310   1.953   5.004  0.2199  1.9064  0.1778
    1SOL    MW411388   4.315   1.938   4.918 -0.0958  0.3836  0.4048
    1SOL     OW11389   4.063   0.540   4.693 -0.4658 -0.5602  0.0436
    1SOL    HW211390   4.123   0.614   4.688 -0.5291 -0.4209  1.2674
    1SOL    HW311391   4.110   0.468   4.651  0.1728 -0.2041  0.1517
    1SOL    MW411392   4.077   0.540   4.687 -0.3891 -0.4948  0.2189
    1SOL     OW11393   3.974   0.126   4.581 -0.3675  0.1872  0.2651
    1SOL    HW211394   3.985   0.113   4.487 -2.3789  0.9484 -0.1049
    1SOL    HW311395   4.011   0.047   4.621 -0.4387 -0.6110 -1.2307
    1SOL    MW411396   3.980   0.114   4.574 -0.6425  0.1823  0.0191
    1SOL     OW11397   3.964   2.118   4.764 -0.2077 -0.5962  0.1092
    1SOL    HW211398   4.013   2.198   4.783  0.5366 -1.1952  0.7386
    1SOL    HW311399   3.880   2.149   4.729  0.4675  0.4379 -0.6315
    1SOL    MW411400   3.960   2.132   4.762 -0.0203 -0.5391  0.0944
    1SOL     OW11401   4.025   3.251   4.646  0.1610  0.2274 -0.1384
    1SOL    HW211402   4.003   3.252   4.553 -0.8765  0.7431  0.1146
    1SOL    HW311403   3.959   3.195   4.686  0.4581  0.2078  0.3269
    1SOL    MW411404   4.014   3.244   4.639  0.0639  0.2930 -0.0439
    1SOL     OW11405   3.778   2.832   4.608 -0.1109 -0.3024  0.0125
    1SOL    HW211406   3.867   2.801   4.629 -0.2658  0.6585  2.0944
    1SOL    HW311407   3.720   2.771   4.653 -0.5630 -1.2734 -1.8108
    1SOL    MW411408   3.782   2.820   4.616 -0.1910 -0.3037  0.0463
    1SOL     OW11409   4.025   2.471   4.610 -0.2180  0.0292 -0.1701
    1SOL    HW211410   3.947   2.424   4.580 -1.0825  1.1340  0.3189
    1SOL    HW311411   4.063   2.413   4.677 -0.4804 -0.6188 -0.5724
    1SOL    MW411412   4.020   2.457   4.615 -0.3667  0.0894 -0.1588
    1SOL     OW11413   3.609   2.661   4.736 -0.1345 -0.0087  0.0114
    1SOL    HW211414   3.610   2.634   4.827  1.5021  0.6029  0.1893
    1SOL    HW311415   3.533   2.718   4.728 -0.7262 -0.6778  0.7924
    1SOL    MW411416   3.599   2.665   4.747  0.0031 -0.0165  0.1383
    1SOL     OW11417   0.172   2.447   4.608 -0.0453 -0.4353 -0.4425
    1SOL    HW211418   0.263   2.460   4.635 -0.1666  0.5020 -0.4705
    1SOL    HW311419   0.125   2.522   4.644 -1.0365 -1.5295  0.5891
    1SOL    MW411420   0.178   2.458   4.616 -0.1921 -0.4559 -0.3104
    1SOL     OW11421   3.364   2.804   4.691  0.4893 -0.0983  0.3616
    1SOL    HW211422   3.333   2.721   4.727 -0.6656  0.4030  0.5204
    1SOL    HW311423   3.354   2.794   4.596 -0.0173  0.0023  0.4028
    1SOL    MW411424   3.359   2.791   4.683  0.2701 -0.0188  0.3877
    1SOL     OW11425   4.292   3.103   4.780 -0.0317 -0.2805  0.2270
    1SOL    HW211426   4.238   3.142   4.711  0.7128 -1.1192 -0.8450
    1SOL    HW311427   4.251   3.133   4.862 -1.5439 -0.1201 -0.5626
    1SOL    MW411428   4.279   3.112   4.782 -0.1330 -0.3698 -0.0191
    1SOL     OW11429   0.280   3.304   4.691 -0.0806 -0.0018  0.0697
    1SOL    HW211430   0.199   3.254   4.685 -0.0748  0.0431 -0.3629
    1SOL    HW311431   0.252   3.396   4.686  0.0243  0.0061 -0.3365
    1SOL    MW411432   0.266   3.310   4.690 -0.0660  0.0052 -0.0405
    1SOL     OW11433   3.400   3.718   4.557 -0.3394  0.2013  0.5540
    1SOL    HW211434   3.431   3.647   4.612 -1.7907 -1.0764 -0.2321
    1SOL    HW311435   3.306   3.722   4.574 -0.6381  0.4739 -1.0243
    1SOL    MW411436   3.391   3.709   4.566 -0.5701  0.0684  0.2422
    1SOL     OW11437   4.242   3.782   4.634 -0.0308  0.1156 -0.1623
    1SOL    HW211438   4.243   3.731   4.554 -1.7885 -0.4148  0.1364
    1SOL    HW311439   4.216   3.720   4.702 -3.0730  1.5708  0.0704
    1SOL    MW411440   4.239   3.767   4.633 -0.6642  0.2372 -0.0925
    1SOL     OW11441   3.102   3.451   4.707 -0.1813  0.0238 -0.0327
    1SOL    HW211442   3.181   3.435   4.758  0.0973 -1.8190 -1.0176
    1SOL    HW311443   3.097   3.378   4.645 -1.8445  0.9061 -0.9903
    1SOL    MW411444   3.112   3.440   4.705 -0.3638 -0.1030 -0.2890
    1SOL     OW11445   3.795   3.380   4.868 -0.2442 -0.1942  0.0329
    1SOL    HW211446   3.702   3.400   4.857 -0.3672  0.9352  2.7646
    1SOL    HW311447   3.801   3.285   4.854 -1.3950  0.0754 -2.5092
    1SOL    MW411448   3.784   3.370   4.865 -0.4122 -0.0095  0.0577
    1SOL     OW11449   0.523   2.953   4.724 -0.3441  0.5507 -0.2845
    1SOL    HW211450   0.535   3.048   4.726 -2.3709  0.8541 -1.5190
    1SOL    HW311451   0.430   2.941   4.705  0.1964 -1.6932 -1.6454
    1SOL    MW411452   0.512   2.964   4.722 -0.5401  0.2947 -0.6275
    1SOL     OW11453   0.436   4.260   4.652  0.5803 -0.0728 -0.2135
    1SOL    HW211454   0.385   4.340   4.660  1.1356  0.1767  0.8990
    1SOL    HW311455   0.519   4.287   4.612  0.9653 -0.0041  0.6226
    1SOL    MW411456   0.441   4.274   4.648  0.7043 -0.0305  0.0429
    1SOL     OW11457   3.809   0.523   4.590  0.0874 -0.0563 -0.3355
    1SOL    HW211458   3.783   0.436   4.620  0.0224  0.4466  1.1013
    1SOL    HW311459   3.898   0.534   4.623 -0.4014  0.9627  0.6719
    1SOL    MW411460   3.817   0.513   4.598  0.0143  0.1445 -0.0134
    1SOL     OW11461   3.148   3.722   4.645  0.2121  0.7343  0.3458
    1SOL    HW211462   3.133   3.632   4.673  1.4161  0.8563  1.4203
    1SOL    HW311463   3.065   3.749   4.605 -0.4354 -0.5544  0.8022
    1SOL    MW411464   3.135   3.714   4.643  0.2854  0.5803  0.5479
    1SOL     OW11465   3.517   1.360   4.600 -0.2860 -0.4636 -0.1016
    1SOL    HW211466   3.452   1.366   4.529 -0.1738 -0.1356 -0.1803
    1SOL    HW311467   3.483   1.293   4.658 -1.1207  0.2817  0.2904
    1SOL    MW411468   3.504   1.352   4.598 -0.3812 -0.3221 -0.0601
    1SOL     OW11469   2.682   1.443   4.655 -0.0795 -0.2819  0.1038
    1SOL    HW211470   2.645   1.359   4.681 -0.4039 -0.2709 -0.3276
    1SOL    HW311471   2.776   1.426   4.644  0.1236 -0.2138  1.6016
    1SOL    MW411472   2.690   1.430   4.657 -0.0956 -0.2713  0.2446
    1SOL     OW11473   0.776   1.235   4.533 -0.1778  0.0946 -0.1674
    1SOL    HW211474   0.866   1.264   4.544 -0.1835  1.2161 -2.6438
    1SOL    HW311475   0.774   1.147   4.571  2.2655 -0.4219 -1.1385
    1SOL    MW411476   0.788   1.227   4.539  0.1438  0.1746 -0.6223
    1SOL     OW11477   0.236   0.544   4.292  0.1130 -0.2378  0.2458
    1SOL    HW211478   0.307   0.484   4.267 -0.4525 -0.3169 -1.2297
    1SOL    HW311479   0.241   0.549   4.387  3.0236  0.8500  0.0929
    1SOL    MW411480   0.246   0.537   4.301  0.4224 -0.1047  0.0310
    1SOL     OW11481   4.099   0.991   4.608  0.0394  0.1605  0.2396
    1SOL    HW211482   4.167   0.924   4.606  0.1710  0.3103 -1.0056
    1SOL    HW311483   4.146   1.074   4.606 -0.1753  0.2622 -1.4881
    1SOL    MW411484   4.114   0.993   4.607  0.0286  0.1937 -0.1526
    1SOL     OW11485   0.862   1.672   4.331  0.0158 -0.0405 -0.4776
    1SOL    HW211486   0.769   1.662   4.349  0.1392 -0.3485 -0.0021
    1SOL    HW311487   0.869   1.757   4.287 -0.5114 -0.1026 -0.6822
    1SOL    MW411488   0.851   1.682   4.328 -0.0374 -0.0894 -0.4416
    1SOL     OW11489   4.229   1.464   4.560  0.0589 -0.0428 -0.0540
    1SOL    HW211490   4.139   1.471   4.593  0.0861 -0.9968  0.2348
    1SOL    HW311491   4.276   1.536   4.602 -0.9345  1.4735 -1.4506
    1SOL    MW411492   4.223   1.474   4.570 -0.0687  0.0314 -0.2003
    1SOL     OW11493   0.237   1.370   4.529  0.2779  0.4315 -0.2859
    1SOL    HW211494   0.252   1.352   4.436  1.4535 -0.9628  0.1523
    1SOL    HW311495   0.201   1.458   4.531  0.4785  0.5685 -2.0521
    1SOL    MW411496   0.234   1.379   4.517  0.4595  0.2657 -0.4611
    1SOL     OW11497   3.748   0.250   4.672  0.3070  0.1322  0.0357
    1SOL    HW211498   3.691   0.178   4.645  0.4029  0.4814 -1.1302
    1SOL    HW311499   3.836   0.220   4.648  0.4894  0.0719  0.7822
    1SOL    MW411500   3.752   0.236   4.665  0.3438  0.1703 -0.0196
    1SOL     OW11501   2.216   2.950   4.405  0.2923 -0.1886 -0.0254
    1SOL    HW211502   2.166   3.015   4.355 -0.2566 -2.4667 -2.6024
    1SOL    HW311503   2.154   2.877   4.417  1.1948 -0.6595  1.9151
    1SOL    MW411504   2.201   2.949   4.400  0.3386 -0.5515 -0.1092
    1SOL     OW11505   4.289   2.090   4.293  0.3230 -0.3033 -0.0902
    1SOL    HW211506   4.279   2.093   4.388  1.2505  0.2660 -0.0007
    1SOL    HW311507   4.286   2.182   4.266 -2.2625 -0.5908 -0.8752
    1SOL    MW411508   4.288   2.103   4.302  0.1049 -0.2663 -0.1817
    1SOL     OW11509   1.166   2.806   4.555  0.2091 -0.0438  0.0286
    1SOL    HW211510   1.100   2.869   4.586  0.9549  0.3604  0.8312
    1SOL    HW311511   1.168   2.818   4.460 -0.6979  0.1161  0.0297
    1SOL    MW411512   1.158   2.816   4.546  0.1878  0.0308  0.1345
    1SOL     OW11513   2.916   0.373   4.541  0.2867 -0.2589 -0.1491
    1SOL    HW211514   2.925   0.424   4.460  3.7729 -1.4813 -0.6307
    1SOL    HW311515   2.980   0.413   4.601 -0.3091 -1.1135  1.0745
    1SOL    MW411516   2.926   0.385   4.538  0.6678 -0.5329 -0.0510
    1SOL     OW11517   0.142   2.178   4.697 -0.1460  0.1635 -0.2052
    1SOL    HW211518   0.161   2.258   4.647  1.1753  0.0016  0.0009
    1SOL    HW311519   0.222   2.163   4.748 -1.1343 -0.1921  1.2660
    1SOL    MW411520   0.155   2.187   4.697 -0.1021  0.0956  0.0157
    1SOL     OW11521   0.685   2.837   4.345 -0.1682 -0.0073  0.1048
    1SOL    HW211522   0.646   2.922   4.324  0.7846  0.5664  0.6172
    1SOL    HW311523   0.762   2.831   4.288  0.3736 -0.0472  0.8319
    1SOL    MW411524   0.690   2.847   4.335  0.0291  0.0634  0.2680
    1SOL     OW11525   0.126   1.665   4.546 -0.3465 -0.1064  0.1103
    1SOL    HW211526   0.089   1.678   4.459 -0.2105 -0.9908 -0.0810
    1SOL    HW311527   0.182   1.741   4.560 -0.6797  0.2368 -0.4056
    1SOL    MW411528   0.128   1.677   4.537 -0.3725 -0.1779  0.0172
    1SOL     OW11529   0.054   2.707   4.650  0.1079  0.1901 -0.4445
    1SOL    HW211530   0.124   2.771   4.656 -1.2472  1.9453 -2.7338
    1SOL    HW311531  -0.023   2.751   4.686 -0.5470 -0.6233 -0.8094
    1SOL    MW411532   0.053   2.721   4.655 -0.1573  0.3145 -0.7949
    1SOL     OW11533   1.803   4.056   4.654 -0.3460  0.7171  0.0624
    1SOL    HW211534   1.725   4.007   4.678 -0.7361  1.5226  0.4552
    1SOL    HW311535   1.876   4.004   4.689 -0.5375 -1.1854 -2.2065
    1SOL    MW411536   1.802   4.043   4.661 -0.4227  0.5722 -0.1855
    1SOL     OW11537   3.746   4.450   4.568  0.1146  0.0998 -0.5071
    1SOL    HW211538   3.700   4.374   4.604  0.6495  0.2530  0.5455
    1SOL    HW311539   3.732   4.445   4.474 -1.9302  0.0734 -0.2212
    1SOL    MW411540   3.738   4.439   4.561 -0.0846  0.1163 -0.3304
    1SOL     OW11541   3.571   0.039   4.594  0.9199 -0.5476  0.0427
    1SOL    HW211542   3.606  -0.046   4.619 -1.4157 -1.8533 -0.9293
    1SOL    HW311543   3.573   0.038   4.498 -2.0249 -0.8466 -0.0665
    1SOL    MW411544   3.576   0.028   4.584  0.2229 -0.7593 -0.0997
    1SOL     OW11545   4.042   3.502   4.776 -0.3519 -0.1466 -0.2614
    1SOL    HW211546   4.047   3.413   4.740 -0.5405 -0.1371 -0.3097
    1SOL    HW311547   3.980   3.495   4.848  0.0685 -0.1773  0.1046
    1SOL    MW411548   4.035   3.489   4.780 -0.3219 -0.1495 -0.2193
    1SOL     OW11549   3.316   0.106   4.660 -0.2508 -0.2549 -0.5535
    1SOL    HW211550   3.406   0.077   4.647 -0.5375 -0.2344 -2.6658
    1SOL    HW311551   3.319   0.158   4.741  1.5421 -0.5615 -0.4075
    1SOL    MW411552   3.329   0.109   4.669 -0.0520 -0.2926 -0.8130
    1SOL     OW11553   4.269   4.440   4.331  0.2512 -0.1001 -0.2556
    1SOL    HW211554   4.352   4.405   4.299  0.0360 -1.7634  0.9712
    1SOL    HW311555   4.262   4.410   4.421 -1.8125 -0.2067 -0.4088
    1SOL    MW411556   4.279   4.432   4.338 -0.0496 -0.3333 -0.1140
    1NA      NA11557   2.682   4.227   0.700 -0.1223  0.1572 -0.1194
    1NA      NA11558   0.809   2.505   0.694  0.0226 -0.3363  0.2608
   4.49070   4.66690  10.00000
