Gromacs Runs On Most of All Computer Systems in water
11558
    1RG35     P    1   2.271   2.379   4.380 -0.0119  0.1738 -0.0894
    1RG35   O1P    2   2.388   2.443   4.454 -0.0616  0.3110  0.1623
    1RG35   O2P    3   2.238   2.240   4.416  0.3103 -0.0826  0.2123
    1RG35   O5'    4   2.140   2.450   4.443 -0.0353 -0.1560 -0.1809
    1RG35   C5'    5   2.135   2.593   4.440 -0.5939 -0.0853  0.2192
    1RG35  H5'1    6   2.122   2.627   4.338 -1.0340 -0.4702  0.1454
    1RG35  H5'2    7   2.230   2.630   4.479 -0.3411  1.5680 -1.9204
    1RG35   C4'    8   2.029   2.653   4.529  0.4110 -0.2911 -1.1508
    1RG35   H4'    9   2.037   2.758   4.502 -0.3315  0.6838  2.2317
    1RG35   O4'   10   1.891   2.620   4.496  0.1068 -0.3724  0.2532
    1RG35   C1'   11   1.806   2.657   4.608  0.1764 -0.2983  0.7075
    1RG35   H1'   12   1.748   2.745   4.581  1.5598  0.4103 -0.0044
    1RG35    N9   13   1.712   2.538   4.623 -0.2153 -0.2411  0.5033
    1RG35    C8   14   1.579   2.535   4.594  0.0423 -0.6717  0.0798
    1RG35    H8   15   1.527   2.627   4.572 -0.1648 -0.6204  0.7632
    1RG35    N7   16   1.523   2.419   4.598 -0.0601 -0.2640 -0.0244
    1RG35    C5   17   1.633   2.331   4.627 -0.0909  0.0331  0.1308
    1RG35    C6   18   1.638   2.185   4.641 -0.1104  0.1534 -0.0099
    1RG35    O6   19   1.545   2.106   4.620  0.3246 -0.0583  0.2365
    1RG35    N1   20   1.761   2.140   4.682  0.5097  0.6901 -0.9026
    1RG35    H1   21   1.782   2.042   4.697 -2.0558  0.1084 -0.8539
    1RG35    C2   22   1.864   2.222   4.706  0.8740  0.0956 -0.0472
    1RG35    N2   23   1.970   2.157   4.747 -0.0868 -0.3037  0.3037
    1RG35   H21   24   1.981   2.057   4.751  0.0504 -0.3063 -0.1291
    1RG35   H22   25   2.048   2.222   4.754  0.2372 -0.9169  2.6683
    1RG35    N3   26   1.866   2.352   4.695  0.7147  0.4872 -0.5301
    1RG35    C4   27   1.744   2.406   4.650 -0.1970  0.0322 -0.1643
    1RG35   C3'   28   2.038   2.627   4.686 -0.3506  0.1261  0.2126
    1RG35   H3'   29   2.055   2.523   4.715  2.4336  0.6570  0.6091
    1RG35   C2'   30   1.896   2.676   4.724 -0.2545 -0.2720 -0.8133
    1RG35  H2'1   31   1.865   2.611   4.806  0.4052  1.2303  0.6705
    1RG35   O2'   32   1.888   2.811   4.778  0.2883  0.3031  0.3140
    1RG35  HO'2   33   1.970   2.825   4.826 -0.0352 -0.6198  1.1365
    1RG35   O3'   34   2.136   2.697   4.760 -0.4618  0.0627  0.2269
    1RG35   H3T   35   2.209   2.636   4.775 -0.9624 -0.3874  0.8094
    1RG35   O3P   36   2.261   2.409   4.237 -0.1445 -0.0127 -0.2307
    1SOL     OW   37   2.404   1.675   0.433 -0.1608 -0.3289  0.0344
    1SOL    HW2   38   2.448   1.589   0.435  0.8355  0.1991  1.6748
    1SOL    HW3   39   2.384   1.694   0.525 -2.9798 -0.0932 -0.5855
    1SOL    MW4   40   2.407   1.666   0.446 -0.4013 -0.2282  0.1690
    1SOL     OW   41   4.289   3.610   0.732 -0.0153 -0.2641 -0.3491
    1SOL    HW2   42   4.287   3.698   0.769  1.3906 -0.6176  0.5907
    1SOL    HW3   43   4.218   3.564   0.777  0.2300 -0.0465  0.2632
    1SOL    MW4   44   4.279   3.615   0.743  0.2027 -0.2818 -0.1443
    1SOL     OW   45   2.606   0.609   0.384 -0.5224 -0.0090  0.0071
    1SOL    HW2   46   2.591   0.620   0.291 -0.3562  0.8233  0.0707
    1SOL    HW3   47   2.647   0.692   0.411 -0.2672 -0.3743  0.7453
    1SOL    MW4   48   2.609   0.622   0.376 -0.4668  0.0526  0.1129
    1SOL     OW   49   2.387   2.851   0.412  0.1359 -0.2836 -0.3999
    1SOL    HW2   50   2.350   2.786   0.352  0.6126 -0.1759 -0.8160
    1SOL    HW3   51   2.474   2.818   0.434  0.1683 -0.0589 -0.1853
    1SOL    MW4   52   2.394   2.838   0.407  0.2031 -0.2396 -0.4265
    1SOL     OW   53   0.180   3.384   0.383  0.4858  0.1631  0.3619
    1SOL    HW2   54   0.130   3.410   0.306  0.7720 -0.4229 -0.0230
    1SOL    HW3   55   0.203   3.467   0.426 -0.4264  0.4518  0.3024
    1SOL    MW4   56   0.177   3.399   0.379  0.4032  0.1237  0.3032
    1SOL     OW   57   0.038   2.466   0.779 -0.1738 -0.2231 -0.6174
    1SOL    HW2   58   0.028   2.475   0.684 -1.6243 -0.8984 -0.5494
    1SOL    HW3   59   0.043   2.557   0.810 -0.6870  0.0284 -1.2470
    1SOL    MW4   60   0.037   2.479   0.771 -0.4329 -0.2789 -0.6915
    1SOL     OW   61   1.388   0.109   0.517  0.3241 -0.0486 -0.0624
    1SOL    HW2   62   1.375   0.113   0.611 -0.9825 -0.4099 -0.2074
    1SOL    HW3   63   1.482   0.114   0.505  0.4927  0.1055  1.2549
    1SOL    MW4   64   1.398   0.110   0.528  0.1740 -0.0759  0.0923
    1SOL     OW   65   4.285   0.243   0.435 -0.5931  0.3501  0.2314
    1SOL    HW2   66   4.242   0.237   0.520 -0.5544 -1.5198  0.1474
    1SOL    HW3   67   4.236   0.181   0.380  0.2982  0.4571 -0.6907
    1SOL    MW4   68   4.273   0.234   0.439 -0.4702  0.1175  0.0986
    1SOL     OW   69   2.796   1.744   0.480 -0.0091 -0.1039  0.3465
    1SOL    HW2   70   2.736   1.767   0.409 -1.1506  0.3329  1.4164
    1SOL    HW3   71   2.855   1.680   0.442  0.0423  0.8795 -1.2789
    1SOL    MW4   72   2.796   1.739   0.466 -0.1526  0.0833  0.2732
    1SOL     OW   73   2.196   0.111   0.703 -0.3924  0.2252  0.0633
    1SOL    HW2   74   2.264   0.049   0.729 -1.0376 -0.4307  0.1889
    1SOL    HW3   75   2.222   0.139   0.615  1.4109  1.9257  1.0971
    1SOL    MW4   76   2.208   0.106   0.694 -0.2396  0.3630  0.2162
    1SOL     OW   77   4.044   1.166   0.795  0.2920 -0.5500  0.3045
    1SOL    HW2   78   4.047   1.158   0.890  0.7317  1.1144  0.4402
    1SOL    HW3   79   3.968   1.222   0.778  1.0223  0.2949 -0.2300
    1SOL    MW4   80   4.035   1.172   0.805  0.4468 -0.2190  0.2518
    1SOL     OW   81   0.466   2.452   0.766  0.1136  0.0031 -0.0226
    1SOL    HW2   82   0.453   2.435   0.673 -1.1329  0.4401  0.0574
    1SOL    HW3   83   0.390   2.412   0.808  0.5319  0.0436  0.7887
    1SOL    MW4   84   0.454   2.444   0.759  0.0044  0.0660  0.0950
    1SOL     OW   85   4.049   0.659   0.355 -0.2107 -0.3026  0.0305
    1SOL    HW2   86   4.128   0.629   0.401 -0.4682  0.3458  0.9090
    1SOL    HW3   87   4.083   0.717   0.286  0.2473 -2.1281 -1.3310
    1SOL    MW4   88   4.064   0.663   0.352 -0.1845 -0.4579 -0.0332
    1SOL     OW   89   4.027   1.984   0.811 -0.0185 -0.0624  0.1165
    1SOL    HW2   90   4.043   1.892   0.787  1.0339  0.1257  0.0776
    1SOL    HW3   91   4.022   1.983   0.907 -0.2254 -0.1911  0.1051
    1SOL    MW4   92   4.029   1.971   0.821  0.0930 -0.0545  0.1099
    1SOL     OW   93   3.846   3.156   0.519 -0.3315  0.2281 -0.2714
    1SOL    HW2   94   3.789   3.082   0.543  0.5179  0.0761  1.3789
    1SOL    HW3   95   3.794   3.234   0.537 -0.0100  0.0912  1.3053
    1SOL    MW4   96   3.832   3.156   0.525 -0.1769  0.1898  0.1544
    1SOL     OW   97   0.809   0.784   0.311 -0.0806 -0.0318  0.1643
    1SOL    HW2   98   0.783   0.749   0.226 -0.1318  0.2887  0.0454
    1SOL    HW3   99   0.747   0.746   0.373 -0.2337 -0.0305  0.0141
    1SOL    MW4  100   0.797   0.775   0.308 -0.1075  0.0106  0.1288
    1SOL     OW  101   3.335   4.392   0.397  0.2620  0.0004  0.0493
    1SOL    HW2  102   3.323   4.381   0.492  0.2449  1.2327  0.2107
    1SOL    HW3  103   3.321   4.486   0.383 -1.0858 -0.3942 -1.3793
    1SOL    MW4  104   3.332   4.403   0.408  0.0820  0.1106 -0.1179
    1SOL     OW  105   1.962   0.699   0.416  0.1013  0.1832 -0.4428
    1SOL    HW2  106   1.876   0.713   0.455 -0.0934  0.6003 -1.0059
    1SOL    HW3  107   1.975   0.605   0.418  0.4185  0.2512  1.2983
    1SOL    MW4  108   1.952   0.689   0.421  0.1174  0.2472 -0.2874
    1SOL     OW  109   2.831   2.356   0.415 -0.2358  0.0049 -0.0967
    1SOL    HW2  110   2.799   2.277   0.372  0.1837 -0.3212  0.1826
    1SOL    HW3  111   2.859   2.326   0.502  0.1518  0.4113 -0.0797
    1SOL    MW4  112   2.831   2.341   0.421 -0.1295  0.0155 -0.0576
    1SOL     OW  113   0.268   0.529   0.778 -0.7693  0.2368  0.0997
    1SOL    HW2  114   0.302   0.614   0.805 -0.7139  0.3429 -0.2965
    1SOL    HW3  115   0.293   0.522   0.685 -1.6648  0.2329 -0.1437
    1SOL    MW4  116   0.276   0.539   0.769 -0.8801  0.2503  0.0153
    1SOL     OW  117   2.577   2.394   0.501  0.2890 -0.3520 -0.3071
    1SOL    HW2  118   2.553   2.302   0.507  1.0400 -0.5377 -0.0967
    1SOL    HW3  119   2.666   2.394   0.468 -0.0591  0.3380 -1.2639
    1SOL    MW4  120   2.586   2.382   0.498  0.3424 -0.2856 -0.4056
    1SOL     OW  121   0.756   0.386   0.398  0.1748  0.3832 -0.1241
    1SOL    HW2  122   0.697   0.456   0.427 -0.1911  0.4372 -0.9960
    1SOL    HW3  123   0.836   0.432   0.372  0.4482  0.3482  0.6315
    1SOL    MW4  124   0.759   0.401   0.398  0.1626  0.3857 -0.1394
    1SOL     OW  125   3.814   1.272   0.662 -0.3047  0.4605  0.1996
    1SOL    HW2  126   3.811   1.215   0.586 -1.3297  0.9877 -0.1668
    1SOL    HW3  127   3.762   1.227   0.728  0.9001 -0.1811  0.7339
    1SOL    MW4  128   3.807   1.259   0.661 -0.2809  0.4455  0.2217
    1SOL     OW  129   0.434   4.019   0.699  0.3275  0.2358  0.1646
    1SOL    HW2  130   0.443   4.051   0.609 -1.8451 -0.9399 -0.5045
    1SOL    HW3  131   0.426   4.099   0.751 -0.8167  0.8989 -0.9798
    1SOL    MW4  132   0.434   4.034   0.694 -0.1101  0.1683 -0.0747
    1SOL     OW  133   0.153   0.006   0.853 -0.1712 -0.3128 -0.0497
    1SOL    HW2  134   0.058   0.006   0.845 -0.2256 -2.0950  0.4852
    1SOL    HW3  135   0.184   0.034   0.767 -1.1449 -1.8214 -0.9228
    1SOL    MW4  136   0.145   0.010   0.841 -0.3068 -0.7472 -0.0943
    1SOL     OW  137   4.330   2.316   0.413 -0.0099 -0.1726  0.2324
    1SOL    HW2  138   4.359   2.234   0.452 -0.8793  0.4517  2.2640
    1SOL    HW3  139   4.388   2.382   0.450  0.8741  0.1300 -1.6101
    1SOL    MW4  140   4.342   2.314   0.423 -0.0076 -0.0503  0.2573
    1SOL     OW  141   2.048   2.269   0.923 -0.3232 -0.1771  0.0515
    1SOL    HW2  142   2.037   2.285   1.017  0.0762 -0.5378  0.1583
    1SOL    HW3  143   1.967   2.302   0.884 -0.1541  0.6968  0.4324
    1SOL    MW4  144   2.036   2.276   0.930 -0.2482 -0.1092  0.1159
    1SOL     OW  145   4.230   4.411   0.421  0.3010  0.0138  0.0916
    1SOL    HW2  146   4.235   4.428   0.515 -0.7127  1.5997 -0.1175
    1SOL    HW3  147   4.321   4.402   0.392  0.6996  1.3655  0.9091
    1SOL    MW4  148   4.242   4.412   0.429  0.2193  0.4015  0.1719
    1SOL     OW  149   0.829   4.106   0.495  0.1142  0.0085 -0.1946
    1SOL    HW2  150   0.765   4.177   0.493 -1.2582 -1.1525  1.3784
    1SOL    HW3  151   0.845   4.091   0.588  2.0559 -0.2851 -0.5514
    1SOL    MW4  152   0.823   4.113   0.507  0.1893 -0.1831 -0.0342
    1SOL     OW  153   1.587   2.317   0.880  0.2117  0.4020 -0.1776
    1SOL    HW2  154   1.505   2.362   0.863 -0.2156 -0.3826 -0.2155
    1SOL    HW3  155   1.572   2.227   0.851  0.8037  0.0457  0.5929
    1SOL    MW4  156   1.574   2.311   0.874  0.2334  0.2515 -0.0809
    1SOL     OW  157   2.020   3.129   0.876  0.1670 -0.2317 -0.2830
    1SOL    HW2  158   2.012   3.036   0.854 -1.3433 -0.2130  0.1701
    1SOL    HW3  159   1.934   3.166   0.857  0.2176  0.7108  1.2306
    1SOL    MW4  160   2.008   3.121   0.871 -0.0255 -0.1054 -0.0236
    1SOL     OW  161   2.993   3.005   0.423 -0.0934  0.2007 -0.1411
    1SOL    HW2  162   3.079   2.964   0.412 -0.5552 -0.9887  0.5538
    1SOL    HW3  163   2.936   2.934   0.453 -1.0111  1.2787  0.7075
    1SOL    MW4  164   2.997   2.990   0.425 -0.2754  0.1857  0.0626
    1SOL     OW  165   0.269   0.064   0.613  0.1564 -0.0519 -0.1380
    1SOL    HW2  166   0.289   0.012   0.535  0.8972  0.0250 -0.0067
    1SOL    HW3  167   0.215   0.136   0.581  0.7627  0.1871 -0.6474
    1SOL    MW4  168   0.265   0.067   0.599  0.3341 -0.0102 -0.1878
    1SOL     OW  169   1.560   3.005   0.389  0.6490 -0.3823 -0.1085
    1SOL    HW2  170   1.527   2.991   0.300  0.2706 -1.7339  0.2399
    1SOL    HW3  171   1.613   2.927   0.408  0.6270 -0.1614  0.9035
    1SOL    MW4  172   1.563   2.993   0.380  0.5962 -0.5317  0.0710
    1SOL     OW  173   2.618   4.497   0.391 -0.2588 -0.1588 -0.3664
    1SOL    HW2  174   2.606   4.484   0.297 -2.1868 -1.3843  0.0305
    1SOL    HW3  175   2.599   4.590   0.405 -1.4016 -0.3051 -0.9627
    1SOL    MW4  176   2.614   4.508   0.380 -0.6638 -0.3395 -0.3927
    1SOL     OW  177   0.401   1.627   0.503 -0.4915  0.1038 -0.3636
    1SOL    HW2  178   0.409   1.643   0.597  0.9123 -0.9350 -0.2993
    1SOL    HW3  179   0.387   1.533   0.495  1.2936 -0.1222 -1.2745
    1SOL    MW4  180   0.400   1.617   0.514 -0.0708 -0.0631 -0.4753
    1SOL     OW  181   3.339   0.781   0.824 -0.4180  0.1752 -0.0217
    1SOL    HW2  182   3.353   0.686   0.823 -3.2482 -0.3191  2.2552
    1SOL    HW3  183   3.418   0.817   0.782  0.3417 -3.1908 -1.6524
    1SOL    MW4  184   3.352   0.773   0.818 -0.6909 -0.3341  0.0635
    1SOL     OW  185   1.760   3.226   0.772  0.2070  0.4080 -0.0041
    1SOL    HW2  186   1.735   3.218   0.680  0.0924 -0.6862  0.1091
    1SOL    HW3  187   1.689   3.182   0.820  0.9553 -0.2727  0.5011
    1SOL    MW4  188   1.747   3.219   0.767  0.2905  0.1738  0.0775
    1SOL     OW  189   2.021   2.859   0.810  0.3063  0.4392  0.8027
    1SOL    HW2  190   2.053   2.848   0.721  0.1210 -1.1841  0.9126
    1SOL    HW3  191   2.078   2.801   0.862 -0.3970  0.4107  1.5421
    1SOL    MW4  192   2.033   2.850   0.805  0.1888  0.2210  0.9148
    1SOL     OW  193   1.898   2.398   0.486 -0.3794  0.1837  0.1642
    1SOL    HW2  194   1.983   2.355   0.474 -1.0247 -0.7561 -1.1220
    1SOL    HW3  195   1.877   2.382   0.578  0.6161  0.0281  0.3777
    1SOL    MW4  196   1.907   2.390   0.497 -0.3333  0.0391  0.0226
    1SOL     OW  197   3.632   1.943   0.763 -0.4687  0.3149 -0.4298
    1SOL    HW2  198   3.709   1.995   0.740  0.9146 -0.8374  1.4134
    1SOL    HW3  199   3.651   1.856   0.728 -1.8699  0.4986 -1.7242
    1SOL    MW4  200   3.645   1.939   0.755 -0.4709  0.1870 -0.3574
    1SOL     OW  201   0.199   2.852   0.736 -0.2990 -0.5122 -0.2940
    1SOL    HW2  202   0.282   2.816   0.764 -0.2895 -0.3038 -0.0539
    1SOL    HW3  203   0.195   2.938   0.777 -1.3140 -1.1216  0.9366
    1SOL    MW4  204   0.209   2.859   0.745 -0.4316 -0.5653 -0.1000
    1SOL     OW  205   1.502   4.325   0.569 -0.2893  0.2963  0.1192
    1SOL    HW2  206   1.420   4.371   0.552  0.2878  1.5097  0.5641
    1SOL    HW3  207   1.567   4.373   0.517 -0.1436 -1.7397 -1.6872
    1SOL    MW4  208   1.500   4.337   0.560 -0.1938  0.1879 -0.0604
    1SOL     OW  209   4.096   3.116   0.353 -0.1319 -0.1124 -0.3823
    1SOL    HW2  210   4.010   3.129   0.395  0.4470  0.0238  0.7724
    1SOL    HW3  211   4.108   3.021   0.353 -0.6741 -0.1889 -1.3553
    1SOL    MW4  212   4.086   3.105   0.359 -0.1268 -0.1047 -0.3583
    1SOL     OW  213   2.436   1.965   0.731  0.0875  0.1350  0.4899
    1SOL    HW2  214   2.460   2.029   0.664 -0.5270 -0.0075  0.1286
    1SOL    HW3  215   2.408   2.018   0.806 -1.3749  0.2876 -0.1594
    1SOL    MW4  216   2.435   1.981   0.732 -0.1867  0.1363  0.3566
    1SOL     OW  217   2.909   3.063   0.846 -0.0503 -0.7157  0.1018
    1SOL    HW2  218   2.833   3.113   0.816 -0.7789 -1.6045  0.4204
    1SOL    HW3  219   2.894   2.974   0.813  1.0212 -0.8195 -0.1240
    1SOL    MW4  220   2.897   3.058   0.838 -0.0052 -0.8464  0.1140
    1SOL     OW  221   0.867   4.327   0.883 -0.5075  0.2118 -0.3720
    1SOL    HW2  222   0.876   4.238   0.849  0.4787 -0.2633  1.0577
    1SOL    HW3  223   0.953   4.367   0.869 -0.4083  0.3528  0.5783
    1SOL    MW4  224   0.880   4.321   0.877 -0.3644  0.1683 -0.0580
    1SOL     OW  225   2.951   1.253   0.460 -0.1292  0.0220 -0.3078
    1SOL    HW2  226   2.920   1.245   0.550 -0.9701  0.0204 -0.5977
    1SOL    HW3  227   3.047   1.256   0.468 -0.2087  0.2230  0.5960
    1SOL    MW4  228   2.960   1.252   0.473 -0.2506  0.0484 -0.2268
    1SOL     OW  229   0.940   3.360   0.421 -0.3123  0.5614  0.3219
    1SOL    HW2  230   0.970   3.320   0.340 -1.4141 -0.2329  0.2935
    1SOL    HW3  231   0.989   3.442   0.427 -0.0686  0.5201 -1.0334
    1SOL    MW4  232   0.950   3.366   0.411 -0.4255  0.4513  0.1393
    1SOL     OW  233   1.716   4.426   0.420  0.1594  0.4644  0.8257
    1SOL    HW2  234   1.683   4.381   0.342 -0.3342  0.9089  0.7723
    1SOL    HW3  235   1.800   4.385   0.438  0.0115 -0.0311  0.3931
    1SOL    MW4  236   1.723   4.415   0.412  0.0749  0.4578  0.7617
    1SOL     OW  237   0.437   4.146   0.442  0.2357 -0.2924  0.3808
    1SOL    HW2  238   0.366   4.208   0.426 -0.1373 -0.4222  1.4772
    1SOL    HW3  239   0.514   4.200   0.457 -0.0955 -0.0784  1.3671
    1SOL    MW4  240   0.438   4.161   0.442  0.1428 -0.2813  0.6556
    1SOL     OW  241   0.485   2.414   0.455 -0.1217  0.0904  0.0960
    1SOL    HW2  242   0.465   2.334   0.407  0.5035  0.1318 -0.2385
    1SOL    HW3  243   0.406   2.468   0.447 -0.4503 -0.3885  0.1117
    1SOL    MW4  244   0.472   2.411   0.448 -0.0826  0.0327  0.0539
    1SOL     OW  245   1.221   0.893   0.505  0.4696  0.1282 -0.2683
    1SOL    HW2  246   1.234   0.801   0.486 -0.7357 -0.1829  0.3707
    1SOL    HW3  247   1.262   0.906   0.591 -0.1102 -0.0077  0.0307
    1SOL    MW4  248   1.228   0.883   0.514  0.2341  0.0692 -0.1445
    1SOL     OW  249   0.223   3.879   0.783 -0.4337  0.0677  0.2508
    1SOL    HW2  250   0.230   3.887   0.878  3.2291 -2.3851  0.2702
    1SOL    HW3  251   0.297   3.929   0.749 -0.3296 -1.0505 -1.2174
    1SOL    MW4  252   0.233   3.887   0.791  0.0633 -0.4036  0.0597
    1SOL     OW  253   2.383   0.940   0.419  0.5733  0.2177  0.2635
    1SOL    HW2  254   2.322   0.873   0.450  0.4556  0.1634 -0.0822
    1SOL    HW3  255   2.470   0.907   0.441  0.5023  0.0594  0.3001
    1SOL    MW4  256   2.387   0.927   0.426  0.5484  0.1896  0.2227
    1SOL     OW  257   0.489   0.985   0.795  0.1393 -0.2840 -0.4878
    1SOL    HW2  258   0.568   0.931   0.798 -0.1060 -0.5340  1.6229
    1SOL    HW3  259   0.419   0.928   0.824 -0.6657  0.2307 -1.3923
    1SOL    MW4  260   0.490   0.971   0.799  0.0007 -0.2491 -0.3287
    1SOL     OW  261   3.093   4.224   0.438 -0.0777  0.0186 -0.0471
    1SOL    HW2  262   3.173   4.260   0.400 -0.6231  0.6582 -0.5751
    1SOL    HW3  263   3.030   4.295   0.436 -0.9093 -0.7164 -0.3346
    1SOL    MW4  264   3.096   4.238   0.433 -0.2592  0.0057 -0.1547
    1SOL     OW  265   1.294   1.409   0.388  0.1396  0.2994 -0.2262
    1SOL    HW2  266   1.214   1.371   0.426  0.3262 -1.8385 -1.8746
    1SOL    HW3  267   1.365   1.353   0.422  0.5145 -0.2887 -1.9424
    1SOL    MW4  268   1.293   1.396   0.398  0.2139 -0.0602 -0.6702
    1SOL     OW  269   1.341   3.206   0.782  0.3619  0.3218  0.2043
    1SOL    HW2  270   1.323   3.176   0.693  2.1472  0.4506 -0.2215
    1SOL    HW3  271   1.269   3.170   0.835 -1.7383  1.7803 -1.5628
    1SOL    MW4  272   1.329   3.197   0.777  0.3204  0.5312 -0.0851
    1SOL     OW  273   0.062   0.620   0.414 -0.6674 -0.2852 -0.4697
    1SOL    HW2  274   0.116   0.699   0.400  0.8101 -1.4490 -1.5772
    1SOL    HW3  275   0.111   0.550   0.370 -2.6950 -1.5509 -0.7795
    1SOL    MW4  276   0.076   0.621   0.406 -0.7400 -0.6058 -0.6567
    1SOL     OW  277   2.545   0.094   0.420 -0.0484  0.0234  0.1398
    1SOL    HW2  278   2.558   0.092   0.515  1.6513  1.6424 -0.0284
    1SOL    HW3  279   2.630   0.122   0.385 -0.9376  0.3572 -1.8040
    1SOL    MW4  280   2.558   0.097   0.428  0.0589  0.2810 -0.1388
    1SOL     OW  281   1.130   3.063   0.899  0.2806  0.3180 -0.5319
    1SOL    HW2  282   1.048   3.105   0.872  0.3882  0.5795 -0.4498
    1SOL    HW3  283   1.130   2.979   0.852  0.1337  0.4701 -0.8064
    1SOL    MW4  284   1.119   3.057   0.889  0.2753  0.3724 -0.5572
    1SOL     OW  285   1.923   1.913   0.054  0.2670 -0.6638  0.4834
    1SOL    HW2  286   1.881   1.844   0.004  0.9372 -0.3317 -0.5594
    1SOL    HW3  287   2.010   1.879   0.075  1.1456  0.3951 -1.2868
    1SOL    MW4  288   1.929   1.900   0.050  0.4712 -0.4804  0.1123
    1SOL     OW  289   2.166   1.835   0.193  0.0143 -0.5763 -0.1872
    1SOL    HW2  290   2.100   1.822   0.261 -0.1544 -1.3176 -0.4903
    1SOL    HW3  291   2.227   1.762   0.204  0.3414 -0.3392 -0.4173
    1SOL    MW4  292   2.165   1.824   0.203  0.0348 -0.6429 -0.2576
    1SOL     OW  293   0.649   3.095   0.891  0.2339 -0.0615  0.0154
    1SOL    HW2  294   0.604   3.165   0.843 -0.5152  0.2670  1.1750
    1SOL    HW3  295   0.628   3.111   0.983  1.2093 -0.9982  0.4205
    1SOL    MW4  296   0.640   3.106   0.897  0.2638 -0.1414  0.2218
    1SOL     OW  297   0.879   3.819   0.439 -0.4946  0.1885 -0.0584
    1SOL    HW2  298   0.856   3.911   0.449 -0.6644  0.4975 -2.8893
    1SOL    HW3  299   0.971   3.814   0.464 -0.2548  1.2916 -0.6831
    1SOL    MW4  300   0.888   3.830   0.443 -0.4854  0.3748 -0.5143
    1SOL     OW  301   1.119   3.566   0.372 -0.1812 -0.1205 -0.1279
    1SOL    HW2  302   1.208   3.543   0.346 -0.7581 -0.8832 -1.4597
    1SOL    HW3  303   1.128   3.652   0.413  1.2329 -0.4072  0.2110
    1SOL    MW4  304   1.132   3.574   0.374 -0.0707 -0.2589 -0.2589
    1SOL     OW  305   1.771   0.900   0.766  0.1699 -0.0501 -0.3116
    1SOL    HW2  306   1.797   0.987   0.798  1.4516 -0.2769 -0.7141
    1SOL    HW3  307   1.842   0.842   0.794 -1.4456 -1.2699  1.3567
    1SOL    MW4  308   1.784   0.904   0.774  0.1259 -0.2409 -0.1447
    1SOL     OW  309   4.481   4.026   0.703  0.0869  1.0078 -0.2909
    1SOL    HW2  310   4.408   3.973   0.734 -0.6855  1.0710 -1.9686
    1SOL    HW3  311   4.559   3.976   0.728 -0.5145  0.7203  1.0929
    1SOL    MW4  312   4.482   4.012   0.711 -0.0949  0.9785 -0.3297
    1SOL     OW  313   3.325   4.652   0.815  0.3569 -0.0386 -0.1974
    1SOL    HW2  314   3.356   4.655   0.905 -0.7906  1.1675  0.1696
    1SOL    HW3  315   3.384   4.709   0.767  0.8719 -0.5580 -0.1970
    1SOL    MW4  316   3.337   4.660   0.821  0.2735  0.0525 -0.1490
    1SOL     OW  317   0.017   2.495   0.505 -0.1261  0.3235  0.0055
    1SOL    HW2  318  -0.037   2.573   0.501 -0.2327  0.2169 -0.7332
    1SOL    HW3  319   0.102   2.522   0.471 -0.6909 -0.3089 -1.9902
    1SOL    MW4  320   0.021   2.509   0.500 -0.2147  0.2258 -0.3552
    1SOL     OW  321   0.600   2.095   0.476  0.1058  0.1473 -0.3576
    1SOL    HW2  322   0.519   2.121   0.432 -1.1004 -0.1015  1.6217
    1SOL    HW3  323   0.620   2.009   0.441  0.0844  0.6469 -1.6128
    1SOL    MW4  324   0.592   2.087   0.466 -0.0561  0.1805 -0.2621
    1SOL     OW  325   2.423   4.338   0.736 -0.0454 -0.3295 -0.0383
    1SOL    HW2  326   2.338   4.297   0.754 -1.0498  2.2114  1.2834
    1SOL    HW3  327   2.434   4.331   0.641 -1.6946 -0.7301 -0.2091
    1SOL    MW4  328   2.413   4.332   0.726 -0.3951 -0.0467  0.1135
    1SOL     OW  329   3.017   3.510   0.492 -0.2007 -0.1506  0.6214
    1SOL    HW2  330   3.009   3.525   0.586 -0.9439 -0.8007  0.6645
    1SOL    HW3  331   3.073   3.432   0.485 -0.5682 -0.4054  0.5360
    1SOL    MW4  332   3.024   3.501   0.504 -0.3471 -0.2701  0.6158
    1SOL     OW  333   2.579   4.012   0.453  0.1893 -0.2426 -0.0170
    1SOL    HW2  334   2.578   4.016   0.549  0.0566  0.1472 -0.0331
    1SOL    HW3  335   2.534   3.931   0.432 -2.2414  1.0217  0.1777
    1SOL    MW4  336   2.573   4.002   0.463 -0.1488 -0.0238  0.0066
    1SOL     OW  337   4.308   1.302   0.753 -0.4221  0.0539  0.2567
    1SOL    HW2  338   4.386   1.258   0.788 -0.2508  0.9850  1.0533
    1SOL    HW3  339   4.240   1.234   0.755  0.6608 -1.1295 -1.5871
    1SOL    MW4  340   4.309   1.287   0.758 -0.2561  0.0206  0.1186
    1SOL     OW  341   2.078   1.259   0.514  0.1089 -0.1165 -0.1963
    1SOL    HW2  342   2.042   1.335   0.469  0.7321  0.1967 -0.1573
    1SOL    HW3  343   2.033   1.184   0.474  1.3941  0.0854 -2.0403
    1SOL    MW4  344   2.067   1.259   0.503  0.3605 -0.0485 -0.4345
    1SOL     OW  345   2.321   2.067   0.283 -0.4480 -0.5990 -0.0485
    1SOL    HW2  346   2.265   2.142   0.303 -0.9719 -0.8892 -0.4337
    1SOL    HW3  347   2.261   1.996   0.260  0.1282 -0.1852 -3.0723
    1SOL    MW4  348   2.306   2.067   0.283 -0.4413 -0.5825 -0.4983
    1SOL     OW  349   0.422   3.254   0.464  0.3091 -0.0503  0.2205
    1SOL    HW2  350   0.502   3.305   0.449  0.5801 -0.6597 -0.4285
    1SOL    HW3  351   0.352   3.308   0.427  0.6952 -0.5079 -1.2018
    1SOL    MW4  352   0.423   3.268   0.457  0.3958 -0.1915 -0.0528
    1SOL     OW  353   0.766   2.948   0.340  0.0644 -0.1788  0.4662
    1SOL    HW2  354   0.679   2.987   0.331  0.6835  0.8963 -1.1304
    1SOL    HW3  355   0.805   2.993   0.415 -0.5243 -0.2298  0.8040
    1SOL    MW4  356   0.760   2.959   0.349  0.0684 -0.0439  0.3002
    1SOL     OW  357   2.456   2.734   0.802 -0.3981  0.1867 -0.7569
    1SOL    HW2  358   2.466   2.823   0.836 -0.3749  0.0650 -0.4465
    1SOL    HW3  359   2.526   2.684   0.844 -0.9249 -0.1651 -0.3032
    1SOL    MW4  360   2.467   2.739   0.812 -0.4647  0.1245 -0.6561
    1SOL     OW  361   3.534   3.996   0.253  0.1310 -0.2050 -0.2231
    1SOL    HW2  362   3.544   4.020   0.161 -1.0420 -1.0331 -0.5807
    1SOL    HW3  363   3.550   4.077   0.301  0.3632  0.3229 -1.1837
    1SOL    MW4  364   3.537   4.009   0.247  0.0069 -0.2446 -0.3970
    1SOL     OW  365   3.343   3.069   0.866  0.3119 -0.4859 -0.3113
    1SOL    HW2  366   3.264   3.121   0.854 -0.4813 -1.3790  0.9433
    1SOL    HW3  367   3.356   3.065   0.961  1.6284 -0.6949 -0.4847
    1SOL    MW4  368   3.334   3.075   0.877  0.3810 -0.6316 -0.1687
    1SOL     OW  369   2.728   1.502   0.187 -0.1279 -0.1880  0.3310
    1SOL    HW2  370   2.705   1.493   0.094 -1.1429  0.1914  0.5318
    1SOL    HW3  371   2.682   1.581   0.215  2.2241  1.1290  0.5576
    1SOL    MW4  372   2.719   1.511   0.178  0.0486  0.0359  0.3874
    1SOL     OW  373   4.247   2.155   0.752  0.2948 -0.2649 -0.0392
    1SOL    HW2  374   4.312   2.110   0.806 -0.9563 -0.2648  1.4860
    1SOL    HW3  375   4.176   2.091   0.741 -0.0840  0.2296 -0.5111
    1SOL    MW4  376   4.246   2.140   0.757  0.0792 -0.1996  0.0997
    1SOL     OW  377   0.366   0.201   0.239 -1.0773 -0.1198  0.4015
    1SOL    HW2  378   0.444   0.215   0.292  0.2201  0.6554 -1.6482
    1SOL    HW3  379   0.352   0.106   0.240 -0.2280 -0.2391  0.9083
    1SOL    MW4  380   0.374   0.190   0.246 -0.7941 -0.0333  0.1979
    1SOL     OW  381   4.219   3.063   0.853 -0.0056  0.0560 -0.3025
    1SOL    HW2  382   4.141   3.109   0.820 -0.2061 -0.4639 -0.5585
    1SOL    HW3  383   4.292   3.108   0.810 -0.2019  0.1216 -0.5709
    1SOL    MW4  384   4.219   3.075   0.843 -0.0582 -0.0038 -0.3717
    1SOL     OW  385   0.207   2.111   0.781 -0.0267  0.1886  0.0181
    1SOL    HW2  386   0.283   2.056   0.799  0.5200  0.7766 -0.4473
    1SOL    HW3  387   0.233   2.198   0.811 -1.1798  0.0525  1.5099
    1SOL    MW4  388   0.220   2.115   0.787 -0.1067  0.2482  0.1535
    1SOL     OW  389   4.480   4.283   0.808  0.0391  0.3286 -1.1793
    1SOL    HW2  390   4.472   4.271   0.902  0.5918  1.7803 -0.9379
    1SOL    HW3  391   4.488   4.194   0.773 -0.6707 -0.2465  0.0835
    1SOL    MW4  392   4.480   4.270   0.815  0.0186  0.4444 -0.9809
    1SOL     OW  393   2.219   2.636   0.352  0.2481  0.1523  0.4639
    1SOL    HW2  394   2.262   2.575   0.413 -1.1336 -1.1280  0.1968
    1SOL    HW3  395   2.131   2.648   0.388  0.0496  0.8666 -0.2608
    1SOL    MW4  396   2.213   2.629   0.364  0.0396  0.0777  0.3330
    1SOL     OW  397   2.949   2.032   0.740  0.1004  0.0898 -0.2347
    1SOL    HW2  398   3.030   1.986   0.763  0.2431  0.0955 -0.7130
    1SOL    HW3  399   2.880   1.983   0.785  0.3840  0.1858  0.3136
    1SOL    MW4  400   2.951   2.020   0.749  0.1564  0.1032 -0.2254
    1SOL     OW  401   1.776   0.086   0.741 -0.2281 -0.0526  0.2006
    1SOL    HW2  402   1.702   0.056   0.794 -0.2370  1.2605  0.9489
    1SOL    HW3  403   1.849   0.033   0.771 -0.4583 -0.0337  0.8062
    1SOL    MW4  404   1.776   0.075   0.752 -0.2596  0.1231  0.3793
    1SOL     OW  405   1.930   4.257   0.452 -0.0597  0.0741  0.4978
    1SOL    HW2  406   1.891   4.169   0.456 -0.0865  0.0696  0.1180
    1SOL    HW3  407   2.022   4.241   0.430 -0.0661  0.1425  0.4239
    1SOL    MW4  408   1.937   4.243   0.450 -0.0641  0.0825  0.4379
    1SOL     OW  409   1.558   2.047   0.788 -0.1867  0.4516 -0.0112
    1SOL    HW2  410   1.530   2.075   0.701  0.2993  0.0826 -0.2870
    1SOL    HW3  411   1.479   2.010   0.828  0.0189 -1.0920 -0.9889
    1SOL    MW4  412   1.544   2.046   0.782 -0.0952  0.1996 -0.1765
    1SOL     OW  413   1.977   0.912   0.190  0.4428 -0.3869 -0.2108
    1SOL    HW2  414   1.973   0.834   0.245 -0.5177 -0.0323  0.2507
    1SOL    HW3  415   2.070   0.934   0.186  0.8116 -2.0297 -1.0537
    1SOL    MW4  416   1.988   0.905   0.197  0.3648 -0.5568 -0.2611
    1SOL     OW  417   1.403   3.467   0.294 -0.2094  0.1970 -0.1274
    1SOL    HW2  418   1.457   3.516   0.233  1.1659 -1.7752 -0.5420
    1SOL    HW3  419   1.459   3.453   0.370 -1.1702  0.7282  0.6988
    1SOL    MW4  420   1.417   3.471   0.296 -0.1547  0.0069 -0.0731
    1SOL     OW  421   1.620   3.586   0.174 -0.0559  0.6129 -0.1300
    1SOL    HW2  422   1.672   3.540   0.109  0.6907  1.2360  0.0195
    1SOL    HW3  423   1.682   3.608   0.243 -0.9006 -0.3189  0.9474
    1SOL    MW4  424   1.635   3.583   0.175 -0.0690  0.5722  0.0318
    1SOL     OW  425   1.156   1.531   0.863 -0.0237  0.2427 -0.5270
    1SOL    HW2  426   1.157   1.458   0.801 -1.5598  0.5438 -0.9205
    1SOL    HW3  427   1.236   1.580   0.844  1.2067 -1.5302 -0.0160
    1SOL    MW4  428   1.167   1.528   0.853 -0.0641  0.0486 -0.5115
    1SOL     OW  429   1.346   0.116   0.796 -0.3142 -0.2479 -0.3369
    1SOL    HW2  430   1.413   0.053   0.823  0.6114  0.2636 -1.4362
    1SOL    HW3  431   1.374   0.199   0.835 -0.3386 -0.0455 -0.7493
    1SOL    MW4  432   1.359   0.119   0.805 -0.1953 -0.1537 -0.5363
    1SOL     OW  433   3.605   2.261   0.370 -0.2559 -0.0514  0.3499
    1SOL    HW2  434   3.600   2.237   0.278  0.0501  0.0191  0.3161
    1SOL    HW3  435   3.699   2.260   0.391 -0.2428  1.1222  0.3480
    1SOL    MW4  436   3.617   2.257   0.361 -0.2139  0.1128  0.3452
    1SOL     OW  437   1.531   1.002   0.160 -0.2056  0.0396  0.0556
    1SOL    HW2  438   1.460   1.000   0.097  0.9618 -0.3954 -1.2824
    1SOL    HW3  439   1.598   0.944   0.123  1.5358  1.7509  0.4047
    1SOL    MW4  440   1.531   0.994   0.147  0.1783  0.2080 -0.0748
    1SOL     OW  441   0.880   4.060   0.765 -0.0043 -0.1096 -0.0034
    1SOL    HW2  442   0.807   4.006   0.793  0.7518 -0.8402  0.6015
    1SOL    HW3  443   0.957   4.003   0.776  0.8064  1.1111  0.7262
    1SOL    MW4  444   0.881   4.045   0.770  0.2024 -0.0448  0.1727
    1SOL     OW  445   4.020   2.759   0.704  0.2587 -0.4556 -0.3416
    1SOL    HW2  446   4.004   2.692   0.771  0.0069  0.7284  0.7947
    1SOL    HW3  447   4.114   2.774   0.707  0.1554  0.0877  0.2251
    1SOL    MW4  448   4.030   2.752   0.713  0.2122 -0.2279 -0.1169
    1SOL     OW  449   4.072   3.734   0.354 -0.1974 -0.0342 -0.0477
    1SOL    HW2  450   4.128   3.753   0.279  0.0848  0.6584  0.3319
    1SOL    HW3  451   4.121   3.670   0.406 -0.2979 -0.3502 -0.3424
    1SOL    MW4  452   4.086   3.728   0.351 -0.1736  0.0155 -0.0365
    1SOL     OW  453   1.006   0.466   0.338  0.1247  0.4418 -0.2124
    1SOL    HW2  454   1.083   0.421   0.373 -2.0521 -1.2447  2.5995
    1SOL    HW3  455   1.030   0.559   0.337  1.9068  0.0150  1.3435
    1SOL    MW4  456   1.019   0.472   0.342  0.0727  0.1630  0.3639
    1SOL     OW  457   2.675   0.893   0.742 -0.2968  0.2920 -0.1098
    1SOL    HW2  458   2.687   0.965   0.804  0.8480 -0.7400  0.8791
    1SOL    HW3  459   2.755   0.841   0.749 -0.0071  0.3149 -2.6729
    1SOL    MW4  460   2.687   0.896   0.751 -0.1078  0.1588 -0.3176
    1SOL     OW  461   1.813   1.970   0.868 -0.1654  0.3773 -0.5024
    1SOL    HW2  462   1.735   2.015   0.833 -0.1047  0.5830 -0.3745
    1SOL    HW3  463   1.811   1.884   0.828  0.8428  1.1902 -2.3589
    1SOL    MW4  464   1.802   1.965   0.858 -0.0243  0.5118 -0.7305
    1SOL     OW  465   2.013   0.421   0.433  0.0585  0.1494 -0.1670
    1SOL    HW2  466   2.028   0.443   0.525 -1.4239 -1.5501  0.5108
    1SOL    HW3  467   2.083   0.359   0.411 -0.1022 -0.1192  0.0769
    1SOL    MW4  468   2.024   0.416   0.442 -0.1583 -0.1102 -0.0454
    1SOL     OW  469   0.919   3.479   0.854 -0.0844 -0.4336 -0.1040
    1SOL    HW2  470   0.909   3.389   0.824  0.1221  0.0532 -1.7236
    1SOL    HW3  471   0.837   3.522   0.828 -0.6283 -0.3939  1.6110
    1SOL    MW4  472   0.907   3.473   0.846 -0.1289 -0.3643 -0.0913
    1SOL     OW  473   2.082   1.312   0.801  0.3216 -0.1762  0.5255
    1SOL    HW2  474   2.066   1.317   0.707 -0.1814  0.4910  0.6449
    1SOL    HW3  475   2.151   1.246   0.810 -1.1865 -1.8814 -0.1321
    1SOL    MW4  476   2.089   1.304   0.790  0.0563 -0.3132  0.4545
    1SOL     OW  477   4.243   3.559   0.469 -0.2741 -0.4937  0.7484
    1SOL    HW2  478   4.266   3.469   0.444 -1.9595 -0.7145 -0.0392
    1SOL    HW3  479   4.260   3.562   0.563  0.4811 -1.4222  0.6478
    1SOL    MW4  480   4.249   3.547   0.478 -0.3972 -0.6454  0.6313
    1SOL     OW  481   0.446   1.679   0.771 -0.1765 -0.2230 -0.2007
    1SOL    HW2  482   0.523   1.647   0.818 -0.5275 -0.8315 -0.0188
    1SOL    HW3  483   0.432   1.768   0.804  1.0229  0.2523 -0.9668
    1SOL    MW4  484   0.454   1.686   0.782 -0.0646 -0.2406 -0.2778
    1SOL     OW  485   0.950   4.621   0.301 -0.1980 -0.1675  0.3029
    1SOL    HW2  486   0.948   4.693   0.365  0.7254 -1.3863  1.7330
    1SOL    HW3  487   1.007   4.654   0.231 -0.5346  0.8478  0.4875
    1SOL    MW4  488   0.957   4.635   0.300 -0.1206 -0.1941  0.5160
    1SOL     OW  489   1.349   2.440   0.767  0.1669 -0.3839  0.0373
    1SOL    HW2  490   1.360   2.455   0.673 -1.4379  0.6729  0.0053
    1SOL    HW3  491   1.341   2.528   0.805 -0.7266 -0.8554  0.9718
    1SOL    MW4  492   1.349   2.454   0.760 -0.1627 -0.3068  0.1564
    1SOL     OW  493   1.661   2.753   0.450 -0.1385 -0.1130 -0.2631
    1SOL    HW2  494   1.581   2.707   0.423 -1.1755  2.4826 -1.8215
    1SOL    HW3  495   1.650   2.764   0.545 -1.2592 -0.4491 -0.3380
    1SOL    MW4  496   1.649   2.748   0.459 -0.4233  0.1853 -0.4786
    1SOL     OW  497   3.060   0.026   0.474 -0.0266 -0.0897 -0.3344
    1SOL    HW2  498   3.015  -0.056   0.457 -0.5603  0.5113 -1.8918
    1SOL    HW3  499   3.027   0.055   0.559  0.8534 -1.9228  0.6532
    1SOL    MW4  500   3.050   0.019   0.483  0.0193 -0.2522 -0.4096
    1SOL     OW  501   2.908   4.377   0.749 -0.0874 -0.0453  0.0531
    1SOL    HW2  502   2.895   4.469   0.772 -1.1034  0.1341 -1.1847
    1SOL    HW3  503   2.824   4.335   0.769 -0.1168 -0.4037 -0.8094
    1SOL    MW4  504   2.895   4.383   0.755 -0.2255 -0.0687 -0.2241
    1SOL     OW  505   4.433   1.706   0.481 -0.0772 -1.0648  0.0785
    1SOL    HW2  506   4.415   1.612   0.491 -0.9423 -1.0001 -0.7970
    1SOL    HW3  507   4.524   1.709   0.451  0.0322 -1.6123  0.3383
    1SOL    MW4  508   4.442   1.694   0.478 -0.1760 -1.1286 -0.0028
    1SOL     OW  509   1.586   1.270   0.722 -0.0693  0.2479 -0.1984
    1SOL    HW2  510   1.567   1.271   0.628 -0.5624 -2.2710 -0.1594
    1SOL    HW3  511   1.511   1.225   0.760  0.1250  1.2628  1.4313
    1SOL    MW4  512   1.573   1.264   0.714 -0.1086  0.0495  0.0218
    1SOL     OW  513   1.362   3.478   0.889 -0.0702 -0.0875  0.5568
    1SOL    HW2  514   1.425   3.527   0.836 -0.9557  0.4672  0.0057
    1SOL    HW3  515   1.366   3.389   0.854  0.1253  0.0343  0.2646
    1SOL    MW4  516   1.371   3.473   0.877 -0.1613  0.0019  0.4455
    1SOL     OW  517   3.820   2.380   0.864 -0.0338 -0.5522  1.0287
    1SOL    HW2  518   3.754   2.431   0.816 -0.4879 -1.0260  1.1444
    1SOL    HW3  519   3.840   2.306   0.806  0.2032 -0.5511  1.1078
    1SOL    MW4  520   3.814   2.377   0.850 -0.0622 -0.6146  1.0544
    1SOL     OW  521   2.003   4.622   0.832 -0.2080 -0.0968 -0.3182
    1SOL    HW2  522   2.058   4.686   0.787 -1.6686  1.3404 -0.1241
    1SOL    HW3  523   2.015   4.541   0.783  0.8852  0.5846 -1.1969
    1SOL    MW4  524   2.012   4.620   0.820 -0.2565  0.1826 -0.4085
    1SOL     OW  525   2.834   0.162   0.344 -0.0101 -0.1354  0.2623
    1SOL    HW2  526   2.923   0.136   0.369  0.0293 -0.3915 -0.1295
    1SOL    HW3  527   2.833   0.258   0.353  0.8979  0.0696 -1.5480
    1SOL    MW4  528   2.846   0.171   0.348  0.1149 -0.1421 -0.0282
    1SOL     OW  529   1.177   0.312   0.493  0.0634 -0.7272 -0.4789
    1SOL    HW2  530   1.184   0.356   0.578 -1.2577  1.2775 -1.3561
    1SOL    HW3  531   1.254   0.255   0.489  1.1075  0.4922  1.3001
    1SOL    MW4  532   1.188   0.311   0.504  0.0268 -0.3018 -0.3600
    1SOL     OW  533   0.652   2.050   0.750 -0.5998  0.1760 -0.2953
    1SOL    HW2  534   0.636   2.059   0.656  1.1935  0.3632 -0.5925
    1SOL    HW3  535   0.656   2.140   0.782  2.2459  0.2005 -0.6519
    1SOL    MW4  536   0.650   2.063   0.742  0.0123  0.2041 -0.3815
    1SOL     OW  537   2.315   2.427   0.547  0.4078 -0.0456  0.0718
    1SOL    HW2  538   2.411   2.433   0.545  0.3453  1.3477  0.3753
    1SOL    HW3  539   2.294   2.424   0.640  0.1072  1.0650  0.0569
    1SOL    MW4  540   2.325   2.428   0.559  0.3598  0.2847  0.1099
    1SOL     OW  541   2.616   1.736   0.272 -0.0688  0.3708  0.0530
    1SOL    HW2  542   2.581   1.816   0.231 -0.2389  1.7329  2.7824
    1SOL    HW3  543   2.549   1.710   0.334  1.2427 -0.2877  1.1984
    1SOL    MW4  544   2.602   1.743   0.275  0.0820  0.4637  0.5643
    1SOL     OW  545   3.818   4.459   0.453 -0.2096  0.2586 -0.1810
    1SOL    HW2  546   3.730   4.429   0.431  0.0228  0.0468 -0.8381
    1SOL    HW3  547   3.874   4.383   0.438  0.0884  0.3986  0.2135
    1SOL    MW4  548   3.814   4.445   0.448 -0.1397  0.2499 -0.2156
    1SOL     OW  549   1.983   3.090   0.541 -0.0077  0.0675 -0.6285
    1SOL    HW2  550   2.036   3.011   0.534 -0.2750 -0.0970 -0.8007
    1SOL    HW3  551   1.970   3.101   0.635  0.6340  0.3115 -0.5647
    1SOL    MW4  552   1.989   3.081   0.552  0.0416  0.0782 -0.6428
    1SOL     OW  553   2.832   0.457   0.449 -0.4932  0.0837  0.4311
    1SOL    HW2  554   2.848   0.449   0.543 -1.0372  0.5400  0.5613
    1SOL    HW3  555   2.754   0.511   0.442 -0.0847  0.5898 -0.2981
    1SOL    MW4  556   2.824   0.463   0.460 -0.5109  0.2107  0.3521
    1SOL     OW  557   4.261   4.433   0.694 -0.1469  0.3025  0.2486
    1SOL    HW2  558   4.321   4.368   0.732  0.3773  0.9559  0.5385
    1SOL    HW3  559   4.296   4.517   0.722 -0.7146  0.7229 -0.3002
    1SOL    MW4  560   4.273   4.435   0.703 -0.1526  0.4444  0.2145
    1SOL     OW  561   1.560   0.763   0.879  0.2815 -0.3560 -0.7941
    1SOL    HW2  562   1.643   0.803   0.850 -0.3639  1.1929 -0.5663
    1SOL    HW3  563   1.492   0.818   0.838 -0.6370 -0.0869  1.0590
    1SOL    MW4  564   1.562   0.776   0.870  0.0751 -0.1161 -0.5195
    1SOL     OW  565   0.648   3.924   0.853 -0.4470 -0.0028  0.1911
    1SOL    HW2  566   0.579   3.964   0.799  0.1323  0.3704 -0.2844
    1SOL    HW3  567   0.648   3.832   0.828 -0.7997 -0.0078  0.2156
    1SOL    MW4  568   0.639   3.917   0.842 -0.4172  0.0458  0.1315
    1SOL     OW  569   1.143   3.806   0.516  0.2452 -0.1449  0.4049
    1SOL    HW2  570   1.152   3.759   0.599 -0.2786 -0.2023  0.4292
    1SOL    HW3  571   1.208   3.876   0.522  0.4418 -0.3492  0.7238
    1SOL    MW4  572   1.153   3.809   0.528  0.2021 -0.1791  0.4502
    1SOL     OW  573   0.936   1.659   0.752  0.3934 -0.0902  0.3400
    1SOL    HW2  574   0.938   1.745   0.794  0.5331 -0.7461  1.6875
    1SOL    HW3  575   1.012   1.613   0.787  0.4227 -0.7068 -0.5081
    1SOL    MW4  576   0.946   1.664   0.762  0.4157 -0.2582  0.4060
    1SOL     OW  577   4.341   1.432   0.508  0.2698  0.5926  0.0981
    1SOL    HW2  578   4.283   1.385   0.449  1.2193 -0.3879 -0.0607
    1SOL    HW3  579   4.340   1.382   0.589  0.2139  1.0588  0.3907
    1SOL    MW4  580   4.333   1.419   0.511  0.3881  0.5246  0.1158
    1SOL     OW  581   0.683   0.004   0.814 -0.1139 -0.5941 -0.2608
    1SOL    HW2  582   0.705  -0.011   0.906  0.2833 -2.2089 -0.6144
    1SOL    HW3  583   0.676  -0.083   0.776 -2.4172  0.0196 -1.2931
    1SOL    MW4  584   0.685  -0.009   0.821 -0.3654 -0.7262 -0.4436
    1SOL     OW  585   0.224   3.608   0.774  0.2961 -0.5624  0.3454
    1SOL    HW2  586   0.221   3.703   0.779 -0.2438 -0.6087  0.9232
    1SOL    HW3  587   0.309   3.584   0.811  0.1773 -0.3406  0.7625
    1SOL    MW4  588   0.235   3.617   0.780  0.2092 -0.5393  0.4767
    1SOL     OW  589   0.010   3.202   0.515  0.0754  0.0146  0.0429
    1SOL    HW2  590   0.080   3.256   0.479 -0.2652  0.7666  0.4887
    1SOL    HW3  591   0.036   3.112   0.495 -0.0045  0.3964 -1.8546
    1SOL    MW4  592   0.023   3.197   0.508  0.0199  0.1640 -0.1487
    1SOL     OW  593   2.270   0.956   0.142  0.0030 -0.0413  0.1315
    1SOL    HW2  594   2.252   1.049   0.149  0.4335 -0.0795  2.1828
    1SOL    HW3  595   2.331   0.938   0.213  0.3296 -1.7935 -0.5584
    1SOL    MW4  596   2.276   0.966   0.152  0.1028 -0.2775  0.3111
    1SOL     OW  597   3.832   3.683   0.506  1.0175 -0.1593  0.4050
    1SOL    HW2  598   3.759   3.743   0.490  0.6229 -1.0863 -1.4043
    1SOL    HW3  599   3.898   3.708   0.441  1.7563 -0.2366  1.1177
    1SOL    MW4  600   3.831   3.694   0.495  1.0629 -0.2916  0.2603
    1SOL     OW  601   2.713   1.925   0.845  0.2353 -0.0408  0.1532
    1SOL    HW2  602   2.626   1.947   0.810 -0.0241 -0.5645  0.4748
    1SOL    HW3  603   2.703   1.931   0.940  0.7835  0.7695  0.1678
    1SOL    MW4  604   2.700   1.929   0.853  0.2735 -0.0031  0.1975
    1SOL     OW  605   1.293   4.288   0.927 -0.0457  0.3699 -0.2849
    1SOL    HW2  606   1.228   4.335   0.876  1.2224  1.0048 -1.3579
    1SOL    HW3  607   1.377   4.322   0.896  0.8569 -1.6027 -0.0883
    1SOL    MW4  608   1.296   4.299   0.916  0.2408  0.1931 -0.4005
    1SOL     OW  609   2.015   3.603   0.479  0.0500 -0.2541  0.5838
    1SOL    HW2  610   2.013   3.588   0.573  2.1665 -0.2672  0.6490
    1SOL    HW3  611   2.045   3.520   0.442 -1.8889 -0.6201 -0.2016
    1SOL    MW4  612   2.019   3.590   0.487  0.0734 -0.3040  0.4888
    1SOL     OW  613   2.837   4.628   0.834 -0.2409 -0.0580 -0.1994
    1SOL    HW2  614   2.915   4.680   0.812 -1.2958  2.0262  0.8778
    1SOL    HW3  615   2.766   4.667   0.783 -1.0523 -0.4536  0.6151
    1SOL    MW4  616   2.838   4.640   0.824 -0.4871  0.1650  0.0502
    1SOL     OW  617   2.411   3.802   0.396  0.4215 -0.1527  0.2040
    1SOL    HW2  618   2.316   3.805   0.410  0.4224 -1.0500  0.3978
    1SOL    HW3  619   2.438   3.719   0.434  1.1295 -0.4132 -0.8556
    1SOL    MW4  620   2.402   3.792   0.403  0.5150 -0.3054  0.0898
    1SOL     OW  621   2.468   3.846   0.875  0.1224 -0.4147 -0.7399
    1SOL    HW2  622   2.384   3.873   0.837 -0.1946 -0.3220  0.0043
    1SOL    HW3  623   2.482   3.757   0.843  0.1711 -0.1036 -1.5765
    1SOL    MW4  624   2.459   3.838   0.866  0.0870 -0.3617 -0.7520
    1SOL     OW  625   2.766   3.179   0.482 -0.0522 -0.1420 -0.3009
    1SOL    HW2  626   2.689   3.160   0.429  0.4438 -2.4387 -0.2577
    1SOL    HW3  627   2.831   3.114   0.455  1.3770  0.8009  0.7231
    1SOL    MW4  628   2.765   3.168   0.472  0.2019 -0.3207 -0.1601
    1SOL     OW  629   0.675   1.371   0.539 -0.5037 -0.4017 -0.4297
    1SOL    HW2  630   0.580   1.382   0.547 -0.5556 -0.3451 -1.1077
    1SOL    HW3  631   0.709   1.460   0.531 -0.2452 -0.3222  1.2804
    1SOL    MW4  632   0.667   1.384   0.539 -0.4764 -0.3839 -0.2937
    1SOL     OW  633   0.161   2.039   0.518  0.2008 -0.0054 -0.1805
    1SOL    HW2  634   0.184   2.065   0.607  1.5207  0.0924 -0.5370
    1SOL    HW3  635   0.067   2.058   0.510  0.4909  1.7657  0.5595
    1SOL    MW4  636   0.151   2.045   0.529  0.4132  0.2413 -0.1299
    1SOL     OW  637   4.132   2.833   0.341  0.1846 -0.0663  0.1129
    1SOL    HW2  638   4.066   2.771   0.372  0.3592 -0.3155 -0.0167
    1SOL    HW3  639   4.119   2.838   0.246  0.4142 -0.1889  0.0736
    1SOL    MW4  640   4.122   2.826   0.333  0.2375 -0.1154  0.0906
    1SOL     OW  641   4.072   2.066   0.339 -0.2649  0.0363  0.0389
    1SOL    HW2  642   4.100   1.999   0.402 -1.1647 -0.7210 -0.3481
    1SOL    HW3  643   4.154   2.103   0.305  0.2311  0.0468  1.2232
    1SOL    MW4  644   4.087   2.062   0.343 -0.3181 -0.0622  0.1441
    1SOL     OW  645   2.624   0.052   0.698  0.2151  0.3369 -0.3400
    1SOL    HW2  646   2.629   0.140   0.734  1.0954 -0.0503  0.4919
    1SOL    HW3  647   2.547   0.013   0.740  0.4829  0.3271  0.1375
    1SOL    MW4  648   2.614   0.058   0.708  0.3667  0.2846 -0.1672
    1SOL     OW  649   3.232   1.584   0.430  0.6333  0.2678 -0.4371
    1SOL    HW2  650   3.152   1.583   0.379 -1.0867  1.2850  2.1142
    1SOL    HW3  651   3.254   1.677   0.438  1.9713  0.0064 -0.9431
    1SOL    MW4  652   3.225   1.596   0.425  0.5829  0.3675 -0.1672
    1SOL     OW  653   1.340   1.937   0.888  0.0102  0.0792 -0.0477
    1SOL    HW2  654   1.350   1.842   0.880  0.5557  0.1135  0.2013
    1SOL    HW3  655   1.328   1.951   0.982 -1.0392  0.1700 -0.1861
    1SOL    MW4  656   1.340   1.926   0.900 -0.0563  0.0957 -0.0331
    1SOL     OW  657   0.426   1.940   0.851 -0.1240 -0.0333  0.6473
    1SOL    HW2  658   0.509   1.971   0.815 -0.8859  1.9388  0.5126
    1SOL    HW3  659   0.445   1.927   0.944  0.9338 -1.8332  0.2045
    1SOL    MW4  660   0.440   1.942   0.859 -0.0850 -0.0107  0.5711
    1SOL     OW  661   0.002   4.293   0.334 -0.3500  0.2313  0.6155
    1SOL    HW2  662   0.006   4.311   0.240 -0.7237  0.0470  0.5620
    1SOL    HW3  663  -0.030   4.203   0.339 -0.7860  0.4023  0.9267
    1SOL    MW4  664  -0.002   4.283   0.322 -0.4568  0.2294  0.6495
    1SOL     OW  665   0.918   3.205   0.794 -0.1111 -0.3997  0.2592
    1SOL    HW2  666   0.920   3.175   0.703 -0.9820  1.9634 -0.5740
    1SOL    HW3  667   0.833   3.176   0.827 -0.5916  0.4127 -0.2694
    1SOL    MW4  668   0.907   3.197   0.786 -0.2894  0.0193  0.0795
    1SOL     OW  669   1.256   3.236   0.227 -0.0429 -0.2910 -0.1737
    1SOL    HW2  670   1.309   3.314   0.244  0.3423 -0.8724  1.3314
    1SOL    HW3  671   1.173   3.271   0.194 -0.0520  0.7961  0.9565
    1SOL    MW4  672   1.252   3.251   0.225  0.0068 -0.2244  0.1740
    1SOL     OW  673   2.894   3.850   0.793 -0.3875  0.2816  0.2682
    1SOL    HW2  674   2.812   3.885   0.759 -1.3620 -1.9291  0.2721
    1SOL    HW3  675   2.882   3.848   0.888 -0.3748 -0.1329  0.2628
    1SOL    MW4  676   2.881   3.854   0.801 -0.5143 -0.0648  0.2680
    1SOL     OW  677   0.989   0.998   0.424  0.0640  0.3297  0.0350
    1SOL    HW2  678   0.941   0.928   0.379  0.4984  0.6819 -0.9946
    1SOL    HW3  679   1.071   0.958   0.451 -0.0123  0.2348  0.1258
    1SOL    MW4  680   0.993   0.984   0.421  0.1112  0.3636 -0.0889
    1SOL     OW  681   1.539   3.627   0.758 -0.0758  0.2874  0.5974
    1SOL    HW2  682   1.620   3.612   0.806 -0.6501 -2.0318  0.9074
    1SOL    HW3  683   1.559   3.604   0.668  0.4159  2.6334  0.0689
    1SOL    MW4  684   1.552   3.622   0.752 -0.0867  0.2911  0.5686
    1SOL     OW  685   2.187   4.146   0.480 -0.5207  0.1127 -0.4524
    1SOL    HW2  686   2.272   4.180   0.453  0.4815 -1.0348  1.1748
    1SOL    HW3  687   2.187   4.055   0.452 -0.8874 -0.1105  0.2425
    1SOL    MW4  688   2.198   4.138   0.473 -0.4370 -0.0682 -0.1460
    1SOL     OW  689   0.190   0.393   0.356  0.1984 -0.1002  0.1445
    1SOL    HW2  690   0.140   0.334   0.413  2.6306 -0.3469  2.1461
    1SOL    HW3  691   0.241   0.334   0.301  0.7686  0.1321  0.4206
    1SOL    MW4  692   0.190   0.377   0.356  0.5945 -0.1021  0.4450
    1SOL     OW  693   4.152   0.014   0.351 -0.2024 -0.1555  0.0178
    1SOL    HW2  694   4.074   0.020   0.295  0.6006 -0.0682 -1.1143
    1SOL    HW3  695   4.164  -0.079   0.366  0.5101 -0.2885 -1.3083
    1SOL    MW4  696   4.143   0.003   0.345 -0.0024 -0.1615 -0.3065
    1SOL     OW  697   2.429   2.215   0.891 -0.0172  0.5654  0.2608
    1SOL    HW2  698   2.522   2.233   0.903 -0.1666  1.3916  0.2053
    1SOL    HW3  699   2.395   2.294   0.850 -0.2964 -0.6517 -1.9087
    1SOL    MW4  700   2.437   2.227   0.887 -0.0739  0.5140 -0.0328
    1SOL     OW  701   4.439   3.752   0.413 -0.2772 -0.3927  0.0569
    1SOL    HW2  702   4.373   3.684   0.422  0.9120 -1.5052  0.5312
    1SOL    HW3  703   4.521   3.710   0.439  0.4347  1.2977  0.6539
    1SOL    MW4  704   4.441   3.737   0.418 -0.0262 -0.3164  0.1982
    1SOL     OW  705   3.173   1.881   0.787  0.2755 -0.2672  0.2910
    1SOL    HW2  706   3.158   1.880   0.882  0.6226  1.2816  0.3735
    1SOL    HW3  707   3.247   1.940   0.775 -0.1882  0.0668 -1.0019
    1SOL    MW4  708   3.181   1.888   0.798  0.2601 -0.0190  0.1314
    1SOL     OW  709   2.480   3.543   0.504 -0.0845 -0.2312  0.1902
    1SOL    HW2  710   2.569   3.520   0.477 -0.2692 -0.3861 -0.2902
    1SOL    HW3  711   2.436   3.458   0.517 -0.0895 -0.1558  0.6614
    1SOL    MW4  712   2.486   3.529   0.502 -0.1094 -0.2420  0.1889
    1SOL     OW  713   1.328   4.351   0.226 -0.8759  0.0666  0.3472
    1SOL    HW2  714   1.251   4.295   0.240 -2.4669  2.4559  1.4408
    1SOL    HW3  715   1.332   4.406   0.304  1.9845  0.0056  0.3021
    1SOL    MW4  716   1.318   4.351   0.238 -0.7086  0.3738  0.4855
    1SOL     OW  717   3.123   2.678   0.830 -0.0668 -0.1271  0.1949
    1SOL    HW2  718   3.130   2.599   0.777  0.4366  0.5735 -0.7968
    1SOL    HW3  719   3.195   2.734   0.799 -1.4557  1.4070 -0.3320
    1SOL    MW4  720   3.133   2.675   0.819 -0.1838  0.1681 -0.0055
    1SOL     OW  721   2.664   0.312   0.802  0.0031 -0.1713 -0.1138
    1SOL    HW2  722   2.648   0.327   0.895  0.6036  0.3511 -0.0945
    1SOL    HW3  723   2.744   0.360   0.783  0.5943 -1.3173 -0.6122
    1SOL    MW4  724   2.672   0.320   0.812  0.1602 -0.2536 -0.1771
    1SOL     OW  725   3.139   2.454   0.664 -0.3110 -0.2953 -0.1994
    1SOL    HW2  726   3.212   2.398   0.690  0.3900 -0.3221 -2.1313
    1SOL    HW3  727   3.061   2.399   0.674  0.1601 -0.9623 -0.1631
    1SOL    MW4  728   3.138   2.439   0.668 -0.1564 -0.3870 -0.4495
    1SOL     OW  729   1.417   2.218   0.152  0.0124 -0.0051 -0.2043
    1SOL    HW2  730   1.469   2.295   0.132  1.6911 -1.1671 -0.4227
    1SOL    HW3  731   1.467   2.145   0.116 -0.7728 -1.3499  1.3611
    1SOL    MW4  732   1.431   2.218   0.145  0.1303 -0.3359 -0.0266
    1SOL     OW  733   0.636   3.700   0.499  0.3707  0.3618 -0.0224
    1SOL    HW2  734   0.570   3.761   0.465 -1.0030 -1.2524 -0.3633
    1SOL    HW3  735   0.719   3.744   0.484 -0.5595  1.9887 -0.6019
    1SOL    MW4  736   0.638   3.714   0.492  0.0668  0.3633 -0.1439
    1SOL     OW  737   1.815   2.678   0.833  0.1038 -0.4032 -0.0278
    1SOL    HW2  738   1.743   2.721   0.788 -0.1506 -0.2017  0.5723
    1SOL    HW3  739   1.893   2.723   0.802 -0.0881 -0.1320 -0.1180
    1SOL    MW4  740   1.816   2.690   0.823  0.0449 -0.3409  0.0395
    1SOL     OW  741   2.492   3.594   0.782  0.0273 -0.3232 -0.3888
    1SOL    HW2  742   2.492   3.583   0.687  0.2913 -0.9139 -0.3230
    1SOL    HW3  743   2.567   3.543   0.812 -0.1809 -0.3111  0.1558
    1SOL    MW4  744   2.502   3.586   0.774  0.0346 -0.3994 -0.3082
    1SOL     OW  745   2.687   3.180   0.756  0.3212  0.1233  0.2457
    1SOL    HW2  746   2.693   3.189   0.661 -0.9354 -0.4203  0.1092
    1SOL    HW3  747   2.690   3.270   0.789 -0.3081  0.3820 -0.3839
    1SOL    MW4  748   2.688   3.193   0.748  0.0725  0.0856  0.1446
    1SOL     OW  749   2.696   4.234   0.879 -0.2641 -0.2551 -0.1614
    1SOL    HW2  750   2.694   4.233   0.974  1.4919 -1.0925 -0.1201
    1SOL    HW3  751   2.614   4.276   0.854 -0.7622 -0.0729  1.7106
    1SOL    MW4  752   2.685   4.239   0.888 -0.0982 -0.3414  0.0911
    1SOL     OW  753   0.328   3.882   0.443 -0.0100 -0.0048 -0.3809
    1SOL    HW2  754   0.365   3.967   0.419 -0.5139 -0.0086 -1.1681
    1SOL    HW3  755   0.234   3.895   0.443 -0.0533 -0.2497  0.7107
    1SOL    MW4  756   0.321   3.895   0.440 -0.0822 -0.0377 -0.3408
    1SOL     OW  757   1.530   4.371   0.833 -0.0774  0.2382 -0.6836
    1SOL    HW2  758   1.522   4.365   0.738  0.8584  2.0342 -0.8984
    1SOL    HW3  759   1.607   4.318   0.854 -0.6501 -0.6698 -0.8449
    1SOL    MW4  760   1.539   4.363   0.824 -0.0294  0.3552 -0.7332
    1SOL     OW  761   1.117   1.763   0.529 -0.2432  0.6122  0.1804
    1SOL    HW2  762   1.094   1.855   0.515 -2.1927 -0.0299 -1.0610
    1SOL    HW3  763   1.071   1.740   0.611 -1.0950  0.3219 -0.3690
    1SOL    MW4  764   1.108   1.772   0.538 -0.6127  0.4892 -0.0560
    1SOL     OW  765   2.358   3.295   0.548  0.2480 -0.1705  0.0830
    1SOL    HW2  766   2.338   3.251   0.631  1.8243  0.6393  0.9111
    1SOL    HW3  767   2.400   3.228   0.494  0.2952 -0.3737  0.3762
    1SOL    MW4  768   2.361   3.280   0.552  0.4623 -0.0906  0.2310
    1SOL     OW  769   0.861   3.038   0.087  0.5077 -0.0990  0.0404
    1SOL    HW2  770   0.777   3.073   0.056  0.7555  0.4725  0.0033
    1SOL    HW3  771   0.838   2.982   0.161  0.1462  0.5774  0.4470
    1SOL    MW4  772   0.847   3.035   0.093  0.4928  0.0658  0.0892
    1SOL     OW  773   2.103   2.839   0.551  0.1464 -0.0873  0.0787
    1SOL    HW2  774   2.039   2.793   0.497  0.2622 -1.8069  1.3555
    1SOL    HW3  775   2.186   2.829   0.504 -0.2693  0.9750 -0.8954
    1SOL    MW4  776   2.106   2.832   0.538  0.1068 -0.1743  0.1186
    1SOL     OW  777   3.391   3.251   0.437  0.2169 -0.0893  0.0437
    1SOL    HW2  778   3.403   3.180   0.374 -0.9342 -0.8587  0.6804
    1SOL    HW3  779   3.419   3.330   0.390 -1.6303 -0.4861 -1.8195
    1SOL    MW4  780   3.396   3.252   0.422 -0.1786 -0.2429 -0.1181
    1SOL     OW  781   1.322   4.501   0.475 -0.1975 -0.0906 -0.0877
    1SOL    HW2  782   1.227   4.498   0.485 -0.1952 -0.4052 -0.1544
    1SOL    HW3  783   1.345   4.592   0.494 -0.4042 -0.2402  0.8971
    1SOL    MW4  784   1.312   4.512   0.479 -0.2246 -0.1521  0.0334
    1SOL     OW  785   0.686   3.419   0.137 -0.0029  0.0555 -0.2535
    1SOL    HW2  786   0.670   3.408   0.230 -2.4595  0.6497 -0.5438
    1SOL    HW3  787   0.747   3.493   0.131 -0.6146  0.6663  0.8703
    1SOL    MW4  788   0.692   3.428   0.148 -0.4078  0.2143 -0.1435
    1SOL     OW  789   4.192   0.202   0.714  0.2090 -0.4063 -0.5284
    1SOL    HW2  790   4.116   0.160   0.673  0.8083 -1.9742 -0.0350
    1SOL    HW3  791   4.156   0.248   0.790 -0.1802 -1.5981  0.0211
    1SOL    MW4  792   4.177   0.203   0.718  0.2365 -0.7704 -0.3908
    1SOL     OW  793   0.441   1.053   0.517 -0.5440  0.4516 -0.1664
    1SOL    HW2  794   0.530   1.049   0.482 -1.2482  2.6356 -2.3360
    1SOL    HW3  795   0.450   1.029   0.609  2.1089 -0.4359 -0.6088
    1SOL    MW4  796   0.454   1.049   0.525 -0.2868  0.6226 -0.5110
    1SOL     OW  797   2.285   0.224   0.453 -0.7589 -0.2556 -0.4035
    1SOL    HW2  798   2.368   0.184   0.427 -0.9689 -0.7596 -0.2979
    1SOL    HW3  799   2.300   0.318   0.444 -0.4983 -0.3807 -1.3694
    1SOL    MW4  800   2.298   0.231   0.448 -0.7522 -0.3386 -0.5170
    1SOL     OW  801   0.627   0.615   0.474 -0.3302  0.0393 -0.4022
    1SOL    HW2  802   0.533   0.596   0.482 -0.2404 -0.6314 -0.8213
    1SOL    HW3  803   0.658   0.622   0.564 -1.0264  1.5522 -0.2704
    1SOL    MW4  804   0.618   0.613   0.487 -0.4102  0.1503 -0.4401
    1SOL     OW  805   2.251   0.342   0.866  0.3877  0.4956  0.0994
    1SOL    HW2  806   2.244   0.255   0.828  0.6928  1.4611 -2.2478
    1SOL    HW3  807   2.182   0.393   0.824  1.4570  1.8941 -0.0362
    1SOL    MW4  808   2.241   0.338   0.856  0.5691  0.8075 -0.2282
    1SOL     OW  809   3.302   4.413   0.682  0.2793  0.0257  0.1224
    1SOL    HW2  810   3.311   4.491   0.736 -1.8605  1.7423 -1.8863
    1SOL    HW3  811   3.250   4.353   0.734  1.4438  0.1483  1.4510
    1SOL    MW4  812   3.296   4.416   0.696  0.1507  0.2685  0.0327
    1SOL     OW  813   3.556   4.266   0.722  0.1354  0.1058  0.2149
    1SOL    HW2  814   3.478   4.317   0.739  0.1747 -0.0467  0.9137
    1SOL    HW3  815   3.526   4.175   0.723  0.0670  0.1153 -1.0042
    1SOL    MW4  816   3.542   4.261   0.725  0.1316  0.0873  0.1462
    1SOL     OW  817   0.655   4.317   0.482  0.0530  0.0186  0.2048
    1SOL    HW2  818   0.650   4.359   0.568 -0.8487  0.1231  0.1117
    1SOL    HW3  819   0.635   4.387   0.420 -1.1051 -0.4592  0.0247
    1SOL    MW4  820   0.652   4.332   0.485 -0.2188 -0.0315  0.1687
    1SOL     OW  821   2.586   2.683   0.541  0.1394 -0.0357  0.0501
    1SOL    HW2  822   2.570   2.590   0.526 -0.5512  0.3809 -1.9904
    1SOL    HW3  823   2.535   2.703   0.620 -1.6981 -0.8717 -0.8704
    1SOL    MW4  824   2.577   2.673   0.549 -0.1941 -0.0911 -0.3406
    1SOL     OW  825   3.353   0.518   0.782  0.0284 -0.2996 -0.2809
    1SOL    HW2  826   3.374   0.523   0.689  1.1633 -0.8504 -0.0750
    1SOL    HW3  827   3.428   0.471   0.820 -0.0328  0.6468  1.0312
    1SOL    MW4  828   3.366   0.512   0.775  0.1700 -0.2474 -0.0806
    1SOL     OW  829   0.721   2.529   0.584  0.3159 -0.1547  0.2220
    1SOL    HW2  830   0.657   2.478   0.533 -0.6999 -0.0343  1.3491
    1SOL    HW3  831   0.695   2.620   0.569 -0.2104 -0.1335  1.2330
    1SOL    MW4  832   0.709   2.534   0.575  0.1124 -0.1361  0.5041
    1SOL     OW  833   0.248   4.355   0.447 -0.1927  0.1385  0.4919
    1SOL    HW2  834   0.224   4.376   0.538 -0.1066  0.6681  0.3925
    1SOL    HW3  835   0.165   4.331   0.406 -0.4313  1.1693  0.3679
    1SOL    MW4  836   0.234   4.355   0.454 -0.2128  0.3448  0.4624
    1SOL     OW  837   0.360   0.571   0.506 -0.0026 -0.0005  0.4649
    1SOL    HW2  838   0.316   0.656   0.510  1.0269  0.6547 -1.4983
    1SOL    HW3  839   0.304   0.517   0.450  0.8277  0.3320 -0.7127
    1SOL    MW4  840   0.347   0.575   0.499  0.2428  0.1298  0.0505
    1SOL     OW  841   1.999   3.561   0.748  0.6866  0.0076 -0.3193
    1SOL    HW2  842   2.065   3.514   0.799  0.1559  1.1905  1.5106
    1SOL    HW3  843   1.915   3.521   0.774  0.4346  0.3879 -0.5428
    1SOL    MW4  844   1.996   3.549   0.758  0.5834  0.2141 -0.1073
    1SOL     OW  845   4.069   0.406   0.874  0.1114  0.0272 -0.1439
    1SOL    HW2  846   4.132   0.465   0.833  0.1453 -0.4983 -0.8457
    1SOL    HW3  847   3.987   0.422   0.828  0.7648 -2.5276 -2.3422
    1SOL    MW4  848   4.067   0.416   0.863  0.2022 -0.3792 -0.5264
    1SOL     OW  849   2.974   1.964   0.477  0.0360  0.2265  0.6522
    1SOL    HW2  850   2.966   1.993   0.568  0.1690  0.0683  0.7147
    1SOL    HW3  851   2.916   1.889   0.470 -0.2799  0.4858  0.5003
    1SOL    MW4  852   2.966   1.958   0.488  0.0117  0.2397  0.6404
    1SOL     OW  853   0.928   3.098   0.539 -0.0813 -0.0118 -0.0393
    1SOL    HW2  854   0.939   3.179   0.490  1.3371  0.2086  0.6268
    1SOL    HW3  855   1.010   3.050   0.527 -0.4797 -0.8556  0.4703
    1SOL    MW4  856   0.940   3.102   0.531  0.0532 -0.0939  0.1158
    1SOL     OW  857   1.007   2.471   0.541  0.1670 -0.0479  0.0446
    1SOL    HW2  858   0.960   2.411   0.483 -1.1167  0.4141  0.5922
    1SOL    HW3  859   0.984   2.558   0.509 -0.2544  0.2031  1.0166
    1SOL    MW4  860   0.998   2.475   0.529 -0.0580  0.0463  0.2450
    1SOL     OW  861   1.600   4.101   0.418 -0.7576 -0.1210  0.1610
    1SOL    HW2  862   1.573   4.165   0.484  3.8070  1.6058  0.5867
    1SOL    HW3  863   1.603   4.150   0.336 -0.7355 -0.7232 -0.2027
    1SOL    MW4  864   1.597   4.116   0.416 -0.1523  0.0277  0.1691
    1SOL     OW  865   3.271   1.009   0.488  0.5537  0.2755  0.6578
    1SOL    HW2  866   3.212   0.984   0.560 -0.3318 -0.6039 -0.3491
    1SOL    HW3  867   3.258   1.103   0.479 -1.6460 -0.0845 -0.3371
    1SOL    MW4  868   3.261   1.018   0.497  0.1469  0.1119  0.3937
    1SOL     OW  869   0.703   2.312   0.832 -0.0794 -0.1245 -0.2079
    1SOL    HW2  870   0.687   2.319   0.926  0.8814  2.1938 -0.1783
    1SOL    HW3  871   0.628   2.356   0.792 -0.7886 -1.6337 -0.5625
    1SOL    MW4  872   0.691   2.319   0.839 -0.0462 -0.0179 -0.2508
    1SOL     OW  873   0.197   3.641   0.494 -0.2349 -0.1305  0.0310
    1SOL    HW2  874   0.258   3.710   0.467 -0.3069  0.1763  0.6415
    1SOL    HW3  875   0.220   3.622   0.585 -1.3822  0.3650  0.4431
    1SOL    MW4  876   0.208   3.648   0.503 -0.3957 -0.0248  0.1659
    1SOL     OW  877   3.348   2.836   0.717  0.5345  0.0964 -0.9040
    1SOL    HW2  878   3.325   2.917   0.762 -0.6054 -0.0560 -1.1960
    1SOL    HW3  879   3.440   2.821   0.740  0.3449  0.7185  0.2975
    1SOL    MW4  880   3.357   2.845   0.726  0.3591  0.1583 -0.7839
    1SOL     OW  881   0.456   2.719   0.823  0.4159  0.7461 -0.0059
    1SOL    HW2  882   0.539   2.763   0.806  0.3609  1.4760  1.4932
    1SOL    HW3  883   0.475   2.627   0.808  1.6090  0.8620  0.6579
    1SOL    MW4  884   0.470   2.713   0.819  0.5660  0.8576  0.2794
    1SOL     OW  885   3.107   0.571   0.400  0.2276  0.2104  0.3155
    1SOL    HW2  886   3.018   0.538   0.408  0.1354  0.4859  0.4089
    1SOL    HW3  887   3.098   0.666   0.393  0.5543  0.3090  1.1223
    1SOL    MW4  888   3.094   0.579   0.400  0.2587  0.2598  0.4343
    1SOL     OW  889   2.249   3.974   0.743 -0.4598  0.4415  0.3117
    1SOL    HW2  890   2.215   3.995   0.655  1.2380 -1.4821 -0.8428
    1SOL    HW3  891   2.181   3.920   0.782 -0.5116 -0.0362 -0.4359
    1SOL    MW4  892   2.235   3.970   0.736 -0.2425  0.1245  0.0607
    1SOL     OW  893   1.307   4.077   0.751 -0.1124 -0.1867  0.5598
    1SOL    HW2  894   1.224   4.031   0.767 -0.7002 -0.4058 -2.7306
    1SOL    HW3  895   1.308   4.147   0.816 -2.7362 -0.3817  0.8973
    1SOL    MW4  896   1.296   4.080   0.762 -0.5361 -0.2418  0.1702
    1SOL     OW  897   3.618   0.626   0.445 -0.0817 -0.6229 -0.1383
    1SOL    HW2  898   3.594   0.719   0.438 -0.6782 -0.7354  0.3688
    1SOL    HW3  899   3.536   0.581   0.463  0.1243 -1.3224 -0.9219
    1SOL    MW4  900   3.604   0.632   0.447 -0.1333 -0.7300 -0.1748
    1SOL     OW  901   4.442   2.006   0.869 -0.1610 -0.3605 -0.4486
    1SOL    HW2  902   4.528   2.030   0.834  0.7303 -2.6347  0.0430
    1SOL    HW3  903   4.425   1.920   0.830 -0.9845 -1.1106  1.5331
    1SOL    MW4  904   4.451   1.997   0.859 -0.1521 -0.7595 -0.1222
    1SOL     OW  905   0.052   0.872   0.736 -0.0092 -0.4966 -0.0740
    1SOL    HW2  906   0.039   0.966   0.748 -1.6047 -0.4044 -2.1961
    1SOL    HW3  907  -0.023   0.832   0.779 -0.9437 -0.6038 -1.7307
    1SOL    MW4  908   0.040   0.879   0.743 -0.3430 -0.4986 -0.5726
    1SOL     OW  909   3.127   3.252   0.505  0.0091  0.0330  0.5275
    1SOL    HW2  910   3.077   3.185   0.459 -0.5348  0.7071  0.1102
    1SOL    HW3  911   3.215   3.245   0.469 -0.4627  0.7106 -0.8391
    1SOL    MW4  912   3.132   3.242   0.494 -0.1252  0.2112  0.2921
    1SOL     OW  913   1.585   2.429   0.161 -0.0592  0.0601 -0.1165
    1SOL    HW2  914   1.632   2.369   0.219  0.8485  0.4219 -0.4676
    1SOL    HW3  915   1.653   2.486   0.126 -0.2238 -1.5588 -3.2795
    1SOL    MW4  916   1.600   2.428   0.164  0.0387 -0.1059 -0.5802
    1SOL     OW  917   3.143   1.160   0.836 -0.3506 -0.3614 -0.0318
    1SOL    HW2  918   3.229   1.196   0.814 -1.4723  1.8305 -0.9419
    1SOL    HW3  919   3.144   1.153   0.931 -0.4188  3.0855  0.2957
    1SOL    MW4  920   3.154   1.164   0.846 -0.5076  0.3827 -0.1087
    1SOL     OW  921   2.741   3.479   0.410 -0.1996  0.1781  0.1439
    1SOL    HW2  922   2.741   3.385   0.428 -0.4167  0.2705  0.6318
    1SOL    HW3  923   2.831   3.507   0.427  0.3113 -0.2676 -1.7446
    1SOL    MW4  924   2.753   3.470   0.415 -0.1609  0.1316 -0.0409
    1SOL     OW  925   1.342   0.898   0.764 -0.0345  0.0483 -0.1108
    1SOL    HW2  926   1.349   0.993   0.773  0.5525  0.1535 -1.5798
    1SOL    HW3  927   1.255   0.877   0.798  0.3474  0.9356  1.4482
    1SOL    MW4  928   1.331   0.908   0.770  0.0933  0.1793 -0.0989
    1SOL     OW  929   3.854   0.468   0.435 -0.1306  0.7293  0.0636
    1SOL    HW2  930   3.783   0.530   0.418  0.0938  0.4776 -1.8890
    1SOL    HW3  931   3.933   0.515   0.409  0.2884  0.5197  0.9483
    1SOL    MW4  932   3.855   0.483   0.429 -0.0458  0.6685 -0.0772
    1SOL     OW  933   4.012   2.565   0.902  0.3808 -0.2358 -0.5891
    1SOL    HW2  934   4.096   2.533   0.868  0.1894 -0.3699 -0.9338
    1SOL    HW3  935   3.948   2.499   0.876  0.1830 -0.1784 -0.2450
    1SOL    MW4  936   4.015   2.552   0.894  0.3295 -0.2460 -0.5891
    1SOL     OW  937   1.844   1.687   0.516 -0.6740  0.1617 -0.0936
    1SOL    HW2  938   1.913   1.747   0.487 -1.2861 -0.0864 -2.1116
    1SOL    HW3  939   1.834   1.705   0.610  0.9534  1.3755 -0.1382
    1SOL    MW4  940   1.852   1.697   0.525 -0.5400  0.2892 -0.3657
    1SOL     OW  941   1.487   0.936   0.431  0.0525  0.3583  0.1119
    1SOL    HW2  942   1.399   0.915   0.460  0.6882 -1.6815  0.6022
    1SOL    HW3  943   1.480   0.946   0.336 -0.2060 -2.5874 -0.2209
    1SOL    MW4  944   1.475   0.935   0.422  0.1023 -0.2995  0.1327
    1SOL     OW  945   1.712   0.810   0.521  0.2886 -0.3607  0.5088
    1SOL    HW2  946   1.636   0.852   0.481  0.7945 -0.6124 -0.7594
    1SOL    HW3  947   1.718   0.848   0.608 -1.3416 -0.4147  0.6569
    1SOL    MW4  948   1.703   0.820   0.527  0.1403 -0.4011  0.3610
    1SOL     OW  949   4.024   0.890   0.768  0.1828 -0.3440 -0.0237
    1SOL    HW2  950   4.027   0.986   0.762 -0.0586 -0.3872 -1.0072
    1SOL    HW3  951   4.110   0.865   0.802 -0.0855  0.2780  1.1329
    1SOL    MW4  952   4.036   0.900   0.772  0.1159 -0.2676 -0.0009
    1SOL     OW  953   0.837   1.622   0.487 -0.1906 -0.5636  0.1388
    1SOL    HW2  954   0.917   1.609   0.437 -1.2045 -0.1102 -1.6370
    1SOL    HW3  955   0.867   1.629   0.578  1.8766  0.5834 -0.5868
    1SOL    MW4  956   0.852   1.621   0.493 -0.0517 -0.3524 -0.1912
    1SOL     OW  957   0.646   3.433   0.426  0.0375  0.3739 -0.2896
    1SOL    HW2  958   0.635   3.525   0.450  1.2060  0.7727 -1.2337
    1SOL    HW3  959   0.741   3.420   0.424 -0.0871 -0.3665 -1.9489
    1SOL    MW4  960   0.657   3.443   0.429  0.1752  0.3290 -0.6331
    1SOL     OW  961   1.389   2.994   0.147 -0.3945  0.1115  0.2562
    1SOL    HW2  962   1.413   3.004   0.055  0.7255 -1.5204  0.3456
    1SOL    HW3  963   1.335   3.071   0.167 -0.6793  0.4475 -1.7639
    1SOL    MW4  964   1.385   3.005   0.138 -0.2844 -0.0596  0.0015
    1SOL     OW  965   1.286   2.164   0.396  0.3200 -0.4279  0.4434
    1SOL    HW2  966   1.324   2.188   0.312  0.3297  0.6274  0.7394
    1SOL    HW3  967   1.352   2.109   0.438  0.2529 -1.0850 -0.2944
    1SOL    MW4  968   1.299   2.160   0.390  0.3124 -0.3755  0.3851
    1SOL     OW  969   3.232   1.291   0.488  0.0194 -0.2540 -0.1016
    1SOL    HW2  970   3.284   1.290   0.569  1.1438 -0.0530 -0.8075
    1SOL    HW3  971   3.250   1.377   0.449 -1.3350  0.0624 -0.0532
    1SOL    MW4  972   3.241   1.302   0.494 -0.0107 -0.1857 -0.1884
    1SOL     OW  973   1.809   1.991   0.296 -0.3119 -0.2249  0.2967
    1SOL    HW2  974   1.837   1.964   0.208 -0.7668 -0.3329  0.1852
    1SOL    HW3  975   1.735   1.935   0.316  0.8217 -1.3403  1.4342
    1SOL    MW4  976   1.803   1.980   0.287 -0.2223 -0.3861  0.4321
    1SOL     OW  977   4.183   1.859   0.514  0.1331 -0.2987  0.0450
    1SOL    HW2  978   4.257   1.800   0.499  0.1939 -0.4051  0.7658
    1SOL    HW3  979   4.132   1.817   0.583 -0.5966 -0.2144 -0.4321
    1SOL    MW4  980   4.186   1.845   0.521  0.0448 -0.3017  0.0772
    1SOL     OW  981   3.718   3.410   0.474  0.4251  0.3112 -0.4881
    1SOL    HW2  982   3.649   3.399   0.408  0.2654 -0.0357 -0.2691
    1SOL    HW3  983   3.746   3.501   0.465 -1.3803  1.0027  0.6826
    1SOL    MW4  984   3.712   3.420   0.464  0.1657  0.3564 -0.3047
    1SOL     OW  985   1.361   2.695   0.838  0.0230  0.1318 -0.5830
    1SOL    HW2  986   1.369   2.701   0.933  0.0882 -1.0004 -0.5100
    1SOL    HW3  987   1.277   2.736   0.817 -0.1579  0.0476 -0.0051
    1SOL    MW4  988   1.351   2.701   0.847  0.0077 -0.0288 -0.4971
    1SOL     OW  989   3.474   0.215   0.441  0.0037  0.5138  0.4112
    1SOL    HW2  990   3.499   0.205   0.533  0.6107  0.3709  0.2376
    1SOL    HW3  991   3.418   0.140   0.423  3.0311 -1.6559 -0.3799
    1SOL    MW4  992   3.470   0.204   0.451  0.4830  0.2087  0.2839
    1SOL     OW  993   4.064   3.501   0.855  0.2778  0.2050  0.3184
    1SOL    HW2  994   4.057   3.410   0.827 -3.2668  0.5033 -0.0831
    1SOL    HW3  995   4.038   3.500   0.947 -1.5284  0.9759 -0.1468
    1SOL    MW4  996   4.060   3.489   0.864 -0.4272  0.3462  0.2040
    1SOL     OW  997   0.498   0.387   0.843 -0.2577  0.0559  0.2812
    1SOL    HW2  998   0.415   0.429   0.821 -0.0274  0.8921  0.9699
    1SOL    HW3  999   0.510   0.319   0.776 -0.6995  0.9997 -0.7643
    1SOL    MW4 1000   0.489   0.383   0.831 -0.2856  0.2908  0.2342
    1SOL     OW 1001   1.838   3.995   0.438  0.3332 -0.3235  0.1876
    1SOL    HW2 1002   1.749   4.022   0.416  0.1071 -0.3298  1.0855
    1SOL    HW3 1003   1.834   3.974   0.532  1.3293 -0.1203  0.2740
    1SOL    MW4 1004   1.825   3.996   0.448  0.4349 -0.2975  0.3175
    1SOL     OW 1005   0.022   0.420   0.807  0.7409 -0.1723 -0.0110
    1SOL    HW2 1006   0.105   0.467   0.798  0.2451  0.6145 -0.5096
    1SOL    HW3 1007   0.012   0.406   0.901  0.3704  1.6550  0.2291
    1SOL    MW4 1008   0.032   0.424   0.818  0.6266  0.1726 -0.0451
    1SOL     OW 1009   2.040   1.875   0.429 -0.4201  0.0946 -0.2834
    1SOL    HW2 1010   2.093   1.913   0.499  0.8726 -0.5852 -0.8778
    1SOL    HW3 1011   1.966   1.935   0.420 -0.4900  0.3111  1.5100
    1SOL    MW4 1012   2.037   1.888   0.437 -0.2587  0.0336 -0.1252
    1SOL     OW 1013   0.282   0.800   0.883  0.2616 -0.3583  0.1180
    1SOL    HW2 1014   0.253   0.778   0.972 -1.3323 -1.1681 -0.5806
    1SOL    HW3 1015   0.203   0.829   0.838  1.2751  1.1707 -0.7148
    1SOL    MW4 1016   0.268   0.801   0.889  0.1850 -0.2635 -0.0840
    1SOL     OW 1017   0.229   0.835   0.490  0.1271 -0.4035 -0.3049
    1SOL    HW2 1018   0.164   0.861   0.555 -0.7518 -0.2092 -1.2394
    1SOL    HW3 1019   0.293   0.906   0.490 -0.9122  0.5475 -1.0374
    1SOL    MW4 1020   0.229   0.848   0.498 -0.1260 -0.2524 -0.5248
    1SOL     OW 1021   0.204   1.766   0.369 -0.3154  0.0349 -0.2239
    1SOL    HW2 1022   0.284   1.726   0.402  0.1625 -0.6227 -2.0851
    1SOL    HW3 1023   0.216   1.860   0.384  0.7596 -0.0729 -0.3571
    1SOL    MW4 1024   0.216   1.773   0.375 -0.1105 -0.0662 -0.4870
    1SOL     OW 1025   0.041   1.142   0.790  0.2397  0.0367  0.2291
    1SOL    HW2 1026   0.112   1.206   0.789  0.2062  0.0658 -0.3845
    1SOL    HW3 1027   0.009   1.144   0.880 -0.8504  2.1017 -0.1612
    1SOL    MW4 1028   0.046   1.151   0.802  0.0915  0.3129  0.0967
    1SOL     OW 1029   0.187   1.593   0.848  0.1959 -0.0129 -0.8319
    1SOL    HW2 1030   0.273   1.619   0.817  0.1960  0.6527 -0.3056
    1SOL    HW3 1031   0.128   1.661   0.814 -0.0968 -0.3936 -1.0816
    1SOL    MW4 1032   0.190   1.606   0.840  0.1573  0.0248 -0.7955
    1SOL     OW 1033   1.122   2.806   0.766  0.0163 -0.4724 -0.0543
    1SOL    HW2 1034   1.037   2.762   0.772 -0.4302  0.2943 -0.6885
    1SOL    HW3 1035   1.131   2.829   0.674 -0.2517  1.7058  0.4341
    1SOL    MW4 1036   1.112   2.804   0.755 -0.0778 -0.0837 -0.0736
    1SOL     OW 1037   4.083   2.409   0.526  0.3583  0.0929  0.1817
    1SOL    HW2 1038   4.152   2.382   0.466  0.2603  2.1807 -0.9247
    1SOL    HW3 1039   4.125   2.411   0.612  1.6326  1.1868 -0.4540
    1SOL    MW4 1040   4.098   2.405   0.529  0.5136  0.5126 -0.0482
    1SOL     OW 1041   1.084   2.348   0.842  0.6293 -0.1827  0.2221
    1SOL    HW2 1042   1.089   2.253   0.841  0.1177 -0.2199  0.9880
    1SOL    HW3 1043   1.168   2.377   0.807  0.5061 -0.9191 -0.6792
    1SOL    MW4 1044   1.096   2.340   0.837  0.5455 -0.2844  0.2043
    1SOL     OW 1045   0.604   3.181   0.014  0.4650  0.1063  0.5691
    1SOL    HW2 1046   0.554   3.172  -0.067  2.0340 -0.3213 -0.3665
    1SOL    HW3 1047   0.619   3.275   0.023 -0.7475  0.2602  1.0054
    1SOL    MW4 1048   0.599   3.192   0.005  0.5121  0.0701  0.5031
    1SOL     OW 1049   4.235   2.431   0.755  0.3088 -0.0352 -0.4484
    1SOL    HW2 1050   4.220   2.337   0.751  0.1249 -0.0739  0.9536
    1SOL    HW3 1051   4.330   2.441   0.765  0.3411 -0.0641 -0.7216
    1SOL    MW4 1052   4.245   2.420   0.755  0.2885 -0.0443 -0.2995
    1SOL     OW 1053   0.400   1.338   0.530  1.0665 -0.1473  0.4522
    1SOL    HW2 1054   0.339   1.333   0.604  0.7724 -0.3874  0.1950
    1SOL    HW3 1055   0.418   1.247   0.509 -0.1486 -0.1067 -0.8365
    1SOL    MW4 1056   0.394   1.326   0.537  0.8673 -0.1738  0.2483
    1SOL     OW 1057   4.068   1.719   0.738  0.6295 -0.4335  0.6195
    1SOL    HW2 1058   3.986   1.673   0.755  0.8679 -1.4830 -0.9493
    1SOL    HW3 1059   4.136   1.661   0.772  0.7977 -0.1599  0.7515
    1SOL    MW4 1060   4.066   1.705   0.745  0.6828 -0.5358  0.4299
    1SOL     OW 1061   0.231   3.111   0.846  0.2285  0.2531 -0.0505
    1SOL    HW2 1062   0.247   3.112   0.940 -0.1107 -2.3818  0.0684
    1SOL    HW3 1063   0.142   3.145   0.836 -0.4817 -1.3247  0.7752
    1SOL    MW4 1064   0.221   3.115   0.857  0.0901 -0.3026  0.0741
    1SOL     OW 1065   1.737   1.281   0.287 -0.1877  0.0137  0.4147
    1SOL    HW2 1066   1.792   1.213   0.326 -0.5625 -0.8404 -0.5325
    1SOL    HW3 1067   1.711   1.245   0.202 -1.1890  0.9347  0.3257
    1SOL    MW4 1068   1.741   1.267   0.281 -0.3692  0.0224  0.2780
    1SOL     OW 1069   0.526   3.073   0.290  0.3376  0.0758 -0.0368
    1SOL    HW2 1070   0.474   3.140   0.335 -1.0857 -1.0288 -0.0239
    1SOL    HW3 1071   0.549   3.113   0.206 -0.7670  0.4761 -0.1537
    1SOL    MW4 1072   0.522   3.087   0.285  0.0041 -0.0172 -0.0505
    1SOL     OW 1073   4.454   3.195   0.795  0.2497 -0.3522 -0.2674
    1SOL    HW2 1074   4.460   3.206   0.700 -0.4860  0.9544 -0.1723
    1SOL    HW3 1075   4.454   3.284   0.830  1.1393 -0.8322  1.0092
    1SOL    MW4 1076   4.455   3.208   0.787  0.2704 -0.2432 -0.0865
    1SOL     OW 1077   0.467   3.503   0.853  0.2021 -0.1088  0.2221
    1SOL    HW2 1078   0.470   3.491   0.948  1.7049 -0.6010  0.1334
    1SOL    HW3 1079   0.457   3.414   0.818 -0.4396  0.0780 -0.0880
    1SOL    MW4 1080   0.466   3.489   0.861  0.3157 -0.1493  0.1695
    1SOL     OW 1081   0.382   2.833   0.366  0.2475  0.3503  0.5588
    1SOL    HW2 1082   0.301   2.873   0.398  0.1154  0.1796  0.4417
    1SOL    HW3 1083   0.429   2.904   0.323  0.4048  0.5710  1.0891
    1SOL    MW4 1084   0.377   2.847   0.365  0.2508  0.3567  0.6133
    1SOL     OW 1085   0.460   1.228   0.894 -0.0306  0.3180 -0.0853
    1SOL    HW2 1086   0.539   1.274   0.867 -0.3186  0.5007 -0.6181
    1SOL    HW3 1087   0.471   1.139   0.861  0.7847 -0.1753  1.4321
    1SOL    MW4 1088   0.472   1.223   0.886  0.0390  0.2769  0.0446
    1SOL     OW 1089   0.530   0.187   0.671 -0.0117  0.3900  0.2409
    1SOL    HW2 1090   0.437   0.163   0.663  0.1300 -0.6208  1.4511
    1SOL    HW3 1091   0.570   0.111   0.713  1.1033  1.4170  1.0362
    1SOL    MW4 1092   0.523   0.174   0.675  0.1541  0.3922  0.5056
    1SOL     OW 1093   0.478   0.380   1.109  0.2510 -0.1665  0.1588
    1SOL    HW2 1094   0.485   0.394   1.014  0.8744 -0.7048  0.1249
    1SOL    HW3 1095   0.388   0.407   1.130  0.4642  0.9944 -0.4003
    1SOL    MW4 1096   0.467   0.385   1.099  0.3614 -0.0844  0.0805
    1SOL     OW 1097   2.078   2.013   0.870  0.2896  0.1068  0.0874
    1SOL    HW2 1098   2.090   2.107   0.883 -0.5414  0.2567 -0.1996
    1SOL    HW3 1099   1.984   1.999   0.881  0.2287 -0.4897 -1.0952
    1SOL    MW4 1100   2.067   2.023   0.873  0.1719  0.0479 -0.1065
    1SOL     OW 1101   3.380   1.280   0.738  0.3518 -0.1619  0.2981
    1SOL    HW2 1102   3.464   1.241   0.762  0.2836 -0.3273  0.2687
    1SOL    HW3 1103   3.387   1.371   0.766  0.9987  0.1379 -0.8025
    1SOL    MW4 1104   3.392   1.287   0.745  0.4282 -0.1441  0.1490
    1SOL     OW 1105   3.618   1.667   0.701  0.2612 -0.1611  0.1577
    1SOL    HW2 1106   3.561   1.624   0.765  1.9046 -1.2460  0.9351
    1SOL    HW3 1107   3.614   1.610   0.625  0.1899 -0.1523  0.1544
    1SOL    MW4 1108   3.610   1.653   0.700  0.4687 -0.3029  0.2598
    1SOL     OW 1109   0.896   0.164   0.740 -0.2632  0.3519  0.1400
    1SOL    HW2 1110   0.891   0.148   0.646  0.1036 -1.3215  0.4005
    1SOL    HW3 1111   0.814   0.128   0.775  0.0619  0.0390  0.5875
    1SOL    MW4 1112   0.884   0.157   0.732 -0.1719  0.0898  0.2335
    1SOL     OW 1113   0.691   2.848   0.774 -0.1552 -0.1350  0.8641
    1SOL    HW2 1114   0.684   2.929   0.824  0.9370  0.6376 -0.1799
    1SOL    HW3 1115   0.652   2.869   0.689  0.0753 -0.7056  0.6101
    1SOL    MW4 1116   0.685   2.862   0.769  0.0193 -0.1082  0.6928
    1SOL     OW 1117   1.709   0.347   0.475 -0.5491 -0.0454 -0.2122
    1SOL    HW2 1118   1.804   0.352   0.459 -0.4498  1.2416  0.6566
    1SOL    HW3 1119   1.690   0.253   0.475  0.5810 -0.2892 -1.2205
    1SOL    MW4 1120   1.719   0.335   0.473 -0.3870  0.0922 -0.2306
    1SOL     OW 1121   0.449   3.237   0.735  0.1243  0.6020 -0.0790
    1SOL    HW2 1122   0.438   3.236   0.640 -0.8383  0.9620  0.0295
    1SOL    HW3 1123   0.368   3.201   0.770  0.3257  0.8137  0.6240
    1SOL    MW4 1124   0.437   3.232   0.727  0.0239  0.6776  0.0281
    1SOL     OW 1125   0.716   1.326   0.812  0.8187 -0.3246  0.0031
    1SOL    HW2 1126   0.715   1.330   0.716  1.2908 -1.3119 -0.0448
    1SOL    HW3 1127   0.691   1.414   0.839  0.5483 -0.0745 -1.0293
    1SOL    MW4 1128   0.713   1.338   0.803  0.8454 -0.4218 -0.1394
    1SOL     OW 1129   2.938   1.498   0.833 -0.0357  0.1198 -0.1936
    1SOL    HW2 1130   2.864   1.551   0.804  0.4561  1.1682  0.4350
    1SOL    HW3 1131   3.015   1.549   0.807  0.4398 -0.2625  0.4640
    1SOL    MW4 1132   2.939   1.512   0.826  0.0918  0.2078 -0.0239
    1SOL     OW 1133   4.468   1.755   0.754  0.0243  0.1676 -0.0154
    1SOL    HW2 1134   4.466   1.739   0.660 -1.0080  0.7770 -0.0997
    1SOL    HW3 1135   4.418   1.683   0.792 -0.4516  0.5068 -0.0080
    1SOL    MW4 1136   4.461   1.744   0.747 -0.1750  0.2927 -0.0256
    1SOL     OW 1137   1.323   4.008   0.490  0.3451  0.0378  0.0923
    1SOL    HW2 1138   1.329   4.048   0.577 -0.0437 -1.6319  0.9044
    1SOL    HW3 1139   1.413   4.006   0.458  0.3395  1.7988 -0.0829
    1SOL    MW4 1140   1.336   4.013   0.498  0.2930  0.0501  0.1763
    1SOL     OW 1141   0.852   2.238   0.537 -0.1011  0.0582  0.3106
    1SOL    HW2 1142   0.916   2.170   0.520  0.3452  0.6723 -0.4856
    1SOL    HW3 1143   0.771   2.207   0.496  0.3175  0.3814 -0.7722
    1SOL    MW4 1144   0.850   2.225   0.530  0.0130  0.1817  0.0628
    1SOL     OW 1145   2.906   4.427   0.456  0.2345 -0.3593 -0.2225
    1SOL    HW2 1146   2.898   4.436   0.551 -0.0627  0.6356 -0.3319
    1SOL    HW3 1147   2.823   4.459   0.422  0.6437  0.0499 -0.8579
    1SOL    MW4 1148   2.894   4.433   0.464  0.2491 -0.1736 -0.3208
    1SOL     OW 1149   0.610   2.774   0.517  0.0026  0.2915 -0.6258
    1SOL    HW2 1150   0.684   2.802   0.464  0.2406 -0.3059 -0.6129
    1SOL    HW3 1151   0.534   2.787   0.460  0.4483 -2.2151 -1.8651
    1SOL    MW4 1152   0.610   2.780   0.503  0.0927 -0.1180 -0.7876
    1SOL     OW 1153   3.935   2.655   0.457  0.0194  0.1881 -0.2504
    1SOL    HW2 1154   3.975   2.569   0.467 -1.2356 -0.4233 -0.4112
    1SOL    HW3 1155   3.972   2.708   0.527  0.9723 -0.4179 -0.2954
    1SOL    MW4 1156   3.945   2.651   0.467 -0.0205  0.0274 -0.2775
    1SOL     OW 1157   3.317   3.855   0.820  0.3255  0.1255 -0.1441
    1SOL    HW2 1158   3.348   3.769   0.793 -0.6240 -0.1682 -0.3340
    1SOL    HW3 1159   3.330   3.857   0.915 -0.2980 -0.4996 -0.0442
    1SOL    MW4 1160   3.323   3.844   0.829  0.1178  0.0045 -0.1559
    1SOL     OW 1161   3.599   2.471   0.732 -0.3828 -0.1454 -0.0619
    1SOL    HW2 1162   3.585   2.548   0.787 -1.0255 -0.0091 -0.4144
    1SOL    HW3 1163   3.525   2.414   0.752 -0.2854 -0.3637 -0.3257
    1SOL    MW4 1164   3.588   2.474   0.742 -0.4547 -0.1566 -0.1432
    1SOL     OW 1165   0.001   3.477   0.849 -0.2831 -0.1227  0.6807
    1SOL    HW2 1166   0.081   3.524   0.827  0.6967 -1.6244  0.9391
    1SOL    HW3 1167  -0.069   3.529   0.810  0.8673  0.8597 -0.1191
    1SOL    MW4 1168   0.003   3.490   0.841 -0.0019 -0.1912  0.6092
    1SOL     OW 1169   0.692   3.647   0.781 -0.1047 -0.0281 -0.0207
    1SOL    HW2 1170   0.610   3.601   0.802  0.3883 -1.0440 -0.3154
    1SOL    HW3 1171   0.683   3.671   0.689 -0.3351  0.4176  0.1160
    1SOL    MW4 1172   0.680   3.644   0.772 -0.0701 -0.1032 -0.0415
    1SOL     OW 1173   1.767   3.671   0.405  0.0114  0.2043 -0.1755
    1SOL    HW2 1174   1.857   3.651   0.432 -0.1983  0.5342  0.7849
    1SOL    HW3 1175   1.770   3.764   0.380  0.0518  0.0841 -0.6081
    1SOL    MW4 1176   1.779   3.681   0.405 -0.0110  0.2322 -0.1059
    1SOL     OW 1177   0.368   4.599   0.363  0.1847  0.6632  0.3963
    1SOL    HW2 1178   0.460   4.585   0.340 -0.3722 -0.2332 -1.3300
    1SOL    HW3 1179   0.332   4.512   0.376 -0.8661  0.9148 -0.7176
    1SOL    MW4 1180   0.376   4.586   0.362 -0.0274  0.5789  0.0215
    1SOL     OW 1181   0.420   4.283   0.849 -0.0740 -0.2353  0.4397
    1SOL    HW2 1182   0.406   4.286   0.944  0.1430 -2.6203  0.5982
    1SOL    HW3 1183   0.349   4.335   0.812  0.1503  1.1686  1.9349
    1SOL    MW4 1184   0.409   4.290   0.857 -0.0158 -0.3648  0.6579
    1SOL     OW 1185   0.652   4.406   0.738 -0.1628 -0.3418 -0.0408
    1SOL    HW2 1186   0.724   4.369   0.788  0.6250  1.8563  0.5417
    1SOL    HW3 1187   0.573   4.371   0.779  0.5381 -0.9744  0.7897
    1SOL    MW4 1188   0.651   4.397   0.750  0.0336 -0.1349  0.1456
    1SOL     OW 1189   2.253   1.260   0.208  0.5922  0.5519  0.1819
    1SOL    HW2 1190   2.302   1.243   0.289 -0.2396  1.1020  0.8028
    1SOL    HW3 1191   2.239   1.355   0.208  0.6831  0.5695 -0.6674
    1SOL    MW4 1192   2.258   1.270   0.218  0.4942  0.6268  0.1518
    1SOL     OW 1193   1.824   1.172   0.856 -0.2928 -0.1121 -0.4575
    1SOL    HW2 1194   1.758   1.225   0.811 -1.3462 -0.0371  1.1328
    1SOL    HW3 1195   1.907   1.214   0.834 -0.9032  0.7371 -1.2140
    1SOL    MW4 1196   1.826   1.185   0.847 -0.5125  0.0098 -0.3474
    1SOL     OW 1197   1.555   0.582   0.494  0.3445  0.4225 -0.7574
    1SOL    HW2 1198   1.618   0.655   0.497  1.4286 -0.5427  0.3033
    1SOL    HW3 1199   1.606   0.508   0.462 -0.2960 -0.3336 -0.0239
    1SOL    MW4 1200   1.570   0.582   0.490  0.4030  0.1954 -0.5207
    1SOL     OW 1201   1.101   0.765   0.813  0.0011 -0.2225  0.0177
    1SOL    HW2 1202   1.104   0.755   0.908  0.7599  0.5273  0.0806
    1SOL    HW3 1203   1.130   0.681   0.778 -1.8065 -1.0327  0.4280
    1SOL    MW4 1204   1.105   0.753   0.821 -0.1373 -0.2306  0.0802
    1SOL     OW 1205   3.831   0.485   0.732  0.1089 -0.1992 -0.2538
    1SOL    HW2 1206   3.795   0.471   0.645 -0.3544  0.8356 -0.2347
    1SOL    HW3 1207   3.827   0.579   0.745  1.7413 -0.1792  0.2245
    1SOL    MW4 1208   3.825   0.495   0.723  0.2632 -0.0601 -0.1882
    1SOL     OW 1209   1.744   0.881   0.026 -0.1361  0.1516  0.4386
    1SOL    HW2 1210   1.827   0.900   0.068  0.5576  0.5913 -1.0898
    1SOL    HW3 1211   1.767   0.821  -0.046 -1.0284  0.8166 -0.4161
    1SOL    MW4 1212   1.758   0.876   0.022 -0.1625  0.2973  0.1242
    1SOL     OW 1213   0.970   1.277   0.477  0.3511  0.2884  0.4645
    1SOL    HW2 1214   0.879   1.305   0.485  0.2722 -0.3152  1.9036
    1SOL    HW3 1215   0.965   1.185   0.449  0.5628  0.8891 -1.5918
    1SOL    MW4 1216   0.957   1.268   0.474  0.3687  0.2880  0.3831
    1SOL     OW 1217   0.707   0.811   0.828 -0.4136 -0.1102 -0.4197
    1SOL    HW2 1218   0.786   0.847   0.788  0.2197 -0.6933  0.2853
    1SOL    HW3 1219   0.716   0.716   0.819  0.0939 -0.3054  1.6938
    1SOL    MW4 1220   0.718   0.803   0.822 -0.2632 -0.2129 -0.0479
    1SOL     OW 1221   0.687   1.583   0.889 -0.3447 -0.2488  0.3414
    1SOL    HW2 1222   0.774   1.622   0.880  0.3303 -1.8036  0.0668
    1SOL    HW3 1223   0.676   1.570   0.983  0.1618 -1.0119  0.3019
    1SOL    MW4 1224   0.697   1.586   0.900 -0.1888 -0.5546  0.2999
    1SOL     OW 1225   3.837   2.134   0.702 -0.3796  0.3612 -0.5223
    1SOL    HW2 1226   3.857   2.160   0.612  0.1865 -0.3505 -0.6117
    1SOL    HW3 1227   3.915   2.085   0.730 -0.4627  0.7677  0.4258
    1SOL    MW4 1228   3.850   2.131   0.694 -0.3159  0.3207 -0.4090
    1SOL     OW 1229   1.302   2.431   0.500 -0.5670  0.4352  0.0856
    1SOL    HW2 1230   1.304   2.343   0.462 -0.6633  0.7956 -0.7699
    1SOL    HW3 1231   1.208   2.448   0.512 -0.4831 -0.2294  1.8067
    1SOL    MW4 1232   1.290   2.421   0.496 -0.5685  0.3948  0.1998
    1SOL     OW 1233   2.892   0.475   0.753 -0.2258  0.0498  0.1557
    1SOL    HW2 1234   2.889   0.570   0.767 -0.6555  0.0804 -0.1504
    1SOL    HW3 1235   2.979   0.449   0.785  0.2621  0.6888 -0.6521
    1SOL    MW4 1236   2.903   0.484   0.759 -0.2184  0.1381  0.0088
    1SOL     OW 1237   3.125   3.746   0.403 -0.2073 -0.8353 -0.2257
    1SOL    HW2 1238   3.219   3.729   0.402 -0.2653 -1.1854  0.2769
    1SOL    HW3 1239   3.086   3.664   0.430 -0.5435 -0.1723  1.3616
    1SOL    MW4 1240   3.133   3.733   0.406 -0.2594 -0.7942  0.0500
    1SOL     OW 1241   0.214   4.401   0.733 -0.0213  0.2097  0.5153
    1SOL    HW2 1242   0.196   4.492   0.754 -2.0159  0.4141 -1.8763
    1SOL    HW3 1243   0.137   4.353   0.763  0.5899 -0.5595  0.8801
    1SOL    MW4 1244   0.201   4.407   0.740 -0.2038  0.1354  0.2479
    1SOL     OW 1245   1.378   1.658   0.516  0.1905  0.0194 -0.0413
    1SOL    HW2 1246   1.356   1.573   0.477  0.4216 -0.4235  0.7807
    1SOL    HW3 1247   1.297   1.709   0.508  0.0444 -0.2766 -0.5274
    1SOL    MW4 1248   1.364   1.654   0.509  0.2016 -0.0781  0.0030
    1SOL     OW 1249   0.930   0.160   0.470  0.4084 -0.2930 -0.2440
    1SOL    HW2 1250   1.009   0.213   0.480 -0.1597  0.5686 -0.1605
    1SOL    HW3 1251   0.863   0.224   0.444 -0.3289 -0.9537  0.0260
    1SOL    MW4 1252   0.932   0.176   0.468  0.2361 -0.2665 -0.1974
    1SOL     OW 1253   0.251   2.577   0.397 -0.5363 -0.9030 -0.4243
    1SOL    HW2 1254   0.298   2.661   0.400 -0.4406 -0.9834  0.2543
    1SOL    HW3 1255   0.258   2.550   0.305 -0.2082 -0.3739 -0.5616
    1SOL    MW4 1256   0.258   2.585   0.385 -0.4804 -0.8440 -0.3529
    1SOL     OW 1257   1.233   2.772   0.284 -0.0649  0.2482  0.3987
    1SOL    HW2 1258   1.305   2.712   0.304  0.0727  0.3578  0.2312
    1SOL    HW3 1259   1.267   2.829   0.215 -0.8682 -0.7533 -0.8524
    1SOL    MW4 1260   1.247   2.772   0.278 -0.1526  0.1304  0.2116
    1SOL     OW 1261   2.546   1.438   0.409  0.4232  0.3253 -0.0791
    1SOL    HW2 1262   2.510   1.351   0.423 -1.6610  1.0802 -0.5587
    1SOL    HW3 1263   2.625   1.424   0.356 -0.0045 -1.2320 -0.3128
    1SOL    MW4 1264   2.552   1.425   0.404  0.0916  0.2192 -0.1732
    1SOL     OW 1265   2.443   4.259   0.441  0.0718 -0.2318  0.0785
    1SOL    HW2 1266   2.502   4.332   0.420  1.5528 -1.4676 -0.1433
    1SOL    HW3 1267   2.498   4.181   0.437 -1.2405 -1.2697  1.3976
    1SOL    MW4 1268   2.458   4.258   0.438  0.0942 -0.5317  0.2233
    1SOL     OW 1269   3.362   3.620   0.695  0.2560 -0.6609 -0.1406
    1SOL    HW2 1270   3.446   3.585   0.722 -0.0916 -1.0135  0.4855
    1SOL    HW3 1271   3.298   3.575   0.750 -0.4310 -1.2180 -1.3766
    1SOL    MW4 1272   3.364   3.610   0.706  0.1194 -0.7811 -0.2211
    1SOL     OW 1273   3.982   0.881   0.494 -0.2761 -0.0134 -0.3429
    1SOL    HW2 1274   4.023   0.800   0.463  1.4327  0.7893 -0.2540
    1SOL    HW3 1275   4.008   0.886   0.586 -0.2779  0.6783 -0.3789
    1SOL    MW4 1276   3.991   0.871   0.502 -0.0508  0.1838 -0.3359
    1SOL     OW 1277   1.102   4.429   0.776  0.2504  0.1963  0.2445
    1SOL    HW2 1278   1.077   4.433   0.684 -0.2019 -0.5351  0.3280
    1SOL    HW3 1279   1.094   4.519   0.807 -0.5372  0.2873 -0.1904
    1SOL    MW4 1280   1.098   4.441   0.768  0.0868  0.1116  0.1981
    1SOL     OW 1281   1.843   2.391   0.780  0.3147 -0.1180  0.5957
    1SOL    HW2 1282   1.858   2.486   0.786  1.0773 -0.1865 -0.0796
    1SOL    HW3 1283   1.749   2.380   0.796 -0.2727  1.0160 -1.8295
    1SOL    MW4 1284   1.832   2.402   0.783  0.3378  0.0226  0.1867
    1SOL     OW 1285   1.560   4.638   0.890  0.3489 -0.2035  0.0582
    1SOL    HW2 1286   1.576   4.645   0.984 -1.4376  1.6403  0.2574
    1SOL    HW3 1287   1.560   4.544   0.873 -0.9447 -0.6265  2.2189
    1SOL    MW4 1288   1.562   4.626   0.900 -0.0572 -0.0162  0.3695
    1SOL     OW 1289   1.085   0.011   0.872  0.0042 -0.0023  0.3956
    1SOL    HW2 1290   1.172   0.042   0.848  0.3134  0.2629  1.8514
    1SOL    HW3 1291   1.025   0.069   0.824  0.6149 -0.6024 -1.1244
    1SOL    MW4 1292   1.088   0.023   0.862  0.1255 -0.0467  0.3871
    1SOL     OW 1293   1.386   0.370   0.876  0.2380 -0.2575 -0.0314
    1SOL    HW2 1294   1.400   0.370   0.970 -0.1862 -0.5908  0.0336
    1SOL    HW3 1295   1.462   0.417   0.840  1.4590 -1.9475  0.3026
    1SOL    MW4 1296   1.398   0.376   0.884  0.3431 -0.5244  0.0213
    1SOL     OW 1297   1.601   0.512   0.762  0.3870 -0.2575  0.0981
    1SOL    HW2 1298   1.570   0.517   0.671 -1.3157 -0.8941  0.6402
    1SOL    HW3 1299   1.587   0.600   0.797 -1.0425 -0.5935  0.4028
    1SOL    MW4 1300   1.595   0.524   0.754 -0.0262 -0.3858  0.2098
    1SOL     OW 1301   3.240   1.867   0.448 -0.2473  0.1421  0.3176
    1SOL    HW2 1302   3.149   1.895   0.435 -0.2299 -0.1233 -0.4102
    1SOL    HW3 1303   3.291   1.948   0.446 -0.4596  0.2829  0.6433
    1SOL    MW4 1304   3.235   1.881   0.446 -0.2730  0.1255  0.2646
    1SOL     OW 1305   0.909   0.938   0.713 -0.5333 -0.1823 -0.0330
    1SOL    HW2 1306   0.939   0.971   0.628  0.4834 -0.1547  0.3278
    1SOL    HW3 1307   0.983   0.887   0.746 -0.4860  0.7336  1.3426
    1SOL    MW4 1308   0.923   0.936   0.706 -0.3930 -0.0579  0.1961
    1SOL     OW 1309   1.342   1.160   0.826 -0.3022  0.1095  0.1232
    1SOL    HW2 1310   1.336   1.184   0.919  0.6797  1.3312 -0.1209
    1SOL    HW3 1311   1.263   1.198   0.787 -0.1957  0.4800  0.2662
    1SOL    MW4 1312   1.330   1.168   0.833 -0.1585  0.3196  0.1099
    1SOL     OW 1313   3.386   2.042   0.722 -0.8638  0.0169  0.0554
    1SOL    HW2 1314   3.377   2.063   0.629 -1.5232 -0.1441  0.0786
    1SOL    HW3 1315   3.470   1.997   0.728 -1.1326 -0.5894 -0.5785
    1SOL    MW4 1316   3.396   2.039   0.710 -0.9863 -0.0844 -0.0252
    1SOL     OW 1317   0.893   3.620   0.212  0.1351  0.4964  0.4300
    1SOL    HW2 1318   0.877   3.703   0.259  0.2569  0.1390  1.1050
    1SOL    HW3 1319   0.978   3.591   0.244  0.3939  0.4431 -0.3090
    1SOL    MW4 1320   0.902   3.627   0.223  0.1853  0.4425  0.4215
    1SOL     OW 1321   3.503   0.876   0.432  0.0623  0.0644 -0.2629
    1SOL    HW2 1322   3.418   0.917   0.448  0.4446  0.9838 -0.5368
    1SOL    HW3 1323   3.554   0.945   0.389  0.1820 -1.2135 -2.2216
    1SOL    MW4 1324   3.498   0.891   0.428  0.1287  0.0171 -0.5575
    1SOL     OW 1325   1.945   1.477   0.380 -0.3499  0.1979 -0.1687
    1SOL    HW2 1326   1.903   1.547   0.430 -1.1401  0.0362 -0.6042
    1SOL    HW3 1327   1.873   1.432   0.335  0.3735  0.5211 -1.6904
    1SOL    MW4 1328   1.930   1.480   0.381 -0.3588  0.2193 -0.4269
    1SOL     OW 1329   3.378   2.114   0.446  0.2823  0.0543  0.5298
    1SOL    HW2 1330   3.334   2.182   0.395  0.0548 -0.3940  0.1310
    1SOL    HW3 1331   3.471   2.134   0.436  0.2013  0.5470  0.7472
    1SOL    MW4 1332   3.385   2.126   0.438  0.2413  0.0601  0.5059
    1SOL     OW 1333   3.619   3.852   0.477 -0.1369  0.2719  0.1665
    1SOL    HW2 1334   3.597   3.915   0.546 -0.2364  1.5320 -0.9851
    1SOL    HW3 1335   3.613   3.903   0.395  0.9381 -0.9325 -0.6882
    1SOL    MW4 1336   3.615   3.867   0.475 -0.0083  0.2792 -0.0982
    1SOL     OW 1337   1.132   3.639   0.743  0.3239 -0.0459 -0.4055
    1SOL    HW2 1338   1.203   3.593   0.788  1.0160  0.0743 -1.3661
    1SOL    HW3 1339   1.054   3.618   0.795  0.9002 -0.9590  0.1142
    1SOL    MW4 1340   1.131   3.630   0.756  0.4911 -0.1504 -0.4636
    1SOL     OW 1341   0.890   2.652   0.820 -0.2652  0.0823  0.2100
    1SOL    HW2 1342   0.883   2.659   0.915 -0.6284  0.9579  0.1190
    1SOL    HW3 1343   0.815   2.701   0.787 -0.5224 -0.8035 -0.5127
    1SOL    MW4 1344   0.880   2.659   0.828 -0.3471  0.0808  0.1027
    1SOL     OW 1345   1.593   2.797   0.735  0.2606  0.1476 -0.1935
    1SOL    HW2 1346   1.597   2.883   0.776 -0.4344  0.3071 -0.4400
    1SOL    HW3 1347   1.507   2.763   0.761  0.5293 -0.4682 -0.1014
    1SOL    MW4 1348   1.582   2.804   0.744  0.2044  0.0873 -0.2138
    1SOL     OW 1349   3.306   0.002   0.346  0.1314  1.0756  0.4340
    1SOL    HW2 1350   3.294  -0.014   0.252  1.1092 -0.8222  0.6163
    1SOL    HW3 1351   3.217   0.018   0.378 -0.6840 -1.6896 -0.2378
    1SOL    MW4 1352   3.292   0.002   0.338  0.1531  0.4606  0.3694
    1SOL     OW 1353   3.992   4.249   0.414 -0.3040 -0.1807 -0.5167
    1SOL    HW2 1354   4.067   4.309   0.410  0.1103 -0.7221 -0.9077
    1SOL    HW3 1355   4.030   4.162   0.404 -0.9347 -0.4929 -0.1987
    1SOL    MW4 1356   4.007   4.245   0.412 -0.3324 -0.2933 -0.5264
    1SOL     OW 1357   1.087   3.903   0.835 -0.0416  0.0854 -0.3857
    1SOL    HW2 1358   1.101   3.814   0.803 -1.6940 -0.0393 -0.8081
    1SOL    HW3 1359   1.074   3.893   0.930 -0.9905 -0.2218 -0.5414
    1SOL    MW4 1360   1.087   3.890   0.843 -0.3849  0.0284 -0.4620
    1SOL     OW 1361   4.061   4.286   0.847 -0.0475 -0.1296 -0.4593
    1SOL    HW2 1362   3.981   4.323   0.810  0.1518  2.3475  1.4687
    1SOL    HW3 1363   4.131   4.324   0.794  0.0062 -0.1118 -0.3750
    1SOL    MW4 1364   4.060   4.296   0.835 -0.0148  0.1993 -0.1938
    1SOL     OW 1365   2.267   3.205   0.805 -0.2508 -0.0291 -0.2273
    1SOL    HW2 1366   2.187   3.155   0.822 -0.3970  0.7857  1.6147
    1SOL    HW3 1367   2.338   3.146   0.832 -0.2610 -0.3869 -0.9595
    1SOL    MW4 1368   2.266   3.190   0.811 -0.2716  0.0315 -0.0809
    1SOL     OW 1369   2.338   1.702   0.709  0.3765 -0.1036 -0.2421
    1SOL    HW2 1370   2.402   1.636   0.735 -0.0147  0.2217  1.5956
    1SOL    HW3 1371   2.377   1.785   0.735 -1.0294  0.0530  1.4371
    1SOL    MW4 1372   2.351   1.704   0.715  0.1392 -0.0399  0.2220
    1SOL     OW 1373   1.962   4.356   0.716  0.1705  0.0009  0.2895
    1SOL    HW2 1374   1.950   4.320   0.629  1.7018 -0.8002  0.3891
    1SOL    HW3 1375   1.895   4.314   0.770  0.4853 -0.9713 -0.0819
    1SOL    MW4 1376   1.952   4.346   0.712  0.4141 -0.2337  0.2537
    1SOL     OW 1377   2.106   3.882   0.420  0.3897  0.0634 -0.0185
    1SOL    HW2 1378   2.085   3.794   0.451  1.1274  0.2860  1.1261
    1SOL    HW3 1379   2.022   3.918   0.392  0.3104 -1.5687 -2.0228
    1SOL    MW4 1380   2.092   3.875   0.420  0.4768 -0.1225 -0.1320
    1SOL     OW 1381   2.397   4.605   0.834 -0.6284 -0.1220  0.1315
    1SOL    HW2 1382   2.400   4.611   0.930 -3.4633  2.4809  0.1175
    1SOL    HW3 1383   2.397   4.511   0.816  0.3742 -0.6509  2.6521
    1SOL    MW4 1384   2.398   4.593   0.844 -0.8700  0.1516  0.4622
    1SOL     OW 1385   1.722   3.197   0.497  0.1274  0.0658  0.1572
    1SOL    HW2 1386   1.807   3.153   0.508 -0.5626 -1.1311  0.7246
    1SOL    HW3 1387   1.665   3.131   0.458 -0.2095  1.2573 -1.4145
    1SOL    MW4 1388   1.726   3.182   0.494 -0.0081  0.0653  0.0246
    1SOL     OW 1389   1.841   0.351   0.799  0.2585 -0.1742 -0.3296
    1SOL    HW2 1390   1.768   0.397   0.756  1.7704  0.9441 -1.8096
    1SOL    HW3 1391   1.831   0.260   0.770 -0.4764 -0.0131 -0.6268
    1SOL    MW4 1392   1.830   0.345   0.789  0.3610 -0.0054 -0.5641
    1SOL     OW 1393   3.573   4.241   0.444  0.4130 -0.1240  0.4802
    1SOL    HW2 1394   3.495   4.288   0.413 -0.5009 -0.6609  1.9120
    1SOL    HW3 1395   3.574   4.257   0.539  0.1938 -2.7921  0.9743
    1SOL    MW4 1396   3.563   4.249   0.453  0.2635 -0.5474  0.7344
    1SOL     OW 1397   3.323   4.004   0.439  0.2278  0.5507 -0.1512
    1SOL    HW2 1398   3.397   3.992   0.379 -0.3434 -0.5564 -0.6486
    1SOL    HW3 1399   3.365   4.018   0.525  1.0241  0.6561 -0.5481
    1SOL    MW4 1400   3.338   4.004   0.443  0.2575  0.4182 -0.2692
    1SOL     OW 1401   1.559   3.058   0.848  0.3966 -0.2557  0.3066
    1SOL    HW2 1402   1.535   3.053   0.941 -1.0367 -0.3250 -0.0508
    1SOL    HW3 1403   1.493   3.117   0.810  0.0317 -1.4520 -0.9550
    1SOL    MW4 1404   1.547   3.065   0.855  0.1594 -0.4227  0.0930
    1SOL     OW 1405   3.388   3.688   0.442 -0.1590 -0.1722  0.1522
    1SOL    HW2 1406   3.456   3.753   0.457 -1.9420  1.8062 -0.0896
    1SOL    HW3 1407   3.372   3.649   0.528  1.5693 -0.9719  0.1230
    1SOL    MW4 1408   3.395   3.692   0.456 -0.1662 -0.0167  0.1164
    1SOL     OW 1409   1.312   3.140   0.509  0.5992  0.0025 -0.0993
    1SOL    HW2 1410   1.386   3.087   0.480  0.2836 -0.4372 -0.1056
    1SOL    HW3 1411   1.278   3.180   0.429 -0.3741 -1.3417 -0.3705
    1SOL    MW4 1412   1.317   3.138   0.495  0.4292 -0.2332 -0.1359
    1SOL     OW 1413   2.504   1.505   0.832  0.4268 -0.3222  0.4850
    1SOL    HW2 1414   2.487   1.419   0.793 -0.4391  0.5202 -1.0427
    1SOL    HW3 1415   2.591   1.530   0.800  0.2841 -0.2250  0.1699
    1SOL    MW4 1416   2.513   1.497   0.823  0.2937 -0.1984  0.2418
    1SOL     OW 1417   4.033   4.022   0.720  0.3465 -0.5450  0.1076
    1SOL    HW2 1418   4.067   4.031   0.631 -2.4062  1.0527 -0.8161
    1SOL    HW3 1419   4.051   4.106   0.761 -1.2733 -0.1416  0.0179
    1SOL    MW4 1420   4.040   4.034   0.714 -0.2308 -0.2809 -0.0261
    1SOL     OW 1421   1.441   2.607   0.336  0.4310 -0.0892 -0.0916
    1SOL    HW2 1422   1.390   2.549   0.393  2.4616 -1.0168  0.8264
    1SOL    HW3 1423   1.472   2.549   0.266  0.1636  0.4744 -0.6722
    1SOL    MW4 1424   1.438   2.592   0.334  0.6635 -0.1373 -0.0471
    1SOL     OW 1425   4.379   2.074   0.520  0.3179  0.4688 -0.4230
    1SOL    HW2 1426   4.330   1.992   0.510  1.9783 -0.6417  0.2617
    1SOL    HW3 1427   4.356   2.105   0.607 -0.7317  1.0321 -0.8907
    1SOL    MW4 1428   4.369   2.067   0.530  0.3986  0.3965 -0.3944
    1SOL     OW 1429   1.521   2.092   0.527 -0.1657 -0.1799  0.0123
    1SOL    HW2 1430   1.579   2.157   0.489  0.7554 -0.8257  0.2912
    1SOL    HW3 1431   1.556   2.008   0.498 -1.1870 -0.5676 -0.1261
    1SOL    MW4 1432   1.533   2.089   0.518 -0.1791 -0.3161  0.0308
    1SOL     OW 1433   3.625   1.147   0.836 -0.4143 -0.3350 -0.3189
    1SOL    HW2 1434   3.602   1.063   0.796  2.9110 -1.3478 -0.2753
    1SOL    HW3 1435   3.624   1.129   0.930 -3.2216  0.6848 -0.1122
    1SOL    MW4 1436   3.621   1.134   0.843 -0.3459 -0.3340 -0.2859
    1SOL     OW 1437   1.111   4.201   0.392 -0.5335  0.1917 -0.1012
    1SOL    HW2 1438   1.019   4.176   0.402 -0.4618 -0.1700 -0.3441
    1SOL    HW3 1439   1.160   4.120   0.402 -0.2368  0.3912  0.0713
    1SOL    MW4 1440   1.105   4.187   0.395 -0.4847  0.1707 -0.1105
    1SOL     OW 1441   1.113   2.067   0.783  0.5957  0.2812 -0.0713
    1SOL    HW2 1442   1.034   2.026   0.819  0.1733  0.5834 -0.6393
    1SOL    HW3 1443   1.185   2.030   0.834  0.1257 -0.3659  0.1286
    1SOL    MW4 1444   1.112   2.057   0.795  0.4779  0.2356 -0.1199
    1SOL     OW 1445   3.372   0.504   0.494  0.7688  0.3751  0.0472
    1SOL    HW2 1446   3.380   0.409   0.484  2.6711  0.4022  1.1133
    1SOL    HW3 1447   3.289   0.525   0.451  0.8602 -1.6104 -1.1954
    1SOL    MW4 1448   3.362   0.494   0.487  1.0319  0.1167  0.0239
    1SOL     OW 1449   3.235   2.853   0.456 -0.8774 -0.0610 -0.4671
    1SOL    HW2 1450   3.236   2.764   0.420 -1.0205 -0.4456  0.4583
    1SOL    HW3 1451   3.261   2.842   0.547 -1.3783  0.7898 -0.2156
    1SOL    MW4 1452   3.238   2.839   0.463 -0.9625  0.0007 -0.3118
    1SOL     OW 1453   1.755   3.491   0.837 -0.7646 -0.2761 -0.1761
    1SOL    HW2 1454   1.755   3.481   0.932  0.9246 -0.2484 -0.1684
    1SOL    HW3 1455   1.739   3.403   0.804 -1.0973 -0.3300  0.1196
    1SOL    MW4 1456   1.753   3.478   0.845 -0.5856 -0.2797 -0.1361
    1SOL     OW 1457   0.119   2.930   0.480 -0.3453  0.0236  0.0257
    1SOL    HW2 1458   0.149   2.890   0.562  0.0485  0.8343  0.2825
    1SOL    HW3 1459   0.043   2.878   0.455 -0.1236 -0.5943  0.6005
    1SOL    MW4 1460   0.113   2.918   0.487 -0.2641  0.0489  0.1354
    1SOL     OW 1461   2.212   1.537   0.282  0.3222 -0.9901 -0.1077
    1SOL    HW2 1462   2.133   1.518   0.333  0.0334 -0.6789 -0.4324
    1SOL    HW3 1463   2.276   1.568   0.346 -0.9135  2.0612 -0.2925
    1SOL    MW4 1464   2.210   1.538   0.297  0.1211 -0.5466 -0.1749
    1SOL     OW 1465   0.942   0.419   0.814 -0.1811  0.3697 -0.2271
    1SOL    HW2 1466   0.922   0.335   0.773 -0.3259  0.8731 -1.2109
    1SOL    HW3 1467   0.929   0.404   0.908 -0.0944 -0.7306 -0.3866
    1SOL    MW4 1468   0.937   0.406   0.821 -0.1888  0.2909 -0.3780
    1SOL     OW 1469   4.424   4.022   0.443 -0.1581  0.1539 -0.0117
    1SOL    HW2 1470   4.461   4.029   0.531 -2.3781  0.7849  0.8966
    1SOL    HW3 1471   4.428   3.928   0.423 -0.6411 -0.1437  1.2160
    1SOL    MW4 1472   4.429   4.010   0.452 -0.5150  0.1984  0.2701
    1SOL     OW 1473   1.650   0.058   0.499  0.5856  0.0965 -0.3703
    1SOL    HW2 1474   1.702   0.061   0.579  0.6280  1.3557 -0.4361
    1SOL    HW3 1475   1.672  -0.026   0.459  0.2668 -0.7078  1.1308
    1SOL    MW4 1476   1.660   0.048   0.504  0.5492  0.1564 -0.1809
    1SOL     OW 1477   0.357   2.182   0.347 -0.3186 -0.2287 -0.0077
    1SOL    HW2 1478   0.280   2.138   0.385 -0.0855  0.3856  1.2009
    1SOL    HW3 1479   0.355   2.158   0.255  0.0584 -3.1661  0.6992
    1SOL    MW4 1480   0.346   2.173   0.340 -0.2381 -0.5350  0.2451
    1SOL     OW 1481   2.212   0.343   1.148  0.1569 -0.5191 -0.2155
    1SOL    HW2 1482   2.215   0.339   1.052 -0.0572  0.4219 -0.2715
    1SOL    HW3 1483   2.132   0.393   1.167 -0.6148 -1.9840  0.5038
    1SOL    MW4 1484   2.202   0.349   1.138  0.0267 -0.5882 -0.1279
    1SOL     OW 1485   4.277   0.567   0.751 -0.0646  0.1829 -0.2640
    1SOL    HW2 1486   4.278   0.565   0.655 -1.4862  0.6185 -0.3089
    1SOL    HW3 1487   4.357   0.521   0.777  1.2806  1.6752 -1.6612
    1SOL    MW4 1488   4.287   0.561   0.742 -0.0749  0.4373 -0.4543
    1SOL     OW 1489   2.356   0.512   0.488 -0.0968 -0.2567  0.5537
    1SOL    HW2 1490   2.363   0.512   0.583 -0.3006  0.3793  0.5743
    1SOL    HW3 1491   2.442   0.542   0.457 -0.5663  1.1849  0.5984
    1SOL    MW4 1492   2.368   0.516   0.496 -0.1855  0.0174  0.5623
    1SOL     OW 1493   2.967   1.519   0.367 -0.1189  0.7055 -0.9533
    1SOL    HW2 1494   2.899   1.497   0.303 -1.0986  0.5465  0.1312
    1SOL    HW3 1495   2.977   1.440   0.420  0.5788  0.8888 -0.7963
    1SOL    MW4 1496   2.960   1.505   0.365 -0.1564  0.7087 -0.7895
    1SOL     OW 1497   2.483   1.228   0.734  0.2130  0.0415  0.5402
    1SOL    HW2 1498   2.445   1.229   0.646  0.2794  0.9208  0.5154
    1SOL    HW3 1499   2.413   1.192   0.789  0.6861 -1.8989 -0.0843
    1SOL    MW4 1500   2.469   1.224   0.730  0.2842 -0.0985  0.4545
    1SOL     OW 1501   2.259   1.113   0.870  0.3009 -0.0747  0.5313
    1SOL    HW2 1502   2.249   1.018   0.857  1.7577 -0.0104 -1.3537
    1SOL    HW3 1503   2.242   1.127   0.963 -0.2976 -2.1295  0.7565
    1SOL    MW4 1504   2.255   1.102   0.880  0.4144 -0.3372  0.3123
    1SOL     OW 1505   1.642   1.527   0.853 -0.0893  0.0008 -0.0898
    1SOL    HW2 1506   1.618   1.518   0.946 -1.3368 -0.3758 -0.4462
    1SOL    HW3 1507   1.645   1.437   0.820  1.4391  0.0663 -0.1532
    1SOL    MW4 1508   1.639   1.514   0.861 -0.0521 -0.0403 -0.1451
    1SOL     OW 1509   3.123   0.932   0.697  0.0175 -0.0364  0.2630
    1SOL    HW2 1510   3.197   0.887   0.739  0.9625  0.1235 -1.1689
    1SOL    HW3 1511   3.105   1.006   0.754  0.5347 -0.4615  0.9900
    1SOL    MW4 1512   3.131   0.936   0.710  0.2105 -0.0713  0.1701
    1SOL     OW 1513   1.276   0.633   0.474 -0.2152 -0.0560 -0.1425
    1SOL    HW2 1514   1.252   0.576   0.547 -0.5906 -1.6575 -1.4792
    1SOL    HW3 1515   1.369   0.615   0.458 -0.1065  0.3662  0.0149
    1SOL    MW4 1516   1.285   0.623   0.481 -0.2502 -0.2115 -0.2981
    1SOL     OW 1517   2.185   2.013   0.620  0.1103  0.1132  0.0406
    1SOL    HW2 1518   2.145   2.027   0.706  0.4070  1.5238 -0.0278
    1SOL    HW3 1519   2.275   1.986   0.641  0.9252  2.7802  0.2090
    1SOL    MW4 1520   2.192   2.012   0.634  0.2570  0.6509  0.0538
    1SOL     OW 1521   2.117   3.338   0.421 -0.4347  0.1034 -0.1713
    1SOL    HW2 1522   2.079   3.255   0.448 -0.5231 -0.1355 -0.9942
    1SOL    HW3 1523   2.202   3.341   0.463  0.6099 -1.5530 -2.0634
    1SOL    MW4 1524   2.123   3.327   0.430 -0.3085 -0.1464 -0.5295
    1SOL     OW 1525   3.442   2.992   0.321 -0.1309  0.4548 -1.0303
    1SOL    HW2 1526   3.496   2.933   0.269  1.0547 -0.5301  1.2373
    1SOL    HW3 1527   3.374   2.935   0.358 -2.6174  1.6142 -3.5773
    1SOL    MW4 1528   3.440   2.977   0.319 -0.3023  0.4778 -1.0672
    1SOL     OW 1529   2.243   2.421   0.820 -0.3762  0.2560 -0.1197
    1SOL    HW2 1530   2.173   2.361   0.846  0.0856  0.0768  0.7302
    1SOL    HW3 1531   2.217   2.505   0.856  1.3557 -0.4464  2.9004
    1SOL    MW4 1532   2.231   2.424   0.828 -0.0873  0.1397  0.3909
    1SOL     OW 1533   2.202   2.683   0.911 -0.2013  0.1391  0.1608
    1SOL    HW2 1534   2.220   2.696   1.004  0.4448  1.5834 -0.1501
    1SOL    HW3 1535   2.285   2.704   0.867 -0.1680 -1.6332 -0.6717
    1SOL    MW4 1536   2.215   2.687   0.918 -0.1116  0.0958  0.0099
    1SOL     OW 1537   1.599   4.265   0.203  0.1003 -0.4002  0.0705
    1SOL    HW2 1538   1.505   4.282   0.198  0.0015 -0.0099  2.7785
    1SOL    HW3 1539   1.634   4.306   0.124 -1.6372  2.0778  0.5206
    1SOL    MW4 1540   1.591   4.272   0.192 -0.1421 -0.0219  0.4872
    1SOL     OW 1541   1.758   4.235   0.875  0.3474 -0.1586 -0.0278
    1SOL    HW2 1542   1.773   4.229   0.969 -0.2122  0.6126  0.1181
    1SOL    HW3 1543   1.782   4.149   0.841  0.1259 -0.5862  0.8853
    1SOL    MW4 1544   1.763   4.223   0.883  0.2444 -0.1135  0.1119
    1SOL     OW 1545   2.507   3.146   0.385  0.8629  0.1564  0.2255
    1SOL    HW2 1546   2.516   3.160   0.291  0.9702  0.6638  0.3075
    1SOL    HW3 1547   2.462   3.063   0.393 -0.1440  0.6473 -0.2909
    1SOL    MW4 1548   2.502   3.137   0.374  0.7446  0.2880  0.1682
    1SOL     OW 1549   2.966   2.599   0.370  0.2876 -0.3657 -0.3695
    1SOL    HW2 1550   3.058   2.578   0.357 -0.0696 -0.7337 -2.4210
    1SOL    HW3 1551   2.922   2.515   0.378 -0.1771 -0.2444 -1.6173
    1SOL    MW4 1552   2.973   2.585   0.369  0.1791 -0.3984 -0.8048
    1SOL     OW 1553   1.004   3.281   0.143  0.3253 -0.6175  0.1844
    1SOL    HW2 1554   0.939   3.341   0.106  1.4086  0.2019 -0.4452
    1SOL    HW3 1555   0.977   3.195   0.113 -0.5638 -0.3085  0.0744
    1SOL    MW4 1556   0.992   3.278   0.134  0.3510 -0.4685  0.0868
    1SOL     OW 1557   1.813   3.995   0.718  0.3243 -0.3536  0.2799
    1SOL    HW2 1558   1.874   3.946   0.773  0.3270 -1.9306 -1.0942
    1SOL    HW3 1559   1.726   3.969   0.749  0.3140  0.5966  1.1012
    1SOL    MW4 1560   1.810   3.985   0.729  0.3233 -0.4363  0.2069
    1SOL     OW 1561   3.127   3.976   0.686  0.2512  0.5197 -0.5970
    1SOL    HW2 1562   3.049   3.932   0.718  0.3947  0.3515 -0.4798
    1SOL    HW3 1563   3.200   3.931   0.729  0.4660  0.0081 -1.4776
    1SOL    MW4 1564   3.127   3.964   0.696  0.2983  0.4301 -0.6977
    1SOL     OW 1565   2.156   2.237   0.447 -0.2183  0.5039 -0.2457
    1SOL    HW2 1566   2.220   2.300   0.482 -1.5746  0.9884  1.4518
    1SOL    HW3 1567   2.155   2.166   0.511 -2.4219  1.1952  0.5508
    1SOL    MW4 1568   2.164   2.236   0.460 -0.6878  0.6588  0.0834
    1SOL     OW 1569   2.360   1.219   0.474  0.5715 -0.1374 -0.5163
    1SOL    HW2 1570   2.276   1.240   0.514  1.3533  1.5384  0.2896
    1SOL    HW3 1571   2.355   1.125   0.455 -1.8592  0.1378 -1.4129
    1SOL    MW4 1572   2.348   1.209   0.477  0.3538  0.1200 -0.5283
    1SOL     OW 1573   2.908   0.763   0.806  0.2054 -0.1610 -0.2918
    1SOL    HW2 1574   2.895   0.773   0.901 -1.8759  1.6679 -0.7478
    1SOL    HW3 1575   2.977   0.826   0.785  1.4426 -1.3358  0.1532
    1SOL    MW4 1576   2.916   0.773   0.816  0.0942 -0.0747 -0.2933
    1SOL     OW 1577   2.860   3.923   0.433  0.2504  0.5726  0.1388
    1SOL    HW2 1578   2.854   3.851   0.371  2.1836  2.1623 -1.9953
    1SOL    HW3 1579   2.772   3.932   0.469 -0.0776 -2.6334  0.2589
    1SOL    MW4 1580   2.848   3.915   0.429  0.4621  0.3595 -0.1269
    1SOL     OW 1581   2.483   0.732   0.840 -0.2217 -0.4348  0.6406
    1SOL    HW2 1582   2.545   0.787   0.792  0.0567 -0.8621  0.5110
    1SOL    HW3 1583   2.479   0.651   0.790 -0.1408 -0.7795  1.1914
    1SOL    MW4 1584   2.491   0.729   0.827 -0.1743 -0.5366  0.6962
    1SOL     OW 1585   1.898   1.068   0.405  0.1122  0.2334 -0.0452
    1SOL    HW2 1586   1.876   1.000   0.468 -0.0533 -0.4840 -0.8820
    1SOL    HW3 1587   1.911   1.022   0.323 -0.7164  1.2928 -0.7808
    1SOL    MW4 1588   1.897   1.053   0.403 -0.0191  0.2786 -0.2526
    1SOL     OW 1589   2.859   1.010   0.339 -0.0734 -0.4360  0.3171
    1SOL    HW2 1590   2.887   1.093   0.378  0.6562 -0.2243 -0.6557
    1SOL    HW3 1591   2.940   0.968   0.312 -0.3386 -1.9991  1.8233
    1SOL    MW4 1592   2.873   1.016   0.341 -0.0124 -0.6143  0.3875
    1SOL     OW 1593   0.947   2.702   0.348  0.1580 -0.2749 -0.2173
    1SOL    HW2 1594   0.907   2.789   0.343  1.7745  0.6860  2.6256
    1SOL    HW3 1595   1.029   2.710   0.300  0.3265 -0.2034  0.0799
    1SOL    MW4 1596   0.952   2.714   0.341  0.3935 -0.1385  0.1971
    1SOL     OW 1597   3.249   2.571   0.394  0.1198  0.3069 -0.4324
    1SOL    HW2 1598   3.208   2.535   0.472 -3.0092  0.3779 -1.9788
    1SOL    HW3 1599   3.341   2.546   0.401 -0.5542 -1.5946  2.1421
    1SOL    MW4 1600   3.256   2.563   0.405 -0.3819  0.0658 -0.2968
    1SOL     OW 1601   2.741   1.655   0.735 -0.1079 -0.3140  0.2623
    1SOL    HW2 1602   2.757   1.678   0.643  0.4658 -0.3274  0.3554
    1SOL    HW3 1603   2.728   1.739   0.779  2.5990 -0.0762  0.7165
    1SOL    MW4 1604   2.741   1.669   0.729  0.3247 -0.2844  0.3345
    1SOL     OW 1605   3.157   1.616   0.712 -0.6349 -0.0620 -0.0535
    1SOL    HW2 1606   3.156   1.591   0.620  0.2310 -1.1126  0.2159
    1SOL    HW3 1607   3.191   1.705   0.713  0.6513 -0.5398 -0.6394
    1SOL    MW4 1608   3.161   1.624   0.700 -0.3507 -0.2636 -0.0952
    1SOL     OW 1609   0.049   0.267   0.580 -0.1571  0.0650 -0.3834
    1SOL    HW2 1610  -0.039   0.252   0.547  0.2868 -2.1255 -0.6266
    1SOL    HW3 1611   0.037   0.327   0.654 -1.7248  0.6491 -1.0954
    1SOL    MW4 1612   0.036   0.273   0.586 -0.3054 -0.1470 -0.5094
    1SOL     OW 1613   1.921   2.667   0.438 -0.1843  0.2683  0.4083
    1SOL    HW2 1614   1.904   2.578   0.469 -0.6875 -0.1198 -0.9434
    1SOL    HW3 1615   1.837   2.712   0.449  0.0325  0.5452  0.9586
    1SOL    MW4 1616   1.907   2.661   0.443 -0.2222  0.2534  0.3026
    1SOL     OW 1617   2.670   1.121   0.902  0.0988  0.0593  0.7299
    1SOL    HW2 1618   2.758   1.147   0.875  0.0823 -0.3490  0.2719
    1SOL    HW3 1619   2.613   1.152   0.832  0.0323 -0.8370  0.3856
    1SOL    MW4 1620   2.675   1.128   0.889  0.0875 -0.1129  0.6241
    1SOL     OW 1621   2.906   2.298   0.673  0.1593 -0.0423  0.1898
    1SOL    HW2 1622   2.840   2.322   0.738 -0.6691  0.6272 -0.8749
    1SOL    HW3 1623   2.933   2.210   0.698 -1.4332 -0.4905  0.4151
    1SOL    MW4 1624   2.901   2.290   0.685 -0.1600 -0.0131  0.0791
    1SOL     OW 1625   2.728   2.327   0.874  0.0442 -0.0895  0.0447
    1SOL    HW2 1626   2.777   2.296   0.950  1.7606  0.3454 -0.8617
    1SOL    HW3 1627   2.719   2.421   0.889 -1.2571 -0.3031  0.6191
    1SOL    MW4 1628   2.733   2.335   0.886  0.0989 -0.0603  0.0008
    1SOL     OW 1629   2.688   2.597   0.886 -0.4321 -0.2314  0.0307
    1SOL    HW2 1630   2.758   2.653   0.850 -1.1904  0.1579 -0.8617
    1SOL    HW3 1631   2.692   2.613   0.981  0.3829  0.1462 -0.0547
    1SOL    MW4 1632   2.698   2.607   0.894 -0.4246 -0.1299 -0.0983
    1SOL     OW 1633   1.113   1.313   0.717  0.2125  0.0358  0.0305
    1SOL    HW2 1634   1.045   1.269   0.767 -0.1031  2.0143  1.4006
    1SOL    HW3 1635   1.081   1.313   0.627 -1.0170 -0.1394  0.4635
    1SOL    MW4 1636   1.100   1.307   0.712  0.0087  0.2737  0.2684
    1SOL     OW 1637   1.521   1.226   0.455  0.3801 -0.3110  0.4450
    1SOL    HW2 1638   1.585   1.240   0.385 -0.1638  0.0050  0.0081
    1SOL    HW3 1639   1.509   1.131   0.457  0.5024 -0.3333  0.2020
    1SOL    MW4 1640   1.528   1.215   0.446  0.3246 -0.2724  0.3553
    1SOL     OW 1641   2.493   3.040   0.880  0.4162  0.1998 -0.0516
    1SOL    HW2 1642   2.569   3.079   0.839  1.0012  0.1214  0.9388
    1SOL    HW3 1643   2.510   3.048   0.974  0.4006 -2.1472  0.1771
    1SOL    MW4 1644   2.505   3.046   0.887  0.4916 -0.1204  0.1093
    1SOL     OW 1645   2.721   3.443   0.840 -0.1645  0.7679  0.2237
    1SOL    HW2 1646   2.795   3.485   0.797 -0.2284  1.1563  0.4938
    1SOL    HW3 1647   2.736   3.457   0.934  0.0805 -0.2559  0.3452
    1SOL    MW4 1648   2.733   3.450   0.847 -0.1407  0.6840  0.2753
    1SOL     OW 1649   2.953   3.571   0.759  0.2273  0.3178  0.1290
    1SOL    HW2 1650   3.038   3.560   0.802  1.6746  1.1461 -2.3719
    1SOL    HW3 1651   2.943   3.666   0.750 -0.2905  0.1819 -0.8337
    1SOL    MW4 1652   2.963   3.582   0.764  0.3500  0.4094 -0.3280
    1SOL     OW 1653   2.834   2.797   0.519 -0.5579  0.5609 -0.3430
    1SOL    HW2 1654   2.744   2.768   0.533 -0.6325  1.2286  0.5808
    1SOL    HW3 1655   2.873   2.728   0.464 -1.2081 -0.4742  0.4673
    1SOL    MW4 1656   2.828   2.784   0.513 -0.6535  0.5124 -0.1142
    1SOL     OW 1657   0.645   4.564   0.330  0.9151  0.3463 -0.1269
    1SOL    HW2 1658   0.739   4.549   0.318  0.9248  0.7861 -0.6084
    1SOL    HW3 1659   0.639   4.655   0.359  0.8586 -0.5245  2.7733
    1SOL    MW4 1660   0.657   4.574   0.332  0.9089  0.2894  0.1923
    1SOL     OW 1661   2.658   3.988   0.739 -0.0307 -0.2929  0.4774
    1SOL    HW2 1662   2.663   4.077   0.774 -0.7044  0.4172 -1.1986
    1SOL    HW3 1663   2.596   3.944   0.796 -0.9188  0.7778  0.3593
    1SOL    MW4 1664   2.651   3.994   0.751 -0.2367 -0.0579  0.2407
    1SOL     OW 1665   2.897   1.229   0.751 -0.2639  0.1479 -0.2919
    1SOL    HW2 1666   2.882   1.319   0.779 -0.4161 -0.1520  0.6227
    1SOL    HW3 1667   2.984   1.207   0.783 -0.1042  0.0690 -0.7749
    1SOL    MW4 1668   2.906   1.238   0.759 -0.2630  0.0980 -0.2350
    1SOL     OW 1669   2.064   0.512   0.711  0.1720  0.3642  0.0794
    1SOL    HW2 1670   1.991   0.460   0.744 -0.4204  0.7499 -0.5939
    1SOL    HW3 1671   2.057   0.595   0.759  1.5422 -0.4112  1.6738
    1SOL    MW4 1672   2.054   0.516   0.722  0.2744  0.3128  0.2009
    1SOL     OW 1673   2.660   0.868   0.475  0.1061  0.0406 -0.2817
    1SOL    HW2 1674   2.668   0.891   0.568  0.4679  1.1517 -0.5844
    1SOL    HW3 1675   2.727   0.921   0.432 -0.2097 -0.3175 -1.2087
    1SOL    MW4 1676   2.670   0.878   0.482  0.1123  0.1400 -0.4439
    1SOL     OW 1677   1.037   2.037   0.507 -0.2289  0.3442  0.1777
    1SOL    HW2 1678   1.099   2.075   0.445 -0.8238 -0.8668 -1.1843
    1SOL    HW3 1679   1.064   2.071   0.592  0.2000  2.5421 -0.8171
    1SOL    MW4 1680   1.049   2.046   0.510 -0.2508  0.4745 -0.1333
    1SOL     OW 1681   3.135   0.365   0.848  0.2715 -0.4716 -0.0972
    1SOL    HW2 1682   3.143   0.372   0.944  0.3472  0.6956 -0.1783
    1SOL    HW3 1683   3.210   0.415   0.815  0.9174 -1.8621 -0.7596
    1SOL    MW4 1684   3.146   0.372   0.857  0.3667 -0.5011 -0.1953
    1SOL     OW 1685   2.500   2.106   0.500 -0.4229 -0.3098  0.0425
    1SOL    HW2 1686   2.584   2.086   0.460 -0.7410 -0.8192 -0.3926
    1SOL    HW3 1687   2.435   2.078   0.435 -0.9164  1.3885 -0.2224
    1SOL    MW4 1688   2.502   2.099   0.486 -0.5298 -0.1531 -0.0499
    1SOL     OW 1689   2.452   0.487   0.746  0.0813  0.5372 -0.0906
    1SOL    HW2 1690   2.380   0.443   0.792 -0.8904  1.7014 -0.4854
    1SOL    HW3 1691   2.525   0.425   0.752 -1.2562 -1.1538 -0.6186
    1SOL    MW4 1692   2.452   0.473   0.753 -0.2232  0.4677 -0.2124
    1SOL     OW 1693   3.835   4.385   0.719  0.4299 -0.4836  0.1724
    1SOL    HW2 1694   3.766   4.319   0.716 -0.4604  0.4821 -1.1754
    1SOL    HW3 1695   3.849   4.409   0.627  1.2363  0.6855  0.5892
    1SOL    MW4 1696   3.828   4.380   0.706  0.4189 -0.2027  0.0495
    1SOL     OW 1697   3.409   1.545   0.834  0.0180  0.4487  0.4623
    1SOL    HW2 1698   3.320   1.556   0.800 -0.6338 -0.1172  1.9825
    1SOL    HW3 1699   3.399   1.542   0.929  1.6206 -0.0678  0.6303
    1SOL    MW4 1700   3.396   1.546   0.842  0.1433  0.3059  0.6850
    1SOL     OW 1701   2.237   0.846   0.782 -0.3610 -0.2413 -0.3701
    1SOL    HW2 1702   2.232   0.814   0.692 -0.7134  0.2201 -0.5171
    1SOL    HW3 1703   2.317   0.807   0.818 -0.7248 -1.2107 -0.5774
    1SOL    MW4 1704   2.247   0.836   0.775 -0.4554 -0.3083 -0.4168
    1SOL     OW 1705   3.573   0.909   0.691 -0.3501 -0.0730  0.1484
    1SOL    HW2 1706   3.557   0.891   0.598  2.1085 -1.2416 -0.0948
    1SOL    HW3 1707   3.645   0.850   0.714 -1.3402 -0.2394  2.9687
    1SOL    MW4 1708   3.580   0.899   0.682 -0.1564 -0.2491  0.4885
    1SOL     OW 1709   3.524   2.503   0.455 -0.1169  0.4031  0.7450
    1SOL    HW2 1710   3.558   2.504   0.544  1.2205  0.8861  0.2386
    1SOL    HW3 1711   3.550   2.417   0.421  0.1630  0.5767  0.5215
    1SOL    MW4 1712   3.532   2.492   0.462  0.0966  0.4900  0.6487
    1SOL     OW 1713   1.568   3.920   0.826  0.4107  0.3248  0.2816
    1SOL    HW2 1714   1.504   3.981   0.789  0.6164  0.3063 -0.1129
    1SOL    HW3 1715   1.551   3.838   0.780 -0.5980 -0.2086  1.6070
    1SOL    MW4 1716   1.557   3.917   0.815  0.3048  0.2522  0.4044
    1SOL     OW 1717   3.764   0.205   0.400  0.3360  0.1428 -0.2930
    1SOL    HW2 1718   3.780   0.299   0.386 -0.2958  0.3927  0.6201
    1SOL    HW3 1719   3.669   0.198   0.409  0.5054 -0.3451  1.3154
    1SOL    MW4 1720   3.753   0.217   0.399  0.2749  0.1113  0.0397
    1SOL     OW 1721   3.652   2.908   0.542  0.1310  0.1099 -0.2333
    1SOL    HW2 1722   3.662   2.833   0.483  0.1729  0.3750 -0.5655
    1SOL    HW3 1723   3.565   2.943   0.522 -0.7062 -1.0408  1.3139
    1SOL    MW4 1724   3.642   2.903   0.532  0.0262 -0.0064 -0.0730
    1SOL     OW 1725   2.874   2.773   0.788  0.0038 -0.1993 -0.0768
    1SOL    HW2 1726   2.966   2.750   0.800  0.6833  1.3662 -2.0271
    1SOL    HW3 1727   2.864   2.785   0.694 -1.5831  2.0198  0.3295
    1SOL    MW4 1728   2.885   2.772   0.777 -0.1161  0.2999 -0.2804
    1SOL     OW 1729   1.856   1.713   0.792 -0.0773 -0.4482  0.3459
    1SOL    HW2 1730   1.788   1.649   0.816  0.7155 -2.2300 -1.9306
    1SOL    HW3 1731   1.938   1.674   0.821  0.4048 -0.4651 -0.9765
    1SOL    MW4 1732   1.857   1.699   0.799  0.0907 -0.6855 -0.1289
    1SOL     OW 1733   1.143   2.926   0.496  0.1388  0.4344 -0.3699
    1SOL    HW2 1734   1.209   2.993   0.514  1.4772 -1.4585  2.0647
    1SOL    HW3 1735   1.180   2.875   0.423 -0.3595  1.5887 -1.4556
    1SOL    MW4 1736   1.156   2.928   0.488  0.2496  0.3371 -0.1919
    1SOL     OW 1737   3.133   3.238   0.812 -0.2048  0.5303 -0.0835
    1SOL    HW2 1738   3.065   3.176   0.837  0.5567 -0.5609 -0.6816
    1SOL    HW3 1739   3.123   3.249   0.717  0.9004 -0.1863 -0.2897
    1SOL    MW4 1740   3.123   3.231   0.803  0.0415  0.2918 -0.1896
    1SOL     OW 1741   3.182   3.504   0.865 -0.3380 -0.2495  0.0697
    1SOL    HW2 1742   3.159   3.414   0.840 -0.4406  0.2574 -1.7462
    1SOL    HW3 1743   3.192   3.500   0.960  0.3313 -2.3361 -0.0513
    1SOL    MW4 1744   3.180   3.491   0.874 -0.2632 -0.4575 -0.1859
    1SOL     OW 1745   3.480   3.481   0.296 -0.2345 -0.1543  0.0847
    1SOL    HW2 1746   3.462   3.564   0.341  0.6238  0.0524  0.0432
    1SOL    HW3 1747   3.437   3.490   0.211 -0.1816  0.2342  0.0963
    1SOL    MW4 1748   3.472   3.493   0.291 -0.1144 -0.0758  0.0808
    1SOL     OW 1749   3.532   3.983   0.702  0.2613 -0.0241  0.1322
    1SOL    HW2 1750   3.459   3.945   0.751  0.1310  1.0554  0.7967
    1SOL    HW3 1751   3.609   3.962   0.754 -0.1153  3.1614  2.1180
    1SOL    MW4 1752   3.532   3.975   0.715  0.1941  0.5386  0.4819
    1SOL     OW 1753   4.288   0.543   0.460 -0.6002 -0.4708 -0.2758
    1SOL    HW2 1754   4.377   0.574   0.449 -1.2478  0.6440 -2.6204
    1SOL    HW3 1755   4.293   0.449   0.439 -0.1675 -0.1851 -1.5019
    1SOL    MW4 1756   4.300   0.534   0.456 -0.6294 -0.2860 -0.7469
    1SOL     OW 1757   3.137   4.262   0.822  0.2010  0.2702  0.2369
    1SOL    HW2 1758   3.061   4.308   0.788  1.3672  1.5546 -0.7032
    1SOL    HW3 1759   3.123   4.170   0.799  0.1349  0.8613 -2.1974
    1SOL    MW4 1760   3.125   4.256   0.814  0.3459  0.5183 -0.2083
    1SOL     OW 1761   3.080   0.845   0.324 -0.3048 -0.1065 -0.4166
    1SOL    HW2 1762   3.143   0.882   0.385 -0.7368 -1.4338  0.8818
    1SOL    HW3 1763   3.132   0.815   0.249  0.2345  1.4790 -0.6917
    1SOL    MW4 1764   3.095   0.846   0.322 -0.2906 -0.0724 -0.2816
    1SOL     OW 1765   2.112   1.585   0.851  0.2920 -0.5312  0.5755
    1SOL    HW2 1766   2.114   1.494   0.823  0.0701 -0.3420 -0.0633
    1SOL    HW3 1767   2.171   1.630   0.791 -1.5871  0.2033 -0.7756
    1SOL    MW4 1768   2.120   1.579   0.839  0.0150 -0.4092  0.3130
    1SOL     OW 1769   3.071   0.096   0.755 -0.0412 -0.3074  0.1392
    1SOL    HW2 1770   3.084   0.189   0.776  1.3103 -0.4434 -0.0766
    1SOL    HW3 1771   3.150   0.053   0.788 -0.2024 -1.2386 -0.6859
    1SOL    MW4 1772   3.083   0.103   0.762  0.1159 -0.4482  0.0018
    1SOL     OW 1773   3.594   0.364   0.861  0.3503 -0.1811  0.0747
    1SOL    HW2 1774   3.682   0.390   0.832 -0.2408  2.2240  0.3534
    1SOL    HW3 1775   3.592   0.388   0.954 -1.1614  1.3893 -0.3363
    1SOL    MW4 1776   3.606   0.371   0.869  0.0730  0.3434  0.0573
    1SOL     OW 1777   0.714   0.549   0.755 -0.0616 -0.0596 -0.2666
    1SOL    HW2 1778   0.645   0.493   0.790  0.7150 -0.5714  0.4453
    1SOL    HW3 1779   0.795   0.501   0.770  0.4934  0.7036 -0.7644
    1SOL    MW4 1780   0.716   0.535   0.762  0.1141 -0.0264 -0.2384
    1SOL     OW 1781   3.791   0.753   0.786  0.1824  0.5219 -0.5006
    1SOL    HW2 1782   3.768   0.762   0.879 -0.1958  2.4207 -0.7540
    1SOL    HW3 1783   3.876   0.796   0.779  0.7931 -0.7127 -0.8169
    1SOL    MW4 1784   3.799   0.760   0.797  0.2129  0.6096 -0.5757
    1SOL     OW 1785   1.597   1.839   0.438  0.3327 -0.0628 -0.0121
    1SOL    HW2 1786   1.519   1.784   0.448 -1.0317  1.8072  0.0614
    1SOL    HW3 1787   1.670   1.782   0.461 -1.0041 -1.8991 -0.1926
    1SOL    MW4 1788   1.596   1.824   0.443 -0.0236 -0.0584 -0.0262
    1SOL     OW 1789   3.843   1.576   0.803 -0.2725  0.1481 -0.5817
    1SOL    HW2 1790   3.844   1.492   0.757 -0.5147 -0.2790  0.1870
    1SOL    HW3 1791   3.766   1.621   0.768  0.2143  0.3128 -1.4558
    1SOL    MW4 1792   3.833   1.570   0.792 -0.2401  0.1135 -0.5956
    1SOL     OW 1793   2.731   2.097   0.367 -0.0177 -0.1974  0.0591
    1SOL    HW2 1794   2.710   2.052   0.285  1.8688  1.8562 -1.6168
    1SOL    HW3 1795   2.811   2.055   0.398 -0.4281 -0.6031  0.5817
    1SOL    MW4 1796   2.739   2.086   0.360  0.1771  0.0200 -0.0930
    1SOL     OW 1797   4.291   2.816   0.725  0.3197  0.0919 -0.0530
    1SOL    HW2 1798   4.353   2.789   0.793  1.5448  1.6483 -0.5206
    1SOL    HW3 1799   4.262   2.903   0.751 -1.3260 -0.4409 -0.0894
    1SOL    MW4 1800   4.296   2.824   0.737  0.2646  0.2272 -0.1195
    1SOL     OW 1801   1.195   0.509   0.714  0.2998  0.0973  0.0656
    1SOL    HW2 1802   1.260   0.483   0.779 -1.9505 -1.2394  1.8966
    1SOL    HW3 1803   1.112   0.478   0.750 -1.2050  0.5819 -2.8034
    1SOL    MW4 1804   1.192   0.501   0.727 -0.1956 -0.0151 -0.0713
    1SOL     OW 1805   3.665   2.716   0.372  0.0179  0.8650  0.2306
    1SOL    HW2 1806   3.753   2.684   0.392  0.0270  0.7166 -0.0513
    1SOL    HW3 1807   3.607   2.642   0.391  0.0149  0.7594 -0.1765
    1SOL    MW4 1808   3.669   2.702   0.377  0.0184  0.8316  0.1397
    1SOL     OW 1809   3.362   2.329   0.791 -0.4654  0.0893  0.1119
    1SOL    HW2 1810   3.336   2.345   0.881 -0.6560 -1.1947  0.2907
    1SOL    HW3 1811   3.370   2.234   0.784 -1.2376  0.1085 -1.4313
    1SOL    MW4 1812   3.360   2.319   0.802 -0.5922 -0.0775 -0.0681
    1SOL     OW 1813   3.808   2.362   1.132  0.6491 -0.6651 -0.2155
    1SOL    HW2 1814   3.887   2.399   1.171 -0.1165 -0.0709  0.7928
    1SOL    HW3 1815   3.825   2.364   1.038  1.4748  0.2758 -0.0592
    1SOL    MW4 1816   3.821   2.367   1.125  0.6571 -0.4625 -0.0619
    1SOL     OW 1817   1.707   2.251   0.363  0.0533  0.3213 -0.5869
    1SOL    HW2 1818   1.776   2.301   0.405  1.2881  1.7435 -4.0909
    1SOL    HW3 1819   1.745   2.164   0.349  0.2004  0.3203 -0.1573
    1SOL    MW4 1820   1.721   2.246   0.366  0.2356  0.5088 -0.9926
    1SOL     OW 1821   3.592   2.721   0.841  0.4875  0.3915 -0.3794
    1SOL    HW2 1822   3.587   2.735   0.935  0.7077 -1.9986  0.0033
    1SOL    HW3 1823   3.673   2.765   0.814 -0.1965  2.1215  0.3287
    1SOL    MW4 1824   3.602   2.729   0.850  0.4263  0.3047 -0.2355
    1SOL     OW 1825   1.599   3.463   0.488 -0.1785  0.3208  0.3359
    1SOL    HW2 1826   1.647   3.542   0.463 -1.7503  0.9413 -0.7818
    1SOL    HW3 1827   1.663   3.392   0.476  0.2927  1.0510 -1.8096
    1SOL    MW4 1828   1.614   3.464   0.483 -0.3238  0.4990 -0.0946
    1SOL     OW 1829   3.773   3.130   0.906 -0.8312 -0.0696 -0.7084
    1SOL    HW2 1830   3.700   3.177   0.866 -0.1122  0.0867 -1.8687
    1SOL    HW3 1831   3.772   3.045   0.863 -0.1138  0.0633 -0.9934
    1SOL    MW4 1832   3.763   3.125   0.895 -0.6416 -0.0312 -0.8991
    1SOL     OW 1833   4.390   2.748   0.458  0.4908 -0.0323  0.1174
    1SOL    HW2 1834   4.311   2.763   0.406  0.0713 -0.1167  0.7300
    1SOL    HW3 1835   4.362   2.760   0.549  1.2525  0.2381  0.3197
    1SOL    MW4 1836   4.376   2.751   0.463  0.5360 -0.0079  0.2249
    1SOL     OW 1837   3.543   3.245   0.759 -0.2111 -0.4406 -0.0791
    1SOL    HW2 1838   3.521   3.261   0.667  1.1169 -1.8778 -0.6781
    1SOL    HW3 1839   3.467   3.200   0.795 -1.4281  1.6276 -0.0102
    1SOL    MW4 1840   3.530   3.241   0.751 -0.1965 -0.3574 -0.1491
    1SOL     OW 1841   4.153   4.007   0.479  0.2167 -0.4693 -0.3710
    1SOL    HW2 1842   4.248   4.012   0.462  0.1614 -0.5259 -0.7111
    1SOL    HW3 1843   4.129   3.918   0.451 -0.3516  0.3169 -2.4538
    1SOL    MW4 1844   4.163   3.996   0.473  0.1349 -0.3731 -0.6907
    1SOL     OW 1845   3.844   3.651   0.777 -0.3463 -0.6648 -0.1496
    1SOL    HW2 1846   3.926   3.609   0.802  0.8294  1.3264 -0.5815
    1SOL    HW3 1847   3.853   3.667   0.683 -1.1342 -0.2368 -0.1533
    1SOL    MW4 1848   3.856   3.647   0.768 -0.2954 -0.3455 -0.2071
    1SOL     OW 1849   0.603   1.811   0.460 -0.5840  0.2638 -0.7699
    1SOL    HW2 1850   0.686   1.765   0.456 -0.5031  0.3148  0.2549
    1SOL    HW3 1851   0.538   1.743   0.477 -0.7451  0.2351 -1.4863
    1SOL    MW4 1852   0.605   1.796   0.462 -0.5946  0.2670 -0.7292
    1SOL     OW 1853   2.235   3.478   0.881 -0.0138 -0.0207 -0.2724
    1SOL    HW2 1854   2.250   3.387   0.856  0.6234  0.0816 -0.2883
    1SOL    HW3 1855   2.316   3.523   0.856  1.1595 -0.1450  2.9894
    1SOL    MW4 1856   2.248   3.472   0.875  0.2253 -0.0238  0.1559
    1SOL     OW 1857   1.053   4.448   0.493  0.1354  0.4642 -0.0907
    1SOL    HW2 1858   1.071   4.359   0.464  0.0063  0.3381  0.2132
    1SOL    HW3 1859   1.023   4.493   0.415  0.1796  0.2367 -0.2409
    1SOL    MW4 1860   1.052   4.442   0.479  0.1242  0.4177 -0.0704
    1SOL     OW 1861   4.371   4.657   0.811  0.0229  0.1175 -0.0552
    1SOL    HW2 1862   4.343   4.634   0.899  1.1191  1.0051  0.5312
    1SOL    HW3 1863   4.329   4.741   0.793 -0.3161 -0.1310 -0.4350
    1SOL    MW4 1864   4.362   4.665   0.820  0.1230  0.2018 -0.0278
    1SOL     OW 1865   3.575   0.131   0.714  0.0428 -0.1635 -0.4131
    1SOL    HW2 1866   3.584   0.209   0.769 -0.9861 -0.1514 -0.2562
    1SOL    HW3 1867   3.654   0.079   0.732  0.5216  0.6285 -0.1970
    1SOL    MW4 1868   3.587   0.134   0.723 -0.0298 -0.0574 -0.3638
    1SOL     OW 1869   3.888   4.654   0.261  0.1298  0.3372 -0.1463
    1SOL    HW2 1870   3.867   4.594   0.333 -2.8022 -1.4157 -2.3854
    1SOL    HW3 1871   3.826   4.726   0.271 -2.0190 -1.1674 -2.3843
    1SOL    MW4 1872   3.877   4.656   0.272 -0.5405 -0.0925 -0.7371
    1SOL     OW 1873   0.007   2.722   0.884 -0.0856 -0.2811  0.1716
    1SOL    HW2 1874   0.024   2.730   0.977 -1.5292  2.0524  0.3075
    1SOL    HW3 1875   0.076   2.774   0.842 -0.0285 -0.4753  0.0279
    1SOL    MW4 1876   0.018   2.730   0.890 -0.2685  0.0010  0.1706
    1SOL     OW 1877   4.271   0.820   0.851 -0.5763 -0.1826  0.4613
    1SOL    HW2 1878   4.281   0.799   0.944  0.2392  0.9564  0.6471
    1SOL    HW3 1879   4.254   0.736   0.808 -0.5554 -0.7661  1.5805
    1SOL    MW4 1880   4.270   0.806   0.858 -0.4654 -0.1093  0.6335
    1SOL     OW 1881   4.310   3.304   0.336 -0.5135 -0.0828  0.5072
    1SOL    HW2 1882   4.234   3.245   0.334  0.5661 -1.5283  1.0715
    1SOL    HW3 1883   4.375   3.257   0.388  0.7393  1.1859  0.1155
    1SOL    MW4 1884   4.308   3.290   0.343 -0.2060 -0.1061  0.5300
    1SOL     OW 1885   1.379   1.664   0.799  0.0237  0.5881  0.2058
    1SOL    HW2 1886   1.465   1.625   0.812  0.1465  0.4383 -0.9786
    1SOL    HW3 1887   1.372   1.675   0.704 -0.7327  1.8019  0.3911
    1SOL    MW4 1888   1.389   1.661   0.788 -0.0600  0.7282  0.0739
    1SOL     OW 1889   2.195   4.236   0.833 -0.5125 -0.2225 -0.1174
    1SOL    HW2 1890   2.109   4.274   0.813 -0.4428 -0.2238 -0.4226
    1SOL    HW3 1891   2.195   4.152   0.786 -0.6490 -0.5806  0.5201
    1SOL    MW4 1892   2.183   4.230   0.824 -0.5217 -0.2694 -0.0736
    1SOL     OW 1893   4.291   1.556   0.841  0.2485 -0.4464 -0.6985
    1SOL    HW2 1894   4.299   1.473   0.793  1.1239 -2.0444  2.0905
    1SOL    HW3 1895   4.253   1.531   0.925  1.6503  1.8024  0.6325
    1SOL    MW4 1896   4.287   1.541   0.846  0.5493 -0.3606 -0.1550
    1SOL     OW 1897   0.930   1.171   0.860 -0.2217 -0.4800 -0.1524
    1SOL    HW2 1898   0.847   1.215   0.844 -0.3094 -0.3316  0.6629
    1SOL    HW3 1899   0.916   1.081   0.830 -0.7038 -0.4757  0.0541
    1SOL    MW4 1900   0.917   1.165   0.854 -0.2970 -0.4599 -0.0176
    1SOL     OW 1901   0.597   0.162   0.394 -0.0446 -0.2554 -0.1042
    1SOL    HW2 1902   0.573   0.160   0.487 -1.4383 -0.3928 -0.4454
    1SOL    HW3 1903   0.649   0.241   0.384  0.6653 -0.5827  0.9238
    1SOL    MW4 1904   0.600   0.172   0.405 -0.1348 -0.3167 -0.0136
    1SOL     OW 1905   4.000   3.238   0.773 -0.4522 -0.3531 -0.0849
    1SOL    HW2 1906   3.929   3.209   0.830  0.0174  0.2015  0.7833
    1SOL    HW3 1907   3.958   3.252   0.688 -1.4356  0.2286  0.4912
    1SOL    MW4 1908   3.985   3.236   0.769 -0.5202 -0.2031  0.1056
    1SOL     OW 1909   0.233   2.298   1.185 -0.0200  0.0583 -0.1878
    1SOL    HW2 1910   0.161   2.360   1.185 -0.0943 -0.0310  0.3771
    1SOL    HW3 1911   0.311   2.352   1.198 -0.0039  0.1316 -0.5893
    1SOL    MW4 1912   0.234   2.313   1.187 -0.0276  0.0560 -0.1662
    1SOL     OW 1913   2.012   3.821   0.836 -0.4052 -0.1107  0.0711
    1SOL    HW2 1914   2.031   3.818   0.929  1.7724 -0.3821 -0.3544
    1SOL    HW3 1915   2.009   3.730   0.808 -2.0152 -0.0655  0.0381
    1SOL    MW4 1916   2.014   3.809   0.844 -0.3302 -0.1404  0.0106
    1SOL     OW 1917   3.794   2.883   0.772  0.0415  0.1937 -0.2410
    1SOL    HW2 1918   3.880   2.852   0.741  0.2461  0.6831 -0.1652
    1SOL    HW3 1919   3.740   2.887   0.693 -0.0801 -0.6547 -0.2082
    1SOL    MW4 1920   3.798   2.879   0.757  0.0522  0.1464 -0.2267
    1SOL     OW 1921   0.886   1.918   0.852  0.2181  0.5094 -0.6330
    1SOL    HW2 1922   0.811   1.956   0.806 -0.3251 -0.1942 -0.3415
    1SOL    HW3 1923   0.866   1.929   0.945  0.0277 -0.5147 -0.5436
    1SOL    MW4 1924   0.874   1.924   0.858  0.1213  0.2816 -0.5828
    1SOL     OW 1925   2.213   0.745   0.520  0.1381  0.1983  0.4387
    1SOL    HW2 1926   2.129   0.748   0.476  0.9903 -0.5664 -1.2796
    1SOL    HW3 1927   2.248   0.659   0.500  1.9129  0.9908  0.0344
    1SOL    MW4 1928   2.207   0.734   0.512  0.4847  0.2019  0.1587
    1SOL     OW 1929   3.882   2.232   0.446  0.2164  0.1984  0.0970
    1SOL    HW2 1930   3.944   2.166   0.414 -0.6293 -2.3406  3.4500
    1SOL    HW3 1931   3.937   2.308   0.466  2.1522 -1.5711  1.8241
    1SOL    MW4 1932   3.897   2.233   0.444  0.3603 -0.3703  0.7672
    1SOL     OW 1933   3.593   3.520   0.827 -0.1710  0.1502  0.9068
    1SOL    HW2 1934   3.687   3.538   0.816 -0.1221 -0.0941  0.9209
    1SOL    HW3 1935   3.585   3.426   0.808 -0.3519  0.0873  1.2948
    1SOL    MW4 1936   3.605   3.510   0.823 -0.1886  0.1099  0.9599
    1SOL     OW 1937   4.274   3.884   0.809  0.2784  0.1113  0.1609
    1SOL    HW2 1938   4.195   3.934   0.787 -0.1307 -0.6134 -0.0136
    1SOL    HW3 1939   4.267   3.868   0.903  0.1902 -0.0027  0.1349
    1SOL    MW4 1940   4.263   3.889   0.818  0.2131  0.0007  0.1345
    1SOL     OW 1941   0.248   1.335   0.767 -0.0267 -0.1963 -0.0046
    1SOL    HW2 1942   0.210   1.414   0.807 -0.7463 -0.0196 -1.0049
    1SOL    HW3 1943   0.303   1.297   0.836 -1.0789  0.2082  1.0786
    1SOL    MW4 1944   0.250   1.341   0.781 -0.2605 -0.1197  0.0063
    1SOL     OW 1945   3.775   3.909   0.808  0.0250 -0.4383  0.1942
    1SOL    HW2 1946   3.856   3.948   0.776 -0.1425 -0.7809 -0.6551
    1SOL    HW3 1947   3.791   3.814   0.806 -1.5003 -0.7064 -3.0876
    1SOL    MW4 1948   3.788   3.901   0.803 -0.1981 -0.5188 -0.3508
    1SOL     OW 1949   3.969   0.081   0.557  0.1506  0.4183  0.6590
    1SOL    HW2 1950   4.038   0.060   0.494  0.4998 -0.1689  1.2331
    1SOL    HW3 1951   3.901   0.123   0.505  0.0325 -0.8965 -0.2738
    1SOL    MW4 1952   3.970   0.084   0.542  0.1812  0.1674  0.6117
    1SOL     OW 1953   3.804   4.651   0.764 -0.4460 -0.0463  0.0761
    1SOL    HW2 1954   3.803   4.555   0.754  1.2641 -0.1057  0.3400
    1SOL    HW3 1955   3.866   4.681   0.699 -2.6031  1.1103 -1.4915
    1SOL    MW4 1956   3.812   4.642   0.754 -0.5050  0.0987 -0.0959
    1SOL     OW 1957   0.214   4.660   1.124  0.3037  0.3772  0.2279
    1SOL    HW2 1958   0.300   4.697   1.145  0.4606  0.6526 -0.8347
    1SOL    HW3 1959   0.210   4.664   1.028 -0.5835 -0.3388  0.2321
    1SOL    MW4 1960   0.225   4.666   1.114  0.2073  0.3190  0.0882
    1SOL     OW 1961   4.482   0.117   1.227 -0.6034  0.1075 -0.7993
    1SOL    HW2 1962   4.417   0.092   1.161 -0.3340  0.7173 -1.2978
    1SOL    HW3 1963   4.564   0.083   1.193 -0.1464  2.1137 -1.7368
    1SOL    MW4 1964   4.484   0.109   1.214 -0.5078  0.4526 -0.9888
    1SOL     OW 1965   4.480   0.361   1.092 -0.4541 -0.3053 -0.4544
    1SOL    HW2 1966   4.408   0.408   1.133  0.3622 -0.2791  0.9973
    1SOL    HW3 1967   4.473   0.271   1.125  0.0140 -0.3715 -0.5217
    1SOL    MW4 1968   4.470   0.355   1.102 -0.2847 -0.3106 -0.2718
    1SOL     OW 1969   0.224   0.478   1.233  0.1510  0.3213  0.2638
    1SOL    HW2 1970   0.217   0.566   1.198  0.2907 -0.4951 -1.9048
    1SOL    HW3 1971   0.142   0.435   1.206  0.1340 -0.2451  1.1926
    1SOL    MW4 1972   0.212   0.484   1.225  0.1672  0.1388  0.1003
    1SOL     OW 1973   0.208   0.735   1.126  0.5555  0.4377 -0.1928
    1SOL    HW2 1974   0.277   0.794   1.153  0.5214 -0.4047  1.8353
    1SOL    HW3 1975   0.127   0.783   1.142  0.5517  0.0925  0.8662
    1SOL    MW4 1976   0.206   0.749   1.132  0.5505  0.2810  0.2145
    1SOL     OW 1977   4.479   0.886   1.173 -0.2579  0.1797 -0.3167
    1SOL    HW2 1978   4.487   0.886   1.268  0.2502 -0.0033 -0.3559
    1SOL    HW3 1979   4.452   0.975   1.151  0.6930  0.5372 -0.0811
    1SOL    MW4 1980   4.477   0.898   1.183 -0.0658  0.2027 -0.2906
    1SOL     OW 1981   4.453   1.140   1.066 -0.2017  0.1408  0.3819
    1SOL    HW2 1982   4.373   1.181   1.098 -0.4505 -0.7236  0.8966
    1SOL    HW3 1983   4.524   1.191   1.106 -0.4271  2.5710 -2.1614
    1SOL    MW4 1984   4.452   1.152   1.075 -0.2643  0.3474  0.1142
    1SOL     OW 1985   0.172   1.281   1.190 -0.3966  0.3149 -0.3745
    1SOL    HW2 1986   0.165   1.274   1.286  0.4027 -2.6252 -0.4776
    1SOL    HW3 1987   0.259   1.247   1.170 -0.9024  0.0739 -2.2299
    1SOL    MW4 1988   0.183   1.276   1.200 -0.3579 -0.1049 -0.6330
    1SOL     OW 1989   0.186   1.559   1.140  0.6632  0.4950  0.3814
    1SOL    HW2 1990   0.168   1.469   1.168 -0.1799  0.3922 -0.4656
    1SOL    HW3 1991   0.184   1.555   1.045 -0.4405  1.6227  0.3467
    1SOL    MW4 1992   0.184   1.547   1.131  0.4063  0.6303  0.2651
    1SOL     OW 1993   4.421   1.678   1.180 -0.1373  0.2481  0.2421
    1SOL    HW2 1994   4.433   1.772   1.171 -0.4278  0.3843  1.2022
    1SOL    HW3 1995   4.506   1.640   1.159  0.5254  0.8541  1.7664
    1SOL    MW4 1996   4.433   1.685   1.176 -0.0882  0.3459  0.5699
    1SOL     OW 1997   4.434   1.956   1.152 -0.4040  0.1349 -0.0274
    1SOL    HW2 1998   4.354   2.001   1.179 -1.1690 -0.7777 -0.7060
    1SOL    HW3 1999   4.438   1.972   1.057 -0.1921 -0.4497 -0.1156
    1SOL    MW4 2000   4.424   1.964   1.143 -0.4768 -0.0627 -0.1285
    1SOL     OW 2001   0.204   2.037   1.251  0.1550  0.1499  0.2359
    1SOL    HW2 2002   0.216   2.130   1.232 -0.7097  0.3795  0.8151
    1SOL    HW3 2003   0.125   2.013   1.203  0.4973 -0.3443 -0.0889
    1SOL    MW4 2004   0.195   2.046   1.242  0.0861  0.1149  0.2695
    1SOL     OW 2005   0.260   2.352   0.899 -0.4542  0.2704 -0.1431
    1SOL    HW2 2006   0.176   2.382   0.864 -0.0650  1.0244 -0.4301
    1SOL    HW3 2007   0.241   2.329   0.990 -0.7139  1.5593  0.1324
    1SOL    MW4 2008   0.246   2.353   0.907 -0.4371  0.5398 -0.1446
    1SOL     OW 2009   4.485   2.449   1.192 -0.3494  0.1175 -0.2078
    1SOL    HW2 2010   4.487   2.449   1.287  0.2865 -0.1285 -0.2150
    1SOL    HW3 2011   4.404   2.403   1.169  1.6327 -3.8326  0.2078
    1SOL    MW4 2012   4.475   2.443   1.201 -0.0038 -0.4361 -0.1539
    1SOL     OW 2013   4.488   2.751   1.166  0.4963  0.0938 -0.4070
    1SOL    HW2 2014   4.422   2.798   1.215 -0.0457  0.3740 -1.4018
    1SOL    HW3 2015   4.468   2.658   1.180 -1.5617  0.1629 -2.6183
    1SOL    MW4 2016   4.477   2.745   1.174  0.1535  0.1397 -0.8299
    1SOL     OW 2017   0.254   2.883   1.221 -0.1353 -0.2148  0.9497
    1SOL    HW2 2018   0.248   2.871   1.316 -2.1481  0.6507  0.9658
    1SOL    HW3 2019   0.171   2.849   1.187 -1.4992  3.7522  0.0143
    1SOL    MW4 2020   0.242   2.877   1.229 -0.5808  0.4227  0.8284
    1SOL     OW 2021   0.276   3.139   1.109 -0.0592  0.3393  0.2412
    1SOL    HW2 2022   0.338   3.184   1.166 -0.1254  0.0744  0.5240
    1SOL    HW3 2023   0.271   3.051   1.145  0.4323 -0.0336 -0.6023
    1SOL    MW4 2024   0.283   3.134   1.122 -0.0031  0.2553  0.1673
    1SOL     OW 2025   0.028   3.262   1.209 -0.3408  0.0117 -0.4778
    1SOL    HW2 2026  -0.041   3.204   1.176 -0.6575  1.4794 -2.4599
    1SOL    HW3 2027   0.110   3.218   1.183 -0.5276 -0.9559  0.5285
    1SOL    MW4 2028   0.030   3.248   1.201 -0.4072  0.0780 -0.6065
    1SOL     OW 2029   0.016   3.528   1.109 -0.2684  0.5092 -0.2271
    1SOL    HW2 2030   0.036   3.447   1.157 -0.4950  0.7233  0.2298
    1SOL    HW3 2031   0.005   3.500   1.019 -0.6429 -0.0198 -0.0215
    1SOL    MW4 2032   0.017   3.513   1.104 -0.3477  0.4678 -0.1397
    1SOL     OW 2033   0.251   3.670   1.187 -0.0315 -0.4871  0.6362
    1SOL    HW2 2034   0.251   3.662   1.283 -0.4362  1.9430  0.8732
    1SOL    HW3 2035   0.175   3.620   1.158 -1.0429  0.3592  1.7673
    1SOL    MW4 2036   0.241   3.662   1.196 -0.2183 -0.0546  0.8166
    1SOL     OW 2037   0.201   3.924   1.065 -0.5361 -0.1324 -0.0072
    1SOL    HW2 2038   0.122   3.955   1.108  0.0610  1.0070  0.2831
    1SOL    HW3 2039   0.226   3.845   1.113  0.1788  1.1766  1.8138
    1SOL    MW4 2040   0.194   3.918   1.077 -0.3630  0.1907  0.2713
    1SOL     OW 2041   4.469   4.008   1.193 -0.4293 -0.1805 -0.1426
    1SOL    HW2 2042   4.476   3.995   1.287 -0.9950 -1.2278 -0.2265
    1SOL    HW3 2043   4.403   3.944   1.165  1.0213 -1.1374 -1.5008
    1SOL    MW4 2044   4.461   3.998   1.202 -0.3123 -0.4447 -0.3327
    1SOL     OW 2045   4.467   4.257   1.077 -0.4068 -0.2236 -0.0483
    1SOL    HW2 2046   4.537   4.305   1.121 -1.4558  1.3128  0.0019
    1SOL    HW3 2047   4.467   4.171   1.118  0.3772  0.2981  1.0838
    1SOL    MW4 2048   4.477   4.252   1.088 -0.4416  0.0477  0.1078
    1SOL     OW 2049   0.191   4.397   1.183 -0.3032 -0.0837 -0.1094
    1SOL    HW2 2050   0.197   4.408   1.278 -3.4866 -1.3316  0.3077
    1SOL    HW3 2051   0.194   4.486   1.148  0.0792  0.4363  1.2260
    1SOL    MW4 2052   0.192   4.410   1.191 -0.6727 -0.1798  0.1217
    1SOL     OW 2053   0.686   4.641   1.089  0.1655 -0.1136  0.0500
    1SOL    HW2 2054   0.758   4.690   1.130  1.3041 -2.3511  0.8109
    1SOL    HW3 2055   0.671   4.568   1.148 -2.4867  0.0835 -0.3394
    1SOL    MW4 2056   0.693   4.638   1.102 -0.0342 -0.3824  0.0991
    1SOL     OW 2057   0.453   0.118   1.207  0.2829 -0.0952 -0.1414
    1SOL    HW2 2058   0.459   0.207   1.174 -0.4656 -0.5186 -1.4328
    1SOL    HW3 2059   0.511   0.067   1.150 -0.8706 -0.7901 -0.7140
    1SOL    MW4 2060   0.462   0.123   1.195  0.0320 -0.2428 -0.3873
    1SOL     OW 2061   2.543   1.977   0.140  0.1068  0.4774 -0.0937
    1SOL    HW2 2062   2.526   1.984   0.046  1.2588  0.9348 -0.2684
    1SOL    HW3 2063   2.458   1.996   0.180 -0.1650  1.2702 -1.0110
    1SOL    MW4 2064   2.529   1.980   0.133  0.2227  0.6424 -0.2378
    1SOL     OW 2065   0.677   0.543   1.228  0.4894 -0.1256  0.1678
    1SOL    HW2 2066   0.658   0.629   1.191  1.8466 -0.0374 -0.3205
    1SOL    HW3 2067   0.602   0.489   1.203  0.1403  0.6312 -0.4216
    1SOL    MW4 2068   0.664   0.547   1.220  0.6225 -0.0142  0.0256
    1SOL     OW 2069   0.691   0.796   1.101 -0.0016 -0.0027  0.0609
    1SOL    HW2 2070   0.603   0.823   1.126  0.2056 -1.3026  2.4241
    1SOL    HW3 2071   0.695   0.809   1.006 -2.8937 -0.3596 -0.1506
    1SOL    MW4 2072   0.680   0.801   1.092 -0.3558 -0.2213  0.3446
    1SOL     OW 2073   0.441   0.893   1.186 -0.5260  0.7870 -0.1663
    1SOL    HW2 2074   0.448   0.894   1.281  1.6058  0.2602 -0.2959
    1SOL    HW3 2075   0.439   0.986   1.161  0.5386  0.9394  0.2931
    1SOL    MW4 2076   0.442   0.905   1.195 -0.1043  0.7375 -0.1228
    1SOL     OW 2077   0.414   1.169   1.156 -0.1804 -0.2307  0.1988
    1SOL    HW2 2078   0.487   1.211   1.203  1.0179 -1.9097 -0.1409
    1SOL    HW3 2079   0.434   1.184   1.064 -0.1981 -0.8258  0.1021
    1SOL    MW4 2080   0.426   1.177   1.150 -0.0246 -0.5307  0.1413
    1SOL     OW 2081   0.688   1.254   1.209  0.3717 -0.3760 -0.4034
    1SOL    HW2 2082   0.778   1.224   1.199  0.2928 -0.8200  0.1837
    1SOL    HW3 2083   0.692   1.348   1.196  0.8833 -0.4265 -0.6262
    1SOL    MW4 2084   0.700   1.262   1.206  0.4288 -0.4412 -0.3554
    1SOL     OW 2085   0.660   1.533   1.152  0.4962  0.3830 -0.2272
    1SOL    HW2 2086   0.742   1.568   1.188  0.4199 -0.8052  1.1396
    1SOL    HW3 2087   0.591   1.577   1.201  0.3187  0.8815 -0.9127
    1SOL    MW4 2088   0.662   1.543   1.163  0.4628  0.2919 -0.1373
    1SOL     OW 2089   0.429   1.626   1.263 -0.0432  0.1465 -0.1901
    1SOL    HW2 2090   0.396   1.638   1.352  0.5759 -0.2734  0.1010
    1SOL    HW3 2091   0.353   1.597   1.213  0.2973 -2.8572  0.9351
    1SOL    MW4 2092   0.415   1.624   1.268  0.0834 -0.3051 -0.0032
    1SOL     OW 2093   0.412   1.873   1.132  0.1547  0.0891  0.1319
    1SOL    HW2 2094   0.414   1.790   1.178  1.7422 -0.1254 -0.2924
    1SOL    HW3 2095   0.336   1.919   1.168  0.1724 -0.9078  1.4743
    1SOL    MW4 2096   0.402   1.868   1.143  0.3665 -0.0709  0.2530
    1SOL     OW 2097   0.622   2.028   1.204  0.2152 -0.1036  0.1359
    1SOL    HW2 2098   0.627   2.012   1.298 -0.8127 -0.9104  0.0628
    1SOL    HW3 2099   0.561   1.961   1.172  2.6941 -1.6532 -1.5093
    1SOL    MW4 2100   0.615   2.017   1.212  0.4066 -0.4146 -0.0908
    1SOL     OW 2101   0.651   2.296   1.110 -0.0998  0.3542 -0.8094
    1SOL    HW2 2102   0.582   2.343   1.156  0.4131  1.0695 -0.7711
    1SOL    HW3 2103   0.630   2.204   1.123  0.3794  0.5290  1.4092
    1SOL    MW4 2104   0.639   2.290   1.118  0.0311  0.4716 -0.5116
    1SOL     OW 2105   0.434   2.471   1.218  0.4573  0.7269 -0.4016
    1SOL    HW2 2106   0.406   2.496   1.306 -0.4603 -0.0274 -0.4696
    1SOL    HW3 2107   0.441   2.554   1.171 -0.7057  1.0198 -0.0838
    1SOL    MW4 2108   0.431   2.485   1.223  0.1828  0.6659 -0.3685
    1SOL     OW 2109   0.450   2.732   1.111 -0.1066 -0.0355  0.5456
    1SOL    HW2 2110   0.383   2.787   1.151 -1.0031  0.2471 -1.2742
    1SOL    HW3 2111   0.435   2.742   1.017  2.2230 -0.3105  0.1274
    1SOL    MW4 2112   0.439   2.741   1.104  0.0825 -0.0346  0.2503
    1SOL     OW 2113   0.676   2.842   1.206  0.3514 -0.0157  0.4607
    1SOL    HW2 2114   0.668   2.830   1.301  0.4459 -0.5127  0.4054
    1SOL    HW3 2115   0.590   2.817   1.171  0.3613  0.0342  0.4001
    1SOL    MW4 2116   0.663   2.837   1.214  0.3651 -0.0749  0.4454
    1SOL     OW 2117   0.626   3.110   1.194 -0.1508 -0.4177  0.0169
    1SOL    HW2 2118   0.712   3.151   1.201 -0.0742 -0.5727 -0.0211
    1SOL    HW3 2119   0.643   3.016   1.205 -0.0865 -0.6271 -1.7605
    1SOL    MW4 2120   0.639   3.103   1.197 -0.1322 -0.4659 -0.2226
    1SOL     OW 2121   0.456   3.278   1.299  0.0236  0.1324  0.4223
    1SOL    HW2 2122   0.470   3.357   1.246  0.3786 -0.2367 -0.0387
    1SOL    HW3 2123   0.522   3.216   1.268 -0.0742 -0.2534  0.9728
    1SOL    MW4 2124   0.467   3.280   1.288  0.0575  0.0329  0.4340
    1SOL     OW 2125   0.469   3.505   1.129 -0.0337 -0.2293 -0.6560
    1SOL    HW2 2126   0.552   3.536   1.165 -0.0729 -1.5553  0.6038
    1SOL    HW3 2127   0.405   3.573   1.154  0.5025  0.3757 -0.9056
    1SOL    MW4 2128   0.471   3.518   1.137  0.0319 -0.3245 -0.5226
    1SOL     OW 2129   0.692   3.626   1.204  0.1182 -0.2999  0.2918
    1SOL    HW2 2130   0.681   3.632   1.299  1.6905  0.2608  0.4635
    1SOL    HW3 2131   0.688   3.717   1.173 -1.1764 -0.5477 -0.2774
    1SOL    MW4 2132   0.690   3.639   1.212  0.1549 -0.2587  0.2394
    1SOL     OW 2133   0.677   3.902   1.114  0.7912 -0.2591  0.2272
    1SOL    HW2 2134   0.597   3.939   1.152  0.3872  0.3885 -1.2080
    1SOL    HW3 2135   0.663   3.907   1.020  1.4449 -2.5680 -0.0094
    1SOL    MW4 2136   0.665   3.908   1.107  0.8242 -0.4785  0.0066
    1SOL     OW 2137   0.444   4.020   1.188 -0.3204 -0.5966  0.2518
    1SOL    HW2 2138   0.456   4.112   1.166 -1.0564 -0.1525  1.6238
    1SOL    HW3 2139   0.364   3.995   1.141 -1.5706  0.1900  1.9080
    1SOL    MW4 2140   0.435   4.029   1.179 -0.5824 -0.4344  0.6514
    1SOL     OW 2141   0.455   4.294   1.127 -0.3470 -0.6114 -0.0375
    1SOL    HW2 2142   0.522   4.345   1.173 -0.0889 -0.4717 -0.5665
    1SOL    HW3 2143   0.372   4.327   1.161 -0.2666  1.6841 -1.9455
    1SOL    MW4 2144   0.453   4.305   1.138 -0.3024 -0.2904 -0.3591
    1SOL     OW 2145   0.648   4.424   1.263 -0.2204  0.4288 -0.0327
    1SOL    HW2 2146   0.658   4.408   1.356  0.0399 -0.8695 -0.2729
    1SOL    HW3 2147   0.720   4.376   1.222 -0.3258  0.9947 -0.9004
    1SOL    MW4 2148   0.658   4.416   1.270 -0.2000  0.3324 -0.1789
    1SOL     OW 2149   1.087   0.008   1.140  0.1148 -0.1130  0.6281
    1SOL    HW2 2150   1.089  -0.084   1.163 -0.2838  0.0794  1.4570
    1SOL    HW3 2151   1.097   0.010   1.045 -0.3694 -1.0357  0.5570
    1SOL    MW4 2152   1.089  -0.004   1.130 -0.0015 -0.2093  0.7281
    1SOL     OW 2153   0.873   0.139   1.215  0.1366 -0.0959  0.3397
    1SOL    HW2 2154   0.867   0.154   1.310 -1.4594  0.2880  0.1948
    1SOL    HW3 2155   0.959   0.099   1.202  0.8020  0.8366  1.8215
    1SOL    MW4 2156   0.883   0.136   1.226  0.0138  0.0778  0.5161
    1SOL     OW 2157   0.883   0.390   1.094  0.9063  0.2341 -0.4876
    1SOL    HW2 2158   0.856   0.303   1.124  1.4533  0.8729  1.8976
    1SOL    HW3 2159   0.819   0.450   1.132  0.9113  0.9674 -1.5917
    1SOL    MW4 2160   0.871   0.386   1.103  0.9791  0.4152 -0.3185
    1SOL     OW 2161   1.128   0.507   1.204 -0.2665  0.3556 -0.2707
    1SOL    HW2 2162   1.126   0.505   1.300  0.8964 -0.4602 -0.2515
    1SOL    HW3 2163   1.048   0.463   1.176 -0.4796  0.3642  0.3268
    1SOL    MW4 2164   1.117   0.501   1.213 -0.1411  0.2491 -0.1892
    1SOL     OW 2165   1.117   0.762   1.130  0.3007  0.4366  0.3728
    1SOL    HW2 2166   1.045   0.809   1.172  0.1671  0.5662  0.0025
    1SOL    HW3 2167   1.116   0.675   1.170 -0.3911  0.2698 -0.0030
    1SOL    MW4 2168   1.107   0.756   1.141  0.1918  0.4317  0.2743
    1SOL     OW 2169   0.893   0.899   1.234  0.1926 -0.6075 -0.1627
    1SOL    HW2 2170   0.903   0.987   1.198 -0.3517 -0.2245  0.6027
    1SOL    HW3 2171   0.815   0.864   1.190 -0.1723 -0.3315  0.2592
    1SOL    MW4 2172   0.884   0.906   1.224  0.0727 -0.5206 -0.0061
    1SOL     OW 2173   0.931   1.156   1.142  0.3216 -0.0419 -0.8354
    1SOL    HW2 2174   0.990   1.212   1.193  0.4002  0.8125 -1.8548
    1SOL    HW3 2175   0.945   1.182   1.051 -0.5191 -0.8897 -1.2143
    1SOL    MW4 2176   0.940   1.167   1.137  0.2210 -0.0409 -1.0198
    1SOL     OW 2177   1.148   1.307   1.244  0.1582  0.1332  0.1603
    1SOL    HW2 2178   1.155   1.303   1.340  0.0316 -0.3247  0.1520
    1SOL    HW3 2179   1.221   1.255   1.212  0.5974  0.8497 -0.0015
    1SOL    MW4 2180   1.158   1.299   1.253  0.1994  0.1673  0.1379
    1SOL     OW 2181   1.116   1.561   1.141  0.3380  0.2015  0.0577
    1SOL    HW2 2182   1.133   1.475   1.179 -0.5255 -0.0067 -0.0183
    1SOL    HW3 2183   1.126   1.547   1.047  1.3385  0.4569  0.1137
    1SOL    MW4 2184   1.120   1.548   1.133  0.3561  0.2079  0.0551
    1SOL     OW 2185   0.876   1.671   1.228 -0.3352  0.2238 -0.3750
    1SOL    HW2 2186   0.890   1.757   1.189  0.8779 -0.2895 -1.1117
    1SOL    HW3 2187   0.957   1.623   1.210 -1.1563 -1.2122 -0.3294
    1SOL    MW4 2188   0.889   1.676   1.220 -0.2834 -0.0334 -0.4661
    1SOL     OW 2189   0.875   1.929   1.124  0.2082 -0.0130 -0.1538
    1SOL    HW2 2190   0.952   1.978   1.152  0.0085  1.3854 -1.9146
    1SOL    HW3 2191   0.802   1.974   1.167  0.1919  0.0279 -0.2241
    1SOL    MW4 2192   0.875   1.942   1.133  0.1798  0.1768 -0.3954
    1SOL     OW 2193   1.101   2.056   1.211  0.3492 -0.0170 -0.8842
    1SOL    HW2 2194   1.090   2.067   1.305 -1.6012 -1.6249 -0.8923
    1SOL    HW3 2195   1.089   2.144   1.175  0.8908  0.5662  0.3163
    1SOL    MW4 2196   1.098   2.069   1.219  0.1633 -0.1523 -0.7269
    1SOL     OW 2197   1.121   2.314   1.122  0.3071  0.2977  0.0257
    1SOL    HW2 2198   1.208   2.348   1.141  0.1463  1.0754 -0.6162
    1SOL    HW3 2199   1.102   2.343   1.033  0.2220 -1.6254 -0.6067
    1SOL    MW4 2200   1.130   2.322   1.113  0.2747  0.1466 -0.1425
    1SOL     OW 2201   0.868   2.415   1.240 -0.2907 -0.4025 -1.1026
    1SOL    HW2 2202   0.949   2.372   1.212 -1.2231 -2.2446 -1.0766
    1SOL    HW3 2203   0.799   2.364   1.198 -1.4969  0.0762  0.2752
    1SOL    MW4 2204   0.870   2.402   1.231 -0.5729 -0.5825 -0.9173
    1SOL     OW 2205   0.858   2.666   1.104  0.1523  0.0301 -0.2450
    1SOL    HW2 2206   0.840   2.578   1.139 -2.3529  0.5227 -0.1971
    1SOL    HW3 2207   0.799   2.723   1.153  1.6422  1.7251 -0.4043
    1SOL    MW4 2208   0.848   2.662   1.115  0.0183  0.3185 -0.2596
    1SOL     OW 2209   1.115   2.761   1.194 -0.3793  0.6754  0.0100
    1SOL    HW2 2210   1.103   2.763   1.289 -1.0435  1.2719 -0.0808
    1SOL    HW3 2211   1.034   2.722   1.161  0.3024 -0.5453 -0.2435
    1SOL    MW4 2212   1.103   2.756   1.202 -0.3769  0.5927 -0.0353
    1SOL     OW 2213   1.086   3.058   1.173 -0.2759  0.1146  0.0457
    1SOL    HW2 2214   1.088   2.964   1.189  1.8341  0.0676 -0.2689
    1SOL    HW3 2215   1.113   3.067   1.081  2.7342  1.1525  0.9595
    1SOL    MW4 2216   1.090   3.047   1.163  0.3997  0.2456  0.1248
    1SOL     OW 2217   0.869   3.233   1.177  0.0213  0.0123  0.3472
    1SOL    HW2 2218   0.911   3.317   1.160 -0.0681 -0.0172 -0.0189
    1SOL    HW3 2219   0.933   3.168   1.148 -0.1906 -0.0361 -0.0072
    1SOL    MW4 2220   0.883   3.235   1.171 -0.0185  0.0021  0.2521
    1SOL     OW 2221   0.931   3.504   1.130  0.1366 -0.0642  0.4261
    1SOL    HW2 2222   0.851   3.553   1.149  0.3701  0.4800  0.0073
    1SOL    HW3 2223   0.935   3.500   1.035  0.8086  0.2335  0.4393
    1SOL    MW4 2224   0.921   3.510   1.120  0.2561  0.0470  0.3725
    1SOL     OW 2225   1.143   3.640   1.248 -0.0698 -0.2388  0.4393
    1SOL    HW2 2226   1.227   3.598   1.228 -0.7733 -0.8928 -1.2376
    1SOL    HW3 2227   1.079   3.588   1.201 -1.2569  1.1949  0.4486
    1SOL    MW4 2228   1.146   3.628   1.239 -0.3192 -0.1357  0.2193
    1SOL     OW 2229   1.106   3.894   1.123 -0.2379  0.2728  0.1324
    1SOL    HW2 2230   1.032   3.942   1.159  1.1834  0.7240  2.5339
    1SOL    HW3 2231   1.106   3.810   1.170  0.2326 -0.1002 -0.5147
    1SOL    MW4 2232   1.097   3.889   1.134  0.0118  0.2830  0.3638
    1SOL     OW 2233   0.892   4.059   1.198  0.1303  0.3309 -0.4127
    1SOL    HW2 2234   0.881   4.043   1.291  1.0637 -1.3295 -0.5582
    1SOL    HW3 2235   0.827   4.003   1.155  0.6189  0.0462 -0.7963
    1SOL    MW4 2236   0.882   4.050   1.204  0.3179  0.0739 -0.4826
    1SOL     OW 2237   0.869   4.335   1.154 -0.1980  0.7134 -0.1099
    1SOL    HW2 2238   0.869   4.239   1.163  0.9230  0.8285  1.4231
    1SOL    HW3 2239   0.853   4.350   1.061 -0.8087 -0.9549 -0.3013
    1SOL    MW4 2240   0.867   4.324   1.143 -0.1307  0.5083  0.0670
    1SOL     OW 2241   1.119   4.427   1.224 -0.0904 -0.1013 -0.1309
    1SOL    HW2 2242   1.122   4.434   1.320 -0.2570 -0.1740 -0.1208
    1SOL    HW3 2243   1.033   4.391   1.205  0.1087 -0.5074 -0.2827
    1SOL    MW4 2244   1.108   4.423   1.234 -0.0861 -0.1645 -0.1496
    1SOL     OW 2245   1.559   4.658   1.166 -0.0134 -0.1168 -0.4223
    1SOL    HW2 2246   1.644   4.699   1.178 -1.1635  1.8451  1.2155
    1SOL    HW3 2247   1.570   4.569   1.198  1.3954  0.1458 -0.1829
    1SOL    MW4 2248   1.572   4.652   1.172  0.0207  0.1767 -0.1746
    1SOL     OW 2249   1.340   0.126   1.259 -0.1956  0.2763  0.0820
    1SOL    HW2 2250   1.411   0.067   1.234  0.3351  0.4079  1.2524
    1SOL    HW3 2251   1.261   0.088   1.220  0.2805 -0.6969  0.0729
    1SOL    MW4 2252   1.339   0.114   1.250 -0.0628  0.1653  0.2353
    1SOL     OW 2253   1.373   0.397   1.170 -0.0202 -0.2104  0.3593
    1SOL    HW2 2254   1.357   0.306   1.195  0.6576 -0.4629 -0.0938
    1SOL    HW3 2255   1.290   0.442   1.187 -0.3449 -0.9022  0.6266
    1SOL    MW4 2256   1.360   0.391   1.175  0.0263 -0.3349  0.3349
    1SOL     OW 2257   1.613   0.526   1.214  0.2997 -0.1753 -0.0281
    1SOL    HW2 2258   1.598   0.621   1.207  0.1513 -0.1434  0.7668
    1SOL    HW3 2259   1.526   0.488   1.199  0.4020 -0.2000 -0.5801
    1SOL    MW4 2260   1.599   0.534   1.211  0.2937 -0.1743  0.0039
    1SOL     OW 2261   1.562   0.786   1.161  0.4505 -0.4336  0.0641
    1SOL    HW2 2262   1.644   0.835   1.169  0.4844 -0.5188  0.2296
    1SOL    HW3 2263   1.545   0.784   1.067 -0.1366  0.8730  0.1229
    1SOL    MW4 2264   1.570   0.793   1.150  0.3777 -0.2724  0.0937
    1SOL     OW 2265   1.325   0.897   1.234 -0.0949  0.1484 -0.0531
    1SOL    HW2 2266   1.400   0.853   1.195 -0.4358  0.4309 -1.0424
    1SOL    HW3 2267   1.249   0.847   1.203 -0.1962 -1.8575  3.1808
    1SOL    MW4 2268   1.325   0.884   1.225 -0.1532 -0.0790  0.2428
    1SOL     OW 2269   1.341   1.142   1.112  0.1080  0.0314  0.1625
    1SOL    HW2 2270   1.330   1.056   1.152 -1.1873  0.3120  0.4461
    1SOL    HW3 2271   1.420   1.178   1.153  0.5692 -0.9548  0.1475
    1SOL    MW4 2272   1.350   1.135   1.123 -0.0020 -0.0616  0.1979
    1SOL     OW 2273   1.554   1.271   1.240  0.0252 -0.4004  0.4179
    1SOL    HW2 2274   1.632   1.243   1.192  0.6417  0.0797  1.1258
    1SOL    HW3 2275   1.564   1.233   1.327  0.5733  1.4829  1.2013
    1SOL    MW4 2276   1.565   1.262   1.245  0.1789 -0.0886  0.6148
    1SOL     OW 2277   1.552   1.519   1.105 -0.0956  0.2386 -0.2091
    1SOL    HW2 2278   1.637   1.548   1.137  0.7543 -2.4722  0.0732
    1SOL    HW3 2279   1.534   1.439   1.154 -0.9107 -1.4638 -3.2223
    1SOL    MW4 2280   1.561   1.512   1.116 -0.0911 -0.3436 -0.5692
    1SOL     OW 2281   1.349   1.687   1.193  0.5784  0.0022 -0.1927
    1SOL    HW2 2282   1.421   1.629   1.165  0.6758  1.4845 -3.2353
    1SOL    HW3 2283   1.270   1.644   1.160  0.2831 -0.3489  0.9546
    1SOL    MW4 2284   1.348   1.674   1.185  0.5522  0.1514 -0.4429
    1SOL     OW 2285   1.351   1.962   1.164  0.2034 -0.2385 -0.6171
    1SOL    HW2 2286   1.337   1.868   1.169  0.6987 -0.2949 -0.3061
    1SOL    HW3 2287   1.268   2.000   1.194  0.4081 -0.5716  0.3768
    1SOL    MW4 2288   1.338   1.955   1.168  0.2960 -0.2899 -0.4448
    1SOL     OW 2289   1.568   2.074   1.285 -0.1987 -0.6254 -0.2670
    1SOL    HW2 2290   1.560   2.164   1.252 -1.0415 -0.0330  1.4751
    1SOL    HW3 2291   1.488   2.030   1.255 -1.5863  0.2714  2.0021
    1SOL    MW4 2292   1.557   2.080   1.277 -0.4930 -0.4292  0.2624
    1SOL     OW 2293   1.592   2.314   1.172 -0.3699 -0.3078 -0.1588
    1SOL    HW2 2294   1.511   2.356   1.201  0.9987  1.9918  0.4696
    1SOL    HW3 2295   1.587   2.317   1.076 -1.1167 -0.3679 -0.1251
    1SOL    MW4 2296   1.580   2.320   1.163 -0.2879 -0.0122 -0.0715
    1SOL     OW 2297   1.346   2.427   1.240 -0.6988 -0.1232 -0.0389
    1SOL    HW2 2298   1.335   2.449   1.333  0.6582 -0.9568  0.3316
    1SOL    HW3 2299   1.350   2.513   1.197  1.7484  0.3966  1.0713
    1SOL    MW4 2300   1.345   2.441   1.247 -0.1968 -0.1643  0.1564
    1SOL     OW 2301   1.358   2.666   1.114  0.0237  0.4374  0.4726
    1SOL    HW2 2302   1.425   2.720   1.156  0.4725 -1.0312  1.6686
    1SOL    HW3 2303   1.275   2.700   1.150  0.1348  1.7979 -0.4956
    1SOL    MW4 2304   1.356   2.678   1.124  0.0975  0.4232  0.5026
    1SOL     OW 2305   1.556   2.796   1.246 -0.6280 -0.2855 -0.3908
    1SOL    HW2 2306   1.628   2.766   1.191 -0.6032  0.0275 -0.5338
    1SOL    HW3 2307   1.539   2.885   1.215 -0.1144  0.1677  0.5942
    1SOL    MW4 2308   1.563   2.804   1.235 -0.5571 -0.1843 -0.2799
    1SOL     OW 2309   1.525   3.065   1.128  0.2439  0.0138  0.3659
    1SOL    HW2 2310   1.596   3.128   1.145  0.4354 -0.2689  0.6217
    1SOL    HW3 2311   1.448   3.104   1.170  0.4169 -0.0381  0.7308
    1SOL    MW4 2312   1.524   3.079   1.136  0.2921 -0.0303  0.4479
    1SOL     OW 2313   1.332   3.218   1.241 -0.3530 -0.0609 -0.3330
    1SOL    HW2 2314   1.336   3.215   1.337 -0.0434  0.6136 -0.3282
    1SOL    HW3 2315   1.247   3.178   1.220 -0.3221 -0.4135  0.2109
    1SOL    MW4 2316   1.321   3.212   1.251 -0.3082 -0.0181 -0.2607
    1SOL     OW 2317   1.379   3.467   1.159  0.0972 -0.0091 -0.0102
    1SOL    HW2 2318   1.366   3.376   1.186 -0.4488 -0.2703 -1.1156
    1SOL    HW3 2319   1.379   3.463   1.063 -0.1879  1.1908 -0.0603
    1SOL    MW4 2320   1.377   3.454   1.150 -0.0126  0.1149 -0.1627
    1SOL     OW 2321   1.617   3.619   1.168  0.3236 -0.7350 -0.4494
    1SOL    HW2 2322   1.599   3.705   1.130  0.4398 -1.1358 -1.4351
    1SOL    HW3 2323   1.534   3.573   1.165  0.1385 -0.4741  0.5737
    1SOL    MW4 2324   1.604   3.624   1.162  0.3146 -0.7534 -0.4445
    1SOL     OW 2325   1.562   3.885   1.096  0.2860  0.4750  0.1686
    1SOL    HW2 2326   1.492   3.941   1.129  0.9030  1.7672 -0.6877
    1SOL    HW3 2327   1.556   3.893   1.001 -0.8126 -2.4046 -0.0722
    1SOL    MW4 2328   1.552   3.894   1.088  0.2224  0.2656  0.0238
    1SOL     OW 2329   1.345   4.004   1.215 -0.3194 -0.1354  0.5392
    1SOL    HW2 2330   1.325   4.097   1.204 -0.5406 -0.3417 -0.9508
    1SOL    HW3 2331   1.268   3.959   1.181  0.1930 -0.8782  0.3610
    1SOL    MW4 2332   1.332   4.010   1.209 -0.2811 -0.2604  0.3192
    1SOL     OW 2333   1.350   4.289   1.182  0.1727 -0.1406 -0.2719
    1SOL    HW2 2334   1.271   4.331   1.217  0.7487  1.2747 -0.6533
    1SOL    HW3 2335   1.338   4.291   1.087  0.3192 -0.6474 -0.3070
    1SOL    MW4 2336   1.338   4.294   1.174  0.2680 -0.0210 -0.3268
    1SOL     OW 2337   1.601   4.388   1.274  0.2244 -0.3251 -0.1497
    1SOL    HW2 2338   1.592   4.366   1.367 -0.0362  0.1308 -0.0682
    1SOL    HW3 2339   1.523   4.349   1.233  0.8618 -1.4159 -0.3375
    1SOL    MW4 2340   1.589   4.380   1.280  0.2742 -0.4086 -0.1637
    1SOL     OW 2341   2.009   4.589   1.129 -0.1433  0.3657 -0.3707
    1SOL    HW2 2342   1.998   4.497   1.150 -2.4883  0.0420 -2.7305
    1SOL    HW3 2343   2.024   4.591   1.035  1.1759  2.3293 -0.1510
    1SOL    MW4 2344   2.009   4.577   1.120 -0.2787  0.5822 -0.6530
    1SOL     OW 2345   1.802   0.107   1.218  0.0023 -1.0155 -0.0880
    1SOL    HW2 2346   1.812   0.190   1.170 -1.1774 -1.1132 -0.5258
    1SOL    HW3 2347   1.871   0.051   1.183  0.9162 -0.1664  0.3317
    1SOL    MW4 2348   1.813   0.110   1.207 -0.0325 -0.9164 -0.0905
    1SOL     OW 2349   1.795   0.351   1.083  0.4757  0.6887  0.1754
    1SOL    HW2 2350   1.723   0.411   1.104 -1.8680 -1.1957 -2.0973
    1SOL    HW3 2351   1.806   0.360   0.988  1.0945 -1.3606  0.0434
    1SOL    MW4 2352   1.787   0.360   1.073  0.2481  0.1697 -0.1419
    1SOL     OW 2353   2.013   0.772   1.111 -0.1164  0.4961  0.1806
    1SOL    HW2 2354   2.092   0.819   1.137  1.9323 -1.3692 -2.4130
    1SOL    HW3 2355   2.020   0.687   1.155  0.7343 -0.6907 -2.1696
    1SOL    MW4 2356   2.024   0.767   1.120  0.2661  0.0935 -0.4716
    1SOL     OW 2357   1.991   0.750   0.836  0.2742  0.5585 -0.0399
    1SOL    HW2 2358   2.074   0.789   0.807 -0.2655  1.0549 -0.9602
    1SOL    HW3 2359   1.994   0.754   0.931  1.1179  0.9759 -0.0807
    1SOL    MW4 2360   2.002   0.756   0.845  0.3145  0.6791 -0.1667
    1SOL     OW 2361   1.808   0.919   1.197  0.2375  0.1860  0.3288
    1SOL    HW2 2362   1.800   0.902   1.291 -1.1187 -1.3137 -0.0339
    1SOL    HW3 2363   1.888   0.873   1.171  0.8423  0.9520  0.8165
    1SOL    MW4 2364   1.817   0.911   1.206  0.1383  0.0893  0.3453
    1SOL     OW 2365   1.789   1.184   1.141  0.5023  0.2126 -0.0056
    1SOL    HW2 2366   1.808   1.094   1.167  0.5018  0.2233  0.0320
    1SOL    HW3 2367   1.798   1.184   1.046  1.9683  0.5249  0.1149
    1SOL    MW4 2368   1.793   1.172   1.132  0.6956  0.2553  0.0153
    1SOL     OW 2369   2.010   1.298   1.243 -0.4181 -0.1900  0.0903
    1SOL    HW2 2370   2.087   1.250   1.213 -0.7540 -0.0970 -0.9394
    1SOL    HW3 2371   1.937   1.262   1.191 -0.6684  1.4330 -0.6992
    1SOL    MW4 2372   2.010   1.287   1.232 -0.4957  0.0364 -0.1497
    1SOL     OW 2373   2.038   1.554   1.111 -0.2279 -0.1748 -0.5321
    1SOL    HW2 2374   2.034   1.466   1.148 -1.0796  0.2278  0.3586
    1SOL    HW3 2375   2.072   1.542   1.022  0.1534 -1.3384 -0.2260
    1SOL    MW4 2376   2.042   1.541   1.104 -0.2899 -0.2754 -0.3742
    1SOL     OW 2377   1.783   1.643   1.188 -0.0746  0.1352 -0.3696
    1SOL    HW2 2378   1.781   1.736   1.165  0.0322  0.3055  0.3223
    1SOL    HW3 2379   1.862   1.610   1.145 -0.6372  0.1429 -1.4467
    1SOL    MW4 2380   1.793   1.651   1.179 -0.1348  0.1587 -0.4206
    1SOL     OW 2381   1.785   1.941   1.165 -0.1635  0.3080  0.1569
    1SOL    HW2 2382   1.702   1.970   1.202 -0.6868 -1.4879  0.4315
    1SOL    HW3 2383   1.781   1.970   1.073 -0.9460  0.5223  0.2517
    1SOL    MW4 2384   1.773   1.949   1.158 -0.3358  0.0995  0.2055
    1SOL     OW 2385   1.996   2.064   1.284  0.3177 -0.0659  0.1691
    1SOL    HW2 2386   1.980   2.039   1.375 -0.0382  0.7684  0.3431
    1SOL    HW3 2387   1.927   2.019   1.235  0.6378 -0.6897  0.2748
    1SOL    MW4 2388   1.985   2.055   1.290  0.3130 -0.0379  0.2059
    1SOL     OW 2389   2.016   2.327   1.203  0.0902  0.0666  0.1484
    1SOL    HW2 2390   2.094   2.367   1.241  0.4438 -0.0726 -0.4278
    1SOL    HW3 2391   2.012   2.240   1.242  1.6371 -0.8652 -1.7121
    1SOL    MW4 2392   2.026   2.321   1.213  0.3409 -0.0746 -0.1732
    1SOL     OW 2393   1.788   2.495   1.272 -0.2349  0.7577 -0.0580
    1SOL    HW2 2394   1.869   2.445   1.262 -0.0071  0.9399  0.8378
    1SOL    HW3 2395   1.719   2.435   1.244  0.1091  0.2192  0.2310
    1SOL    MW4 2396   1.790   2.480   1.267 -0.1596  0.7110  0.0983
    1SOL     OW 2397   1.788   2.725   1.126  0.1939 -0.3689  0.2118
    1SOL    HW2 2398   1.793   2.644   1.177  2.2014 -0.0230  0.5888
    1SOL    HW3 2399   1.788   2.696   1.034  1.2274 -0.7725  0.3422
    1SOL    MW4 2400   1.789   2.711   1.120  0.5950 -0.3762  0.2787
    1SOL     OW 2401   1.999   2.850   1.261  0.2119  0.2443 -0.6707
    1SOL    HW2 2402   2.005   2.937   1.222 -1.2160  0.9446  0.6104
    1SOL    HW3 2403   1.925   2.808   1.217 -1.3142  0.9848  1.1019
    1SOL    MW4 2404   1.990   2.856   1.250 -0.1777  0.4344 -0.2677
    1SOL     OW 2405   2.004   3.101   1.164  0.0616 -0.1790 -0.3281
    1SOL    HW2 2406   1.915   3.134   1.176  1.0239  1.8703  1.5611
    1SOL    HW3 2407   2.020   3.109   1.069 -1.1694  1.0591 -0.4540
    1SOL    MW4 2408   1.994   3.107   1.153  0.0261  0.2546 -0.0956
    1SOL     OW 2409   1.750   3.204   1.196  0.1186  0.1979  0.0462
    1SOL    HW2 2410   1.769   3.202   1.290  0.1628 -0.3784  0.0242
    1SOL    HW3 2411   1.790   3.286   1.166 -1.0239  1.0300  0.7603
    1SOL    MW4 2412   1.758   3.215   1.205 -0.0262  0.2317  0.1377
    1SOL     OW 2413   1.820   3.438   1.110  0.2603  0.1792 -0.2449
    1SOL    HW2 2414   1.893   3.472   1.161 -0.1032  1.0233 -0.2731
    1SOL    HW3 2415   1.748   3.499   1.129 -0.7772 -1.3044  0.7218
    1SOL    MW4 2416   1.820   3.451   1.119  0.0755  0.0949 -0.1210
    1SOL     OW 2417   2.039   3.544   1.234  0.2438  0.4748 -0.3193
    1SOL    HW2 2418   2.051   3.545   1.328  1.3254  0.0067 -0.4435
    1SOL    HW3 2419   2.118   3.502   1.200  0.1472  1.1884 -1.4674
    1SOL    MW4 2420   2.051   3.539   1.242  0.3736  0.5069 -0.4872
    1SOL     OW 2421   2.006   3.805   1.127  0.5801 -0.1520  0.3384
    1SOL    HW2 2422   1.938   3.859   1.167 -1.0236 -0.4076 -1.9225
    1SOL    HW3 2423   1.999   3.720   1.171 -1.3669 -0.5292 -0.6329
    1SOL    MW4 2424   1.996   3.801   1.138  0.1117 -0.2356 -0.0880
    1SOL     OW 2425   1.808   3.991   1.207  0.0397  0.2537 -0.1019
    1SOL    HW2 2426   1.805   3.985   1.302  1.2225  0.8026 -0.0242
    1SOL    HW3 2427   1.729   3.945   1.177  0.1283 -0.6908  1.0954
    1SOL    MW4 2428   1.797   3.984   1.215  0.2074  0.2015  0.0663
    1SOL     OW 2429   1.785   4.249   1.146  0.4005  0.0911  0.0998
    1SOL    HW2 2430   1.797   4.158   1.171  0.9262  0.3599  0.8335
    1SOL    HW3 2431   1.729   4.285   1.215 -0.2295  0.1957 -0.4611
    1SOL    MW4 2432   1.779   4.242   1.158  0.3868  0.1402  0.1225
    1SOL     OW 2433   2.029   4.331   1.242  0.1061 -0.5315  0.0703
    1SOL    HW2 2434   2.025   4.364   1.332  0.1401  0.5173 -0.3059
    1SOL    HW3 2435   1.939   4.303   1.224 -0.2859  0.7970 -0.1259
    1SOL    MW4 2436   2.016   4.332   1.252  0.0589 -0.2179 -0.0052
    1SOL     OW 2437   2.430   4.623   1.114  0.1367  0.5435  0.0606
    1SOL    HW2 2438   2.505   4.674   1.143  0.3345 -0.4736  1.3736
    1SOL    HW3 2439   2.357   4.654   1.168  0.3617 -0.8838  1.2118
    1SOL    MW4 2440   2.430   4.633   1.125  0.1924  0.2213  0.3856
    1SOL     OW 2441   2.218   0.071   1.231  0.0133  0.1142 -0.1511
    1SOL    HW2 2442   2.218   0.161   1.199  0.0662  0.0458 -0.3443
    1SOL    HW3 2443   2.139   0.032   1.194 -1.0677  0.6425  1.5272
    1SOL    MW4 2444   2.208   0.078   1.222 -0.1221  0.1749  0.0448
    1SOL     OW 2445   2.016   0.510   1.213 -0.3985  0.0009 -0.4007
    1SOL    HW2 2446   2.011   0.490   1.306  0.5236 -0.3403 -0.4274
    1SOL    HW3 2447   1.936   0.471   1.176 -0.8362  0.2544  0.2565
    1SOL    MW4 2448   2.005   0.502   1.220 -0.3345 -0.0107 -0.3175
    1SOL     OW 2449   2.458   0.469   1.214  0.5472  0.7020  0.0192
    1SOL    HW2 2450   2.451   0.475   1.309  0.7917 -0.0550  0.0935
    1SOL    HW3 2451   2.376   0.428   1.186  0.6795  0.4811 -0.0468
    1SOL    MW4 2452   2.446   0.464   1.223  0.5970  0.5730  0.0204
    1SOL     OW 2453   2.452   0.747   1.111  0.3364  0.5149 -0.5365
    1SOL    HW2 2454   2.445   0.661   1.151  0.1987  1.1017  0.7193
    1SOL    HW3 2455   2.461   0.729   1.017  1.8935 -0.9264 -0.1474
    1SOL    MW4 2456   2.452   0.733   1.104  0.5238  0.4022 -0.3194
    1SOL     OW 2457   2.245   0.891   1.201 -0.8164  0.0536 -0.6086
    1SOL    HW2 2458   2.231   0.866   1.292 -1.7865 -0.2818 -0.8480
    1SOL    HW3 2459   2.315   0.833   1.171 -1.1283 -0.4679 -0.3419
    1SOL    MW4 2460   2.252   0.880   1.209 -0.9856 -0.0595 -0.6049
    1SOL     OW 2461   2.229   1.157   1.142 -0.2739 -0.0338 -0.2918
    1SOL    HW2 2462   2.308   1.200   1.175 -0.9170  0.2185  0.9492
    1SOL    HW3 2463   2.240   1.065   1.167 -0.0741 -0.1164 -0.6871
    1SOL    MW4 2464   2.241   1.150   1.150 -0.3324 -0.0113 -0.1802
    1SOL     OW 2465   2.443   1.272   1.283  0.1913  0.0452 -0.1129
    1SOL    HW2 2466   2.505   1.222   1.231 -0.8678 -0.0602 -1.2941
    1SOL    HW3 2467   2.442   1.359   1.242  1.2019  0.7058  1.2496
    1SOL    MW4 2468   2.451   1.277   1.271  0.1850  0.1185 -0.0889
    1SOL     OW 2469   2.445   1.508   1.119  0.0159  0.1760  0.3291
    1SOL    HW2 2470   2.384   1.581   1.133 -0.2027 -0.0103  0.3427
    1SOL    HW3 2471   2.455   1.502   1.024  1.1310  1.1326  0.3659
    1SOL    MW4 2472   2.439   1.517   1.109  0.1342  0.2775  0.3358
    1SOL     OW 2473   2.241   1.679   1.246 -0.0908 -0.4777  0.3588
    1SOL    HW2 2474   2.231   1.769   1.214  0.2933  0.5064  2.8817
    1SOL    HW3 2475   2.173   1.630   1.200 -0.3117  1.0976 -1.0568
    1SOL    MW4 2476   2.230   1.684   1.235 -0.0691 -0.1401  0.5050
    1SOL     OW 2477   2.216   1.942   1.128 -0.4515  0.3037  0.0411
    1SOL    HW2 2478   2.143   1.984   1.173 -1.4930  1.1789 -2.4217
    1SOL    HW3 2479   2.185   1.928   1.039  1.6772 -1.1601 -0.5061
    1SOL    MW4 2480   2.202   1.946   1.122 -0.3080  0.2258 -0.3561
    1SOL     OW 2481   2.446   2.055   1.253 -0.3588 -0.3706 -0.3071
    1SOL    HW2 2482   2.514   2.010   1.203 -0.1123 -0.8115  0.4234
    1SOL    HW3 2483   2.364   2.028   1.211 -0.0164  1.6907 -2.4349
    1SOL    MW4 2484   2.444   2.046   1.241 -0.2809 -0.1569 -0.4914
    1SOL     OW 2485   2.395   2.307   1.163 -0.0617 -0.1079  0.3054
    1SOL    HW2 2486   2.408   2.220   1.201  0.9194 -0.3246 -0.5086
    1SOL    HW3 2487   2.367   2.290   1.073  0.9541  0.4100 -0.1184
    1SOL    MW4 2488   2.393   2.293   1.156  0.2015 -0.0682  0.1420
    1SOL     OW 2489   2.231   2.474   1.303 -0.5825  0.0373 -0.1430
    1SOL    HW2 2490   2.246   2.467   1.397 -1.6720 -2.5925 -0.1158
    1SOL    HW3 2491   2.288   2.406   1.265 -2.5251 -1.1050 -1.0860
    1SOL    MW4 2492   2.241   2.464   1.310 -0.9825 -0.4604 -0.2638
    1SOL     OW 2493   2.235   2.712   1.183  0.0479  0.2902 -0.1686
    1SOL    HW2 2494   2.236   2.628   1.229 -1.3521  0.0670 -0.5276
    1SOL    HW3 2495   2.157   2.756   1.217 -0.6187  0.4031 -1.8182
    1SOL    MW4 2496   2.225   2.707   1.194 -0.2248  0.2756 -0.4336
    1SOL     OW 2497   2.484   2.806   1.261 -0.4383 -0.1677 -0.2294
    1SOL    HW2 2498   2.475   2.812   1.357 -1.5759 -0.8859 -0.2784
    1SOL    HW3 2499   2.395   2.786   1.231 -0.4043  1.5850 -1.5606
    1SOL    MW4 2500   2.471   2.804   1.270 -0.5839 -0.0310 -0.4115
    1SOL     OW 2501   2.512   3.066   1.157 -0.1678  0.4675  0.2325
    1SOL    HW2 2502   2.424   3.097   1.180 -0.8810 -1.4457  0.2483
    1SOL    HW3 2503   2.518   2.980   1.199  1.7190  0.5715  0.2136
    1SOL    MW4 2504   2.501   3.059   1.165 -0.0131  0.2289  0.2321
    1SOL     OW 2505   2.275   3.180   1.226 -0.1979 -0.2886 -0.1598
    1SOL    HW2 2506   2.281   3.269   1.191 -1.3689 -0.3682 -0.5927
    1SOL    HW3 2507   2.185   3.153   1.207  0.0891 -1.4917  0.1468
    1SOL    MW4 2508   2.264   3.188   1.218 -0.3145 -0.4578 -0.1764
    1SOL     OW 2509   2.271   3.448   1.147  0.7651  0.5221 -0.4660
    1SOL    HW2 2510   2.356   3.487   1.167  0.8342  0.7589 -1.2350
    1SOL    HW3 2511   2.259   3.462   1.053  0.2460 -0.2337 -0.5154
    1SOL    MW4 2512   2.281   3.455   1.138  0.7062  0.4535 -0.5740
    1SOL     OW 2513   2.513   3.546   1.222  0.2812  0.2343 -0.2926
    1SOL    HW2 2514   2.481   3.539   1.312  0.0736  0.7329 -0.3249
    1SOL    HW3 2515   2.501   3.638   1.200 -1.7776 -0.3319 -1.6179
    1SOL    MW4 2516   2.507   3.557   1.231 -0.0181  0.2253 -0.4717
    1SOL     OW 2517   2.478   3.807   1.170 -0.0851 -0.0578  0.1132
    1SOL    HW2 2518   2.390   3.833   1.197 -0.3802 -1.2130  0.2792
    1SOL    HW3 2519   2.481   3.829   1.077 -1.1927 -1.6445 -0.3278
    1SOL    MW4 2520   2.467   3.813   1.161 -0.2701 -0.4196  0.0769
    1SOL     OW 2521   2.236   3.933   1.223 -0.4344  0.1413  0.4897
    1SOL    HW2 2522   2.229   4.022   1.187 -0.1197  0.4678  1.2303
    1SOL    HW3 2523   2.164   3.885   1.182  0.0626  0.4427 -0.7652
    1SOL    MW4 2524   2.226   3.938   1.213 -0.3273  0.2241  0.4219
    1SOL     OW 2525   2.227   4.188   1.102 -0.5921  0.1432 -0.1341
    1SOL    HW2 2526   2.154   4.245   1.126 -1.5654 -1.1890  0.1441
    1SOL    HW3 2527   2.232   4.194   1.007 -0.6022  0.8015 -0.0915
    1SOL    MW4 2528   2.218   4.196   1.093 -0.7219  0.0539 -0.0919
    1SOL     OW 2529   2.441   4.361   1.193 -0.0003  0.0854 -0.0648
    1SOL    HW2 2530   2.373   4.308   1.152 -0.2154  0.4601 -0.1942
    1SOL    HW3 2531   2.432   4.447   1.152  1.4024 -0.2151 -1.0577
    1SOL    MW4 2532   2.431   4.365   1.182  0.1566  0.0958 -0.2128
    1SOL     OW 2533   2.880   0.010   1.106 -0.6451 -0.0308 -0.0073
    1SOL    HW2 2534   2.874  -0.078   1.143  0.0469  0.4005  1.1605
    1SOL    HW3 2535   2.888  -0.004   1.011  1.2011 -1.3012  0.3122
    1SOL    MW4 2536   2.881  -0.003   1.098 -0.3102 -0.1416  0.1888
    1SOL     OW 2537   2.662   0.115   1.223  0.1444 -0.0310 -0.2502
    1SOL    HW2 2538   2.665   0.118   1.319  1.1228  0.7710 -0.3001
    1SOL    HW3 2539   2.738   0.063   1.198 -0.1200 -0.2541 -0.5868
    1SOL    MW4 2540   2.672   0.109   1.232  0.2384  0.0454 -0.3010
    1SOL     OW 2541   2.680   0.363   1.075 -0.0541  0.6646  0.8055
    1SOL    HW2 2542   2.667   0.278   1.118  0.2123  0.7502  1.0605
    1SOL    HW3 2543   2.601   0.413   1.095 -0.2417  0.4506  0.5959
    1SOL    MW4 2544   2.668   0.358   1.083 -0.0434  0.6477  0.8116
    1SOL     OW 2545   2.884   0.490   1.208  0.1953 -0.4837  0.5083
    1SOL    HW2 2546   2.873   0.574   1.162 -0.3712 -0.7150  0.2267
    1SOL    HW3 2547   2.817   0.433   1.171  0.1800 -0.8779  1.1439
    1SOL    MW4 2548   2.874   0.494   1.197  0.1183 -0.5663  0.5552
    1SOL     OW 2549   2.849   0.748   1.095 -0.0434  0.3069 -0.3253
    1SOL    HW2 2550   2.927   0.798   1.121 -0.2426  0.2541  0.3861
    1SOL    HW3 2551   2.780   0.780   1.153 -0.5933  0.4696 -1.0633
    1SOL    MW4 2552   2.850   0.759   1.107 -0.1423  0.3214 -0.3288
    1SOL     OW 2553   2.661   0.878   1.258  0.2389 -0.4787 -0.1772
    1SOL    HW2 2554   2.683   0.967   1.230 -0.7226  0.4412  1.9183
    1SOL    HW3 2555   2.587   0.854   1.202  0.1874  0.2217 -0.4231
    1SOL    MW4 2556   2.654   0.887   1.247  0.1051 -0.2649  0.0669
    1SOL     OW 2557   2.681   1.167   1.173 -0.0696  0.1278  0.5426
    1SOL    HW2 2558   2.667   1.153   1.079 -1.3575  0.3439  0.6906
    1SOL    HW3 2559   2.770   1.202   1.179  0.2816 -0.5577 -0.5290
    1SOL    MW4 2560   2.691   1.170   1.161 -0.1934  0.0658  0.4207
    1SOL     OW 2561   2.917   1.292   1.221  0.8353 -0.2697  0.2712
    1SOL    HW2 2562   2.913   1.290   1.317 -1.0732 -0.2456  0.2146
    1SOL    HW3 2563   2.901   1.383   1.198  0.3049 -0.4629 -0.1112
    1SOL    MW4 2564   2.915   1.303   1.231  0.5133 -0.2921  0.2133
    1SOL     OW 2565   2.925   1.553   1.123 -0.1509 -0.0201  0.5781
    1SOL    HW2 2566   3.009   1.594   1.147 -0.8347  1.5769  0.3578
    1SOL    HW3 2567   2.937   1.530   1.030  0.0790  0.1219  0.5699
    1SOL    MW4 2568   2.938   1.556   1.114 -0.2108  0.2096  0.5480
    1SOL     OW 2569   2.670   1.662   1.211 -0.0005 -0.1390 -0.9039
    1SOL    HW2 2570   2.760   1.648   1.181  0.3106 -0.3560  0.1143
    1SOL    HW3 2571   2.618   1.598   1.163  0.2548  0.5257 -2.1021
    1SOL    MW4 2572   2.675   1.652   1.201  0.0741 -0.0800 -0.9276
    1SOL     OW 2573   2.666   1.924   1.125  0.0187  0.1864  0.3438
    1SOL    HW2 2574   2.747   1.946   1.170  0.0449 -0.3862  0.5679
    1SOL    HW3 2575   2.651   1.832   1.145  0.2317 -0.1810 -1.1127
    1SOL    MW4 2576   2.675   1.915   1.133  0.0505  0.0625  0.1811
    1SOL     OW 2577   2.904   2.019   1.238 -0.6906  0.7317 -0.1129
    1SOL    HW2 2578   2.896   2.021   1.334  2.0866  0.0749  0.1941
    1SOL    HW3 2579   2.887   2.109   1.211 -2.2216  0.7750  0.9217
    1SOL    MW4 2580   2.901   2.031   1.247 -0.5262  0.6509  0.0640
    1SOL     OW 2581   2.847   2.275   1.122  0.2707  0.2050 -0.4642
    1SOL    HW2 2582   2.923   2.331   1.132 -0.2818  1.2246 -1.6967
    1SOL    HW3 2583   2.779   2.316   1.175  0.2897 -0.1163 -0.1930
    1SOL    MW4 2584   2.848   2.288   1.130  0.2000  0.2971 -0.5910
    1SOL     OW 2585   2.653   2.404   1.261 -0.1410 -0.1264 -0.4199
    1SOL    HW2 2586   2.644   2.411   1.356 -0.3489 -0.2649 -0.4297
    1SOL    HW3 2587   2.568   2.371   1.231  0.5459 -1.9432 -0.4599
    1SOL    MW4 2588   2.641   2.400   1.270 -0.0780 -0.3843 -0.4265
    1SOL     OW 2589   2.699   2.655   1.155 -0.2496 -0.6947 -0.1932
    1SOL    HW2 2590   2.696   2.569   1.197  1.3257 -0.9835 -0.6046
    1SOL    HW3 2591   2.627   2.704   1.194 -0.8694 -2.0443  0.4003
    1SOL    MW4 2592   2.689   2.650   1.165 -0.1237 -0.9110 -0.1692
    1SOL     OW 2593   2.923   2.809   1.225  0.3001 -0.4964  0.2731
    1SOL    HW2 2594   2.911   2.801   1.320  1.2667 -0.9751  0.3544
    1SOL    HW3 2595   2.853   2.755   1.188 -0.1889 -0.1684  0.7058
    1SOL    MW4 2596   2.912   2.801   1.233  0.3631 -0.5162  0.3409
    1SOL     OW 2597   2.988   3.055   1.111 -0.3605 -0.1398 -0.1308
    1SOL    HW2 2598   2.966   2.971   1.150 -0.5027  0.1409  0.4013
    1SOL    HW3 2599   2.963   3.047   1.019 -0.4578 -0.6451 -0.0596
    1SOL    MW4 2600   2.982   3.043   1.104 -0.3920 -0.1693 -0.0511
    1SOL     OW 2601   2.749   3.189   1.227  0.7939 -0.2554  0.0315
    1SOL    HW2 2602   2.822   3.145   1.183  0.5183  0.1447 -0.8290
    1SOL    HW3 2603   2.671   3.154   1.185  0.5202  0.0536  0.2792
    1SOL    MW4 2604   2.748   3.178   1.216  0.7215 -0.1619 -0.0495
    1SOL     OW 2605   2.741   3.439   1.108 -0.4553  0.3827 -0.2313
    1SOL    HW2 2606   2.759   3.355   1.152 -0.4683 -0.1364 -1.2063
    1SOL    HW3 2607   2.664   3.473   1.152 -2.1263 -1.4438 -1.6242
    1SOL    MW4 2608   2.733   3.432   1.120 -0.6776  0.0734 -0.5437
    1SOL     OW 2609   2.937   3.625   1.193  0.1037 -0.2291  0.1800
    1SOL    HW2 2610   3.030   3.607   1.177  0.3498  2.2864 -1.5358
    1SOL    HW3 2611   2.892   3.548   1.158  1.5070 -1.1141  0.2897
    1SOL    MW4 2612   2.943   3.612   1.186  0.3214 -0.0141 -0.0319
    1SOL     OW 2613   2.903   3.882   1.084 -0.0492  0.0217  0.1447
    1SOL    HW2 2614   2.976   3.935   1.115 -0.8303  0.8550  0.5648
    1SOL    HW3 2615   2.911   3.800   1.132  0.0530  0.4667  0.8953
    1SOL    MW4 2616   2.913   3.878   1.094 -0.1385  0.1903  0.2991
    1SOL     OW 2617   2.683   3.965   1.243 -0.3012 -0.0072 -0.1800
    1SOL    HW2 2618   2.762   3.940   1.194  0.5115 -1.4753  1.8386
    1SOL    HW3 2619   2.619   3.897   1.221  0.2233 -0.9541  1.1251
    1SOL    MW4 2620   2.685   3.952   1.233 -0.1247 -0.3259  0.2586
    1SOL     OW 2621   2.688   4.235   1.179 -0.4752 -0.6273 -0.3286
    1SOL    HW2 2622   2.682   4.144   1.206 -1.4839 -0.0937  1.3561
    1SOL    HW3 2623   2.598   4.268   1.189  0.0129  0.7014 -0.2670
    1SOL    MW4 2624   2.675   4.227   1.184 -0.5436 -0.3815 -0.0982
    1SOL     OW 2625   2.878   4.419   1.231 -0.0187  0.1289  0.3178
    1SOL    HW2 2626   2.957   4.380   1.195  0.8974  0.6806  1.6735
    1SOL    HW3 2627   2.807   4.363   1.200  0.8945 -0.3412 -0.9526
    1SOL    MW4 2628   2.879   4.407   1.222  0.2229  0.1397  0.3290
    1SOL     OW 2629   3.352   4.655   1.079 -0.1517  0.2078 -0.0079
    1SOL    HW2 2630   3.426   4.707   1.111  0.0188 -0.8582  1.3842
    1SOL    HW3 2631   3.275   4.695   1.119 -0.0883 -0.2141  0.5271
    1SOL    MW4 2632   3.352   4.667   1.088 -0.1206  0.0119  0.2465
    1SOL     OW 2633   3.139   0.126   1.181  0.2172  0.4632 -0.0946
    1SOL    HW2 2634   3.140   0.125   1.277  0.5383  0.4497 -0.0966
    1SOL    HW3 2635   3.060   0.076   1.158 -0.6109  1.6364  0.1659
    1SOL    MW4 2636   3.129   0.119   1.191  0.1504  0.6162 -0.0604
    1SOL     OW 2637   3.137   0.396   1.132  0.1109 -0.2647 -0.1544
    1SOL    HW2 2638   3.126   0.304   1.156  2.4103 -0.3917  0.5191
    1SOL    HW3 2639   3.054   0.437   1.157 -1.1790 -2.2312 -0.9845
    1SOL    MW4 2640   3.124   0.389   1.138  0.2439 -0.5409 -0.1751
    1SOL     OW 2641   3.372   0.529   1.203 -0.0592  0.1503  0.1085
    1SOL    HW2 2642   3.360   0.610   1.152 -1.0814  0.3084  0.5827
    1SOL    HW3 2643   3.288   0.483   1.194 -0.7015  0.7607  2.6559
    1SOL    MW4 2644   3.359   0.534   1.195 -0.2787  0.2517  0.5072
    1SOL     OW 2645   3.332   0.767   1.105 -0.3142  0.5417  0.2543
    1SOL    HW2 2646   3.330   0.785   1.011  0.1335 -1.2439 -0.1065
    1SOL    HW3 2647   3.242   0.782   1.134 -0.7665 -0.2620 -0.7149
    1SOL    MW4 2648   3.320   0.772   1.096 -0.3147  0.2000  0.0789
    1SOL     OW 2649   3.075   0.877   1.209 -0.5761  0.2836 -0.4618
    1SOL    HW2 2650   3.063   0.878   1.304  0.5426  0.3676 -0.3230
    1SOL    HW3 2651   3.068   0.969   1.183  0.7482  0.4453 -0.2568
    1SOL    MW4 2652   3.072   0.890   1.218 -0.2537  0.3160 -0.4164
    1SOL     OW 2653   3.107   1.134   1.104 -0.0776 -0.4853  0.4056
    1SOL    HW2 2654   3.192   1.159   1.142 -0.0133 -1.0511  0.6367
    1SOL    HW3 2655   3.047   1.203   1.133  0.0728 -0.6635  1.1673
    1SOL    MW4 2656   3.110   1.146   1.113 -0.0494 -0.5835  0.5366
    1SOL     OW 2657   3.360   1.242   1.178  0.4936  0.2445  0.3843
    1SOL    HW2 2658   3.356   1.227   1.273 -1.3112  0.5918  0.3757
    1SOL    HW3 2659   3.371   1.337   1.170  1.6804  0.1033  0.2526
    1SOL    MW4 2660   3.361   1.253   1.190  0.4120  0.2717  0.3659
    1SOL     OW 2661   3.390   1.518   1.119 -0.2870 -0.1040 -0.4378
    1SOL    HW2 2662   3.463   1.567   1.155 -0.2755 -0.7872  0.4827
    1SOL    HW3 2663   3.312   1.560   1.156 -0.3149 -0.0767 -0.5288
    1SOL    MW4 2664   3.389   1.530   1.129 -0.2887 -0.1905 -0.3284
    1SOL     OW 2665   3.164   1.671   1.196 -0.2988  0.0908  0.4814
    1SOL    HW2 2666   3.138   1.677   1.287  1.2208  1.8053  0.8492
    1SOL    HW3 2667   3.132   1.752   1.156 -0.4107 -0.3562 -0.3523
    1SOL    MW4 2668   3.157   1.683   1.202 -0.1130  0.2580  0.4200
    1SOL     OW 2669   3.107   1.907   1.064 -0.3768 -0.3065  0.3782
    1SOL    HW2 2670   3.183   1.959   1.092  0.7761 -1.8897  0.2991
    1SOL    HW3 2671   3.032   1.954   1.100  0.6008  1.5021  0.1514
    1SOL    MW4 2672   3.107   1.920   1.073 -0.0956 -0.2768  0.3376
    1SOL     OW 2673   3.328   2.045   1.166 -0.1831  0.0201 -0.3880
    1SOL    HW2 2674   3.405   2.012   1.119 -0.6037  0.8819 -1.6857
    1SOL    HW3 2675   3.326   2.139   1.147  0.3268  0.6411  2.3116
    1SOL    MW4 2676   3.338   2.053   1.158 -0.1714  0.2158 -0.2030
    1SOL     OW 2677   3.319   2.320   1.074  0.1143  0.1906  0.2177
    1SOL    HW2 2678   3.383   2.383   1.106  0.7349 -1.5063  2.4420
    1SOL    HW3 2679   3.237   2.345   1.115  0.2563 -0.1398  0.7081
    1SOL    MW4 2680   3.317   2.331   1.084  0.2146 -0.0768  0.5759
    1SOL     OW 2681   3.086   2.415   1.190 -0.0658 -0.5061  0.2521
    1SOL    HW2 2682   3.114   2.407   1.281  1.0713 -1.4882 -0.1724
    1SOL    HW3 2683   3.113   2.504   1.165  0.2725 -0.4941  0.6502
    1SOL    MW4 2684   3.093   2.426   1.199  0.1287 -0.6342  0.2487
    1SOL     OW 2685   3.157   2.700   1.108 -0.3357 -0.0498  0.5177
    1SOL    HW2 2686   3.068   2.719   1.138 -0.7527  0.9495 -1.2996
    1SOL    HW3 2687   3.150   2.698   1.012  1.8128  1.2017  0.3132
    1SOL    MW4 2688   3.144   2.702   1.099 -0.1070  0.2470  0.2511
    1SOL     OW 2689   3.368   2.843   1.207  0.2273  0.3326 -0.1736
    1SOL    HW2 2690   3.359   2.936   1.188 -0.9909  0.5246  1.2916
    1SOL    HW3 2691   3.296   2.801   1.159 -1.1077  0.5070  1.6226
    1SOL    MW4 2692   3.357   2.850   1.198 -0.1094  0.3810  0.2568
    1SOL     OW 2693   3.367   3.108   1.158 -0.7542 -0.2199 -0.3712
    1SOL    HW2 2694   3.443   3.158   1.186 -1.0796 -0.5253  1.0875
    1SOL    HW3 2695   3.292   3.159   1.189 -1.1235 -0.4741 -0.8444
    1SOL    MW4 2696   3.367   3.121   1.166 -0.8461 -0.2937 -0.2412
    1SOL     OW 2697   3.155   3.256   1.232  0.4081  0.1631  0.1214
    1SOL    HW2 2698   3.131   3.262   1.324 -0.2340 -0.6262  0.0124
    1SOL    HW3 2699   3.090   3.196   1.194  1.5993 -0.7415 -0.5189
    1SOL    MW4 2700   3.143   3.249   1.239  0.4807 -0.0603  0.0226
    1SOL     OW 2701   3.201   3.517   1.154  0.0991  0.3364  0.5559
    1SOL    HW2 2702   3.279   3.557   1.192  0.7985 -1.6928  1.3108
    1SOL    HW3 2703   3.197   3.430   1.193 -2.5836  0.4274  0.5770
    1SOL    MW4 2704   3.211   3.511   1.164 -0.1624  0.0808  0.6582
    1SOL     OW 2705   3.411   3.641   1.265 -0.0253 -0.1291 -0.1138
    1SOL    HW2 2706   3.411   3.615   1.356  2.2422 -0.6467 -0.2361
    1SOL    HW3 2707   3.480   3.588   1.224 -0.6900  0.4205 -2.0098
    1SOL    MW4 2708   3.420   3.631   1.271  0.1864 -0.1249 -0.3800
    1SOL     OW 2709   3.368   3.912   1.111  0.2254  0.1598  0.3381
    1SOL    HW2 2710   3.382   3.832   1.161  1.6265  0.7384  0.8930
    1SOL    HW3 2711   3.283   3.944   1.141  1.1843  0.6653  2.5814
    1SOL    MW4 2712   3.358   3.905   1.122  0.5369  0.3030  0.7073
    1SOL     OW 2713   3.117   4.032   1.169 -0.3985 -0.1767 -0.1710
    1SOL    HW2 2714   3.100   4.027   1.263  1.5072  0.6827  0.2407
    1SOL    HW3 2715   3.135   4.125   1.154  2.6571 -0.8469 -0.7775
    1SOL    MW4 2716   3.117   4.044   1.180  0.2563 -0.1526 -0.1967
    1SOL     OW 2717   3.163   4.299   1.123 -0.0235  0.1264  0.3032
    1SOL    HW2 2718   3.253   4.323   1.144  0.3935  0.3516 -1.5893
    1SOL    HW3 2719   3.161   4.298   1.027 -2.1150  0.4141  0.3267
    1SOL    MW4 2720   3.175   4.302   1.113 -0.2446  0.1950  0.0566
    1SOL     OW 2721   3.408   4.429   1.228  0.2989 -0.2762 -0.1038
    1SOL    HW2 2722   3.474   4.398   1.166 -0.7365 -0.5203 -1.0931
    1SOL    HW3 2723   3.380   4.514   1.193 -0.2754 -0.4084  0.0330
    1SOL    MW4 2724   3.413   4.436   1.215  0.0863 -0.3262 -0.2162
    1SOL     OW 2725   3.791   4.650   1.059  0.2915 -0.0859 -0.3105
    1SOL    HW2 2726   3.822   4.564   1.089  0.0023 -0.0288  0.1556
    1SOL    HW3 2727   3.766   4.635   0.968 -1.6422 -0.9880  0.3401
    1SOL    MW4 2728   3.792   4.636   1.051 -0.0017 -0.1974 -0.1632
    1SOL     OW 2729   3.584   0.129   1.165  0.5045 -0.0059 -0.4328
    1SOL    HW2 2730   3.600   0.223   1.154 -0.9353  0.2724 -0.2693
    1SOL    HW3 2731   3.664   0.087   1.134  0.0880  1.1563 -3.1644
    1SOL    MW4 2732   3.597   0.136   1.160  0.2599  0.1841 -0.7715
    1SOL     OW 2733   3.602   0.394   1.153  0.5330  0.4864 -0.1905
    1SOL    HW2 2734   3.682   0.435   1.186  0.2507  0.6838  0.2530
    1SOL    HW3 2735   3.532   0.451   1.184  0.0972 -0.6168  0.8871
    1SOL    MW4 2736   3.604   0.407   1.162  0.4382  0.3669  0.0101
    1SOL     OW 2737   3.822   0.516   1.256 -0.3902  0.5277 -0.0242
    1SOL    HW2 2738   3.902   0.476   1.223  0.3646  1.5551  0.5581
    1SOL    HW3 2739   3.809   0.592   1.200 -1.1998  0.1377 -0.3842
    1SOL    MW4 2740   3.831   0.520   1.244 -0.3974  0.6118  0.0051
    1SOL     OW 2741   3.783   0.732   1.072  0.6144 -0.4409 -0.6023
    1SOL    HW2 2742   3.854   0.795   1.074  0.1804  0.0963 -1.5877
    1SOL    HW3 2743   3.714   0.772   1.126  1.0805 -0.9942  0.4108
    1SOL    MW4 2744   3.783   0.746   1.079  0.6187 -0.4430 -0.5985
    1SOL     OW 2745   3.573   0.852   1.201 -0.2624 -0.1063  0.4236
    1SOL    HW2 2746   3.575   0.943   1.174  0.6086 -0.7276 -1.7049
    1SOL    HW3 2747   3.487   0.820   1.172 -0.0175 -0.3159 -0.0801
    1SOL    MW4 2748   3.562   0.860   1.193 -0.1149 -0.2159  0.0763
    1SOL     OW 2749   3.594   1.115   1.117 -0.2021  0.0008 -0.0912
    1SOL    HW2 2750   3.667   1.175   1.128 -1.6533  1.6684  0.6997
    1SOL    HW3 2751   3.516   1.170   1.126 -1.5792 -2.0661  1.1144
    1SOL    MW4 2752   3.593   1.130   1.120 -0.5751 -0.0519  0.1721
    1SOL     OW 2753   3.786   1.293   1.175 -0.3349 -0.0847 -0.1248
    1SOL    HW2 2754   3.784   1.311   1.269  1.4079 -1.4005  0.1942
    1SOL    HW3 2755   3.787   1.379   1.134 -0.9717  0.5039  1.0654
    1SOL    MW4 2756   3.786   1.306   1.182 -0.1888 -0.1806  0.0744
    1SOL     OW 2757   3.799   1.543   1.072  0.3566 -0.0872  0.1931
    1SOL    HW2 2758   3.868   1.600   1.107 -2.6666  3.4176  0.7583
    1SOL    HW3 2759   3.819   1.536   0.979  2.2477 -0.3123  0.5889
    1SOL    MW4 2760   3.811   1.549   1.064  0.2069  0.3456  0.3200
    1SOL     OW 2761   3.596   1.689   1.222 -0.2297  0.4266 -0.1849
    1SOL    HW2 2762   3.570   1.766   1.170 -1.0400  0.5859  0.4394
    1SOL    HW3 2763   3.650   1.637   1.162 -0.7007  0.8715 -1.0146
    1SOL    MW4 2764   3.600   1.692   1.207 -0.3991  0.5063 -0.2120
    1SOL     OW 2765   3.549   1.940   1.051  0.4490 -0.0662 -0.0444
    1SOL    HW2 2766   3.620   1.992   1.088  1.0752 -0.0272 -1.3064
    1SOL    HW3 2767   3.565   1.939   0.957 -1.7768  0.7627 -0.4583
    1SOL    MW4 2768   3.560   1.947   1.044  0.2379  0.0483 -0.2656
    1SOL     OW 2769   4.003   1.973   1.081  0.1349  0.2185  0.2325
    1SOL    HW2 2770   3.921   2.012   1.110  0.6422  1.2106  0.3420
    1SOL    HW3 2771   3.997   1.882   1.109 -0.7188  0.4054  0.6726
    1SOL    MW4 2772   3.992   1.966   1.089  0.0892  0.3741  0.3051
    1SOL     OW 2773   3.752   2.085   1.180 -0.5896  0.1693 -0.1913
    1SOL    HW2 2774   3.753   2.180   1.172 -1.1111  0.1835 -0.1430
    1SOL    HW3 2775   3.774   2.068   1.272 -1.2189  0.2747 -0.0178
    1SOL    MW4 2776   3.755   2.095   1.191 -0.7415  0.1850 -0.1621
    1SOL     OW 2777   3.556   2.455   1.203 -0.2348  0.1541 -0.0323
    1SOL    HW2 2778   3.572   2.450   1.298 -1.7130 -0.5198  0.2031
    1SOL    HW3 2779   3.634   2.416   1.163 -1.0975 -2.8298  1.0454
    1SOL    MW4 2780   3.568   2.449   1.211 -0.5434 -0.3285  0.1410
    1SOL     OW 2781   3.595   2.726   1.122  0.0227 -0.1885  0.2512
    1SOL    HW2 2782   3.579   2.635   1.147 -1.6681  0.1819  0.5965
    1SOL    HW3 2783   3.523   2.775   1.163  0.4878  1.2010 -0.5525
    1SOL    MW4 2784   3.583   2.721   1.131 -0.1392  0.0436  0.1907
    1SOL     OW 2785   3.834   2.815   1.207 -0.3101 -0.2833 -0.1230
    1SOL    HW2 2786   3.821   2.837   1.299  0.5137 -1.4415  0.2897
    1SOL    HW3 2787   3.746   2.796   1.173 -0.6001  0.0649  0.4388
    1SOL    MW4 2788   3.821   2.815   1.214 -0.2396 -0.3905  0.0056
    1SOL     OW 2789   3.834   3.106   1.184 -0.1589  0.7399 -0.7288
    1SOL    HW2 2790   3.819   3.013   1.202  0.1428  0.7693 -0.3110
    1SOL    HW3 2791   3.814   3.116   1.091 -0.3675  0.2928 -0.7340
    1SOL    MW4 2792   3.829   3.095   1.174 -0.1466  0.6852 -0.6745
    1SOL     OW 2793   3.598   3.240   1.249 -0.1725  0.4069 -0.4215
    1SOL    HW2 2794   3.612   3.324   1.205  0.4921  1.5841  1.9833
    1SOL    HW3 2795   3.677   3.190   1.230 -0.5835  0.3017 -1.8884
    1SOL    MW4 2796   3.610   3.245   1.241 -0.1390  0.5484 -0.2977
    1SOL     OW 2797   3.596   3.490   1.114 -0.1371  0.2901 -0.2003
    1SOL    HW2 2798   3.678   3.537   1.131  0.8204 -1.1198 -0.8267
    1SOL    HW3 2799   3.582   3.500   1.020 -0.4324  0.1163 -0.1754
    1SOL    MW4 2800   3.605   3.498   1.104 -0.0494  0.0808 -0.2795
    1SOL     OW 2801   3.816   3.628   1.209 -0.3808  0.3880  0.0560
    1SOL    HW2 2802   3.817   3.623   1.304  0.7638  0.8285  0.0676
    1SOL    HW3 2803   3.821   3.721   1.189  0.7912  0.2192 -0.4567
    1SOL    MW4 2804   3.816   3.639   1.219 -0.0751  0.4237 -0.0101
    1SOL     OW 2805   3.819   3.885   1.087  0.0938  0.0815  0.1070
    1SOL    HW2 2806   3.750   3.934   1.132  0.6374  1.4397 -0.4886
    1SOL    HW3 2807   3.794   3.888   0.995  0.0661 -0.8857  0.0842
    1SOL    MW4 2808   3.807   3.892   1.081  0.1616  0.1330  0.0254
    1SOL     OW 2809   3.604   4.028   1.195  0.2310 -0.0875  0.4625
    1SOL    HW2 2810   3.619   4.032   1.289 -0.2136  1.9194  0.4712
    1SOL    HW3 2811   3.515   3.994   1.186  0.5712 -1.0635  0.7314
    1SOL    MW4 2812   3.595   4.024   1.206  0.2170  0.0491  0.4991
    1SOL     OW 2813   3.608   4.291   1.091  0.4078  0.2965  0.1926
    1SOL    HW2 2814   3.615   4.202   1.125 -0.2753  0.0725 -0.2351
    1SOL    HW3 2815   3.627   4.283   0.998  0.2947  0.5942  0.1422
    1SOL    MW4 2816   3.612   4.278   1.083  0.3030  0.3061  0.1296
    1SOL     OW 2817   3.839   4.393   1.209 -0.4165 -0.4932  0.0210
    1SOL    HW2 2818   3.842   4.412   1.303  1.1381 -0.9903  0.0870
    1SOL    HW3 2819   3.752   4.354   1.196 -1.1149  0.6832  1.0209
    1SOL    MW4 2820   3.828   4.390   1.220 -0.3033 -0.4039  0.1618
    1SOL     OW 2821   4.280   4.644   1.067  0.4294 -0.1077 -0.1160
    1SOL    HW2 2822   4.279   4.567   1.124  1.5879  0.8886  1.2795
    1SOL    HW3 2823   4.207   4.698   1.099  0.5340  0.0484 -0.1406
    1SOL    MW4 2824   4.270   4.641   1.079  0.5960  0.0448  0.0648
    1SOL     OW 2825   4.037   0.080   1.160  0.4604 -0.2964  0.3829
    1SOL    HW2 2826   4.030   0.055   1.252 -1.3474  0.3965  0.4546
    1SOL    HW3 2827   3.960   0.040   1.119  0.3337  0.8166 -0.4788
    1SOL    MW4 2828   4.026   0.071   1.167  0.2050 -0.0582  0.2787
    1SOL     OW 2829   4.037   0.370   1.148  0.3882  0.2099 -0.2073
    1SOL    HW2 2830   4.038   0.276   1.166  0.6859  0.1951 -0.2985
    1SOL    HW3 2831   4.043   0.376   1.052 -1.4746  0.2816 -0.3380
    1SOL    MW4 2832   4.038   0.358   1.138  0.1822  0.2174 -0.2365
    1SOL     OW 2833   4.281   0.490   1.227  0.1172  0.5312  0.1945
    1SOL    HW2 2834   4.279   0.501   1.322 -2.8619 -1.2247  0.4002
    1SOL    HW3 2835   4.199   0.445   1.206  1.9309 -1.5067 -2.9062
    1SOL    MW4 2836   4.270   0.486   1.236 -0.0367  0.0307 -0.1875
    1SOL     OW 2837   4.248   0.763   1.115  0.2693 -0.1652  0.8838
    1SOL    HW2 2838   4.255   0.676   1.154  2.3505  0.1152  1.2055
    1SOL    HW3 2839   4.331   0.806   1.137 -0.6302  1.8171  0.5292
    1SOL    MW4 2840   4.260   0.757   1.123  0.4253  0.1333  0.8794
    1SOL     OW 2841   4.006   0.878   1.186 -0.2488 -0.6467 -0.6369
    1SOL    HW2 2842   3.990   0.877   1.281 -0.4404  2.2429 -0.5883
    1SOL    HW3 2843   4.093   0.840   1.176 -0.4408 -1.4777  0.6394
    1SOL    MW4 2844   4.015   0.873   1.197 -0.2995 -0.3750 -0.4622
    1SOL     OW 2845   4.020   1.147   1.095  0.1781 -0.1090 -0.5635
    1SOL    HW2 2846   4.008   1.056   1.125  1.6168 -0.2392 -0.3549
    1SOL    HW3 2847   3.938   1.191   1.120 -0.6679 -1.4212 -0.9557
    1SOL    MW4 2848   4.007   1.140   1.103  0.2561 -0.2992 -0.5877
    1SOL     OW 2849   4.246   1.250   1.198 -0.7235  0.1756  0.0254
    1SOL    HW2 2850   4.241   1.261   1.293 -1.2538 -0.1196  0.0316
    1SOL    HW3 2851   4.155   1.235   1.171 -0.8494  2.2526 -0.7721
    1SOL    MW4 2852   4.233   1.250   1.207 -0.8097  0.4106 -0.0789
    1SOL     OW 2853   4.209   1.520   1.109  0.0080 -0.2059 -0.1773
    1SOL    HW2 2854   4.233   1.437   1.152 -1.2041  0.0337  0.9938
    1SOL    HW3 2855   4.283   1.578   1.127  0.9175 -1.0429 -1.0912
    1SOL    MW4 2856   4.222   1.516   1.117 -0.0315 -0.2847 -0.1435
    1SOL     OW 2857   4.002   1.704   1.163  0.0679 -0.1667  0.3991
    1SOL    HW2 2858   4.013   1.709   1.258  0.0979  0.7107  0.3568
    1SOL    HW3 2859   4.070   1.644   1.134 -0.2741 -0.8507  0.9897
    1SOL    MW4 2860   4.012   1.697   1.172  0.0262 -0.1410  0.4715
    1SOL     OW 2861   3.753   1.045   0.505  0.2295 -0.2885 -0.0668
    1SOL    HW2 2862   3.705   1.009   0.579  1.1726  0.2816  0.8417
    1SOL    HW3 2863   3.824   0.984   0.490  1.3389  0.7244  0.9379
    1SOL    MW4 2864   3.756   1.032   0.513  0.5002 -0.0796  0.1856
    1SOL     OW 2865   4.216   2.100   1.254 -0.0502 -0.3357 -0.1888
    1SOL    HW2 2866   4.251   2.164   1.192  1.2411 -1.4099 -0.5768
    1SOL    HW3 2867   4.143   2.059   1.207 -0.8533  0.7763  0.0417
    1SOL    MW4 2868   4.211   2.103   1.239  0.0138 -0.3304 -0.2097
    1SOL     OW 2869   4.255   2.326   1.094 -0.3255  0.3973 -0.0456
    1SOL    HW2 2870   4.179   2.360   1.139 -0.1464  1.2090 -0.3545
    1SOL    HW3 2871   4.241   2.348   1.002 -0.6580 -1.1811 -0.3949
    1SOL    MW4 2872   4.243   2.333   1.088 -0.3457  0.2961 -0.1323
    1SOL     OW 2873   4.047   2.437   1.250  0.0336 -0.2972 -0.4245
    1SOL    HW2 2874   4.065   2.426   1.343  1.8688 -0.3070 -0.7440
    1SOL    HW3 2875   4.055   2.531   1.235 -0.3396 -0.2866 -0.5627
    1SOL    MW4 2876   4.051   2.448   1.260  0.2270 -0.2975 -0.4849
    1SOL     OW 2877   4.076   2.694   1.161  0.3053  0.4252 -0.2236
    1SOL    HW2 2878   3.998   2.750   1.169  0.5732  0.8127 -0.3453
    1SOL    HW3 2879   4.070   2.658   1.073 -1.6382 -2.3575  0.9738
    1SOL    MW4 2880   4.065   2.697   1.151  0.0839  0.1092 -0.0817
    1SOL     OW 2881   4.261   2.868   1.266  0.2900 -0.0305  0.4142
    1SOL    HW2 2882   4.265   2.941   1.204 -0.7142 -0.1531  0.1881
    1SOL    HW3 2883   4.198   2.807   1.227 -1.2362  0.4152  2.0893
    1SOL    MW4 2884   4.253   2.870   1.252 -0.0443  0.0119  0.6052
    1SOL     OW 2885   4.299   3.108   1.123  0.0291  0.3734  0.0705
    1SOL    HW2 2886   4.229   3.160   1.162 -0.2206  0.3343 -0.3292
    1SOL    HW3 2887   4.274   3.097   1.032  0.8106  0.7926 -0.2016
    1SOL    MW4 2888   4.287   3.113   1.116  0.0997  0.4237 -0.0182
    1SOL     OW 2889   4.077   3.214   1.232  0.0525  0.1166  0.1172
    1SOL    HW2 2890   4.065   3.223   1.327 -2.2756  1.1417 -0.2505
    1SOL    HW3 2891   4.002   3.163   1.203  1.7113 -1.7745 -0.9461
    1SOL    MW4 2892   4.066   3.209   1.241 -0.0358  0.0024 -0.0716
    1SOL     OW 2893   4.023   3.465   1.122 -0.2165  0.2811  0.1657
    1SOL    HW2 2894   4.038   3.382   1.169  0.5666  0.8355  0.9105
    1SOL    HW3 2895   3.944   3.501   1.163 -0.9437 -0.4110 -0.6100
    1SOL    MW4 2896   4.015   3.459   1.134 -0.2093  0.2630  0.1615
    1SOL     OW 2897   4.268   3.608   1.237  0.4161 -0.3112 -0.1406
    1SOL    HW2 2898   4.196   3.565   1.191  0.6133 -0.2142 -0.5441
    1SOL    HW3 2899   4.347   3.564   1.205  0.5184 -0.6242  0.5302
    1SOL    MW4 2900   4.269   3.597   1.227  0.4559 -0.3397 -0.1053
    1SOL     OW 2901   4.259   3.839   1.087  0.0070 -0.2390  0.2425
    1SOL    HW2 2902   4.182   3.884   1.122  0.7506  0.2062  1.3309
    1SOL    HW3 2903   4.265   3.758   1.137  1.3650  0.6326  1.5514
    1SOL    MW4 2904   4.250   3.835   1.098  0.2842 -0.0656  0.5586
    1SOL     OW 2905   4.052   3.975   1.213 -0.1028  0.6928  0.0582
    1SOL    HW2 2906   4.050   4.066   1.183  2.3915  0.2791 -1.4792
    1SOL    HW3 2907   3.978   3.934   1.167 -0.1538  1.5192 -0.6287
    1SOL    MW4 2908   4.042   3.982   1.203  0.2193  0.7470 -0.2352
    1SOL     OW 2909   4.054   4.243   1.120 -0.0450 -0.5224 -0.0612
    1SOL    HW2 2910   3.977   4.294   1.146  0.3357  0.5055 -0.8904
    1SOL    HW3 2911   4.068   4.266   1.028  0.1151 -2.1726 -0.4708
    1SOL    MW4 2912   4.046   4.253   1.111  0.0257 -0.6046 -0.2246
    1SOL     OW 2913   4.273   4.399   1.219  0.1063 -0.0386 -0.0174
    1SOL    HW2 2914   4.205   4.346   1.178  1.2633 -1.4034 -0.2260
    1SOL    HW3 2915   4.355   4.356   1.194  1.0121  1.2025  0.7527
    1SOL    MW4 2916   4.275   4.386   1.210  0.3786 -0.0553  0.0567
    1SOL     OW 2917   0.219   4.637   1.597  0.1021 -0.7222 -0.3320
    1SOL    HW2 2918   0.293   4.692   1.570 -0.8558  1.8282  1.9742
    1SOL    HW3 2919   0.141   4.686   1.571 -0.7829 -1.5680  0.6427
    1SOL    MW4 2920   0.219   4.651   1.590 -0.1410 -0.4969  0.1009
    1SOL     OW 2921   0.007   0.115   1.500  0.0477  0.0197 -0.1506
    1SOL    HW2 2922  -0.077   0.084   1.535 -0.3179  0.3590 -0.7202
    1SOL    HW3 2923  -0.001   0.103   1.406 -0.3352  2.3936 -0.4465
    1SOL    MW4 2924  -0.005   0.109   1.492 -0.0510  0.3777 -0.2649
    1SOL     OW 2925   4.454   0.375   1.611  0.0226  0.4457  0.2971
    1SOL    HW2 2926   4.469   0.362   1.704 -2.3386 -1.0747  0.5223
    1SOL    HW3 2927   4.464   0.287   1.573  0.5937  0.9854 -0.8257
    1SOL    MW4 2928   4.457   0.361   1.618 -0.2136  0.3163  0.1787
    1SOL     OW 2929   0.213   0.500   1.519 -0.5161  0.7827 -0.1576
    1SOL    HW2 2930   0.142   0.444   1.550 -0.1777  0.5957  0.2898
    1SOL    HW3 2931   0.225   0.474   1.428 -0.4367  0.2040  0.0131
    1SOL    MW4 2932   0.205   0.489   1.511 -0.4610  0.6817 -0.0759
    1SOL     OW 2933   0.170   0.763   1.613 -0.7017 -0.1140  0.1672
    1SOL    HW2 2934   0.163   0.675   1.576  0.2293 -0.6328  1.2069
    1SOL    HW3 2935   0.244   0.802   1.567 -0.7561 -0.0668  0.1185
    1SOL    MW4 2936   0.179   0.757   1.602 -0.5861 -0.1762  0.2979
    1SOL     OW 2937   4.439   0.899   1.457 -0.2150  0.2094 -0.1494
    1SOL    HW2 2938   4.435   0.988   1.492  0.4186  0.6878 -1.2766
    1SOL    HW3 2939   4.502   0.854   1.514  0.3727  0.8184 -0.3167
    1SOL    MW4 2940   4.447   0.905   1.469 -0.0539  0.3529 -0.3202
    1SOL     OW 2941   4.427   1.151   1.557 -0.0499  0.2055  0.8445
    1SOL    HW2 2942   4.425   1.156   1.653  0.4464 -1.2315  0.9339
    1SOL    HW3 2943   4.516   1.178   1.534  0.2654 -0.8061  0.8734
    1SOL    MW4 2944   4.438   1.156   1.567  0.0572 -0.1175  0.8602
    1SOL     OW 2945   0.175   1.280   1.472  0.2835  0.1576 -0.1944
    1SOL    HW2 2946   0.252   1.229   1.497  1.5072  1.5127 -1.0954
    1SOL    HW3 2947   0.182   1.360   1.524 -0.5818  0.2362 -0.1994
    1SOL    MW4 2948   0.186   1.284   1.482  0.3308  0.3468 -0.3140
    1SOL     OW 2949   0.121   1.528   1.596 -0.1784  0.0479 -0.2871
    1SOL    HW2 2950   0.087   1.518   1.685  0.6343 -1.0402 -0.0938
    1SOL    HW3 2951   0.054   1.579   1.551 -1.0969 -0.3064  0.6530
    1SOL    MW4 2952   0.108   1.533   1.602 -0.1923 -0.1423 -0.1377
    1SOL     OW 2953   4.422   1.668   1.459 -0.5015  0.4363  0.4946
    1SOL    HW2 2954   4.441   1.751   1.503 -1.2382  0.7255  0.2721
    1SOL    HW3 2955   4.426   1.688   1.366 -0.1583  0.1012  0.4352
    1SOL    MW4 2956   4.425   1.681   1.452 -0.5536  0.4302  0.4575
    1SOL     OW 2957   4.447   1.915   1.593 -0.4892  0.2456 -0.6537
    1SOL    HW2 2958   4.463   1.926   1.687 -0.5275  0.1547 -0.6366
    1SOL    HW3 2959   4.363   1.958   1.577 -1.2195 -1.0346 -0.3693
    1SOL    MW4 2960   4.438   1.922   1.603 -0.5903  0.0647 -0.6140
    1SOL     OW 2961   0.178   2.068   1.531 -0.2890 -0.0719  0.0230
    1SOL    HW2 2962   0.102   2.024   1.568  1.3489 -1.9998  1.1613
    1SOL    HW3 2963   0.162   2.068   1.437 -2.1931  0.5136  0.3210
    1SOL    MW4 2964   0.166   2.062   1.524 -0.3241 -0.2487  0.2124
    1SOL     OW 2965   0.228   2.335   1.584  0.4835 -0.1665  0.1688
    1SOL    HW2 2966   0.210   2.334   1.678 -2.2904 -0.5468 -0.3139
    1SOL    HW3 2967   0.233   2.242   1.560 -0.5164 -0.0975 -0.3366
    1SOL    MW4 2968   0.226   2.322   1.593 -0.0144 -0.2074  0.0384
    1SOL     OW 2969   4.486   2.439   1.461  0.6455  0.1980 -0.1271
    1SOL    HW2 2970   4.414   2.400   1.510  0.8596 -0.8084 -0.6007
    1SOL    HW3 2971   4.565   2.415   1.510  0.7053  0.8520  0.1043
    1SOL    MW4 2972   4.487   2.431   1.474  0.6819  0.1512 -0.1590
    1SOL     OW 2973   4.476   2.669   1.591 -0.0441  0.1997  0.1748
    1SOL    HW2 2974   4.386   2.703   1.585 -0.0836  0.2924  1.2915
    1SOL    HW3 2975   4.469   2.579   1.560 -0.1796  0.7643 -1.5181
    1SOL    MW4 2976   4.463   2.662   1.586 -0.0668  0.2866  0.0988
    1SOL     OW 2977   0.212   2.836   1.493  0.0830 -0.2355  0.0092
    1SOL    HW2 2978   0.265   2.772   1.540 -0.0959 -0.4372 -0.0659
    1SOL    HW3 2979   0.122   2.805   1.503  0.0130 -0.0935 -0.1819
    1SOL    MW4 2980   0.207   2.824   1.501  0.0501 -0.2434 -0.0261
    1SOL     OW 2981   0.230   3.081   1.641 -0.1713 -0.0110  0.6041
    1SOL    HW2 2982   0.188   3.141   1.580  0.9732  0.3074  0.1314
    1SOL    HW3 2983   0.233   2.997   1.595  0.8101  0.2600  0.1572
    1SOL    MW4 2984   0.225   3.078   1.627  0.1092  0.0668  0.4828
    1SOL     OW 2985   0.067   3.246   1.492 -0.1138  0.0982 -0.1394
    1SOL    HW2 2986   0.076   3.340   1.512  0.6618  0.1980 -0.9368
    1SOL    HW3 2987   0.046   3.243   1.399 -0.0079 -0.5309 -0.1436
    1SOL    MW4 2988   0.066   3.258   1.483  0.0025  0.0284 -0.2451
    1SOL     OW 2989   0.051   3.512   1.613  0.2628 -0.0111  0.2376
    1SOL    HW2 2990   0.028   3.517   1.706 -1.1433 -0.0308 -0.1016
    1SOL    HW3 2991  -0.032   3.523   1.567  0.5962 -2.3615 -0.9808
    1SOL    MW4 2992   0.037   3.514   1.619  0.1213 -0.3235  0.0321
    1SOL     OW 2993   0.262   3.638   1.466  0.0238 -0.1379  0.3530
    1SOL    HW2 2994   0.269   3.724   1.508  0.9449 -0.6499  1.2716
    1SOL    HW3 2995   0.184   3.599   1.506 -0.1967  0.1318  0.1888
    1SOL    MW4 2996   0.252   3.644   1.477  0.1163 -0.1700  0.4524
    1SOL     OW 2997   0.277   3.872   1.590  0.4888 -0.2128 -0.0810
    1SOL    HW2 2998   0.256   3.873   1.683  1.1397 -0.9415  0.0789
    1SOL    HW3 2999   0.367   3.905   1.586  0.8744 -1.2899 -0.3406
    1SOL    MW4 3000   0.286   3.876   1.602  0.6255 -0.4511 -0.0942
    1SOL     OW 3001   0.005   3.968   1.457 -0.0717  0.2180  0.3834
    1SOL    HW2 3002  -0.017   4.055   1.490  0.3709 -0.5222  2.7618
    1SOL    HW3 3003   0.082   3.942   1.508  1.5402 -0.4180 -2.3161
    1SOL    MW4 3004   0.012   3.976   1.468  0.1988  0.0362  0.3409
    1SOL     OW 3005   4.463   4.221   1.574 -0.4702  0.1812  0.5305
    1SOL    HW2 3006   4.474   4.244   1.666 -1.3342  1.8724  0.2485
    1SOL    HW3 3007   4.389   4.275   1.545 -0.7666 -0.9786 -0.9280
    1SOL    MW4 3008   4.455   4.231   1.582 -0.6232  0.2513  0.3008
    1SOL     OW 3009   0.174   4.390   1.445 -0.1244 -0.9997  0.0207
    1SOL    HW2 3010   0.102   4.345   1.488 -1.3672  0.5166 -0.4033
    1SOL    HW3 3011   0.187   4.470   1.497 -0.8350  0.2493 -1.6688
    1SOL    MW4 3012   0.167   4.395   1.458 -0.3821 -0.6347 -0.2580
    1SOL     OW 3013   0.669   4.656   1.573  0.1125 -0.0609  0.6368
    1SOL    HW2 3014   0.748   4.703   1.548 -0.5761 -0.3268 -2.2061
    1SOL    HW3 3015   0.598   4.705   1.531 -0.8280 -2.1467 -0.2942
    1SOL    MW4 3016   0.670   4.669   1.564 -0.1025 -0.3710  0.1389
    1SOL     OW 3017   0.435   0.108   1.487 -0.0278  0.2493 -0.3774
    1SOL    HW2 3018   0.439   0.199   1.516  0.2909  0.0823  0.1161
    1SOL    HW3 3019   0.443   0.112   1.392  1.7737  0.6116 -0.2293
    1SOL    MW4 3020   0.436   0.121   1.479  0.2519  0.2751 -0.2927
    1SOL     OW 3021   0.460   0.369   1.571 -0.1681  0.2092  0.0896
    1SOL    HW2 3022   0.538   0.416   1.540  0.0734  0.3483  0.8860
    1SOL    HW3 3023   0.388   0.430   1.555  0.3839  1.6819  2.8679
    1SOL    MW4 3024   0.461   0.384   1.565 -0.0634  0.4219  0.5612
    1SOL     OW 3025   0.669   0.520   1.516  0.0191  0.6536  0.1287
    1SOL    HW2 3026   0.652   0.609   1.548  0.0979 -0.1395  2.4638
    1SOL    HW3 3027   0.684   0.531   1.422 -1.6786  2.8919  0.0753
    1SOL    MW4 3028   0.669   0.533   1.508 -0.1945  0.8442  0.4299
    1SOL     OW 3029   0.626   0.769   1.607  0.0494 -0.3129 -0.3670
    1SOL    HW2 3030   0.622   0.764   1.703  2.3092 -1.2371 -0.3044
    1SOL    HW3 3031   0.714   0.801   1.588 -0.5886  0.4279 -2.1268
    1SOL    MW4 3032   0.637   0.772   1.617  0.2633 -0.3371 -0.5910
    1SOL     OW 3033   0.413   0.865   1.458  0.1935 -0.2874  0.0158
    1SOL    HW2 3034   0.395   0.955   1.486  1.4245  0.4369 -1.4471
    1SOL    HW3 3035   0.486   0.837   1.511  0.1402 -0.2362  0.1163
    1SOL    MW4 3036   0.420   0.873   1.468  0.3489 -0.1851 -0.1639
    1SOL     OW 3037   0.384   1.129   1.559 -0.2501  0.1113  0.2327
    1SOL    HW2 3038   0.466   1.169   1.529 -0.5966  0.0947 -0.7434
    1SOL    HW3 3039   0.396   1.118   1.654  1.6782 -1.7866 -0.2050
    1SOL    MW4 3040   0.396   1.133   1.568 -0.0414 -0.1413  0.0461
    1SOL     OW 3041   0.629   1.240   1.484  0.2724  0.0667 -0.2689
    1SOL    HW2 3042   0.642   1.332   1.506  0.2807  0.2025 -0.8342
    1SOL    HW3 3043   0.654   1.234   1.392  0.6789 -0.5854 -0.1174
    1SOL    MW4 3044   0.634   1.252   1.474  0.3271 -0.0014 -0.3237
    1SOL     OW 3045   0.649   1.513   1.560  0.1971 -0.1742  0.2776
    1SOL    HW2 3046   0.719   1.577   1.548 -0.2706  0.4427  0.7857
    1SOL    HW3 3047   0.569   1.563   1.543 -0.1907 -0.5427  1.0017
    1SOL    MW4 3048   0.647   1.528   1.556  0.0842 -0.1415  0.4402
    1SOL     OW 3049   0.379   1.637   1.544  0.0521 -0.2113 -0.0828
    1SOL    HW2 3050   0.386   1.728   1.573 -0.4522 -0.4339  0.7391
    1SOL    HW3 3051   0.305   1.602   1.592  1.5562 -1.6868  1.2125
    1SOL    MW4 3052   0.370   1.645   1.554  0.1840 -0.4354  0.1966
    1SOL     OW 3053   0.400   1.906   1.599  0.1980  0.4118  0.0702
    1SOL    HW2 3054   0.404   1.905   1.694  1.2626 -1.3574  0.0290
    1SOL    HW3 3055   0.323   1.959   1.578 -2.2325 -2.2259  1.9805
    1SOL    MW4 3056   0.390   1.913   1.609  0.0178 -0.1696  0.3167
    1SOL     OW 3057   0.631   2.038   1.531 -0.5466  0.8008  0.4132
    1SOL    HW2 3058   0.703   1.997   1.579  0.0714  2.8100  1.2598
    1SOL    HW3 3059   0.554   1.988   1.557  0.1706  0.2286  1.4944
    1SOL    MW4 3060   0.631   2.026   1.541 -0.3704  0.9904  0.6675
    1SOL     OW 3061   0.693   2.298   1.612 -0.3435 -0.1100 -0.1170
    1SOL    HW2 3062   0.629   2.330   1.548  0.5376 -0.8895 -1.4211
    1SOL    HW3 3063   0.696   2.204   1.597  0.7538 -0.1361  0.2482
    1SOL    MW4 3064   0.685   2.290   1.601 -0.0825 -0.2162 -0.2407
    1SOL     OW 3065   0.467   2.450   1.486  0.1969 -0.1625  0.1772
    1SOL    HW2 3066   0.467   2.525   1.545  0.9704 -0.4859  0.5927
    1SOL    HW3 3067   0.392   2.398   1.514 -0.2284  0.3528  0.0089
    1SOL    MW4 3068   0.457   2.453   1.497  0.2429 -0.1371  0.2099
    1SOL     OW 3069   0.415   2.680   1.643 -0.1601  0.5558  0.0844
    1SOL    HW2 3070   0.415   2.684   1.738  0.1978  1.6869  0.0348
    1SOL    HW3 3071   0.478   2.746   1.615  0.7656 -0.7160 -0.9006
    1SOL    MW4 3072   0.423   2.689   1.652  0.0092  0.5372 -0.0520
    1SOL     OW 3073   0.647   2.816   1.478  0.2489 -0.1067 -0.2527
    1SOL    HW2 3074   0.672   2.908   1.490 -1.1692  0.3772 -0.9259
    1SOL    HW3 3075   0.701   2.768   1.542  0.4749  1.2618  0.6033
    1SOL    MW4 3076   0.658   2.822   1.488  0.0916  0.1376 -0.2285
    1SOL     OW 3077   0.669   3.083   1.584  0.0258 -0.4635 -0.2955
    1SOL    HW2 3078   0.743   3.127   1.541 -0.2992  0.5396  0.1443
    1SOL    HW3 3079   0.600   3.149   1.583 -0.7829 -1.3135 -0.4786
    1SOL    MW4 3080   0.670   3.098   1.578 -0.1238 -0.4435 -0.2618
    1SOL     OW 3081   0.447   3.246   1.583 -0.5618 -0.1129  0.1285
    1SOL    HW2 3082   0.373   3.189   1.603  0.7654 -2.0887 -0.4721
    1SOL    HW3 3083   0.442   3.260   1.488 -0.8333  0.7345  0.2595
    1SOL    MW4 3084   0.437   3.241   1.573 -0.4225 -0.2615  0.0666
    1SOL     OW 3085   0.453   3.514   1.630  0.2803  0.0357 -0.4827
    1SOL    HW2 3086   0.443   3.419   1.630  0.6628 -0.0064 -0.2846
    1SOL    HW3 3087   0.380   3.546   1.577 -0.1925 -0.3329 -0.0599
    1SOL    MW4 3088   0.442   3.506   1.623  0.2684 -0.0184 -0.4008
    1SOL     OW 3089   0.662   3.605   1.477 -0.1129  0.2602  0.5972
    1SOL    HW2 3090   0.739   3.560   1.511 -0.4138 -0.4208  0.3789
    1SOL    HW3 3091   0.589   3.568   1.526 -0.5118 -0.5038 -0.5565
    1SOL    MW4 3092   0.663   3.594   1.488 -0.2053  0.0694  0.4163
    1SOL     OW 3093   0.685   3.858   1.587  0.0532  0.1592 -0.1306
    1SOL    HW2 3094   0.742   3.918   1.539 -1.4490  0.4789 -1.5630
    1SOL    HW3 3095   0.678   3.780   1.531 -0.4070 -0.1195  0.3051
    1SOL    MW4 3096   0.691   3.856   1.573 -0.2056  0.1643 -0.2621
    1SOL     OW 3097   0.490   4.017   1.470  0.3772 -0.2954 -0.1090
    1SOL    HW2 3098   0.559   3.958   1.501  0.1236 -0.5329  0.0076
    1SOL    HW3 3099   0.478   3.994   1.378  0.8003  0.0880 -0.2644
    1SOL    MW4 3100   0.498   4.006   1.462  0.3995 -0.2761 -0.1142
    1SOL     OW 3101   0.400   4.277   1.567 -0.1283  0.5626 -0.1932
    1SOL    HW2 3102   0.424   4.199   1.518 -0.0787  0.1357  0.4979
    1SOL    HW3 3103   0.319   4.307   1.526 -0.5562 -0.2848  0.0119
    1SOL    MW4 3104   0.393   4.271   1.555 -0.1782  0.3939 -0.0749
    1SOL     OW 3105   0.651   4.381   1.535 -0.3084 -0.3575 -0.0022
    1SOL    HW2 3106   0.559   4.357   1.543  0.1388 -1.7117  1.2717
    1SOL    HW3 3107   0.656   4.471   1.567 -1.1012 -0.4641  0.4115
    1SOL    MW4 3108   0.640   4.390   1.540 -0.3541 -0.5503  0.2205
    1SOL     OW 3109   1.082   4.627   1.627 -0.2998  0.1773  0.0940
    1SOL    HW2 3110   1.064   4.636   1.720  0.9433  1.6443  0.1946
    1SOL    HW3 3111   1.169   4.664   1.614 -0.2085 -0.5268 -1.5619
    1SOL    MW4 3112   1.091   4.633   1.637 -0.1237  0.2775 -0.1111
    1SOL     OW 3113   0.894   0.133   1.525  0.0131  0.0623  0.3362
    1SOL    HW2 3114   0.899   0.223   1.557  0.6630  0.8047 -1.7857
    1SOL    HW3 3115   0.967   0.088   1.568  0.4675  0.8647  0.4103
    1SOL    MW4 3116   0.905   0.139   1.535  0.1588  0.2661  0.0660
    1SOL     OW 3117   0.899   0.396   1.613 -0.0367  0.0071  0.4803
    1SOL    HW2 3118   0.898   0.393   1.709 -0.5245  0.7533  0.5044
    1SOL    HW3 3119   0.812   0.429   1.590  0.1512  0.0104 -0.2110
    1SOL    MW4 3120   0.887   0.400   1.623 -0.0764  0.1060  0.3923
    1SOL     OW 3121   1.131   0.526   1.497 -0.3367 -0.2335  0.1880
    1SOL    HW2 3122   1.138   0.614   1.534 -0.8416 -0.5088  0.9487
    1SOL    HW3 3123   1.051   0.491   1.535 -0.6282 -0.6836 -0.8378
    1SOL    MW4 3124   1.122   0.533   1.507 -0.4418 -0.3291  0.1531
    1SOL     OW 3125   1.108   0.801   1.584 -0.1615 -0.4620 -0.1783
    1SOL    HW2 3126   1.111   0.775   1.676  1.1332 -1.0968 -0.3773
    1SOL    HW3 3127   1.192   0.844   1.569 -1.3513  1.8444 -0.4560
    1SOL    MW4 3128   1.120   0.803   1.594 -0.1477 -0.2415 -0.2414
    1SOL     OW 3129   0.869   0.899   1.506 -0.2067  0.4508  0.4813
    1SOL    HW2 3130   0.959   0.871   1.525 -0.1864  0.1215 -0.0963
    1SOL    HW3 3131   0.864   0.898   1.410 -0.8226  0.4838  0.5162
    1SOL    MW4 3132   0.880   0.895   1.496 -0.2853  0.4117  0.4098
    1SOL     OW 3133   0.872   1.152   1.614 -0.0461  0.1738 -0.2206
    1SOL    HW2 3134   0.881   1.065   1.576  0.5245  0.2752 -0.3227
    1SOL    HW3 3135   0.796   1.190   1.570 -0.2115 -0.2206 -0.2768
    1SOL    MW4 3136   0.863   1.146   1.603  0.0073  0.1352 -0.2416
    1SOL     OW 3137   1.125   1.300   1.525  0.0897 -0.0341  0.0037
    1SOL    HW2 3138   1.202   1.266   1.570  0.9364  0.8051 -0.7832
    1SOL    HW3 3139   1.050   1.262   1.572  0.9835 -0.9883  0.6584
    1SOL    MW4 3140   1.125   1.291   1.537  0.3194 -0.0494 -0.0137
    1SOL     OW 3141   1.098   1.567   1.607 -0.0139 -0.2377  0.2582
    1SOL    HW2 3142   1.180   1.575   1.559  0.5658 -1.7814  0.9677
    1SOL    HW3 3143   1.069   1.477   1.592 -1.7992  0.4089 -0.3145
    1SOL    MW4 3144   1.105   1.556   1.599 -0.1730 -0.3562  0.2763
    1SOL     OW 3145   0.867   1.678   1.498 -0.3200 -0.0822  0.1196
    1SOL    HW2 3146   0.956   1.649   1.517 -0.6907 -1.2845  0.1010
    1SOL    HW3 3147   0.866   1.693   1.403 -0.6967 -2.1666 -0.2353
    1SOL    MW4 3148   0.878   1.676   1.488 -0.4186 -0.5158  0.0705
    1SOL     OW 3149   0.871   1.951   1.617  0.1296 -0.1578  0.3701
    1SOL    HW2 3150   0.937   2.011   1.583  1.0596 -0.1170  2.2087
    1SOL    HW3 3151   0.876   1.875   1.559  2.1177 -0.3564  0.7722
    1SOL    MW4 3152   0.880   1.949   1.605  0.5146 -0.1787  0.6658
    1SOL     OW 3153   1.090   2.076   1.489 -0.1208  0.0703  0.1893
    1SOL    HW2 3154   1.157   2.015   1.522 -0.0262  0.5976  0.9784
    1SOL    HW3 3155   1.111   2.159   1.531 -0.6239  0.5062 -0.4151
    1SOL    MW4 3156   1.102   2.079   1.499 -0.1746  0.1976  0.2137
    1SOL     OW 3157   1.103   2.317   1.628 -0.5460  0.4329  0.2602
    1SOL    HW2 3158   1.174   2.362   1.582 -0.8956  0.3806 -0.3348
    1SOL    HW3 3159   1.023   2.354   1.590 -0.8406 -1.3187 -0.8643
    1SOL    MW4 3160   1.102   2.328   1.617 -0.6310  0.1950  0.0334
    1SOL     OW 3161   0.897   2.448   1.512  0.0092  0.0288 -0.4322
    1SOL    HW2 3162   0.890   2.446   1.417 -1.6443  0.7621 -0.3405
    1SOL    HW3 3163   0.822   2.398   1.543  0.4035 -0.0010  0.4865
    1SOL    MW4 3164   0.886   2.441   1.504 -0.1570  0.1216 -0.2989
    1SOL     OW 3165   0.872   2.702   1.616 -0.1310  0.0539 -0.1126
    1SOL    HW2 3166   0.877   2.694   1.712  2.1714  1.0492 -0.1213
    1SOL    HW3 3167   0.885   2.613   1.585 -2.1606 -0.4875  0.5181
    1SOL    MW4 3168   0.874   2.689   1.625 -0.0950  0.1140 -0.0305
    1SOL     OW 3169   1.065   2.838   1.472 -0.1117 -0.2358  0.3476
    1SOL    HW2 3170   1.060   2.931   1.492 -2.7561 -0.3475  0.3915
    1SOL    HW3 3171   0.993   2.799   1.521  1.3743 -2.4189  0.8626
    1SOL    MW4 3172   1.055   2.845   1.481 -0.2646 -0.5381  0.4213
    1SOL     OW 3173   1.099   3.080   1.591 -0.1764 -0.6792  0.4090
    1SOL    HW2 3174   1.102   3.057   1.684  0.0508 -2.2467  0.0295
    1SOL    HW3 3175   1.190   3.093   1.567 -0.0911 -1.9033  0.0275
    1SOL    MW4 3176   1.111   3.079   1.600 -0.1352 -1.0478  0.3086
    1SOL     OW 3177   0.878   3.175   1.452 -0.4632 -0.0034  0.1839
    1SOL    HW2 3178   0.962   3.141   1.483 -0.5137  0.7529  1.1531
    1SOL    HW3 3179   0.890   3.187   1.358  0.7936  0.9362  0.4651
    1SOL    MW4 3180   0.891   3.172   1.443 -0.3040  0.2203  0.3488
    1SOL     OW 3181   0.879   3.440   1.561 -0.6978  0.5590  0.0989
    1SOL    HW2 3182   0.969   3.472   1.549 -0.5263  0.4270  1.0165
    1SOL    HW3 3183   0.881   3.351   1.525 -0.4692  0.5670  0.0866
    1SOL    MW4 3184   0.891   3.433   1.555 -0.6450  0.5426  0.2184
    1SOL     OW 3185   1.119   3.583   1.525  0.2398 -0.5222 -0.1864
    1SOL    HW2 3186   1.198   3.530   1.538  1.3836  0.9304 -1.0600
    1SOL    HW3 3187   1.122   3.610   1.433 -0.1315  1.3346  0.3096
    1SOL    MW4 3188   1.130   3.580   1.514  0.3418 -0.0856 -0.2362
    1SOL     OW 3189   1.077   3.854   1.577  0.2477  0.0983 -0.2639
    1SOL    HW2 3190   1.163   3.885   1.551 -0.5505  1.1207 -1.7643
    1SOL    HW3 3191   1.079   3.759   1.562  1.1459  0.0921 -0.1243
    1SOL    MW4 3192   1.088   3.845   1.572  0.2608  0.2322 -0.4433
    1SOL     OW 3193   0.885   4.018   1.469  0.1759 -0.3101  0.2949
    1SOL    HW2 3194   0.898   4.105   1.506  0.4386 -0.5092  0.6764
    1SOL    HW3 3195   0.947   3.962   1.517 -0.9309 -0.9613  0.9844
    1SOL    MW4 3196   0.895   4.022   1.480  0.0645 -0.4225  0.4362
    1SOL     OW 3197   0.877   4.256   1.598 -0.3658  0.2334  0.3909
    1SOL    HW2 3198   0.902   4.264   1.690 -0.6332  1.1405  0.3930
    1SOL    HW3 3199   0.793   4.302   1.592 -0.2014  0.4431 -0.3598
    1SOL    MW4 3200   0.869   4.263   1.609 -0.3794  0.3810  0.2921
    1SOL     OW 3201   1.123   4.379   1.501 -0.1242 -0.5091  0.0465
    1SOL    HW2 3202   1.041   4.331   1.509 -0.6374  0.0050 -1.7196
    1SOL    HW3 3203   1.104   4.466   1.537  0.2054 -0.9689  1.3541
    1SOL    MW4 3204   1.110   4.384   1.506 -0.1484 -0.5026 -0.0141
    1SOL     OW 3205   1.534   4.612   1.619 -0.3434 -0.1972  0.2372
    1SOL    HW2 3206   1.563   4.618   1.710 -2.9266 -1.1773  1.1989
    1SOL    HW3 3207   1.467   4.680   1.611  0.0559  0.0569 -1.0148
    1SOL    MW4 3208   1.529   4.622   1.630 -0.6315 -0.2933  0.1990
    1SOL     OW 3209   1.321   0.109   1.549 -0.3161  0.2541  0.4036
    1SOL    HW2 3210   1.329   0.199   1.582  2.0971  0.4508 -0.5727
    1SOL    HW3 3211   1.333   0.118   1.455 -0.6842 -1.0320  0.2377
    1SOL    MW4 3212   1.324   0.122   1.541 -0.0463  0.1103  0.2528
    1SOL     OW 3213   1.338   0.370   1.627 -0.5128 -0.0434 -0.6168
    1SOL    HW2 3214   1.419   0.400   1.584 -0.0654  0.9198  0.8784
    1SOL    HW3 3215   1.269   0.422   1.586 -0.0916  0.8561 -0.1832
    1SOL    MW4 3216   1.340   0.381   1.616 -0.3982  0.2024 -0.3624
    1SOL     OW 3217   1.549   0.490   1.481 -0.5722 -0.0410 -0.0448
    1SOL    HW2 3218   1.621   0.431   1.504 -0.7844  0.0176  0.8144
    1SOL    HW3 3219   1.550   0.494   1.386 -0.5527 -1.4449 -0.1171
    1SOL    MW4 3220   1.559   0.483   1.472 -0.5977 -0.2185  0.0590
    1SOL     OW 3221   1.537   0.736   1.591 -0.5492  0.2965 -0.5893
    1SOL    HW2 3222   1.568   0.717   1.680 -2.6755  0.9889  0.3343
    1SOL    HW3 3223   1.530   0.650   1.550 -0.0866 -0.0798  0.0970
    1SOL    MW4 3224   1.540   0.722   1.598 -0.7687  0.3383 -0.3768
    1SOL     OW 3225   1.362   0.911   1.516 -0.2633 -0.0612  0.1586
    1SOL    HW2 3226   1.425   0.841   1.534 -0.5645 -0.3025  0.2996
    1SOL    HW3 3227   1.351   0.910   1.421  1.5902  1.4407 -0.0851
    1SOL    MW4 3228   1.369   0.901   1.506 -0.0584  0.1051  0.1452
    1SOL     OW 3229   1.349   1.158   1.643 -0.4145  0.1080 -0.2491
    1SOL    HW2 3230   1.385   1.151   1.731  0.3702  0.0447 -0.5748
    1SOL    HW3 3231   1.343   1.068   1.612  0.7779  0.2300 -0.8486
    1SOL    MW4 3232   1.353   1.145   1.651 -0.1535  0.1158 -0.3712
    1SOL     OW 3233   1.606   1.174   1.497 -0.0879 -0.2694 -0.3696
    1SOL    HW2 3234   1.530   1.132   1.536  0.2887  0.3580  1.0703
    1SOL    HW3 3235   1.679   1.151   1.555  0.7720 -0.6276 -1.5705
    1SOL    MW4 3236   1.606   1.166   1.510  0.0751 -0.2340 -0.3380
    1SOL     OW 3237   1.563   1.461   1.528 -0.4315 -0.4391  0.1267
    1SOL    HW2 3238   1.573   1.476   1.622 -2.4153 -0.8113  0.4288
    1SOL    HW3 3239   1.554   1.366   1.520 -0.9974 -0.3465 -0.3435
    1SOL    MW4 3240   1.563   1.451   1.540 -0.7678 -0.4759  0.1045
    1SOL     OW 3241   1.334   1.637   1.486 -0.2644 -0.4559 -0.0032
    1SOL    HW2 3242   1.401   1.571   1.504 -0.1142  0.0178  1.2454
    1SOL    HW3 3243   1.346   1.659   1.394  0.0049 -1.8209 -0.2949
    1SOL    MW4 3244   1.345   1.631   1.477 -0.2090 -0.5735  0.1231
    1SOL     OW 3245   1.280   1.903   1.609 -0.2023  0.4035  0.0284
    1SOL    HW2 3246   1.314   1.916   1.698 -0.5877  0.3059  0.1898
    1SOL    HW3 3247   1.295   1.810   1.591 -0.5065  0.3281  0.1539
    1SOL    MW4 3248   1.286   1.893   1.619 -0.2934  0.3808  0.0662
    1SOL     OW 3249   1.532   2.017   1.547 -0.0329 -0.6432 -0.0687
    1SOL    HW2 3250   1.440   1.992   1.554 -0.2587  0.3290  0.5711
    1SOL    HW3 3251   1.547   2.032   1.454 -0.8452  0.3594 -0.0479
    1SOL    MW4 3252   1.522   2.016   1.536 -0.1699 -0.3827  0.0185
    1SOL     OW 3253   1.572   2.293   1.643  0.6415  0.2763 -0.6678
    1SOL    HW2 3254   1.645   2.338   1.600  0.3796  0.0087 -1.3876
    1SOL    HW3 3255   1.579   2.202   1.614 -0.2160  0.3308 -1.0598
    1SOL    MW4 3256   1.583   2.287   1.634  0.4939  0.2484 -0.8147
    1SOL     OW 3257   1.325   2.429   1.526  0.2323 -0.1406  0.1382
    1SOL    HW2 3258   1.333   2.517   1.563 -0.1455  0.5220 -1.3274
    1SOL    HW3 3259   1.403   2.384   1.557  1.0175  1.0689 -0.0093
    1SOL    MW4 3260   1.337   2.435   1.535  0.2861  0.1068 -0.0747
    1SOL     OW 3261   1.305   2.692   1.601 -0.1183 -0.0024  0.5457
    1SOL    HW2 3262   1.380   2.746   1.574 -0.1005 -0.6870 -0.8122
    1SOL    HW3 3263   1.230   2.731   1.557 -0.1899 -0.7569 -0.0074
    1SOL    MW4 3264   1.305   2.704   1.592 -0.1254 -0.1924  0.2935
    1SOL     OW 3265   1.540   2.825   1.520  0.3185 -0.6087  0.0313
    1SOL    HW2 3266   1.622   2.787   1.550  1.2392  0.7616 -0.6623
    1SOL    HW3 3267   1.545   2.820   1.424 -0.0308  0.2227 -0.0361
    1SOL    MW4 3268   1.551   2.820   1.511  0.3939 -0.3183 -0.0690
    1SOL     OW 3269   1.583   3.069   1.634  0.1656  0.0367  0.3093
    1SOL    HW2 3270   1.662   3.095   1.586  0.7718 -1.0834  0.6666
    1SOL    HW3 3271   1.557   2.986   1.594 -1.6586  1.0883 -0.7326
    1SOL    MW4 3272   1.590   3.062   1.623  0.0049  0.0277  0.2190
    1SOL     OW 3273   1.345   3.166   1.518 -0.2542  0.0148 -0.5235
    1SOL    HW2 3274   1.330   3.259   1.537 -0.1309 -0.2529  0.9230
    1SOL    HW3 3275   1.429   3.147   1.560 -0.7276 -0.9735 -0.0131
    1SOL    MW4 3276   1.354   3.176   1.526 -0.3004 -0.1509 -0.2655
    1SOL     OW 3277   1.346   3.445   1.569  0.2639 -0.1532  0.0882
    1SOL    HW2 3278   1.362   3.448   1.663 -0.1894 -0.4471  0.1739
    1SOL    HW3 3279   1.409   3.507   1.532 -0.4717  0.9551  0.7006
    1SOL    MW4 3280   1.357   3.453   1.576  0.1069 -0.0460  0.1804
    1SOL     OW 3281   1.539   3.602   1.462 -0.5046  0.0938 -0.4179
    1SOL    HW2 3282   1.541   3.693   1.490 -0.9347  0.3206 -1.1028
    1SOL    HW3 3283   1.568   3.604   1.371  0.0673 -0.5310 -0.2576
    1SOL    MW4 3284   1.543   3.614   1.454 -0.4859  0.0412 -0.4872
    1SOL     OW 3285   1.558   3.851   1.548 -0.0905  0.0795  0.1542
    1SOL    HW2 3286   1.566   3.846   1.643 -0.0380  0.1557  0.1539
    1SOL    HW3 3287   1.472   3.891   1.533  1.0711  2.6594  0.2101
    1SOL    MW4 3288   1.548   3.856   1.558  0.0697  0.4299  0.1614
    1SOL     OW 3289   1.312   3.961   1.489 -0.2859  0.7270 -0.3395
    1SOL    HW2 3290   1.304   4.043   1.537 -0.3804 -0.4233  1.6430
    1SOL    HW3 3291   1.327   3.988   1.398 -0.2694  2.9260  0.2908
    1SOL    MW4 3292   1.313   3.975   1.483 -0.2960  0.8655  0.0052
    1SOL     OW 3293   1.312   4.210   1.622 -0.2714  0.0898  0.4059
    1SOL    HW2 3294   1.398   4.237   1.591 -0.4944  0.8550  0.4303
    1SOL    HW3 3295   1.250   4.262   1.571 -0.6060  2.3271  2.9365
    1SOL    MW4 3296   1.315   4.220   1.611 -0.3450  0.4859  0.7430
    1SOL     OW 3297   1.548   4.313   1.548 -0.0794  0.3414  0.6408
    1SOL    HW2 3298   1.631   4.273   1.576 -0.9826 -1.3605  0.9801
    1SOL    HW3 3299   1.553   4.403   1.579  2.6053  0.9521 -1.3357
    1SOL    MW4 3300   1.560   4.320   1.556  0.1557  0.1974  0.4249
    1SOL     OW 3301   2.010   4.640   1.636  0.2147  0.3473  0.3908
    1SOL    HW2 3302   2.009   4.631   1.731 -0.4874 -2.8149  0.1408
    1SOL    HW3 3303   1.921   4.669   1.614  0.3291  0.9245  0.6693
    1SOL    MW4 3304   1.998   4.643   1.646  0.1373  0.0057  0.3945
    1SOL     OW 3305   1.780   0.058   1.500 -0.2757  0.3693 -0.1751
    1SOL    HW2 3306   1.708   0.001   1.527 -0.1983  0.5594  0.4323
    1SOL    HW3 3307   1.789   0.043   1.406  0.3055 -1.2574  0.1369
    1SOL    MW4 3308   1.772   0.049   1.491 -0.1887  0.1798 -0.0538
    1SOL     OW 3309   1.751   0.330   1.548  0.1375  0.3569  0.3049
    1SOL    HW2 3310   1.838   0.360   1.523  1.6534 -1.5796  2.8969
    1SOL    HW3 3311   1.747   0.239   1.519 -1.2407  0.5818 -0.2705
    1SOL    MW4 3312   1.762   0.322   1.541  0.1557  0.1311  0.5711
    1SOL     OW 3313   1.979   0.448   1.488  0.2679 -0.2312  0.0311
    1SOL    HW2 3314   2.070   0.429   1.513  0.3035 -0.3185 -0.1659
    1SOL    HW3 3315   1.964   0.537   1.522  1.0345  0.5196 -1.5456
    1SOL    MW4 3316   1.989   0.457   1.496  0.3738 -0.1437 -0.2029
    1SOL     OW 3317   1.974   0.710   1.588  0.4695 -0.2375  0.6449
    1SOL    HW2 3318   1.978   0.712   1.684 -0.2558  1.4751  0.6588
    1SOL    HW3 3319   1.900   0.767   1.567  0.8099 -0.3813 -0.9446
    1SOL    MW4 3320   1.964   0.718   1.598  0.4187 -0.0305  0.4370
    1SOL     OW 3321   1.763   0.858   1.469  0.3394 -0.6720 -0.3148
    1SOL    HW2 3322   1.782   0.939   1.516  1.3543 -0.6301 -0.7864
    1SOL    HW3 3323   1.677   0.832   1.500 -0.2904  0.9384 -0.6394
    1SOL    MW4 3324   1.754   0.865   1.479  0.3902 -0.4541 -0.4197
    1SOL     OW 3325   1.825   1.102   1.633 -0.4791  0.0031 -0.1951
    1SOL    HW2 3326   1.892   1.160   1.597  0.3600 -1.0897 -0.4115
    1SOL    HW3 3327   1.830   1.115   1.728 -0.1249  0.1011 -0.2297
    1SOL    MW4 3328   1.834   1.111   1.641 -0.3216 -0.1283 -0.2282
    1SOL     OW 3329   2.007   1.261   1.534 -0.1979 -0.0632 -0.0245
    1SOL    HW2 3330   1.998   1.352   1.563 -0.4459  0.1235 -0.6600
    1SOL    HW3 3331   2.017   1.268   1.439  0.9699 -0.6286  0.0543
    1SOL    MW4 3332   2.007   1.274   1.525 -0.0763 -0.1131 -0.0980
    1SOL     OW 3333   1.995   1.522   1.618  0.1109 -0.0303 -0.2991
    1SOL    HW2 3334   2.075   1.560   1.583  0.6157 -0.9468 -0.1521
    1SOL    HW3 3335   1.925   1.556   1.562  0.5528  1.0479 -0.2140
    1SOL    MW4 3336   1.996   1.531   1.606  0.2358 -0.0089 -0.2686
    1SOL     OW 3337   1.776   1.621   1.480 -0.2128  0.0795 -0.0497
    1SOL    HW2 3338   1.704   1.560   1.498  1.2533 -1.5211  0.5870
    1SOL    HW3 3339   1.786   1.619   1.384  0.0319 -0.9674 -0.0113
    1SOL    MW4 3340   1.768   1.612   1.470  0.0130 -0.2698  0.0393
    1SOL     OW 3341   1.761   1.862   1.623 -0.3446 -0.1077  0.2021
    1SOL    HW2 3342   1.767   1.779   1.575  1.9686  0.5165 -0.6299
    1SOL    HW3 3343   1.674   1.897   1.600 -0.3895 -1.1779 -1.2788
    1SOL    MW4 3344   1.750   1.856   1.614 -0.0454 -0.1667 -0.1030
    1SOL     OW 3345   1.967   2.032   1.574 -0.2090 -0.0678 -0.2971
    1SOL    HW2 3346   2.050   1.988   1.591 -0.2430  0.1413  0.4386
    1SOL    HW3 3347   1.902   1.978   1.618 -0.3959  0.0794 -0.3944
    1SOL    MW4 3348   1.969   2.019   1.582 -0.2382 -0.0207 -0.2129
    1SOL     OW 3349   2.040   2.294   1.594  0.3249  0.4961 -0.1065
    1SOL    HW2 3350   2.037   2.288   1.689  1.4293  0.6267 -0.0510
    1SOL    HW3 3351   2.032   2.203   1.564 -1.2292  0.5661  0.0532
    1SOL    MW4 3352   2.039   2.281   1.602  0.2654  0.5224 -0.0782
    1SOL     OW 3353   1.801   2.423   1.542  0.2303 -0.1684 -0.0076
    1SOL    HW2 3354   1.888   2.384   1.546  0.0353 -0.5499  0.4755
    1SOL    HW3 3355   1.787   2.440   1.449  1.6726  1.8136  0.0985
    1SOL    MW4 3356   1.811   2.420   1.530  0.3948  0.0429  0.0701
    1SOL     OW 3357   1.760   2.721   1.627  0.2421  0.2865  0.5446
    1SOL    HW2 3358   1.837   2.763   1.590  1.6542 -0.9660  2.0053
    1SOL    HW3 3359   1.771   2.628   1.606 -1.5044  0.2536 -0.3157
    1SOL    MW4 3360   1.771   2.714   1.620  0.1979  0.1168  0.6239
    1SOL     OW 3361   2.008   2.813   1.537 -0.5684  0.1684  0.1185
    1SOL    HW2 3362   2.022   2.905   1.559 -0.8984  0.3211 -0.3109
    1SOL    HW3 3363   1.994   2.812   1.442 -1.4447 -0.2167  0.2410
    1SOL    MW4 3364   2.008   2.825   1.527 -0.7277  0.1376  0.0781
    1SOL     OW 3365   2.039   3.077   1.598 -0.2183 -0.4964  0.2696
    1SOL    HW2 3366   2.042   3.091   1.693  0.4346 -1.2595  0.3700
    1SOL    HW3 3367   2.129   3.096   1.569 -0.3803 -0.4101 -0.1713
    1SOL    MW4 3368   2.052   3.081   1.607 -0.1533 -0.5856  0.2246
    1SOL     OW 3369   1.803   3.185   1.508 -0.1369  0.1690  0.1434
    1SOL    HW2 3370   1.801   3.277   1.534  0.5056  0.2907 -0.2141
    1SOL    HW3 3371   1.892   3.156   1.528  0.0371 -0.0342 -0.8604
    1SOL    MW4 3372   1.814   3.193   1.514 -0.0292  0.1585 -0.0361
    1SOL     OW 3373   1.757   3.450   1.575 -0.3563 -0.2918 -0.8191
    1SOL    HW2 3374   1.774   3.457   1.669 -1.5297 -2.5252 -0.4150
    1SOL    HW3 3375   1.679   3.504   1.561  0.6810  1.2648 -0.8139
    1SOL    MW4 3376   1.749   3.458   1.586 -0.3742 -0.3812 -0.7651
    1SOL     OW 3377   2.028   3.550   1.521  0.3962  0.2629  0.4356
    1SOL    HW2 3378   2.089   3.483   1.551  0.0482 -0.5637 -0.6583
    1SOL    HW3 3379   1.943   3.520   1.553 -0.0437 -0.8488 -1.6400
    1SOL    MW4 3380   2.025   3.537   1.529  0.2923  0.0074  0.0175
    1SOL     OW 3381   2.044   3.826   1.609  0.4595 -0.0656 -0.4847
    1SOL    HW2 3382   2.114   3.871   1.562  1.1539 -0.0542  0.5340
    1SOL    HW3 3383   2.055   3.734   1.586  1.4122 -0.1909  0.3910
    1SOL    MW4 3384   2.055   3.820   1.600  0.6769 -0.0806 -0.2347
    1SOL     OW 3385   1.812   3.947   1.482  0.2201 -0.2132  0.0505
    1SOL    HW2 3386   1.876   3.901   1.535  0.3097  0.1789  0.2914
    1SOL    HW3 3387   1.727   3.912   1.511  0.2910 -0.2787  0.1806
    1SOL    MW4 3388   1.809   3.937   1.493  0.2412 -0.1700  0.0994
    1SOL     OW 3389   1.808   4.198   1.622  0.1654 -0.3640  0.3418
    1SOL    HW2 3390   1.880   4.245   1.581 -1.7916  0.8901 -1.7356
    1SOL    HW3 3391   1.799   4.117   1.571 -1.4885  0.6389 -1.0080
    1SOL    MW4 3392   1.816   4.193   1.610 -0.3110 -0.0668 -0.1103
    1SOL     OW 3393   1.983   4.387   1.538  1.2772 -0.1208  0.0125
    1SOL    HW2 3394   2.064   4.342   1.562  1.0275  0.9338  3.1069
    1SOL    HW3 3395   1.989   4.473   1.581 -1.5516 -0.0992  0.4885
    1SOL    MW4 3396   1.995   4.393   1.547  0.8712  0.0210  0.4838
    1SOL     OW 3397   2.467   4.661   1.546  0.0846  0.0480 -0.2721
    1SOL    HW2 3398   2.468   4.636   1.638  0.7577 -1.3414 -0.6339
    1SOL    HW3 3399   2.377   4.691   1.530 -0.0402  0.2673  0.8185
    1SOL    MW4 3400   2.455   4.661   1.556  0.1574 -0.1068 -0.1758
    1SOL     OW 3401   2.225   0.118   1.501 -0.2756  0.0774  0.0367
    1SOL    HW2 3402   2.151   0.083   1.551 -1.1680  0.9325 -0.6687
    1SOL    HW3 3403   2.204   0.099   1.410  1.1215 -1.0470 -0.0688
    1SOL    MW4 3404   2.213   0.111   1.496 -0.2091  0.0418 -0.0705
    1SOL     OW 3405   2.222   0.376   1.588 -0.0931  0.1342 -0.0825
    1SOL    HW2 3406   2.220   0.371   1.684  1.4465  0.4703 -0.0306
    1SOL    HW3 3407   2.220   0.285   1.559 -1.1259  0.0385  0.2404
    1SOL    MW4 3408   2.221   0.364   1.597 -0.0262  0.1659 -0.0330
    1SOL     OW 3409   2.438   0.483   1.484 -0.0628  0.0386 -0.0709
    1SOL    HW2 3410   2.516   0.457   1.533 -0.4808 -0.4673  0.3332
    1SOL    HW3 3411   2.367   0.434   1.525 -0.8186  1.6133  0.5069
    1SOL    MW4 3412   2.439   0.473   1.495 -0.2177  0.1796  0.0587
    1SOL     OW 3413   2.388   0.712   1.600 -0.3893  0.3266  0.0902
    1SOL    HW2 3414   2.317   0.758   1.555  0.1621  0.9231 -0.1779
    1SOL    HW3 3415   2.399   0.631   1.550  0.9461  1.4695 -1.5515
    1SOL    MW4 3416   2.380   0.707   1.587 -0.1404  0.5561 -0.1619
    1SOL     OW 3417   2.196   0.864   1.491 -0.2486 -0.3254 -0.1993
    1SOL    HW2 3418   2.201   0.950   1.533  0.5645 -0.5614  0.1894
    1SOL    HW3 3419   2.115   0.826   1.525 -1.0847  0.6430 -1.0681
    1SOL    MW4 3420   2.186   0.871   1.501 -0.2515 -0.2287 -0.2625
    1SOL     OW 3421   2.231   1.101   1.614 -0.4031 -0.2667  0.3382
    1SOL    HW2 3422   2.231   1.110   1.710  1.6627  1.0960  0.2491
    1SOL    HW3 3423   2.164   1.162   1.584  0.6527  1.1601  0.8099
    1SOL    MW4 3424   2.223   1.111   1.623  0.0088  0.1013  0.3887
    1SOL     OW 3425   2.469   1.217   1.553  0.1061 -0.0790 -0.2861
    1SOL    HW2 3426   2.387   1.174   1.577  0.0908  0.3223  0.3877
    1SOL    HW3 3427   2.458   1.241   1.461 -0.7567  0.5019 -0.0304
    1SOL    MW4 3428   2.457   1.214   1.544 -0.0100  0.0507 -0.1634
    1SOL     OW 3429   2.420   1.484   1.647 -0.0961 -0.0505  0.2222
    1SOL    HW2 3430   2.487   1.538   1.605 -1.9377  1.6737 -0.6011
    1SOL    HW3 3431   2.448   1.394   1.632  1.3799  0.6229 -1.1754
    1SOL    MW4 3432   2.433   1.479   1.639 -0.1445  0.2660 -0.0708
    1SOL     OW 3433   2.221   1.635   1.527  0.1248  0.0334 -0.3523
    1SOL    HW2 3434   2.278   1.563   1.554  1.4782  1.3976  0.5260
    1SOL    HW3 3435   2.234   1.642   1.432  0.0912 -0.7858 -0.4148
    1SOL    MW4 3436   2.230   1.627   1.518  0.2987  0.1051 -0.2446
    1SOL     OW 3437   2.242   1.907   1.630  0.2463  0.4579  0.5208
    1SOL    HW2 3438   2.255   1.891   1.723  2.3373 -1.0357  0.0153
    1SOL    HW3 3439   2.248   1.820   1.590  1.1933  1.3010 -1.2029
    1SOL    MW4 3440   2.244   1.893   1.637  0.6471  0.3721  0.2267
    1SOL     OW 3441   2.463   2.045   1.553  0.4314  0.2351 -0.5159
    1SOL    HW2 3442   2.383   2.002   1.584  1.7873 -1.3308  0.8967
    1SOL    HW3 3443   2.450   2.054   1.458 -1.0141 -0.8486 -0.4384
    1SOL    MW4 3444   2.450   2.040   1.544  0.4194 -0.1142 -0.3194
    1SOL     OW 3445   2.445   2.283   1.681  0.0900 -0.3717 -0.5766
    1SOL    HW2 3446   2.492   2.271   1.763 -1.1958  0.0689  0.2344
    1SOL    HW3 3447   2.453   2.199   1.636  0.5554 -0.7059  0.1237
    1SOL    MW4 3448   2.452   2.271   1.686 -0.0184 -0.3576 -0.3772
    1SOL     OW 3449   2.260   2.455   1.577  0.3122 -0.1692 -0.1390
    1SOL    HW2 3450   2.331   2.403   1.615  0.2568 -0.7655 -0.8449
    1SOL    HW3 3451   2.182   2.400   1.588 -0.0744  0.5265  0.7302
    1SOL    MW4 3452   2.259   2.441   1.584  0.2542 -0.1559 -0.1173
    1SOL     OW 3453   2.257   2.726   1.637  0.1628 -0.1953 -0.4524
    1SOL    HW2 3454   2.246   2.633   1.619 -0.2338 -0.3031  0.3213
    1SOL    HW3 3455   2.181   2.768   1.595 -0.4805 -0.3868  0.5185
    1SOL    MW4 3456   2.246   2.719   1.629  0.0260 -0.2348 -0.2223
    1SOL     OW 3457   2.483   2.829   1.526 -0.1706 -0.1571 -0.1216
    1SOL    HW2 3458   2.489   2.915   1.567 -0.6205 -0.8259  1.3732
    1SOL    HW3 3459   2.408   2.787   1.568  0.3239 -1.4518 -0.5068
    1SOL    MW4 3460   2.474   2.835   1.537 -0.1647 -0.4160  0.0248
    1SOL     OW 3461   2.517   3.069   1.650 -0.1921 -0.0746 -0.4096
    1SOL    HW2 3462   2.591   3.109   1.606 -1.0229  0.2921 -1.5011
    1SOL    HW3 3463   2.440   3.104   1.605 -1.0545  0.1206  1.1864
    1SOL    MW4 3464   2.516   3.079   1.638 -0.4156 -0.0005 -0.3431
    1SOL     OW 3465   2.296   3.170   1.498 -0.3388 -0.3488 -0.1931
    1SOL    HW2 3466   2.277   3.251   1.546 -0.2321 -1.0553  1.0778
    1SOL    HW3 3467   2.284   3.193   1.406 -0.2493  1.1254  0.1480
    1SOL    MW4 3468   2.292   3.183   1.492 -0.3128 -0.2475  0.0196
    1SOL     OW 3469   2.247   3.418   1.623  0.1229 -0.3190 -0.1478
    1SOL    HW2 3470   2.256   3.451   1.712 -0.8444  0.7667 -0.4458
    1SOL    HW3 3471   2.320   3.458   1.575 -0.5563  0.7516 -0.3105
    1SOL    MW4 3472   2.258   3.428   1.628 -0.0944 -0.0343 -0.2085
    1SOL     OW 3473   2.444   3.546   1.483 -0.0013  0.3254 -0.2572
    1SOL    HW2 3474   2.531   3.526   1.515 -0.2399 -0.4035 -0.0328
    1SOL    HW3 3475   2.426   3.635   1.513  1.2888  1.0885 -1.6692
    1SOL    MW4 3476   2.453   3.555   1.491  0.1373  0.3297 -0.4138
    1SOL     OW 3477   2.450   3.822   1.580 -0.0918 -0.1016  0.3664
    1SOL    HW2 3478   2.462   3.809   1.674 -0.3658  0.8606  0.5360
    1SOL    HW3 3479   2.531   3.865   1.552  0.4291 -1.3201 -0.0290
    1SOL    MW4 3480   2.463   3.826   1.589 -0.0589 -0.1354  0.3365
    1SOL     OW 3481   2.258   3.989   1.489  0.4015  0.2054  0.2321
    1SOL    HW2 3482   2.311   3.919   1.527 -0.8195 -0.4619  0.7269
    1SOL    HW3 3483   2.246   3.963   1.398 -0.1285 -0.2865  0.4386
    1SOL    MW4 3484   2.264   3.977   1.482  0.1707  0.0527  0.3246
    1SOL     OW 3485   2.208   4.246   1.586  0.1522 -0.3066  0.1329
    1SOL    HW2 3486   2.290   4.293   1.572  1.3944 -1.4398  3.1741
    1SOL    HW3 3487   2.221   4.161   1.544  0.5427 -0.4736  0.5848
    1SOL    MW4 3488   2.221   4.241   1.579  0.3676 -0.4783  0.5938
    1SOL     OW 3489   2.478   4.380   1.464  0.0656  0.2136 -0.3219
    1SOL    HW2 3490   2.484   4.474   1.480 -0.0745  0.0419  0.8216
    1SOL    HW3 3491   2.451   4.372   1.373 -1.3863  1.3149 -0.0140
    1SOL    MW4 3492   2.475   4.391   1.454 -0.1442  0.3362 -0.1304
    1SOL     OW 3493   2.915   4.630   1.586  0.1367 -0.2764  0.0336
    1SOL    HW2 3494   2.912   4.624   1.682 -1.6809 -1.7548 -0.0869
    1SOL    HW3 3495   2.835   4.678   1.563 -0.1760 -1.1719 -0.8001
    1SOL    MW4 3496   2.904   4.636   1.596 -0.1445 -0.5898 -0.0923
    1SOL     OW 3497   2.692   0.123   1.507 -0.0177  0.1130  0.4377
    1SOL    HW2 3498   2.672   0.205   1.552  0.2541  0.7040 -0.5065
    1SOL    HW3 3499   2.617   0.067   1.524 -0.4306  0.7347  0.6691
    1SOL    MW4 3500   2.680   0.127   1.515 -0.0360  0.2730  0.3437
    1SOL     OW 3501   2.650   0.370   1.608 -0.1778 -0.2689  0.2923
    1SOL    HW2 3502   2.671   0.354   1.700  1.5923  1.3433  0.1919
    1SOL    HW3 3503   2.734   0.386   1.566 -0.8528 -2.0389 -1.8570
    1SOL    MW4 3504   2.664   0.370   1.614 -0.0334 -0.2897 -0.0046
    1SOL     OW 3505   2.895   0.481   1.489  0.2381  0.4105  0.3943
    1SOL    HW2 3506   2.888   0.574   1.510 -1.1570  0.4131  0.0171
    1SOL    HW3 3507   2.891   0.478   1.393  1.5684  0.0508  0.3430
    1SOL    MW4 3508   2.894   0.493   1.479  0.2294  0.3634  0.3377
    1SOL     OW 3509   2.881   0.740   1.597  0.0813 -0.5107  0.2603
    1SOL    HW2 3510   2.896   0.752   1.690 -0.3395 -0.7077  0.3538
    1SOL    HW3 3511   2.791   0.770   1.583  0.2748 -0.1166 -0.1492
    1SOL    MW4 3512   2.871   0.746   1.607  0.0513 -0.4847  0.2186
    1SOL     OW 3513   2.627   0.837   1.538 -0.4643  0.2788  0.1986
    1SOL    HW2 3514   2.542   0.796   1.556 -0.8592  1.1454  0.3462
    1SOL    HW3 3515   2.628   0.849   1.443  0.1003 -1.0245  0.0308
    1SOL    MW4 3516   2.616   0.833   1.528 -0.4423  0.2212  0.1959
    1SOL     OW 3517   2.708   1.109   1.632  0.4491 -0.0490 -0.1777
    1SOL    HW2 3518   2.693   1.017   1.610  1.1115 -0.4988  1.1639
    1SOL    HW3 3519   2.628   1.154   1.606  0.3099 -0.9164 -1.2957
    1SOL    MW4 3520   2.696   1.103   1.626  0.5183 -0.2228 -0.1481
    1SOL     OW 3521   2.899   1.281   1.502 -0.2224  0.0175 -0.4324
    1SOL    HW2 3522   2.982   1.236   1.521 -0.0933 -0.4180 -1.9591
    1SOL    HW3 3523   2.833   1.227   1.545  0.0757 -0.8463 -1.0438
    1SOL    MW4 3524   2.901   1.268   1.510 -0.1659 -0.1539 -0.7143
    1SOL     OW 3525   2.892   1.545   1.583 -0.0157 -0.0814  0.4272
    1SOL    HW2 3526   2.800   1.561   1.562  0.0280 -0.9729 -0.5117
    1SOL    HW3 3527   2.911   1.459   1.544  1.2892  0.2243  0.3598
    1SOL    MW4 3528   2.882   1.536   1.575  0.1624 -0.1587  0.2943
    1SOL     OW 3529   2.628   1.647   1.524 -0.0611  0.5895  0.2700
    1SOL    HW2 3530   2.635   1.740   1.544 -1.4393  0.6579  0.4953
    1SOL    HW3 3531   2.644   1.641   1.429 -0.5297  1.1316  0.1543
    1SOL    MW4 3532   2.631   1.658   1.514 -0.3047  0.6700  0.2844
    1SOL     OW 3533   2.683   1.904   1.628 -0.1896 -0.5456  0.4502
    1SOL    HW2 3534   2.681   1.903   1.724 -0.7405 -0.4853  0.4365
    1SOL    HW3 3535   2.607   1.956   1.602  1.2388  1.3865  0.0161
    1SOL    MW4 3536   2.673   1.911   1.637 -0.0739 -0.2828  0.3911
    1SOL     OW 3537   2.900   2.023   1.510  0.1350 -0.3784 -0.0281
    1SOL    HW2 3538   2.899   2.111   1.546 -0.5217 -0.8183  1.0549
    1SOL    HW3 3539   2.830   1.977   1.556 -0.3273 -1.1320 -1.4329
    1SOL    MW4 3540   2.890   2.029   1.521 -0.0129 -0.5360 -0.0706
    1SOL     OW 3541   2.919   2.289   1.580 -0.0706  0.1992 -0.3198
    1SOL    HW2 3542   2.946   2.291   1.672 -1.0497 -0.7804 -0.0067
    1SOL    HW3 3543   2.834   2.333   1.579 -0.6508 -0.9105 -0.5479
    1SOL    MW4 3544   2.911   2.295   1.592 -0.2763 -0.0765 -0.3086
    1SOL     OW 3545   2.660   2.402   1.531  0.3065  0.1338 -0.4454
    1SOL    HW2 3546   2.672   2.490   1.566  0.3377  0.3112 -0.8952
    1SOL    HW3 3547   2.591   2.364   1.585  1.4427 -0.1554  0.8168
    1SOL    MW4 3548   2.652   2.408   1.543  0.4606  0.1192 -0.3382
    1SOL     OW 3549   2.701   2.663   1.627 -0.1339 -0.0115 -0.1486
    1SOL    HW2 3550   2.777   2.703   1.585 -0.2376 -0.9668 -1.2759
    1SOL    HW3 3551   2.626   2.711   1.593 -0.0950  0.4844  0.4461
    1SOL    MW4 3552   2.701   2.675   1.617 -0.1423 -0.0720 -0.2187
    1SOL     OW 3553   2.914   2.794   1.498 -0.1401  0.1052 -0.3001
    1SOL    HW2 3554   2.993   2.758   1.536 -0.0436  0.6738  0.0390
    1SOL    HW3 3555   2.918   2.888   1.516 -0.9897  0.1135 -0.0923
    1SOL    MW4 3556   2.925   2.802   1.505 -0.2394  0.1812 -0.2278
    1SOL     OW 3557   2.928   3.054   1.606 -0.4675 -0.6116  0.0330
    1SOL    HW2 3558   2.911   3.050   1.700  0.9897 -0.7021  0.3004
    1SOL    HW3 3559   3.010   3.104   1.598 -0.2904 -1.0665 -1.1526
    1SOL    MW4 3560   2.937   3.060   1.617 -0.2520 -0.6835 -0.0881
    1SOL     OW 3561   2.735   3.220   1.507  0.4753  0.0810 -0.1000
    1SOL    HW2 3562   2.812   3.181   1.547  0.5195  0.4606  0.1936
    1SOL    HW3 3563   2.738   3.192   1.416  0.1713 -1.1118  0.2465
    1SOL    MW4 3564   2.745   3.211   1.500  0.4408 -0.0265 -0.0155
    1SOL     OW 3565   2.696   3.467   1.577  0.4626 -0.1633 -0.0616
    1SOL    HW2 3566   2.721   3.458   1.669  0.3379 -1.0181 -0.1055
    1SOL    HW3 3567   2.709   3.380   1.540 -0.0886  0.0222 -0.7038
    1SOL    MW4 3568   2.701   3.454   1.585  0.3736 -0.2518 -0.1520
    1SOL     OW 3569   2.930   3.577   1.486 -0.7797 -0.0610  0.3484
    1SOL    HW2 3570   2.841   3.549   1.509 -0.5151 -2.3177 -1.1863
    1SOL    HW3 3571   2.929   3.585   1.391  0.7908 -0.6309  0.2670
    1SOL    MW4 3572   2.918   3.574   1.477 -0.5379 -0.4339  0.1351
    1SOL     OW 3573   2.915   3.842   1.578  0.1163 -0.0571 -0.3541
    1SOL    HW2 3574   2.823   3.866   1.564  0.8970  2.0986 -2.0763
    1SOL    HW3 3575   2.923   3.754   1.542 -1.2292 -0.1892 -0.3497
    1SOL    MW4 3576   2.904   3.833   1.572  0.0417  0.2098 -0.5808
    1SOL     OW 3577   2.668   3.985   1.515 -0.1132 -0.2415 -0.1410
    1SOL    HW2 3578   2.685   4.075   1.545 -1.7051  0.1549 -0.3924
    1SOL    HW3 3579   2.695   3.984   1.423  3.7037 -1.1499  0.8793
    1SOL    MW4 3580   2.674   3.997   1.507  0.1802 -0.3088 -0.0395
    1SOL     OW 3581   2.694   4.249   1.615 -0.4804 -0.1165 -0.0925
    1SOL    HW2 3582   2.768   4.304   1.590 -0.1752  0.0784  1.2093
    1SOL    HW3 3583   2.621   4.283   1.564  0.2920 -0.2158 -1.2848
    1SOL    MW4 3584   2.694   4.261   1.605 -0.3381 -0.1035 -0.0781
    1SOL     OW 3585   2.914   4.386   1.495 -0.4264 -0.3822  0.3994
    1SOL    HW2 3586   2.918   4.472   1.536 -0.6742 -0.4144  0.4963
    1SOL    HW3 3587   2.894   4.404   1.403  2.4660 -0.1995 -0.2242
    1SOL    MW4 3588   2.912   4.400   1.488 -0.0775 -0.3619  0.3300
    1SOL     OW 3589   3.365   4.662   1.542 -0.3992 -0.0499  0.2643
    1SOL    HW2 3590   3.448   4.705   1.521 -1.5402  1.3701 -1.5029
    1SOL    HW3 3591   3.381   4.570   1.523  0.3865  0.3913 -1.3465
    1SOL    MW4 3592   3.378   4.656   1.536 -0.4458  0.1955 -0.1812
    1SOL     OW 3593   3.125   0.120   1.473  0.1827  0.5981  0.0039
    1SOL    HW2 3594   3.201   0.064   1.491  0.3909  0.6604 -0.6531
    1SOL    HW3 3595   3.050   0.064   1.490  0.3769  0.5524  0.7170
    1SOL    MW4 3596   3.125   0.105   1.478  0.2360  0.6003  0.0112
    1SOL     OW 3597   3.153   0.393   1.560 -0.0800  0.3964 -0.1902
    1SOL    HW2 3598   3.149   0.298   1.550 -1.3362  0.5300 -1.0986
    1SOL    HW3 3599   3.066   0.424   1.534  0.3933  1.8124 -0.1520
    1SOL    MW4 3600   3.141   0.385   1.555 -0.1833  0.6008 -0.3052
    1SOL     OW 3601   3.368   0.550   1.480  0.0110 -0.0490 -0.1710
    1SOL    HW2 3602   3.296   0.494   1.508 -0.2519 -0.1753 -1.0719
    1SOL    HW3 3603   3.362   0.550   1.384  0.2555  1.1844 -0.1973
    1SOL    MW4 3604   3.357   0.542   1.471  0.0086  0.0970 -0.2934
    1SOL     OW 3605   3.311   0.805   1.556  0.1524  0.4142  0.3818
    1SOL    HW2 3606   3.310   0.792   1.651 -0.9401  0.7636  0.4166
    1SOL    HW3 3607   3.326   0.717   1.520  0.3617  0.2507  0.8643
    1SOL    MW4 3608   3.313   0.791   1.564  0.0358  0.4387  0.4500
    1SOL     OW 3609   3.084   0.902   1.478  0.1580  0.3454 -0.2304
    1SOL    HW2 3610   3.166   0.866   1.513  0.1550 -0.0094 -0.5887
    1SOL    HW3 3611   3.016   0.845   1.513  0.1220  0.2223 -0.5003
    1SOL    MW4 3612   3.086   0.890   1.487  0.1526  0.2823 -0.3133
    1SOL     OW 3613   3.126   1.153   1.599 -0.1332  0.6561 -0.0208
    1SOL    HW2 3614   3.141   1.133   1.692 -0.9408  0.3053  0.0435
    1SOL    HW3 3615   3.100   1.070   1.560  1.0045  0.6363 -0.7405
    1SOL    MW4 3616   3.124   1.140   1.606 -0.0896  0.6071 -0.1073
    1SOL     OW 3617   3.364   1.235   1.461  0.2205  0.4625  0.1439
    1SOL    HW2 3618   3.443   1.196   1.498 -0.0997 -0.2492  0.0762
    1SOL    HW3 3619   3.292   1.186   1.500 -0.1688  0.7597 -0.1993
    1SOL    MW4 3620   3.365   1.224   1.471  0.1268  0.4078  0.0896
    1SOL     OW 3621   3.343   1.510   1.574 -0.4004  0.0160  0.1589
    1SOL    HW2 3622   3.324   1.501   1.667  1.1944 -0.8616  0.4287
    1SOL    HW3 3623   3.314   1.427   1.535  0.2208 -0.1886  0.1184
    1SOL    MW4 3624   3.337   1.498   1.581 -0.1080 -0.1267  0.1892
    1SOL     OW 3625   3.112   1.665   1.456  0.0990 -0.2492  0.0106
    1SOL    HW2 3626   3.185   1.617   1.497  0.8885  0.8190 -0.1252
    1SOL    HW3 3627   3.035   1.635   1.504  0.8903  0.2772  1.6846
    1SOL    MW4 3628   3.112   1.654   1.468  0.3076 -0.0389  0.2135
    1SOL     OW 3629   3.155   1.924   1.561  0.2679  0.2735  0.3245
    1SOL    HW2 3630   3.162   1.835   1.527  2.2677  0.6663 -0.3156
    1SOL    HW3 3631   3.067   1.952   1.536 -0.5749 -1.6706  0.9440
    1SOL    MW4 3632   3.144   1.916   1.553  0.4208  0.0689  0.3216
    1SOL     OW 3633   3.369   2.081   1.449 -0.1679  0.5578  0.2131
    1SOL    HW2 3634   3.290   2.035   1.477 -0.2003  0.4356 -0.0664
    1SOL    HW3 3635   3.381   2.052   1.358  1.4468 -1.1755  0.9454
    1SOL    MW4 3636   3.360   2.071   1.440  0.0408  0.3130  0.2729
    1SOL     OW 3637   3.377   2.321   1.584  0.0634 -0.2378 -0.1992
    1SOL    HW2 3638   3.445   2.371   1.540  1.3422  0.4534  2.4525
    1SOL    HW3 3639   3.388   2.231   1.553  1.3697  0.1041 -0.7360
    1SOL    MW4 3640   3.387   2.316   1.574  0.4044 -0.1013  0.0796
    1SOL     OW 3641   3.145   2.424   1.470  0.2616 -0.4456  0.2328
    1SOL    HW2 3642   3.221   2.373   1.500 -0.3531  0.1507  2.9752
    1SOL    HW3 3643   3.069   2.372   1.496 -0.3594  1.4487  2.3844
    1SOL    MW4 3644   3.145   2.410   1.478  0.0982 -0.1171  0.8785
    1SOL     OW 3645   3.159   2.676   1.591 -0.2093  0.3341 -0.4127
    1SOL    HW2 3646   3.234   2.719   1.548  0.7089 -0.3073  0.5239
    1SOL    HW3 3647   3.155   2.589   1.551  0.9436 -0.4358  1.1173
    1SOL    MW4 3648   3.168   2.670   1.580  0.0639  0.1478 -0.0873
    1SOL     OW 3649   3.388   2.819   1.476 -0.0191  0.1358  0.5563
    1SOL    HW2 3650   3.371   2.905   1.515 -1.2353 -0.1486  0.6816
    1SOL    HW3 3651   3.384   2.835   1.381  1.5357  0.5527  0.5465
    1SOL    MW4 3652   3.385   2.833   1.468  0.0257  0.1535  0.5716
    1SOL     OW 3653   3.367   3.070   1.610  0.6331 -0.3964 -0.1913
    1SOL    HW2 3654   3.357   3.068   1.705 -1.9678  1.3829 -0.3831
    1SOL    HW3 3655   3.426   3.143   1.594  0.1729  0.0184 -0.0066
    1SOL    MW4 3656   3.373   3.079   1.621  0.2294 -0.1070 -0.1922
    1SOL     OW 3657   3.142   3.226   1.553 -0.0034 -0.5044 -0.1354
    1SOL    HW2 3658   3.161   3.318   1.573 -0.4934 -0.4815  0.2521
    1SOL    HW3 3659   3.218   3.179   1.586  0.4556 -0.1956 -0.7443
    1SOL    MW4 3660   3.154   3.232   1.560 -0.0074 -0.4606 -0.1646
    1SOL     OW 3661   3.157   3.485   1.602 -0.2818  0.3095 -0.1190
    1SOL    HW2 3662   3.146   3.492   1.697 -0.3443  0.1853 -0.1161
    1SOL    HW3 3663   3.074   3.519   1.567 -0.1661  0.5729 -0.1361
    1SOL    MW4 3664   3.144   3.490   1.610 -0.2749  0.3281 -0.1209
    1SOL     OW 3665   3.398   3.595   1.538 -0.3204  0.1910 -0.0568
    1SOL    HW2 3666   3.471   3.539   1.564  0.2136 -0.1227 -2.1387
    1SOL    HW3 3667   3.321   3.557   1.580  0.2781 -1.2260 -0.2352
    1SOL    MW4 3668   3.397   3.583   1.547 -0.1712 -0.0374 -0.3549
    1SOL     OW 3669   3.413   3.864   1.568  0.3905  0.5330 -0.3606
    1SOL    HW2 3670   3.327   3.885   1.530 -0.0707 -0.5609  0.0706
    1SOL    HW3 3671   3.417   3.769   1.568  1.6214  0.5740 -0.3880
    1SOL    MW4 3672   3.402   3.854   1.563  0.4921  0.3941 -0.3074
    1SOL     OW 3673   3.143   3.981   1.448 -0.1077  0.1428 -0.4763
    1SOL    HW2 3674   3.150   4.066   1.490 -0.1116  0.2425 -0.6798
    1SOL    HW3 3675   3.056   3.948   1.474 -0.5055  0.6217 -1.1919
    1SOL    MW4 3676   3.132   3.988   1.457 -0.1607  0.2189 -0.5976
    1SOL     OW 3677   3.161   4.248   1.581  0.0761 -0.8039 -0.2030
    1SOL    HW2 3678   3.169   4.274   1.672  0.1405 -0.2954 -0.3491
    1SOL    HW3 3679   3.078   4.286   1.552  0.8348  0.4492 -0.8030
    1SOL    MW4 3680   3.151   4.256   1.589  0.1850 -0.5717 -0.3014
    1SOL     OW 3681   3.383   4.395   1.507  0.7556  0.0106 -0.0454
    1SOL    HW2 3682   3.305   4.351   1.542  0.9467  0.4950  0.9971
    1SOL    HW3 3683   3.370   4.394   1.412 -2.1004  2.9708  0.2320
    1SOL    MW4 3684   3.371   4.389   1.499  0.4039  0.4654  0.1289
    1SOL     OW 3685   3.811   0.023   1.583  0.2029  0.1656 -0.1603
    1SOL    HW2 3686   3.824   0.013   1.677 -0.5174  0.2460 -0.0529
    1SOL    HW3 3687   3.899   0.040   1.549  0.3887  0.6599  0.5581
    1SOL    MW4 3688   3.824   0.024   1.591  0.1323  0.2418 -0.0514
    1SOL     OW 3689   3.590   0.125   1.445  0.1003  0.3239 -0.1842
    1SOL    HW2 3690   3.676   0.102   1.479  0.1465  1.3507  0.4128
    1SOL    HW3 3691   3.600   0.120   1.350  0.4772 -0.7489 -0.0998
    1SOL    MW4 3692   3.603   0.121   1.437  0.1559  0.3178 -0.0945
    1SOL     OW 3693   3.553   0.377   1.576  0.2850  0.2613 -0.6802
    1SOL    HW2 3694   3.560   0.300   1.521 -1.1701 -0.1273 -0.3272
    1SOL    HW3 3695   3.474   0.422   1.546 -0.7659 -0.1665  1.3194
    1SOL    MW4 3696   3.543   0.373   1.565 -0.0458  0.1536 -0.3697
    1SOL     OW 3697   3.799   0.511   1.536  0.0658 -0.0378  0.5085
    1SOL    HW2 3698   3.720   0.460   1.553  0.8415 -1.0320  1.1714
    1SOL    HW3 3699   3.802   0.518   1.440 -1.2985  0.7868  0.5062
    1SOL    MW4 3700   3.789   0.506   1.525 -0.0119 -0.0602  0.5956
    1SOL     OW 3701   3.781   0.767   1.613 -0.4137 -0.3974  0.1347
    1SOL    HW2 3702   3.693   0.797   1.594 -0.4453 -0.3254  0.3954
    1SOL    HW3 3703   3.781   0.675   1.587 -0.8061 -0.6180  0.8933
    1SOL    MW4 3704   3.770   0.759   1.607 -0.4699 -0.4170  0.2692
    1SOL     OW 3705   3.562   0.873   1.472  0.1903 -0.4691 -0.0505
    1SOL    HW2 3706   3.474   0.848   1.500 -0.0139  0.8877  0.5621
    1SOL    HW3 3707   3.560   0.866   1.376 -0.6097 -0.3539 -0.0412
    1SOL    MW4 3708   3.550   0.869   1.463  0.0577 -0.2748  0.0316
    1SOL     OW 3709   3.577   1.124   1.587  0.0275  0.5922  0.0757
    1SOL    HW2 3710   3.646   1.170   1.538 -0.1741 -0.9481 -1.7260
    1SOL    HW3 3711   3.567   1.041   1.541 -0.7366 -0.5928  2.3163
    1SOL    MW4 3712   3.585   1.119   1.574 -0.0999  0.2326  0.1336
    1SOL     OW 3713   3.785   1.294   1.466  0.0527 -0.5524 -0.2035
    1SOL    HW2 3714   3.855   1.249   1.514 -0.6921  0.4845  1.8958
    1SOL    HW3 3715   3.779   1.380   1.507  0.2922  0.8806 -3.0499
    1SOL    MW4 3716   3.794   1.299   1.477 -0.0138 -0.2265 -0.3020
    1SOL     OW 3717   3.775   1.550   1.560 -0.8948 -0.3364  0.3047
    1SOL    HW2 3718   3.783   1.571   1.653 -0.3851  0.3996  0.1021
    1SOL    HW3 3719   3.698   1.598   1.530  0.2750  1.2858 -0.1606
    1SOL    MW4 3720   3.766   1.559   1.568 -0.6731 -0.0253  0.2166
    1SOL     OW 3721   3.528   1.712   1.488 -0.1532 -0.0157  0.1693
    1SOL    HW2 3722   3.470   1.646   1.526  0.5683 -0.7086  0.0921
    1SOL    HW3 3723   3.522   1.697   1.394 -1.6389  1.4465  0.0022
    1SOL    MW4 3724   3.519   1.701   1.481 -0.2539  0.0858  0.1371
    1SOL     OW 3725   3.555   1.964   1.613  0.3291  0.1490  0.0480
    1SOL    HW2 3726   3.543   1.875   1.580  2.1088 -0.1138  0.1087
    1SOL    HW3 3727   3.485   2.015   1.571 -0.1232 -1.0779 -0.6882
    1SOL    MW4 3728   3.544   1.959   1.603  0.5043 -0.0477 -0.0410
    1SOL     OW 3729   3.775   2.054   1.485  0.0234 -0.1483  0.5849
    1SOL    HW2 3730   3.790   2.141   1.522 -2.1481  0.5723 -0.1610
    1SOL    HW3 3731   3.707   2.016   1.541  0.0791 -0.8807  0.1574
    1SOL    MW4 3732   3.768   2.061   1.498 -0.2556 -0.1500  0.4301
    1SOL     OW 3733   3.843   2.298   1.576  0.4407 -0.3777  0.5750
    1SOL    HW2 3734   3.839   2.307   1.672 -2.3721  2.9292  0.2511
    1SOL    HW3 3735   3.911   2.361   1.550  0.7342 -0.7918  0.3430
    1SOL    MW4 3736   3.851   2.308   1.586  0.1082  0.0041  0.5016
    1SOL     OW 3737   3.613   2.430   1.476 -0.0995 -0.4749 -0.2416
    1SOL    HW2 3738   3.618   2.518   1.514 -0.0619 -0.2177 -0.8332
    1SOL    HW3 3739   3.689   2.384   1.512 -0.1932 -0.3074  0.1756
    1SOL    MW4 3740   3.624   2.436   1.486 -0.1070 -0.4189 -0.2645
    1SOL     OW 3741   3.636   2.701   1.558 -0.2085 -0.0530 -0.0044
    1SOL    HW2 3742   3.642   2.717   1.652  0.0710 -0.8581  0.1180
    1SOL    HW3 3743   3.550   2.736   1.533  0.1181  1.0542  0.3587
    1SOL    MW4 3744   3.625   2.708   1.567 -0.1285 -0.0134  0.0597
    1SOL     OW 3745   3.853   2.845   1.477 -0.0135  0.1479 -0.0423
    1SOL    HW2 3746   3.934   2.814   1.517  0.0901  0.3995 -0.0503
    1SOL    HW3 3747   3.784   2.793   1.517  0.2029 -0.4699 -0.4570
    1SOL    MW4 3748   3.855   2.834   1.487  0.0288  0.0997 -0.0981
    1SOL     OW 3749   3.819   3.088   1.591  0.2006  0.4877 -0.3901
    1SOL    HW2 3750   3.894   3.136   1.557  0.7113 -0.3675 -0.4997
    1SOL    HW3 3751   3.822   3.004   1.544  0.2090 -0.2331  0.8818
    1SOL    MW4 3752   3.830   3.083   1.580  0.2692  0.2797 -0.2369
    1SOL     OW 3753   3.590   3.214   1.529 -0.0919  0.1670  0.1490
    1SOL    HW2 3754   3.673   3.172   1.548 -0.0504  0.3078  0.2806
    1SOL    HW3 3755   3.587   3.221   1.434  0.1733  0.4212  0.1603
    1SOL    MW4 3756   3.600   3.209   1.519 -0.0515  0.2191  0.1678
    1SOL     OW 3757   3.620   3.452   1.634 -0.4726 -0.2955  0.2905
    1SOL    HW2 3758   3.688   3.486   1.577 -1.5220  0.6490 -0.4168
    1SOL    HW3 3759   3.611   3.360   1.609  1.6499 -0.8562  1.4956
    1SOL    MW4 3760   3.628   3.444   1.623 -0.3309 -0.2449  0.3562
    1SOL     OW 3761   3.798   3.619   1.492  0.1942  0.0424 -0.3578
    1SOL    HW2 3762   3.883   3.582   1.517 -0.1765  0.0686  0.9315
    1SOL    HW3 3763   3.802   3.710   1.521 -0.0950  0.1758 -0.7338
    1SOL    MW4 3764   3.810   3.626   1.499  0.1070  0.0637 -0.2372
    1SOL     OW 3765   3.824   3.883   1.594  0.1353 -0.4350  0.5099
    1SOL    HW2 3766   3.915   3.905   1.573  0.0453 -0.0692  0.5027
    1SOL    HW3 3767   3.772   3.950   1.550 -0.1448 -0.6994  0.4357
    1SOL    MW4 3768   3.829   3.895   1.585  0.0865 -0.4218  0.4991
    1SOL     OW 3769   3.616   4.022   1.471  0.2221 -0.2714  0.4574
    1SOL    HW2 3770   3.614   4.109   1.511 -0.1315 -0.2512  0.3958
    1SOL    HW3 3771   3.544   3.975   1.513 -0.0425 -0.3052 -0.0353
    1SOL    MW4 3772   3.606   4.027   1.482  0.1407 -0.2737  0.3842
    1SOL     OW 3773   3.616   4.266   1.576 -0.2703 -0.4989  0.0514
    1SOL    HW2 3774   3.618   4.270   1.672 -0.0857  0.1503  0.0251
    1SOL    HW3 3775   3.542   4.321   1.551 -0.3192 -0.6696 -0.1816
    1SOL    MW4 3776   3.607   4.274   1.586 -0.2525 -0.4363  0.0172
    1SOL     OW 3777   3.824   4.428   1.495 -0.0340 -0.1817  0.2522
    1SOL    HW2 3778   3.762   4.366   1.533 -0.6590  0.3189  0.0779
    1SOL    HW3 3779   3.798   4.513   1.532  0.5585  0.0292  0.1844
    1SOL    MW4 3780   3.812   4.431   1.505 -0.0384 -0.0873  0.2202
    1SOL     OW 3781   4.248   4.663   1.592 -0.0475 -0.2709 -0.5459
    1SOL    HW2 3782   4.240   4.647   1.686  0.5202  0.1852 -0.4205
    1SOL    HW3 3783   4.249   4.575   1.553  0.6825 -0.4912 -0.0453
    1SOL    MW4 3784   4.247   4.649   1.599  0.1240 -0.2398 -0.4634
    1SOL     OW 3785   4.049   0.110   1.456  0.0890 -0.1039  0.0412
    1SOL    HW2 3786   4.036   0.198   1.490  1.0561  0.5664 -1.2389
    1SOL    HW3 3787   4.133   0.083   1.492  0.0582 -0.2686 -0.0121
    1SOL    MW4 3788   4.059   0.118   1.465  0.2131 -0.0372 -0.1347
    1SOL     OW 3789   4.022   0.355   1.567  0.0304 -0.2288  0.0929
    1SOL    HW2 3790   4.029   0.333   1.660 -0.1691 -0.2769  0.0967
    1SOL    HW3 3791   3.941   0.406   1.561  0.8384  1.0941  0.1965
    1SOL    MW4 3792   4.012   0.359   1.579  0.1106 -0.0606  0.1070
    1SOL     OW 3793   4.235   0.520   1.499 -0.7173  0.1983  0.4268
    1SOL    HW2 3794   4.167   0.455   1.518 -0.5382  0.2216  1.1637
    1SOL    HW3 3795   4.317   0.478   1.524 -0.5148  0.4030  0.1222
    1SOL    MW4 3796   4.237   0.506   1.505 -0.6666  0.2283  0.4839
    1SOL     OW 3797   4.210   0.788   1.555 -0.0817  0.2601  0.1064
    1SOL    HW2 3798   4.225   0.698   1.526  0.4002  0.1200  0.7737
    1SOL    HW3 3799   4.278   0.838   1.510  0.2124  0.1550  0.4352
    1SOL    MW4 3800   4.221   0.782   1.545  0.0200  0.2277  0.2377
    1SOL     OW 3801   3.972   0.919   1.463  0.0502 -0.3883 -0.1677
    1SOL    HW2 3802   4.051   0.871   1.488  0.2424 -0.2537 -0.5124
    1SOL    HW3 3803   3.902   0.877   1.513  0.7021  1.1156  2.1170
    1SOL    MW4 3804   3.973   0.907   1.473  0.1616 -0.1721  0.0882
    1SOL     OW 3805   3.991   1.156   1.613 -0.3323  0.3653 -0.7388
    1SOL    HW2 3806   3.997   1.164   1.708 -0.9203  1.2237 -0.7705
    1SOL    HW3 3807   3.988   1.061   1.597 -0.5249  0.2258  0.1134
    1SOL    MW4 3808   3.992   1.145   1.623 -0.4351  0.4601 -0.6305
    1SOL     OW 3809   4.186   1.298   1.488  0.2606 -0.6269 -0.0673
    1SOL    HW2 3810   4.112   1.249   1.524  1.0267 -0.8744  1.2249
    1SOL    HW3 3811   4.263   1.250   1.518  0.9666  0.0195 -0.8122
    1SOL    MW4 3812   4.187   1.285   1.497  0.4554 -0.5742  0.0050
    1SOL     OW 3813   4.202   1.567   1.588  0.5105 -0.1990  0.0568
    1SOL    HW2 3814   4.184   1.479   1.556  0.5183 -0.1531 -0.0724
    1SOL    HW3 3815   4.279   1.596   1.539  0.9236 -0.3825  0.5878
    1SOL    MW4 3816   4.210   1.559   1.578  0.5660 -0.2171  0.1098
    1SOL     OW 3817   4.016   1.680   1.434 -0.1833  0.1658  0.0638
    1SOL    HW2 3818   4.089   1.643   1.484  0.2573  1.5650  0.4600
    1SOL    HW3 3819   3.938   1.647   1.479  0.1982 -0.4333  0.3008
    1SOL    MW4 3820   4.015   1.671   1.447 -0.0749  0.2714  0.1475
    1SOL     OW 3821   3.984   1.907   1.584 -0.0579  0.1403 -0.1751
    1SOL    HW2 3822   3.996   1.835   1.522  0.8630  0.2101 -0.0940
    1SOL    HW3 3823   3.905   1.952   1.555 -0.2627 -0.5089 -0.6208
    1SOL    MW4 3824   3.975   1.904   1.572  0.0367  0.0638 -0.2232
    1SOL     OW 3825   4.215   2.077   1.538  0.1259 -0.6206  0.3732
    1SOL    HW2 3826   4.137   2.032   1.569 -0.4297  0.1989  0.1731
    1SOL    HW3 3827   4.200   2.092   1.445 -0.2698  1.1240  0.6950
    1SOL    MW4 3828   4.203   2.073   1.530  0.0005 -0.2820  0.3893
    1SOL     OW 3829   4.283   2.322   1.620  0.2139  0.1750 -0.0954
    1SOL    HW2 3830   4.272   2.321   1.715  0.9191 -1.2168 -0.0246
    1SOL    HW3 3831   4.254   2.235   1.592  1.1846  0.1440 -1.0202
    1SOL    MW4 3832   4.278   2.310   1.629  0.4349 -0.0126 -0.2080
    1SOL     OW 3833   4.057   2.469   1.536  0.0864 -0.1329 -0.3987
    1SOL    HW2 3834   4.062   2.561   1.564 -0.1202  0.4716 -2.2398
    1SOL    HW3 3835   4.125   2.424   1.586 -1.1355  0.6139  2.0107
    1SOL    MW4 3836   4.067   2.475   1.546 -0.1020  0.0455 -0.3237
    1SOL     OW 3837   4.078   2.734   1.630  0.3446 -0.1223  0.2646
    1SOL    HW2 3838   4.087   2.724   1.725  1.5562 -0.5400  0.1180
    1SOL    HW3 3839   4.144   2.800   1.607  0.2344 -0.2137 -0.3222
    1SOL    MW4 3840   4.088   2.742   1.640  0.4897 -0.1895  0.1678
    1SOL     OW 3841   4.286   2.896   1.555 -0.0985 -0.0159 -0.0395
    1SOL    HW2 3842   4.301   2.988   1.579 -1.5393  0.1683  0.1871
    1SOL    HW3 3843   4.276   2.897   1.460 -0.7622  0.1495  0.0334
    1SOL    MW4 3844   4.287   2.908   1.546 -0.3762  0.0303  0.0000
    1SOL     OW 3845   4.310   3.177   1.617  0.0834  0.0157  0.4880
    1SOL    HW2 3846   4.332   3.162   1.710  1.6420 -0.0378  0.1284
    1SOL    HW3 3847   4.387   3.220   1.581 -0.0704 -0.9434 -1.0437
    1SOL    MW4 3848   4.323   3.180   1.625  0.2689 -0.1180  0.2384
    1SOL     OW 3849   4.048   3.236   1.510 -0.3456  0.1397 -0.6241
    1SOL    HW2 3850   4.029   3.320   1.551 -1.0214  0.4366 -1.5343
    1SOL    HW3 3851   4.128   3.206   1.553 -0.1097  1.2367 -0.2841
    1SOL    MW4 3852   4.056   3.243   1.521 -0.4039  0.3235 -0.6994
    1SOL     OW 3853   4.033   3.500   1.583 -0.3318 -0.0672  0.1598
    1SOL    HW2 3854   4.049   3.504   1.677 -0.1322 -2.1821  0.2466
    1SOL    HW3 3855   4.116   3.527   1.543 -0.2586  0.3410  0.5810
    1SOL    MW4 3856   4.046   3.504   1.590 -0.2961 -0.2928  0.2269
    1SOL     OW 3857   4.289   3.572   1.502  0.5448 -0.1658  0.1210
    1SOL    HW2 3858   4.304   3.657   1.543  2.0394  0.1574 -1.0590
    1SOL    HW3 3859   4.290   3.590   1.408  0.7239 -1.4644 -0.1316
    1SOL    MW4 3860   4.291   3.585   1.495  0.7658 -0.2944 -0.0679
    1SOL     OW 3861   4.289   3.846   1.584  0.2113  0.2094  0.3872
    1SOL    HW2 3862   4.213   3.891   1.548  0.4745 -0.4966 -1.0955
    1SOL    HW3 3863   4.363   3.900   1.557  0.4335 -0.4885 -0.4246
    1SOL    MW4 3864   4.289   3.859   1.576  0.2751  0.0243  0.0846
    1SOL     OW 3865   4.066   3.975   1.490 -0.2111  0.3208 -0.2179
    1SOL    HW2 3866   4.053   4.067   1.514  0.2119  0.3183  0.0358
    1SOL    HW3 3867   4.077   3.976   1.395  0.4514  0.6151 -0.1440
    1SOL    MW4 3868   4.066   3.987   1.481 -0.0677  0.3593 -0.1746
    1SOL     OW 3869   4.022   4.226   1.596  0.0389 -0.0344  0.4452
    1SOL    HW2 3870   4.010   4.233   1.690 -1.6829  1.3833  0.1408
    1SOL    HW3 3871   3.967   4.295   1.559  0.3291 -0.8612 -1.6230
    1SOL    MW4 3872   4.013   4.236   1.603 -0.1497  0.0439  0.1322
    1SOL     OW 3873   4.237   4.391   1.515 -0.1045 -0.2041  0.5259
    1SOL    HW2 3874   4.160   4.346   1.549 -0.6200 -0.3524 -0.8197
    1SOL    HW3 3875   4.215   4.411   1.424  1.3454 -0.0094  0.2094
    1SOL    MW4 3876   4.224   4.388   1.507  0.0186 -0.1979  0.3066
    1SOL     OW 3877   0.242   4.614   1.878 -0.0186 -0.3717  0.8705
    1SOL    HW2 3878   0.315   4.666   1.910 -0.7027  0.5495  0.9502
    1SOL    HW3 3879   0.235   4.636   1.786  0.2450 -0.9977  0.6952
    1SOL    MW4 3880   0.250   4.624   1.870 -0.0741 -0.3324  0.8579
    1SOL     OW 3881   4.482   0.063   1.991  0.0247  0.1170  0.0740
    1SOL    HW2 3882   4.503   0.155   1.978 -1.1245  0.2604 -0.8771
    1SOL    HW3 3883   4.555   0.016   1.951 -0.0842  0.6159 -0.7243
    1SOL    MW4 3884   4.494   0.069   1.984 -0.1413  0.2017 -0.1569
    1SOL     OW 3885   0.026   0.348   1.882 -0.1915  0.1983 -0.2024
    1SOL    HW2 3886  -0.052   0.403   1.889  0.0996  0.3827  1.6897
    1SOL    HW3 3887   0.098   0.403   1.913  0.1346 -1.1714  1.5337
    1SOL    MW4 3888   0.025   0.362   1.887 -0.1101  0.0419  0.2763
    1SOL     OW 3889   0.234   0.485   1.994 -0.0014 -0.4384  0.0841
    1SOL    HW2 3890   0.311   0.449   1.950 -0.7352  0.4660 -1.9761
    1SOL    HW3 3891   0.224   0.573   1.958 -0.9927  0.1043  1.6134
    1SOL    MW4 3892   0.243   0.492   1.984 -0.2290 -0.2475  0.0141
    1SOL     OW 3893   0.216   0.732   1.881  0.2195 -0.0411 -0.0382
    1SOL    HW2 3894   0.296   0.780   1.902 -0.4232  1.1284 -0.2530
    1SOL    HW3 3895   0.208   0.739   1.785 -0.8588  1.0188  0.1141
    1SOL    MW4 3896   0.225   0.739   1.871 -0.0076  0.2531 -0.0465
    1SOL     OW 3897   4.459   0.889   1.947  0.2949  0.2643 -0.2337
    1SOL    HW2 3898   4.383   0.852   1.902 -0.1007 -1.3031  1.6691
    1SOL    HW3 3899   4.532   0.833   1.920  0.1123 -0.4861  0.8178
    1SOL    MW4 3900   4.459   0.877   1.937  0.2189 -0.0415  0.1560
    1SOL     OW 3901   0.015   1.131   1.842 -0.4508  0.0181  0.3406
    1SOL    HW2 3902  -0.054   1.190   1.870 -0.0429  0.8451 -0.3776
    1SOL    HW3 3903  -0.011   1.045   1.876 -1.4419  0.4591  0.6998
    1SOL    MW4 3904   0.003   1.128   1.850 -0.5274  0.1854  0.2933
    1SOL     OW 3905   0.230   1.228   1.966  0.8799 -0.0664 -0.0184
    1SOL    HW2 3906   0.225   1.324   1.966  0.2975 -0.0954  0.1252
    1SOL    HW3 3907   0.152   1.200   1.918 -0.1779 -0.5375  1.9394
    1SOL    MW4 3908   0.219   1.237   1.959  0.6635 -0.1324  0.2589
    1SOL     OW 3909   0.207   1.504   1.926 -0.2102 -0.3518 -0.5958
    1SOL    HW2 3910   0.288   1.552   1.944  0.7270 -1.9452 -0.5293
    1SOL    HW3 3911   0.138   1.564   1.954  0.8985  1.3873 -1.4755
    1SOL    MW4 3912   0.209   1.518   1.933  0.0598 -0.3325 -0.7032
    1SOL     OW 3913   0.011   1.708   1.960  0.2206  0.2535 -0.2829
    1SOL    HW2 3914  -0.001   1.717   2.054 -0.3983  2.1009 -0.5087
    1SOL    HW3 3915  -0.069   1.664   1.929 -1.1192  2.6172 -0.3423
    1SOL    MW4 3916  -0.001   1.704   1.968 -0.0377  0.8091 -0.3204
    1SOL     OW 3917   4.486   1.983   1.861  0.2406  0.1319  0.2071
    1SOL    HW2 3918   4.401   2.022   1.879  0.0420  0.6445 -1.7990
    1SOL    HW3 3919   4.477   1.891   1.888 -0.9938  0.1333 -0.2151
    1SOL    MW4 3920   4.474   1.976   1.867  0.0515  0.1996 -0.1134
    1SOL     OW 3921   0.219   2.088   1.980  0.2258  0.2618  0.0221
    1SOL    HW2 3922   0.218   2.178   1.947  0.1366 -0.1117 -1.0139
    1SOL    HW3 3923   0.152   2.043   1.929  1.5320 -0.8370 -0.7600
    1SOL    MW4 3924   0.210   2.094   1.969  0.3864  0.0675 -0.2177
    1SOL     OW 3925   0.203   2.332   1.877  0.0638 -0.1309 -0.0001
    1SOL    HW2 3926   0.279   2.368   1.923  0.6403  1.2063 -1.9368
    1SOL    HW3 3927   0.128   2.368   1.925  0.6476  0.6871  0.3321
    1SOL    MW4 3928   0.203   2.342   1.890  0.2169  0.1538 -0.2118
    1SOL     OW 3929   4.457   2.472   1.977 -0.0551 -0.1471 -0.0757
    1SOL    HW2 3930   4.465   2.480   2.072  1.5336  0.1808 -0.2337
    1SOL    HW3 3931   4.494   2.554   1.943  2.9089 -1.8661 -1.1181
    1SOL    MW4 3932   4.463   2.484   1.985  0.5450 -0.3309 -0.2340
    1SOL     OW 3933   0.025   2.735   1.857  0.1858 -0.1834  0.5633
    1SOL    HW2 3934  -0.058   2.764   1.894 -0.4469 -2.3142  0.9241
    1SOL    HW3 3935   0.009   2.729   1.763 -0.2746 -1.1660  0.6952
    1SOL    MW4 3936   0.012   2.738   1.849  0.0415 -0.5941  0.6284
    1SOL     OW 3937   0.235   2.868   2.005  0.4476  0.6256 -0.3765
    1SOL    HW2 3938   0.228   2.958   1.974  0.2114  1.3471  1.6950
    1SOL    HW3 3939   0.163   2.822   1.961 -0.4825  1.8300 -0.1469
    1SOL    MW4 3940   0.224   2.874   1.995  0.2937  0.8793 -0.0727
    1SOL     OW 3941   0.214   3.143   1.907  0.3089 -0.0445  0.0558
    1SOL    HW2 3942   0.306   3.151   1.934  0.1146  0.0924  0.7001
    1SOL    HW3 3943   0.217   3.132   1.812  0.8868  1.9681 -0.1777
    1SOL    MW4 3944   0.227   3.143   1.898  0.3595  0.2389  0.1100
    1SOL     OW 3945   4.488   3.279   2.026 -0.3008  0.7204 -0.0298
    1SOL    HW2 3946   4.409   3.233   1.998  0.1308 -0.5909  0.8670
    1SOL    HW3 3947   4.560   3.226   1.990  0.1731  2.2318 -1.3618
    1SOL    MW4 3948   4.487   3.266   2.017 -0.1813  0.7470 -0.0873
    1SOL     OW 3949   0.034   3.532   1.884  0.0785 -0.2156  0.1014
    1SOL    HW2 3950   0.118   3.553   1.924 -0.5095  0.0871  1.1937
    1SOL    HW3 3951   0.012   3.445   1.917 -0.7309  0.3183  0.9885
    1SOL    MW4 3952   0.042   3.523   1.894 -0.1058 -0.1054  0.3625
    1SOL     OW 3953   0.261   3.634   1.994  0.2900  0.0430  0.7473
    1SOL    HW2 3954   0.240   3.624   2.087  1.3916 -0.9364  0.9040
    1SOL    HW3 3955   0.329   3.569   1.978 -1.6067 -1.4808 -1.3392
    1SOL    MW4 3956   0.268   3.624   2.004  0.1851 -0.2873  0.4928
    1SOL     OW 3957   0.228   3.881   1.867  0.5750  0.3293  0.0596
    1SOL    HW2 3958   0.294   3.933   1.913  0.8779  0.1049 -0.1205
    1SOL    HW3 3959   0.243   3.791   1.897  1.6500 -0.0220 -1.4983
    1SOL    MW4 3960   0.238   3.876   1.877  0.7568  0.2537 -0.1698
    1SOL     OW 3961   4.464   3.985   1.930 -0.0420  0.1173 -0.6064
    1SOL    HW2 3962   4.486   4.075   1.907 -1.2722  1.2809  2.4606
    1SOL    HW3 3963   4.541   3.934   1.907  1.9436  2.4984  0.6223
    1SOL    MW4 3964   4.477   3.990   1.924  0.0577  0.5853 -0.0396
    1SOL     OW 3965   4.483   4.261   1.847 -0.3503 -0.5515  0.0674
    1SOL    HW2 3966   4.403   4.301   1.883 -0.5472  0.1165 -1.1031
    1SOL    HW3 3967   4.553   4.302   1.898 -0.3780  3.1623 -2.6919
    1SOL    MW4 3968   4.481   4.272   1.859 -0.3799  0.0262 -0.4511
    1SOL     OW 3969   0.204   4.365   1.978 -0.1145 -0.2640 -0.0179
    1SOL    HW2 3970   0.232   4.381   2.068  0.3348  1.9682 -0.5109
    1SOL    HW3 3971   0.204   4.452   1.938  0.5753 -1.3300 -2.4214
    1SOL    MW4 3972   0.208   4.379   1.984  0.0358 -0.1097 -0.4001
    1SOL     OW 3973   0.670   0.011   1.850  0.1491  0.0134 -0.1857
    1SOL    HW2 3974   0.679  -0.081   1.878  0.4963  0.1369  0.1128
    1SOL    HW3 3975   0.649   0.006   1.757  0.5025 -0.3626 -0.2473
    1SOL    MW4 3976   0.668  -0.002   1.841  0.2416 -0.0196 -0.1545
    1SOL     OW 3977   0.450   0.113   1.971  0.1952  0.1568 -0.3262
    1SOL    HW2 3978   0.441   0.201   1.933 -0.1519  0.4326  0.3793
    1SOL    HW3 3979   0.528   0.077   1.930 -0.0203  0.5512 -1.1005
    1SOL    MW4 3980   0.459   0.120   1.961  0.1210  0.2452 -0.3353
    1SOL     OW 3981   0.450   0.364   1.872 -0.0996  0.4847 -0.5548
    1SOL    HW2 3982   0.533   0.398   1.907  0.4435 -0.4799 -0.8623
    1SOL    HW3 3983   0.456   0.379   1.778  1.1026 -2.3291 -0.9956
    1SOL    MW4 3984   0.462   0.370   1.864  0.1307 -0.0138 -0.6535
    1SOL     OW 3985   0.667   0.486   1.988 -0.1573 -0.7201 -0.2065
    1SOL    HW2 3986   0.669   0.498   2.083  0.9928  0.2818 -0.3504
    1SOL    HW3 3987   0.742   0.429   1.970  0.7423  0.6207 -0.7165
    1SOL    MW4 3988   0.677   0.480   1.998  0.1131 -0.4111 -0.2925
    1SOL     OW 3989   0.693   0.729   1.875  0.1856 -0.2055  0.1132
    1SOL    HW2 3990   0.776   0.767   1.904 -0.1547 -0.1156  0.9985
    1SOL    HW3 3991   0.697   0.638   1.903  0.3986 -0.4564 -0.7276
    1SOL    MW4 3992   0.704   0.722   1.883  0.1688 -0.2267  0.1190
    1SOL     OW 3993   0.456   0.878   1.983  0.1163  0.0997  0.4172
    1SOL    HW2 3994   0.455   0.883   2.079  0.4629 -0.3062  0.4425
    1SOL    HW3 3995   0.537   0.832   1.963 -0.2578 -0.3526 -0.0494
    1SOL    MW4 3996   0.467   0.873   1.993  0.1127 -0.0135  0.3589
    1SOL     OW 3997   0.451   1.123   1.838  0.5539 -0.1923 -0.4031
    1SOL    HW2 3998   0.376   1.169   1.875 -0.3634 -0.2272 -2.1393
    1SOL    HW3 3999   0.445   1.034   1.874 -0.2912 -0.2141 -0.5916
    1SOL    MW4 4000   0.440   1.117   1.847  0.3214 -0.1997 -0.6570
    1SOL     OW 4001   0.681   1.269   1.959  0.0828  0.1535  0.2991
    1SOL    HW2 4002   0.666   1.258   2.053 -1.4723  0.9079  0.1495
    1SOL    HW3 4003   0.615   1.214   1.918  0.3184  0.3620 -0.3628
    1SOL    MW4 4004   0.671   1.260   1.966 -0.0913  0.2806  0.1920
    1SOL     OW 4005   0.698   1.540   1.870 -0.3638 -0.0420  0.4743
    1SOL    HW2 4006   0.693   1.459   1.921  0.6023 -0.6576 -0.4026
    1SOL    HW3 4007   0.665   1.516   1.784  2.1194 -0.1084 -0.4932
    1SOL    MW4 4008   0.693   1.526   1.866  0.0913 -0.1320  0.2309
    1SOL     OW 4009   0.450   1.651   1.975  0.4953  0.5302 -0.5715
    1SOL    HW2 4010   0.454   1.638   2.070 -0.0245 -0.0247 -0.6290
    1SOL    HW3 4011   0.533   1.616   1.943  0.9443  1.2784 -0.2621
    1SOL    MW4 4012   0.461   1.645   1.983  0.4860  0.5559 -0.5381
    1SOL     OW 4013   0.430   1.924   1.870 -0.3238 -0.1224 -0.3280
    1SOL    HW2 4014   0.422   1.847   1.926  1.9888  0.7828  1.3571
    1SOL    HW3 4015   0.368   1.987   1.907  1.1894  0.4667  1.2597
    1SOL    MW4 4016   0.421   1.922   1.882  0.1810  0.0747  0.1038
    1SOL     OW 4017   0.657   2.052   1.943  0.6994  0.1552  0.3215
    1SOL    HW2 4018   0.661   2.045   2.039  1.0254 -0.6989  0.2495
    1SOL    HW3 4019   0.579   2.003   1.918  0.4980  0.5565  0.1663
    1SOL    MW4 4020   0.648   2.045   1.952  0.7159  0.0954  0.2915
    1SOL     OW 4021   0.661   2.326   1.889 -0.0772 -0.0171 -0.1815
    1SOL    HW2 4022   0.659   2.237   1.924  0.6819 -0.3438 -0.9400
    1SOL    HW3 4023   0.665   2.314   1.794 -0.7434  0.8420 -0.3190
    1SOL    MW4 4024   0.662   2.312   1.881 -0.0650  0.0529 -0.2997
    1SOL     OW 4025   0.430   2.452   2.016 -0.2087 -0.1632  0.3977
    1SOL    HW2 4026   0.439   2.432   2.109  0.0994 -1.2492  0.1527
    1SOL    HW3 4027   0.508   2.412   1.976 -1.4393 -1.6483 -0.5884
    1SOL    MW4 4028   0.442   2.444   2.023 -0.3304 -0.5026  0.2353
    1SOL     OW 4029   0.460   2.715   1.932  0.3323 -0.1511 -0.0626
    1SOL    HW2 4030   0.449   2.624   1.960 -0.8436 -0.1928 -0.6348
    1SOL    HW3 4031   0.386   2.761   1.971 -0.5782  0.0489 -1.9682
    1SOL    MW4 4032   0.449   2.710   1.941  0.0570 -0.1304 -0.3896
    1SOL     OW 4033   0.706   2.829   1.983 -0.0765 -0.5306 -0.1805
    1SOL    HW2 4034   0.716   2.823   2.078  1.5652 -0.6408 -0.3419
    1SOL    HW3 4035   0.618   2.796   1.966 -0.4232 -0.4262  1.3103
    1SOL    MW4 4036   0.696   2.824   1.993  0.0944 -0.5312 -0.0052
    1SOL     OW 4037   0.715   3.086   1.862 -0.0715 -0.4897 -0.0947
    1SOL    HW2 4038   0.722   2.997   1.896  1.3080 -0.0293  0.8262
    1SOL    HW3 4039   0.699   3.074   1.768 -1.1519 -1.7141  0.2303
    1SOL    MW4 4040   0.714   3.073   1.854 -0.0321 -0.5906  0.0696
    1SOL     OW 4041   0.478   3.182   1.950  0.1669  0.5051 -0.0484
    1SOL    HW2 4042   0.479   3.273   1.919 -0.1287  0.4888 -0.1011
    1SOL    HW3 4043   0.566   3.149   1.930  0.4716  0.9686  0.5274
    1SOL    MW4 4044   0.490   3.190   1.943  0.1681  0.5641  0.0207
    1SOL     OW 4045   0.493   3.458   1.910 -0.4918  0.3315 -0.0635
    1SOL    HW2 4046   0.579   3.492   1.933 -1.7476  3.4715  0.2900
    1SOL    HW3 4047   0.480   3.485   1.819 -1.9107  1.6541  0.5187
    1SOL    MW4 4048   0.502   3.466   1.901 -0.8447  0.9203  0.0598
    1SOL     OW 4049   0.707   3.628   2.003  0.2550  0.0174 -0.1542
    1SOL    HW2 4050   0.766   3.579   1.944 -0.8025  0.2689 -1.4314
    1SOL    HW3 4051   0.685   3.707   1.955 -2.1862 -0.6819 -0.2605
    1SOL    MW4 4052   0.712   3.632   1.989 -0.2066 -0.0420 -0.3366
    1SOL     OW 4053   0.658   3.861   1.865  0.6524 -0.3550  0.5772
    1SOL    HW2 4054   0.743   3.889   1.898  1.4546 -1.6041 -0.4286
    1SOL    HW3 4055   0.664   3.870   1.770 -0.2701 -0.6552  0.4840
    1SOL    MW4 4056   0.670   3.866   1.857  0.6366 -0.5596  0.4320
    1SOL     OW 4057   0.451   3.994   1.978 -0.4022  0.0147 -0.3805
    1SOL    HW2 4058   0.443   4.081   1.937 -0.5340  0.3573  0.3731
    1SOL    HW3 4059   0.516   3.949   1.924  1.0144  1.2047  0.2737
    1SOL    MW4 4060   0.459   4.000   1.965 -0.2327  0.2172 -0.1948
    1SOL     OW 4061   0.447   4.251   1.853 -0.7245  0.0595  0.1990
    1SOL    HW2 4062   0.364   4.292   1.879 -1.5153 -1.1244 -0.4382
    1SOL    HW3 4063   0.441   4.243   1.758 -0.3913 -1.1196  0.2750
    1SOL    MW4 4064   0.435   4.255   1.844 -0.7849 -0.2522  0.1249
    1SOL     OW 4065   0.675   4.393   1.942 -0.4263  0.1141 -0.5194
    1SOL    HW2 4066   0.745   4.328   1.936 -0.6490 -0.0741 -1.1287
    1SOL    HW3 4067   0.599   4.350   1.902 -1.4105 -0.3793  1.8144
    1SOL    MW4 4068   0.674   4.379   1.936 -0.5856  0.0238 -0.2918
    1SOL     OW 4069   1.089   4.633   1.912  0.0420  0.0755 -0.2745
    1SOL    HW2 4070   1.177   4.671   1.909  0.6656 -1.3256  0.0761
    1SOL    HW3 4071   1.104   4.539   1.919 -1.4900 -0.0829  0.8916
    1SOL    MW4 4072   1.103   4.626   1.912 -0.0780 -0.1302 -0.0744
    1SOL     OW 4073   0.876   0.130   1.988  0.1486  0.3763  0.6829
    1SOL    HW2 4074   0.945   0.067   1.965  0.6505  0.8830  0.7784
    1SOL    HW3 4075   0.801   0.104   1.935  0.8356  0.6158 -0.4271
    1SOL    MW4 4076   0.875   0.119   1.978  0.3055  0.4748  0.5491
    1SOL     OW 4077   0.900   0.393   1.890 -0.0453 -0.0921  0.0278
    1SOL    HW2 4078   0.972   0.441   1.931  0.6165  0.2341 -1.4946
    1SOL    HW3 4079   0.917   0.301   1.911 -0.3382  0.1679  1.4348
    1SOL    MW4 4080   0.911   0.387   1.898  0.0034 -0.0148  0.0125
    1SOL     OW 4081   1.118   0.518   2.016  0.4498  0.0802  0.1873
    1SOL    HW2 4082   1.193   0.473   1.977 -0.2476  0.4568 -1.6431
    1SOL    HW3 4083   1.123   0.607   1.982 -0.9591  0.0378 -0.1617
    1SOL    MW4 4084   1.128   0.524   2.006  0.1719  0.1242 -0.1001
    1SOL     OW 4085   1.132   0.747   1.855 -0.1326 -0.4024  0.1250
    1SOL    HW2 4086   1.210   0.802   1.863  0.7751 -1.5294 -0.8811
    1SOL    HW3 4087   1.063   0.798   1.898  1.1290  0.6302  0.9748
    1SOL    MW4 4088   1.133   0.761   1.862  0.1535 -0.4149  0.1044
    1SOL     OW 4089   0.920   0.872   1.974 -0.1641  0.3429 -0.1508
    1SOL    HW2 4090   0.932   0.876   2.069  1.5981 -0.6713 -0.3092
    1SOL    HW3 4091   0.918   0.964   1.946  0.0484  0.6393  0.7978
    1SOL    MW4 4092   0.922   0.885   1.983  0.0964  0.2481 -0.0466
    1SOL     OW 4093   0.925   1.135   1.889 -0.5224  0.0021  0.1396
    1SOL    HW2 4094   0.844   1.180   1.911  0.5051  2.1852 -0.4170
    1SOL    HW3 4095   0.930   1.138   1.794 -0.6807 -1.7386  0.0672
    1SOL    MW4 4096   0.915   1.141   1.879 -0.4077  0.0604  0.0565
    1SOL     OW 4097   1.143   1.271   1.999 -0.2149  0.6036 -0.1627
    1SOL    HW2 4098   1.130   1.358   1.961  0.1971  0.7464  0.0150
    1SOL    HW3 4099   1.076   1.216   1.958  0.4704  0.6596 -1.4107
    1SOL    MW4 4100   1.133   1.275   1.988 -0.0701  0.6299 -0.3041
    1SOL     OW 4101   1.133   1.537   1.893  0.2934  0.2331  0.0417
    1SOL    HW2 4102   1.057   1.585   1.923  0.2655 -0.2010  0.6687
    1SOL    HW3 4103   1.133   1.550   1.798 -0.4800  0.3486  0.0522
    1SOL    MW4 4104   1.123   1.545   1.884  0.1876  0.1910  0.1256
    1SOL     OW 4105   0.917   1.673   1.959 -0.7672 -0.6045  0.7085
    1SOL    HW2 4106   0.916   1.755   1.910 -0.3950 -1.3698 -0.6026
    1SOL    HW3 4107   0.844   1.622   1.923 -1.9947 -0.2553  2.5918
    1SOL    MW4 4108   0.907   1.677   1.948 -0.8800 -0.6595  0.7838
    1SOL     OW 4109   0.923   1.932   1.881  0.0086  0.2245 -0.6350
    1SOL    HW2 4110   0.842   1.964   1.920 -0.2799 -1.7084  0.4038
    1SOL    HW3 4111   0.911   1.944   1.786 -1.0102  0.9742 -0.4147
    1SOL    MW4 4112   0.911   1.938   1.873 -0.1639  0.0683 -0.4687
    1SOL     OW 4113   1.142   2.059   1.977  0.0205  0.0160 -0.2467
    1SOL    HW2 4114   1.125   2.146   1.940 -1.4980  0.0058  0.4012
    1SOL    HW3 4115   1.064   2.009   1.956  0.4072 -0.8578  0.4026
    1SOL    MW4 4116   1.129   2.064   1.969 -0.1290 -0.1004 -0.0756
    1SOL     OW 4117   1.100   2.313   1.897 -0.3348 -0.1968  0.2555
    1SOL    HW2 4118   1.181   2.361   1.917  0.1050 -0.5248 -0.7426
    1SOL    HW3 4119   1.096   2.311   1.802 -0.1175 -2.5380  0.2722
    1SOL    MW4 4120   1.110   2.319   1.887 -0.2482 -0.5491  0.1260
    1SOL     OW 4121   0.895   2.442   2.031  0.2325 -0.0875 -0.0950
    1SOL    HW2 4122   0.962   2.394   1.982 -0.5153  0.4039 -1.6320
    1SOL    HW3 4123   0.812   2.402   2.004 -0.0910 -1.2182  2.3854
    1SOL    MW4 4124   0.893   2.430   2.021  0.0911 -0.1719  0.0293
    1SOL     OW 4125   0.957   2.691   1.903  0.0043 -0.3827 -0.0477
    1SOL    HW2 4126   0.942   2.612   1.955 -0.0605 -0.0958  0.3725
    1SOL    HW3 4127   0.883   2.748   1.925  0.8271  0.3884  0.7858
    1SOL    MW4 4128   0.945   2.688   1.913  0.1043 -0.2429  0.1177
    1SOL     OW 4129   1.167   2.840   2.011 -0.5116  0.2966  0.3027
    1SOL    HW2 4130   1.149   2.827   2.104  1.0583 -1.6443  0.3767
    1SOL    HW3 4131   1.112   2.776   1.967  0.2926 -0.2218  0.0439
    1SOL    MW4 4132   1.158   2.830   2.018 -0.1984 -0.0279  0.2782
    1SOL     OW 4133   1.144   3.098   1.895  0.0400  0.1523 -0.0039
    1SOL    HW2 4134   1.064   3.144   1.921  0.7549  0.9627  0.7872
    1SOL    HW3 4135   1.143   3.016   1.944  0.3072  0.7111  0.9347
    1SOL    MW4 4136   1.133   3.093   1.905  0.1695  0.3331  0.2242
    1SOL     OW 4137   0.916   3.247   1.959 -0.1024  0.0507  0.0847
    1SOL    HW2 4138   0.910   3.261   2.054  1.1343  0.1840  0.1503
    1SOL    HW3 4139   0.848   3.183   1.940 -1.1483  0.9026  0.8803
    1SOL    MW4 4140   0.906   3.240   1.969 -0.0772  0.1810  0.1982
    1SOL     OW 4141   0.879   3.491   1.829 -0.0659  0.1066  0.3106
    1SOL    HW2 4142   0.883   3.399   1.857 -0.1086 -0.2986 -0.9828
    1SOL    HW3 4143   0.866   3.486   1.734 -0.5127  1.4571  0.3021
    1SOL    MW4 4144   0.878   3.478   1.820 -0.1305  0.2315  0.1386
    1SOL     OW 4145   1.116   3.601   1.946  0.3380 -0.0943  0.0384
    1SOL    HW2 4146   1.107   3.587   2.040  0.1261 -0.2543 -0.0060
    1SOL    HW3 4147   1.037   3.562   1.908  0.2654  0.2538 -0.1770
    1SOL    MW4 4148   1.104   3.594   1.953  0.3004 -0.0694  0.0042
    1SOL     OW 4149   1.123   3.882   1.845  0.1168  0.1385  0.5760
    1SOL    HW2 4150   1.118   3.799   1.891 -0.9288  0.2255  0.6295
    1SOL    HW3 4151   1.110   3.860   1.753  1.2488  0.0784  0.4268
    1SOL    MW4 4152   1.121   3.868   1.839  0.1280  0.1421  0.5635
    1SOL     OW 4153   0.889   3.974   1.978 -0.0467  0.4489 -0.3543
    1SOL    HW2 4154   0.893   3.977   2.074 -1.0860  1.2077 -0.3277
    1SOL    HW3 4155   0.974   3.940   1.952  0.0379 -0.3240  0.8654
    1SOL    MW4 4156   0.901   3.970   1.987 -0.1726  0.4468 -0.1899
    1SOL     OW 4157   0.904   4.221   1.865 -0.3127  0.1100 -0.4777
    1SOL    HW2 4158   0.972   4.269   1.913 -0.2218 -0.0880 -0.4081
    1SOL    HW3 4159   0.902   4.135   1.905 -0.9091  0.2518 -0.2023
    1SOL    MW4 4160   0.913   4.216   1.876 -0.3794  0.1035 -0.4323
    1SOL     OW 4161   1.125   4.374   1.957  0.6168  0.0317 -0.3099
    1SOL    HW2 4162   1.117   4.379   2.052 -1.7797 -0.2928 -0.4597
    1SOL    HW3 4163   1.203   4.321   1.942  0.1397 -1.2246  1.4896
    1SOL    MW4 4164   1.134   4.368   1.968  0.2376 -0.1769 -0.0921
    1SOL     OW 4165   1.577   4.660   1.887 -0.2696  0.4856 -0.0234
    1SOL    HW2 4166   1.651   4.715   1.913  0.0324  0.3356 -0.5592
    1SOL    HW3 4167   1.593   4.576   1.930 -0.3394  0.5849  0.1930
    1SOL    MW4 4168   1.589   4.656   1.896 -0.2390  0.4783 -0.0654
    1SOL     OW 4169   1.328   0.099   1.944  0.4488 -0.2784 -0.2920
    1SOL    HW2 4170   1.336   0.084   2.038  0.6766  1.3822 -0.0329
    1SOL    HW3 4171   1.411   0.068   1.908  0.1539 -1.4129 -0.0246
    1SOL    MW4 4172   1.340   0.093   1.952  0.4399 -0.2090 -0.2226
    1SOL     OW 4173   1.339   0.376   1.910 -0.1358  0.1355 -0.5066
    1SOL    HW2 4174   1.331   0.281   1.908  0.1886  0.1175 -1.0123
    1SOL    HW3 4175   1.339   0.402   1.818  0.7835  0.5321 -0.4005
    1SOL    MW4 4176   1.338   0.367   1.898  0.0284  0.1855 -0.5593
    1SOL     OW 4177   1.620   0.484   1.978 -0.1205  0.1522  0.3711
    1SOL    HW2 4178   1.679   0.423   1.934 -1.0501 -1.0373  0.7343
    1SOL    HW3 4179   1.532   0.453   1.955 -0.6073  0.4389  1.8012
    1SOL    MW4 4180   1.616   0.472   1.969 -0.3073  0.0331  0.6076
    1SOL     OW 4181   1.581   0.737   1.885  0.3796  0.5466 -0.0195
    1SOL    HW2 4182   1.666   0.770   1.915  0.9585  0.3763 -1.4116
    1SOL    HW3 4183   1.585   0.643   1.903  0.9910  0.3356 -1.2067
    1SOL    MW4 4184   1.593   0.729   1.892  0.5367  0.4963 -0.3600
    1SOL     OW 4185   1.359   0.897   1.942  0.3635 -0.3625  0.3073
    1SOL    HW2 4186   1.334   0.898   2.035  0.3857 -0.7070  0.3172
    1SOL    HW3 4187   1.437   0.841   1.939  0.9681  0.4677  0.2345
    1SOL    MW4 4188   1.366   0.890   1.954  0.4462 -0.2984  0.2991
    1SOL     OW 4189   1.393   1.166   1.928  0.0823  0.1383  0.6452
    1SOL    HW2 4190   1.380   1.071   1.937 -0.4510  0.2921  1.5918
    1SOL    HW3 4191   1.306   1.203   1.940  0.7033  0.9218  3.0740
    1SOL    MW4 4192   1.380   1.158   1.931  0.0938  0.2620  1.0904
    1SOL     OW 4193   1.606   1.334   1.992 -0.3679  0.0077 -0.0365
    1SOL    HW2 4194   1.603   1.411   1.936  0.0323  0.8914  1.1558
    1SOL    HW3 4195   1.532   1.280   1.963 -1.0755  1.1578 -0.3780
    1SOL    MW4 4196   1.596   1.337   1.981 -0.4084  0.2760  0.0758
    1SOL     OW 4197   1.611   1.557   1.803  0.1124  0.5216 -0.2425
    1SOL    HW2 4198   1.682   1.582   1.861  0.1438 -1.1590  0.4593
    1SOL    HW3 4199   1.531   1.583   1.850  0.1720  0.1083  0.0851
    1SOL    MW4 4200   1.609   1.564   1.817  0.1245  0.2455 -0.1066
    1SOL     OW 4201   1.389   1.619   1.973 -0.0704  0.3653 -0.4998
    1SOL    HW2 4202   1.383   1.642   2.066 -1.7501  0.8263 -0.6944
    1SOL    HW3 4203   1.301   1.587   1.951  0.7921 -1.3447 -1.5198
    1SOL    MW4 4204   1.376   1.618   1.983 -0.1782  0.2006 -0.6601
    1SOL     OW 4205   1.347   1.903   1.881  0.0434 -0.1484 -0.2730
    1SOL    HW2 4206   1.365   1.826   1.935  0.1314 -0.2673 -0.4689
    1SOL    HW3 4207   1.287   1.956   1.933  1.9495  0.8678  0.9334
    1SOL    MW4 4208   1.342   1.899   1.895  0.3065 -0.0300 -0.1398
    1SOL     OW 4209   1.551   2.047   1.991 -0.0689  0.2405  0.1699
    1SOL    HW2 4210   1.560   2.132   1.950  1.2706  0.4640  0.8802
    1SOL    HW3 4211   1.470   2.011   1.956 -0.0871  1.3541 -0.9466
    1SOL    MW4 4212   1.542   2.053   1.981  0.1055  0.4170  0.1162
    1SOL     OW 4213   1.596   2.321   1.923  0.0646 -0.4705  0.1535
    1SOL    HW2 4214   1.675   2.364   1.956 -0.3323  0.4238 -0.0283
    1SOL    HW3 4215   1.609   2.316   1.828 -0.3589  0.2319  0.0559
    1SOL    MW4 4216   1.608   2.326   1.915 -0.0437 -0.2599  0.1166
    1SOL     OW 4217   1.341   2.429   1.957 -0.2754 -0.1946 -0.8767
    1SOL    HW2 4218   1.343   2.518   1.922  0.2900  0.6863  1.2709
    1SOL    HW3 4219   1.426   2.392   1.933  0.5108  0.7486  0.3654
    1SOL    MW4 4220   1.353   2.436   1.950 -0.0970  0.0460 -0.4295
    1SOL     OW 4221   1.351   2.694   1.882  0.5812  0.4749  0.3845
    1SOL    HW2 4222   1.292   2.754   1.929  0.6889 -0.0384  1.1739
    1SOL    HW3 4223   1.326   2.705   1.790 -0.4648  0.5851  0.6665
    1SOL    MW4 4224   1.340   2.703   1.876  0.4574  0.4215  0.5261
    1SOL     OW 4225   1.599   2.865   1.986  0.2790  0.0366 -0.5237
    1SOL    HW2 4226   1.675   2.807   1.972  0.3442 -0.1530  0.5680
    1SOL    HW3 4227   1.523   2.809   1.969  0.3202 -0.6418  1.4158
    1SOL    MW4 4228   1.599   2.850   1.982  0.2933 -0.0780 -0.1237
    1SOL     OW 4229   1.594   3.136   1.920 -0.0328 -0.3732  0.6828
    1SOL    HW2 4230   1.602   3.047   1.955 -2.2980 -0.9558 -0.1710
    1SOL    HW3 4231   1.586   3.123   1.825  1.9032  0.9128  0.3300
    1SOL    MW4 4232   1.594   3.122   1.912 -0.0763 -0.2804  0.5238
    1SOL     OW 4233   1.361   3.262   1.985 -0.0428  0.7657  0.1707
    1SOL    HW2 4234   1.443   3.221   1.955 -0.3260  0.5789 -0.3573
    1SOL    HW3 4235   1.292   3.209   1.945 -0.4257  0.7832  0.8067
    1SOL    MW4 4236   1.363   3.249   1.976 -0.1308  0.7432  0.1849
    1SOL     OW 4237   1.348   3.488   1.853  0.7431  0.0234 -0.3121
    1SOL    HW2 4238   1.353   3.403   1.896  1.0110  0.0301 -0.3290
    1SOL    HW3 4239   1.269   3.529   1.889  0.2715 -0.4821 -0.7589
    1SOL    MW4 4240   1.338   3.482   1.863  0.7162 -0.0424 -0.3734
    1SOL     OW 4241   1.581   3.584   1.964 -0.1799  0.0089 -0.5456
    1SOL    HW2 4242   1.579   3.607   2.057 -0.8059  1.5480 -0.9191
    1SOL    HW3 4243   1.498   3.539   1.949 -0.3524  0.3031 -0.4844
    1SOL    MW4 4244   1.569   3.581   1.975 -0.2851  0.2508 -0.5867
    1SOL     OW 4245   1.570   3.855   1.839 -0.3320  0.4168  0.3406
    1SOL    HW2 4246   1.634   3.905   1.891 -2.3698  0.6715  2.6491
    1SOL    HW3 4247   1.576   3.766   1.873 -1.5212  0.5402  0.8926
    1SOL    MW4 4248   1.580   3.850   1.850 -0.7578  0.4666  0.7181
    1SOL     OW 4249   1.332   3.966   1.997  0.0621  0.1130  0.1039
    1SOL    HW2 4250   1.406   3.923   1.956 -0.2744 -0.2685 -0.1096
    1SOL    HW3 4251   1.257   3.941   1.943 -0.3201 -0.0476  0.7058
    1SOL    MW4 4252   1.331   3.957   1.984 -0.0328  0.0415  0.1551
    1SOL     OW 4253   1.371   4.238   1.912 -0.0775  0.3494  0.3788
    1SOL    HW2 4254   1.348   4.152   1.947 -1.4994  1.3746  2.0969
    1SOL    HW3 4255   1.349   4.233   1.819  0.8556 -1.4622  0.2239
    1SOL    MW4 4256   1.365   4.226   1.904 -0.1419  0.2456  0.5850
    1SOL     OW 4257   1.609   4.389   1.970 -0.0432 -0.1315  0.3038
    1SOL    HW2 4258   1.612   4.394   2.066 -0.1966 -0.6184  0.3349
    1SOL    HW3 4259   1.529   4.340   1.951 -1.8440  2.8807 -0.2007
    1SOL    MW4 4260   1.599   4.383   1.980 -0.3011  0.2012  0.2413
    1SOL     OW 4261   2.057   4.637   1.913 -0.2894  0.1843  0.2281
    1SOL    HW2 4262   2.137   4.683   1.941  0.1593  0.4355 -1.4190
    1SOL    HW3 4263   2.064   4.550   1.952  2.1290 -0.7217 -2.0726
    1SOL    MW4 4264   2.068   4.632   1.922  0.0892  0.0978 -0.2928
    1SOL     OW 4265   1.821   0.098   1.944 -0.4447 -0.0547 -0.0789
    1SOL    HW2 4266   1.801   0.122   2.034 -1.9120  0.5294 -0.5361
    1SOL    HW3 4267   1.898   0.042   1.950 -0.7654 -0.3410  1.5690
    1SOL    MW4 4268   1.828   0.094   1.956 -0.6806 -0.0154  0.0783
    1SOL     OW 4269   1.787   0.340   1.834 -0.0181 -0.1825  0.3378
    1SOL    HW2 4270   1.823   0.256   1.863 -0.2423 -0.3973 -0.0128
    1SOL    HW3 4271   1.781   0.332   1.739 -1.9400 -0.5071  0.4822
    1SOL    MW4 4272   1.791   0.328   1.825 -0.3012 -0.2537  0.3107
    1SOL     OW 4273   1.996   0.486   1.955  0.0861 -0.2732  0.3299
    1SOL    HW2 4274   1.999   0.576   1.922  0.0645 -1.0403 -1.8430
    1SOL    HW3 4275   1.919   0.448   1.913  0.5139 -1.5191  0.6550
    1SOL    MW4 4276   1.986   0.493   1.945  0.1396 -0.5388  0.0861
    1SOL     OW 4277   2.008   0.759   1.861  0.2755  0.1207  0.1871
    1SOL    HW2 4278   2.088   0.798   1.895  0.0643  1.4566 -0.7839
    1SOL    HW3 4279   1.937   0.809   1.901 -0.0542 -0.5781  0.4832
    1SOL    MW4 4280   2.009   0.771   1.870  0.2041  0.2047  0.0980
    1SOL     OW 4281   1.800   0.862   1.995  0.2502 -0.0790 -0.0222
    1SOL    HW2 4282   1.786   0.955   1.977  3.2252  0.4913  0.4353
    1SOL    HW3 4283   1.791   0.855   2.090  1.0782 -0.0537  0.0612
    1SOL    MW4 4284   1.797   0.873   2.005  0.7520 -0.0005  0.0491
    1SOL     OW 4285   1.794   1.156   1.896 -0.1142 -0.2446  0.1314
    1SOL    HW2 4286   1.726   1.215   1.926  0.9861  0.5014  1.1630
    1SOL    HW3 4287   1.876   1.193   1.930  0.8529 -0.9173 -1.4045
    1SOL    MW4 4288   1.796   1.168   1.904  0.1585 -0.2348  0.0648
    1SOL     OW 4289   2.055   1.249   1.986 -0.2727 -0.4683  0.1336
    1SOL    HW2 4290   2.124   1.184   1.975 -0.4497 -0.5424 -0.5583
    1SOL    HW3 4291   2.041   1.254   2.081  1.8285  0.7631  0.4037
    1SOL    MW4 4292   2.062   1.241   1.997 -0.0188 -0.3157  0.0781
    1SOL     OW 4293   2.045   1.528   1.902  0.2169 -0.3967  0.4584
    1SOL    HW2 4294   2.047   1.435   1.925 -2.9267 -0.4521  0.6598
    1SOL    HW3 4295   2.033   1.529   1.807  0.7910 -0.1938  0.3870
    1SOL    MW4 4296   2.044   1.516   1.893 -0.1218 -0.3773  0.4756
    1SOL     OW 4297   1.818   1.636   1.984  0.0361 -0.1581  0.0782
    1SOL    HW2 4298   1.817   1.731   1.970 -0.8099 -0.2296 -0.3614
    1SOL    HW3 4299   1.903   1.608   1.951  0.8831  0.6436  1.5217
    1SOL    MW4 4300   1.829   1.645   1.978  0.0364 -0.0619  0.2106
    1SOL     OW 4301   1.770   1.898   1.909 -1.0381 -0.4153  0.2912
    1SOL    HW2 4302   1.694   1.953   1.929 -0.2549  0.8927 -0.1947
    1SOL    HW3 4303   1.752   1.864   1.821 -1.0782 -0.1223  0.1834
    1SOL    MW4 4304   1.758   1.901   1.900 -0.9401 -0.2040  0.2129
    1SOL     OW 4305   1.990   2.055   1.945 -0.8159 -0.4634 -0.0330
    1SOL    HW2 4306   2.060   1.994   1.923 -0.5570 -0.6872  1.4006
    1SOL    HW3 4307   1.909   2.004   1.933 -0.7278 -0.3159 -1.3177
    1SOL    MW4 4308   1.988   2.040   1.940 -0.7702 -0.4733 -0.0134
    1SOL     OW 4309   2.030   2.331   1.889  0.5284  0.0140 -0.4028
    1SOL    HW2 4310   2.117   2.365   1.910  1.0578 -0.6909 -1.3853
    1SOL    HW3 4311   2.032   2.240   1.920  0.3245 -0.1520 -0.8669
    1SOL    MW4 4312   2.042   2.323   1.896  0.5713 -0.1009 -0.5937
    1SOL     OW 4313   1.833   2.480   2.008 -0.4340 -0.2191 -0.1604
    1SOL    HW2 4314   1.835   2.462   2.102 -0.6879 -0.3942 -0.1874
    1SOL    HW3 4315   1.900   2.423   1.970  0.3788  0.5938  0.0363
    1SOL    MW4 4316   1.842   2.470   2.015 -0.3603 -0.1349 -0.1380
    1SOL     OW 4317   1.838   2.725   1.887 -0.4151  0.2180  0.0067
    1SOL    HW2 4318   1.834   2.636   1.920  1.9816 -0.3515 -1.1614
    1SOL    HW3 4319   1.817   2.717   1.794 -1.4268  1.0399  0.1586
    1SOL    MW4 4320   1.835   2.713   1.879 -0.2323  0.2513 -0.1274
    1SOL     OW 4321   2.066   2.838   1.993  0.1164 -0.3171  0.2989
    1SOL    HW2 4322   2.068   2.836   2.088 -0.4074  1.5095  0.3645
    1SOL    HW3 4323   1.983   2.796   1.970 -1.9659  3.2781  0.8659
    1SOL    MW4 4324   2.055   2.832   2.002 -0.2275  0.3984  0.3824
    1SOL     OW 4325   2.049   3.090   1.870  0.1444  0.8400 -0.2597
    1SOL    HW2 4326   1.974   3.129   1.914 -1.4030  0.8626 -2.8054
    1SOL    HW3 4327   2.041   2.996   1.887 -0.0276  0.9258  0.1324
    1SOL    MW4 4328   2.038   3.083   1.878 -0.0823  0.8540 -0.5438
    1SOL     OW 4329   1.837   3.253   1.982  0.0631  0.0288 -0.2194
    1SOL    HW2 4330   1.839   3.235   2.076  0.6702  2.0789  0.1894
    1SOL    HW3 4331   1.759   3.208   1.951 -0.1644 -0.6514  1.2704
    1SOL    MW4 4332   1.827   3.245   1.990  0.1132  0.2093  0.0311
    1SOL     OW 4333   1.802   3.486   1.844  0.1950  0.1669 -0.3085
    1SOL    HW2 4334   1.819   3.401   1.886  0.3281 -0.4803 -1.6422
    1SOL    HW3 4335   1.725   3.520   1.890 -1.1848 -1.6776 -1.1863
    1SOL    MW4 4336   1.794   3.479   1.856  0.0305 -0.1619 -0.6005
    1SOL     OW 4337   2.004   3.624   2.000 -0.1905  0.3498  0.1378
    1SOL    HW2 4338   2.010   3.713   1.964  0.5391  0.0453 -0.5054
    1SOL    HW3 4339   1.935   3.582   1.949 -0.4982  0.5319  0.4052
    1SOL    MW4 4340   1.996   3.630   1.988 -0.1351  0.3338  0.0882
    1SOL     OW 4341   2.054   3.871   1.894  0.4021 -0.1507  0.4981
    1SOL    HW2 4342   2.138   3.901   1.928  1.0964 -1.9584  0.4059
    1SOL    HW3 4343   2.069   3.860   1.800 -0.1052  0.0659  0.3880
    1SOL    MW4 4344   2.067   3.874   1.886  0.4268 -0.3610  0.4714
    1SOL     OW 4345   1.787   3.986   1.952 -0.3540  0.4668  0.0188
    1SOL    HW2 4346   1.803   4.078   1.932 -1.2378  0.9687  1.5571
    1SOL    HW3 4347   1.873   3.945   1.945 -0.1777  1.1392 -1.9897
    1SOL    MW4 4348   1.800   3.993   1.949 -0.4474  0.6218 -0.0433
    1SOL     OW 4349   1.847   4.254   1.910 -0.2309  0.1818 -0.1344
    1SOL    HW2 4350   1.767   4.301   1.932  0.5080  0.8854  1.1019
    1SOL    HW3 4351   1.839   4.234   1.817 -1.4163  1.0738 -0.2255
    1SOL    MW4 4352   1.836   4.258   1.900 -0.2897  0.3929  0.0167
    1SOL     OW 4353   2.088   4.373   1.987  0.2097  0.2815 -0.0882
    1SOL    HW2 4354   2.150   4.303   1.966  0.2174  0.0287  0.7389
    1SOL    HW3 4355   2.004   4.340   1.957  0.1934 -0.1385  0.4184
    1SOL    MW4 4356   2.085   4.360   1.980  0.2084  0.1931  0.0879
    1SOL     OW 4357   2.494   4.627   1.838 -0.0644  0.7394 -0.3991
    1SOL    HW2 4358   2.557   4.680   1.887 -0.3455  0.8270 -0.1341
    1SOL    HW3 4359   2.481   4.549   1.892  0.7228  0.1629 -1.0187
    1SOL    MW4 4360   2.501   4.624   1.851  0.0024  0.6747 -0.4458
    1SOL     OW 4361   2.270   0.112   1.991  0.2611  0.1824  0.1548
    1SOL    HW2 4362   2.278   0.111   2.086  1.2789  0.9371  0.0801
    1SOL    HW3 4363   2.355   0.082   1.959 -1.2245 -3.6571 -0.5075
    1SOL    MW4 4364   2.282   0.108   1.999  0.1993 -0.2246  0.0576
    1SOL     OW 4365   2.219   0.353   1.853 -0.2652  0.0824  0.3689
    1SOL    HW2 4366   2.227   0.273   1.905  0.7040  0.3752  0.6836
    1SOL    HW3 4367   2.141   0.396   1.887 -0.2295 -0.2459  0.8739
    1SOL    MW4 4368   2.210   0.348   1.865 -0.1326  0.0777  0.4772
    1SOL     OW 4369   2.454   0.490   1.963  0.0526 -0.1508 -0.5638
    1SOL    HW2 4370   2.542   0.461   1.938  0.6341  0.2956  0.8835
    1SOL    HW3 4371   2.395   0.435   1.913  1.1658 -0.2914 -1.7413
    1SOL    MW4 4372   2.458   0.479   1.953  0.2763 -0.1104 -0.5282
    1SOL     OW 4373   2.431   0.751   1.882 -0.0246 -0.0596  0.0654
    1SOL    HW2 4374   2.455   0.660   1.895  3.0090  0.3215 -2.2341
    1SOL    HW3 4375   2.399   0.755   1.792 -1.7910  0.8785  0.6942
    1SOL    MW4 4376   2.430   0.740   1.872  0.1423  0.1144 -0.1550
    1SOL     OW 4377   2.215   0.850   2.023  0.4405  0.1226  0.1713
    1SOL    HW2 4378   2.222   0.849   2.119 -0.4207 -1.1432  0.2322
    1SOL    HW3 4379   2.279   0.785   1.993 -0.4514 -0.6760 -0.0202
    1SOL    MW4 4380   2.225   0.841   2.032  0.2091 -0.1497  0.1540
    1SOL     OW 4381   2.270   1.091   1.902 -0.2767 -0.3614  0.0116
    1SOL    HW2 4382   2.332   1.144   1.952 -0.1300 -0.7677  0.2622
    1SOL    HW3 4383   2.268   1.007   1.947  0.5828 -1.0604 -1.2243
    1SOL    MW4 4384   2.278   1.087   1.914 -0.1438 -0.5071 -0.1185
    1SOL     OW 4385   2.488   1.246   2.017 -0.3418 -0.1151  0.0822
    1SOL    HW2 4386   2.493   1.251   2.113 -1.6826 -0.2323  0.1658
    1SOL    HW3 4387   2.488   1.338   1.989 -1.0396 -0.0613  0.2558
    1SOL    MW4 4388   2.489   1.259   2.026 -0.6106 -0.1235  0.1161
    1SOL     OW 4389   2.496   1.508   1.912 -0.6752 -0.1390  0.4048
    1SOL    HW2 4390   2.421   1.550   1.955  0.6411  3.1234 -0.3351
    1SOL    HW3 4391   2.468   1.497   1.821 -0.7818 -0.2093  0.4461
    1SOL    MW4 4392   2.482   1.512   1.906 -0.5152  0.2820  0.3124
    1SOL     OW 4393   2.273   1.639   2.009  0.1621 -0.6804 -0.3110
    1SOL    HW2 4394   2.262   1.642   2.104 -0.1033  1.5516 -0.3670
    1SOL    HW3 4395   2.204   1.580   1.978 -0.8493 -0.0864  0.7685
    1SOL    MW4 4396   2.262   1.632   2.017 -0.0067 -0.3074 -0.1760
    1SOL     OW 4397   2.226   1.898   1.909  0.2257  0.4092 -0.0459
    1SOL    HW2 4398   2.294   1.944   1.958  0.8153  0.2824 -0.7314
    1SOL    HW3 4399   2.234   1.807   1.938 -0.9147  0.7069  1.2801
    1SOL    MW4 4400   2.236   1.892   1.919  0.1528  0.4317  0.0386
    1SOL     OW 4401   2.445   2.028   2.029  0.3035  0.0173 -0.0851
    1SOL    HW2 4402   2.520   1.977   1.996 -0.2504 -0.6061 -0.4000
    1SOL    HW3 4403   2.459   2.116   1.996  0.2561 -0.3835 -1.1991
    1SOL    MW4 4404   2.457   2.033   2.021  0.2244 -0.1178 -0.2735
    1SOL     OW 4405   2.514   2.304   1.948  0.3862 -0.0650  0.0235
    1SOL    HW2 4406   2.591   2.357   1.970  1.1305 -0.5798 -1.3167
    1SOL    HW3 4407   2.440   2.364   1.956  0.8583  0.3177  1.7791
    1SOL    MW4 4408   2.514   2.319   1.952  0.5467 -0.0823  0.0784
    1SOL     OW 4409   2.271   2.444   1.976  0.2931  0.3790  0.2514
    1SOL    HW2 4410   2.272   2.431   2.071  1.4099  0.9161  0.3178
    1SOL    HW3 4411   2.280   2.539   1.965  0.3565  0.2982 -0.3961
    1SOL    MW4 4412   2.272   2.455   1.987  0.4487  0.4392  0.1746
    1SOL     OW 4413   2.292   2.714   1.907 -0.5817  0.1133 -0.2691
    1SOL    HW2 4414   2.208   2.757   1.925  0.6972  2.3285  0.5736
    1SOL    HW3 4415   2.295   2.708   1.812 -1.3906  0.6730 -0.3379
    1SOL    MW4 4416   2.281   2.719   1.897 -0.5198  0.4795 -0.1670
    1SOL     OW 4417   2.524   2.819   2.008  0.1674 -0.0742 -0.3693
    1SOL    HW2 4418   2.520   2.909   1.975 -0.7548 -0.1032 -0.3356
    1SOL    HW3 4419   2.446   2.776   1.972  1.0859 -1.1269 -1.1446
    1SOL    MW4 4420   2.513   2.825   1.999  0.1669 -0.2170 -0.4673
    1SOL     OW 4421   2.496   3.071   1.934  0.0714  0.0603 -0.0540
    1SOL    HW2 4422   2.406   3.103   1.938 -0.1479 -0.5206 -0.3444
    1SOL    HW3 4423   2.512   3.055   1.841  0.5894  0.4905 -0.0389
    1SOL    MW4 4424   2.486   3.073   1.922  0.1109  0.0403 -0.0904
    1SOL     OW 4425   2.262   3.193   1.991  0.7247  0.2323  0.2887
    1SOL    HW2 4426   2.236   3.201   2.083  0.7230  1.1279  0.2187
    1SOL    HW3 4427   2.190   3.147   1.949  0.9522 -0.6329  0.8349
    1SOL    MW4 4428   2.249   3.188   1.998  0.7544  0.2365  0.3517
    1SOL     OW 4429   2.240   3.456   1.907  0.1464  0.3865 -0.1527
    1SOL    HW2 4430   2.240   3.368   1.945  0.2020 -0.0359 -1.1297
    1SOL    HW3 4431   2.160   3.496   1.941  0.0208 -0.1055  0.1357
    1SOL    MW4 4432   2.229   3.450   1.917  0.1371  0.2661 -0.2435
    1SOL     OW 4433   2.489   3.517   2.010  0.5317 -0.0765  0.2108
    1SOL    HW2 4434   2.483   3.539   2.103  0.8707  1.4914 -0.1207
    1SOL    HW3 4435   2.399   3.507   1.981  0.3895  0.5657  0.4470
    1SOL    MW4 4436   2.477   3.518   2.018  0.5577  0.2153  0.1979
    1SOL     OW 4437   2.480   3.760   1.856 -0.1595 -0.3362 -0.7391
    1SOL    HW2 4438   2.420   3.817   1.905 -0.2154  0.5666 -1.8301
    1SOL    HW3 4439   2.488   3.682   1.910 -1.6617 -0.1220 -0.1732
    1SOL    MW4 4440   2.473   3.757   1.870 -0.3648 -0.1891 -0.8085
    1SOL     OW 4441   2.313   3.929   1.996  0.1181  0.1340 -0.2875
    1SOL    HW2 4442   2.305   3.968   2.083  1.6798 -0.9209  0.3451
    1SOL    HW3 4443   2.324   4.005   1.938 -0.3664  0.8117  0.4833
    1SOL    MW4 4444   2.313   3.944   2.000  0.2604  0.0844 -0.1022
    1SOL     OW 4445   2.273   4.184   1.875 -0.0093 -0.0644 -0.5544
    1SOL    HW2 4446   2.337   4.254   1.887  1.0362 -0.8639 -1.3560
    1SOL    HW3 4447   2.246   4.191   1.783 -0.2957 -0.3922 -0.4985
    1SOL    MW4 4448   2.278   4.194   1.864  0.0908 -0.2127 -0.6527
    1SOL     OW 4449   2.450   4.377   1.962  0.0280  0.1811 -0.0694
    1SOL    HW2 4450   2.449   4.393   2.056  1.2177 -1.8391  0.3293
    1SOL    HW3 4451   2.532   4.329   1.947  0.1790  1.0619 -2.2411
    1SOL    MW4 4452   2.461   4.373   1.972  0.2053  0.0310 -0.3034
    1SOL     OW 4453   2.899   4.638   1.852 -0.0843 -0.1149 -0.1551
    1SOL    HW2 4454   2.971   4.697   1.874  0.0268 -1.1092  2.2904
    1SOL    HW3 4455   2.928   4.552   1.884 -2.1753 -0.5917  0.5329
    1SOL    MW4 4456   2.912   4.635   1.859 -0.3452 -0.3090  0.2583
    1SOL     OW 4457   2.688   0.116   1.965  0.0841  0.1687  0.0545
    1SOL    HW2 4458   2.696   0.113   2.060  1.3898  1.6362 -0.0051
    1SOL    HW3 4459   2.768   0.076   1.933  0.6502  1.6853 -0.4426
    1SOL    MW4 4460   2.699   0.110   1.973  0.3314  0.5624 -0.0190
    1SOL     OW 4461   2.693   0.378   1.876  0.4180 -0.1675  0.1184
    1SOL    HW2 4462   2.767   0.426   1.911 -0.4733  1.1179  0.2669
    1SOL    HW3 4463   2.699   0.291   1.916  1.9435 -0.1409 -0.0261
    1SOL    MW4 4464   2.703   0.373   1.886  0.5019  0.0056  0.1189
    1SOL     OW 4465   2.912   0.500   2.007 -0.2695 -0.1321 -0.1626
    1SOL    HW2 4466   2.977   0.456   1.952 -1.0750 -0.2790 -1.0005
    1SOL    HW3 4467   2.902   0.587   1.968 -0.3026  0.0278  0.1941
    1SOL    MW4 4468   2.920   0.506   1.995 -0.3803 -0.1304 -0.2261
    1SOL     OW 4469   2.895   0.743   1.876  0.3102  0.0365 -0.5028
    1SOL    HW2 4470   2.970   0.792   1.911  0.1540  1.1474 -1.6498
    1SOL    HW3 4471   2.819   0.781   1.921  0.4396 -1.3082  0.8957
    1SOL    MW4 4472   2.895   0.755   1.887  0.3066  0.0057 -0.4698
    1SOL     OW 4473   2.673   0.857   2.001  0.0302  0.0468  0.7952
    1SOL    HW2 4474   2.686   0.946   1.967  0.3682 -0.9846 -1.8955
    1SOL    HW3 4475   2.586   0.832   1.970  1.4319 -1.9302 -1.8121
    1SOL    MW4 4476   2.664   0.866   1.992  0.2599 -0.3501  0.0963
    1SOL     OW 4477   2.728   1.123   1.916 -0.4710 -0.3826 -0.3721
    1SOL    HW2 4478   2.651   1.160   1.958  0.1249  1.3747 -0.7755
    1SOL    HW3 4479   2.709   1.126   1.823 -0.4291 -1.1650 -0.4146
    1SOL    MW4 4480   2.715   1.128   1.909 -0.3870 -0.2538 -0.4308
    1SOL     OW 4481   2.937   1.274   2.001 -0.1846 -0.4002  0.3567
    1SOL    HW2 4482   2.931   1.361   1.963  0.7074 -0.5222 -0.0659
    1SOL    HW3 4483   2.859   1.228   1.969 -0.8909  0.3804  0.9494
    1SOL    MW4 4484   2.926   1.279   1.992 -0.1600 -0.3133  0.3791
    1SOL     OW 4485   2.931   1.521   1.854 -0.1984 -0.2977 -0.4569
    1SOL    HW2 4486   2.994   1.587   1.882 -0.0674  0.2078 -1.9060
    1SOL    HW3 4487   2.921   1.536   1.760 -1.9492 -0.8136 -0.3689
    1SOL    MW4 4488   2.938   1.532   1.846 -0.4122 -0.2991 -0.6366
    1SOL     OW 4489   2.722   1.647   1.986 -0.5664 -0.0537 -0.2502
    1SOL    HW2 4490   2.796   1.605   1.942 -0.2708 -0.5574  0.7135
    1SOL    HW3 4491   2.646   1.593   1.963 -0.8428  1.1188 -2.1760
    1SOL    MW4 4492   2.721   1.635   1.977 -0.5641  0.0346 -0.3771
    1SOL     OW 4493   2.661   1.912   1.898  0.1256  0.6667  0.0392
    1SOL    HW2 4494   2.749   1.948   1.910  0.3362 -0.0658  0.7597
    1SOL    HW3 4495   2.671   1.819   1.919 -0.8390  0.6010  0.2089
    1SOL    MW4 4496   2.674   1.904   1.903  0.0260  0.5614  0.1566
    1SOL     OW 4497   2.887   2.062   1.966  0.2955 -0.1944  0.0987
    1SOL    HW2 4498   2.899   2.062   2.061  0.2893  0.0741  0.1000
    1SOL    HW3 4499   2.972   2.033   1.931  0.4148  0.0653  0.1717
    1SOL    MW4 4500   2.900   2.058   1.974  0.3104 -0.1249  0.1086
    1SOL     OW 4501   2.934   2.304   1.848  0.2753  0.0514 -0.1953
    1SOL    HW2 4502   3.011   2.328   1.900  1.4576 -1.7668 -1.0502
    1SOL    HW3 4503   2.910   2.217   1.880 -2.2740  1.1487  0.9938
    1SOL    MW4 4504   2.941   2.295   1.859  0.0949 -0.0436 -0.1512
    1SOL     OW 4505   2.738   2.446   1.970  0.1349  0.1508 -0.5073
    1SOL    HW2 4506   2.744   2.538   1.945 -0.5561  0.2645 -0.2633
    1SOL    HW3 4507   2.792   2.400   1.906 -0.4985  0.5855 -1.3500
    1SOL    MW4 4508   2.746   2.452   1.958 -0.0398  0.2234 -0.5863
    1SOL     OW 4509   2.762   2.719   1.907  0.0077  0.2659 -0.5576
    1SOL    HW2 4510   2.683   2.763   1.940 -0.3078  0.2181 -1.2342
    1SOL    HW3 4511   2.745   2.706   1.814 -0.3772 -2.2686 -0.1833
    1SOL    MW4 4512   2.749   2.723   1.899 -0.0846 -0.0746 -0.5974
    1SOL     OW 4513   2.986   2.843   2.009  0.4936 -0.2023  0.3548
    1SOL    HW2 4514   2.957   2.929   1.976  0.5401 -0.5502 -0.6266
    1SOL    HW3 4515   2.927   2.781   1.967  1.3753 -0.7586 -0.0626
    1SOL    MW4 4516   2.974   2.846   1.999  0.6158 -0.3214  0.1702
    1SOL     OW 4517   2.921   3.070   1.873 -0.0154 -0.0191  0.0389
    1SOL    HW2 4518   3.002   3.119   1.891  0.0694  0.0630 -0.5555
    1SOL    HW3 4519   2.853   3.120   1.918  0.2807 -0.1667  0.6619
    1SOL    MW4 4520   2.922   3.083   1.881  0.0350 -0.0277  0.0428
    1SOL     OW 4521   2.710   3.238   1.988 -0.6488 -0.3471  0.1215
    1SOL    HW2 4522   2.705   3.329   1.958 -1.9092  0.7226  3.3438
    1SOL    HW3 4523   2.624   3.201   1.967 -1.1675  0.0944  1.4337
    1SOL    MW4 4524   2.698   3.245   1.981 -0.8833 -0.1478  0.7198
    1SOL     OW 4525   2.745   3.477   1.856 -0.2858  0.2505 -0.4072
    1SOL    HW2 4526   2.800   3.537   1.906 -0.5275  0.5216 -0.4646
    1SOL    HW3 4527   2.656   3.513   1.865 -0.4143 -0.0347 -0.5337
    1SOL    MW4 4528   2.740   3.489   1.864 -0.3345  0.2487 -0.4315
    1SOL     OW 4529   2.944   3.644   1.972  0.2617 -0.3354 -0.2140
    1SOL    HW2 4530   2.930   3.630   2.065  0.2881 -0.9128 -0.2901
    1SOL    HW3 4531   3.029   3.602   1.954  0.4394  0.1139 -0.4180
    1SOL    MW4 4532   2.953   3.636   1.982  0.2887 -0.3521 -0.2508
    1SOL     OW 4533   2.912   3.891   1.869 -0.1363 -0.0282  0.2290
    1SOL    HW2 4534   2.916   3.801   1.899  0.1406  0.0277  0.3573
    1SOL    HW3 4535   2.926   3.886   1.774 -1.6649 -0.2656  0.0083
    1SOL    MW4 4536   2.914   3.879   1.860 -0.3016 -0.0522  0.2168
    1SOL     OW 4537   2.665   3.953   1.961 -0.0875 -0.0268  0.1045
    1SOL    HW2 4538   2.748   3.932   1.921  0.0393  1.9640 -0.7508
    1SOL    HW3 4539   2.603   3.891   1.923  0.4977  0.2518 -1.3494
    1SOL    MW4 4540   2.667   3.942   1.951  0.0067  0.2725 -0.2000
    1SOL     OW 4541   2.679   4.234   1.901 -0.0548  0.6314  0.6647
    1SOL    HW2 4542   2.677   4.143   1.929  1.6461  0.6988  1.0543
    1SOL    HW3 4543   2.672   4.231   1.806 -2.9014  0.2655  0.8152
    1SOL    MW4 4544   2.677   4.222   1.892 -0.2060  0.5922  0.7360
    1SOL     OW 4545   2.903   4.387   1.979 -0.4428 -0.2297 -0.0726
    1SOL    HW2 4546   2.908   4.399   2.074 -1.4486 -0.2646 -0.0123
    1SOL    HW3 4547   2.826   4.331   1.965  1.5061 -2.8980 -0.6830
    1SOL    MW4 4548   2.894   4.381   1.990 -0.3185 -0.5860 -0.1451
    1SOL     OW 4549   3.376   0.008   1.852 -0.7051 -0.3066  0.1678
    1SOL    HW2 4550   3.362  -0.080   1.886 -0.5505 -0.4703 -0.1915
    1SOL    HW3 4551   3.397  -0.004   1.759 -0.2454  0.0715  0.2149
    1SOL    MW4 4552   3.377  -0.005   1.844 -0.6237 -0.2784  0.1266
    1SOL     OW 4553   3.122   0.103   1.942  0.2759 -0.4665 -0.6242
    1SOL    HW2 4554   3.120   0.119   2.036  1.5461 -0.8457 -0.5161
    1SOL    HW3 4555   3.208   0.063   1.927 -0.6797 -2.1911 -1.6605
    1SOL    MW4 4556   3.133   0.099   1.952  0.3173 -0.7441 -0.7467
    1SOL     OW 4557   3.131   0.372   1.856  0.3781 -0.2164  0.9631
    1SOL    HW2 4558   3.130   0.277   1.870  0.2571 -0.3090  0.3130
    1SOL    HW3 4559   3.121   0.383   1.762  0.9594  0.4312  0.9701
    1SOL    MW4 4560   3.130   0.361   1.846  0.4392 -0.1432  0.8782
    1SOL     OW 4561   3.345   0.495   1.950 -0.1911 -0.0984 -0.2493
    1SOL    HW2 4562   3.420   0.456   1.905 -0.0472  1.9950 -1.9020
    1SOL    HW3 4563   3.269   0.449   1.914  0.1256 -0.5192 -0.3945
    1SOL    MW4 4564   3.345   0.484   1.939 -0.1304  0.1222 -0.4866
    1SOL     OW 4565   3.329   0.758   1.831  0.2183  0.1178  0.1327
    1SOL    HW2 4566   3.272   0.813   1.885  0.6694  0.5721  0.1574
    1SOL    HW3 4567   3.317   0.670   1.866 -1.1506  0.0663 -0.4641
    1SOL    MW4 4568   3.320   0.754   1.843  0.0970  0.1709  0.0572
    1SOL     OW 4569   3.135   0.870   1.993  0.2491  0.2537 -0.0148
    1SOL    HW2 4570   3.148   0.880   2.088 -0.6252 -0.3162  0.1752
    1SOL    HW3 4571   3.134   0.960   1.960 -0.3281  0.5002  0.6466
    1SOL    MW4 4572   3.137   0.883   2.001  0.0577  0.2111  0.0975
    1SOL     OW 4573   3.151   1.116   1.857  0.4749  0.4244 -0.3330
    1SOL    HW2 4574   3.228   1.158   1.896  0.6883  0.2775 -0.5984
    1SOL    HW3 4575   3.077   1.168   1.889  0.6411  0.2492  0.3432
    1SOL    MW4 4576   3.151   1.129   1.866  0.5248  0.3818 -0.2787
    1SOL     OW 4577   3.352   1.286   1.967 -0.0550 -0.0434  0.3549
    1SOL    HW2 4578   3.364   1.299   2.061 -0.7554 -0.0777  0.4528
    1SOL    HW3 4579   3.338   1.375   1.932 -0.4437 -0.0913  0.3822
    1SOL    MW4 4580   3.351   1.300   1.975 -0.1988 -0.0542  0.3713
    1SOL     OW 4581   3.316   1.532   1.835  0.2749  0.1339  0.1266
    1SOL    HW2 4582   3.397   1.580   1.856  1.3232 -1.9751  1.1268
    1SOL    HW3 4583   3.247   1.583   1.877  1.3878  0.6141  1.4582
    1SOL    MW4 4584   3.318   1.545   1.843  0.5603 -0.0812  0.4344
    1SOL     OW 4585   3.128   1.714   1.926  0.2377  0.1836  0.7164
    1SOL    HW2 4586   3.124   1.728   2.020 -1.0844  0.0068  0.6903
    1SOL    HW3 4587   3.125   1.802   1.888  1.1748  0.2770  0.8426
    1SOL    MW4 4588   3.127   1.727   1.933  0.1869  0.1727  0.7296
    1SOL     OW 4589   3.110   1.983   1.822  0.4336 -0.0207 -0.5027
    1SOL    HW2 4590   3.186   2.003   1.877  0.9619 -2.6455 -0.2401
    1SOL    HW3 4591   3.146   1.970   1.735 -0.2122  2.4634 -1.1949
    1SOL    MW4 4592   3.125   1.984   1.818  0.4184 -0.0392 -0.5592
    1SOL     OW 4593   3.343   2.044   1.945 -0.3332  0.4237 -0.2299
    1SOL    HW2 4594   3.414   1.983   1.923 -0.4189 -0.4135  1.7511
    1SOL    HW3 4595   3.376   2.129   1.917  2.0076  0.2342  1.8279
    1SOL    MW4 4596   3.357   2.047   1.938 -0.0360  0.2880  0.3031
    1SOL     OW 4597   3.393   2.326   1.861 -0.4433 -0.2003  0.0513
    1SOL    HW2 4598   3.326   2.374   1.910 -0.5946 -1.4695  1.1122
    1SOL    HW3 4599   3.363   2.328   1.770 -2.0266 -0.9037  0.5390
    1SOL    MW4 4600   3.380   2.332   1.856 -0.6723 -0.4604  0.2556
    1SOL     OW 4601   3.145   2.425   1.968  0.5210  0.1017 -0.2670
    1SOL    HW2 4602   3.146   2.425   2.064  1.1899 -0.2794 -0.2694
    1SOL    HW3 4603   3.141   2.518   1.944 -0.8416  0.1637  0.1281
    1SOL    MW4 4604   3.145   2.437   1.978  0.4294  0.0596 -0.2152
    1SOL     OW 4605   3.209   2.711   1.880  0.2798  0.1824  0.0434
    1SOL    HW2 4606   3.143   2.766   1.921 -0.1979 -1.1419  1.0900
    1SOL    HW3 4607   3.186   2.713   1.787 -0.0034  1.3613  0.1287
    1SOL    MW4 4608   3.197   2.718   1.873  0.1793  0.1631  0.1926
    1SOL     OW 4609   3.432   2.848   1.983 -0.1058  0.3633 -0.0118
    1SOL    HW2 4610   3.410   2.846   2.076 -0.9177  0.8995 -0.1880
    1SOL    HW3 4611   3.366   2.792   1.942  0.0466  0.3945 -0.2977
    1SOL    MW4 4612   3.420   2.840   1.990 -0.1929  0.4382 -0.0727
    1SOL     OW 4613   3.355   3.087   1.894  0.0069  0.2115 -0.0370
    1SOL    HW2 4614   3.436   3.136   1.909  0.4389  0.0958 -1.8928
    1SOL    HW3 4615   3.375   2.999   1.925  0.6019  0.1794 -0.5020
    1SOL    MW4 4616   3.368   3.082   1.900  0.1423  0.1919 -0.3431
    1SOL     OW 4617   3.130   3.212   1.997  0.5991  0.2733  0.2345
    1SOL    HW2 4618   3.121   3.193   2.090  2.0508  1.6744  0.6915
    1SOL    HW3 4619   3.218   3.182   1.975 -0.0857 -0.9296 -0.9231
    1SOL    MW4 4620   3.141   3.205   2.006  0.7002  0.2995  0.1423
    1SOL     OW 4621   3.146   3.488   1.888  0.2681 -0.3717 -0.3955
    1SOL    HW2 4622   3.114   3.403   1.917  1.1507 -0.4953  0.2335
    1SOL    HW3 4623   3.228   3.501   1.935 -0.2952  1.2399  0.1922
    1SOL    MW4 4624   3.153   3.479   1.898  0.3104 -0.1752 -0.2348
    1SOL     OW 4625   3.374   3.605   2.015  0.3017 -0.7486 -0.1369
    1SOL    HW2 4626   3.450   3.557   1.982  1.0602 -0.0540  0.5873
    1SOL    HW3 4627   3.374   3.687   1.967  2.0237  0.7250  2.2600
    1SOL    MW4 4628   3.384   3.609   2.005  0.6289 -0.4625  0.2751
    1SOL     OW 4629   3.399   3.863   1.872  0.3450  0.2766 -0.2785
    1SOL    HW2 4630   3.330   3.922   1.902  0.1879  0.2641 -0.6140
    1SOL    HW3 4631   3.400   3.872   1.777 -0.0839 -0.7023 -0.3866
    1SOL    MW4 4632   3.390   3.872   1.863  0.2675  0.1459 -0.3371
    1SOL     OW 4633   3.158   4.010   1.939 -0.1578 -0.0604 -0.5230
    1SOL    HW2 4634   3.156   4.000   2.034 -1.4632  2.2540 -0.2655
    1SOL    HW3 4635   3.074   3.974   1.910 -1.6291  3.0058 -0.3161
    1SOL    MW4 4636   3.146   4.004   1.948 -0.5243  0.6495 -0.4617
    1SOL     OW 4637   3.157   4.290   1.856  0.7234 -0.0830  0.4201
    1SOL    HW2 4638   3.160   4.195   1.872 -0.6476 -0.2230 -0.0647
    1SOL    HW3 4639   3.083   4.320   1.909  1.9164  0.9182  1.5258
    1SOL    MW4 4640   3.148   4.281   1.865  0.6998  0.0305  0.5021
    1SOL     OW 4641   3.376   4.434   1.981  0.9058  0.3449  0.2150
    1SOL    HW2 4642   3.452   4.407   1.930  1.3982  1.3045  0.4341
    1SOL    HW3 4643   3.304   4.380   1.948  1.3434  0.5491 -1.0662
    1SOL    MW4 4644   3.377   4.423   1.970  1.0285  0.4988  0.0749
    1SOL     OW 4645   3.828   4.643   1.865 -0.1329  0.1656 -0.2528
    1SOL    HW2 4646   3.827   4.557   1.905  0.2663  0.2046 -0.1487
    1SOL    HW3 4647   3.758   4.691   1.909 -1.6649 -0.7080 -1.6964
    1SOL    MW4 4648   3.819   4.638   1.876 -0.2823  0.0558 -0.4296
    1SOL     OW 4649   3.601   0.127   1.974 -0.2445  0.0167  0.4043
    1SOL    HW2 4650   3.597   0.115   2.069 -1.3108 -0.0742  0.3539
    1SOL    HW3 4651   3.532   0.071   1.940 -1.5003  1.9083 -0.2430
    1SOL    MW4 4652   3.591   0.118   1.982 -0.5510  0.2543  0.3122
    1SOL     OW 4653   3.581   0.392   1.860 -0.7143  0.0544 -0.0846
    1SOL    HW2 4654   3.573   0.298   1.877 -0.4611 -0.1650 -1.1688
    1SOL    HW3 4655   3.573   0.401   1.765 -0.2342  1.0785 -0.0408
    1SOL    MW4 4656   3.579   0.381   1.850 -0.6173  0.1606 -0.2218
    1SOL     OW 4657   3.812   0.518   2.001  0.4035  0.5148 -0.4265
    1SOL    HW2 4658   3.807   0.609   1.972 -1.3603  0.9572  1.1368
    1SOL    HW3 4659   3.742   0.473   1.953  0.0851  0.3854  0.1533
    1SOL    MW4 4660   3.802   0.524   1.991  0.1290  0.5560 -0.1440
    1SOL     OW 4661   3.802   0.767   1.893  0.1461 -0.5069  0.2297
    1SOL    HW2 4662   3.713   0.796   1.910  0.5183  0.4820  0.5420
    1SOL    HW3 4663   3.812   0.774   1.798  0.6909  1.8487  0.4090
    1SOL    MW4 4664   3.792   0.772   1.883  0.2673 -0.0656  0.2944
    1SOL     OW 4665   3.552   0.873   1.961  0.3808  0.1128 -0.1738
    1SOL    HW2 4666   3.540   0.965   1.938 -0.0533  0.0068 -0.3841
    1SOL    HW3 4667   3.483   0.827   1.913 -0.5553 -0.1118  1.3679
    1SOL    MW4 4668   3.541   0.879   1.952  0.1998  0.0692  0.0019
    1SOL     OW 4669   3.555   1.136   1.859 -0.0819  0.7143 -0.0177
    1SOL    HW2 4670   3.500   1.202   1.900 -0.4474 -0.1817  0.9693
    1SOL    HW3 4671   3.539   1.145   1.765 -0.2275  1.9227  0.1200
    1SOL    MW4 4672   3.546   1.146   1.852 -0.1495  0.7555  0.1305
    1SOL     OW 4673   3.782   1.286   1.928 -0.1693  0.1499  0.0215
    1SOL    HW2 4674   3.787   1.282   2.024 -2.4414  0.0810  0.1591
    1SOL    HW3 4675   3.718   1.218   1.905 -0.6500  1.0931 -1.4593
    1SOL    MW4 4676   3.774   1.276   1.938 -0.5329  0.2652 -0.1557
    1SOL     OW 4677   3.798   1.553   1.838  0.0309  0.6236 -0.1569
    1SOL    HW2 4678   3.869   1.580   1.896  0.6308 -0.2761 -0.4716
    1SOL    HW3 4679   3.788   1.459   1.854 -1.1249  0.7544 -0.0745
    1SOL    MW4 4680   3.806   1.544   1.848 -0.0424  0.5220 -0.1876
    1SOL     OW 4681   3.549   1.649   1.940  0.4324  0.8941  0.1649
    1SOL    HW2 4682   3.552   1.745   1.936 -0.8366  0.8891 -1.5956
    1SOL    HW3 4683   3.635   1.622   1.907 -0.3463  1.4109 -2.3984
    1SOL    MW4 4684   3.561   1.658   1.935  0.1624  0.9617 -0.4054
    1SOL     OW 4685   3.582   1.909   1.872  0.7344 -0.1199 -0.0501
    1SOL    HW2 4686   3.650   1.963   1.913  0.6011  0.6274 -0.7980
    1SOL    HW3 4687   3.566   1.950   1.787 -0.9925  0.0150  0.3053
    1SOL    MW4 4688   3.589   1.922   1.866  0.4890 -0.0036 -0.1019
    1SOL     OW 4689   3.802   2.051   1.959  0.6324  0.3271  0.0361
    1SOL    HW2 4690   3.864   2.004   1.904 -2.3540 -0.5998 -2.6744
    1SOL    HW3 4691   3.799   2.139   1.923 -0.6968 -0.0415 -0.7715
    1SOL    MW4 4692   3.810   2.056   1.947  0.0632  0.1562 -0.4281
    1SOL     OW 4693   3.817   2.302   1.854 -0.5157 -0.2407  0.2344
    1SOL    HW2 4694   3.886   2.361   1.884 -0.1056 -1.5552  1.9250
    1SOL    HW3 4695   3.736   2.352   1.868 -0.0228  0.7634 -0.4267
    1SOL    MW4 4696   3.815   2.317   1.860 -0.3963 -0.2813  0.3701
    1SOL     OW 4697   3.606   2.457   1.982 -0.4607 -0.5304 -0.1909
    1SOL    HW2 4698   3.611   2.546   1.948 -0.1896 -0.5750 -0.2630
    1SOL    HW3 4699   3.529   2.419   1.938 -1.0343 -0.0845  0.4141
    1SOL    MW4 4700   3.596   2.463   1.972 -0.5004 -0.4776 -0.1205
    1SOL     OW 4701   3.628   2.714   1.863 -0.4928  0.4517 -0.1117
    1SOL    HW2 4702   3.709   2.750   1.899  0.8266 -1.1440 -1.3911
    1SOL    HW3 4703   3.558   2.757   1.912  1.1291  1.9497  0.9215
    1SOL    MW4 4704   3.629   2.724   1.874 -0.1047  0.4389 -0.1442
    1SOL     OW 4705   3.871   2.833   1.980  0.0507  0.1636  0.0030
    1SOL    HW2 4706   3.856   2.834   2.074 -0.2867 -0.1539 -0.0434
    1SOL    HW3 4707   3.866   2.924   1.953  2.1014  0.4780  0.5894
    1SOL    MW4 4708   3.869   2.845   1.989  0.2768  0.1628  0.0743
    1SOL     OW 4709   3.836   3.088   1.865  0.0213  0.1257 -0.2467
    1SOL    HW2 4710   3.748   3.109   1.894  0.5323  0.9004  0.7596
    1SOL    HW3 4711   3.829   3.080   1.770 -1.3975 -1.1464 -0.0582
    1SOL    MW4 4712   3.824   3.090   1.856 -0.0985  0.0601 -0.0892
    1SOL     OW 4713   3.593   3.218   1.975  0.0927  0.2620 -0.7617
    1SOL    HW2 4714   3.582   3.218   2.070 -2.6404  0.2936 -1.0186
    1SOL    HW3 4715   3.601   3.311   1.952  0.5797  0.2662 -0.5774
    1SOL    MW4 4716   3.592   3.230   1.984 -0.2036  0.2666 -0.7713
    1SOL     OW 4717   3.592   3.482   1.906  0.0697  0.4528  0.5996
    1SOL    HW2 4718   3.675   3.521   1.935  1.0014 -0.3527 -0.9221
    1SOL    HW3 4719   3.600   3.477   1.811 -0.7689 -1.7340  0.6036
    1SOL    MW4 4720   3.604   3.486   1.897  0.0820  0.0577  0.3995
    1SOL     OW 4721   3.851   3.613   1.999 -0.4589 -0.3140  0.3313
    1SOL    HW2 4722   3.918   3.568   1.947  0.2920  0.6782  0.4280
    1SOL    HW3 4723   3.852   3.703   1.967 -1.1334 -0.0842  0.9493
    1SOL    MW4 4724   3.860   3.619   1.988 -0.4489 -0.1528  0.4256
    1SOL     OW 4725   3.820   3.884   1.864 -0.0827 -0.6272 -0.0731
    1SOL    HW2 4726   3.747   3.936   1.898  0.7062  0.5080 -0.1071
    1SOL    HW3 4727   3.806   3.883   1.769 -0.6491 -1.3201  0.0139
    1SOL    MW4 4728   3.808   3.891   1.856 -0.0532 -0.5689 -0.0660
    1SOL     OW 4729   3.609   4.040   1.967 -0.5786 -0.0032  0.3600
    1SOL    HW2 4730   3.592   4.055   2.060 -0.4340  1.0752  0.2211
    1SOL    HW3 4731   3.539   3.981   1.939 -1.5572  0.9495  0.7862
    1SOL    MW4 4732   3.597   4.034   1.975 -0.6888  0.2651  0.3979
    1SOL     OW 4733   3.583   4.304   1.865  0.2785  0.1207  0.5506
    1SOL    HW2 4734   3.665   4.334   1.902 -0.0557  0.8015  0.7397
    1SOL    HW3 4735   3.580   4.210   1.886  0.7082  0.2277  1.0859
    1SOL    MW4 4736   3.593   4.295   1.873  0.2909  0.2241  0.6462
    1SOL     OW 4737   3.819   4.378   1.993 -0.2288 -0.1208 -0.1506
    1SOL    HW2 4738   3.816   4.385   2.088 -0.4851 -0.0704 -0.1617
    1SOL    HW3 4739   3.898   4.327   1.975 -0.6345 -0.8486  0.1317
    1SOL    MW4 4740   3.829   4.372   2.003 -0.3164 -0.2103 -0.1147
    1SOL     OW 4741   4.249   4.663   1.860 -0.3399 -0.1228 -0.0979
    1SOL    HW2 4742   4.179   4.716   1.899 -0.2277  1.2424 -1.6816
    1SOL    HW3 4743   4.329   4.694   1.902 -0.5055 -0.5489  0.5375
    1SOL    MW4 4744   4.250   4.674   1.871 -0.3476  0.0011 -0.2229
    1SOL     OW 4745   4.035   0.120   1.970 -0.2373  0.2724 -0.2664
    1SOL    HW2 4746   4.024   0.119   2.065 -1.3105 -0.1423 -0.3847
    1SOL    HW3 4747   3.967   0.062   1.938  1.3650 -1.1266 -1.1789
    1SOL    MW4 4748   4.025   0.113   1.978 -0.1678  0.0331 -0.4023
    1SOL     OW 4749   4.039   0.391   1.878  0.1284  0.0416  0.2661
    1SOL    HW2 4750   4.029   0.302   1.912 -0.3714  0.2344  0.6262
    1SOL    HW3 4751   3.968   0.440   1.919  0.6089  0.6816  0.3282
    1SOL    MW4 4752   4.028   0.386   1.888  0.1259  0.1515  0.3219
    1SOL     OW 4753   4.285   0.499   1.964 -0.3435  0.1011 -0.0396
    1SOL    HW2 4754   4.285   0.516   2.058  0.1277  0.2453 -0.0660
    1SOL    HW3 4755   4.202   0.454   1.948 -0.2482 -0.2700  0.5061
    1SOL    MW4 4756   4.274   0.495   1.974 -0.2685  0.0711  0.0290
    1SOL     OW 4757   4.246   0.776   1.826  0.0306  0.3043 -0.0993
    1SOL    HW2 4758   4.249   0.683   1.850  0.5831  0.2461 -0.3708
    1SOL    HW3 4759   4.239   0.776   1.730 -1.2928  0.5385 -0.0003
    1SOL    MW4 4760   4.246   0.763   1.816 -0.0710  0.3275 -0.1220
    1SOL     OW 4761   4.018   0.910   1.955  0.1172 -0.5305 -0.3201
    1SOL    HW2 4762   4.083   0.854   1.913  0.7862  1.1497 -1.5848
    1SOL    HW3 4763   3.935   0.865   1.939  0.7760 -1.8566 -0.1054
    1SOL    MW4 4764   4.015   0.897   1.947  0.2923 -0.4837 -0.4587
    1SOL     OW 4765   4.024   1.189   1.885 -0.0331  0.1930 -0.3157
    1SOL    HW2 4766   4.029   1.098   1.912  2.1330  0.3949  0.1077
    1SOL    HW3 4767   3.940   1.221   1.919 -0.8349 -1.6466 -0.5493
    1SOL    MW4 4768   4.014   1.181   1.893  0.1473 -0.0230 -0.2906
    1SOL     OW 4769   4.276   1.292   1.936  0.1618 -0.3084 -0.3725
    1SOL    HW2 4770   4.275   1.278   2.030  0.0529  2.0031  0.0151
    1SOL    HW3 4771   4.194   1.254   1.905  1.0682 -2.7828  0.1534
    1SOL    MW4 4772   4.265   1.285   1.944  0.2675 -0.3299 -0.2519
    1SOL     OW 4773   4.284   1.571   1.873  0.0079 -0.3116 -0.1255
    1SOL    HW2 4774   4.269   1.482   1.905 -3.1389  0.0964 -0.3045
    1SOL    HW3 4775   4.255   1.568   1.782 -0.5488  1.0108  0.0046
    1SOL    MW4 4776   4.278   1.559   1.865 -0.4811 -0.0832 -0.1318
    1SOL     OW 4777   4.029   1.639   1.979  0.3472 -0.3834 -0.3025
    1SOL    HW2 4778   4.028   1.648   2.074 -0.1901  2.6698 -0.5470
    1SOL    HW3 4779   4.119   1.614   1.958  0.7147 -0.1117  0.9159
    1SOL    MW4 4780   4.041   1.637   1.989  0.3247  0.0553 -0.1742
    1SOL     OW 4781   4.019   1.902   1.857  0.4661  0.1287 -0.6209
    1SOL    HW2 4782   4.014   1.815   1.895 -0.7512 -0.1258 -1.3328
    1SOL    HW3 4783   4.014   1.887   1.762  0.1419  0.9697 -0.7403
    1SOL    MW4 4784   4.018   1.889   1.849  0.2623  0.2062 -0.7306
    1SOL     OW 4785   4.237   2.065   1.961 -0.1530 -0.0708  0.2316
    1SOL    HW2 4786   4.226   2.049   2.054 -0.9934  2.0980  0.5492
    1SOL    HW3 4787   4.161   2.024   1.920  0.4063 -1.3349  0.4655
    1SOL    MW4 4788   4.225   2.058   1.968 -0.1903  0.0486  0.3043
    1SOL     OW 4789   4.228   2.326   1.906  0.1338  0.3364 -0.2109
    1SOL    HW2 4790   4.234   2.233   1.929 -0.4890  0.6490  1.3265
    1SOL    HW3 4791   4.308   2.364   1.941  0.3868  0.3805 -0.8378
    1SOL    MW4 4792   4.239   2.319   1.914  0.0849  0.3834 -0.0907
    1SOL     OW 4793   4.008   2.454   1.995  0.3667 -0.0838  0.2895
    1SOL    HW2 4794   4.015   2.455   2.091  0.0815 -1.5729  0.3370
    1SOL    HW3 4795   4.083   2.401   1.967  0.0569 -0.2191 -0.2685
    1SOL    MW4 4796   4.019   2.447   2.004  0.2880 -0.2980  0.2222
    1SOL     OW 4797   4.107   2.701   1.905  0.0418 -0.5046  0.5528
    1SOL    HW2 4798   4.097   2.611   1.935 -0.6092 -0.5905  0.0920
    1SOL    HW3 4799   4.026   2.745   1.933  0.4370 -0.0162  0.9468
    1SOL    MW4 4800   4.095   2.695   1.913  0.0076 -0.4516  0.5441
    1SOL     OW 4801   4.313   2.850   1.999 -0.1916 -0.3639 -0.2174
    1SOL    HW2 4802   4.325   2.839   2.094  1.3168 -0.6075 -0.4128
    1SOL    HW3 4803   4.233   2.802   1.979 -0.2696 -0.7006  0.8705
    1SOL    MW4 4804   4.304   2.842   2.009 -0.0033 -0.4404 -0.0997
    1SOL     OW 4805   4.285   3.125   1.906  0.6115 -0.2975 -0.1446
    1SOL    HW2 4806   4.199   3.160   1.930  1.4199  0.3615  1.9609
    1SOL    HW3 4807   4.280   3.032   1.928  0.4901 -0.2159  0.1759
    1SOL    MW4 4808   4.273   3.117   1.912  0.7019 -0.1996  0.1755
    1SOL     OW 4809   4.033   3.242   1.969 -0.3588  0.2188  0.2134
    1SOL    HW2 4810   4.033   3.240   2.065 -1.8426 -0.7535  0.2088
    1SOL    HW3 4811   3.949   3.202   1.944 -0.8040  2.1402 -1.4577
    1SOL    MW4 4812   4.022   3.236   1.979 -0.6132  0.3443 -0.0079
    1SOL     OW 4813   4.061   3.507   1.874  0.6615 -0.0922 -0.5137
    1SOL    HW2 4814   4.144   3.538   1.909  0.3089 -0.8085  1.0128
    1SOL    HW3 4815   4.055   3.416   1.903 -0.8770  0.0983 -0.1808
    1SOL    MW4 4816   4.071   3.499   1.883  0.4120 -0.1619 -0.2683
    1SOL     OW 4817   4.287   3.626   2.000 -0.0697 -0.2229  0.0254
    1SOL    HW2 4818   4.275   3.697   1.937  0.2138 -0.7209 -0.5855
    1SOL    HW3 4819   4.371   3.587   1.977 -0.6681 -1.3631 -0.2361
    1SOL    MW4 4820   4.296   3.631   1.989 -0.1111 -0.4389 -0.0896
    1SOL     OW 4821   4.226   3.850   1.848 -0.2325 -0.0646  0.0439
    1SOL    HW2 4822   4.296   3.907   1.879 -2.1908  1.7981  1.2100
    1SOL    HW3 4823   4.232   3.853   1.753  0.7384  0.7496  0.1289
    1SOL    MW4 4824   4.236   3.858   1.840 -0.3629  0.2887  0.2091
    1SOL     OW 4825   4.051   4.002   1.985 -0.1066  0.6413  0.3288
    1SOL    HW2 4826   4.122   3.956   1.939 -0.3397 -0.4584  1.0374
    1SOL    HW3 4827   3.971   3.967   1.946 -0.2761  2.7639 -1.3132
    1SOL    MW4 4828   4.050   3.991   1.974 -0.1597  0.7758  0.2058
    1SOL     OW 4829   4.033   4.245   1.868 -0.2551 -0.4149 -0.0104
    1SOL    HW2 4830   4.107   4.302   1.888  0.7084 -0.2854 -3.5633
    1SOL    HW3 4831   4.057   4.160   1.906  1.5401 -0.2631 -0.7556
    1SOL    MW4 4832   4.046   4.241   1.876  0.1082 -0.3777 -0.5773
    1SOL     OW 4833   4.257   4.396   1.923 -0.0839 -0.5403  0.0963
    1SOL    HW2 4834   4.241   4.404   2.017 -2.2862 -0.7951 -0.2404
    1SOL    HW3 4835   4.269   4.486   1.893 -0.1196 -0.3998  0.4916
    1SOL    MW4 4836   4.257   4.409   1.932 -0.3786 -0.5555  0.1041
    1SOL     OW 4837   0.209   4.633   2.349  0.3804  0.3788 -0.1322
    1SOL    HW2 4838   0.238   4.633   2.440 -0.6514  3.2939  0.2309
    1SOL    HW3 4839   0.273   4.687   2.303  0.2354 -0.1089 -0.9137
    1SOL    MW4 4840   0.221   4.640   2.355  0.2252  0.6990 -0.1876
    1SOL     OW 4841   4.463   0.059   2.282 -0.1271  0.2362 -0.4592
    1SOL    HW2 4842   4.547   0.019   2.307 -0.1507  0.1203 -0.5620
    1SOL    HW3 4843   4.455   0.040   2.189 -2.0661 -3.1027  0.2893
    1SOL    MW4 4844   4.473   0.051   2.273 -0.3862 -0.2196 -0.3741
    1SOL     OW 4845   4.486   0.342   2.328  0.3865 -0.4216  0.1120
    1SOL    HW2 4846   4.573   0.382   2.316 -0.1265  0.6826  0.0436
    1SOL    HW3 4847   4.501   0.249   2.310  1.8476 -0.4848  1.4830
    1SOL    MW4 4848   4.500   0.335   2.324  0.5112 -0.2843  0.2840
    1SOL     OW 4849   0.234   0.472   2.272 -0.0779  0.8527 -0.0585
    1SOL    HW2 4850   0.315   0.426   2.295 -0.7122 -0.2004  0.0941
    1SOL    HW3 4851   0.240   0.483   2.177 -0.1754 -0.0477 -0.1719
    1SOL    MW4 4852   0.246   0.467   2.262 -0.1745  0.5949 -0.0532
    1SOL     OW 4853   0.257   0.739   2.337  0.7896 -0.6399  0.2315
    1SOL    HW2 4854   0.216   0.748   2.423  0.0316 -1.1157 -0.0712
    1SOL    HW3 4855   0.257   0.645   2.320 -1.4419 -0.4013 -1.3940
    1SOL    MW4 4856   0.251   0.728   2.346  0.3952 -0.6713 -0.0229
    1SOL     OW 4857   0.010   0.871   2.241 -0.2630  0.0040 -0.4432
    1SOL    HW2 4858   0.093   0.830   2.265 -0.6892 -1.2005 -0.9835
    1SOL    HW3 4859   0.012   0.876   2.146 -0.2445  1.2030 -0.3880
    1SOL    MW4 4860   0.021   0.866   2.232 -0.3166  0.0033 -0.5069
    1SOL     OW 4861   4.471   1.143   2.314 -0.4082  0.0618 -0.2171
    1SOL    HW2 4862   4.459   1.150   2.408  0.1094  1.2427 -0.2217
    1SOL    HW3 4863   4.488   1.051   2.298 -2.5335 -0.4975  0.5963
    1SOL    MW4 4864   4.472   1.132   2.324 -0.6204  0.1439 -0.1104
    1SOL     OW 4865   0.221   1.247   2.236  0.3821  0.2907  0.0991
    1SOL    HW2 4866   0.137   1.202   2.248 -0.0273  0.9695 -0.1130
    1SOL    HW3 4867   0.240   1.238   2.142 -0.5213  1.9137 -0.2741
    1SOL    MW4 4868   0.212   1.240   2.225  0.2089  0.5944  0.0217
    1SOL     OW 4869   0.200   1.532   2.339 -0.6112  0.4567 -0.2111
    1SOL    HW2 4870   0.209   1.534   2.434 -0.7554 -0.6119 -0.1672
    1SOL    HW3 4871   0.199   1.439   2.317 -0.5491  0.6967 -1.2612
    1SOL    MW4 4872   0.201   1.520   2.349 -0.6220  0.3474 -0.3438
    1SOL     OW 4873   4.481   1.671   2.245 -0.2256 -0.4451  0.1379
    1SOL    HW2 4874   4.479   1.757   2.287  1.9722  0.0752 -0.7940
    1SOL    HW3 4875   4.558   1.628   2.281 -0.7624 -1.6679 -0.1408
    1SOL    MW4 4876   4.491   1.677   2.256 -0.0064 -0.5378 -0.0217
    1SOL     OW 4877   4.475   1.920   2.358 -0.2479 -0.1650  0.1188
    1SOL    HW2 4878   4.403   1.975   2.327 -0.1795 -0.2076 -0.1179
    1SOL    HW3 4879   4.554   1.964   2.327 -0.1966 -0.4415 -0.1455
    1SOL    MW4 4880   4.476   1.933   2.349 -0.2321 -0.2069  0.0529
    1SOL     OW 4881   0.219   2.052   2.272  0.2134  0.1229 -0.1587
    1SOL    HW2 4882   0.305   2.016   2.294 -0.6114 -1.8740 -0.0598
    1SOL    HW3 4883   0.218   2.057   2.177 -0.2604 -1.7112 -0.2650
    1SOL    MW4 4884   0.230   2.048   2.263  0.0421 -0.3827 -0.1597
    1SOL     OW 4885   0.256   2.313   2.346 -0.5117 -0.1246  0.3037
    1SOL    HW2 4886   0.230   2.297   2.436  0.7229 -0.4295  0.6176
    1SOL    HW3 4887   0.251   2.227   2.304  1.4151 -0.4751  0.7522
    1SOL    MW4 4888   0.252   2.299   2.352 -0.0946 -0.2112  0.4046
    1SOL     OW 4889   0.019   2.464   2.249  0.1374 -0.0778 -0.0794
    1SOL    HW2 4890   0.026   2.537   2.310 -0.5558 -0.3371  0.3168
    1SOL    HW3 4891   0.094   2.408   2.270  0.8037  0.6367 -0.5468
    1SOL    MW4 4892   0.030   2.466   2.260  0.1339 -0.0174 -0.0889
    1SOL     OW 4893   0.038   2.695   2.388  0.3412  0.3503 -0.5021
    1SOL    HW2 4894   0.039   2.701   2.483  1.3860 -0.1876 -0.4705
    1SOL    HW3 4895   0.119   2.739   2.360  0.8888 -0.9833 -1.0426
    1SOL    MW4 4896   0.049   2.702   2.397  0.5513  0.1035 -0.5693
    1SOL     OW 4897   0.243   2.847   2.284 -0.0321  0.0383 -0.2690
    1SOL    HW2 4898   0.316   2.794   2.315 -1.2395 -1.6208 -0.1394
    1SOL    HW3 4899   0.254   2.850   2.189  0.7415  0.6344 -0.1643
    1SOL    MW4 4900   0.254   2.840   2.276 -0.0893 -0.1018 -0.2379
    1SOL     OW 4901   0.249   3.124   2.332  0.3037 -0.2992  0.0842
    1SOL    HW2 4902   0.162   3.161   2.316  0.5093  0.4274  0.6535
    1SOL    HW3 4903   0.237   3.030   2.319 -0.3470 -0.1064 -0.8138
    1SOL    MW4 4904   0.236   3.116   2.328  0.2450 -0.1781  0.0408
    1SOL     OW 4905   4.467   3.209   2.296  0.1049 -0.0393  0.0581
    1SOL    HW2 4906   4.470   3.290   2.348  0.3208 -0.0831  0.1143
    1SOL    HW3 4907   4.477   3.238   2.206  0.8811 -0.0625  0.1331
    1SOL    MW4 4908   4.469   3.223   2.291  0.2356 -0.0484  0.0753
    1SOL     OW 4909   4.461   3.485   2.396  0.0688 -0.1746 -0.0081
    1SOL    HW2 4910   4.450   3.490   2.491 -0.5552 -1.9549  0.0376
    1SOL    HW3 4911   4.382   3.527   2.361  0.1122  0.1309  0.2590
    1SOL    MW4 4912   4.449   3.491   2.404 -0.0081 -0.3693  0.0329
    1SOL     OW 4913   0.215   3.557   2.258 -0.4080 -0.0611  0.2263
    1SOL    HW2 4914   0.293   3.525   2.305  0.4045 -0.4518 -1.3582
    1SOL    HW3 4915   0.141   3.523   2.309  0.4521 -1.7798  0.3658
    1SOL    MW4 4916   0.216   3.549   2.271 -0.1873 -0.3395  0.0358
    1SOL     OW 4917   0.228   3.843   2.322 -0.2555 -0.1806  0.8662
    1SOL    HW2 4918   0.155   3.895   2.290  0.3594 -0.1232 -0.4827
    1SOL    HW3 4919   0.223   3.761   2.273  1.3550  0.3383 -0.1937
    1SOL    MW4 4920   0.218   3.839   2.312  0.0381 -0.1047  0.5484
    1SOL     OW 4921   0.015   3.969   2.209  0.2624 -0.4760 -0.0043
    1SOL    HW2 4922   0.008   4.064   2.217  1.1985 -0.5480  1.6416
    1SOL    HW3 4923  -0.005   3.952   2.117 -1.1055  1.1969 -0.0532
    1SOL    MW4 4924   0.011   3.980   2.198  0.2060 -0.2649  0.2065
    1SOL     OW 4925   4.457   4.257   2.320  0.4104  0.0643  0.0246
    1SOL    HW2 4926   4.457   4.249   2.416 -0.0384 -0.5604 -0.0195
    1SOL    HW3 4927   4.541   4.297   2.299  0.5651  0.0876  0.6781
    1SOL    MW4 4928   4.468   4.261   2.330  0.3715 -0.0148  0.1054
    1SOL     OW 4929   0.223   4.366   2.263  0.2000  0.0234  0.8612
    1SOL    HW2 4930   0.309   4.343   2.299  0.1917  0.2283  1.0115
    1SOL    HW3 4931   0.200   4.447   2.307  0.2054  0.2935  0.3628
    1SOL    MW4 4932   0.231   4.373   2.274  0.1997  0.0863  0.8152
    1SOL     OW 4933   0.638   4.628   2.353 -0.7047 -0.2763  0.2469
    1SOL    HW2 4934   0.634   4.617   2.448 -1.3097 -0.8889  0.1554
    1SOL    HW3 4935   0.719   4.677   2.338  0.4118 -1.9035  0.9190
    1SOL    MW4 4936   0.648   4.633   2.364 -0.6372 -0.5717  0.3235
    1SOL     OW 4937   0.435   0.097   2.252 -0.3863  0.0092 -0.3988
    1SOL    HW2 4938   0.516   0.056   2.282 -0.6645 -1.2007 -1.2616
    1SOL    HW3 4939   0.453   0.121   2.161 -0.8705  0.0774 -0.4760
    1SOL    MW4 4940   0.448   0.095   2.244 -0.4869 -0.1414 -0.5229
    1SOL     OW 4941   0.456   0.347   2.371 -0.1289  0.0458 -0.1957
    1SOL    HW2 4942   0.449   0.341   2.466  0.9789  1.3068 -0.0186
    1SOL    HW3 4943   0.448   0.256   2.340 -0.1586 -0.4030  1.1103
    1SOL    MW4 4944   0.454   0.334   2.379  0.0134  0.1530  0.0000
    1SOL     OW 4945   0.677   0.504   2.273  0.1110  0.1780 -0.1679
    1SOL    HW2 4946   0.682   0.592   2.311 -0.3865  0.6637 -1.2114
    1SOL    HW3 4947   0.602   0.464   2.317  0.0699  0.4318 -0.0020
    1SOL    MW4 4948   0.668   0.511   2.284  0.0399  0.2755 -0.2835
    1SOL     OW 4949   0.686   0.776   2.352  0.2818  0.0683 -0.3795
    1SOL    HW2 4950   0.678   0.790   2.446  2.1426  1.1917 -0.3653
    1SOL    HW3 4951   0.603   0.808   2.316 -1.3252 -2.2774  1.0199
    1SOL    MW4 4952   0.674   0.782   2.360  0.3153 -0.0929 -0.1926
    1SOL     OW 4953   0.461   0.889   2.249 -0.2305 -0.2964 -0.6681
    1SOL    HW2 4954   0.462   0.969   2.300 -1.6085  0.4085 -1.7215
    1SOL    HW3 4955   0.395   0.834   2.291  1.3398 -1.2788  0.5990
    1SOL    MW4 4956   0.453   0.892   2.261 -0.2051 -0.3330 -0.6399
    1SOL     OW 4957   0.435   1.145   2.356 -0.1917  0.1127 -0.1786
    1SOL    HW2 4958   0.416   1.147   2.450  0.4976  1.9110 -0.0418
    1SOL    HW3 4959   0.360   1.188   2.315  0.2232  0.7347 -0.2968
    1SOL    MW4 4960   0.423   1.151   2.363 -0.0460  0.4320 -0.1762
    1SOL     OW 4961   0.648   1.280   2.251 -0.3767  0.7132 -0.6078
    1SOL    HW2 4962   0.641   1.363   2.298 -0.0360  1.4264 -1.8149
    1SOL    HW3 4963   0.569   1.232   2.275 -0.4295  1.2574  0.3285
    1SOL    MW4 4964   0.637   1.285   2.260 -0.3388  0.8792 -0.6435
    1SOL     OW 4965   0.646   1.533   2.356  0.1267 -0.2822  0.2407
    1SOL    HW2 4966   0.673   1.535   2.448 -0.7030  0.0499  0.4738
    1SOL    HW3 4967   0.725   1.558   2.308  0.8517 -1.4537  0.7978
    1SOL    MW4 4968   0.660   1.537   2.362  0.1130 -0.3929  0.3450
    1SOL     OW 4969   0.420   1.691   2.276  0.2480 -0.1012 -0.1940
    1SOL    HW2 4970   0.487   1.638   2.319  0.3090  0.3845  0.3161
    1SOL    HW3 4971   0.340   1.638   2.283  0.2621 -0.0408  0.5045
    1SOL    MW4 4972   0.418   1.677   2.283  0.2579 -0.0292 -0.0343
    1SOL     OW 4973   0.465   1.947   2.357 -0.0907  0.0643 -0.4954
    1SOL    HW2 4974   0.551   1.963   2.316  0.2106  0.7481  0.3771
    1SOL    HW3 4975   0.445   1.856   2.336  1.0269 -0.2123 -0.3953
    1SOL    MW4 4976   0.474   1.937   2.349  0.0965  0.1179 -0.3672
    1SOL     OW 4977   0.712   2.006   2.208  0.5807 -0.2489 -0.0426
    1SOL    HW2 4978   0.796   1.968   2.235 -0.0835 -0.5494  1.6429
    1SOL    HW3 4979   0.711   2.092   2.248  0.4439  0.0974 -0.7795
    1SOL    MW4 4980   0.723   2.012   2.217  0.4750 -0.2429  0.0825
    1SOL     OW 4981   0.697   2.248   2.328 -0.3427 -0.0253 -0.1344
    1SOL    HW2 4982   0.669   2.259   2.419  1.6018 -1.0918  0.6134
    1SOL    HW3 4983   0.762   2.317   2.315 -0.0787 -0.3392 -0.4834
    1SOL    MW4 4984   0.702   2.259   2.339 -0.0513 -0.2077 -0.0815
    1SOL     OW 4985   0.483   2.418   2.283 -0.2449 -0.0208 -0.7858
    1SOL    HW2 4986   0.553   2.353   2.297  0.3226  0.7291 -0.0227
    1SOL    HW3 4987   0.404   2.374   2.313  0.1044 -0.4455 -0.4631
    1SOL    MW4 4988   0.482   2.404   2.289 -0.1239  0.0219 -0.6425
    1SOL     OW 4989   0.453   2.679   2.372 -0.0745  0.1252  0.0065
    1SOL    HW2 4990   0.459   2.668   2.467  0.2332  1.5362  0.1665
    1SOL    HW3 4991   0.482   2.595   2.336  2.5275  0.4834  1.1212
    1SOL    MW4 4992   0.458   2.666   2.380  0.3094  0.3586  0.1745
    1SOL     OW 4993   0.675   2.828   2.286  0.0359 -0.0126  0.3385
    1SOL    HW2 4994   0.748   2.783   2.327 -0.1163  0.5108  1.1816
    1SOL    HW3 4995   0.597   2.782   2.318 -0.0744  0.2880  0.5017
    1SOL    MW4 4996   0.674   2.816   2.295  0.0013  0.0956  0.4709
    1SOL     OW 4997   0.689   3.091   2.359 -0.1913  0.4645 -0.5885
    1SOL    HW2 4998   0.622   3.151   2.328 -0.0788  0.0269 -1.7347
    1SOL    HW3 4999   0.659   3.005   2.330  1.0066  0.3009 -1.4037
    1SOL    MW4 5000   0.676   3.087   2.351 -0.0184  0.3850 -0.8478
    1SOL     OW 5001   0.477   3.230   2.232  0.0749 -0.2194 -0.0810
    1SOL    HW2 5002   0.398   3.186   2.263 -1.5299  2.0701 -0.7467
    1SOL    HW3 5003   0.479   3.211   2.138  0.0622  0.0437 -0.1372
    1SOL    MW4 5004   0.467   3.222   2.223 -0.1385  0.1173 -0.1762
    1SOL     OW 5005   0.446   3.464   2.375 -0.5673  0.3171  0.1625
    1SOL    HW2 5006   0.519   3.512   2.336 -0.1636  0.6144  1.2654
    1SOL    HW3 5007   0.446   3.379   2.329  0.2982  0.4179 -0.0392
    1SOL    MW4 5008   0.456   3.459   2.364 -0.3998  0.3698  0.2813
    1SOL     OW 5009   0.669   3.622   2.287  0.0720 -0.0434  0.1783
    1SOL    HW2 5010   0.671   3.708   2.329  1.3417 -0.1614  0.3585
    1SOL    HW3 5011   0.661   3.641   2.193 -1.9989  0.2288  0.3849
    1SOL    MW4 5012   0.668   3.636   2.280 -0.0336 -0.0231  0.2296
    1SOL     OW 5013   0.706   3.875   2.392  0.2367  0.3165 -0.1994
    1SOL    HW2 5014   0.695   3.886   2.487 -0.7749 -0.1053 -0.2603
    1SOL    HW3 5015   0.636   3.928   2.354  0.3476  0.0995 -0.7035
    1SOL    MW4 5016   0.695   3.884   2.400  0.1179  0.2322 -0.2742
    1SOL     OW 5017   0.468   3.982   2.264 -0.2216 -0.0963  0.2515
    1SOL    HW2 5018   0.393   3.930   2.294 -0.7287 -0.1619 -1.0590
    1SOL    HW3 5019   0.459   3.983   2.168  1.3736  0.0217  0.0893
    1SOL    MW4 5020   0.457   3.975   2.255 -0.0780 -0.0894  0.0572
    1SOL     OW 5021   0.451   4.252   2.368 -0.2729  0.2948 -0.0533
    1SOL    HW2 5022   0.527   4.282   2.318 -1.3497  1.0087 -1.2640
    1SOL    HW3 5023   0.427   4.168   2.329  0.3454 -0.3124  0.8327
    1SOL    MW4 5024   0.458   4.245   2.357 -0.3334  0.3085 -0.0961
    1SOL     OW 5025   0.653   4.385   2.210  0.0146 -0.6048  0.0862
    1SOL    HW2 5026   0.639   4.474   2.243  0.4967 -0.5438  0.1291
    1SOL    HW3 5027   0.656   4.395   2.115  0.5343 -0.5126  0.1147
    1SOL    MW4 5028   0.651   4.398   2.202  0.1467 -0.5851  0.0954
    1SOL     OW 5029   1.095   4.623   2.354 -0.2924  0.2967  0.4968
    1SOL    HW2 5030   1.097   4.629   2.449 -1.1243  1.1542  0.4612
    1SOL    HW3 5031   1.021   4.678   2.327 -0.4701 -0.4572 -0.6000
    1SOL    MW4 5032   1.086   4.631   2.363 -0.4257  0.3095  0.3474
    1SOL     OW 5033   0.882   0.090   2.255  0.5068  0.2619 -0.0224
    1SOL    HW2 5034   0.884   0.178   2.292  0.4003  0.1988  0.1325
    1SOL    HW3 5035   0.884   0.104   2.160 -1.8183  0.4993 -0.0624
    1SOL    MW4 5036   0.883   0.104   2.247  0.1860  0.2849 -0.0072
    1SOL     OW 5037   0.884   0.325   2.366 -0.9506  0.0518  0.1295
    1SOL    HW2 5038   0.959   0.379   2.340 -0.4016 -0.9342 -0.3393
    1SOL    HW3 5039   0.808   0.377   2.339 -0.4071  0.0084 -1.5566
    1SOL    MW4 5040   0.884   0.339   2.359 -0.8065 -0.0841 -0.1547
    1SOL     OW 5041   1.103   0.478   2.274 -0.2040 -0.2046  0.1362
    1SOL    HW2 5042   1.180   0.428   2.300  0.9589  1.8720  0.8593
    1SOL    HW3 5043   1.111   0.489   2.180  0.8610  0.7497  0.3315
    1SOL    MW4 5044   1.114   0.473   2.265  0.0900  0.1953  0.2575
    1SOL     OW 5045   1.119   0.744   2.386 -0.4856 -0.4935 -0.0851
    1SOL    HW2 5046   1.047   0.795   2.348 -0.8943 -1.3000 -0.4107
    1SOL    HW3 5047   1.115   0.659   2.341 -0.2707 -1.0678  0.9498
    1SOL    MW4 5048   1.109   0.739   2.375 -0.5112 -0.6757  0.0086
    1SOL     OW 5049   0.927   0.903   2.243 -0.3009  0.0883 -0.6687
    1SOL    HW2 5050   0.914   0.988   2.285  0.5564 -0.4110  0.6405
    1SOL    HW3 5051   0.848   0.853   2.265 -0.8325  0.5388 -1.4881
    1SOL    MW4 5052   0.915   0.907   2.251 -0.2579  0.0818 -0.6042
    1SOL     OW 5053   0.885   1.145   2.378  0.0829 -0.1230 -0.7818
    1SOL    HW2 5054   0.965   1.191   2.351  0.5067 -0.4726 -0.1406
    1SOL    HW3 5055   0.814   1.195   2.339  0.5621  0.8203 -0.4616
    1SOL    MW4 5056   0.886   1.157   2.369  0.2020 -0.0446 -0.6549
    1SOL     OW 5057   1.107   1.295   2.275  0.1506  0.3012 -0.4405
    1SOL    HW2 5058   1.174   1.237   2.312  1.8092  2.1618 -0.4042
    1SOL    HW3 5059   1.123   1.291   2.180 -0.2267  0.1040 -0.4945
    1SOL    MW4 5060   1.118   1.287   2.267  0.3197  0.5208 -0.4430
    1SOL     OW 5061   1.116   1.567   2.320  0.0489  0.2931  0.4318
    1SOL    HW2 5062   1.029   1.589   2.285  0.6826 -0.7855 -1.9600
    1SOL    HW3 5063   1.120   1.472   2.315  0.9777  0.2778  1.5144
    1SOL    MW4 5064   1.105   1.558   2.315  0.2551  0.1489  0.2592
    1SOL     OW 5065   0.867   1.660   2.223 -0.5800 -0.2806 -0.2603
    1SOL    HW2 5066   0.888   1.738   2.275  0.0104  0.1204 -1.0861
    1SOL    HW3 5067   0.893   1.683   2.134  0.2637 -1.6866 -0.3915
    1SOL    MW4 5068   0.873   1.674   2.218 -0.3908 -0.4133 -0.3865
    1SOL     OW 5069   0.935   1.903   2.354  0.2305  0.8030  0.1081
    1SOL    HW2 5070   0.923   1.905   2.449 -1.5617  2.8242 -0.1067
    1SOL    HW3 5071   1.006   1.966   2.338 -1.0790  2.2862 -0.0443
    1SOL    MW4 5072   0.942   1.912   2.364 -0.1786  1.2654  0.0598
    1SOL     OW 5073   1.159   2.059   2.261  0.1339 -0.2583 -0.0166
    1SOL    HW2 5074   1.227   2.002   2.296  0.9239 -0.1667 -1.3705
    1SOL    HW3 5075   1.171   2.056   2.166 -0.1088  1.7819 -0.1447
    1SOL    MW4 5076   1.169   2.051   2.253  0.2062  0.0231 -0.2122
    1SOL     OW 5077   1.121   2.315   2.349 -0.3123 -0.3825 -0.1098
    1SOL    HW2 5078   1.204   2.360   2.336 -0.5476  0.2744  0.6569
    1SOL    HW3 5079   1.133   2.231   2.304  0.7936 -0.3277  0.0539
    1SOL    MW4 5080   1.134   2.310   2.342 -0.1974 -0.2887  0.0129
    1SOL     OW 5081   0.878   2.448   2.299 -0.2454 -0.3122  0.6581
    1SOL    HW2 5082   0.950   2.390   2.321  1.0504  0.7454 -0.6224
    1SOL    HW3 5083   0.890   2.466   2.205 -0.4138  2.2256  1.0879
    1SOL    MW4 5084   0.890   2.443   2.289 -0.0966  0.1619  0.5460
    1SOL     OW 5085   0.898   2.692   2.405 -0.0879  0.4296  0.3597
    1SOL    HW2 5086   0.896   2.685   2.501  1.4644  0.7554  0.4208
    1SOL    HW3 5087   0.884   2.602   2.375 -1.2814  0.4248  0.8646
    1SOL    MW4 5088   0.896   2.679   2.414 -0.0406  0.4721  0.4342
    1SOL     OW 5089   1.097   2.815   2.279  0.3807 -0.4437  0.2957
    1SOL    HW2 5090   1.178   2.780   2.316  0.0398 -1.7577 -0.1670
    1SOL    HW3 5091   1.028   2.760   2.317 -0.2872  0.6196  0.6344
    1SOL    MW4 5092   1.099   2.803   2.289  0.2475 -0.4768  0.2794
    1SOL     OW 5093   1.121   3.074   2.321 -0.5469  0.3919 -0.0485
    1SOL    HW2 5094   1.044   3.114   2.280 -0.3505  1.0422  0.2181
    1SOL    HW3 5095   1.104   2.980   2.316 -0.7701  0.4833 -1.1508
    1SOL    MW4 5096   1.109   3.067   2.315 -0.5504  0.4900 -0.1588
    1SOL     OW 5097   0.888   3.210   2.239  0.5136 -0.3591  0.1971
    1SOL    HW2 5098   0.890   3.293   2.288  2.3790 -0.0630 -0.3561
    1SOL    HW3 5099   0.816   3.161   2.280 -0.5020  1.4395  0.6568
    1SOL    MW4 5100   0.879   3.215   2.251  0.6257 -0.0827  0.1850
    1SOL     OW 5101   0.880   3.469   2.357 -0.2744  0.1679  0.7612
    1SOL    HW2 5102   0.891   3.462   2.452  0.0083  1.4431  0.8342
    1SOL    HW3 5103   0.795   3.511   2.345  0.1118  0.8732  0.4743
    1SOL    MW4 5104   0.870   3.474   2.368 -0.1861  0.4292  0.7329
    1SOL     OW 5105   1.090   3.604   2.235  0.1689  0.3204  0.2885
    1SOL    HW2 5106   1.165   3.555   2.269  0.1300  0.8129  1.0852
    1SOL    HW3 5107   1.013   3.558   2.269  0.1410  1.5808  1.9703
    1SOL    MW4 5108   1.090   3.592   2.244  0.1601  0.5515  0.6158
    1SOL     OW 5109   1.114   3.875   2.331 -0.5584 -0.0157  0.3356
    1SOL    HW2 5110   1.201   3.912   2.318 -1.4691  1.7701 -0.9605
    1SOL    HW3 5111   1.116   3.791   2.285  0.5680 -0.1156  0.5752
    1SOL    MW4 5112   1.125   3.869   2.323 -0.5300  0.2065  0.1962
    1SOL     OW 5113   0.898   4.019   2.258 -0.3003 -0.5805  0.4183
    1SOL    HW2 5114   0.977   3.967   2.274 -0.2944 -0.1698  1.7998
    1SOL    HW3 5115   0.828   3.971   2.303 -0.2261  0.7725  2.0419
    1SOL    MW4 5116   0.899   4.005   2.266 -0.2898 -0.3476  0.8152
    1SOL     OW 5117   0.855   4.277   2.362 -0.1589  0.1714 -0.2068
    1SOL    HW2 5118   0.854   4.187   2.332 -0.2019  0.1029 -0.0013
    1SOL    HW3 5119   0.784   4.319   2.314 -0.9180 -0.1966  0.5732
    1SOL    MW4 5120   0.845   4.271   2.352 -0.2647  0.1140 -0.0765
    1SOL     OW 5121   1.088   4.367   2.240  0.3928  0.4833 -0.0900
    1SOL    HW2 5122   1.006   4.326   2.267  1.1422 -0.0383  1.4946
    1SOL    HW3 5123   1.082   4.457   2.274  1.8467 -0.5263  3.0085
    1SOL    MW4 5124   1.077   4.374   2.248  0.6834  0.2813  0.5281
    1SOL     OW 5125   1.592   4.660   2.317 -0.1801  0.4252 -0.0005
    1SOL    HW2 5126   1.672   4.696   2.278 -0.3693 -0.2537 -1.0421
    1SOL    HW3 5127   1.522   4.685   2.257 -0.4646 -0.7278 -0.1583
    1SOL    MW4 5128   1.593   4.668   2.304 -0.2427  0.1836 -0.1588
    1SOL     OW 5129   1.313   0.073   2.209  0.4092 -0.3919  0.0340
    1SOL    HW2 5130   1.327   0.158   2.252 -2.5668  0.3666 -0.3808
    1SOL    HW3 5131   1.247   0.029   2.263 -0.3674 -1.1163 -1.4798
    1SOL    MW4 5132   1.306   0.079   2.222 -0.0859 -0.3874 -0.2205
    1SOL     OW 5133   1.337   0.328   2.344  0.0673 -0.1769 -0.6265
    1SOL    HW2 5134   1.355   0.346   2.437  1.0770 -0.9859 -0.6467
    1SOL    HW3 5135   1.401   0.382   2.297 -0.9952  0.8706 -0.8901
    1SOL    MW4 5136   1.348   0.337   2.350  0.0602 -0.1455 -0.6640
    1SOL     OW 5137   1.543   0.491   2.238  0.2641  0.3189  0.5502
    1SOL    HW2 5138   1.617   0.454   2.287  0.1940 -1.5826 -0.7046
    1SOL    HW3 5139   1.571   0.488   2.147 -1.1424  0.0928  0.1190
    1SOL    MW4 5140   1.557   0.485   2.233  0.0691  0.0382  0.3278
    1SOL     OW 5141   1.563   0.736   2.334 -0.3054  0.1387  0.0442
    1SOL    HW2 5142   1.645   0.781   2.312 -1.0399  1.0797 -0.8055
    1SOL    HW3 5143   1.579   0.644   2.310  0.1009  0.5330 -1.2398
    1SOL    MW4 5144   1.576   0.729   2.328 -0.3487  0.3148 -0.2370
    1SOL     OW 5145   1.342   0.880   2.225 -0.2989 -0.5163 -0.2453
    1SOL    HW2 5146   1.422   0.834   2.251 -0.5409 -0.8524 -0.0949
    1SOL    HW3 5147   1.271   0.830   2.265 -0.6443 -0.7594 -1.1537
    1SOL    MW4 5148   1.343   0.868   2.234 -0.3765 -0.5927 -0.3450
    1SOL     OW 5149   1.318   1.132   2.340  0.4658  0.1166  0.3078
    1SOL    HW2 5150   1.333   1.123   2.434  0.8429 -0.8724  0.1570
    1SOL    HW3 5151   1.338   1.046   2.304  1.1295  0.7075 -0.7877
    1SOL    MW4 5152   1.323   1.119   2.347  0.6031  0.0640  0.1433
    1SOL     OW 5153   1.538   1.286   2.278  0.0940 -0.1803 -0.1265
    1SOL    HW2 5154   1.465   1.225   2.292  0.0011  0.2690  1.4756
    1SOL    HW3 5155   1.543   1.296   2.183 -0.3565 -2.1255 -0.3798
    1SOL    MW4 5156   1.529   1.279   2.268  0.0223 -0.3777  0.0510
    1SOL     OW 5157   1.551   1.561   2.368 -0.1490 -0.0726 -0.3858
    1SOL    HW2 5158   1.641   1.563   2.335  0.0585  0.4995  0.2002
    1SOL    HW3 5159   1.520   1.474   2.346  0.9778 -0.7185  0.5091
    1SOL    MW4 5160   1.559   1.550   2.361  0.0271 -0.0823 -0.1907
    1SOL     OW 5161   1.357   1.685   2.230 -0.2232  0.1276  0.0123
    1SOL    HW2 5162   1.423   1.641   2.283 -0.2144  0.4820  0.2985
    1SOL    HW3 5163   1.276   1.639   2.250 -0.2715  0.4368  0.5527
    1SOL    MW4 5164   1.355   1.673   2.240 -0.2285  0.2151  0.1214
    1SOL     OW 5165   1.337   1.897   2.385 -0.1293 -0.1002 -0.1767
    1SOL    HW2 5166   1.410   1.948   2.351 -0.3331  1.0564  1.0804
    1SOL    HW3 5167   1.341   1.814   2.337  2.4234 -0.3343  0.4006
    1SOL    MW4 5168   1.347   1.893   2.374  0.1807  0.0216  0.0653
    1SOL     OW 5169   1.544   2.056   2.276  0.1981 -0.1480  0.1512
    1SOL    HW2 5170   1.612   1.997   2.307  0.7134  0.7358  0.7391
    1SOL    HW3 5171   1.553   2.056   2.181  0.2956 -0.8805  0.1588
    1SOL    MW4 5172   1.554   2.048   2.267  0.2789 -0.1283  0.2296
    1SOL     OW 5173   1.605   2.316   2.384  0.2130 -0.1582  0.2778
    1SOL    HW2 5174   1.563   2.319   2.470 -2.0786 -0.1221 -0.8216
    1SOL    HW3 5175   1.579   2.231   2.347 -0.0352  0.4536 -0.9847
    1SOL    MW4 5176   1.596   2.305   2.390 -0.1221 -0.0730 -0.0339
    1SOL     OW 5177   1.369   2.451   2.254 -0.2912 -0.0660 -0.0842
    1SOL    HW2 5178   1.455   2.423   2.288 -0.8455  0.3263  1.6925
    1SOL    HW3 5179   1.370   2.423   2.162  1.2049 -1.2855  0.2681
    1SOL    MW4 5180   1.381   2.444   2.246 -0.1669 -0.1752  0.1967
    1SOL     OW 5181   1.353   2.702   2.313  0.6062 -0.2978  0.6716
    1SOL    HW2 5182   1.434   2.748   2.292  0.2569  0.4834  1.0139
    1SOL    HW3 5183   1.363   2.616   2.273  1.4873 -0.1066  0.4736
    1SOL    MW4 5184   1.365   2.697   2.305  0.6764 -0.1698  0.6907
    1SOL     OW 5185   1.587   2.831   2.264 -0.0759 -0.1343  0.0912
    1SOL    HW2 5186   1.580   2.919   2.302  2.3040  0.0836  0.0643
    1SOL    HW3 5187   1.602   2.847   2.170  0.2688 -0.5879  0.0701
    1SOL    MW4 5188   1.588   2.845   2.256  0.2836 -0.1652  0.0849
    1SOL     OW 5189   1.598   3.087   2.376  0.4139  0.1620  0.6923
    1SOL    HW2 5190   1.599   3.092   2.471  2.0078 -0.5983  0.7259
    1SOL    HW3 5191   1.531   3.151   2.350  3.1646  3.8660  2.1499
    1SOL    MW4 5192   1.589   3.096   2.385  0.9871  0.5503  0.8893
    1SOL     OW 5193   1.355   3.236   2.284 -0.1384  0.3112  0.5148
    1SOL    HW2 5194   1.277   3.186   2.309 -1.2738  2.1107  0.6914
    1SOL    HW3 5195   1.357   3.232   2.189  1.0394 -1.8941  0.5984
    1SOL    MW4 5196   1.345   3.229   2.275 -0.1327  0.2575  0.5491
    1SOL     OW 5197   1.335   3.506   2.342  0.2971  0.0488  0.0861
    1SOL    HW2 5198   1.330   3.514   2.437 -2.4476  0.3772 -0.0658
    1SOL    HW3 5199   1.343   3.412   2.326 -1.6024 -0.2083  0.5718
    1SOL    MW4 5200   1.336   3.495   2.352 -0.3157  0.0582  0.1304
    1SOL     OW 5201   1.565   3.595   2.244 -0.1065 -0.1197  0.2486
    1SOL    HW2 5202   1.578   3.681   2.282  1.6289 -1.0487  1.8663
    1SOL    HW3 5203   1.479   3.567   2.274 -1.0839  1.3856 -1.0410
    1SOL    MW4 5204   1.556   3.602   2.253 -0.0066 -0.0436  0.2921
    1SOL     OW 5205   1.573   3.846   2.350  0.2117  0.1258  0.2045
    1SOL    HW2 5206   1.587   3.854   2.445  2.1925 -0.0048 -0.0580
    1SOL    HW3 5207   1.644   3.897   2.311  1.1825 -2.2624 -1.2428
    1SOL    MW4 5208   1.584   3.854   2.357  0.6012 -0.2065 -0.0212
    1SOL     OW 5209   1.350   3.987   2.284 -0.0295  0.2753 -0.4224
    1SOL    HW2 5210   1.420   3.933   2.321 -1.1934 -0.8202  0.2193
    1SOL    HW3 5211   1.349   3.964   2.192  1.3087  1.2643 -0.7067
    1SOL    MW4 5212   1.359   3.977   2.277 -0.0064  0.2613 -0.3755
    1SOL     OW 5213   1.343   4.272   2.355  0.4219 -0.1333  0.3520
    1SOL    HW2 5214   1.356   4.184   2.319 -1.4683 -0.7566  1.1105
    1SOL    HW3 5215   1.260   4.301   2.318  0.3782  0.7861  1.1510
    1SOL    MW4 5216   1.334   4.264   2.346  0.1668 -0.0939  0.5574
    1SOL     OW 5217   1.585   4.378   2.254  0.4009 -0.4307  0.1191
    1SOL    HW2 5218   1.506   4.340   2.292  1.3843 -0.4065  2.2864
    1SOL    HW3 5219   1.585   4.469   2.284  1.6996 -0.6777  0.9690
    1SOL    MW4 5220   1.575   4.385   2.263  0.7019 -0.4597  0.5174
    1SOL     OW 5221   2.009   0.011   2.316  0.1399  0.2027 -0.3139
    1SOL    HW2 5222   2.102   0.035   2.308  0.8344 -1.3820  2.2323
    1SOL    HW3 5223   2.005  -0.078   2.283 -0.4091  0.1493 -0.0984
    1SOL    MW4 5224   2.021   0.003   2.311  0.1590 -0.0134  0.0508
    1SOL     OW 5225   1.792   0.136   2.208 -0.2690  0.0095 -0.1401
    1SOL    HW2 5226   1.783   0.216   2.260  1.7226 -0.0520  0.3515
    1SOL    HW3 5227   1.872   0.095   2.242 -1.3766 -2.2949 -0.2609
    1SOL    MW4 5228   1.801   0.141   2.220 -0.1523 -0.3026 -0.0913
    1SOL     OW 5229   1.770   0.381   2.341  0.0525  0.1564 -0.0585
    1SOL    HW2 5230   1.785   0.369   2.435  3.1206 -2.0990 -0.7459
    1SOL    HW3 5231   1.854   0.413   2.307 -0.5129 -0.6222 -2.2873
    1SOL    MW4 5232   1.783   0.384   2.349  0.3827 -0.2438 -0.4432
    1SOL     OW 5233   2.026   0.470   2.231 -0.0122 -0.6353 -0.1199
    1SOL    HW2 5234   2.032   0.564   2.250 -0.9417 -0.5680 -0.1585
    1SOL    HW3 5235   2.030   0.464   2.136 -0.3323 -0.6109 -0.1335
    1SOL    MW4 5236   2.027   0.482   2.221 -0.1769 -0.6232 -0.1266
    1SOL     OW 5237   2.010   0.736   2.374  0.0652 -0.6199  0.0350
    1SOL    HW2 5238   2.095   0.771   2.347 -0.6758  1.6578  0.5460
    1SOL    HW3 5239   2.015   0.732   2.469 -0.7372  0.4712  0.1347
    1SOL    MW4 5240   2.022   0.740   2.383 -0.1385 -0.1754  0.1156
    1SOL     OW 5241   1.781   0.875   2.261 -0.1295 -0.4440  0.2915
    1SOL    HW2 5242   1.778   0.965   2.293  1.2708 -0.5803  0.8081
    1SOL    HW3 5243   1.862   0.839   2.297 -0.3874 -1.7292 -0.3963
    1SOL    MW4 5244   1.791   0.882   2.270  0.0212 -0.6316  0.2689
    1SOL     OW 5245   1.762   1.143   2.360 -0.6390  0.2068 -0.3292
    1SOL    HW2 5246   1.844   1.183   2.333  0.2982 -0.8022  0.9834
    1SOL    HW3 5247   1.694   1.205   2.332  0.5874  1.2208 -1.0711
    1SOL    MW4 5248   1.764   1.156   2.353 -0.3535  0.2075 -0.2539
    1SOL     OW 5249   2.011   1.267   2.245 -0.2420  0.2639  0.4450
    1SOL    HW2 5250   2.028   1.359   2.267  1.7041  0.6891 -2.4977
    1SOL    HW3 5251   2.077   1.218   2.293 -0.3514  0.5207  0.8635
    1SOL    MW4 5252   2.022   1.273   2.254  0.0005  0.3538  0.1118
    1SOL     OW 5253   2.023   1.532   2.381  0.4639 -0.6461 -0.0064
    1SOL    HW2 5254   2.021   1.554   2.474  1.7080  0.9064 -0.3120
    1SOL    HW3 5255   1.945   1.574   2.345  0.9340  0.2950  0.0441
    1SOL    MW4 5256   2.013   1.541   2.388  0.6902 -0.3172 -0.0401
    1SOL     OW 5257   1.810   1.643   2.251  0.1974 -0.4140 -0.1170
    1SOL    HW2 5258   1.797   1.736   2.269  1.8224 -0.0127 -0.9232
    1SOL    HW3 5259   1.820   1.637   2.156 -1.9908 -1.7069 -0.2962
    1SOL    MW4 5260   1.810   1.654   2.241  0.1233 -0.5317 -0.2468
    1SOL     OW 5261   1.772   1.895   2.331 -0.3406 -0.5371  0.2646
    1SOL    HW2 5262   1.776   1.917   2.423 -0.6075  1.5216 -0.2047
    1SOL    HW3 5263   1.829   1.958   2.288 -0.4574 -1.2801 -1.0256
    1SOL    MW4 5264   1.780   1.906   2.337 -0.3912 -0.3635  0.0329
    1SOL     OW 5265   1.990   2.063   2.249  0.4736  0.5015  0.4017
    1SOL    HW2 5266   2.059   2.005   2.282  0.0724 -0.7825 -0.9527
    1SOL    HW3 5267   1.985   2.044   2.155 -0.2586  2.1239  0.0919
    1SOL    MW4 5268   1.998   2.053   2.241  0.3241  0.5465  0.1822
    1SOL     OW 5269   2.061   2.286   2.378 -0.0276  0.2600 -0.8473
    1SOL    HW2 5270   2.144   2.316   2.342  0.1179  0.8605 -0.0458
    1SOL    HW3 5271   2.039   2.207   2.328  1.1614 -0.0582 -0.8714
    1SOL    MW4 5272   2.069   2.279   2.367  0.1483  0.2971 -0.7448
    1SOL     OW 5273   1.835   2.424   2.291 -0.4516 -0.4093 -0.4357
    1SOL    HW2 5274   1.908   2.374   2.328 -0.0948  0.1655 -0.3608
    1SOL    HW3 5275   1.757   2.387   2.333 -0.0611  0.1436  0.7852
    1SOL    MW4 5276   1.835   2.412   2.301 -0.3531 -0.2606 -0.2649
    1SOL     OW 5277   1.825   2.691   2.345  0.0179  0.0812  0.2604
    1SOL    HW2 5278   1.824   2.597   2.324  0.3383  0.4189 -1.3399
    1SOL    HW3 5279   1.742   2.724   2.312  0.4258  0.5791 -0.2943
    1SOL    MW4 5280   1.814   2.683   2.338  0.1140  0.1915 -0.0241
    1SOL     OW 5281   2.044   2.839   2.266 -0.1581 -0.2560 -0.1439
    1SOL    HW2 5282   2.122   2.788   2.286  1.2823  1.2069 -1.9078
    1SOL    HW3 5283   1.971   2.779   2.284  1.4151 -2.2748 -0.3414
    1SOL    MW4 5284   2.045   2.825   2.271  0.2396 -0.3293 -0.4027
    1SOL     OW 5285   2.023   3.080   2.400 -0.9844  0.4914  0.0211
    1SOL    HW2 5286   2.101   3.120   2.361 -0.0246 -0.1834  1.2240
    1SOL    HW3 5287   2.021   2.992   2.363 -1.0719  0.4493  0.1259
    1SOL    MW4 5288   2.033   3.073   2.390 -0.8693  0.3967  0.1938
    1SOL     OW 5289   1.820   3.219   2.266 -0.2744 -0.7142  0.0323
    1SOL    HW2 5290   1.889   3.168   2.308 -1.9340 -0.7931  2.7826
    1SOL    HW3 5291   1.740   3.169   2.282 -1.6177  1.6273  0.9153
    1SOL    MW4 5292   1.818   3.206   2.273 -0.6704 -0.4156  0.5116
    1SOL     OW 5293   1.785   3.479   2.358 -0.4418 -0.2358  0.7913
    1SOL    HW2 5294   1.792   3.389   2.328  0.0411 -0.1601  0.6705
    1SOL    HW3 5295   1.703   3.511   2.318 -0.3354 -0.4520  0.3957
    1SOL    MW4 5296   1.775   3.472   2.348 -0.3639 -0.2542  0.7229
    1SOL     OW 5297   2.021   3.612   2.275 -0.1226  0.2161 -0.1855
    1SOL    HW2 5298   1.940   3.569   2.304 -0.5996  0.7453 -0.7301
    1SOL    HW3 5299   2.025   3.593   2.181  1.2315 -1.1900  0.1405
    1SOL    MW4 5300   2.011   3.603   2.266 -0.0069  0.1004 -0.2141
    1SOL     OW 5301   2.026   3.871   2.366 -0.1517 -0.3230  0.1267
    1SOL    HW2 5302   2.035   3.883   2.460  0.1145 -0.4130  0.1111
    1SOL    HW3 5303   2.035   3.776   2.352  1.8666 -0.0883 -0.2222
    1SOL    MW4 5304   2.028   3.860   2.376  0.1497 -0.3040  0.0784
    1SOL     OW 5305   1.806   3.971   2.254 -0.1777 -0.2455  0.6457
    1SOL    HW2 5306   1.885   3.930   2.287 -0.6047 -0.4304  1.4537
    1SOL    HW3 5307   1.822   3.984   2.160  1.2739  0.8017  1.0218
    1SOL    MW4 5308   1.818   3.967   2.246 -0.0424 -0.1318  0.8020
    1SOL     OW 5309   1.820   4.238   2.344  0.3179 -0.3519 -0.2181
    1SOL    HW2 5310   1.813   4.143   2.328 -1.5819 -0.0822 -1.0895
    1SOL    HW3 5311   1.737   4.274   2.313  1.8056  1.8607 -1.7620
    1SOL    MW4 5312   1.808   4.230   2.338  0.2636 -0.0243 -0.5367
    1SOL     OW 5313   2.013   4.405   2.256 -0.4737  0.2848  0.6025
    1SOL    HW2 5314   1.934   4.354   2.272 -0.2984 -0.2666 -0.2929
    1SOL    HW3 5315   2.043   4.377   2.170 -0.1448  1.5861  0.2828
    1SOL    MW4 5316   2.006   4.395   2.247 -0.4072  0.3839  0.4425
    1SOL     OW 5317   2.497   4.641   2.366 -0.3045  0.0218  0.6887
    1SOL    HW2 5318   2.572   4.684   2.325 -0.5565 -0.5814 -0.4425
    1SOL    HW3 5319   2.494   4.554   2.325 -1.9300  0.2301  0.3006
    1SOL    MW4 5320   2.506   4.635   2.355 -0.5522 -0.0300  0.4883
    1SOL     OW 5321   2.267   0.108   2.270 -0.2711 -0.1222 -0.3226
    1SOL    HW2 5322   2.245   0.190   2.314 -0.2576 -0.4144  0.2283
    1SOL    HW3 5323   2.348   0.079   2.312  0.3696  0.1884 -1.3313
    1SOL    MW4 5324   2.275   0.115   2.281 -0.1843 -0.1198 -0.3834
    1SOL     OW 5325   2.231   0.354   2.385 -0.1726 -0.1367  0.6499
    1SOL    HW2 5326   2.160   0.400   2.341  0.6473 -0.4797 -1.0469
    1SOL    HW3 5327   2.309   0.406   2.367  0.0246  0.2441  2.5138
    1SOL    MW4 5328   2.232   0.367   2.377 -0.0386 -0.1317  0.6719
    1SOL     OW 5329   2.440   0.500   2.261  0.0735  1.1350 -0.0365
    1SOL    HW2 5330   2.519   0.468   2.304  0.9472  1.6664 -1.2298
    1SOL    HW3 5331   2.463   0.506   2.169 -1.1506  1.9117 -0.3047
    1SOL    MW4 5332   2.453   0.497   2.255  0.0272  1.3076 -0.2296
    1SOL     OW 5333   2.479   0.765   2.376 -0.1019  0.0631 -0.6313
    1SOL    HW2 5334   2.559   0.805   2.339  0.6427  0.2476  1.1397
    1SOL    HW3 5335   2.472   0.681   2.332  1.3718 -0.1771 -0.4498
    1SOL    MW4 5336   2.489   0.759   2.365  0.1907  0.0557 -0.3738
    1SOL     OW 5337   2.245   0.864   2.295  0.2575 -0.4953 -0.1153
    1SOL    HW2 5338   2.231   0.954   2.324 -1.9968 -1.0785  0.6798
    1SOL    HW3 5339   2.332   0.842   2.328  0.0932  0.7885  1.2194
    1SOL    MW4 5340   2.255   0.873   2.303 -0.0618 -0.4028  0.1657
    1SOL     OW 5341   2.234   1.155   2.374  0.1701  0.6366 -0.3083
    1SOL    HW2 5342   2.316   1.199   2.351  1.0366 -1.3794 -1.2660
    1SOL    HW3 5343   2.231   1.159   2.470  0.8334  1.7019 -0.3301
    1SOL    MW4 5344   2.245   1.161   2.384  0.3722  0.5113 -0.4375
    1SOL     OW 5345   2.480   1.242   2.309 -0.1407 -0.1647 -0.2067
    1SOL    HW2 5346   2.564   1.204   2.332 -0.1554  0.3728  0.7632
    1SOL    HW3 5347   2.485   1.333   2.338 -0.5558  0.2602 -1.3904
    1SOL    MW4 5348   2.491   1.249   2.316 -0.1972 -0.0376 -0.2348
    1SOL     OW 5349   2.473   1.505   2.397  0.0725  0.1054 -0.4369
    1SOL    HW2 5350   2.474   1.515   2.492 -0.6103  0.4354 -0.4614
    1SOL    HW3 5351   2.556   1.542   2.368  1.2576 -1.9792  0.2136
    1SOL    MW4 5352   2.484   1.511   2.406  0.1385 -0.1262 -0.3543
    1SOL     OW 5353   2.271   1.646   2.282  0.2514  0.1799  0.4810
    1SOL    HW2 5354   2.344   1.603   2.326  0.1134 -0.5887 -0.0163
    1SOL    HW3 5355   2.197   1.587   2.297  0.0061  0.3572 -0.0227
    1SOL    MW4 5356   2.271   1.632   2.290  0.2007  0.1020  0.3488
    1SOL     OW 5357   2.235   1.910   2.328  0.5582 -0.4220 -0.2925
    1SOL    HW2 5358   2.318   1.955   2.315  0.3999 -0.0481 -0.0029
    1SOL    HW3 5359   2.256   1.817   2.318  0.8960 -0.2885 -0.8269
    1SOL    MW4 5360   2.249   1.904   2.325  0.5817 -0.3551 -0.3247
    1SOL     OW 5361   2.487   2.020   2.304 -0.3302  0.4278  0.1086
    1SOL    HW2 5362   2.555   1.954   2.318 -0.8180  0.0617  0.8226
    1SOL    HW3 5363   2.468   2.016   2.210 -1.2209 -1.3303  0.3300
    1SOL    MW4 5364   2.493   2.011   2.294 -0.5121  0.1476  0.2320
    1SOL     OW 5365   2.496   2.285   2.368  0.3475  0.0670  0.2179
    1SOL    HW2 5366   2.567   2.332   2.326  0.5401  0.8689  1.4281
    1SOL    HW3 5367   2.498   2.198   2.328  0.8125  0.6675 -1.0893
    1SOL    MW4 5368   2.505   2.280   2.357  0.4342  0.2522  0.2050
    1SOL     OW 5369   2.282   2.402   2.247 -0.3081  0.3983  0.3756
    1SOL    HW2 5370   2.271   2.491   2.281 -0.6819 -0.3856  2.3815
    1SOL    HW3 5371   2.359   2.369   2.292 -0.3939 -0.4175 -0.0842
    1SOL    MW4 5372   2.290   2.410   2.257 -0.3686  0.1872  0.5798
    1SOL     OW 5373   2.258   2.663   2.338  0.2264  0.1346 -0.1031
    1SOL    HW2 5374   2.247   2.680   2.431  0.9893 -2.5343  0.5259
    1SOL    HW3 5375   2.340   2.707   2.315 -0.1899  1.1705  0.3705
    1SOL    MW4 5376   2.267   2.671   2.347  0.2723 -0.0806  0.0427
    1SOL     OW 5377   2.478   2.823   2.273  0.2458 -0.6949 -0.0387
    1SOL    HW2 5378   2.551   2.771   2.309  1.2573  0.7275  0.0249
    1SOL    HW3 5379   2.485   2.812   2.178 -1.0012 -2.5731  0.0679
    1SOL    MW4 5380   2.489   2.815   2.265  0.2148 -0.7551 -0.0162
    1SOL     OW 5381   2.466   3.094   2.380  0.3272  0.0034 -0.1620
    1SOL    HW2 5382   2.542   3.133   2.339  1.7392 -2.1484  0.3199
    1SOL    HW3 5383   2.459   3.007   2.340  1.0451 -1.7034  3.1811
    1SOL    MW4 5384   2.475   3.088   2.370  0.6082 -0.5059  0.3424
    1SOL     OW 5385   2.219   3.208   2.273 -0.5989  0.2342 -0.1282
    1SOL    HW2 5386   2.219   3.299   2.301  0.8846  0.5317 -1.0616
    1SOL    HW3 5387   2.302   3.173   2.306 -1.4786 -0.9743  0.8413
    1SOL    MW4 5388   2.230   3.215   2.281 -0.5190  0.1142 -0.1235
    1SOL     OW 5389   2.247   3.467   2.359 -0.3249  0.3876 -0.1177
    1SOL    HW2 5390   2.238   3.468   2.454 -0.6208 -0.7242 -0.1293
    1SOL    HW3 5391   2.176   3.522   2.328 -1.3728 -0.7442  0.2282
    1SOL    MW4 5392   2.236   3.474   2.368 -0.5021  0.0916 -0.0737
    1SOL     OW 5393   2.487   3.580   2.278  0.5778  0.2410 -0.1760
    1SOL    HW2 5394   2.484   3.663   2.325  0.7528  0.6285 -0.8415
    1SOL    HW3 5395   2.404   3.538   2.298  0.4416  0.6245  0.0674
    1SOL    MW4 5396   2.476   3.585   2.287  0.5827  0.3426 -0.2315
    1SOL     OW 5397   2.463   3.854   2.377 -0.4790 -0.2783 -0.7089
    1SOL    HW2 5398   2.440   3.861   2.470  1.0921 -2.5330 -0.0991
    1SOL    HW3 5399   2.391   3.897   2.331 -1.5345  0.4359  1.5222
    1SOL    MW4 5400   2.450   3.861   2.384 -0.4110 -0.4814 -0.3340
    1SOL     OW 5401   2.254   4.000   2.271 -0.3836  0.1960 -0.2465
    1SOL    HW2 5402   2.252   4.091   2.300  0.6871  0.0769  0.2183
    1SOL    HW3 5403   2.167   3.966   2.293 -0.7498  1.0799 -0.3318
    1SOL    MW4 5404   2.242   4.007   2.278 -0.2906  0.2975 -0.1960
    1SOL     OW 5405   2.237   4.253   2.350  0.0420 -0.0753  0.1257
    1SOL    HW2 5406   2.224   4.262   2.444 -0.1864  0.1827  0.0682
    1SOL    HW3 5407   2.163   4.299   2.310 -0.3416 -0.9208 -0.1728
    1SOL    MW4 5408   2.226   4.260   2.357 -0.0389 -0.1531  0.0787
    1SOL     OW 5409   2.472   4.397   2.257 -0.0999  0.3981 -0.1232
    1SOL    HW2 5410   2.552   4.352   2.283  0.2184  2.4311  2.6439
    1SOL    HW3 5411   2.401   4.337   2.281  0.4705 -0.1074  0.3097
    1SOL    MW4 5412   2.473   4.383   2.264  0.0174  0.5994  0.2990
    1SOL     OW 5413   2.917   0.005   2.381 -0.0189  0.5926 -0.2257
    1SOL    HW2 5414   3.001   0.040   2.350  0.3360 -0.1774 -0.1474
    1SOL    HW3 5415   2.910  -0.080   2.337  0.0958 -0.1432  1.1684
    1SOL    MW4 5416   2.927  -0.002   2.371  0.0429  0.3939 -0.0315
    1SOL     OW 5417   2.698   0.110   2.254 -0.5197  0.2918 -0.3003
    1SOL    HW2 5418   2.688   0.199   2.285  0.5509  0.6116 -0.8553
    1SOL    HW3 5419   2.779   0.079   2.295 -1.3913 -0.7673  0.6717
    1SOL    MW4 5420   2.707   0.117   2.264 -0.4933  0.1943 -0.2456
    1SOL     OW 5421   2.660   0.368   2.355 -0.3757  0.0077  0.1120
    1SOL    HW2 5422   2.658   0.358   2.450  0.1325  0.7719  0.2084
    1SOL    HW3 5423   2.748   0.402   2.336 -0.0104 -1.3336 -0.7556
    1SOL    MW4 5424   2.672   0.371   2.365 -0.2606 -0.0685  0.0105
    1SOL     OW 5425   2.904   0.477   2.284 -0.0095  0.0389 -0.1744
    1SOL    HW2 5426   2.912   0.568   2.312 -0.4054  0.2048 -0.5917
    1SOL    HW3 5427   2.906   0.480   2.188 -1.0061 -0.2818 -0.2187
    1SOL    MW4 5428   2.905   0.489   2.275 -0.1931  0.0185 -0.2353
    1SOL     OW 5429   2.936   0.751   2.358  0.2115  0.5973 -0.3149
    1SOL    HW2 5430   2.932   0.770   2.451  0.7738  0.8496 -0.3378
    1SOL    HW3 5431   2.850   0.774   2.324 -0.2273 -0.1742  0.2675
    1SOL    MW4 5432   2.924   0.756   2.366  0.2277  0.5288 -0.2410
    1SOL     OW 5433   2.708   0.865   2.269  0.1790 -0.1804 -0.1367
    1SOL    HW2 5434   2.725   0.956   2.291  0.6555 -0.3485  0.1961
    1SOL    HW3 5435   2.692   0.865   2.174  0.3903  0.2156 -0.1706
    1SOL    MW4 5436   2.708   0.877   2.259  0.2699 -0.1503 -0.0970
    1SOL     OW 5437   2.718   1.110   2.362  0.2077 -0.6228 -0.1267
    1SOL    HW2 5438   2.699   1.128   2.453 -0.4404 -1.5395 -0.0798
    1SOL    HW3 5439   2.784   1.175   2.338  0.1967 -0.2254  0.9182
    1SOL    MW4 5440   2.725   1.121   2.371  0.1206 -0.6914  0.0174
    1SOL     OW 5441   2.920   1.280   2.272 -0.0832  0.1831 -0.4669
    1SOL    HW2 5442   2.996   1.241   2.316  0.3672  0.5722 -0.9092
    1SOL    HW3 5443   2.939   1.274   2.179 -0.9901 -0.5216 -0.6228
    1SOL    MW4 5444   2.932   1.274   2.266 -0.1433  0.1414 -0.5460
    1SOL     OW 5445   2.975   1.537   2.342  0.7780  0.2398  0.3677
    1SOL    HW2 5446   2.943   1.527   2.431  1.0509  1.3398  0.5918
    1SOL    HW3 5447   2.964   1.450   2.303  3.0165 -0.9396  2.2465
    1SOL    MW4 5448   2.970   1.524   2.348  1.1091  0.2292  0.6452
    1SOL     OW 5449   2.715   1.614   2.271  0.2684 -0.0958 -0.1263
    1SOL    HW2 5450   2.799   1.583   2.306  0.4689  1.6243  1.0159
    1SOL    HW3 5451   2.733   1.632   2.178  1.1187  0.0308  0.0551
    1SOL    MW4 5452   2.729   1.613   2.263  0.4070  0.1477  0.0484
    1SOL     OW 5453   2.727   1.883   2.343 -0.3399  0.4833  0.3585
    1SOL    HW2 5454   2.718   1.887   2.438 -1.1751  2.2467  0.2100
    1SOL    HW3 5455   2.739   1.790   2.325 -0.9676  0.0381  2.1116
    1SOL    MW4 5456   2.727   1.871   2.353 -0.5329  0.6572  0.5703
    1SOL     OW 5457   2.924   2.069   2.243 -0.3759 -0.0854  0.3598
    1SOL    HW2 5458   3.004   2.032   2.280 -0.6229 -0.7352  0.2419
    1SOL    HW3 5459   2.856   2.005   2.264 -0.9783  0.7327  0.9728
    1SOL    MW4 5460   2.925   2.056   2.251 -0.4876 -0.0629  0.4249
    1SOL     OW 5461   2.940   2.325   2.349 -0.0062 -0.0626 -0.5217
    1SOL    HW2 5462   2.919   2.305   2.440 -0.4010  1.3570 -0.3011
    1SOL    HW3 5463   2.931   2.241   2.303  0.4242 -0.8297  0.7783
    1SOL    MW4 5464   2.936   2.311   2.355 -0.0019  0.0234 -0.3211
    1SOL     OW 5465   2.703   2.436   2.245 -0.0431  0.2497  0.2549
    1SOL    HW2 5466   2.782   2.405   2.288 -0.1227  0.8607  0.8673
    1SOL    HW3 5467   2.730   2.457   2.156  0.1362 -0.9966  0.0122
    1SOL    MW4 5468   2.717   2.435   2.239 -0.0300  0.1659  0.3035
    1SOL     OW 5469   2.706   2.688   2.375 -0.6040  0.4657  0.2574
    1SOL    HW2 5470   2.780   2.737   2.338 -0.0783  0.6963  1.6159
    1SOL    HW3 5471   2.714   2.601   2.336 -0.3197  0.8329 -0.5310
    1SOL    MW4 5472   2.717   2.683   2.365 -0.4973  0.5448  0.3328
    1SOL     OW 5473   2.928   2.827   2.280  0.2698  0.4241 -0.0128
    1SOL    HW2 5474   2.920   2.911   2.324 -0.3822  0.2400  0.2268
    1SOL    HW3 5475   2.942   2.849   2.188  0.7793  0.8019  0.1558
    1SOL    MW4 5476   2.929   2.841   2.274  0.2513  0.4497  0.0410
    1SOL     OW 5477   2.894   3.078   2.400 -0.0359 -0.1877  0.3318
    1SOL    HW2 5478   2.908   3.097   2.493 -1.4493 -1.0053  0.7351
    1SOL    HW3 5479   2.820   3.133   2.375  1.0099  0.8147 -0.5997
    1SOL    MW4 5480   2.886   3.087   2.409 -0.0844 -0.1636  0.2620
    1SOL     OW 5481   2.693   3.233   2.294 -0.2510  0.2036  0.0941
    1SOL    HW2 5482   2.704   3.317   2.339  0.5344  0.6659 -0.9201
    1SOL    HW3 5483   2.693   3.256   2.201  0.2633 -0.9538 -0.1973
    1SOL    MW4 5484   2.695   3.247   2.287 -0.0796  0.1118 -0.0782
    1SOL     OW 5485   2.739   3.493   2.393  0.1367  0.2704  0.0885
    1SOL    HW2 5486   2.806   3.516   2.329 -0.2192 -2.0530 -1.1471
    1SOL    HW3 5487   2.659   3.533   2.359  0.4746  1.2817  0.4754
    1SOL    MW4 5488   2.738   3.501   2.380  0.1342  0.0970 -0.0236
    1SOL     OW 5489   2.951   3.607   2.245 -0.3451  0.0309  0.2981
    1SOL    HW2 5490   3.029   3.561   2.276 -1.4544 -0.9449  1.6540
    1SOL    HW3 5491   2.969   3.699   2.265  0.8589 -0.0587 -0.2832
    1SOL    MW4 5492   2.964   3.613   2.252 -0.3326 -0.1097  0.4001
    1SOL     OW 5493   2.939   3.860   2.335 -0.0137 -0.5136 -0.5944
    1SOL    HW2 5494   2.944   3.877   2.429  0.5264  1.6323 -0.9752
    1SOL    HW3 5495   2.850   3.884   2.310 -0.1027 -0.9136 -0.6706
    1SOL    MW4 5496   2.928   3.865   2.344  0.0458 -0.2832 -0.6545
    1SOL     OW 5497   2.696   3.979   2.244 -0.0760  0.3622 -0.4128
    1SOL    HW2 5498   2.620   3.954   2.298  0.7802 -0.4120  0.4461
    1SOL    HW3 5499   2.671   3.953   2.155 -0.4890 -0.6389 -0.0108
    1SOL    MW4 5500   2.682   3.972   2.239 -0.0174  0.1280 -0.2465
    1SOL     OW 5501   2.690   4.251   2.314  0.2093 -0.3362 -0.0982
    1SOL    HW2 5502   2.691   4.231   2.407  0.0756  0.0078 -0.0243
    1SOL    HW3 5503   2.695   4.165   2.271 -0.1918 -0.5214  0.2220
    1SOL    MW4 5504   2.691   4.237   2.320  0.1388 -0.3157 -0.0460
    1SOL     OW 5505   2.908   4.412   2.248 -0.2308  0.3472  0.3663
    1SOL    HW2 5506   2.977   4.357   2.285  0.3040  1.0896  0.4969
    1SOL    HW3 5507   2.827   4.365   2.265  0.3515 -1.1965 -1.0077
    1SOL    MW4 5508   2.906   4.399   2.255 -0.0834  0.2413  0.2022
    1SOL     OW 5509   3.373   4.657   2.379 -0.3700 -0.0305 -0.3531
    1SOL    HW2 5510   3.379   4.688   2.469  0.1175 -0.1722 -0.3368
    1SOL    HW3 5511   3.452   4.690   2.336 -0.6148  0.0646 -0.7372
    1SOL    MW4 5512   3.384   4.665   2.385 -0.3378 -0.0367 -0.4015
    1SOL     OW 5513   3.155   0.104   2.247  0.1219 -0.0702  0.0548
    1SOL    HW2 5514   3.145   0.194   2.278  1.5809  0.1252 -0.0027
    1SOL    HW3 5515   3.235   0.073   2.289  0.1115 -1.0363 -0.6267
    1SOL    MW4 5516   3.164   0.112   2.257  0.3128 -0.1719 -0.0427
    1SOL     OW 5517   3.146   0.367   2.343  0.2654 -0.0499 -0.1096
    1SOL    HW2 5518   3.224   0.408   2.304 -0.3166  1.5974  0.4118
    1SOL    HW3 5519   3.072   0.407   2.296 -0.2826 -1.2772 -0.2969
    1SOL    MW4 5520   3.147   0.378   2.331  0.1163  0.0055 -0.0651
    1SOL     OW 5521   3.385   0.485   2.226  0.2275  0.2282  0.4733
    1SOL    HW2 5522   3.457   0.423   2.241  0.0334 -0.4629 -1.2298
    1SOL    HW3 5523   3.371   0.481   2.131 -0.8415  1.7250  0.5582
    1SOL    MW4 5524   3.393   0.476   2.215  0.0608  0.3344  0.2599
    1SOL     OW 5525   3.393   0.738   2.362  0.5331  0.2875  0.1440
    1SOL    HW2 5526   3.458   0.798   2.327 -1.6619  1.9826 -1.1386
    1SOL    HW3 5527   3.413   0.654   2.321  1.2896  1.0336 -1.0398
    1SOL    MW4 5528   3.404   0.734   2.352  0.3433  0.6096 -0.1814
    1SOL     OW 5529   3.172   0.882   2.276 -0.0007 -0.0516 -0.8254
    1SOL    HW2 5530   3.243   0.833   2.318 -0.3609  0.3183  0.2178
    1SOL    HW3 5531   3.094   0.827   2.287 -0.7725  1.5370  1.9109
    1SOL    MW4 5532   3.171   0.868   2.283 -0.1500  0.2069 -0.3266
    1SOL     OW 5533   3.155   1.152   2.357  0.1141  0.0877  0.3467
    1SOL    HW2 5534   3.230   1.199   2.319 -0.2462  0.0118 -0.4689
    1SOL    HW3 5535   3.157   1.066   2.314 -0.0243 -0.1639  0.8462
    1SOL    MW4 5536   3.165   1.147   2.346  0.0484  0.0445  0.3049
    1SOL     OW 5537   3.370   1.288   2.241  0.1701  0.4172  0.2175
    1SOL    HW2 5538   3.443   1.247   2.286  0.2404  0.5343  0.2113
    1SOL    HW3 5539   3.361   1.374   2.283 -0.1888  0.2651  0.4594
    1SOL    MW4 5540   3.378   1.294   2.253  0.1323  0.4126  0.2489
    1SOL     OW 5541   3.359   1.565   2.311  0.0162  0.2876  0.6986
    1SOL    HW2 5542   3.353   1.574   2.406 -0.9941  1.2507  0.5593
    1SOL    HW3 5543   3.285   1.616   2.278  0.3024 -0.1282 -0.5988
    1SOL    MW4 5544   3.348   1.573   2.319 -0.0794  0.3598  0.5093
    1SOL     OW 5545   3.136   1.716   2.209 -0.3536 -0.0307  0.1669
    1SOL    HW2 5546   3.137   1.796   2.263  0.5322 -1.1593  1.8859
    1SOL    HW3 5547   3.070   1.661   2.250 -1.0446 -0.1521 -1.0890
    1SOL    MW4 5548   3.128   1.719   2.222 -0.3278 -0.1956  0.2279
    1SOL     OW 5549   3.145   1.957   2.354 -0.1869  0.1327  0.7133
    1SOL    HW2 5550   3.171   1.947   2.446  0.0663 -1.3948  0.4858
    1SOL    HW3 5551   3.224   1.989   2.311  0.1513 -0.6101  0.7641
    1SOL    MW4 5552   3.159   1.960   2.360 -0.1087 -0.1668  0.6900
    1SOL     OW 5553   3.352   2.073   2.231  0.0606 -0.0730  0.7295
    1SOL    HW2 5554   3.427   2.019   2.254  0.6656  0.4055 -0.0951
    1SOL    HW3 5555   3.347   2.068   2.136 -1.1693 -0.3873  0.8009
    1SOL    MW4 5556   3.361   2.066   2.222 -0.0217 -0.0515  0.6299
    1SOL     OW 5557   3.387   2.335   2.363 -0.0758  0.0150  0.2780
    1SOL    HW2 5558   3.320   2.392   2.326  0.8507  0.3934 -0.8204
    1SOL    HW3 5559   3.366   2.248   2.327 -1.7313 -0.4636  2.2736
    1SOL    MW4 5560   3.375   2.331   2.353 -0.1719  0.0014  0.3963
    1SOL     OW 5561   3.172   2.458   2.251 -0.0694 -0.0774 -0.3478
    1SOL    HW2 5562   3.155   2.547   2.280  0.1458 -0.0129 -0.4182
    1SOL    HW3 5563   3.094   2.409   2.277  0.0262  0.0252  0.1278
    1SOL    MW4 5564   3.160   2.463   2.258 -0.0281 -0.0553 -0.2944
    1SOL     OW 5565   3.164   2.711   2.376 -0.2345 -0.0501  0.2432
    1SOL    HW2 5566   3.145   2.704   2.470 -0.0623 -0.3496  0.2546
    1SOL    HW3 5567   3.085   2.751   2.339 -0.3754 -0.0983  0.4878
    1SOL    MW4 5568   3.151   2.716   2.384 -0.2301 -0.0956  0.2768
    1SOL     OW 5569   3.377   2.835   2.246 -0.1041  0.0171 -0.0447
    1SOL    HW2 5570   3.371   2.922   2.287 -0.9366  0.2895 -0.7148
    1SOL    HW3 5571   3.303   2.787   2.283  0.7482 -0.6335  0.8311
    1SOL    MW4 5572   3.366   2.840   2.257 -0.1013 -0.0329 -0.0174
    1SOL     OW 5573   3.367   3.095   2.352 -0.0345 -0.3778 -0.2111
    1SOL    HW2 5574   3.438   3.156   2.333  0.6444 -1.2074 -0.4199
    1SOL    HW3 5575   3.290   3.133   2.309  0.5017  0.0410 -0.8206
    1SOL    MW4 5576   3.367   3.108   2.344  0.1261 -0.4318 -0.3188
    1SOL     OW 5577   3.123   3.201   2.271  0.1142  0.2676 -0.3506
    1SOL    HW2 5578   3.125   3.294   2.296 -1.1128  0.6590 -1.6659
    1SOL    HW3 5579   3.047   3.166   2.316 -0.1133  0.1807 -0.8008
    1SOL    MW4 5580   3.113   3.209   2.280 -0.0777  0.3078 -0.5836
    1SOL     OW 5581   3.154   3.452   2.376 -0.1086 -0.0272  0.2140
    1SOL    HW2 5582   3.134   3.479   2.466 -0.9056  1.1325 -0.2971
    1SOL    HW3 5583   3.226   3.510   2.349 -0.4097  0.1692 -0.1691
    1SOL    MW4 5584   3.161   3.463   2.384 -0.2534  0.1519  0.0961
    1SOL     OW 5585   3.354   3.637   2.293  0.2986 -0.1359  0.2681
    1SOL    HW2 5586   3.431   3.594   2.330 -0.0419 -0.7862  0.2351
    1SOL    HW3 5587   3.360   3.620   2.199  0.5120  0.4593  0.1725
    1SOL    MW4 5588   3.365   3.629   2.285  0.2818 -0.1431  0.2511
    1SOL     OW 5589   3.370   3.920   2.375  0.2714  0.3942  0.7968
    1SOL    HW2 5590   3.441   3.961   2.324  0.6023  1.1061  1.7996
    1SOL    HW3 5591   3.369   3.829   2.347  0.9431  0.6108  0.0570
    1SOL    MW4 5592   3.379   3.914   2.365  0.4034  0.5167  0.8314
    1SOL     OW 5593   3.157   3.989   2.227  0.5597 -0.3954  0.0174
    1SOL    HW2 5594   3.238   3.975   2.277 -0.1767 -1.2536  1.0085
    1SOL    HW3 5595   3.093   3.931   2.269 -0.7512  0.7841 -0.3112
    1SOL    MW4 5596   3.159   3.980   2.239  0.2897 -0.3529  0.1049
    1SOL     OW 5597   3.124   4.250   2.349 -0.1305  0.0285  0.5589
    1SOL    HW2 5598   3.197   4.307   2.327 -0.9973  1.2131  0.6875
    1SOL    HW3 5599   3.138   4.171   2.295  0.9285  0.4649  0.1803
    1SOL    MW4 5600   3.135   4.247   2.339 -0.1049  0.2427  0.5257
    1SOL     OW 5601   3.356   4.392   2.260 -0.3788  0.0536  0.3029
    1SOL    HW2 5602   3.357   4.478   2.302  2.9723  0.3642 -0.2957
    1SOL    HW3 5603   3.353   4.411   2.167 -3.9254 -0.5993  0.2047
    1SOL    MW4 5604   3.355   4.406   2.254 -0.4044  0.0086  0.2112
    1SOL     OW 5605   3.825   4.654   2.383 -0.3387  0.3563  0.4744
    1SOL    HW2 5606   3.830   4.656   2.478  0.9715 -1.2685  0.4714
    1SOL    HW3 5607   3.904   4.701   2.354 -0.7274  0.8379  0.1926
    1SOL    MW4 5608   3.836   4.660   2.391 -0.2172  0.2055  0.4365
    1SOL     OW 5609   3.588   0.084   2.258  0.2842  0.0442 -0.1405
    1SOL    HW2 5610   3.594   0.171   2.296 -0.1562 -0.2816  0.6833
    1SOL    HW3 5611   3.663   0.037   2.295  0.1234 -0.1349 -0.0429
    1SOL    MW4 5612   3.599   0.089   2.268  0.2048 -0.0224 -0.0188
    1SOL     OW 5613   3.595   0.331   2.353  0.0466 -0.2356 -0.0466
    1SOL    HW2 5614   3.582   0.351   2.446  1.4916  0.5696  0.0078
    1SOL    HW3 5615   3.659   0.396   2.324  1.8718 -2.3167 -0.8678
    1SOL    MW4 5616   3.602   0.342   2.361  0.4780 -0.4039 -0.1478
    1SOL     OW 5617   3.808   0.522   2.273 -0.4356 -0.3421  0.1003
    1SOL    HW2 5618   3.808   0.616   2.292 -0.1402 -0.3534  0.1626
    1SOL    HW3 5619   3.815   0.516   2.178  0.3132 -0.3071  0.1495
    1SOL    MW4 5620   3.809   0.534   2.263 -0.2978 -0.3389  0.1149
    1SOL     OW 5621   3.840   0.781   2.337  0.4286 -0.0004 -0.1648
    1SOL    HW2 5622   3.843   0.796   2.431 -1.3064 -0.0390 -0.0833
    1SOL    HW3 5623   3.925   0.811   2.305  0.9106  0.3083  1.3676
    1SOL    MW4 5624   3.851   0.787   2.345  0.2632  0.0353  0.0479
    1SOL     OW 5625   3.604   0.892   2.249 -0.3709 -0.5943  0.2509
    1SOL    HW2 5626   3.689   0.854   2.272 -0.3070 -0.0510  0.9301
    1SOL    HW3 5627   3.596   0.877   2.155  0.9537  0.2752 -0.0185
    1SOL    MW4 5628   3.614   0.885   2.239 -0.1874 -0.4079  0.3049
    1SOL     OW 5629   3.601   1.153   2.327  0.0012 -0.0251  0.4506
    1SOL    HW2 5630   3.582   1.155   2.421  1.1542 -1.4942  0.7367
    1SOL    HW3 5631   3.587   1.062   2.301 -1.4637  0.6103 -1.0767
    1SOL    MW4 5632   3.597   1.141   2.336 -0.0401 -0.1352  0.2866
    1SOL     OW 5633   3.842   1.258   2.190 -0.2032  0.1061 -0.1429
    1SOL    HW2 5634   3.831   1.346   2.225 -0.3450  0.4356 -1.0123
    1SOL    HW3 5635   3.769   1.208   2.228 -1.0891  0.7687 -0.9644
    1SOL    MW4 5636   3.831   1.263   2.200 -0.3388  0.2371 -0.3660
    1SOL     OW 5637   3.804   1.517   2.298 -0.3106 -0.1324  0.3555
    1SOL    HW2 5638   3.796   1.525   2.393  0.2476  1.3328  0.2818
    1SOL    HW3 5639   3.734   1.572   2.264 -0.1799 -0.2489 -0.0991
    1SOL    MW4 5640   3.793   1.525   2.306 -0.2198  0.0455  0.2859
    1SOL     OW 5641   3.589   1.676   2.218  0.0281 -0.5463 -0.0472
    1SOL    HW2 5642   3.511   1.644   2.262 -1.3330  0.7859 -1.3969
    1SOL    HW3 5643   3.569   1.667   2.125  0.2340  2.5836 -0.4488
    1SOL    MW4 5644   3.576   1.671   2.211 -0.1242  0.0426 -0.2782
    1SOL     OW 5645   3.573   1.929   2.317  0.6260 -0.1011  0.3246
    1SOL    HW2 5646   3.659   1.970   2.309  0.6962 -0.4034 -0.5658
    1SOL    HW3 5647   3.583   1.844   2.274  0.1243 -0.5084  1.0019
    1SOL    MW4 5648   3.585   1.923   2.310  0.5691 -0.1948  0.2966
    1SOL     OW 5649   3.800   2.065   2.241 -0.0723  0.0874  0.5797
    1SOL    HW2 5650   3.879   2.015   2.262  1.8336  3.4077  1.8136
    1SOL    HW3 5651   3.797   2.066   2.145 -0.0334 -2.1325  0.5335
    1SOL    MW4 5652   3.810   2.059   2.231  0.1843  0.2322  0.7362
    1SOL     OW 5653   3.850   2.317   2.356  0.1953 -0.5363  0.5250
    1SOL    HW2 5654   3.771   2.363   2.328  0.5615  0.3412  0.9349
    1SOL    HW3 5655   3.841   2.230   2.318  0.3236  0.3950 -1.6914
    1SOL    MW4 5656   3.838   2.311   2.347  0.2604 -0.2975  0.2868
    1SOL     OW 5657   3.615   2.456   2.264  0.0114  0.3221 -0.1422
    1SOL    HW2 5658   3.535   2.414   2.297  0.1066  0.7888  0.6884
    1SOL    HW3 5659   3.607   2.451   2.169 -0.8563  0.0770 -0.0601
    1SOL    MW4 5660   3.603   2.450   2.256 -0.0904  0.3514 -0.0219
    1SOL     OW 5661   3.627   2.717   2.338 -0.2752  0.4183 -0.4437
    1SOL    HW2 5662   3.626   2.625   2.312  2.4705  0.6621 -1.5466
    1SOL    HW3 5663   3.540   2.749   2.312 -1.0069 -1.6684 -0.6938
    1SOL    MW4 5664   3.615   2.709   2.331 -0.0095  0.1752 -0.6220
    1SOL     OW 5665   3.844   2.850   2.256 -0.2413 -0.0012  0.4757
    1SOL    HW2 5666   3.823   2.942   2.271 -0.1546  0.2621 -0.9639
    1SOL    HW3 5667   3.763   2.803   2.279 -0.4525  0.4723  0.7048
    1SOL    MW4 5668   3.830   2.856   2.261 -0.2577  0.0958  0.3159
    1SOL     OW 5669   3.801   3.103   2.364  0.5176 -0.1376 -0.5115
    1SOL    HW2 5670   3.806   3.110   2.459  1.2774 -1.8394 -0.4148
    1SOL    HW3 5671   3.886   3.135   2.333  1.1769 -1.8416 -0.4793
    1SOL    MW4 5672   3.813   3.108   2.373  0.7048 -0.5870 -0.4942
    1SOL     OW 5673   3.569   3.258   2.269 -0.5953  0.1104 -0.1474
    1SOL    HW2 5674   3.582   3.351   2.285 -1.2026  0.0097  0.9526
    1SOL    HW3 5675   3.639   3.215   2.320 -0.1863 -0.0301 -0.8194
    1SOL    MW4 5676   3.580   3.264   2.278 -0.6216  0.0787 -0.0911
    1SOL     OW 5677   3.583   3.507   2.368  0.0730  0.6189 -0.1923
    1SOL    HW2 5678   3.592   3.499   2.463 -1.4632 -0.2311 -0.1062
    1SOL    HW3 5679   3.666   3.545   2.339  0.7675  0.3536  1.4183
    1SOL    MW4 5680   3.595   3.511   2.377 -0.0379  0.4721  0.0315
    1SOL     OW 5681   3.817   3.605   2.280  0.0247  0.3481  0.4731
    1SOL    HW2 5682   3.824   3.698   2.302 -1.4055  0.5676  0.0731
    1SOL    HW3 5683   3.819   3.603   2.185 -1.4272  0.1173  0.4348
    1SOL    MW4 5684   3.818   3.617   2.271 -0.3552  0.3467  0.4153
    1SOL     OW 5685   3.770   3.884   2.343 -0.3510 -0.0251 -0.4205
    1SOL    HW2 5686   3.763   3.877   2.438  0.6006 -0.8298 -0.4065
    1SOL    HW3 5687   3.856   3.923   2.328 -0.0036 -0.9938 -0.9920
    1SOL    MW4 5688   3.781   3.889   2.354 -0.1798 -0.2589 -0.4940
    1SOL     OW 5689   3.576   4.050   2.240  0.5376 -0.2424 -0.3682
    1SOL    HW2 5690   3.576   4.136   2.283 -0.1892  0.0605 -0.9511
    1SOL    HW3 5691   3.649   4.003   2.280  0.6725  0.4919  0.2707
    1SOL    MW4 5692   3.585   4.055   2.251  0.4597 -0.1049 -0.3610
    1SOL     OW 5693   3.571   4.291   2.382  0.5581 -0.1004  0.3083
    1SOL    HW2 5694   3.646   4.324   2.332  0.8838  0.7751  1.3581
    1SOL    HW3 5695   3.495   4.333   2.341  0.8209  0.6056  0.5333
    1SOL    MW4 5696   3.571   4.301   2.370  0.6356  0.1082  0.4766
    1SOL     OW 5697   3.804   4.394   2.277  0.2024 -0.3470  0.4365
    1SOL    HW2 5698   3.888   4.352   2.295  1.3066  0.4423 -2.5303
    1SOL    HW3 5699   3.814   4.484   2.308  1.3095  0.3942 -1.9840
    1SOL    MW4 5700   3.817   4.400   2.283  0.4942 -0.1450 -0.2742
    1SOL     OW 5701   4.228   4.605   2.360  0.1138 -0.0448 -0.1475
    1SOL    HW2 5702   4.229   4.603   2.456 -1.1123  0.7842 -0.0942
    1SOL    HW3 5703   4.310   4.648   2.336 -0.1623  0.9222  0.5863
    1SOL    MW4 5704   4.239   4.611   2.370 -0.0849  0.1917 -0.0436
    1SOL     OW 5705   4.034   0.114   2.253 -0.5169 -0.1712  0.3055
    1SOL    HW2 5706   4.044   0.198   2.299 -0.0378 -1.1755  2.1038
    1SOL    HW3 5707   4.097   0.056   2.296  0.4870 -0.9555 -2.1567
    1SOL    MW4 5708   4.044   0.118   2.265 -0.3209 -0.4072  0.2179
    1SOL     OW 5709   4.014   0.379   2.368  0.1813 -0.0434  0.0078
    1SOL    HW2 5710   4.097   0.410   2.332  0.1898 -0.8635 -0.6806
    1SOL    HW3 5711   3.949   0.441   2.334  0.2233 -0.6611 -1.2153
    1SOL    MW4 5712   4.017   0.392   2.358  0.1879 -0.2331 -0.2446
    1SOL     OW 5713   4.257   0.476   2.260  0.0397  0.0067 -0.0011
    1SOL    HW2 5714   4.267   0.561   2.305  0.3069 -0.2303  0.3940
    1SOL    HW3 5715   4.330   0.424   2.293 -1.4151 -1.1446  1.4823
    1SOL    MW4 5716   4.268   0.480   2.270 -0.1173 -0.1765  0.2468
    1SOL     OW 5717   4.274   0.748   2.355 -0.1267 -0.7281 -0.8042
    1SOL    HW2 5718   4.201   0.795   2.314 -0.4623  0.0525  0.6542
    1SOL    HW3 5719   4.352   0.799   2.331 -0.3284 -0.2474 -0.4616
    1SOL    MW4 5720   4.275   0.761   2.346 -0.1974 -0.5618 -0.5665
    1SOL     OW 5721   4.061   0.885   2.241 -0.2319 -0.3020  0.1009
    1SOL    HW2 5722   4.070   0.974   2.274 -0.6989  0.1605 -0.9731
    1SOL    HW3 5723   4.062   0.895   2.146  0.2768 -1.5076 -0.0295
    1SOL    MW4 5724   4.062   0.898   2.233 -0.2265 -0.4001 -0.0577
    1SOL     OW 5725   4.050   1.143   2.342 -0.0470  0.0310  0.0647
    1SOL    HW2 5726   4.023   1.161   2.432  0.5870  1.7874 -0.0757
    1SOL    HW3 5727   3.983   1.186   2.289  1.0103  1.2611 -0.2889
    1SOL    MW4 5728   4.038   1.151   2.347  0.1764  0.4250 -0.0007
    1SOL     OW 5729   4.250   1.283   2.203 -0.1052  0.4459 -0.0652
    1SOL    HW2 5730   4.175   1.235   2.238 -0.0798 -0.9922 -1.8849
    1SOL    HW3 5731   4.326   1.232   2.231 -0.1043 -1.0078 -2.4805
    1SOL    MW4 5732   4.250   1.270   2.211 -0.1020  0.0643 -0.6239
    1SOL     OW 5733   4.251   1.529   2.332 -0.0275  0.1363  0.6349
    1SOL    HW2 5734   4.246   1.442   2.293 -1.8711  0.6441 -0.3060
    1SOL    HW3 5735   4.329   1.569   2.293 -0.6882 -0.1243 -0.9777
    1SOL    MW4 5736   4.261   1.523   2.322 -0.3581  0.1690  0.2980
    1SOL     OW 5737   4.027   1.673   2.245 -0.4668  0.3306  0.4482
    1SOL    HW2 5738   4.100   1.620   2.276  0.1348  0.9390  0.0741
    1SOL    HW3 5739   3.949   1.624   2.273  0.0707 -0.0876  1.2592
    1SOL    MW4 5740   4.026   1.659   2.253 -0.3166  0.3557  0.5059
    1SOL     OW 5741   4.052   1.941   2.335  0.1172  0.0844 -0.2591
    1SOL    HW2 5742   4.020   1.929   2.424 -0.9426  0.5357 -0.5687
    1SOL    HW3 5743   4.054   1.853   2.298  0.1001 -0.0520  0.0679
    1SOL    MW4 5744   4.048   1.928   2.342 -0.0243  0.1259 -0.2568
    1SOL     OW 5745   4.267   2.059   2.234 -0.4563  0.0561 -0.3887
    1SOL    HW2 5746   4.280   2.151   2.258  1.3280 -0.3448  0.1783
    1SOL    HW3 5747   4.193   2.031   2.289 -1.6098  1.3792 -1.2104
    1SOL    MW4 5748   4.259   2.067   2.244 -0.3729  0.1779 -0.4225
    1SOL     OW 5749   4.296   2.313   2.311 -0.0771  0.4888  0.9606
    1SOL    HW2 5750   4.211   2.356   2.298  0.0308  0.2952 -0.4547
    1SOL    HW3 5751   4.360   2.380   2.288  0.1440  0.2849  0.9846
    1SOL    MW4 5752   4.293   2.328   2.307 -0.0339  0.4363  0.7772
    1SOL     OW 5753   4.075   2.465   2.270  0.0139  0.0908  0.4453
    1SOL    HW2 5754   4.062   2.553   2.305 -0.3021 -0.2680  1.2504
    1SOL    HW3 5755   3.993   2.419   2.290  0.2441 -0.4387  0.1868
    1SOL    MW4 5756   4.062   2.470   2.277  0.0024 -0.0265  0.5171
    1SOL     OW 5757   4.071   2.708   2.390 -0.6731  0.2868  0.4886
    1SOL    HW2 5758   4.064   2.700   2.486 -0.5992 -0.7850  0.4088
    1SOL    HW3 5759   3.990   2.752   2.364 -1.3773 -0.7579  0.8943
    1SOL    MW4 5760   4.059   2.713   2.399 -0.7567  0.0076  0.5317
    1SOL     OW 5761   4.304   2.798   2.273  0.4883 -0.2885 -0.5629
    1SOL    HW2 5762   4.227   2.752   2.305  0.2266 -0.7392 -1.7886
    1SOL    HW3 5763   4.377   2.762   2.323 -0.3501  1.8291  2.3078
    1SOL    MW4 5764   4.303   2.787   2.284  0.3428 -0.0687 -0.3459
    1SOL     OW 5765   4.244   3.095   2.384 -0.3092 -0.0756 -0.7006
    1SOL    HW2 5766   4.260   3.008   2.349  1.4727  0.5228 -1.4257
    1SOL    HW3 5767   4.316   3.149   2.350 -0.2146  1.2012  1.4033
    1SOL    MW4 5768   4.256   3.091   2.375 -0.0615  0.1719 -0.5188
    1SOL     OW 5769   4.030   3.221   2.252 -0.0791  0.2409 -0.1532
    1SOL    HW2 5770   4.016   3.299   2.306 -0.2615  0.3654 -0.3806
    1SOL    HW3 5771   4.104   3.176   2.294  0.1764  0.6551 -0.1604
    1SOL    MW4 5772   4.038   3.225   2.265 -0.0696  0.3121 -0.1843
    1SOL     OW 5773   4.033   3.471   2.386  0.1364  0.4189 -0.0227
    1SOL    HW2 5774   4.107   3.513   2.344 -1.2354  0.9968 -1.9086
    1SOL    HW3 5775   3.956   3.518   2.353 -1.3197 -2.4928 -0.9384
    1SOL    MW4 5776   4.032   3.482   2.376 -0.2365  0.1111 -0.3924
    1SOL     OW 5777   4.240   3.600   2.276  0.6749  0.4117  0.3479
    1SOL    HW2 5778   4.217   3.690   2.301  1.7661  0.4728  1.1627
    1SOL    HW3 5779   4.235   3.599   2.180 -1.2466  0.8128  0.4277
    1SOL    MW4 5780   4.236   3.612   2.267  0.5655  0.4723  0.4659
    1SOL     OW 5781   4.269   3.868   2.328  0.7863 -0.3969 -0.3541
    1SOL    HW2 5782   4.268   3.885   2.422 -0.9424 -0.0553 -0.4157
    1SOL    HW3 5783   4.352   3.905   2.298  0.8209  0.5471  0.8566
    1SOL    MW4 5784   4.279   3.875   2.337  0.5627 -0.2275 -0.2024
    1SOL     OW 5785   4.022   3.994   2.277 -0.5214 -0.2148 -0.1958
    1SOL    HW2 5786   4.098   3.938   2.288 -1.1448 -1.5070 -2.1588
    1SOL    HW3 5787   4.006   3.995   2.183 -2.9447  0.0190  0.1795
    1SOL    MW4 5788   4.030   3.987   2.266 -0.9236 -0.3545 -0.4053
    1SOL     OW 5789   4.045   4.258   2.334  0.4372  0.4432 -0.4011
    1SOL    HW2 5790   4.108   4.292   2.271 -0.1823  0.1667 -1.1761
    1SOL    HW3 5791   4.043   4.164   2.318 -0.3383  0.4796 -0.5343
    1SOL    MW4 5792   4.053   4.250   2.324  0.2532  0.4115 -0.5207
    1SOL     OW 5793   4.242   4.383   2.207  0.1270 -0.2236  0.3843
    1SOL    HW2 5794   4.240   4.467   2.252  0.4466  0.9845 -1.7585
    1SOL    HW3 5795   4.316   4.337   2.246 -1.1363 -0.2633  2.8205
    1SOL    MW4 5796   4.252   4.388   2.218  0.0019 -0.0696  0.4230
    1SOL     OW 5797   0.232   4.622   2.633 -0.2943 -0.3831  0.3579
    1SOL    HW2 5798   0.215   4.533   2.663 -1.2594 -0.1202  0.5947
    1SOL    HW3 5799   0.146   4.665   2.634  0.2480  0.7070  0.7599
    1SOL    MW4 5800   0.218   4.616   2.637 -0.3501 -0.2046  0.4423
    1SOL     OW 5801   0.003   0.109   2.661  0.1271  0.6915 -0.7742
    1SOL    HW2 5802   0.020   0.131   2.752  0.0024 -0.0439 -0.5731
    1SOL    HW3 5803  -0.002   0.194   2.616  2.0238  1.0192 -0.4293
    1SOL    MW4 5804   0.005   0.123   2.667  0.3608  0.6377 -0.7021
    1SOL     OW 5805   4.447   0.372   2.606 -0.1452  0.4501 -0.5173
    1SOL    HW2 5806   4.516   0.438   2.608 -0.3525  0.6994 -1.7233
    1SOL    HW3 5807   4.432   0.354   2.513  0.0700 -1.4585 -0.2122
    1SOL    MW4 5808   4.454   0.378   2.594 -0.1435  0.2311 -0.6359
    1SOL     OW 5809   0.171   0.525   2.676  0.1679  0.0922  0.2617
    1SOL    HW2 5810   0.156   0.520   2.770 -0.2925  1.0739  0.2490
    1SOL    HW3 5811   0.251   0.474   2.661  0.6126  0.4881  1.2751
    1SOL    MW4 5812   0.180   0.518   2.686  0.1658  0.2739  0.3939
    1SOL     OW 5813   0.184   0.785   2.595  0.4184 -0.0125 -0.3183
    1SOL    HW2 5814   0.265   0.812   2.639  1.7042 -1.9780 -1.3756
    1SOL    HW3 5815   0.168   0.696   2.627 -1.4325  0.4136 -0.0104
    1SOL    MW4 5816   0.193   0.777   2.605  0.3438 -0.2156 -0.4172
    1SOL     OW 5817   4.453   0.903   2.722  0.3182 -0.2294  0.1520
    1SOL    HW2 5818   4.374   0.849   2.712  1.3201 -1.8557  0.8232
    1SOL    HW3 5819   4.519   0.861   2.668  0.6930  1.2270 -0.5406
    1SOL    MW4 5820   4.451   0.890   2.714  0.4997 -0.2518  0.1493
    1SOL     OW 5821   4.453   1.167   2.603  0.1478 -0.6152  0.2511
    1SOL    HW2 5822   4.528   1.209   2.644 -0.2952  0.8006 -0.3306
    1SOL    HW3 5823   4.437   1.089   2.655  1.5659 -0.5422  0.8149
    1SOL    MW4 5824   4.461   1.162   2.615  0.2766 -0.4189  0.2487
    1SOL     OW 5825   0.179   1.272   2.738  0.0798  0.6458 -0.1674
    1SOL    HW2 5826   0.259   1.225   2.717  0.2690  1.4200 -1.2253
    1SOL    HW3 5827   0.191   1.359   2.700 -1.2608  0.7677 -0.3564
    1SOL    MW4 5828   0.191   1.278   2.731 -0.0721  0.7640 -0.3319
    1SOL     OW 5829   0.194   1.535   2.640  0.3589 -0.0438  0.0512
    1SOL    HW2 5830   0.275   1.568   2.679  0.2523  0.7492 -0.4031
    1SOL    HW3 5831   0.124   1.581   2.686  0.1876 -0.2078 -0.0450
    1SOL    MW4 5832   0.195   1.545   2.651  0.3222  0.0390 -0.0212
    1SOL     OW 5833   4.450   1.632   2.743  0.4654  0.0747  0.3646
    1SOL    HW2 5834   4.452   1.640   2.839 -0.2682  0.8844  0.3170
    1SOL    HW3 5835   4.421   1.717   2.713 -0.1521 -0.4555 -0.5491
    1SOL    MW4 5836   4.447   1.644   2.752  0.2871  0.1116  0.2377
    1SOL     OW 5837   4.435   1.897   2.648 -0.1009 -0.1343 -0.2212
    1SOL    HW2 5838   4.520   1.918   2.688 -0.4220  2.1668 -0.6952
    1SOL    HW3 5839   4.450   1.906   2.554 -1.4060  2.4164 -0.2009
    1SOL    MW4 5840   4.448   1.901   2.641 -0.3152  0.5058 -0.2813
    1SOL     OW 5841   0.213   1.998   2.720  0.2301  0.6324  0.2663
    1SOL    HW2 5842   0.284   1.957   2.671  0.8649  1.1290  0.7592
    1SOL    HW3 5843   0.217   2.090   2.696 -0.9132  0.4928 -0.4982
    1SOL    MW4 5844   0.223   2.005   2.710  0.1630  0.6793  0.2306
    1SOL     OW 5845   0.208   2.274   2.636 -0.0580  0.1335  0.1965
    1SOL    HW2 5846   0.291   2.321   2.648 -0.4513  0.7544  0.4775
    1SOL    HW3 5847   0.140   2.340   2.651 -0.6039  0.0683 -1.7945
    1SOL    MW4 5848   0.210   2.289   2.639 -0.1819  0.2069 -0.0291
    1SOL     OW 5849   4.488   2.438   2.723  0.2259  0.4881  0.0030
    1SOL    HW2 5850   4.468   2.439   2.817  0.7765  1.1871  0.1119
    1SOL    HW3 5851   4.416   2.388   2.684  0.7301 -1.0126  0.9618
    1SOL    MW4 5852   4.476   2.431   2.730  0.3650  0.3822  0.1435
    1SOL     OW 5853   0.026   2.706   2.678  0.0634  0.2006  0.3130
    1SOL    HW2 5854  -0.050   2.750   2.717  1.7823  0.9530  2.9315
    1SOL    HW3 5855   0.012   2.613   2.695 -1.9471 -0.0641 -2.3401
    1SOL    MW4 5856   0.014   2.699   2.685  0.0253  0.2651  0.3085
    1SOL     OW 5857   0.259   2.855   2.702 -0.1445  0.2384 -0.0563
    1SOL    HW2 5858   0.245   2.944   2.669 -0.0580  0.9271  1.7296
    1SOL    HW3 5859   0.178   2.808   2.679  0.0404  0.5948 -1.5127
    1SOL    MW4 5860   0.246   2.860   2.695 -0.1087  0.3760 -0.0129
    1SOL     OW 5861   0.204   3.098   2.599  0.1420 -0.2364 -0.3643
    1SOL    HW2 5862   0.284   3.141   2.629  0.5402 -0.4673 -1.0852
    1SOL    HW3 5863   0.208   3.103   2.504 -0.3613 -0.8670 -0.4253
    1SOL    MW4 5864   0.215   3.104   2.591  0.1281 -0.3500 -0.4675
    1SOL     OW 5865   0.006   3.221   2.739 -0.1662 -0.2222 -0.2864
    1SOL    HW2 5866  -0.074   3.169   2.735  0.1236 -0.7138  0.1136
    1SOL    HW3 5867   0.064   3.181   2.674 -0.1806  0.0042 -0.4350
    1SOL    MW4 5868   0.003   3.209   2.730 -0.1302 -0.2570 -0.2532
    1SOL     OW 5869   4.463   3.500   2.685  0.2704  0.0208 -0.3543
    1SOL    HW2 5870   4.549   3.536   2.706 -0.1266  0.0537  1.3686
    1SOL    HW3 5871   4.469   3.408   2.709 -0.3536  0.1678  0.4268
    1SOL    MW4 5872   4.475   3.493   2.691  0.1354  0.0448 -0.0238
    1SOL     OW 5873   0.241   3.582   2.726 -0.1965 -0.4391 -0.0173
    1SOL    HW2 5874   0.247   3.609   2.817 -0.8099 -0.7695  0.1259
    1SOL    HW3 5875   0.324   3.537   2.708  0.3440  0.5057  0.0795
    1SOL    MW4 5876   0.253   3.580   2.735 -0.2061 -0.3581  0.0145
    1SOL     OW 5877   0.191   3.828   2.603 -0.3490  0.2054 -0.0432
    1SOL    HW2 5878   0.201   3.734   2.621  0.1890 -0.1225 -1.8831
    1SOL    HW3 5879   0.191   3.834   2.507 -2.4438  1.8830  0.0264
    1SOL    MW4 5880   0.193   3.816   2.593 -0.5544  0.3834 -0.2768
    1SOL     OW 5881   4.488   3.988   2.734  0.1721  0.2328  0.0120
    1SOL    HW2 5882   4.492   4.067   2.680 -0.1602 -0.1560 -0.5867
    1SOL    HW3 5883   4.558   3.932   2.699  0.5836  0.3659  0.6086
    1SOL    MW4 5884   4.498   3.991   2.722  0.1825  0.1993  0.0117
    1SOL     OW 5885   4.483   4.237   2.616  0.5494  0.0479 -0.1448
    1SOL    HW2 5886   4.404   4.281   2.647 -0.6076 -0.7704 -1.8543
    1SOL    HW3 5887   4.555   4.284   2.659 -0.8497  0.7904  1.4434
    1SOL    MW4 5888   4.482   4.249   2.626  0.2122  0.0381 -0.1607
    1SOL     OW 5889   0.219   4.354   2.709  0.1929  0.3694  0.5437
    1SOL    HW2 5890   0.206   4.361   2.803  0.0747 -0.4499  0.5978
    1SOL    HW3 5891   0.304   4.310   2.700 -0.5533 -1.0620  0.3045
    1SOL    MW4 5892   0.229   4.349   2.720  0.0788  0.0725  0.5193
    1SOL     OW 5893   0.672   4.627   2.643  0.3291 -0.2920 -0.0848
    1SOL    HW2 5894   0.747   4.672   2.682 -0.0175  0.5863 -0.4128
    1SOL    HW3 5895   0.596   4.671   2.681 -0.0536 -1.9398  1.1407
    1SOL    MW4 5896   0.672   4.639   2.653  0.2329 -0.3934  0.0339
    1SOL     OW 5897   0.460   0.090   2.739  0.0167 -0.2973 -0.3776
    1SOL    HW2 5898   0.433   0.102   2.830 -0.1953  2.1284 -0.7087
    1SOL    HW3 5899   0.391   0.035   2.701 -0.0765 -1.0302  0.8222
    1SOL    MW4 5900   0.447   0.084   2.746 -0.0236 -0.0739 -0.2627
    1SOL     OW 5901   0.415   0.366   2.643  0.0100  0.2310 -0.2380
    1SOL    HW2 5902   0.486   0.421   2.677  0.6339  0.2245 -1.4970
    1SOL    HW3 5903   0.422   0.285   2.693  0.4400  0.4940  0.1427
    1SOL    MW4 5904   0.425   0.363   2.654  0.1491  0.2649 -0.3538
    1SOL     OW 5905   0.651   0.514   2.694  0.0798  0.2693 -0.0025
    1SOL    HW2 5906   0.649   0.537   2.787  1.0237  0.0667  0.0722
    1SOL    HW3 5907   0.732   0.464   2.684 -1.1273 -1.6328 -0.4883
    1SOL    MW4 5908   0.661   0.510   2.705  0.0451 -0.0084 -0.0567
    1SOL     OW 5909   0.667   0.771   2.632  0.4919 -0.0497  0.0431
    1SOL    HW2 5910   0.756   0.794   2.659  0.1212  0.1402  1.1453
    1SOL    HW3 5911   0.664   0.675   2.634  0.7238 -0.0617 -0.1873
    1SOL    MW4 5912   0.678   0.761   2.636  0.4735 -0.0263  0.1581
    1SOL     OW 5913   0.417   0.872   2.720 -0.0325 -0.2164 -0.4096
    1SOL    HW2 5914   0.416   0.859   2.815 -1.1089  0.7229 -0.2809
    1SOL    HW3 5915   0.499   0.831   2.691  0.7606  0.3057  1.0365
    1SOL    MW4 5916   0.428   0.865   2.729 -0.0699 -0.0236 -0.2019
    1SOL     OW 5917   0.403   1.148   2.645 -0.1743 -0.2343  0.2081
    1SOL    HW2 5918   0.485   1.188   2.674  0.3938 -0.0399 -1.5599
    1SOL    HW3 5919   0.411   1.056   2.672  0.2276 -0.0099  0.8534
    1SOL    MW4 5920   0.415   1.141   2.652 -0.0463 -0.1791  0.0603
    1SOL     OW 5921   0.656   1.240   2.721  0.0144 -0.6370  0.0804
    1SOL    HW2 5922   0.649   1.236   2.817  0.5855  1.1137  0.2116
    1SOL    HW3 5923   0.734   1.187   2.701  0.2511 -0.5037  0.6274
    1SOL    MW4 5924   0.666   1.232   2.731  0.1209 -0.3884  0.1702
    1SOL     OW 5925   0.670   1.502   2.633  0.5131 -0.5152  0.2833
    1SOL    HW2 5926   0.589   1.533   2.674 -1.3182 -1.2039 -2.7037
    1SOL    HW3 5927   0.668   1.407   2.644  1.6578 -0.4345  1.4142
    1SOL    MW4 5928   0.659   1.494   2.640  0.4224 -0.5955  0.0386
    1SOL     OW 5929   0.432   1.636   2.745 -0.1119 -0.1660 -0.0626
    1SOL    HW2 5930   0.425   1.640   2.840  1.4973 -0.9970  0.1142
    1SOL    HW3 5931   0.448   1.726   2.717  0.1560 -0.0285  0.5342
    1SOL    MW4 5932   0.433   1.648   2.754  0.1357 -0.2576  0.0398
    1SOL     OW 5933   0.469   1.889   2.638 -0.6644 -0.3931  0.4028
    1SOL    HW2 5934   0.542   1.937   2.677 -1.5360  1.1519  0.1827
    1SOL    HW3 5935   0.470   1.915   2.545 -1.6241 -0.1695  0.4490
    1SOL    MW4 5936   0.478   1.899   2.631 -0.9060 -0.1596  0.3798
    1SOL     OW 5937   0.685   2.029   2.730  0.0468  0.0601 -0.4826
    1SOL    HW2 5938   0.687   2.022   2.826 -0.9413 -0.0941 -0.4644
    1SOL    HW3 5939   0.762   1.981   2.700  0.4479  0.2463  0.2461
    1SOL    MW4 5940   0.695   2.022   2.739 -0.0307  0.0644 -0.3841
    1SOL     OW 5941   0.670   2.277   2.594 -0.1110  0.1173  0.6571
    1SOL    HW2 5942   0.739   2.329   2.633  1.4148 -1.4029  0.0360
    1SOL    HW3 5943   0.673   2.194   2.641  0.7780 -1.2020 -1.6795
    1SOL    MW4 5944   0.679   2.273   2.606  0.2077 -0.2573  0.2670
    1SOL     OW 5945   0.432   2.406   2.674 -0.4479  0.2114  0.2160
    1SOL    HW2 5946   0.458   2.497   2.661  0.0854  0.0298 -0.0211
    1SOL    HW3 5947   0.507   2.355   2.644 -1.2241 -0.3340 -0.8443
    1SOL    MW4 5948   0.445   2.411   2.668 -0.4799  0.1154  0.0448
    1SOL     OW 5949   0.479   2.673   2.645 -0.5433  0.4811 -0.0552
    1SOL    HW2 5950   0.551   2.713   2.693 -0.6579 -1.6452  1.9585
    1SOL    HW3 5951   0.403   2.728   2.667 -0.1495  0.8821  0.3203
    1SOL    MW4 5952   0.478   2.686   2.654 -0.5065  0.2534  0.2604
    1SOL     OW 5953   0.696   2.805   2.787  0.4222 -0.2077  0.4896
    1SOL    HW2 5954   0.680   2.801   2.882  2.3414 -1.6329  0.7856
    1SOL    HW3 5955   0.684   2.898   2.765 -0.9002 -0.0042  1.9594
    1SOL    MW4 5956   0.692   2.817   2.797  0.5009 -0.3686  0.7226
    1SOL     OW 5957   0.675   3.082   2.650 -0.5520 -0.0872  0.4440
    1SOL    HW2 5958   0.759   3.118   2.678 -0.5844 -0.3575  0.8809
    1SOL    HW3 5959   0.677   3.088   2.554 -0.8971  1.8758  0.5351
    1SOL    MW4 5960   0.686   3.088   2.641 -0.6018  0.1359  0.5138
    1SOL     OW 5961   0.431   3.196   2.724 -0.3494 -0.3529 -0.5998
    1SOL    HW2 5962   0.405   3.189   2.816  0.1833  1.2456 -0.3099
    1SOL    HW3 5963   0.514   3.149   2.718 -0.3948 -0.4735 -0.2736
    1SOL    MW4 5964   0.438   3.189   2.735 -0.2851 -0.1578 -0.5183
    1SOL     OW 5965   0.474   3.455   2.647 -0.5455  0.3291 -0.2113
    1SOL    HW2 5966   0.455   3.367   2.681  0.3963  0.1409 -0.1810
    1SOL    HW3 5967   0.462   3.447   2.552 -0.4095  0.1624 -0.2134
    1SOL    MW4 5968   0.470   3.442   2.639 -0.4033  0.2823 -0.2077
    1SOL     OW 5969   0.680   3.615   2.740 -0.0974 -0.1069 -0.4376
    1SOL    HW2 5970   0.689   3.627   2.834 -0.9007  1.4931 -0.5469
    1SOL    HW3 5971   0.605   3.556   2.730  0.0584 -0.3671 -0.0760
    1SOL    MW4 5972   0.672   3.609   2.751 -0.1828  0.0699 -0.4044
    1SOL     OW 5973   0.657   3.896   2.660 -0.2495 -0.6937  0.7513
    1SOL    HW2 5974   0.576   3.933   2.696  0.1661 -0.6491  1.6523
    1SOL    HW3 5975   0.654   3.804   2.684  0.9339 -0.2780  2.5941
    1SOL    MW4 5976   0.646   3.889   2.668 -0.0385 -0.6330  1.1129
    1SOL     OW 5977   0.399   3.961   2.757 -0.3682  0.1053 -0.2243
    1SOL    HW2 5978   0.405   4.052   2.728 -0.4834 -0.1298 -0.9985
    1SOL    HW3 5979   0.336   3.920   2.697 -0.7163 -0.3580  0.4425
    1SOL    MW4 5980   0.391   3.967   2.745 -0.4294  0.0131 -0.2387
    1SOL     OW 5981   0.469   4.232   2.664 -0.7607  0.0527  0.1706
    1SOL    HW2 5982   0.535   4.287   2.705 -0.5342 -0.5670  0.6434
    1SOL    HW3 5983   0.475   4.253   2.571  0.8848 -0.8032  0.0663
    1SOL    MW4 5984   0.479   4.242   2.657 -0.5137 -0.1416  0.2191
    1SOL     OW 5985   0.676   4.388   2.774 -0.3626  0.2560  0.1549
    1SOL    HW2 5986   0.757   4.349   2.742  0.3081  0.9046  1.0295
    1SOL    HW3 5987   0.667   4.468   2.723  0.4987  1.0885  1.2756
    1SOL    MW4 5988   0.686   4.393   2.763 -0.1605  0.4516  0.4182
    1SOL     OW 5989   1.112   4.644   2.627  0.1351 -0.0948  0.1673
    1SOL    HW2 5990   1.193   4.686   2.656  1.4950 -0.4458 -2.9849
    1SOL    HW3 5991   1.118   4.555   2.661  1.2395 -0.2313 -0.3815
    1SOL    MW4 5992   1.123   4.638   2.635  0.4604 -0.1597 -0.3211
    1SOL     OW 5993   0.881   0.098   2.737  0.3821  0.6698  0.4269
    1SOL    HW2 5994   0.893   0.102   2.832 -1.3317 -1.9385  0.8057
    1SOL    HW3 5995   0.954   0.043   2.707 -0.2933 -0.2992  0.5274
    1SOL    MW4 5996   0.892   0.091   2.746  0.0669  0.1978  0.4900
    1SOL     OW 5997   0.878   0.360   2.653  0.0802 -0.0111 -0.0050
    1SOL    HW2 5998   0.869   0.266   2.668  1.5654 -0.0509  0.7258
    1SOL    HW3 5999   0.870   0.370   2.558  0.8076 -0.9871 -0.1829
    1SOL    MW4 6000   0.876   0.349   2.642  0.3722 -0.1451  0.0679
    1SOL     OW 6001   1.102   0.435   2.762 -0.2823  0.2944  0.2141
    1SOL    HW2 6002   1.103   0.524   2.725  2.3909  0.5072  0.7223
    1SOL    HW3 6003   1.014   0.403   2.743 -0.5562  2.2042 -2.0035
    1SOL    MW4 6004   1.090   0.443   2.754  0.0345  0.5745 -0.0112
    1SOL     OW 6005   1.113   0.695   2.670 -0.1497 -0.3694  0.1186
    1SOL    HW2 6006   1.194   0.739   2.692 -1.1567  1.9090 -0.5765
    1SOL    HW3 6007   1.115   0.687   2.574  0.0686 -1.9447  0.2416
    1SOL    MW4 6008   1.124   0.700   2.660 -0.2539 -0.2766  0.0434
    1SOL     OW 6009   0.906   0.858   2.721 -0.4427 -0.0071 -0.0349
    1SOL    HW2 6010   0.898   0.860   2.817 -1.3318  1.2317 -0.1288
    1SOL    HW3 6011   0.985   0.807   2.705  0.2618  0.6161  1.3823
    1SOL    MW4 6012   0.915   0.851   2.732 -0.4671  0.2385  0.1397
    1SOL     OW 6013   0.875   1.116   2.648  0.3963 -0.4854 -0.3752
    1SOL    HW2 6014   0.877   1.022   2.665 -2.7964 -0.7001 -0.9644
    1SOL    HW3 6015   0.875   1.123   2.552 -0.1649  0.0952 -0.3336
    1SOL    MW4 6016   0.875   1.105   2.637 -0.0989 -0.4370 -0.4473
    1SOL     OW 6017   1.099   1.284   2.707  0.0211 -0.6510  0.4512
    1SOL    HW2 6018   1.098   1.369   2.663 -0.0727  0.2218  2.0950
    1SOL    HW3 6019   1.019   1.240   2.677  0.6469 -0.6610 -1.3034
    1SOL    MW4 6020   1.088   1.289   2.697  0.0913 -0.5372  0.4363
    1SOL     OW 6021   1.130   1.535   2.595 -0.1249 -0.8703  0.4077
    1SOL    HW2 6022   1.053   1.582   2.627  0.3297 -0.1812  0.4864
    1SOL    HW3 6023   1.135   1.558   2.502  1.8798  1.7265  1.1044
    1SOL    MW4 6024   1.121   1.544   2.587  0.1997 -0.4367  0.5100
    1SOL     OW 6025   0.896   1.636   2.708  0.0874  0.0513  0.1784
    1SOL    HW2 6026   0.878   1.643   2.802  0.3819  1.2706  0.1434
    1SOL    HW3 6027   0.815   1.602   2.671 -0.2713  0.2439  0.7732
    1SOL    MW4 6028   0.883   1.632   2.716  0.0789  0.2377  0.2522
    1SOL     OW 6029   0.902   1.894   2.625 -0.0006 -0.2142  0.7816
    1SOL    HW2 6030   0.977   1.938   2.666 -0.2670 -0.4476  1.5289
    1SOL    HW3 6031   0.908   1.803   2.655  0.7002 -0.7737 -0.9700
    1SOL    MW4 6032   0.913   1.888   2.634  0.0567 -0.3189  0.6495
    1SOL     OW 6033   1.097   2.027   2.758  0.3510  0.0692 -0.2466
    1SOL    HW2 6034   1.176   1.980   2.731  0.9512  1.1672 -0.4263
    1SOL    HW3 6035   1.106   2.114   2.720 -0.6256  0.4197  0.2922
    1SOL    MW4 6036   1.109   2.032   2.750  0.3014  0.2604 -0.1988
    1SOL     OW 6037   1.124   2.278   2.637 -0.0590 -0.4760  0.1898
    1SOL    HW2 6038   1.198   2.331   2.665  0.6455 -1.9623  1.2106
    1SOL    HW3 6039   1.120   2.290   2.542  1.1614  0.0325  0.1989
    1SOL    MW4 6040   1.133   2.286   2.628  0.1948 -0.6053  0.3259
    1SOL     OW 6041   0.883   2.393   2.746 -0.4442 -0.0860 -0.5677
    1SOL    HW2 6042   0.897   2.482   2.713 -0.7242  0.8662  1.8253
    1SOL    HW3 6043   0.964   2.346   2.724  0.9506  1.6009  0.8780
    1SOL    MW4 6044   0.895   2.398   2.739 -0.2971  0.2623 -0.0613
    1SOL     OW 6045   0.885   2.663   2.678  0.1213  0.5180  0.4438
    1SOL    HW2 6046   0.969   2.708   2.687  0.2815  0.1643  0.7104
    1SOL    HW3 6047   0.823   2.722   2.721  0.1642  0.9712 -0.1031
    1SOL    MW4 6048   0.888   2.677   2.685  0.1482  0.5312  0.4065
    1SOL     OW 6049   1.083   2.832   2.697  0.0000  0.0000  0.1071
    1SOL    HW2 6050   1.106   2.825   2.789  0.0000  0.0000  0.1069
    1SOL    HW3 6051   1.159   2.795   2.651  0.0000  0.0000  0.1062
    1SOL    MW4 6052   1.096   2.826   2.703  0.0000  0.0000  0.1070
    1SOL     OW 6053   1.148   3.096   2.616  0.0000  0.0000  0.2014
    1SOL    HW2 6054   1.122   3.007   2.639  0.0000  0.0000  0.1968
    1SOL    HW3 6055   1.136   3.101   2.522  0.0000  0.0000  0.2016
    1SOL    MW4 6056   1.143   3.085   2.607  0.0000  0.0000  0.2007
    1SOL     OW 6057   0.919   3.208   2.748  0.0000  0.0000  0.8760
    1SOL    HW2 6058   0.903   3.287   2.696  0.0000  0.0000  0.8573
    1SOL    HW3 6059   1.006   3.179   2.720  0.0000  0.0000  0.8914
    1SOL    MW4 6060   0.928   3.215   2.738  0.0000  0.0000  0.8757
    1SOL     OW 6061   0.887   3.462   2.625  0.0000  0.0000 -0.2278
    1SOL    HW2 6062   0.961   3.508   2.665  0.0000  0.0000 -0.2134
    1SOL    HW3 6063   0.810   3.511   2.654  0.0000  0.0000 -0.2499
    1SOL    MW4 6064   0.887   3.475   2.634  0.0000  0.0000 -0.2289
    1SOL     OW 6065   1.102   3.599   2.736  0.0000  0.0000  0.1053
    1SOL    HW2 6066   1.101   3.626   2.828  0.0000  0.0000  0.1055
    1SOL    HW3 6067   1.100   3.681   2.687  0.0000  0.0000  0.1065
    1SOL    MW4 6068   1.102   3.613   2.742  0.0000  0.0000  0.1054
    1SOL     OW 6069   1.098   3.851   2.608  0.0000  0.0000  0.2571
    1SOL    HW2 6070   1.178   3.889   2.645  0.0000  0.0000  0.2548
    1SOL    HW3 6071   1.110   3.859   2.513  0.0000  0.0000  0.2569
    1SOL    MW4 6072   1.110   3.857   2.600  0.0000  0.0000  0.2568
    1SOL     OW 6073   0.893   4.008   2.762  0.0000  0.0000 -0.3102
    1SOL    HW2 6074   0.957   3.963   2.707  0.0000  0.0000 -0.3123
    1SOL    HW3 6075   0.809   3.969   2.736  0.0000  0.0000 -0.3078
    1SOL    MW4 6076   0.890   3.997   2.751  0.0000  0.0000 -0.3104
    1SOL     OW 6077   0.888   4.266   2.651  0.0000  0.0000 -0.0151
    1SOL    HW2 6078   0.892   4.173   2.675  0.0000  0.0000 -0.0148
    1SOL    HW3 6079   0.884   4.265   2.555  0.0000  0.0000 -0.0151
    1SOL    MW4 6080   0.888   4.254   2.641  0.0000  0.0000 -0.0150
    1SOL     OW 6081   1.144   4.351   2.730  0.0000  0.0000  0.1502
    1SOL    HW2 6082   1.137   4.378   2.822  0.0000  0.0000  0.1503
    1SOL    HW3 6083   1.055   4.327   2.705  0.0000  0.0000  0.1494
    1SOL    MW4 6084   1.131   4.351   2.739  0.0000  0.0000  0.1502
    1SOL     OW 6085   1.583   4.649   2.604 -0.3645  0.2813  0.0128
    1SOL    HW2 6086   1.579   4.557   2.630 -1.2784  0.3628  0.1791
    1SOL    HW3 6087   1.595   4.647   2.509  0.6105 -0.0088  0.1341
    1SOL    MW4 6088   1.584   4.637   2.595 -0.3563  0.2532  0.0508
    1SOL     OW 6089   1.353   0.081   2.725  0.0655  0.0561 -0.0301
    1SOL    HW2 6090   1.357   0.170   2.689 -1.9619 -0.4676 -1.6747
    1SOL    HW3 6091   1.431   0.038   2.690  0.8617  1.0677  0.4712
    1SOL    MW4 6092   1.364   0.087   2.715 -0.0969  0.1205 -0.1810
    1SOL     OW 6093   1.342   0.348   2.634  0.0697  0.4306  0.2487
    1SOL    HW2 6094   1.408   0.407   2.671  0.1360  0.6619 -0.2300
    1SOL    HW3 6095   1.259   0.383   2.665  0.2795 -1.1720  2.7040
    1SOL    MW4 6096   1.340   0.360   2.643  0.1061  0.2497  0.5095
    1SOL     OW 6097   1.562   0.495   2.708  0.1350  0.3104  0.2520
    1SOL    HW2 6098   1.641   0.452   2.677 -0.2657 -0.4337  0.2407
    1SOL    HW3 6099   1.565   0.583   2.670  0.7734  0.1624 -0.0392
    1SOL    MW4 6100   1.573   0.501   2.699  0.1664  0.1927  0.2120
    1SOL     OW 6101   1.563   0.751   2.620  0.1274 -0.3696  0.0703
    1SOL    HW2 6102   1.473   0.777   2.638  0.4659 -0.0075  1.2761
    1SOL    HW3 6103   1.566   0.740   2.525 -1.2779 -0.7430  0.0649
    1SOL    MW4 6104   1.552   0.753   2.610 -0.0135 -0.3712  0.2289
    1SOL     OW 6105   1.326   0.865   2.697 -0.0719  0.4917 -0.5127
    1SOL    HW2 6106   1.348   0.853   2.789 -0.3194  1.1646 -0.3640
    1SOL    HW3 6107   1.327   0.960   2.683  0.0234  0.3951 -1.2156
    1SOL    MW4 6108   1.329   0.876   2.707 -0.0919  0.5677 -0.5858
    1SOL     OW 6109   1.341   1.136   2.621  0.1398  0.3419  0.2115
    1SOL    HW2 6110   1.423   1.164   2.661  0.2741 -0.6617  0.6607
    1SOL    HW3 6111   1.274   1.191   2.662  0.6167  1.4028 -0.4096
    1SOL    MW4 6112   1.343   1.147   2.631  0.2204  0.3495  0.1888
    1SOL     OW 6113   1.586   1.220   2.722  0.4036  0.1464  0.1381
    1SOL    HW2 6114   1.584   1.214   2.818  0.0845 -2.7009 -0.0001
    1SOL    HW3 6115   1.664   1.171   2.697 -0.8335 -1.1970 -1.1595
    1SOL    MW4 6116   1.596   1.212   2.732  0.1981 -0.4065 -0.0513
    1SOL     OW 6117   1.568   1.502   2.654 -0.1788  0.1903  0.4074
    1SOL    HW2 6118   1.580   1.409   2.673  0.9816  0.1641 -0.4202
    1SOL    HW3 6119   1.555   1.506   2.559  0.5244  0.9414  0.3319
    1SOL    MW4 6120   1.568   1.490   2.644  0.0671  0.2859  0.2882
    1SOL     OW 6121   1.337   1.630   2.750 -0.0116 -0.2964 -0.4571
    1SOL    HW2 6122   1.407   1.572   2.720 -0.3578 -0.2579 -1.3585
    1SOL    HW3 6123   1.257   1.592   2.713 -0.4672 -0.3114  0.5198
    1SOL    MW4 6124   1.336   1.618   2.741 -0.1174 -0.2933 -0.4473
    1SOL     OW 6125   1.304   1.874   2.658  0.0319  0.7997 -0.1832
    1SOL    HW2 6126   1.305   1.786   2.696  0.0722  0.8200 -0.1365
    1SOL    HW3 6127   1.299   1.859   2.564  1.7222  0.7090 -0.2816
    1SOL    MW4 6128   1.304   1.860   2.651  0.2602  0.7905 -0.1898
    1SOL     OW 6129   1.522   2.032   2.725 -0.5383  0.3539  0.3167
    1SOL    HW2 6130   1.599   2.007   2.674 -0.7072  0.0330  0.2168
    1SOL    HW3 6131   1.451   1.980   2.687 -0.9640  1.2353 -0.1212
    1SOL    MW4 6132   1.523   2.022   2.713 -0.6168  0.4277  0.2460
    1SOL     OW 6133   1.505   2.307   2.655 -0.2639  0.0810 -0.3499
    1SOL    HW2 6134   1.589   2.337   2.690 -0.9580  1.6427  0.0443
    1SOL    HW3 6135   1.499   2.215   2.681  1.9433 -0.4504 -1.6067
    1SOL    MW4 6136   1.515   2.299   2.663 -0.0643  0.2170 -0.4635
    1SOL     OW 6137   1.304   2.458   2.745  0.0899  0.0614 -0.4665
    1SOL    HW2 6138   1.306   2.537   2.690 -1.1898 -0.7493 -1.6938
    1SOL    HW3 6139   1.375   2.404   2.711  1.7578  1.1568  1.1507
    1SOL    MW4 6140   1.314   2.462   2.733  0.1410  0.0987 -0.4148
    1SOL     OW 6141   1.304   2.686   2.606 -0.1897 -0.1099  0.4666
    1SOL    HW2 6142   1.381   2.719   2.653 -0.7543  0.6545  0.8819
    1SOL    HW3 6143   1.333   2.675   2.516 -0.2347  2.5422  0.0762
    1SOL    MW4 6144   1.318   2.689   2.600 -0.2701  0.3407  0.4699
    1SOL     OW 6145   1.545   2.798   2.709 -0.0940 -0.1363  0.2998
    1SOL    HW2 6146   1.564   2.804   2.802 -0.4771 -1.1374  0.4471
    1SOL    HW3 6147   1.622   2.756   2.670 -0.4514 -0.8526  0.3552
    1SOL    MW4 6148   1.557   2.793   2.716 -0.1917 -0.3629  0.3266
    1SOL     OW 6149   1.589   3.072   2.653 -0.1218 -0.2059  0.1472
    1SOL    HW2 6150   1.660   3.117   2.698 -0.2048 -0.1896  0.2604
    1SOL    HW3 6151   1.597   2.980   2.680  0.3345 -0.3442 -0.4495
    1SOL    MW4 6152   1.599   3.066   2.662 -0.0726 -0.2217  0.0834
    1SOL     OW 6153   1.370   3.235   2.720 -0.0682 -0.5059 -0.0152
    1SOL    HW2 6154   1.442   3.181   2.688 -0.4518 -0.0855 -1.6319
    1SOL    HW3 6155   1.294   3.206   2.670 -0.6919  0.1257  0.5530
    1SOL    MW4 6156   1.370   3.224   2.709 -0.2010 -0.3672 -0.1538
    1SOL     OW 6157   1.343   3.501   2.623 -0.1028 -0.0763 -0.0032
    1SOL    HW2 6158   1.360   3.412   2.655  0.9459  0.7575  1.8745
    1SOL    HW3 6159   1.264   3.529   2.671  0.2585  0.4323  0.2984
    1SOL    MW4 6160   1.334   3.493   2.634  0.0832  0.1006  0.2844
    1SOL     OW 6161   1.570   3.638   2.734  0.1743 -0.0518 -0.0896
    1SOL    HW2 6162   1.643   3.584   2.703 -0.1888 -0.1726 -0.7429
    1SOL    HW3 6163   1.492   3.593   2.701 -0.1842  0.2204  0.3835
    1SOL    MW4 6164   1.569   3.625   2.726  0.0792 -0.0317 -0.1135
    1SOL     OW 6165   1.587   3.893   2.620 -0.2638  0.0494  0.0347
    1SOL    HW2 6166   1.498   3.920   2.644 -0.5695 -0.6392 -0.3274
    1SOL    HW3 6167   1.596   3.805   2.656  0.3358  0.1905  0.2256
    1SOL    MW4 6168   1.576   3.885   2.628 -0.2251 -0.0229  0.0122
    1SOL     OW 6169   1.329   3.973   2.698  0.3962  0.4463  0.0778
    1SOL    HW2 6170   1.336   3.973   2.794  0.7804 -0.2360  0.0542
    1SOL    HW3 6171   1.348   4.063   2.672 -0.2987  0.7725  0.6872
    1SOL    MW4 6172   1.332   3.985   2.708  0.3552  0.3991  0.1550
    1SOL     OW 6173   1.363   4.227   2.625 -0.2380 -0.0182 -0.0675
    1SOL    HW2 6174   1.298   4.278   2.672  0.0076 -0.3003  0.5835
    1SOL    HW3 6175   1.343   4.241   2.533 -1.5810 -0.5825  0.1363
    1SOL    MW4 6176   1.352   4.236   2.619 -0.3829 -0.1297  0.0453
    1SOL     OW 6177   1.573   4.389   2.687  0.0032 -0.4070  0.4566
    1SOL    HW2 6178   1.573   4.406   2.782 -1.8556  0.7168  0.2836
    1SOL    HW3 6179   1.505   4.323   2.674  0.8215 -1.1667 -0.0083
    1SOL    MW4 6180   1.564   4.383   2.698 -0.1342 -0.3591  0.3724
    1SOL     OW 6181   2.034   4.667   2.615 -0.1280  0.1065 -0.5617
    1SOL    HW2 6182   2.119   4.705   2.637  0.5709 -1.1775 -0.9828
    1SOL    HW3 6183   2.038   4.652   2.521 -0.7388 -0.1602 -0.5491
    1SOL    MW4 6184   2.046   4.670   2.606 -0.1163 -0.0982 -0.6156
    1SOL     OW 6185   1.779   0.115   2.737 -0.2010  0.0687 -0.0369
    1SOL    HW2 6186   1.858   0.084   2.693 -0.0543  1.8058 -1.0349
    1SOL    HW3 6187   1.709   0.063   2.699  0.2038 -0.0420 -0.6388
    1SOL    MW4 6188   1.780   0.104   2.726 -0.1281  0.2833 -0.2482
    1SOL     OW 6189   1.777   0.352   2.615  0.2682 -0.2380 -0.0899
    1SOL    HW2 6190   1.834   0.396   2.678  0.3443  0.2930 -0.5273
    1SOL    HW3 6191   1.774   0.261   2.645  0.0405  0.0785  0.8772
    1SOL    MW4 6192   1.784   0.346   2.627  0.2481 -0.1262 -0.0200
    1SOL     OW 6193   1.969   0.487   2.755 -0.0820  0.2672 -0.0756
    1SOL    HW2 6194   2.046   0.437   2.727 -0.6041 -1.0410  0.7403
    1SOL    HW3 6195   1.974   0.487   2.851 -0.6091  0.9440 -0.0462
    1SOL    MW4 6196   1.980   0.480   2.764 -0.2204  0.1839  0.0360
    1SOL     OW 6197   2.020   0.737   2.655  0.0602 -0.5426  0.1344
    1SOL    HW2 6198   2.003   0.648   2.685 -0.5194 -0.0016  1.4912
    1SOL    HW3 6199   1.946   0.788   2.689  0.6059  0.5301 -0.2554
    1SOL    MW4 6200   2.008   0.732   2.664  0.0558 -0.3297  0.2620
    1SOL     OW 6201   1.811   0.886   2.761 -0.4070 -0.3261 -0.7931
    1SOL    HW2 6202   1.811   0.977   2.730 -1.8149  0.0571  0.2286
    1SOL    HW3 6203   1.736   0.846   2.717 -0.6175 -0.6070 -0.1796
    1SOL    MW4 6204   1.801   0.893   2.751 -0.6205 -0.3126 -0.5772
    1SOL     OW 6205   1.835   1.130   2.628 -0.3303  0.6056  0.4026
    1SOL    HW2 6206   1.896   1.199   2.652 -0.8708  0.7416  1.4081
    1SOL    HW3 6207   1.823   1.140   2.534  1.8966 -0.0114  0.0331
    1SOL    MW4 6208   1.841   1.140   2.619 -0.1076  0.5423  0.4866
    1SOL     OW 6209   2.011   1.304   2.737 -0.1354  0.0285  0.0236
    1SOL    HW2 6210   2.015   1.300   2.833  0.2393  1.2628  0.0661
    1SOL    HW3 6211   2.090   1.259   2.708  0.9165  1.6146  0.3511
    1SOL    MW4 6212   2.022   1.297   2.746  0.0527  0.4005  0.0725
    1SOL     OW 6213   2.013   1.573   2.656  0.1446  0.2059  0.1308
    1SOL    HW2 6214   1.934   1.618   2.686  0.5599  0.5857  0.6563
    1SOL    HW3 6215   2.002   1.483   2.688 -0.4754  0.0416 -0.5378
    1SOL    MW4 6216   2.001   1.567   2.664  0.1178  0.2344  0.1118
    1SOL     OW 6217   1.745   1.708   2.722 -0.3775 -0.1739  0.7659
    1SOL    HW2 6218   1.779   1.696   2.811 -1.0250 -0.4929  0.9719
    1SOL    HW3 6219   1.676   1.642   2.714 -0.9930  0.5227  0.3682
    1SOL    MW4 6220   1.741   1.697   2.733 -0.5441 -0.1240  0.7405
    1SOL     OW 6221   1.769   1.959   2.607  0.4654  0.3463  0.2205
    1SOL    HW2 6222   1.847   1.992   2.653  1.4789 -2.3382  0.4812
    1SOL    HW3 6223   1.747   1.878   2.652 -1.3372  0.0658 -1.1204
    1SOL    MW4 6224   1.777   1.953   2.619  0.3613 -0.0449  0.0777
    1SOL     OW 6225   2.001   2.045   2.722  0.1575 -0.4756 -0.1113
    1SOL    HW2 6226   1.991   2.063   2.816  1.8697 -2.9446  0.5788
    1SOL    HW3 6227   2.006   2.132   2.682  0.4134  0.6193  2.1952
    1SOL    MW4 6228   2.000   2.059   2.729  0.4170 -0.6568  0.2842
    1SOL     OW 6229   2.020   2.324   2.643 -0.1364 -0.2098 -0.5189
    1SOL    HW2 6230   2.092   2.375   2.680 -0.9441  0.8417 -0.3583
    1SOL    HW3 6231   2.044   2.312   2.551  0.0846  0.4167 -0.5470
    1SOL    MW4 6232   2.033   2.329   2.636 -0.2139  0.0114 -0.5016
    1SOL     OW 6233   1.769   2.441   2.713  0.5183 -0.5196 -0.3157
    1SOL    HW2 6234   1.780   2.457   2.807 -0.9555 -1.2097 -0.0038
    1SOL    HW3 6235   1.846   2.390   2.688 -0.0125 -1.9874  0.9452
    1SOL    MW4 6236   1.781   2.437   2.722  0.2539 -0.8044 -0.1080
    1SOL     OW 6237   1.790   2.701   2.635  0.2982 -0.2079  0.0714
    1SOL    HW2 6238   1.799   2.611   2.667 -0.3080 -0.5566 -0.7071
    1SOL    HW3 6239   1.795   2.693   2.540 -1.8883  0.2958 -0.1257
    1SOL    MW4 6240   1.792   2.688   2.627 -0.0702 -0.1874 -0.0572
    1SOL     OW 6241   2.006   2.827   2.733  0.3946 -0.5799 -0.1146
    1SOL    HW2 6242   2.088   2.798   2.692 -0.2749 -0.6137 -1.4375
    1SOL    HW3 6243   1.940   2.767   2.700 -0.1408 -0.6913  1.1331
    1SOL    MW4 6244   2.008   2.815   2.724  0.2356 -0.5991 -0.1245
    1SOL     OW 6245   1.999   3.087   2.679  0.0092  0.1022 -0.2578
    1SOL    HW2 6246   2.014   2.994   2.697 -1.6128 -0.5648 -2.1772
    1SOL    HW3 6247   2.004   3.094   2.584  2.6160  2.4655 -0.0218
    1SOL    MW4 6248   2.002   3.076   2.669  0.1392  0.3259 -0.4799
    1SOL     OW 6249   1.801   3.238   2.757 -0.2745 -0.1780  0.1758
    1SOL    HW2 6250   1.812   3.315   2.701 -0.1838  1.0233  1.8064
    1SOL    HW3 6251   1.866   3.176   2.726 -1.0302  0.0022 -1.8197
    1SOL    MW4 6252   1.811   3.240   2.746 -0.3623  0.0045  0.1278
    1SOL     OW 6253   1.790   3.489   2.624  0.0273  0.4846 -0.0180
    1SOL    HW2 6254   1.869   3.542   2.635  0.9316 -0.4179 -1.9371
    1SOL    HW3 6255   1.776   3.487   2.529 -0.9390 -1.3359  0.1463
    1SOL    MW4 6256   1.799   3.496   2.613  0.0191  0.1254 -0.2496
    1SOL     OW 6257   2.010   3.622   2.743  0.4367  0.3282 -0.2487
    1SOL    HW2 6258   2.019   3.610   2.837 -0.7708 -0.4911 -0.2306
    1SOL    HW3 6259   2.079   3.567   2.705  1.1479  0.9307  0.1591
    1SOL    MW4 6260   2.020   3.614   2.750  0.3710  0.2995 -0.1924
    1SOL     OW 6261   2.002   3.892   2.647  0.1547  0.4822  0.2280
    1SOL    HW2 6262   1.929   3.940   2.687 -0.6416  0.1012 -0.7595
    1SOL    HW3 6263   1.995   3.804   2.683  0.1269  0.4402  0.1174
    1SOL    MW4 6264   1.991   3.887   2.657  0.0460  0.4263  0.0832
    1SOL     OW 6265   1.784   4.032   2.779  0.3231 -0.0451 -0.2478
    1SOL    HW2 6266   1.803   4.109   2.724 -1.6054  1.1355  0.7097
    1SOL    HW3 6267   1.712   3.988   2.734  1.2944 -1.2253 -0.6870
    1SOL    MW4 6268   1.777   4.036   2.766  0.1968 -0.0453 -0.1795
    1SOL     OW 6269   1.833   4.260   2.626 -0.1724  0.3223  0.0128
    1SOL    HW2 6270   1.745   4.294   2.645 -0.8513 -1.2254 -0.2842
    1SOL    HW3 6271   1.833   4.247   2.531  0.5305  0.6887 -0.0413
    1SOL    MW4 6272   1.821   4.263   2.616 -0.1692  0.1664 -0.0334
    1SOL     OW 6273   2.002   4.437   2.766 -0.0709 -0.3390 -0.5578
    1SOL    HW2 6274   1.938   4.389   2.714  1.9063 -1.1739 -2.3395
    1SOL    HW3 6275   2.019   4.517   2.716 -0.4362  0.3384  0.3894
    1SOL    MW4 6276   1.996   4.441   2.752  0.1420 -0.3600 -0.6678
    1SOL     OW 6277   2.497   4.631   2.643 -0.8320 -0.0569  0.4785
    1SOL    HW2 6278   2.576   4.670   2.680 -0.9325 -0.6552  1.3435
    1SOL    HW3 6279   2.512   4.630   2.549  0.1596 -0.0856  0.6352
    1SOL    MW4 6280   2.509   4.636   2.636 -0.7145 -0.1397  0.6132
    1SOL     OW 6281   2.277   0.111   2.719 -0.0386 -0.3883  0.1794
    1SOL    HW2 6282   2.355   0.063   2.692 -0.6017 -0.7184 -0.8981
    1SOL    HW3 6283   2.265   0.087   2.811  0.4646 -1.2437  0.0311
    1SOL    MW4 6284   2.286   0.102   2.727 -0.0463 -0.5447  0.0176
    1SOL     OW 6285   2.206   0.374   2.656  0.0071  0.6045  0.0830
    1SOL    HW2 6286   2.212   0.368   2.561 -3.0225 -1.1660 -0.0764
    1SOL    HW3 6287   2.233   0.288   2.688 -2.3387 -0.0093  0.5441
    1SOL    MW4 6288   2.210   0.362   2.648 -0.7021  0.2900  0.1228
    1SOL     OW 6289   2.440   0.437   2.748 -0.1631 -0.2015  0.5124
    1SOL    HW2 6290   2.457   0.527   2.720 -0.1886  0.2780  1.9830
    1SOL    HW3 6291   2.350   0.420   2.719  0.4918 -0.4264 -1.4403
    1SOL    MW4 6292   2.430   0.447   2.741 -0.0799 -0.1679  0.4487
    1SOL     OW 6293   2.440   0.697   2.674 -0.3563  0.0475  0.1723
    1SOL    HW2 6294   2.361   0.745   2.696 -0.0312  0.0070  1.4637
    1SOL    HW3 6295   2.457   0.719   2.583 -1.2081  0.9631  0.2270
    1SOL    MW4 6296   2.432   0.706   2.665 -0.4261  0.1629  0.3498
    1SOL     OW 6297   2.225   0.881   2.748  0.5053 -0.6142 -0.5097
    1SOL    HW2 6298   2.222   0.870   2.843  0.2978 -0.4498 -0.4965
    1SOL    HW3 6299   2.151   0.831   2.715  0.2482 -0.2248 -0.5379
    1SOL    MW4 6300   2.215   0.873   2.756  0.4439 -0.5412 -0.5119
    1SOL     OW 6301   2.221   1.151   2.652 -0.0952 -0.1190  0.4821
    1SOL    HW2 6302   2.221   1.061   2.685  1.3093 -1.0339 -1.9518
    1SOL    HW3 6303   2.294   1.193   2.697 -0.6605 -0.2069  1.5089
    1SOL    MW4 6304   2.231   1.144   2.662  0.0153 -0.2513  0.2966
    1SOL     OW 6305   2.427   1.262   2.770  0.8838 -0.4516 -0.1378
    1SOL    HW2 6306   2.427   1.353   2.739 -0.3204 -0.5687 -0.4863
    1SOL    HW3 6307   2.502   1.222   2.726  1.6715  0.4775  0.3381
    1SOL    MW4 6308   2.437   1.269   2.760  0.8290 -0.3445 -0.1211
    1SOL     OW 6309   2.456   1.521   2.686 -0.1400 -0.6457 -0.0650
    1SOL    HW2 6310   2.385   1.582   2.705  1.4738  1.0244  0.7370
    1SOL    HW3 6311   2.536   1.571   2.701  1.2357 -2.9422  0.5558
    1SOL    MW4 6312   2.458   1.536   2.691  0.2544 -0.7284  0.1223
    1SOL     OW 6313   2.240   1.688   2.765 -0.4617  0.1417 -0.0230
    1SOL    HW2 6314   2.266   1.764   2.712 -1.5335  0.4798 -0.0818
    1SOL    HW3 6315   2.159   1.657   2.724  0.6133 -1.7988 -0.7431
    1SOL    MW4 6316   2.232   1.694   2.752 -0.4613 -0.0696 -0.1259
    1SOL     OW 6317   2.259   1.936   2.623  0.5919 -0.3941  0.2424
    1SOL    HW2 6318   2.180   1.968   2.666  1.9906  2.2399  1.0013
    1SOL    HW3 6319   2.241   1.945   2.529  0.3906  1.3063  0.4233
    1SOL    MW4 6320   2.247   1.942   2.616  0.7498  0.1777  0.3662
    1SOL     OW 6321   2.465   2.042   2.738 -0.2399 -0.2290  0.4288
    1SOL    HW2 6322   2.462   2.134   2.711 -0.2841 -0.9110 -1.9603
    1SOL    HW3 6323   2.395   2.000   2.689 -0.8130 -1.3996  2.1853
    1SOL    MW4 6324   2.456   2.049   2.728 -0.3209 -0.4733  0.3455
    1SOL     OW 6325   2.446   2.311   2.636  0.4482 -0.0253  0.1452
    1SOL    HW2 6326   2.521   2.361   2.669 -0.8533  1.3437  1.0929
    1SOL    HW3 6327   2.463   2.302   2.543  1.2427  1.2865  0.1435
    1SOL    MW4 6328   2.458   2.316   2.628  0.3815  0.3283  0.2699
    1SOL     OW 6329   2.250   2.482   2.720  0.0370  0.0783 -0.2997
    1SOL    HW2 6330   2.252   2.482   2.815  0.7008  2.8005 -0.2770
    1SOL    HW3 6331   2.311   2.412   2.695  0.8449  0.1999  1.2654
    1SOL    MW4 6332   2.258   2.473   2.729  0.2313  0.4537 -0.0904
    1SOL     OW 6333   2.232   2.734   2.599 -0.2624 -0.2787 -0.2439
    1SOL    HW2 6334   2.295   2.787   2.648 -0.4563 -0.1727 -0.1080
    1SOL    HW3 6335   2.244   2.646   2.633  0.9800 -0.5656 -1.3961
    1SOL    MW4 6336   2.242   2.730   2.610 -0.1242 -0.3026 -0.3781
    1SOL     OW 6337   2.441   2.843   2.735 -0.0592 -0.1533  0.0807
    1SOL    HW2 6338   2.514   2.790   2.702  0.1973  0.2930 -0.0754
    1SOL    HW3 6339   2.464   2.932   2.709 -1.6517 -0.2497 -1.8045
    1SOL    MW4 6340   2.454   2.847   2.727 -0.2356 -0.1073 -0.1884
    1SOL     OW 6341   2.459   3.110   2.648  0.1332  0.2952  0.2051
    1SOL    HW2 6342   2.381   3.150   2.688 -0.0513 -0.1898  0.3306
    1SOL    HW3 6343   2.440   3.108   2.555 -0.0885 -0.0025  0.2559
    1SOL    MW4 6344   2.446   3.115   2.641  0.0796  0.1919  0.2282
    1SOL     OW 6345   2.215   3.245   2.761 -0.1585 -0.3310  0.2268
    1SOL    HW2 6346   2.207   3.283   2.849  0.4946  0.0933  0.1057
    1SOL    HW3 6347   2.139   3.186   2.753 -0.5721  0.1159  0.8300
    1SOL    MW4 6348   2.204   3.242   2.772 -0.1266 -0.2160  0.2906
    1SOL     OW 6349   2.211   3.468   2.628 -0.3454 -0.4079 -0.6204
    1SOL    HW2 6350   2.278   3.524   2.668 -0.4005 -0.4240 -0.5052
    1SOL    HW3 6351   2.216   3.386   2.677 -0.9837 -0.1376 -0.0901
    1SOL    MW4 6352   2.221   3.465   2.640 -0.4365 -0.3743 -0.5352
    1SOL     OW 6353   2.439   3.592   2.730  0.1087 -0.0511 -0.1058
    1SOL    HW2 6354   2.434   3.601   2.826  0.2881  0.1183 -0.1103
    1SOL    HW3 6355   2.452   3.682   2.699 -1.4633  0.0779 -0.3898
    1SOL    MW4 6356   2.440   3.605   2.739 -0.0749 -0.0117 -0.1438
    1SOL     OW 6357   2.452   3.858   2.662 -0.9726 -0.1860  0.4023
    1SOL    HW2 6358   2.541   3.894   2.664 -0.5559 -1.1402 -0.4272
    1SOL    HW3 6359   2.395   3.932   2.682 -0.0475  0.6362  0.0225
    1SOL    MW4 6360   2.456   3.873   2.665 -0.7958 -0.2034  0.2427
    1SOL     OW 6361   2.246   4.032   2.733 -0.0030  0.1190  0.1111
    1SOL    HW2 6362   2.249   4.029   2.829 -1.1320  1.6351  0.2321
    1SOL    HW3 6363   2.171   3.978   2.709  0.2236 -0.1862  0.0894
    1SOL    MW4 6364   2.237   4.025   2.742 -0.1221  0.2789  0.1242
    1SOL     OW 6365   2.209   4.297   2.644  0.4607  0.2715  0.5616
    1SOL    HW2 6366   2.215   4.213   2.689  0.7789 -0.3613 -0.6197
    1SOL    HW3 6367   2.148   4.349   2.696 -0.7304 -1.1521  0.5842
    1SOL    MW4 6368   2.202   4.293   2.657  0.3457  0.0000  0.4089
    1SOL     OW 6369   2.462   4.351   2.712  0.0840 -0.1828  0.0073
    1SOL    HW2 6370   2.370   4.343   2.688 -0.4012 -0.0549  1.7247
    1SOL    HW3 6371   2.483   4.443   2.701  0.2266 -0.3473 -1.1223
    1SOL    MW4 6372   2.452   4.362   2.708  0.0389 -0.1879  0.0849
    1SOL     OW 6373   2.944   4.594   2.651 -0.3986 -0.1440 -0.1841
    1SOL    HW2 6374   3.031   4.623   2.680 -0.6314 -0.4066  0.7807
    1SOL    HW3 6375   2.940   4.621   2.559  0.2294  0.9672  0.0964
    1SOL    MW4 6376   2.955   4.602   2.642 -0.3462 -0.0324 -0.0200
    1SOL     OW 6377   2.732   0.093   2.735  0.0657 -0.1279  0.7173
    1SOL    HW2 6378   2.725   0.116   2.827 -0.0524 -0.5102  0.8033
    1SOL    HW3 6379   2.814   0.044   2.728 -0.5785 -1.2521  0.8596
    1SOL    MW4 6380   2.742   0.090   2.746 -0.0348 -0.3267  0.7472
    1SOL     OW 6381   2.666   0.332   2.618 -0.0185 -0.1595  0.5296
    1SOL    HW2 6382   2.678   0.241   2.642  0.0940 -0.1279  0.5930
    1SOL    HW3 6383   2.593   0.362   2.672  1.1237  0.2988  1.8466
    1SOL    MW4 6384   2.658   0.324   2.628  0.1469 -0.0949  0.7117
    1SOL     OW 6385   2.870   0.518   2.753 -0.1259 -0.2333 -0.0404
    1SOL    HW2 6386   2.862   0.606   2.717  0.8527 -0.5331 -1.0134
    1SOL    HW3 6387   2.795   0.470   2.715 -0.9264  0.2929  0.8604
    1SOL    MW4 6388   2.859   0.523   2.743 -0.1028 -0.2034 -0.0501
    1SOL     OW 6389   2.879   0.758   2.630 -0.6395 -0.2242  0.6219
    1SOL    HW2 6390   2.953   0.803   2.672 -1.6159 -0.3087  2.5102
    1SOL    HW3 6391   2.802   0.795   2.673 -1.5241 -2.7967  1.3604
    1SOL    MW4 6392   2.879   0.769   2.641 -0.8852 -0.5747  0.9685
    1SOL     OW 6393   2.647   0.882   2.767 -0.0454 -0.3420 -0.1215
    1SOL    HW2 6394   2.646   0.902   2.861 -0.0350 -1.1591  0.0574
    1SOL    HW3 6395   2.569   0.828   2.754  0.0571 -0.3815 -0.5513
    1SOL    MW4 6396   2.636   0.878   2.778 -0.0305 -0.4550 -0.1547
    1SOL     OW 6397   2.629   1.128   2.623 -0.2564  0.0386  0.0006
    1SOL    HW2 6398   2.704   1.169   2.666 -0.5916  1.0049 -0.3249
    1SOL    HW3 6399   2.633   1.036   2.650  0.3718  0.3282  0.9125
    1SOL    MW4 6400   2.639   1.121   2.632 -0.2179  0.2042  0.0780
    1SOL     OW 6401   2.863   1.266   2.724 -0.0311 -0.1619 -0.1688
    1SOL    HW2 6402   2.869   1.275   2.819  1.1386  0.7388 -0.3162
    1SOL    HW3 6403   2.941   1.217   2.699 -0.4039 -0.5220 -0.6670
    1SOL    MW4 6404   2.874   1.261   2.733  0.0739 -0.0907 -0.2539
    1SOL     OW 6405   2.904   1.529   2.609 -0.4146  0.0922  0.0048
    1SOL    HW2 6406   2.840   1.582   2.657 -0.6918 -0.2413  0.0060
    1SOL    HW3 6407   2.899   1.442   2.650  0.6931  0.3083  0.6013
    1SOL    MW4 6408   2.895   1.524   2.620 -0.3049  0.0767  0.0834
    1SOL     OW 6409   2.702   1.666   2.731 -0.2085 -0.0031 -0.0833
    1SOL    HW2 6410   2.681   1.665   2.825 -1.1973  0.4436 -0.2936
    1SOL    HW3 6411   2.683   1.756   2.704 -0.0246 -0.1630 -0.7303
    1SOL    MW4 6412   2.696   1.678   2.740 -0.3145  0.0347 -0.1962
    1SOL     OW 6413   2.686   1.921   2.628  0.5039  0.1802  0.0326
    1SOL    HW2 6414   2.763   1.967   2.661  0.4036  0.7882 -0.5713
    1SOL    HW3 6415   2.612   1.972   2.661  0.4109  1.0520 -1.4887
    1SOL    MW4 6416   2.687   1.934   2.637  0.4783  0.3755 -0.2477
    1SOL     OW 6417   2.917   2.022   2.718 -0.3127 -0.2330 -0.1704
    1SOL    HW2 6418   2.995   1.986   2.676  0.5694 -0.2068  1.4163
    1SOL    HW3 6419   2.924   2.116   2.703  0.4629 -0.1349  0.8076
    1SOL    MW4 6420   2.928   2.030   2.710 -0.0939 -0.2167  0.1678
    1SOL     OW 6421   2.933   2.321   2.630 -0.4929 -0.4683 -0.1792
    1SOL    HW2 6422   3.005   2.375   2.662  0.5924 -0.5896 -2.2866
    1SOL    HW3 6423   2.855   2.356   2.673  0.6256  0.6110  1.0186
    1SOL    MW4 6424   2.933   2.333   2.640 -0.2022 -0.3417 -0.2992
    1SOL     OW 6425   2.698   2.429   2.717  0.0018  0.7543  0.4413
    1SOL    HW2 6426   2.715   2.436   2.811  0.2654 -0.3825  0.4855
    1SOL    HW3 6427   2.669   2.517   2.691  0.4589  1.2173  1.4710
    1SOL    MW4 6428   2.696   2.442   2.726  0.0970  0.6654  0.5832
    1SOL     OW 6429   2.675   2.701   2.654  0.3193  0.6157  0.5586
    1SOL    HW2 6430   2.753   2.726   2.703  0.9522  1.0391 -0.6604
    1SOL    HW3 6431   2.697   2.716   2.562 -0.3470 -1.6048  0.0117
    1SOL    MW4 6432   2.688   2.706   2.648  0.3150  0.3788  0.3257
    1SOL     OW 6433   2.896   2.801   2.794  0.0500 -0.2204 -0.3015
    1SOL    HW2 6434   2.982   2.782   2.757  0.8627  2.9835 -0.2260
    1SOL    HW3 6435   2.912   2.814   2.888 -0.4172  0.9418 -0.3763
    1SOL    MW4 6436   2.909   2.800   2.802  0.0956  0.3557 -0.3014
    1SOL     OW 6437   2.924   3.061   2.677 -0.4972  0.4441  0.1430
    1SOL    HW2 6438   2.845   3.107   2.703 -1.0547 -0.3630 -0.1080
    1SOL    HW3 6439   2.913   2.972   2.712  0.4648  0.4324  0.4360
    1SOL    MW4 6440   2.912   3.055   2.685 -0.4439  0.3362  0.1483
    1SOL     OW 6441   2.688   3.220   2.741  0.2492 -0.2188  0.1769
    1SOL    HW2 6442   2.690   3.311   2.713 -0.2277 -0.1125  0.4926
    1SOL    HW3 6443   2.604   3.186   2.709 -0.7504  0.1719  2.3009
    1SOL    MW4 6444   2.677   3.227   2.733  0.0544 -0.1533  0.4985
    1SOL     OW 6445   2.702   3.474   2.671 -0.4325  0.1391 -0.2684
    1SOL    HW2 6446   2.615   3.513   2.676  0.1882  1.5620 -0.1933
    1SOL    HW3 6447   2.721   3.470   2.577 -0.4930  0.0229 -0.2758
    1SOL    MW4 6448   2.693   3.479   2.659 -0.3588  0.3114 -0.2596
    1SOL     OW 6449   2.907   3.655   2.755  0.0118  0.6741  0.4698
    1SOL    HW2 6450   2.911   3.652   2.851  1.3437 -1.6497  0.3806
    1SOL    HW3 6451   2.837   3.594   2.732  0.8859 -0.1427 -0.0801
    1SOL    MW4 6452   2.898   3.647   2.765  0.3028  0.2599  0.3853
    1SOL     OW 6453   2.929   3.885   2.606  0.4983  0.0024 -0.2652
    1SOL    HW2 6454   2.997   3.930   2.656  0.1981  0.0026  0.1526
    1SOL    HW3 6455   2.910   3.807   2.658 -0.8340  0.7284  0.3775
    1SOL    MW4 6456   2.936   3.881   2.620  0.2830  0.0985 -0.1252
    1SOL     OW 6457   2.693   3.978   2.684 -0.1266  0.1896 -0.1557
    1SOL    HW2 6458   2.685   4.067   2.650  0.5498 -0.0892 -1.0488
    1SOL    HW3 6459   2.776   3.946   2.650  0.7817  0.0592  2.1056
    1SOL    MW4 6460   2.703   3.985   2.675  0.0825  0.1357  0.0246
    1SOL     OW 6461   2.691   4.239   2.587  0.3835  0.5987 -0.5390
    1SOL    HW2 6462   2.752   4.281   2.647 -0.0221  1.1165 -0.4847
    1SOL    HW3 6463   2.605   4.270   2.614  0.1123  0.0499 -0.7575
    1SOL    MW4 6464   2.688   4.249   2.598  0.2940  0.5946 -0.5608
    1SOL     OW 6465   2.895   4.341   2.739  0.1696 -0.4967  0.5333
    1SOL    HW2 6466   2.898   4.350   2.834 -1.9146 -0.1781  0.5734
    1SOL    HW3 6467   2.898   4.431   2.706 -0.6223 -0.5413  0.3426
    1SOL    MW4 6468   2.896   4.354   2.747 -0.2098 -0.4606  0.5136
    1SOL     OW 6469   3.404   0.040   2.663  0.1741  0.1983  0.2615
    1SOL    HW2 6470   3.395  -0.053   2.682  0.8855  0.4014  1.6397
    1SOL    HW3 6471   3.326   0.080   2.703  0.6267  0.3691  0.9878
    1SOL    MW4 6472   3.393   0.033   2.671  0.3276  0.2475  0.5388
    1SOL     OW 6473   3.143   0.095   2.740  0.0834  0.2315  0.6335
    1SOL    HW2 6474   3.130   0.097   2.835 -0.0421  1.5181  0.6025
    1SOL    HW3 6475   3.131   0.186   2.713 -1.3228 -0.3834 -0.8202
    1SOL    MW4 6476   3.140   0.107   2.749 -0.1187  0.3201  0.4375
    1SOL     OW 6477   3.086   0.360   2.630  0.3420 -0.1407  0.5860
    1SOL    HW2 6478   3.014   0.419   2.653 -1.6717 -2.2319 -0.1142
    1SOL    HW3 6479   3.090   0.362   2.535  1.0435 -0.2482  0.6096
    1SOL    MW4 6480   3.077   0.368   2.621  0.1690 -0.4308  0.4964
    1SOL     OW 6481   3.302   0.500   2.681  0.2234 -0.3615 -0.0901
    1SOL    HW2 6482   3.300   0.592   2.654 -1.6785  0.2324  1.9494
    1SOL    HW3 6483   3.221   0.464   2.646 -0.1491 -0.6771  1.0948
    1SOL    MW4 6484   3.291   0.508   2.673 -0.0765 -0.3247  0.3352
    1SOL     OW 6485   3.310   0.780   2.624 -0.9779  0.0382 -0.1211
    1SOL    HW2 6486   3.386   0.814   2.671 -1.4531 -0.3152  0.9257
    1SOL    HW3 6487   3.338   0.775   2.533 -0.5590  2.2407 -0.1463
    1SOL    MW4 6488   3.324   0.784   2.619 -0.9851  0.2822  0.0136
    1SOL     OW 6489   3.085   0.894   2.747  0.1102 -0.5766 -0.4676
    1SOL    HW2 6490   3.095   0.894   2.843  0.3414  0.6238 -0.4791
    1SOL    HW3 6491   3.171   0.866   2.715  0.0674 -0.8740 -0.3232
    1SOL    MW4 6492   3.098   0.890   2.756  0.1352 -0.4575 -0.4501
    1SOL     OW 6493   3.089   1.152   2.634 -0.0657 -0.1119  0.3062
    1SOL    HW2 6494   3.092   1.060   2.659  1.8464  0.2632  1.6017
    1SOL    HW3 6495   3.116   1.154   2.543 -1.7363 -0.9828 -0.2211
    1SOL    MW4 6496   3.093   1.140   2.625 -0.0339 -0.1774  0.4072
    1SOL     OW 6497   3.334   1.272   2.703 -0.1817  0.6105  0.3320
    1SOL    HW2 6498   3.312   1.281   2.796 -1.0830 -0.9627  0.2731
    1SOL    HW3 6499   3.259   1.228   2.664  0.9398 -0.3369 -0.8131
    1SOL    MW4 6500   3.321   1.268   2.710 -0.1523  0.2780  0.1733
    1SOL     OW 6501   3.352   1.536   2.605 -0.4273  0.2227 -0.2320
    1SOL    HW2 6502   3.277   1.583   2.641 -0.2013  0.3797  0.0443
    1SOL    HW3 6503   3.338   1.445   2.629 -0.7519  0.1861 -0.5660
    1SOL    MW4 6504   3.340   1.530   2.613 -0.4401  0.2387 -0.2396
    1SOL     OW 6505   3.138   1.656   2.746 -0.2120 -0.3212  0.0611
    1SOL    HW2 6506   3.054   1.625   2.712 -1.5019  2.1389  0.9013
    1SOL    HW3 6507   3.132   1.643   2.841  0.3661 -0.1851  0.1204
    1SOL    MW4 6508   3.126   1.650   2.754 -0.3061  0.0212  0.1798
    1SOL     OW 6509   3.168   1.918   2.637  0.0949 -0.7055 -0.3053
    1SOL    HW2 6510   3.240   1.967   2.677  0.3858  0.1214 -1.8281
    1SOL    HW3 6511   3.173   1.831   2.678  2.0809 -0.7160 -0.5372
    1SOL    MW4 6512   3.178   1.913   2.648  0.3955 -0.5980 -0.5369
    1SOL     OW 6513   3.371   2.063   2.753  0.2351 -0.3241 -0.5903
    1SOL    HW2 6514   3.394   2.056   2.846  1.4355 -0.8165 -0.9140
    1SOL    HW3 6515   3.372   2.158   2.736  1.4811 -0.2973 -0.4442
    1SOL    MW4 6516   3.374   2.075   2.763  0.5581 -0.3855 -0.6137
    1SOL     OW 6517   3.397   2.350   2.647 -0.2202 -0.1325 -0.0522
    1SOL    HW2 6518   3.476   2.400   2.666 -0.7962  0.6229  0.4068
    1SOL    HW3 6519   3.395   2.344   2.552 -0.3331  1.0554 -0.1382
    1SOL    MW4 6520   3.407   2.356   2.637 -0.3109  0.1237 -0.0026
    1SOL     OW 6521   3.141   2.446   2.743  0.2702  0.0379  0.3463
    1SOL    HW2 6522   3.224   2.423   2.702 -0.0475 -1.6161  0.6054
    1SOL    HW3 6523   3.156   2.433   2.837 -0.0028  0.6228  0.4726
    1SOL    MW4 6524   3.154   2.442   2.750  0.1924 -0.1030  0.3972
    1SOL     OW 6525   3.127   2.720   2.656  0.3959  0.1292 -0.1870
    1SOL    HW2 6526   3.198   2.769   2.696  2.0888 -0.7145 -2.0529
    1SOL    HW3 6527   3.133   2.633   2.695 -2.5241  1.2771  3.0277
    1SOL    MW4 6528   3.137   2.715   2.666  0.2337  0.1693 -0.0091
    1SOL     OW 6529   3.354   2.866   2.727  0.2393  0.1375 -0.0938
    1SOL    HW2 6530   3.365   2.880   2.821  0.6045 -0.3872 -0.0505
    1SOL    HW3 6531   3.438   2.828   2.699 -0.2039 -0.6028 -0.4483
    1SOL    MW4 6532   3.367   2.863   2.736  0.2291 -0.0293 -0.1349
    1SOL     OW 6533   3.313   3.132   2.627 -0.0259  0.5014  0.2000
    1SOL    HW2 6534   3.330   3.046   2.665 -1.0368  0.1108 -0.2007
    1SOL    HW3 6535   3.299   3.115   2.534 -0.7259  1.0268  0.1999
    1SOL    MW4 6536   3.313   3.118   2.620 -0.2515  0.5193  0.1471
    1SOL     OW 6537   3.121   3.240   2.782 -0.0279 -0.2935 -0.2093
    1SOL    HW2 6538   3.202   3.220   2.734 -0.5072  1.8527 -1.9846
    1SOL    HW3 6539   3.054   3.191   2.734 -0.2894  0.7033 -0.8699
    1SOL    MW4 6540   3.123   3.231   2.769 -0.1256  0.1209 -0.5307
    1SOL     OW 6541   3.112   3.514   2.657 -0.3820 -0.2227  0.5277
    1SOL    HW2 6542   3.124   3.445   2.722  0.7985  1.7389  2.4673
    1SOL    HW3 6543   3.043   3.570   2.694  0.4365  1.0200  0.1887
    1SOL    MW4 6544   3.104   3.512   2.670 -0.1183  0.2003  0.7386
    1SOL     OW 6545   3.373   3.611   2.742  0.2366 -0.2162 -0.1117
    1SOL    HW2 6546   3.352   3.622   2.834  1.1369  0.8364 -0.0181
    1SOL    HW3 6547   3.295   3.569   2.704 -0.7105  0.6637  0.8347
    1SOL    MW4 6548   3.360   3.607   2.749  0.2306  0.0389  0.0253
    1SOL     OW 6549   3.353   3.870   2.659 -0.2923 -0.0141 -0.1254
    1SOL    HW2 6550   3.347   3.777   2.678  1.6308 -0.4069 -1.3458
    1SOL    HW3 6551   3.351   3.876   2.564 -0.0548  1.1640 -0.0720
    1SOL    MW4 6552   3.352   3.859   2.649 -0.0072  0.0894 -0.2794
    1SOL     OW 6553   3.147   3.990   2.771  0.1981 -0.2908 -0.2975
    1SOL    HW2 6554   3.140   4.081   2.740 -1.2725  0.3615  1.8141
    1SOL    HW3 6555   3.218   3.953   2.720  0.8768  2.0874 -1.1662
    1SOL    MW4 6556   3.155   3.997   2.760  0.0937  0.1092 -0.1333
    1SOL     OW 6557   3.129   4.244   2.630  0.5226 -0.1831 -0.0742
    1SOL    HW2 6558   3.046   4.275   2.666 -0.3794 -0.5081 -1.8569
    1SOL    HW3 6559   3.117   4.247   2.535  3.2481  1.7551 -0.4126
    1SOL    MW4 6560   3.117   4.249   2.623  0.7629  0.0296 -0.3541
    1SOL     OW 6561   3.347   4.426   2.708 -0.0705 -0.0944 -0.0871
    1SOL    HW2 6562   3.327   4.419   2.801  0.1164 -0.0406 -0.0434
    1SOL    HW3 6563   3.271   4.386   2.664 -0.5737  0.7045  0.0561
    1SOL    MW4 6564   3.334   4.420   2.714 -0.1123  0.0181 -0.0625
    1SOL     OW 6565   3.852   4.655   2.648  0.0838  0.0190 -0.1627
    1SOL    HW2 6566   3.843   4.573   2.697  1.3897 -0.1143 -0.1223
    1SOL    HW3 6567   3.792   4.715   2.690 -0.1216 -0.6227  0.4733
    1SOL    MW4 6568   3.843   4.652   2.660  0.2294 -0.0834 -0.0734
    1SOL     OW 6569   3.652   0.168   2.701 -0.3104  0.2027 -0.2048
    1SOL    HW2 6570   3.625   0.255   2.670 -1.2221 -0.3934 -1.1225
    1SOL    HW3 6571   3.574   0.113   2.688 -0.4371 -0.2759  2.3270
    1SOL    MW4 6572   3.638   0.172   2.695 -0.4473  0.0609  0.0081
    1SOL     OW 6573   3.569   0.419   2.616 -0.5364 -0.3430 -0.0508
    1SOL    HW2 6574   3.634   0.485   2.641 -1.8399  1.1557 -0.5210
    1SOL    HW3 6575   3.486   0.455   2.646 -1.4187 -1.1862 -1.4175
    1SOL    MW4 6576   3.567   0.432   2.623 -0.8245 -0.2565 -0.2933
    1SOL     OW 6577   3.789   0.546   2.740 -0.1932  0.6055 -0.1449
    1SOL    HW2 6578   3.781   0.534   2.835 -0.2332  2.1707  0.0530
    1SOL    HW3 6579   3.853   0.479   2.714 -0.4628 -0.0954  0.9152
    1SOL    MW4 6580   3.797   0.535   2.749 -0.2339  0.7196  0.0207
    1SOL     OW 6581   3.796   0.803   2.616  0.2396 -0.5667  0.3335
    1SOL    HW2 6582   3.711   0.841   2.641  0.5662  0.1675  0.3342
    1SOL    HW3 6583   3.798   0.718   2.661  0.0502 -0.0348  1.3712
    1SOL    MW4 6584   3.785   0.797   2.625  0.2577 -0.3997  0.4704
    1SOL     OW 6585   3.562   0.898   2.720  0.0703  0.3698  0.5080
    1SOL    HW2 6586   3.563   0.911   2.815  0.3699  0.6147  0.4745
    1SOL    HW3 6587   3.577   0.986   2.685 -0.2933  0.3205  0.2303
    1SOL    MW4 6588   3.564   0.911   2.728  0.0620  0.3957  0.4671
    1SOL     OW 6589   3.569   1.166   2.614 -0.0964 -0.3141 -0.4366
    1SOL    HW2 6590   3.642   1.224   2.638 -0.2017 -0.0090 -0.8296
    1SOL    HW3 6591   3.491   1.216   2.636 -0.1867 -0.5799 -0.1577
    1SOL    MW4 6592   3.569   1.180   2.620 -0.1221 -0.3089 -0.4513
    1SOL     OW 6593   3.797   1.312   2.685 -0.5007  0.3956  0.5751
    1SOL    HW2 6594   3.876   1.273   2.647 -0.5701 -1.4090  2.2086
    1SOL    HW3 6595   3.803   1.405   2.662  1.3022  0.0118 -0.6506
    1SOL    MW4 6596   3.808   1.319   2.677 -0.2720  0.1069  0.6289
    1SOL     OW 6597   3.799   1.579   2.607 -0.2267  0.2883 -0.8060
    1SOL    HW2 6598   3.870   1.616   2.659  0.4264  0.7845 -2.0208
    1SOL    HW3 6599   3.720   1.599   2.657  0.5613 -1.2657  1.1199
    1SOL    MW4 6600   3.798   1.586   2.620 -0.0367  0.1488 -0.7122
    1SOL     OW 6601   3.568   1.666   2.741  0.0536 -0.2948 -0.0713
    1SOL    HW2 6602   3.573   1.747   2.691 -0.4858 -0.0887  0.2123
    1SOL    HW3 6603   3.491   1.621   2.707  1.1503 -1.3610 -1.2221
    1SOL    MW4 6604   3.559   1.671   2.730  0.1268 -0.4084 -0.1857
    1SOL     OW 6605   3.578   1.920   2.604  0.7852 -0.6968 -0.0278
    1SOL    HW2 6606   3.506   1.973   2.640  1.6896  0.7597 -0.3107
    1SOL    HW3 6607   3.568   1.926   2.510  0.8144 -1.1359 -0.0577
    1SOL    MW4 6608   3.568   1.928   2.597  0.9081 -0.5625 -0.0687
    1SOL     OW 6609   3.785   2.078   2.731 -0.1194 -0.4044  0.0458
    1SOL    HW2 6610   3.858   2.035   2.687 -0.9676 -1.9194  0.0630
    1SOL    HW3 6611   3.707   2.034   2.697 -1.1150  1.8794 -0.7510
    1SOL    MW4 6612   3.785   2.066   2.720 -0.3626 -0.3030 -0.0572
    1SOL     OW 6613   3.816   2.355   2.652 -0.2553 -0.1402 -0.4856
    1SOL    HW2 6614   3.803   2.270   2.695 -1.0986  0.4631  0.4662
    1SOL    HW3 6615   3.820   2.334   2.559 -1.6718 -1.1067 -0.3520
    1SOL    MW4 6616   3.815   2.341   2.646 -0.5536 -0.1881 -0.3424
    1SOL     OW 6617   3.612   2.521   2.728  0.3522  0.2812 -0.2895
    1SOL    HW2 6618   3.594   2.494   2.817 -0.9502 -0.0726 -0.6547
    1SOL    HW3 6619   3.687   2.468   2.701  0.2209 -0.2118  0.3110
    1SOL    MW4 6620   3.619   2.511   2.736  0.1628  0.1695 -0.2587
    1SOL     OW 6621   3.614   2.779   2.615 -0.0592  0.2644  0.2834
    1SOL    HW2 6622   3.607   2.697   2.664 -0.0515  0.9369  1.4238
    1SOL    HW3 6623   3.616   2.752   2.523 -0.6862 -0.9727  0.6256
    1SOL    MW4 6624   3.613   2.765   2.609 -0.1409  0.1900  0.4787
    1SOL     OW 6625   3.848   2.846   2.770  0.1113  0.3529 -0.3970
    1SOL    HW2 6626   3.910   2.801   2.713 -0.2807 -0.1686 -0.4185
    1SOL    HW3 6627   3.762   2.824   2.733 -0.0244  2.8311 -1.6745
    1SOL    MW4 6628   3.845   2.837   2.757  0.0417  0.6111 -0.5682
    1SOL     OW 6629   3.838   3.113   2.664  0.1372  0.5669 -0.0512
    1SOL    HW2 6630   3.747   3.144   2.668 -0.4066 -0.9529  0.0818
    1SOL    HW3 6631   3.834   3.024   2.701  1.4253 -0.0556 -1.3446
    1SOL    MW4 6632   3.825   3.105   2.669  0.2356  0.2844 -0.2043
    1SOL     OW 6633   3.575   3.195   2.666 -0.0150 -0.3734 -0.0461
    1SOL    HW2 6634   3.572   3.290   2.650  0.1418 -0.2955  0.3739
    1SOL    HW3 6635   3.491   3.163   2.633 -0.8036  0.1723  1.3614
    1SOL    MW4 6636   3.563   3.203   2.660 -0.0982 -0.2909  0.1948
    1SOL     OW 6637   3.597   3.488   2.653  0.1526 -0.4645 -0.3684
    1SOL    HW2 6638   3.666   3.535   2.699 -0.9455 -0.3767  1.2368
    1SOL    HW3 6639   3.516   3.534   2.676 -0.7048 -1.8841 -0.4319
    1SOL    MW4 6640   3.595   3.500   2.662 -0.1059 -0.6404 -0.1650
    1SOL     OW 6641   3.793   3.640   2.743 -0.3723  0.3738 -0.0706
    1SOL    HW2 6642   3.878   3.600   2.722 -0.6757 -0.0579 -0.4690
    1SOL    HW3 6643   3.804   3.733   2.720  0.0377  0.3523  0.0218
    1SOL    MW4 6644   3.806   3.647   2.737 -0.3581  0.3140 -0.1111
    1SOL     OW 6645   3.785   3.892   2.625 -0.0898  0.8201  0.0185
    1SOL    HW2 6646   3.867   3.931   2.655  0.4653 -0.9297  0.8656
    1SOL    HW3 6647   3.717   3.943   2.668  0.6076  0.9916  0.9278
    1SOL    MW4 6648   3.787   3.904   2.634  0.0756  0.6120  0.2501
    1SOL     OW 6649   3.564   4.021   2.778  0.1236  0.2306 -0.2674
    1SOL    HW2 6650   3.549   4.103   2.732 -0.4013  0.1950 -0.1592
    1SOL    HW3 6651   3.492   3.964   2.750 -0.5815  0.4147  1.0773
    1SOL    MW4 6652   3.552   4.024   2.768 -0.0384  0.2503 -0.0758
    1SOL     OW 6653   3.562   4.269   2.662  0.1048 -0.5093 -0.5062
    1SOL    HW2 6654   3.478   4.311   2.680  0.0599 -0.6225 -0.4472
    1SOL    HW3 6655   3.577   4.284   2.569 -0.5459 -1.4921 -0.7818
    1SOL    MW4 6656   3.553   4.276   2.653  0.0131 -0.6533 -0.5348
    1SOL     OW 6657   3.793   4.377   2.767  0.2496  0.5560 -0.0039
    1SOL    HW2 6658   3.863   4.332   2.719  0.4408  0.4396  0.3768
    1SOL    HW3 6659   3.713   4.355   2.720  0.4053  0.2439 -0.1248
    1SOL    MW4 6660   3.792   4.368   2.755  0.2954  0.4988  0.0305
    1SOL     OW 6661   4.251   4.616   2.641 -0.1113  0.3307 -0.2360
    1SOL    HW2 6662   4.192   4.673   2.690  0.5721 -0.5148  1.6353
    1SOL    HW3 6663   4.335   4.661   2.642 -0.1507  0.4255 -0.8632
    1SOL    MW4 6664   4.254   4.629   2.648 -0.0262  0.2317 -0.0720
    1SOL     OW 6665   4.067   0.133   2.745  0.0939  0.2173  0.1019
    1SOL    HW2 6666   4.066   0.140   2.840  1.9047 -0.9849  0.2323
    1SOL    HW3 6667   3.992   0.077   2.724 -0.5679  0.8362  0.7526
    1SOL    MW4 6668   4.057   0.127   2.755  0.2456  0.1404  0.2048
    1SOL     OW 6669   3.979   0.383   2.636  0.5135  0.0926 -0.1979
    1SOL    HW2 6670   4.001   0.291   2.652  1.1515  0.2306 -0.2741
    1SOL    HW3 6671   3.996   0.395   2.542 -0.2315  0.1075 -0.3355
    1SOL    MW4 6672   3.984   0.372   2.626  0.4997  0.1128 -0.2260
    1SOL     OW 6673   4.226   0.511   2.714  0.1403 -0.2606  0.4439
    1SOL    HW2 6674   4.153   0.453   2.692 -0.4443  0.8342 -0.5949
    1SOL    HW3 6675   4.304   0.463   2.686 -0.2882 -0.8230  0.1967
    1SOL    MW4 6676   4.227   0.497   2.707  0.0072 -0.1903  0.2742
    1SOL     OW 6677   4.213   0.778   2.627 -0.0482 -0.3972  0.0784
    1SOL    HW2 6678   4.226   0.684   2.644 -0.1736 -0.4472 -0.1000
    1SOL    HW3 6679   4.215   0.785   2.531  0.1902 -0.1845  0.0977
    1SOL    MW4 6680   4.215   0.766   2.616 -0.0329 -0.3757  0.0572
    1SOL     OW 6681   4.007   0.922   2.741  0.2392  0.2619 -0.1391
    1SOL    HW2 6682   4.086   0.876   2.714  0.8790  1.4866 -0.4020
    1SOL    HW3 6683   3.935   0.874   2.699  0.7830 -1.2542  0.6507
    1SOL    MW4 6684   4.008   0.910   2.732  0.3953  0.2235 -0.0694
    1SOL     OW 6685   4.021   1.164   2.603 -0.1219 -0.1000 -0.2090
    1SOL    HW2 6686   4.101   1.204   2.635  0.3880 -1.2179 -0.0713
    1SOL    HW3 6687   4.010   1.085   2.657 -0.4649 -0.7852 -1.2601
    1SOL    MW4 6688   4.030   1.158   2.614 -0.0997 -0.3380 -0.3293
    1SOL     OW 6689   4.241   1.300   2.727 -0.6910 -0.1460  0.3287
    1SOL    HW2 6690   4.239   1.385   2.685  0.8326 -0.2261  0.0661
    1SOL    HW3 6691   4.310   1.252   2.681 -1.2773 -1.3871  0.7177
    1SOL    MW4 6692   4.250   1.305   2.715 -0.5674 -0.3203  0.3452
    1SOL     OW 6693   4.219   1.568   2.607  0.1691 -0.6736  0.9467
    1SOL    HW2 6694   4.304   1.588   2.645  0.2302  0.5282  0.2102
    1SOL    HW3 6695   4.235   1.563   2.513 -0.5014 -0.7777  0.8341
    1SOL    MW4 6696   4.232   1.570   2.599  0.0887 -0.5287  0.8349
    1SOL     OW 6697   4.016   1.697   2.737 -0.5452 -0.3242  0.3308
    1SOL    HW2 6698   4.019   1.677   2.831  0.6979 -0.2392  0.3192
    1SOL    HW3 6699   4.098   1.661   2.703 -1.0193 -0.3944 -0.7321
    1SOL    MW4 6700   4.027   1.689   2.745 -0.4435 -0.3223  0.1891
    1SOL     OW 6701   4.012   1.956   2.623  0.4710 -0.6550 -0.3850
    1SOL    HW2 6702   4.090   1.995   2.661 -0.4867 -0.2186  1.1864
    1SOL    HW3 6703   4.007   1.869   2.662 -0.0968 -0.4932 -0.0872
    1SOL    MW4 6704   4.021   1.949   2.633  0.2699 -0.5760 -0.1388
    1SOL     OW 6705   4.260   2.076   2.734  0.5192  0.0717 -0.0112
    1SOL    HW2 6706   4.267   2.153   2.677 -0.1667 -1.0031 -1.5883
    1SOL    HW3 6707   4.322   2.013   2.697 -0.9491 -1.1641 -0.4535
    1SOL    MW4 6708   4.269   2.078   2.721  0.2351 -0.2332 -0.2778
    1SOL     OW 6709   4.290   2.312   2.583 -1.1553  0.2951  0.2420
    1SOL    HW2 6710   4.206   2.350   2.608 -2.4689 -0.7179 -2.4672
    1SOL    HW3 6711   4.293   2.320   2.488  1.3488 -0.6905  0.1919
    1SOL    MW4 6712   4.279   2.318   2.574 -0.9980  0.0315 -0.1221
    1SOL     OW 6713   4.083   2.412   2.708 -0.3415  0.4502  0.2865
    1SOL    HW2 6714   4.077   2.412   2.803 -1.5185  1.4727  0.2166
    1SOL    HW3 6715   3.993   2.399   2.678 -0.1563  1.3867 -0.6938
    1SOL    MW4 6716   4.070   2.410   2.716 -0.4725  0.7088  0.1481
    1SOL     OW 6717   4.056   2.692   2.689  0.5963 -0.0143 -0.1809
    1SOL    HW2 6718   4.135   2.733   2.723  0.5351 -0.3095  0.3356
    1SOL    HW3 6719   4.069   2.598   2.706 -0.3339  0.0413  0.9125
    1SOL    MW4 6720   4.068   2.685   2.696  0.4659 -0.0460  0.0315
    1SOL     OW 6721   4.282   2.818   2.785  0.4357  0.0216  0.3630
    1SOL    HW2 6722   4.265   2.811   2.879  0.4222 -1.7409  0.2537
    1SOL    HW3 6723   4.267   2.910   2.764 -0.0736  0.3222  1.9893
    1SOL    MW4 6724   4.278   2.829   2.794  0.3667 -0.1709  0.5634
    1SOL     OW 6725   4.253   3.091   2.669  0.0751 -0.4930 -0.1029
    1SOL    HW2 6726   4.186   3.153   2.698  0.8000 -0.0465  0.6428
    1SOL    HW3 6727   4.246   3.091   2.574 -0.4976  0.1036 -0.0623
    1SOL    MW4 6728   4.243   3.099   2.660  0.0949 -0.3555  0.0007
    1SOL     OW 6729   4.052   3.244   2.781  1.2245 -0.0047  0.0121
    1SOL    HW2 6730   4.040   3.329   2.740  1.6289 -0.3071 -0.7402
    1SOL    HW3 6731   3.984   3.189   2.742  0.6057  0.1126  0.9046
    1SOL    MW4 6732   4.041   3.248   2.771  1.1964 -0.0291  0.0308
    1SOL     OW 6733   4.032   3.506   2.684 -0.5281 -0.1099 -0.4204
    1SOL    HW2 6734   4.100   3.563   2.721 -0.2407 -0.5750 -0.2253
    1SOL    HW3 6735   4.055   3.499   2.591 -0.7607  0.3692 -0.5145
    1SOL    MW4 6736   4.044   3.513   2.676 -0.5212 -0.1080 -0.4070
    1SOL     OW 6737   4.251   3.641   2.779  0.6306 -0.4337 -0.3661
    1SOL    HW2 6738   4.257   3.637   2.874 -1.0449  1.5603 -0.1325
    1SOL    HW3 6739   4.328   3.595   2.747  0.4582 -2.4076  1.9395
    1SOL    MW4 6740   4.262   3.635   2.787  0.3872 -0.4311 -0.0310
    1SOL     OW 6741   4.254   3.891   2.611  0.0074 -0.0245  0.2654
    1SOL    HW2 6742   4.248   3.811   2.662 -0.1820 -0.2740 -0.1481
    1SOL    HW3 6743   4.336   3.932   2.641  1.0203 -1.2465 -0.7944
    1SOL    MW4 6744   4.264   3.886   2.622  0.1159 -0.2186  0.0710
    1SOL     OW 6745   4.020   4.013   2.704 -0.3495  0.4157  0.1769
    1SOL    HW2 6746   4.029   4.025   2.799 -1.4809 -2.3286  0.7021
    1SOL    HW3 6747   4.100   3.967   2.678 -0.6603 -0.0763  0.0749
    1SOL    MW4 6748   4.032   4.008   2.713 -0.5403 -0.0119  0.2325
    1SOL     OW 6749   3.995   4.274   2.602 -0.4232 -0.0319 -0.6476
    1SOL    HW2 6750   4.001   4.183   2.630  0.1250  0.5164  1.0764
    1SOL    HW3 6751   4.014   4.272   2.508  1.0717 -1.5026 -0.3261
    1SOL    MW4 6752   3.998   4.262   2.593 -0.1538 -0.1540 -0.3777
    1SOL     OW 6753   4.237   4.352   2.724 -0.2011 -0.2352  0.2572
    1SOL    HW2 6754   4.163   4.309   2.682 -0.8728  1.5464 -0.4229
    1SOL    HW3 6755   4.241   4.439   2.684  2.1671 -0.2365  0.3814
    1SOL    MW4 6756   4.228   4.358   2.713  0.0229 -0.0005  0.1836
    1SOL     OW 6757   0.194   4.644   3.082  0.5396 -0.1202 -0.7753
    1SOL    HW2 6758   0.202   4.656   3.177 -0.3739 -2.1387 -0.4094
    1SOL    HW3 6759   0.124   4.703   3.056 -0.2173 -0.6310  0.0666
    1SOL    MW4 6760   0.186   4.653   3.091  0.3192 -0.4539 -0.6158
    1SOL     OW 6761   4.486   0.145   2.945 -0.3708 -0.2316  0.0333
    1SOL    HW2 6762   4.412   0.094   2.978  1.6449 -1.6837  2.5049
    1SOL    HW3 6763   4.480   0.229   2.991 -1.3435  0.2769 -0.9781
    1SOL    MW4 6764   4.476   0.150   2.955 -0.2327 -0.3561  0.2258
    1SOL     OW 6765   4.470   0.376   3.090 -0.1825  0.2584 -0.2381
    1SOL    HW2 6766   4.479   0.378   3.185  0.7627  0.2835 -0.3258
    1SOL    HW3 6767   4.386   0.419   3.073 -0.3187  0.3228  0.5763
    1SOL    MW4 6768   4.460   0.382   3.100 -0.0758  0.2702 -0.1423
    1SOL     OW 6769   0.181   0.501   2.955 -0.7731 -0.1703  0.1926
    1SOL    HW2 6770   0.259   0.458   2.992 -0.0538 -0.5293 -1.6904
    1SOL    HW3 6771   0.108   0.447   2.985 -0.0122 -1.7638 -0.7585
    1SOL    MW4 6772   0.182   0.488   2.964 -0.5778 -0.4279 -0.1812
    1SOL     OW 6773   0.193   0.759   3.078  0.3180 -0.0612 -0.1323
    1SOL    HW2 6774   0.216   0.744   3.170  0.9444  0.0526 -0.2671
    1SOL    HW3 6775   0.166   0.673   3.045  0.2607 -0.1356  0.1111
    1SOL    MW4 6776   0.193   0.746   3.086  0.3931 -0.0560 -0.1178
    1SOL     OW 6777   4.475   0.912   3.003 -0.4807 -0.5286 -0.0272
    1SOL    HW2 6778   4.558   0.867   3.020 -0.2946 -0.3061 -0.3511
    1SOL    HW3 6779   4.468   0.914   2.907  0.5056  1.9725 -0.0736
    1SOL    MW4 6780   4.485   0.906   2.992 -0.3266 -0.1693 -0.0761
    1SOL     OW 6781   4.446   1.168   3.140 -0.4819 -0.6074 -0.2845
    1SOL    HW2 6782   4.375   1.219   3.099  0.4822 -0.3666 -1.6595
    1SOL    HW3 6783   4.434   1.079   3.108 -0.6046 -0.7277  0.0858
    1SOL    MW4 6784   4.435   1.163   3.130 -0.3710 -0.5916 -0.4170
    1SOL     OW 6785   0.189   1.251   3.006 -0.2745 -0.5513  0.2606
    1SOL    HW2 6786   0.107   1.220   3.044 -1.1471  1.9905  0.5648
    1SOL    HW3 6787   0.172   1.252   2.911 -0.5782 -0.1078  0.3167
    1SOL    MW4 6788   0.176   1.247   2.998 -0.4297 -0.1575  0.3080
    1SOL     OW 6789   0.217   1.506   3.096  0.3912 -0.3751  0.1256
    1SOL    HW2 6790   0.142   1.558   3.066  0.6643 -0.5119 -0.8225
    1SOL    HW3 6791   0.200   1.418   3.063  1.4203 -0.1987 -0.9250
    1SOL    MW4 6792   0.205   1.502   3.088  0.5630 -0.3699 -0.1383
    1SOL     OW 6793   0.007   1.674   3.020 -0.4129 -0.2533 -0.0585
    1SOL    HW2 6794  -0.071   1.628   3.052  0.2073 -0.2012  1.5499
    1SOL    HW3 6795  -0.005   1.764   3.049 -0.2225 -0.0215 -0.6837
    1SOL    MW4 6796  -0.005   1.680   3.028 -0.3057 -0.2159  0.0713
    1SOL     OW 6797   4.475   1.933   3.101 -0.3028  0.1219 -0.1476
    1SOL    HW2 6798   4.394   1.977   3.075  0.0585  1.6086  1.1281
    1SOL    HW3 6799   4.543   1.976   3.049  0.1529  1.6572  1.6647
    1SOL    MW4 6800   4.473   1.945   3.091 -0.1950  0.5205  0.2596
    1SOL     OW 6801   0.207   2.048   3.000 -0.0223  0.2240  0.1513
    1SOL    HW2 6802   0.213   2.143   3.011  1.2161  0.1053  0.5629
    1SOL    HW3 6803   0.225   2.033   2.907  1.0445  0.2960  0.3408
    1SOL    MW4 6804   0.210   2.059   2.989  0.2819  0.2179  0.2308
    1SOL     OW 6805   0.227   2.314   3.075  0.2408  0.1052 -0.7060
    1SOL    HW2 6806   0.242   2.321   3.169 -0.4550  1.6961 -0.6854
    1SOL    HW3 6807   0.300   2.361   3.035 -0.1164  0.4883 -0.9128
    1SOL    MW4 6808   0.239   2.321   3.082  0.1019  0.3657 -0.7308
    1SOL     OW 6809   4.481   2.433   3.038  0.3151 -0.5213  0.5244
    1SOL    HW2 6810   4.495   2.520   3.075 -1.6249 -0.6782  1.7116
    1SOL    HW3 6811   4.563   2.386   3.052  1.0820  0.8438  0.6300
    1SOL    MW4 6812   4.493   2.438   3.045  0.1612 -0.3617  0.6950
    1SOL     OW 6813   0.001   2.699   3.114  0.2401  0.2758 -0.1105
    1SOL    HW2 6814   0.009   2.719   3.207  0.5788 -1.0881  0.1673
    1SOL    HW3 6815   0.072   2.747   3.072  0.4364  0.4415  0.4146
    1SOL    MW4 6816   0.011   2.708   3.121  0.3104  0.1175 -0.0045
    1SOL     OW 6817   0.223   2.854   2.992  0.0076  0.1378 -0.0438
    1SOL    HW2 6818   0.299   2.811   3.033 -0.4241 -1.3020 -0.7333
    1SOL    HW3 6819   0.246   2.860   2.899 -0.9849 -0.8855 -0.3624
    1SOL    MW4 6820   0.236   2.849   2.985 -0.1803 -0.1874 -0.1767
    1SOL     OW 6821   0.230   3.066   3.176 -0.0951  0.1812 -0.0397
    1SOL    HW2 6822   0.191   3.140   3.130 -0.7687 -0.6981 -0.9201
    1SOL    HW3 6823   0.196   2.989   3.130  2.9277 -0.6318 -1.0519
    1SOL    MW4 6824   0.220   3.065   3.164  0.2148 -0.0420 -0.2894
    1SOL     OW 6825   0.042   3.250   3.021 -0.3600  0.0621 -0.0097
    1SOL    HW2 6826  -0.032   3.193   3.042 -0.0330 -0.1859  0.4768
    1SOL    HW3 6827   0.052   3.242   2.926 -1.2389  0.4441 -0.1452
    1SOL    MW4 6828   0.033   3.242   3.011 -0.4327  0.0799  0.0365
    1SOL     OW 6829   0.016   3.509   3.139 -0.1552  0.1154  0.1656
    1SOL    HW2 6830  -0.060   3.550   3.098  1.0729  1.3605 -0.9279
    1SOL    HW3 6831   0.022   3.422   3.098 -0.8399  0.0972  0.0990
    1SOL    MW4 6832   0.006   3.503   3.128 -0.0835  0.2773  0.0124
    1SOL     OW 6833   0.235   3.615   3.010 -0.3356 -0.0154 -0.0723
    1SOL    HW2 6834   0.228   3.708   3.031 -0.1982 -0.1242  0.4644
    1SOL    HW3 6835   0.160   3.574   3.054 -0.0006 -0.2554  0.2860
    1SOL    MW4 6836   0.225   3.622   3.019 -0.2733 -0.0613  0.0458
    1SOL     OW 6837   0.225   3.872   3.116  0.0445  0.1728  0.1735
    1SOL    HW2 6838   0.227   3.871   3.212  1.5045 -0.7336  0.1571
    1SOL    HW3 6839   0.298   3.930   3.092 -0.0485  0.0559 -0.3876
    1SOL    MW4 6840   0.235   3.879   3.125  0.2248  0.0377  0.0975
    1SOL     OW 6841   4.477   3.946   3.017  0.2009  0.0505 -0.0961
    1SOL    HW2 6842   4.557   3.912   3.058  0.4787 -0.2730 -0.8970
    1SOL    HW3 6843   4.502   3.963   2.926 -0.9079 -1.0200 -0.6197
    1SOL    MW4 6844   4.491   3.944   3.011  0.0916 -0.1335 -0.2708
    1SOL     OW 6845   4.490   4.224   3.082  0.2040  0.0619 -0.0344
    1SOL    HW2 6846   4.518   4.219   3.174  0.3274 -0.1320 -0.0829
    1SOL    HW3 6847   4.483   4.133   3.054  0.0951  0.1209 -0.1967
    1SOL    MW4 6848   4.493   4.211   3.091  0.2058  0.0439 -0.0625
    1SOL     OW 6849   0.223   4.392   2.990  0.2075 -0.3110  0.2801
    1SOL    HW2 6850   0.158   4.331   3.023 -0.3338  0.5043  0.7457
    1SOL    HW3 6851   0.195   4.477   3.023  0.9779  0.1845 -0.3147
    1SOL    MW4 6852   0.211   4.395   2.998  0.2378 -0.1378  0.2632
    1SOL     OW 6853   0.649   0.041   3.125  0.4796  0.0642  0.1061
    1SOL    HW2 6854   0.661  -0.050   3.099  0.5349  0.5793 -1.7388
    1SOL    HW3 6855   0.564   0.066   3.088  1.3248  1.3092 -1.0336
    1SOL    MW4 6856   0.639   0.033   3.117  0.5984  0.2963 -0.2875
    1SOL     OW 6857   0.423   0.109   3.009  0.1734 -0.0189  0.3538
    1SOL    HW2 6858   0.415   0.201   3.035  1.7971  0.3388 -0.4041
    1SOL    HW3 6859   0.340   0.070   3.038 -1.4961  2.1447 -1.2699
    1SOL    MW4 6860   0.411   0.116   3.016  0.1673  0.3137  0.0396
    1SOL     OW 6861   0.425   0.385   3.093 -0.3533  0.2677 -0.3096
    1SOL    HW2 6862   0.436   0.394   3.187  1.4694  0.3409 -0.5102
    1SOL    HW3 6863   0.497   0.435   3.055 -1.0140  0.1660 -1.7414
    1SOL    MW4 6864   0.436   0.393   3.100 -0.2000  0.2639 -0.5250
    1SOL     OW 6865   0.635   0.524   2.966 -0.0906 -0.2390  0.0343
    1SOL    HW2 6866   0.718   0.484   2.992 -0.4667 -0.9993  0.0826
    1SOL    HW3 6867   0.633   0.608   3.012  0.5052 -0.3608  0.2852
    1SOL    MW4 6868   0.646   0.530   2.975 -0.0616 -0.3553  0.0739
    1SOL     OW 6869   0.654   0.765   3.100  0.0461  0.0640 -0.0045
    1SOL    HW2 6870   0.656   0.768   3.196 -2.5304  0.7693  0.0536
    1SOL    HW3 6871   0.736   0.805   3.073  0.5012  0.4577  1.9051
    1SOL    MW4 6872   0.665   0.770   3.109 -0.2338  0.2090  0.2549
    1SOL     OW 6873   0.435   0.884   2.982  0.0128  0.1369 -0.1942
    1SOL    HW2 6874   0.362   0.824   2.998 -0.1282 -0.0751 -1.5405
    1SOL    HW3 6875   0.509   0.846   3.029 -0.4131 -0.3795  0.0566
    1SOL    MW4 6876   0.435   0.871   2.990 -0.0620  0.0408 -0.3390
    1SOL     OW 6877   0.414   1.112   3.117 -0.1467  0.2937 -0.8145
    1SOL    HW2 6878   0.428   1.029   3.072  0.0155  0.3875 -0.9391
    1SOL    HW3 6879   0.331   1.145   3.083 -0.8349 -0.4176  0.1611
    1SOL    MW4 6880   0.405   1.106   3.107 -0.2161  0.2123 -0.7021
    1SOL     OW 6881   0.630   1.254   3.002 -0.3260 -0.4193  0.1276
    1SOL    HW2 6882   0.708   1.221   3.048 -0.1074 -0.5949 -0.3637
    1SOL    HW3 6883   0.557   1.208   3.043  0.0242 -2.0319 -0.9844
    1SOL    MW4 6884   0.631   1.243   3.013 -0.2510 -0.6552 -0.0839
    1SOL     OW 6885   0.668   1.531   3.055 -0.2173 -0.3399 -0.1615
    1SOL    HW2 6886   0.662   1.534   3.150 -0.3419  1.6099 -0.2061
    1SOL    HW3 6887   0.650   1.440   3.032  1.9277 -1.3239  1.8236
    1SOL    MW4 6888   0.665   1.520   3.064  0.0493 -0.2126  0.0944
    1SOL     OW 6889   0.423   1.666   3.034 -0.4119  0.4335 -0.6824
    1SOL    HW2 6890   0.502   1.612   3.036 -0.2696  0.6682  0.1848
    1SOL    HW3 6891   0.354   1.609   3.066  0.0375  1.2325  1.8021
    1SOL    MW4 6892   0.425   1.651   3.038 -0.3338  0.5697 -0.2401
    1SOL     OW 6893   0.434   1.920   3.118  0.0977 -0.4651 -0.4760
    1SOL    HW2 6894   0.423   1.828   3.092 -0.8109 -0.4075 -0.3284
    1SOL    HW3 6895   0.352   1.962   3.091  0.4427  0.2676 -0.3864
    1SOL    MW4 6896   0.422   1.913   3.111  0.0233 -0.3607 -0.4449
    1SOL     OW 6897   0.679   2.039   3.017  0.0370 -0.6031  0.3945
    1SOL    HW2 6898   0.753   1.994   3.058  1.1343 -1.0307 -1.9927
    1SOL    HW3 6899   0.602   1.999   3.058  1.0735 -1.3989  1.6300
    1SOL    MW4 6900   0.679   2.028   3.028  0.3185 -0.7646  0.2425
    1SOL     OW 6901   0.621   2.294   3.108  0.0759 -0.6304 -0.0602
    1SOL    HW2 6902   0.629   2.289   3.203  1.1885  2.6032  0.0763
    1SOL    HW3 6903   0.656   2.210   3.077  0.6843 -1.2983  2.3290
    1SOL    MW4 6904   0.627   2.282   3.116  0.3029 -0.2921  0.2730
    1SOL     OW 6905   0.462   2.464   2.957 -0.0675  0.0313 -0.0077
    1SOL    HW2 6906   0.519   2.408   3.009 -0.1187 -0.4646 -0.4829
    1SOL    HW3 6907   0.463   2.426   2.870 -0.8990  0.1798 -0.0916
    1SOL    MW4 6908   0.469   2.452   2.952 -0.1840 -0.0143 -0.0815
    1SOL     OW 6909   0.423   2.695   3.094 -0.0003  0.2957  0.3389
    1SOL    HW2 6910   0.512   2.718   3.066  0.5596 -0.5245  1.4490
    1SOL    HW3 6911   0.403   2.615   3.046  0.3456 -0.2202  1.0518
    1SOL    MW4 6912   0.432   2.687   3.084  0.1192  0.1194  0.5791
    1SOL     OW 6913   0.651   2.825   3.055  0.3056  0.0950 -0.2540
    1SOL    HW2 6914   0.742   2.808   3.081  0.4054 -0.8800 -1.2181
    1SOL    HW3 6915   0.638   2.918   3.072  2.1419  0.7068 -2.1074
    1SOL    MW4 6916   0.661   2.835   3.061  0.5610  0.0472 -0.6258
    1SOL     OW 6917   0.666   3.087   3.117 -0.5296  0.3345 -0.1486
    1SOL    HW2 6918   0.665   3.111   3.210 -0.6339  0.1799 -0.1100
    1SOL    HW3 6919   0.588   3.129   3.081 -1.0824 -0.4959  0.0561
    1SOL    MW4 6920   0.656   3.096   3.124 -0.6163  0.2046 -0.1166
    1SOL     OW 6921   0.425   3.182   3.006 -0.3109  0.2676 -0.4432
    1SOL    HW2 6922   0.412   3.276   3.022  0.1779  0.4598 -1.1370
    1SOL    HW3 6923   0.360   3.139   3.061 -0.5358  1.0156 -0.1131
    1SOL    MW4 6924   0.415   3.189   3.016 -0.2761  0.3917 -0.4911
    1SOL     OW 6925   0.458   3.450   3.096 -0.3778 -0.2577 -0.1651
    1SOL    HW2 6926   0.469   3.452   3.191  0.1714 -1.0651 -0.2069
    1SOL    HW3 6927   0.390   3.515   3.078  0.1079  0.5086  0.6990
    1SOL    MW4 6928   0.451   3.459   3.106 -0.2413 -0.2630 -0.0567
    1SOL     OW 6929   0.678   3.603   3.021  0.2020 -0.4278 -0.0276
    1SOL    HW2 6930   0.760   3.567   3.055 -0.0846 -0.1424  0.9788
    1SOL    HW3 6931   0.614   3.534   3.036 -0.0525 -0.0611  0.5873
    1SOL    MW4 6932   0.681   3.589   3.027  0.1306 -0.3417  0.1864
    1SOL     OW 6933   0.636   3.864   3.101  0.0121  0.0216  0.4644
    1SOL    HW2 6934   0.656   3.859   3.194  1.4194  0.2214  0.1839
    1SOL    HW3 6935   0.644   3.774   3.070  1.5022  0.2384  0.1637
    1SOL    MW4 6936   0.640   3.851   3.109  0.3943  0.0768  0.3877
    1SOL     OW 6937   0.431   4.027   3.019 -0.3271  0.1474 -0.1179
    1SOL    HW2 6938   0.503   3.968   3.039 -0.2338  0.2939 -0.0143
    1SOL    HW3 6939   0.419   4.019   2.925  1.5158  2.0142 -0.5567
    1SOL    MW4 6940   0.439   4.018   3.010 -0.0716  0.4134 -0.1621
    1SOL     OW 6941   0.447   4.290   3.131 -0.4436  0.1021  0.0873
    1SOL    HW2 6942   0.455   4.204   3.090  1.1139  0.0961  0.3885
    1SOL    HW3 6943   0.371   4.330   3.089 -1.9284 -1.8855  0.7862
    1SOL    MW4 6944   0.438   4.284   3.120 -0.4340 -0.1607  0.2193
    1SOL     OW 6945   0.668   4.447   3.048  0.0552  0.1440 -0.0209
    1SOL    HW2 6946   0.594   4.388   3.061 -1.1871  1.3603 -1.4005
    1SOL    HW3 6947   0.692   4.436   2.956 -0.6468  2.2879 -0.4785
    1SOL    MW4 6948   0.662   4.437   3.037 -0.2013  0.5875 -0.2632
    1SOL     OW 6949   1.096   0.012   3.110 -0.4767 -0.5589  0.1046
    1SOL    HW2 6950   1.182   0.042   3.080 -0.2767 -0.8995  0.3434
    1SOL    HW3 6951   1.034   0.066   3.061 -0.1510 -1.0725 -0.8835
    1SOL    MW4 6952   1.099   0.023   3.099 -0.4075 -0.6716  0.0057
    1SOL     OW 6953   0.869   0.155   3.004 -0.7621  0.4302  0.0628
    1SOL    HW2 6954   0.889   0.238   3.047  0.0568  0.0432  0.4385
    1SOL    HW3 6955   0.790   0.124   3.048 -0.1613  0.2352  1.0109
    1SOL    MW4 6956   0.861   0.162   3.015 -0.5748  0.3534  0.2375
    1SOL     OW 6957   0.892   0.405   3.113  0.6133 -0.2849  0.1393
    1SOL    HW2 6958   0.892   0.394   3.208  1.6070 -0.4589  0.1284
    1SOL    HW3 6959   0.980   0.438   3.093  0.1954  0.3419 -0.6533
    1SOL    MW4 6960   0.904   0.408   3.123  0.6893 -0.2252  0.0331
    1SOL     OW 6961   1.134   0.495   3.037  0.0029  0.0073 -0.1527
    1SOL    HW2 6962   1.213   0.444   3.057  0.3837  0.6796  0.0825
    1SOL    HW3 6963   1.127   0.491   2.941  0.9941  0.9193 -0.2750
    1SOL    MW4 6964   1.144   0.488   3.027  0.1838  0.2163 -0.1376
    1SOL     OW 6965   1.121   0.776   3.107  0.5313 -0.4200  0.2873
    1SOL    HW2 6966   1.108   0.788   3.201  0.1001  1.3954  0.0152
    1SOL    HW3 6967   1.119   0.681   3.094  0.2233 -0.6652  2.0481
    1SOL    MW4 6968   1.119   0.765   3.118  0.4339 -0.2128  0.4835
    1SOL     OW 6969   0.894   0.885   3.005  0.0718 -0.2820  0.2239
    1SOL    HW2 6970   0.893   0.977   3.032 -1.3474  0.4460 -2.1424
    1SOL    HW3 6971   0.980   0.853   3.034  0.6378  1.8004  1.0015
    1SOL    MW4 6972   0.906   0.893   3.012 -0.0407  0.0888  0.0145
    1SOL     OW 6973   0.864   1.149   3.117  0.4027 -0.5231  0.0041
    1SOL    HW2 6974   0.888   1.145   3.209  0.7700 -1.7188 -0.1301
    1SOL    HW3 6975   0.929   1.207   3.077  1.3889 -1.5038  0.1602
    1SOL    MW4 6976   0.876   1.156   3.124  0.5813 -0.8101  0.0072
    1SOL     OW 6977   1.094   1.280   2.986 -0.1162  0.0409  0.4180
    1SOL    HW2 6978   1.173   1.224   2.984 -1.0162 -1.2438 -0.0573
    1SOL    HW3 6979   1.069   1.287   2.894 -0.9425 -0.1078  0.6347
    1SOL    MW4 6980   1.101   1.273   2.973 -0.3439 -0.1483  0.3839
    1SOL     OW 6981   1.127   1.534   3.098  0.2566 -0.3488  0.1775
    1SOL    HW2 6982   1.213   1.564   3.070  0.5458 -1.7548 -0.4853
    1SOL    HW3 6983   1.122   1.443   3.066 -0.7805 -0.8406  1.7002
    1SOL    MW4 6984   1.138   1.526   3.090  0.1578 -0.5991  0.2909
    1SOL     OW 6985   0.921   1.653   2.984 -0.1205 -0.0656 -0.5897
    1SOL    HW2 6986   0.994   1.607   3.025  1.2755 -0.8415 -3.8285
    1SOL    HW3 6987   0.843   1.610   3.019  0.9986 -0.8756  1.0057
    1SOL    MW4 6988   0.921   1.642   2.994  0.2113 -0.2747 -0.8066
    1SOL     OW 6989   0.896   1.888   3.113  0.0555  0.1406  0.3388
    1SOL    HW2 6990   0.907   1.889   3.208  0.4730  0.6538  0.2846
    1SOL    HW3 6991   0.926   1.802   3.086  0.2087  0.1020  0.6385
    1SOL    MW4 6992   0.901   1.877   3.122  0.1308  0.2033  0.3712
    1SOL     OW 6993   1.085   2.066   3.042  0.4275  0.2960 -0.0611
    1SOL    HW2 6994   1.015   2.005   3.065  0.5513  0.3772  0.5214
    1SOL    HW3 6995   1.097   2.054   2.947 -0.0341 -0.0713 -0.0723
    1SOL    MW4 6996   1.077   2.057   3.032  0.3829  0.2582  0.0143
    1SOL     OW 6997   1.107   2.338   3.127 -0.2604  0.3744  0.3507
    1SOL    HW2 6998   1.028   2.378   3.090  1.1221  0.9879 -1.9963
    1SOL    HW3 6999   1.105   2.248   3.095 -0.7006 -0.0140  1.4317
    1SOL    MW4 7000   1.096   2.331   3.118 -0.1361  0.4039  0.1836
    1SOL     OW 7001   0.848   2.437   3.019  0.2367  0.2726  0.0575
    1SOL    HW2 7002   0.758   2.414   3.044  0.4646 -1.3107 -0.5037
    1SOL    HW3 7003   0.858   2.400   2.931  1.7959 -0.5362  0.5584
    1SOL    MW4 7004   0.837   2.429   3.011  0.4725 -0.0432  0.0496
    1SOL     OW 7005   0.923   2.698   3.104  0.2536  0.5742  0.7173
    1SOL    HW2 7006   0.902   2.699   3.198 -0.0495 -0.7784  0.6743
    1SOL    HW3 7007   0.884   2.617   3.072  0.5853  0.9011 -0.5361
    1SOL    MW4 7008   0.915   2.688   3.112  0.2574  0.4387  0.5462
    1SOL     OW 7009   1.130   2.839   2.980 -0.2374  0.3052  0.1502
    1SOL    HW2 7010   1.121   2.928   3.014  0.6271  0.2283  0.5645
    1SOL    HW3 7011   1.049   2.796   3.007 -0.0561  0.5664  1.1410
    1SOL    MW4 7012   1.118   2.845   2.988 -0.0995  0.3297  0.3355
    1SOL     OW 7013   1.127   3.085   3.085  0.3546 -0.1716 -0.2461
    1SOL    HW2 7014   1.201   3.140   3.061 -0.6537  0.0291 -3.1747
    1SOL    HW3 7015   1.051   3.132   3.052 -0.9015 -1.3322  0.9233
    1SOL    MW4 7016   1.127   3.098   3.077  0.0558 -0.2983 -0.4783
    1SOL     OW 7017   0.896   3.224   3.032  0.3423  0.0572 -0.2404
    1SOL    HW2 7018   0.830   3.162   3.062 -1.6106  2.4477  0.5728
    1SOL    HW3 7019   0.893   3.218   2.936 -0.9693  0.0450 -0.2097
    1SOL    MW4 7020   0.887   3.215   3.023 -0.0885  0.3710 -0.1290
    1SOL     OW 7021   0.905   3.477   3.155  0.2920  0.0106 -0.4052
    1SOL    HW2 7022   0.975   3.520   3.107  0.1379 -0.2753 -0.8948
    1SOL    HW3 7023   0.895   3.392   3.112 -0.9958  0.4257 -0.9652
    1SOL    MW4 7024   0.913   3.471   3.143  0.1017  0.0279 -0.5436
    1SOL     OW 7025   1.100   3.644   3.009 -0.0786  0.0979  0.1767
    1SOL    HW2 7026   1.171   3.590   3.045  0.0062 -0.8666 -1.4074
    1SOL    HW3 7027   1.109   3.728   3.055  0.6883 -0.7451  1.6167
    1SOL    MW4 7028   1.111   3.648   3.020  0.0337 -0.1404  0.1576
    1SOL     OW 7029   1.112   3.895   3.139 -0.3019 -0.0251 -0.4561
    1SOL    HW2 7030   1.115   3.903   3.234  0.9017 -0.7359 -0.4361
    1SOL    HW3 7031   1.034   3.945   3.114 -0.9705 -0.3390  0.9490
    1SOL    MW4 7032   1.102   3.902   3.148 -0.2314 -0.1605 -0.2680
    1SOL     OW 7033   0.890   4.022   3.036  0.4259 -0.0252  0.2209
    1SOL    HW2 7034   0.821   3.960   3.060  1.0764 -0.7746  0.1625
    1SOL    HW3 7035   0.896   4.016   2.941  0.9733 -0.3894  0.2769
    1SOL    MW4 7036   0.882   4.013   3.027  0.5839 -0.1721  0.2208
    1SOL     OW 7037   0.906   4.304   3.125 -0.2596 -0.3822 -0.2710
    1SOL    HW2 7038   0.908   4.213   3.097 -1.8977 -0.4137 -0.3416
    1SOL    HW3 7039   0.828   4.340   3.082  1.7657  1.7361 -2.3567
    1SOL    MW4 7040   0.896   4.297   3.115 -0.2086 -0.1073 -0.5553
    1SOL     OW 7041   1.130   4.419   3.024  0.2546 -0.4437  0.3703
    1SOL    HW2 7042   1.058   4.370   3.064 -0.2308 -0.1809 -0.1853
    1SOL    HW3 7043   1.114   4.510   3.050 -0.2546 -0.2250 -0.7248
    1SOL    MW4 7044   1.118   4.425   3.033  0.1234 -0.3805  0.1526
    1SOL     OW 7045   1.580   4.634   3.146  0.2411  0.2788 -0.4332
    1SOL    HW2 7046   1.575   4.633   3.241  0.3727  1.7715 -0.3929
    1SOL    HW3 7047   1.490   4.646   3.117  0.1627 -0.4889 -0.5039
    1SOL    MW4 7048   1.568   4.635   3.155  0.2481  0.3748 -0.4373
    1SOL     OW 7049   1.355   0.080   3.008  0.1823 -0.0159 -0.0824
    1SOL    HW2 7050   1.352   0.173   3.029  0.9975  0.0470 -0.2281
    1SOL    HW3 7051   1.364   0.077   2.912  1.5258 -0.2211  0.0494
    1SOL    MW4 7052   1.356   0.092   2.998  0.4671 -0.0347 -0.0844
    1SOL     OW 7053   1.372   0.343   3.091  0.1117 -0.0850 -0.0019
    1SOL    HW2 7054   1.386   0.345   3.185  0.1458  0.1961 -0.0098
    1SOL    HW3 7055   1.451   0.384   3.054 -0.2062  0.4473 -0.1092
    1SOL    MW4 7056   1.384   0.349   3.099  0.0743  0.0223 -0.0172
    1SOL     OW 7057   1.577   0.510   3.000 -0.5713 -0.0791  0.2330
    1SOL    HW2 7058   1.573   0.602   3.027 -3.9163  0.1124 -0.5873
    1SOL    HW3 7059   1.608   0.513   2.910 -1.3076  0.3229 -0.0141
    1SOL    MW4 7060   1.580   0.523   2.992 -1.1096 -0.0008  0.0920
    1SOL     OW 7061   1.583   0.766   3.075  0.1760  0.0367  0.3194
    1SOL    HW2 7062   1.575   0.784   3.169  1.4910 -0.1877  0.4871
    1SOL    HW3 7063   1.509   0.811   3.035 -0.5456 -0.0928  1.4979
    1SOL    MW4 7064   1.573   0.774   3.082  0.2543 -0.0100  0.4971
    1SOL     OW 7065   1.353   0.873   2.966  0.0332 -0.1127  0.1906
    1SOL    HW2 7066   1.338   0.966   2.985 -1.2399 -0.2741  0.0407
    1SOL    HW3 7067   1.285   0.827   3.016  0.8800 -0.9875  0.5363
    1SOL    MW4 7068   1.342   0.880   2.975 -0.0230 -0.2494  0.2162
    1SOL     OW 7069   1.339   1.139   3.047  0.4821 -0.4209  0.0387
    1SOL    HW2 7070   1.328   1.131   3.141  1.2046  2.3534  0.4011
    1SOL    HW3 7071   1.427   1.177   3.036  0.0336  0.1633 -1.6816
    1SOL    MW4 7072   1.349   1.143   3.058  0.5182  0.0224 -0.1407
    1SOL     OW 7073   1.592   1.251   2.996  0.3845 -0.1225  0.0012
    1SOL    HW2 7074   1.672   1.216   3.036  1.5931  1.4011 -1.0228
    1SOL    HW3 7075   1.591   1.343   3.022 -0.5732  0.0685 -0.7053
    1SOL    MW4 7076   1.603   1.258   3.004  0.4176  0.1036 -0.2270
    1SOL     OW 7077   1.617   1.505   3.084 -0.2789 -0.3115 -0.6536
    1SOL    HW2 7078   1.685   1.567   3.056 -0.5933  0.5022  0.3718
    1SOL    HW3 7079   1.535   1.550   3.065 -0.5248 -0.9334 -1.0631
    1SOL    MW4 7080   1.616   1.519   3.078 -0.3529 -0.2861 -0.5722
    1SOL     OW 7081   1.376   1.665   3.026 -0.0876 -0.0145  0.0447
    1SOL    HW2 7082   1.361   1.754   3.055 -0.6681 -0.1204  0.0759
    1SOL    HW3 7083   1.357   1.667   2.932 -0.4355 -0.1792  0.1100
    1SOL    MW4 7084   1.371   1.677   3.017 -0.2100 -0.0502  0.0572
    1SOL     OW 7085   1.309   1.922   3.124  0.4997  0.1338 -0.6389
    1SOL    HW2 7086   1.313   1.953   3.214 -0.9780 -1.8238  0.1358
    1SOL    HW3 7087   1.233   1.965   3.086 -1.5790 -2.4753  0.4501
    1SOL    MW4 7088   1.300   1.932   3.131  0.0304 -0.4687 -0.3932
    1SOL     OW 7089   1.534   2.047   3.002  0.2902 -0.1253 -0.0355
    1SOL    HW2 7090   1.450   2.009   3.029  0.2426 -0.4267 -0.5971
    1SOL    HW3 7091   1.538   2.031   2.908  1.3313 -0.7974  0.1116
    1SOL    MW4 7092   1.523   2.040   2.993  0.4213 -0.2537 -0.0904
    1SOL     OW 7093   1.588   2.318   3.081  0.1822  0.2818  0.3567
    1SOL    HW2 7094   1.504   2.363   3.068  0.2050 -0.0455 -0.9943
    1SOL    HW3 7095   1.569   2.226   3.065  0.6325  0.1020  0.8452
    1SOL    MW4 7096   1.575   2.312   3.078  0.2446  0.2148  0.2427
    1SOL     OW 7097   1.335   2.424   3.016 -0.3330  0.2999 -0.2726
    1SOL    HW2 7098   1.250   2.392   3.047 -0.4709  0.5188 -0.4269
    1SOL    HW3 7099   1.328   2.421   2.921 -0.4317  1.0325 -0.2855
    1SOL    MW4 7100   1.323   2.419   3.008 -0.3641  0.4256 -0.2944
    1SOL     OW 7101   1.338   2.692   3.122  0.0911 -0.1585 -0.0625
    1SOL    HW2 7102   1.338   2.600   3.097  1.0069  0.0659 -0.9071
    1SOL    HW3 7103   1.258   2.727   3.082 -0.4329 -0.6524  0.5405
    1SOL    MW4 7104   1.327   2.685   3.114  0.1428 -0.1941 -0.0944
    1SOL     OW 7105   1.558   2.811   2.983  0.0554 -0.5160 -0.4139
    1SOL    HW2 7106   1.627   2.782   3.042 -0.3552 -0.5702  0.0495
    1SOL    HW3 7107   1.477   2.781   3.025 -0.3038  0.3005 -0.5015
    1SOL    MW4 7108   1.556   2.803   2.997 -0.0461 -0.4151 -0.3641
    1SOL     OW 7109   1.548   3.077   3.082 -0.3606 -0.0432  0.1693
    1SOL    HW2 7110   1.551   3.064   3.177 -1.1262 -0.7979  0.0962
    1SOL    HW3 7111   1.569   2.991   3.046  3.3377  1.0223 -0.3738
    1SOL    MW4 7112   1.551   3.064   3.090  0.0263 -0.0024  0.0880
    1SOL     OW 7113   1.329   3.255   3.007 -0.0015 -0.6542 -0.3085
    1SOL    HW2 7114   1.401   3.198   3.035 -1.0782 -2.6998 -1.5202
    1SOL    HW3 7115   1.327   3.245   2.911 -0.9780  0.4879 -0.4150
    1SOL    MW4 7116   1.338   3.246   2.998 -0.2723 -0.7734 -0.4823
    1SOL     OW 7117   1.340   3.516   3.103 -0.3611 -0.2818 -0.3540
    1SOL    HW2 7118   1.346   3.512   3.198 -4.6047  0.8018  0.0679
    1SOL    HW3 7119   1.330   3.424   3.076  0.7562 -0.5841  0.2138
    1SOL    MW4 7120   1.340   3.503   3.112 -0.7735 -0.1788 -0.2234
    1SOL     OW 7121   1.574   3.617   3.008  0.0619  0.5520  0.1398
    1SOL    HW2 7122   1.493   3.581   3.044 -0.2977  1.6808  0.4778
    1SOL    HW3 7123   1.557   3.629   2.915 -0.3334  1.2306  0.2936
    1SOL    MW4 7124   1.561   3.614   3.001 -0.0377  0.7904  0.2046
    1SOL     OW 7125   1.554   3.872   3.127  0.1457  0.2396 -0.0894
    1SOL    HW2 7126   1.639   3.905   3.096 -0.1445  0.9368 -0.1442
    1SOL    HW3 7127   1.550   3.782   3.093  0.0511  0.8160 -1.6689
    1SOL    MW4 7128   1.565   3.865   3.118  0.0950  0.4077 -0.3052
    1SOL     OW 7129   1.330   3.988   2.984  0.4264 -0.3532  0.4194
    1SOL    HW2 7130   1.409   3.940   3.009  0.9680  0.8014  0.9745
    1SOL    HW3 7131   1.260   3.947   3.035  0.8298 -0.7802  0.6357
    1SOL    MW4 7132   1.331   3.976   2.994  0.5511 -0.2573  0.5212
    1SOL     OW 7133   1.359   4.272   3.100  0.0696  0.5034  0.3001
    1SOL    HW2 7134   1.347   4.185   3.062 -0.8825  0.3508  0.9327
    1SOL    HW3 7135   1.281   4.321   3.073 -0.3991  0.5281  1.6951
    1SOL    MW4 7136   1.347   4.267   3.091 -0.1179  0.4869  0.5677
    1SOL     OW 7137   1.575   4.411   2.971  0.5365 -0.0267  0.2879
    1SOL    HW2 7138   1.489   4.380   3.001 -0.1473  0.4498 -1.1396
    1SOL    HW3 7139   1.591   4.491   3.021 -0.5198  0.6727 -0.4698
    1SOL    MW4 7140   1.566   4.417   2.981  0.3070  0.1278 -0.0005
    1SOL     OW 7141   2.023   4.645   3.121  0.0592 -0.2742 -0.0280
    1SOL    HW2 7142   2.024   4.642   3.216 -0.6293  0.3956  0.0158
    1SOL    HW3 7143   1.942   4.692   3.100  1.6753  2.2847 -0.8530
    1SOL    MW4 7144   2.012   4.651   3.131  0.1814  0.1521 -0.1309
    1SOL     OW 7145   1.773   0.136   3.025  0.1580  0.0251 -0.1851
    1SOL    HW2 7146   1.706   0.076   3.058 -1.0174  1.3115 -0.1565
    1SOL    HW3 7147   1.755   0.143   2.931 -0.5090  1.2680  0.0159
    1SOL    MW4 7148   1.762   0.129   3.017 -0.0851  0.3588 -0.1547
    1SOL     OW 7149   1.752   0.372   3.162 -0.0145  0.2247 -0.3265
    1SOL    HW2 7150   1.742   0.285   3.124 -1.2024  0.3057 -0.1906
    1SOL    HW3 7151   1.693   0.428   3.113 -1.8739  0.2502  1.8617
    1SOL    MW4 7152   1.743   0.368   3.151 -0.4166  0.2387 -0.0200
    1SOL     OW 7153   1.988   0.439   3.031  0.2051  0.0176 -0.3228
    1SOL    HW2 7154   1.910   0.414   3.081  0.4572  2.1695  1.2232
    1SOL    HW3 7155   2.055   0.375   3.057  0.0069  0.4225  1.2379
    1SOL    MW4 7156   1.986   0.427   3.041  0.2122  0.3549  0.0873
    1SOL     OW 7157   2.042   0.683   3.145  0.4346 -0.1750  0.1583
    1SOL    HW2 7158   1.972   0.731   3.102  0.4420 -0.1739  0.1471
    1SOL    HW3 7159   2.043   0.598   3.101 -1.2475 -1.1039  1.8885
    1SOL    MW4 7160   2.033   0.678   3.134  0.2134 -0.2974  0.3853
    1SOL     OW 7161   1.838   0.857   3.046 -0.2779 -0.0177  0.5266
    1SOL    HW2 7162   1.754   0.817   3.068 -0.2874 -0.1871  0.1855
    1SOL    HW3 7163   1.839   0.860   2.951  0.2287 -0.2883  0.5216
    1SOL    MW4 7164   1.827   0.852   3.037 -0.2123 -0.0757  0.4809
    1SOL     OW 7165   1.805   1.116   3.105 -0.3453 -0.5422  0.5283
    1SOL    HW2 7166   1.811   1.131   3.199 -0.3254  0.6456  0.3534
    1SOL    HW3 7167   1.819   1.022   3.094  0.1429 -0.6076  1.6658
    1SOL    MW4 7168   1.808   1.106   3.116 -0.2782 -0.3942  0.6554
    1SOL     OW 7169   2.022   1.243   3.001  0.6150 -0.4294  0.5087
    1SOL    HW2 7170   2.104   1.201   3.027  0.3161 -1.9912 -0.9703
    1SOL    HW3 7171   1.955   1.199   3.054  0.4893 -0.6441  0.1710
    1SOL    MW4 7172   2.024   1.232   3.012  0.5591 -0.6635  0.2689
    1SOL     OW 7173   2.017   1.531   3.111 -0.2609  0.2449 -0.0595
    1SOL    HW2 7174   2.021   1.517   3.205  0.1738  1.4325  0.1067
    1SOL    HW3 7175   2.011   1.443   3.074 -1.0714 -0.2045  1.1023
    1SOL    MW4 7176   2.017   1.518   3.118 -0.3109  0.3421  0.1156
    1SOL     OW 7177   1.806   1.681   3.003 -0.4037  0.2805 -0.3624
    1SOL    HW2 7178   1.796   1.763   3.051  0.2422  0.4479 -0.5162
    1SOL    HW3 7179   1.881   1.638   3.043 -1.0594 -0.4826  0.0667
    1SOL    MW4 7180   1.815   1.686   3.014 -0.4051  0.2021 -0.3262
    1SOL     OW 7181   1.773   1.953   3.110 -0.3114 -0.2779 -0.3299
    1SOL    HW2 7182   1.843   2.013   3.084  0.7756 -0.1685  2.6435
    1SOL    HW3 7183   1.693   1.994   3.076  0.5788  2.0039  0.2057
    1SOL    MW4 7184   1.771   1.966   3.102 -0.0505  0.0376  0.1326
    1SOL     OW 7185   1.982   2.110   3.010  0.0413  0.1604 -0.0326
    1SOL    HW2 7186   2.061   2.076   3.052 -0.1934  0.3785  0.5881
    1SOL    HW3 7187   1.976   2.200   3.040  0.4259  0.6214 -1.3380
    1SOL    MW4 7188   1.991   2.117   3.019  0.0610  0.2501 -0.1230
    1SOL     OW 7189   2.007   2.352   3.118  0.0506 -0.1642 -0.0161
    1SOL    HW2 7190   2.093   2.389   3.097  0.3152 -0.6273  0.2416
    1SOL    HW3 7191   1.946   2.404   3.066 -0.0229  3.2731  3.3648
    1SOL    MW4 7192   2.011   2.364   3.108  0.0758  0.2282  0.4640
    1SOL     OW 7193   1.796   2.475   2.992  0.1034 -0.3315  0.4386
    1SOL    HW2 7194   1.782   2.560   3.033  1.3378  0.7185 -1.2527
    1SOL    HW3 7195   1.723   2.421   3.023 -1.0710  1.5428  0.9989
    1SOL    MW4 7196   1.784   2.479   3.001  0.1113  0.0544  0.2892
    1SOL     OW 7197   1.794   2.716   3.130 -0.2382  0.3136  0.3416
    1SOL    HW2 7198   1.810   2.701   3.223  0.0061  0.9899  0.4102
    1SOL    HW3 7199   1.873   2.759   3.098 -0.2150 -0.1469 -0.2357
    1SOL    MW4 7200   1.806   2.720   3.138 -0.2029  0.3421  0.2747
    1SOL     OW 7201   2.029   2.840   3.054 -0.1999  0.1394  0.1654
    1SOL    HW2 7202   2.018   2.935   3.055 -1.0314  0.0629 -0.5793
    1SOL    HW3 7203   2.022   2.816   2.962 -0.0123 -0.6410  0.3495
    1SOL    MW4 7204   2.026   2.850   3.042 -0.2851  0.0265  0.0913
    1SOL     OW 7205   2.028   3.100   3.105  0.6992  0.3326  0.3681
    1SOL    HW2 7206   2.049   3.089   3.197 -0.2380 -0.6441  0.4828
    1SOL    HW3 7207   1.942   3.141   3.105  1.4288  1.8890 -0.0831
    1SOL    MW4 7208   2.019   3.104   3.117  0.6719  0.4091  0.3235
    1SOL     OW 7209   1.785   3.231   3.049 -0.3544 -0.2955 -0.5996
    1SOL    HW2 7210   1.702   3.185   3.065  0.2887 -1.6518 -1.1439
    1SOL    HW3 7211   1.783   3.252   2.956  0.0450 -0.5772 -0.6696
    1SOL    MW4 7212   1.773   3.228   3.039 -0.2168 -0.5116 -0.6804
    1SOL     OW 7213   1.801   3.516   3.109 -0.0210  0.3989 -0.7541
    1SOL    HW2 7214   1.788   3.426   3.079  1.6744  0.6708 -2.4442
    1SOL    HW3 7215   1.724   3.563   3.078 -0.0924 -0.1313 -1.4018
    1SOL    MW4 7216   1.789   3.511   3.101  0.1932  0.3650 -1.0624
    1SOL     OW 7217   2.048   3.620   3.023  0.3469 -0.1003 -0.1668
    1SOL    HW2 7218   2.052   3.712   3.049  0.3333 -0.1048 -0.1486
    1SOL    HW3 7219   1.963   3.590   3.058  0.9595 -0.4897  1.0204
    1SOL    MW4 7220   2.037   3.629   3.031  0.4261 -0.1523 -0.0079
    1SOL     OW 7221   2.016   3.879   3.119 -0.5303  0.2426 -0.0992
    1SOL    HW2 7222   2.023   3.885   3.214  1.5236  1.0716 -0.2737
    1SOL    HW3 7223   1.936   3.926   3.097 -1.1270 -0.1461  1.2295
    1SOL    MW4 7224   2.006   3.886   3.128 -0.3381  0.3006  0.0532
    1SOL     OW 7225   1.803   4.025   3.041 -0.3974  0.1382  0.1892
    1SOL    HW2 7226   1.782   4.110   3.081 -2.8503 -0.3292 -0.0249
    1SOL    HW3 7227   1.798   4.041   2.947 -1.5777 -0.3856  0.1511
    1SOL    MW4 7228   1.799   4.038   3.034 -0.8768  0.0072  0.1562
    1SOL     OW 7229   1.761   4.285   3.162  0.2232 -0.2075 -0.0160
    1SOL    HW2 7230   1.835   4.330   3.121  1.3765 -1.9005  0.1769
    1SOL    HW3 7231   1.686   4.311   3.109  0.6511  2.9540  0.8605
    1SOL    MW4 7232   1.761   4.294   3.149  0.4319 -0.0129  0.1252
    1SOL     OW 7233   1.979   4.383   3.042  0.3781  0.1507  0.0828
    1SOL    HW2 7234   2.002   4.469   3.078  0.7730  0.4076 -0.7830
    1SOL    HW3 7235   1.967   4.398   2.949  0.1610 -0.6851 -0.0290
    1SOL    MW4 7236   1.980   4.396   3.035  0.4016  0.0749 -0.0460
    1SOL     OW 7237   2.478   4.556   3.135  0.3912  0.4274  0.0718
    1SOL    HW2 7238   2.486   4.474   3.086  0.3280 -0.1663  1.0291
    1SOL    HW3 7239   2.407   4.603   3.093 -0.0526 -0.3313 -0.0325
    1SOL    MW4 7240   2.470   4.551   3.123  0.3245  0.2489  0.1843
    1SOL     OW 7241   2.267   0.025   2.995 -0.2939  0.3809  0.1808
    1SOL    HW2 7242   2.273   0.116   3.023 -0.0338  0.3563  0.2144
    1SOL    HW3 7243   2.182  -0.005   3.025 -0.2132  0.4957  0.5243
    1SOL    MW4 7244   2.257   0.033   3.003 -0.2489  0.3928  0.2306
    1SOL     OW 7245   2.229   0.302   3.083 -0.3718 -0.4838  0.0825
    1SOL    HW2 7246   2.213   0.301   3.177 -1.6155  1.5492 -0.0798
    1SOL    HW3 7247   2.295   0.371   3.071 -1.2622  0.2595 -0.6517
    1SOL    MW4 7248   2.236   0.311   3.094 -0.6533 -0.1175 -0.0358
    1SOL     OW 7249   2.419   0.485   3.019 -0.1644  0.8927 -0.0489
    1SOL    HW2 7250   2.503   0.453   3.050 -0.6932  0.8228  1.3599
    1SOL    HW3 7251   2.423   0.475   2.924  0.6493 -0.9512  0.1541
    1SOL    MW4 7252   2.430   0.480   3.011 -0.1271  0.6402  0.1636
    1SOL     OW 7253   2.451   0.766   3.145  0.1723 -0.3795  0.2306
    1SOL    HW2 7254   2.537   0.807   3.135 -0.0673 -0.0534 -0.5588
    1SOL    HW3 7255   2.464   0.676   3.117  0.1944 -0.2519 -0.1758
    1SOL    MW4 7256   2.464   0.760   3.140  0.1435 -0.3197  0.0727
    1SOL     OW 7257   2.220   0.877   3.026 -0.0475  0.0444 -0.0235
    1SOL    HW2 7258   2.306   0.860   3.064  0.9047  1.2764 -1.5340
    1SOL    HW3 7259   2.165   0.806   3.057  0.9407  0.4379  2.7416
    1SOL    MW4 7260   2.224   0.866   3.035  0.2086  0.2589  0.1421
    1SOL     OW 7261   2.248   1.130   3.143  0.0957  0.1361  0.4330
    1SOL    HW2 7262   2.251   1.126   3.238 -0.0461  0.9211  0.4770
    1SOL    HW3 7263   2.230   1.040   3.115  2.9498 -0.6616  1.0122
    1SOL    MW4 7264   2.246   1.118   3.152  0.4537  0.1343  0.5155
    1SOL     OW 7265   2.429   1.292   3.039  0.0143  0.5009 -0.1470
    1SOL    HW2 7266   2.382   1.218   3.077  0.5628  0.4363  0.4140
    1SOL    HW3 7267   2.421   1.280   2.944 -3.0837  1.7473 -0.0945
    1SOL    MW4 7268   2.422   1.280   3.031 -0.3223  0.6568 -0.0660
    1SOL     OW 7269   2.481   1.557   3.115 -0.0667  0.1274  0.3470
    1SOL    HW2 7270   2.404   1.607   3.086  0.7548  1.2457  0.0351
    1SOL    HW3 7271   2.462   1.467   3.090 -1.9475  0.1240  1.6454
    1SOL    MW4 7272   2.468   1.552   3.108 -0.2065  0.2745  0.4771
    1SOL     OW 7273   2.240   1.721   3.054  0.3443 -0.8509  0.1389
    1SOL    HW2 7274   2.158   1.678   3.078 -0.1589 -0.2603 -0.4933
    1SOL    HW3 7275   2.242   1.717   2.959 -0.9840  2.7399 -0.1343
    1SOL    MW4 7276   2.229   1.715   3.045  0.1028 -0.2991  0.0193
    1SOL     OW 7277   2.202   1.988   3.128  0.0423 -0.1236  0.5325
    1SOL    HW2 7278   2.283   2.035   3.109 -0.1539  0.1236  0.2863
    1SOL    HW3 7279   2.215   1.901   3.091 -0.2130  0.2530 -0.4796
    1SOL    MW4 7280   2.214   1.983   3.120 -0.0172 -0.0412  0.3664
    1SOL     OW 7281   2.454   2.079   3.022  0.7893  0.1558  0.1946
    1SOL    HW2 7282   2.526   2.028   3.059 -0.2194 -1.7649 -0.4299
    1SOL    HW3 7283   2.458   2.063   2.928 -0.8875 -0.5757  0.2305
    1SOL    MW4 7284   2.464   2.070   3.015  0.4349 -0.1943  0.1171
    1SOL     OW 7285   2.467   2.337   3.093 -0.3589  0.4926 -0.0835
    1SOL    HW2 7286   2.481   2.332   3.187 -1.8070 -0.7175  0.0890
    1SOL    HW3 7287   2.465   2.246   3.064 -2.0769  0.7803 -0.9440
    1SOL    MW4 7288   2.468   2.324   3.102 -0.7763  0.3710 -0.1740
    1SOL     OW 7289   2.245   2.471   3.003  0.3934 -0.3010  0.2160
    1SOL    HW2 7290   2.242   2.551   3.055  1.7637  0.4878 -0.8809
    1SOL    HW3 7291   2.316   2.420   3.042 -0.5019 -1.0263  0.9371
    1SOL    MW4 7292   2.254   2.475   3.015  0.4559 -0.2928  0.1662
    1SOL     OW 7293   2.276   2.711   3.143  0.1272 -0.1222  0.0099
    1SOL    HW2 7294   2.350   2.758   3.106  0.6592 -0.6305  0.4065
    1SOL    HW3 7295   2.199   2.761   3.116  0.5026 -0.4555 -1.7309
    1SOL    MW4 7296   2.276   2.724   3.134  0.2468 -0.2329 -0.1674
    1SOL     OW 7297   2.478   2.860   3.018  0.7715  0.2517  0.5730
    1SOL    HW2 7298   2.469   2.954   3.029  2.3344  0.3397  1.2455
    1SOL    HW3 7299   2.454   2.844   2.926 -1.5888  0.9826  1.0268
    1SOL    MW4 7300   2.474   2.870   3.007  0.6661  0.3600  0.7217
    1SOL     OW 7301   2.470   3.129   3.127  0.0642 -0.1232 -0.5048
    1SOL    HW2 7302   2.552   3.157   3.085  0.4467 -0.1935  0.1948
    1SOL    HW3 7303   2.403   3.185   3.088  0.5125  0.2564 -0.7353
    1SOL    MW4 7304   2.472   3.140   3.116  0.1736 -0.0823 -0.4430
    1SOL     OW 7305   2.254   3.266   3.043  0.2865  0.1388 -0.1593
    1SOL    HW2 7306   2.250   3.353   3.083  0.3457 -0.0891  0.3547
    1SOL    HW3 7307   2.176   3.221   3.077  1.0841 -0.5223  0.8149
    1SOL    MW4 7308   2.243   3.272   3.053  0.3996  0.0217  0.0372
    1SOL     OW 7309   2.244   3.519   3.186 -0.6793 -0.1643  0.6052
    1SOL    HW2 7310   2.319   3.560   3.143 -1.0841  0.2751  0.3187
    1SOL    HW3 7311   2.168   3.558   3.144 -1.0758  0.4621  1.8856
    1SOL    MW4 7312   2.244   3.529   3.175 -0.7851 -0.0236  0.7362
    1SOL     OW 7313   2.440   3.598   3.006  0.2786  0.6012 -0.1612
    1SOL    HW2 7314   2.528   3.570   3.028  0.8999  1.2953 -1.6476
    1SOL    HW3 7315   2.440   3.693   3.021 -0.6321  0.4056  1.1401
    1SOL    MW4 7316   2.451   3.607   3.011  0.2403  0.6671 -0.1857
    1SOL     OW 7317   2.462   3.867   3.122  0.2710 -0.0313  0.2203
    1SOL    HW2 7318   2.478   3.872   3.216  0.7458 -0.3305  0.1553
    1SOL    HW3 7319   2.548   3.879   3.082  0.2190 -0.8913 -0.1543
    1SOL    MW4 7320   2.475   3.869   3.129  0.3266 -0.1843  0.1621
    1SOL     OW 7321   2.235   4.012   3.005 -0.4316  0.0845 -0.2488
    1SOL    HW2 7322   2.302   3.963   3.054  0.0884  0.4014 -0.6361
    1SOL    HW3 7323   2.153   3.965   3.023 -0.3159  0.3938  1.2129
    1SOL    MW4 7324   2.233   4.000   3.014 -0.3476  0.1671 -0.1070
    1SOL     OW 7325   2.213   4.261   3.106 -0.0188  0.2651 -0.1112
    1SOL    HW2 7326   2.211   4.171   3.073  0.5689 -0.2435  1.1911
    1SOL    HW3 7327   2.126   4.296   3.085 -0.5679 -0.9066  0.1548
    1SOL    MW4 7328   2.201   4.254   3.099 -0.0138  0.0439  0.0958
    1SOL     OW 7329   2.489   4.320   2.984  0.3055  0.0439 -0.2907
    1SOL    HW2 7330   2.406   4.293   3.023  0.0013  1.1711 -0.1433
    1SOL    HW3 7331   2.472   4.322   2.890  0.5577 -1.0420 -0.3629
    1SOL    MW4 7332   2.476   4.317   2.977  0.2985  0.0486 -0.2806
    1SOL     OW 7333   2.886   4.656   3.110  0.4806 -0.1475 -0.2803
    1SOL    HW2 7334   2.970   4.694   3.083  0.5049 -1.1418 -1.6507
    1SOL    HW3 7335   2.884   4.570   3.068 -0.8492 -0.4776  0.4431
    1SOL    MW4 7336   2.897   4.650   3.101  0.3085 -0.3219 -0.3655
    1SOL     OW 7337   2.637   0.088   3.013  0.4507  0.2868  0.0032
    1SOL    HW2 7338   2.724   0.059   3.042 -0.0451 -0.7840  0.4598
    1SOL    HW3 7339   2.577   0.024   3.052 -0.4953  0.7122 -0.7482
    1SOL    MW4 7340   2.641   0.076   3.022  0.2604  0.2017 -0.0358
    1SOL     OW 7341   2.668   0.367   3.094  0.0806  0.1753 -0.4489
    1SOL    HW2 7342   2.635   0.283   3.063 -0.4544  0.7910 -1.5931
    1SOL    HW3 7343   2.694   0.351   3.184  0.9020 -1.4633 -0.9555
    1SOL    MW4 7344   2.667   0.354   3.102  0.1183  0.0404 -0.6666
    1SOL     OW 7345   2.899   0.512   3.029 -0.2681  0.2222 -0.1065
    1SOL    HW2 7346   2.813   0.473   3.043 -0.2757  0.2498 -0.0802
    1SOL    HW3 7347   2.911   0.510   2.934 -0.0736 -0.2750 -0.0768
    1SOL    MW4 7348   2.889   0.506   3.019 -0.2432  0.1602 -0.0989
    1SOL     OW 7349   2.928   0.779   3.132  0.2280  0.1566  0.1699
    1SOL    HW2 7350   2.922   0.774   3.227  1.0865 -1.9978  0.1344
    1SOL    HW3 7351   2.921   0.688   3.102  0.1382  0.7848 -1.8147
    1SOL    MW4 7352   2.926   0.766   3.140  0.3293 -0.0448 -0.0966
    1SOL     OW 7353   2.677   0.885   3.048 -0.1195  0.0314  0.1334
    1SOL    HW2 7354   2.689   0.977   3.072 -1.4089  0.1002  0.6047
    1SOL    HW3 7355   2.763   0.845   3.061  0.8419  1.4871 -1.5928
    1SOL    MW4 7356   2.690   0.892   3.053 -0.1626  0.2326 -0.0324
    1SOL     OW 7357   2.685   1.153   3.100 -0.0701  0.0429  0.6759
    1SOL    HW2 7358   2.761   1.200   3.065  0.0104 -0.4456  0.1851
    1SOL    HW3 7359   2.610   1.208   3.076 -0.0355 -0.3829 -0.4567
    1SOL    MW4 7360   2.685   1.166   3.092 -0.0546 -0.0778  0.4621
    1SOL     OW 7361   2.902   1.292   3.002 -0.1828 -0.4212  0.4092
    1SOL    HW2 7362   2.973   1.239   3.038 -0.3542 -0.9649 -0.0497
    1SOL    HW3 7363   2.913   1.377   3.043 -0.0053 -0.8602  1.2848
    1SOL    MW4 7364   2.913   1.296   3.012 -0.1819 -0.5509  0.4642
    1SOL     OW 7365   2.931   1.526   3.133  0.1792 -0.4021  0.0019
    1SOL    HW2 7366   2.923   1.509   3.227  0.1767 -0.0184  0.0733
    1SOL    HW3 7367   2.999   1.594   3.127  0.3283 -0.5778 -0.2864
    1SOL    MW4 7368   2.939   1.533   3.145  0.1984 -0.3748 -0.0267
    1SOL     OW 7369   2.704   1.663   3.017  0.2084  0.2143 -0.3379
    1SOL    HW2 7370   2.775   1.620   3.065  0.7608  0.7087 -0.6924
    1SOL    HW3 7371   2.625   1.619   3.047  0.5308  0.5707  1.0864
    1SOL    MW4 7372   2.703   1.651   3.027  0.3238  0.3265 -0.1969
    1SOL     OW 7373   2.672   1.930   3.141  0.1894 -0.2183  0.0805
    1SOL    HW2 7374   2.759   1.955   3.110 -0.1578 -0.2450 -0.9452
    1SOL    HW3 7375   2.667   1.836   3.124  0.3911 -0.4393  1.2130
    1SOL    MW4 7376   2.683   1.921   3.135  0.1702 -0.2509  0.0947
    1SOL     OW 7377   2.910   2.001   3.036  0.1418  0.3545  0.1204
    1SOL    HW2 7378   2.921   2.095   3.050 -1.8855  0.4799  0.9892
    1SOL    HW3 7379   2.915   1.990   2.941 -2.7383  1.7688 -0.2233
    1SOL    MW4 7380   2.912   2.012   3.025 -0.5059  0.5577  0.1895
    1SOL     OW 7381   2.926   2.276   3.119 -0.2000 -0.3457  0.2953
    1SOL    HW2 7382   3.001   2.315   3.075 -0.8584 -0.2635 -0.7820
    1SOL    HW3 7383   2.851   2.327   3.088 -0.7916 -0.9347  0.7376
    1SOL    MW4 7384   2.926   2.288   3.109 -0.3648 -0.4125  0.2115
    1SOL     OW 7385   2.720   2.436   2.994 -0.0077  0.2130  0.2574
    1SOL    HW2 7386   2.704   2.527   3.018 -0.0693  0.5004 -0.8557
    1SOL    HW3 7387   2.642   2.389   3.023 -0.4378  0.6892 -0.1142
    1SOL    MW4 7388   2.708   2.442   3.001 -0.0725  0.3135  0.0618
    1SOL     OW 7389   2.704   2.709   3.080 -0.4264  0.4170  0.6866
    1SOL    HW2 7390   2.704   2.706   3.175 -2.2272 -1.9612  0.6350
    1SOL    HW3 7391   2.631   2.767   3.057  0.1102  1.1217  0.7370
    1SOL    MW4 7392   2.694   2.717   3.089 -0.5932  0.1962  0.6866
    1SOL     OW 7393   2.925   2.866   3.068  0.2997 -0.3299  0.7107
    1SOL    HW2 7394   3.003   2.811   3.069 -0.0939 -0.9458 -0.7851
    1SOL    HW3 7395   2.852   2.804   3.063 -0.1135  0.2856 -2.2363
    1SOL    MW4 7396   2.925   2.851   3.067  0.1931 -0.3300  0.1242
    1SOL     OW 7397   2.936   3.114   3.177  0.3857  0.7095  0.6760
    1SOL    HW2 7398   2.871   3.168   3.132  2.0891  2.4922  0.2773
    1SOL    HW3 7399   2.936   3.031   3.128 -1.4036  0.7531  0.5599
    1SOL    MW4 7400   2.927   3.110   3.165  0.3746  0.9506  0.6080
    1SOL     OW 7401   2.731   3.254   3.037  0.0243 -0.4977  0.1624
    1SOL    HW2 7402   2.718   3.349   3.039 -0.7042 -0.6155  1.2281
    1SOL    HW3 7403   2.731   3.232   2.944 -0.4720  0.4605 -0.0690
    1SOL    MW4 7404   2.729   3.264   3.025 -0.1373 -0.3867  0.2725
    1SOL     OW 7405   2.700   3.522   3.103  0.8870  0.5494  0.6108
    1SOL    HW2 7406   2.697   3.494   3.194 -0.0742  0.3785  0.5282
    1SOL    HW3 7407   2.786   3.562   3.093  0.6559  1.3608  1.8259
    1SOL    MW4 7408   2.711   3.523   3.114  0.7296  0.6337  0.7603
    1SOL     OW 7409   2.942   3.630   3.038  0.0633 -0.1187  0.1881
    1SOL    HW2 7410   3.009   3.583   3.088 -0.7317 -0.5524  0.8422
    1SOL    HW3 7411   2.930   3.712   3.087 -0.3984 -0.3518  0.4634
    1SOL    MW4 7412   2.949   3.635   3.051 -0.1025 -0.2067  0.3107
    1SOL     OW 7413   2.891   3.875   3.146 -0.5579 -0.2900 -0.3965
    1SOL    HW2 7414   2.892   3.852   3.239 -2.5515  0.4144 -0.1822
    1SOL    HW3 7415   2.804   3.913   3.131 -0.0267  0.2066 -2.4038
    1SOL    MW4 7416   2.880   3.877   3.156 -0.7508 -0.1316 -0.6332
    1SOL     OW 7417   2.672   3.948   2.981 -0.2757 -0.4968 -0.3114
    1SOL    HW2 7418   2.679   4.043   2.993 -1.4135 -0.5417  0.6848
    1SOL    HW3 7419   2.669   3.936   2.886  0.2757  0.4276 -0.4522
    1SOL    MW4 7420   2.673   3.959   2.970 -0.3531 -0.3805 -0.1986
    1SOL     OW 7421   2.698   4.198   3.103  0.1138  0.2372  0.3979
    1SOL    HW2 7422   2.688   4.224   3.195  1.4839  0.8026  0.4033
    1SOL    HW3 7423   2.626   4.242   3.058  0.1619  0.9525  1.0106
    1SOL    MW4 7424   2.687   4.207   3.110  0.3009  0.4067  0.4795
    1SOL     OW 7425   2.910   4.390   3.025 -0.4879 -0.8097  0.1662
    1SOL    HW2 7426   2.971   4.357   3.092 -1.6987 -1.6109  0.8856
    1SOL    HW3 7427   2.832   4.335   3.034 -2.0575  1.4019  0.4958
    1SOL    MW4 7428   2.908   4.378   3.035 -0.8550 -0.6237  0.3045
    1SOL     OW 7429   3.359   4.664   3.130  0.0564 -0.0807 -0.1610
    1SOL    HW2 7430   3.443   4.703   3.108  0.5950 -1.6298 -0.9136
    1SOL    HW3 7431   3.357   4.582   3.081 -1.7460 -0.2278  0.1177
    1SOL    MW4 7432   3.370   4.659   3.120 -0.1101 -0.3047 -0.2236
    1SOL     OW 7433   3.105   0.096   3.008  0.1676  0.3384  0.6194
    1SOL    HW2 7434   3.099   0.179   3.056  0.0773 -0.0236  1.2345
    1SOL    HW3 7435   3.186   0.056   3.039  1.9030  1.6498 -2.0131
    1SOL    MW4 7436   3.115   0.102   3.018  0.3846  0.4637  0.3533
    1SOL     OW 7437   3.102   0.344   3.155  0.1837  0.3242 -0.1290
    1SOL    HW2 7438   3.174   0.383   3.105  0.2462  0.6773  0.2303
    1SOL    HW3 7439   3.023   0.386   3.122  0.1307 -0.1168 -0.5755
    1SOL    MW4 7440   3.101   0.354   3.144  0.1848  0.3126 -0.1407
    1SOL     OW 7441   3.304   0.463   2.998  0.5410 -0.2644  0.2259
    1SOL    HW2 7442   3.394   0.439   3.019  0.6686 -0.0629 -0.0998
    1SOL    HW3 7443   3.306   0.490   2.907  0.4183  1.1054  0.6205
    1SOL    MW4 7444   3.316   0.463   2.989  0.5414 -0.0571  0.2351
    1SOL     OW 7445   3.367   0.722   3.106 -0.1445  0.3102  0.0091
    1SOL    HW2 7446   3.374   0.717   3.201 -1.6715  1.4828  0.1992
    1SOL    HW3 7447   3.324   0.640   3.081 -0.0994  0.1805  0.3534
    1SOL    MW4 7448   3.362   0.710   3.115 -0.3400  0.4478  0.0794
    1SOL     OW 7449   3.158   0.874   3.024 -0.0759  0.5899  0.7708
    1SOL    HW2 7450   3.233   0.821   3.051  0.0189  0.6493  0.6261
    1SOL    HW3 7451   3.082   0.830   3.063 -0.1695 -0.5566 -0.6268
    1SOL    MW4 7452   3.158   0.861   3.032 -0.0756  0.4465  0.5674
    1SOL     OW 7453   3.122   1.164   3.119 -0.1312  0.0198  0.1505
    1SOL    HW2 7454   3.202   1.201   3.082  1.3558 -0.6124  2.5809
    1SOL    HW3 7455   3.127   1.070   3.099 -1.9885  0.4652 -2.6435
    1SOL    MW4 7456   3.134   1.156   3.112 -0.1802 -0.0049  0.1025
    1SOL     OW 7457   3.348   1.277   2.986  0.2265 -0.1997 -0.8071
    1SOL    HW2 7458   3.431   1.229   2.990 -0.4653 -1.3384  0.1708
    1SOL    HW3 7459   3.360   1.350   3.047  0.0761 -1.0772  0.2860
    1SOL    MW4 7460   3.361   1.280   2.995  0.1154 -0.4658 -0.5338
    1SOL     OW 7461   3.332   1.529   3.146  0.1743 -0.6324 -0.0718
    1SOL    HW2 7462   3.355   1.536   3.239  0.5923 -0.8528 -0.1567
    1SOL    HW3 7463   3.409   1.561   3.099 -0.1161 -0.3259 -0.3395
    1SOL    MW4 7464   3.345   1.534   3.152  0.1910 -0.6210 -0.1185
    1SOL     OW 7465   3.137   1.687   3.024  0.6172 -0.1258  0.0561
    1SOL    HW2 7466   3.205   1.634   3.066  0.5600  1.4130  2.1894
    1SOL    HW3 7467   3.139   1.771   3.072 -1.1700  0.7868 -1.4027
    1SOL    MW4 7468   3.147   1.691   3.036  0.3738  0.1976  0.1450
    1SOL     OW 7469   3.185   1.939   3.128 -0.1615 -0.5409 -0.1527
    1SOL    HW2 7470   3.166   1.931   3.221  1.1837 -2.5651 -0.0360
    1SOL    HW3 7471   3.105   1.977   3.091 -1.3107 -1.2150  1.5669
    1SOL    MW4 7472   3.172   1.943   3.135 -0.1357 -0.8968  0.0896
    1SOL     OW 7473   3.419   2.040   3.037 -0.3587 -0.9406  0.2357
    1SOL    HW2 7474   3.493   2.001   3.083  0.1257 -0.2367  0.0754
    1SOL    HW3 7475   3.341   2.001   3.077  0.0836 -1.1889  0.8561
    1SOL    MW4 7476   3.418   2.030   3.048 -0.2365 -0.8805  0.2966
    1SOL     OW 7477   3.357   2.293   3.133 -0.2137 -0.2275  0.2406
    1SOL    HW2 7478   3.392   2.294   3.222  2.6403  2.4694 -0.8128
    1SOL    HW3 7479   3.379   2.205   3.101  0.9465 -0.3800  1.3830
    1SOL    MW4 7480   3.365   2.281   3.141  0.3159  0.1082  0.2525
    1SOL     OW 7481   3.146   2.441   3.024  0.3046  0.3915  0.1968
    1SOL    HW2 7482   3.220   2.413   3.079 -0.1441 -1.6635 -0.1855
    1SOL    HW3 7483   3.128   2.531   3.052  1.0188 -0.1106  2.4201
    1SOL    MW4 7484   3.154   2.449   3.035  0.3397  0.0541  0.4396
    1SOL     OW 7485   3.156   2.718   3.077  0.2768  0.1164 -0.1575
    1SOL    HW2 7486   3.228   2.767   3.038  0.0465  1.9259  1.6066
    1SOL    HW3 7487   3.186   2.698   3.166 -0.6286 -0.8181 -0.0463
    1SOL    MW4 7488   3.169   2.722   3.084  0.1268  0.2320  0.0896
    1SOL     OW 7489   3.372   2.871   2.999  0.6791 -0.0190  0.1558
    1SOL    HW2 7490   3.427   2.807   3.043 -1.1781 -0.7533  1.4568
    1SOL    HW3 7491   3.380   2.950   3.051  1.1951  0.1556 -0.1780
    1SOL    MW4 7492   3.380   2.873   3.011  0.5021 -0.0927  0.2832
    1SOL     OW 7493   3.400   3.123   3.121  0.0468  0.2954  0.3625
    1SOL    HW2 7494   3.314   3.158   3.098 -0.0737 -0.1492  0.1310
    1SOL    HW3 7495   3.397   3.112   3.216 -0.2187  0.1093  0.3337
    1SOL    MW4 7496   3.388   3.126   3.130 -0.0041  0.2122  0.3281
    1SOL     OW 7497   3.163   3.229   3.045 -0.0784 -0.2426  0.4662
    1SOL    HW2 7498   3.084   3.209   3.096 -0.1075 -0.6486  0.2641
    1SOL    HW3 7499   3.134   3.223   2.953 -0.0823  0.7020  0.4031
    1SOL    MW4 7500   3.148   3.226   3.039 -0.0827 -0.1717  0.4311
    1SOL     OW 7501   3.157   3.486   3.153 -0.2300 -0.1747 -0.0162
    1SOL    HW2 7502   3.229   3.535   3.113 -0.4391  0.7762  0.7691
    1SOL    HW3 7503   3.171   3.396   3.124  0.6840  0.1848 -0.7162
    1SOL    MW4 7504   3.168   3.481   3.144 -0.1371 -0.0019 -0.0050
    1SOL     OW 7505   3.367   3.604   3.018 -0.0462 -0.6596  0.5351
    1SOL    HW2 7506   3.456   3.575   3.040 -0.2789 -0.6946  1.4477
    1SOL    HW3 7507   3.369   3.699   3.033 -0.1022 -0.6285  0.3429
    1SOL    MW4 7508   3.379   3.613   3.023 -0.0842 -0.6604  0.6299
    1SOL     OW 7509   3.367   3.872   3.120 -0.4764  0.3506 -0.3101
    1SOL    HW2 7510   3.383   3.861   3.213  0.3973  2.0493 -0.2356
    1SOL    HW3 7511   3.278   3.908   3.114 -0.3450  0.7105 -0.0991
    1SOL    MW4 7512   3.357   3.875   3.131 -0.3438  0.6220 -0.2725
    1SOL     OW 7513   3.130   3.990   3.068 -0.2571 -0.0621 -0.4932
    1SOL    HW2 7514   3.043   3.959   3.093 -0.2868  0.0008 -0.5174
    1SOL    HW3 7515   3.133   3.980   2.973  0.2199 -1.2243 -0.3642
    1SOL    MW4 7516   3.119   3.985   3.059 -0.1981 -0.2072 -0.4795
    1SOL     OW 7517   3.112   4.253   3.173 -0.1771  0.2940  0.3013
    1SOL    HW2 7518   3.094   4.241   3.266 -0.1080 -0.6712  0.1978
    1SOL    HW3 7519   3.129   4.164   3.140  0.2399  0.6739 -0.5365
    1SOL    MW4 7520   3.112   4.240   3.181 -0.1128  0.2170  0.1774
    1SOL     OW 7521   3.307   4.431   2.985 -0.3818  0.3858 -0.0745
    1SOL    HW2 7522   3.380   4.384   3.025 -1.1256 -0.6694  0.0668
    1SOL    HW3 7523   3.229   4.390   3.022 -1.0588  0.9945 -0.8003
    1SOL    MW4 7524   3.306   4.419   2.995 -0.5691  0.3271 -0.1516
    1SOL     OW 7525   3.808   0.005   3.090  0.4507 -0.0065 -0.0949
    1SOL    HW2 7526   3.793  -0.088   3.074  1.0095 -0.5091  2.1479
    1SOL    HW3 7527   3.730   0.048   3.053 -0.0313 -1.3800 -0.7219
    1SOL    MW4 7528   3.796  -0.001   3.083  0.4609 -0.2537  0.1183
    1SOL     OW 7529   3.583   0.122   2.982 -0.2219 -0.0829  0.1795
    1SOL    HW2 7530   3.567   0.211   3.012  0.7085 -0.1268  0.8305
    1SOL    HW3 7531   3.607   0.131   2.890  1.8767  0.5375  0.7720
    1SOL    MW4 7532   3.584   0.135   2.974  0.1779 -0.0069  0.3438
    1SOL     OW 7533   3.555   0.358   3.102  0.1140  0.1246 -0.1014
    1SOL    HW2 7534   3.549   0.351   3.198 -0.2030  0.3382 -0.1065
    1SOL    HW3 7535   3.630   0.415   3.088 -0.0046  0.3121  0.0253
    1SOL    MW4 7536   3.564   0.364   3.113  0.0567  0.1775 -0.0851
    1SOL     OW 7537   3.782   0.513   3.025  0.2684  0.2322  0.2512
    1SOL    HW2 7538   3.858   0.469   3.064  0.5286  0.4942  0.0400
    1SOL    HW3 7539   3.791   0.604   3.052  0.0109  0.2565  0.2531
    1SOL    MW4 7540   3.793   0.519   3.034  0.2689  0.2700  0.2236
    1SOL     OW 7541   3.754   0.784   3.084 -0.1965  0.4282 -0.0730
    1SOL    HW2 7542   3.762   0.783   3.180  0.6157  2.0857 -0.1051
    1SOL    HW3 7543   3.835   0.824   3.054 -0.9092  0.8817 -1.4038
    1SOL    MW4 7544   3.766   0.789   3.093 -0.1836  0.7067 -0.2532
    1SOL     OW 7545   3.536   0.915   3.018  0.2559 -0.2058 -0.1632
    1SOL    HW2 7546   3.621   0.882   3.047 -0.0010 -1.0291 -0.3427
    1SOL    HW3 7547   3.474   0.845   3.039 -0.0792 -0.4247 -1.8313
    1SOL    MW4 7548   3.539   0.901   3.024  0.1779 -0.3433 -0.4070
    1SOL     OW 7549   3.577   1.164   3.099 -0.0292  0.4194  0.1348
    1SOL    HW2 7550   3.655   1.183   3.048 -0.4772  0.3530 -0.5948
    1SOL    HW3 7551   3.556   1.073   3.079 -0.7945  0.6977 -0.3721
    1SOL    MW4 7552   3.584   1.155   3.090 -0.1893  0.4474 -0.0281
    1SOL     OW 7553   3.809   1.265   2.967  0.0020 -0.0860 -0.1517
    1SOL    HW2 7554   3.803   1.353   3.004 -0.5237  0.6741 -1.9930
    1SOL    HW3 7555   3.816   1.279   2.873  1.0017 -1.9916 -0.3766
    1SOL    MW4 7556   3.809   1.278   2.959  0.0644 -0.2372 -0.4241
    1SOL     OW 7557   3.791   1.508   3.116 -0.1121  0.2035  0.0832
    1SOL    HW2 7558   3.784   1.517   3.211 -0.9483  0.3499  0.0157
    1SOL    HW3 7559   3.712   1.550   3.082 -1.0468 -1.9741 -0.5473
    1SOL    MW4 7560   3.780   1.515   3.124 -0.3457 -0.0644 -0.0091
    1SOL     OW 7561   3.552   1.651   3.035  0.2092 -0.4204  0.4865
    1SOL    HW2 7562   3.577   1.735   3.073  0.6212 -0.6903  0.8087
    1SOL    HW3 7563   3.570   1.660   2.942 -1.6261  0.5562  0.1984
    1SOL    MW4 7564   3.557   1.663   3.028  0.0217 -0.3270  0.4909
    1SOL     OW 7565   3.647   1.894   3.113  0.3862 -0.4775 -0.1688
    1SOL    HW2 7566   3.661   1.907   3.207 -0.1390  0.6282 -0.2259
    1SOL    HW3 7567   3.704   1.959   3.071  0.2092 -0.5953 -0.5986
    1SOL    MW4 7568   3.657   1.905   3.120  0.2935 -0.3471 -0.2332
    1SOL     OW 7569   3.851   2.064   3.016 -0.0625  0.0546 -0.2838
    1SOL    HW2 7570   3.853   2.159   3.026 -0.6980  0.1087 -0.6819
    1SOL    HW3 7571   3.847   2.050   2.921 -1.5301 -0.3457 -0.1657
    1SOL    MW4 7572   3.851   2.075   3.005 -0.3402  0.0088 -0.3211
    1SOL     OW 7573   3.815   2.354   3.079  0.7378  0.1117 -0.0886
    1SOL    HW2 7574   3.817   2.359   3.174  0.6226  1.6362 -0.1421
    1SOL    HW3 7575   3.737   2.404   3.054  0.3946 -0.8481 -0.9437
    1SOL    MW4 7576   3.805   2.361   3.088  0.6776  0.1862 -0.2084
    1SOL     OW 7577   3.554   2.441   2.985  0.1876  0.0520 -0.6019
    1SOL    HW2 7578   3.541   2.522   3.036  0.5672  0.2967 -0.8960
    1SOL    HW3 7579   3.487   2.381   3.019  0.2828  0.2956  0.0211
    1SOL    MW4 7580   3.543   2.444   2.997  0.2501  0.1163 -0.5581
    1SOL     OW 7581   3.568   2.683   3.092 -0.0865 -0.5466 -0.7253
    1SOL    HW2 7582   3.563   2.695   3.187 -2.2670  0.8413 -0.9853
    1SOL    HW3 7583   3.647   2.731   3.066 -0.5100  0.6501  0.1654
    1SOL    MW4 7584   3.578   2.691   3.101 -0.4299 -0.2058 -0.6421
    1SOL     OW 7585   3.781   2.860   3.032  0.0130  0.0608 -0.0522
    1SOL    HW2 7586   3.770   2.954   3.048 -1.0900 -0.0631 -0.0613
    1SOL    HW3 7587   3.802   2.855   2.938 -0.2343  0.2682 -0.1182
    1SOL    MW4 7588   3.783   2.872   3.022 -0.1655  0.0718 -0.0622
    1SOL     OW 7589   3.787   3.143   3.131 -0.2594  0.2090  0.0304
    1SOL    HW2 7590   3.870   3.140   3.082 -0.0966 -0.6353  0.3604
    1SOL    HW3 7591   3.724   3.181   3.069  0.7958  2.6617  0.3899
    1SOL    MW4 7592   3.790   3.148   3.116 -0.0987  0.4215  0.1214
    1SOL     OW 7593   3.590   3.247   2.958  0.1050 -0.1368 -0.2310
    1SOL    HW2 7594   3.519   3.196   2.997  1.4032 -1.2959  0.6468
    1SOL    HW3 7595   3.579   3.234   2.863 -0.4264 -0.8702 -0.0754
    1SOL    MW4 7596   3.579   3.239   2.950  0.2060 -0.3865 -0.0947
    1SOL     OW 7597   3.617   3.480   3.105  0.0817 -0.2346 -0.1180
    1SOL    HW2 7598   3.701   3.516   3.079 -0.2063 -0.5642 -1.5475
    1SOL    HW3 7599   3.608   3.399   3.055 -0.9122 -0.4099  0.3109
    1SOL    MW4 7600   3.627   3.474   3.095 -0.0875 -0.3011 -0.2499
    1SOL     OW 7601   3.840   3.604   3.018 -0.1472  0.0989  0.0241
    1SOL    HW2 7602   3.845   3.694   3.050 -0.9660  0.2875 -0.3713
    1SOL    HW3 7603   3.817   3.612   2.926  0.7769 -0.4919 -0.2586
    1SOL    MW4 7604   3.838   3.617   3.010 -0.1333  0.0460 -0.0656
    1SOL     OW 7605   3.813   3.882   3.088  0.2261  0.1138 -0.1023
    1SOL    HW2 7606   3.819   3.893   3.183  1.6634 -0.9006 -0.0722
    1SOL    HW3 7607   3.726   3.915   3.066  0.4638  1.8136  1.3620
    1SOL    MW4 7608   3.802   3.888   3.098  0.4470  0.2043  0.0947
    1SOL     OW 7609   3.584   4.031   3.052  0.0400 -0.8282  0.2524
    1SOL    HW2 7610   3.508   3.977   3.072 -1.7821  1.1370 -1.1490
    1SOL    HW3 7611   3.580   4.045   2.957  0.1757  2.1297  0.6167
    1SOL    MW4 7612   3.574   4.026   3.042 -0.1824 -0.1783  0.1152
    1SOL     OW 7613   3.521   4.302   3.092  0.0554 -0.2534  0.2330
    1SOL    HW2 7614   3.609   4.338   3.078 -0.0159  0.5102  1.6678
    1SOL    HW3 7615   3.532   4.207   3.084  0.8254 -0.1080 -0.5414
    1SOL    MW4 7616   3.534   4.294   3.089  0.1476 -0.1330  0.3202
    1SOL     OW 7617   3.775   4.401   3.037  0.2391  0.4113  0.6168
    1SOL    HW2 7618   3.862   4.369   3.062 -0.0680  0.1920  1.4032
    1SOL    HW3 7619   3.774   4.395   2.942  0.7770 -0.3845  0.6584
    1SOL    MW4 7620   3.786   4.396   3.028  0.2697  0.2770  0.7260
    1SOL     OW 7621   4.296   0.001   3.083  0.0683  0.5003  0.2489
    1SOL    HW2 7622   4.303   0.011   3.177 -0.0595  0.6714  0.2409
    1SOL    HW3 7623   4.301  -0.093   3.068  0.3965  0.4917  0.3999
    1SOL    MW4 7624   4.298  -0.010   3.093  0.0954  0.5221  0.2673
    1SOL     OW 7625   4.046   0.133   3.032 -0.0466  0.1757  0.3217
    1SOL    HW2 7626   4.111   0.065   3.050 -0.4084 -0.1386  0.4608
    1SOL    HW3 7627   3.962   0.087   3.037 -0.3302  0.7822  1.1130
    1SOL    MW4 7628   4.043   0.118   3.035 -0.1316  0.2143  0.4447
    1SOL     OW 7629   4.024   0.387   3.128 -0.4862  0.1680  0.0069
    1SOL    HW2 7630   4.091   0.431   3.075 -1.8064  0.8084 -1.1985
    1SOL    HW3 7631   4.021   0.298   3.093  0.7994 -0.3113  1.1003
    1SOL    MW4 7632   4.033   0.381   3.116 -0.4902  0.1892 -0.0079
    1SOL     OW 7633   4.245   0.512   3.003 -0.7297  0.1217 -0.6879
    1SOL    HW2 7634   4.228   0.599   3.039 -0.4474  0.0340 -0.3439
    1SOL    HW3 7635   4.242   0.525   2.908  0.3822  0.7367 -0.6538
    1SOL    MW4 7636   4.242   0.525   2.995 -0.5450  0.1913 -0.6380
    1SOL     OW 7637   4.235   0.787   3.097 -0.6988 -0.5423  0.1991
    1SOL    HW2 7638   4.157   0.833   3.066 -0.5028 -0.3193  0.0333
    1SOL    HW3 7639   4.307   0.847   3.076 -0.5559 -0.4363  0.9766
    1SOL    MW4 7640   4.234   0.801   3.090 -0.6542 -0.4989  0.2797
    1SOL     OW 7641   4.004   0.937   3.013  0.0600  0.3602  0.3155
    1SOL    HW2 7642   4.012   1.022   3.056 -2.4221  0.8838 -0.1560
    1SOL    HW3 7643   4.008   0.958   2.919 -1.7955  0.1271  0.1719
    1SOL    MW4 7644   4.006   0.951   3.006 -0.5121  0.3986  0.2344
    1SOL     OW 7645   4.041   1.188   3.092  0.5597 -0.2749  0.3115
    1SOL    HW2 7646   4.033   1.201   3.186  0.2970  0.8931  0.1365
    1SOL    HW3 7647   3.956   1.213   3.056  0.6265 -0.7960 -0.2323
    1SOL    MW4 7648   4.029   1.193   3.099  0.5336 -0.1895  0.2167
    1SOL     OW 7649   4.260   1.328   3.007 -0.3295 -0.1428 -0.2125
    1SOL    HW2 7650   4.180   1.286   3.037 -0.4747  0.1430 -0.1989
    1SOL    HW3 7651   4.253   1.329   2.911 -1.0368  1.2468 -0.1494
    1SOL    MW4 7652   4.249   1.322   2.998 -0.4425  0.0782 -0.2022
    1SOL     OW 7653   4.255   1.590   3.132 -0.0827  0.0733 -0.2483
    1SOL    HW2 7654   4.183   1.623   3.079 -0.7682  0.1122  0.7014
    1SOL    HW3 7655   4.257   1.496   3.114 -0.4089  0.0627 -0.2235
    1SOL    MW4 7656   4.246   1.582   3.123 -0.2165  0.0771 -0.1197
    1SOL     OW 7657   4.014   1.657   3.023 -0.1207 -0.1915  0.3097
    1SOL    HW2 7658   3.998   1.742   3.063 -1.6644  0.6100 -1.9237
    1SOL    HW3 7659   3.947   1.599   3.060 -0.6995  0.2162 -0.0922
    1SOL    MW4 7660   4.003   1.660   3.033 -0.4010 -0.0318 -0.0381
    1SOL     OW 7661   4.018   1.891   3.152 -0.1822 -0.1314  0.2521
    1SOL    HW2 7662   4.097   1.936   3.122  0.5656 -1.8339 -0.3937
    1SOL    HW3 7663   3.946   1.937   3.109  0.5161  0.8345  0.1030
    1SOL    MW4 7664   4.019   1.903   3.143  0.0086 -0.2285  0.1473
    1SOL     OW 7665   4.224   2.058   3.033 -0.5318 -0.2533  0.4925
    1SOL    HW2 7666   4.246   2.143   3.070  0.6872 -0.7259  0.8996
    1SOL    HW3 7667   4.232   2.069   2.939  0.1243 -0.0363  0.5672
    1SOL    MW4 7668   4.228   2.070   3.026 -0.2842 -0.2868  0.5560
    1SOL     OW 7669   4.274   2.297   3.142 -0.0872  0.0387  0.1758
    1SOL    HW2 7670   4.204   2.349   3.102 -0.4885 -0.7062 -0.0886
    1SOL    HW3 7671   4.355   2.340   3.113 -0.4293  0.8875  0.4654
    1SOL    MW4 7672   4.275   2.310   3.133 -0.1850  0.0525  0.1793
    1SOL     OW 7673   4.082   2.441   2.997 -0.3331 -0.1427 -0.1423
    1SOL    HW2 7674   4.065   2.519   3.050 -1.5243  0.0861 -0.8325
    1SOL    HW3 7675   4.005   2.386   3.010  0.0138 -0.7197 -0.5136
    1SOL    MW4 7676   4.069   2.444   3.006 -0.4444 -0.1888 -0.2825
    1SOL     OW 7677   4.004   2.678   3.120 -0.0591  0.5590 -0.4302
    1SOL    HW2 7678   3.986   2.675   3.214 -0.6302  0.8301 -0.5349
    1SOL    HW3 7679   3.936   2.734   3.083 -0.3940 -0.3008 -1.1373
    1SOL    MW4 7680   3.993   2.685   3.127 -0.1786  0.4816 -0.5372
    1SOL     OW 7681   4.250   2.817   3.048  0.6499 -0.0427 -0.0888
    1SOL    HW2 7682   4.176   2.762   3.076 -0.2078 -0.6063 -3.2493
    1SOL    HW3 7683   4.327   2.774   3.086 -0.4463 -0.5888  1.5907
    1SOL    MW4 7684   4.250   2.804   3.057  0.3915 -0.1888 -0.2840
    1SOL     OW 7685   4.301   3.093   3.064  0.1315 -0.1951 -0.0599
    1SOL    HW2 7686   4.220   3.134   3.035 -0.6111 -1.1702  0.5827
    1SOL    HW3 7687   4.286   2.999   3.050  0.7947 -0.4502  0.9248
    1SOL    MW4 7688   4.289   3.086   3.058  0.1206 -0.3574  0.1550
    1SOL     OW 7689   4.034   3.163   3.033 -0.2344 -0.0515  0.1248
    1SOL    HW2 7690   4.013   3.243   3.080 -0.2148 -0.1967  0.3877
    1SOL    HW3 7691   4.043   3.189   2.942  1.2259  0.5134  0.4069
    1SOL    MW4 7692   4.033   3.177   3.027 -0.0386  0.0038  0.1969
    1SOL     OW 7693   4.052   3.447   3.108  0.3541  0.9517 -0.0849
    1SOL    HW2 7694   4.047   3.455   3.204  0.3208 -1.7539  0.1584
    1SOL    HW3 7695   3.975   3.492   3.076 -0.3634  0.6917  1.2393
    1SOL    MW4 7696   4.041   3.454   3.117  0.2551  0.5605  0.1218
    1SOL     OW 7697   4.264   3.611   3.047  0.0957  0.1554 -0.3189
    1SOL    HW2 7698   4.236   3.693   3.088  0.9947  0.1365  0.3322
    1SOL    HW3 7699   4.199   3.547   3.075  0.3757  0.2692  0.6011
    1SOL    MW4 7700   4.251   3.613   3.056  0.2508  0.1678 -0.1118
    1SOL     OW 7701   4.238   3.870   3.128  0.1649  0.0366  0.0047
    1SOL    HW2 7702   4.177   3.912   3.068  1.2797  1.3018 -0.2534
    1SOL    HW3 7703   4.324   3.884   3.090  0.6679 -1.3979  0.5689
    1SOL    MW4 7704   4.241   3.877   3.115  0.3786  0.0143  0.0451
    1SOL     OW 7705   4.024   4.027   2.998  0.1616  0.3405 -0.1095
    1SOL    HW2 7706   4.012   4.115   3.032  0.2236  0.7667 -1.1675
    1SOL    HW3 7707   3.951   3.977   3.034  0.9967  0.4189  1.7840
    1SOL    MW4 7708   4.013   4.032   3.007  0.2799  0.4077  0.0010
    1SOL     OW 7709   4.025   4.285   3.101 -0.0475  0.1749 -0.0944
    1SOL    HW2 7710   4.037   4.271   3.195 -0.2362  0.0047 -0.0936
    1SOL    HW3 7711   4.109   4.317   3.070  0.8283 -2.2292 -0.3284
    1SOL    MW4 7712   4.038   4.287   3.109  0.0434 -0.1650 -0.1252
    1SOL     OW 7713   4.295   4.413   2.990 -0.1131 -0.3158  0.0770
    1SOL    HW2 7714   4.364   4.355   3.024  0.8395  0.7983  0.0661
    1SOL    HW3 7715   4.282   4.385   2.900  1.6257  0.6479 -0.4929
    1SOL    MW4 7716   4.303   4.402   2.983  0.2418 -0.0415  0.0005
    1SOL     OW 7717   0.253   4.659   3.345 -0.0869 -0.0166  0.7931
    1SOL    HW2 7718   0.322   4.715   3.380 -0.7902  0.7174  1.0039
    1SOL    HW3 7719   0.266   4.575   3.389  0.9305 -0.0114  0.5182
    1SOL    MW4 7720   0.264   4.655   3.356 -0.0454  0.0811  0.7844
    1SOL     OW 7721   0.024   0.112   3.480 -0.1675 -0.4148 -0.4877
    1SOL    HW2 7722   0.011   0.199   3.444 -0.1700 -0.6982 -1.1853
    1SOL    HW3 7723   0.102   0.078   3.435 -0.1361 -0.7474 -0.1867
    1SOL    MW4 7724   0.033   0.119   3.469 -0.1637 -0.4960 -0.5403
    1SOL     OW 7725   4.485   0.355   3.375 -0.4802 -0.6946 -0.2015
    1SOL    HW2 7726   4.419   0.420   3.401  0.2440 -0.3380  0.7512
    1SOL    HW3 7727   4.567   0.387   3.414  0.3972 -0.7720 -1.9376
    1SOL    MW4 7728   4.487   0.368   3.384 -0.2689 -0.6578 -0.3052
    1SOL     OW 7729   0.212   0.503   3.482  0.1197 -0.1948  0.3400
    1SOL    HW2 7730   0.294   0.463   3.453  0.4181  0.5541  0.1394
    1SOL    HW3 7731   0.211   0.589   3.438  0.3505  0.7728  2.1809
    1SOL    MW4 7732   0.223   0.509   3.472  0.1896  0.0317  0.5562
    1SOL     OW 7733   0.208   0.745   3.358  0.5760 -0.2890  0.5410
    1SOL    HW2 7734   0.284   0.802   3.373  0.1585  0.3672  0.2112
    1SOL    HW3 7735   0.133   0.796   3.389 -0.0671  0.2863 -1.8227
    1SOL    MW4 7736   0.208   0.759   3.364  0.4360 -0.1265  0.1857
    1SOL     OW 7737   4.484   0.899   3.468  0.5394 -0.0750  0.1408
    1SOL    HW2 7738   4.479   0.895   3.563  3.7173  0.3321  0.3540
    1SOL    HW3 7739   4.506   0.990   3.448  0.6701 -0.3335 -0.9443
    1SOL    MW4 7740   4.486   0.911   3.478  0.9756 -0.0554  0.0257
    1SOL     OW 7741   4.476   1.185   3.419  0.0434  0.0642  0.1930
    1SOL    HW2 7742   4.566   1.216   3.432  0.1388 -0.0750 -0.1262
    1SOL    HW3 7743   4.470   1.167   3.326  0.3065 -1.8576  0.5126
    1SOL    MW4 7744   4.487   1.187   3.409  0.0906 -0.2078  0.1931
    1SOL     OW 7745   0.246   1.275   3.485  0.5808  0.6875  0.0814
    1SOL    HW2 7746   0.230   1.266   3.579  0.2462  0.0304 -0.0314
    1SOL    HW3 7747   0.217   1.363   3.464 -0.6885  0.3432  0.3406
    1SOL    MW4 7748   0.240   1.285   3.494  0.3692  0.5554  0.1006
    1SOL     OW 7749   0.203   1.542   3.365 -0.4932 -0.1556 -0.3489
    1SOL    HW2 7750   0.288   1.574   3.394 -1.6561  2.1079  0.6779
    1SOL    HW3 7751   0.212   1.536   3.269  0.4011  1.3982 -0.3886
    1SOL    MW4 7752   0.215   1.546   3.356 -0.5286  0.3480 -0.2186
    1SOL     OW 7753   0.021   1.710   3.477  0.5020 -0.3512  0.1928
    1SOL    HW2 7754  -0.063   1.676   3.446  0.3923  0.3728 -0.3345
    1SOL    HW3 7755   0.086   1.654   3.436  0.2432 -2.1013  2.0773
    1SOL    MW4 7756   0.018   1.698   3.468  0.4534 -0.4865  0.3719
    1SOL     OW 7757   0.045   1.964   3.376 -0.0204  0.0192 -0.0197
    1SOL    HW2 7758   0.041   1.870   3.393  1.0171  0.1353  0.9556
    1SOL    HW3 7759   0.059   1.971   3.282  0.9099 -0.8388  0.0492
    1SOL    MW4 7760   0.047   1.952   3.366  0.2393 -0.0788  0.1180
    1SOL     OW 7761   0.281   2.091   3.479 -0.3487  0.2279 -0.4943
    1SOL    HW2 7762   0.198   2.050   3.456  0.9283 -2.0432 -1.1323
    1SOL    HW3 7763   0.275   2.105   3.573 -1.9458  1.2951 -0.7130
    1SOL    MW4 7764   0.269   2.088   3.488 -0.3909  0.0691 -0.6073
    1SOL     OW 7765   0.249   2.351   3.357  0.2530  0.1094  0.3692
    1SOL    HW2 7766   0.172   2.393   3.395 -0.0429  0.2639 -0.3813
    1SOL    HW3 7767   0.251   2.264   3.395 -0.3984  0.0421  0.2569
    1SOL    MW4 7768   0.239   2.345   3.367  0.1280  0.1209  0.2553
    1SOL     OW 7769   0.035   2.475   3.490 -0.0546  0.3766  0.0143
    1SOL    HW2 7770   0.028   2.479   3.585 -1.0059  1.4646 -0.0979
    1SOL    HW3 7771  -0.042   2.426   3.461 -0.9402  1.9519 -0.3429
    1SOL    MW4 7772   0.024   2.469   3.499 -0.2970  0.7279 -0.0477
    1SOL     OW 7773   0.007   2.741   3.408  0.4048  0.0737 -0.1893
    1SOL    HW2 7774   0.070   2.773   3.473 -0.2448  1.6970 -0.3335
    1SOL    HW3 7775   0.011   2.645   3.416  1.6247  0.2023  0.9935
    1SOL    MW4 7776   0.016   2.732   3.418  0.4800  0.3047 -0.0522
    1SOL     OW 7777   0.249   2.839   3.542  0.1268 -0.0511 -0.3050
    1SOL    HW2 7778   0.315   2.798   3.486  0.4088  1.4224 -1.0872
    1SOL    HW3 7779   0.255   2.933   3.520 -1.8229  0.1587  0.0331
    1SOL    MW4 7780   0.259   2.846   3.531 -0.0933  0.1712 -0.3636
    1SOL     OW 7781   0.284   3.128   3.433  0.0049 -0.0528  0.3455
    1SOL    HW2 7782   0.202   3.166   3.464 -0.2319  0.3153 -0.7408
    1SOL    HW3 7783   0.270   3.110   3.340  1.2926  0.3781  0.0519
    1SOL    MW4 7784   0.272   3.131   3.425  0.1436  0.0527  0.1633
    1SOL     OW 7785   0.014   3.204   3.516 -0.2608 -0.1261 -0.2099
    1SOL    HW2 7786  -0.064   3.173   3.470 -0.2895  0.1139 -0.3217
    1SOL    HW3 7787   0.021   3.296   3.493  0.2775 -0.2390 -0.5140
    1SOL    MW4 7788   0.005   3.212   3.507 -0.1936 -0.1092 -0.2649
    1SOL     OW 7789   0.010   3.482   3.422 -0.7587 -0.3925 -0.3045
    1SOL    HW2 7790  -0.073   3.527   3.441  0.4412  1.9600 -0.4381
    1SOL    HW3 7791   0.015   3.479   3.327 -1.0631 -1.2816 -0.2981
    1SOL    MW4 7792  -0.000   3.488   3.412 -0.6406 -0.1996 -0.3211
    1SOL     OW 7793   0.232   3.620   3.478 -0.0954  0.3134  0.2166
    1SOL    HW2 7794   0.239   3.628   3.573 -1.5526  1.2618  0.2584
    1SOL    HW3 7795   0.147   3.581   3.462  0.6918 -1.1052 -0.6698
    1SOL    MW4 7796   0.222   3.616   3.488 -0.1838  0.2513  0.1051
    1SOL     OW 7797   0.241   3.886   3.379 -0.1621 -0.3038  0.0438
    1SOL    HW2 7798   0.154   3.917   3.403 -0.4744 -1.6086  0.6104
    1SOL    HW3 7799   0.244   3.795   3.408  0.8929 -0.7059 -1.2419
    1SOL    MW4 7800   0.230   3.878   3.386 -0.0641 -0.5288 -0.0510
    1SOL     OW 7801   4.478   3.951   3.450 -0.2374 -0.5197  0.1565
    1SOL    HW2 7802   4.488   3.956   3.545 -0.7831  0.4327  0.1742
    1SOL    HW3 7803   4.492   4.041   3.420 -1.7358 -0.4916 -0.4927
    1SOL    MW4 7804   4.481   3.963   3.459 -0.5071 -0.3905  0.0734
    1SOL     OW 7805   0.048   4.213   3.378  0.2675 -0.0865  0.1129
    1SOL    HW2 7806  -0.034   4.262   3.389 -0.4712 -1.4457  0.6809
    1SOL    HW3 7807   0.114   4.267   3.421 -0.6388  0.1428  1.2251
    1SOL    MW4 7808   0.046   4.227   3.385  0.0505 -0.2356  0.3347
    1SOL     OW 7809   0.292   4.413   3.492 -0.0411  0.6129 -0.0688
    1SOL    HW2 7810   0.293   4.388   3.585  1.0033 -0.0620 -0.2463
    1SOL    HW3 7811   0.360   4.358   3.452 -0.9891  0.3727 -1.3692
    1SOL    MW4 7812   0.301   4.402   3.499 -0.0284  0.4921 -0.2639
    1SOL     OW 7813   0.704   4.659   3.396 -0.2044 -0.3135 -0.0914
    1SOL    HW2 7814   0.783   4.709   3.412 -0.3053 -0.2005  0.0534
    1SOL    HW3 7815   0.689   4.667   3.302  0.4360 -1.0486 -0.2632
    1SOL    MW4 7816   0.712   4.667   3.386 -0.1332 -0.3956 -0.0951
    1SOL     OW 7817   0.477   0.134   3.436  0.2744  0.2356 -0.1894
    1SOL    HW2 7818   0.479   0.138   3.531 -0.1985 -1.4582 -0.0887
    1SOL    HW3 7819   0.563   0.101   3.411  0.5862  1.1850 -0.3895
    1SOL    MW4 7820   0.488   0.130   3.445  0.2531  0.1374 -0.2027
    1SOL     OW 7821   0.446   0.396   3.376 -0.0872 -0.3538 -0.2562
    1SOL    HW2 7822   0.521   0.430   3.426 -0.9640  0.7135  0.3620
    1SOL    HW3 7823   0.452   0.301   3.386 -0.1775 -0.1729  1.8184
    1SOL    MW4 7824   0.457   0.388   3.384 -0.2148 -0.1892  0.0992
    1SOL     OW 7825   0.685   0.494   3.461  0.1188 -0.0637  0.0623
    1SOL    HW2 7826   0.692   0.484   3.556  0.0973 -0.0632  0.0640
    1SOL    HW3 7827   0.759   0.445   3.426  0.6294  0.6586  0.1153
    1SOL    MW4 7828   0.696   0.486   3.469  0.1833  0.0316  0.0694
    1SOL     OW 7829   0.655   0.764   3.368  0.0734 -0.0973  0.3560
    1SOL    HW2 7830   0.575   0.793   3.412 -1.3757  0.6841 -2.6488
    1SOL    HW3 7831   0.665   0.672   3.394 -0.9406  0.2431  1.9802
    1SOL    MW4 7832   0.646   0.755   3.377 -0.2515  0.0506  0.1738
    1SOL     OW 7833   0.414   0.877   3.463  0.2289 -0.3817 -0.1332
    1SOL    HW2 7834   0.413   0.887   3.558 -0.8068 -1.0009 -0.0739
    1SOL    HW3 7835   0.408   0.967   3.430 -1.9924 -0.3037  0.3994
    1SOL    MW4 7836   0.413   0.891   3.471 -0.2008 -0.4531 -0.0551
    1SOL     OW 7837   0.456   1.140   3.383  0.3481 -0.1159 -0.1934
    1SOL    HW2 7838   0.391   1.203   3.416  0.8827 -0.3042  1.2739
    1SOL    HW3 7839   0.441   1.136   3.289 -1.2410  0.4417  0.0339
    1SOL    MW4 7840   0.446   1.148   3.375  0.2090 -0.0672  0.0303
    1SOL     OW 7841   0.683   1.280   3.476  0.3195 -0.4519 -0.1565
    1SOL    HW2 7842   0.603   1.231   3.455  1.3113 -1.6090 -1.2577
    1SOL    HW3 7843   0.669   1.366   3.436 -0.6462 -0.4356  0.2046
    1SOL    MW4 7844   0.670   1.285   3.468  0.3230 -0.6022 -0.2542
    1SOL     OW 7845   0.682   1.553   3.346 -0.2015 -0.0052  0.3748
    1SOL    HW2 7846   0.757   1.581   3.398 -0.3742 -1.0033  1.1720
    1SOL    HW3 7847   0.609   1.605   3.379 -0.3025 -0.6075  1.1151
    1SOL    MW4 7848   0.682   1.564   3.357 -0.2375 -0.2164  0.5774
    1SOL     OW 7849   0.453   1.647   3.456 -0.1770 -0.0438 -0.3121
    1SOL    HW2 7850   0.442   1.647   3.551 -1.0186 -1.2998 -0.3935
    1SOL    HW3 7851   0.466   1.739   3.433  0.8034  0.1971  1.0985
    1SOL    MW4 7852   0.453   1.659   3.466 -0.1586 -0.1777 -0.1369
    1SOL     OW 7853   0.478   1.902   3.385  0.0428  0.2230  0.2362
    1SOL    HW2 7854   0.413   1.959   3.427 -0.6944 -0.8282  0.5342
    1SOL    HW3 7855   0.456   1.904   3.292 -0.1696  0.1817  0.2867
    1SOL    MW4 7856   0.467   1.910   3.378 -0.0825  0.0789  0.2820
    1SOL     OW 7857   0.694   2.043   3.475 -0.6407 -0.1387  0.1162
    1SOL    HW2 7858   0.685   2.027   3.569 -1.5285 -2.0567 -0.2738
    1SOL    HW3 7859   0.625   1.991   3.435  1.7969 -1.9712 -1.8212
    1SOL    MW4 7860   0.684   2.034   3.482 -0.4362 -0.6335 -0.1907
    1SOL     OW 7861   0.671   2.300   3.382 -0.0405 -0.1878 -0.0666
    1SOL    HW2 7862   0.745   2.353   3.408  0.5855 -1.2310  0.3045
    1SOL    HW3 7863   0.690   2.213   3.416 -1.2534 -0.5546 -0.2916
    1SOL    MW4 7864   0.683   2.295   3.390 -0.1180 -0.3738 -0.0472
    1SOL     OW 7865   0.464   2.468   3.474  0.2660 -0.4744  0.1360
    1SOL    HW2 7866   0.541   2.414   3.456  0.1599  0.1987 -2.7129
    1SOL    HW3 7867   0.392   2.421   3.432 -0.1859  0.7699 -0.5220
    1SOL    MW4 7868   0.465   2.455   3.466  0.1924 -0.2213 -0.3266
    1SOL     OW 7869   0.460   2.716   3.375 -0.0844 -0.3629 -0.1277
    1SOL    HW2 7870   0.443   2.627   3.404 -0.5188 -0.5113 -0.8359
    1SOL    HW3 7871   0.444   2.714   3.280  0.8722  0.2198 -0.3107
    1SOL    MW4 7872   0.456   2.704   3.366 -0.0155 -0.3057 -0.2453
    1SOL     OW 7873   0.646   2.851   3.529  0.1177  0.2903 -0.2282
    1SOL    HW2 7874   0.729   2.821   3.493  0.0720  0.1022 -0.1812
    1SOL    HW3 7875   0.580   2.805   3.477  0.0417  0.5353 -0.3482
    1SOL    MW4 7876   0.648   2.841   3.518  0.1017  0.2975 -0.2379
    1SOL     OW 7877   0.675   3.110   3.410 -0.1920 -0.4230  0.0099
    1SOL    HW2 7878   0.619   3.164   3.466 -0.9291 -0.3065 -0.8235
    1SOL    HW3 7879   0.654   3.020   3.434 -1.1648 -0.3918 -0.6988
    1SOL    MW4 7880   0.665   3.105   3.420 -0.4176 -0.4032 -0.1936
    1SOL     OW 7881   0.502   3.280   3.547  0.1148  0.0147  0.6292
    1SOL    HW2 7882   0.480   3.296   3.639 -3.9661 -1.0026 -0.0463
    1SOL    HW3 7883   0.429   3.227   3.515  0.9914  1.1280 -3.4347
    1SOL    MW4 7884   0.489   3.275   3.555 -0.3080  0.0274  0.0038
    1SOL     OW 7885   0.471   3.494   3.378  0.0370 -0.2133  0.0642
    1SOL    HW2 7886   0.489   3.423   3.440  1.7649  0.8338  0.7706
    1SOL    HW3 7887   0.388   3.531   3.407 -1.1361 -2.2098 -0.5834
    1SOL    MW4 7888   0.462   3.489   3.390  0.1102 -0.3386  0.0720
    1SOL     OW 7889   0.685   3.644   3.487 -0.0590 -0.0660 -0.1009
    1SOL    HW2 7890   0.758   3.583   3.476  0.3690  0.4146  0.0451
    1SOL    HW3 7891   0.611   3.602   3.443  0.7918  0.3424 -1.9672
    1SOL    MW4 7892   0.685   3.630   3.480  0.1097  0.0513 -0.3278
    1SOL     OW 7893   0.695   3.886   3.375  0.1711 -0.6128 -0.1691
    1SOL    HW2 7894   0.624   3.927   3.425 -0.3591 -2.2298  0.4214
    1SOL    HW3 7895   0.699   3.796   3.408  0.7178 -1.3089 -2.0665
    1SOL    MW4 7896   0.686   3.880   3.386  0.1733 -0.9181 -0.3417
    1SOL     OW 7897   0.465   3.995   3.501  0.1843 -0.1056 -0.0265
    1SOL    HW2 7898   0.471   4.089   3.484  0.3071 -0.1213 -0.0711
    1SOL    HW3 7899   0.385   3.968   3.456  0.2190 -0.0464 -0.1248
    1SOL    MW4 7900   0.455   4.004   3.493  0.2051 -0.0997 -0.0453
    1SOL     OW 7901   0.522   4.245   3.406 -0.4564 -0.0344  0.3818
    1SOL    HW2 7902   0.601   4.291   3.434  0.2679 -0.4601 -0.8725
    1SOL    HW3 7903   0.510   4.273   3.315 -1.2575 -0.6420  0.2974
    1SOL    MW4 7904   0.531   4.255   3.397 -0.4665 -0.1712  0.2053
    1SOL     OW 7905   0.706   4.413   3.537  0.7276  0.3082  0.2168
    1SOL    HW2 7906   0.782   4.369   3.500  1.1183 -0.3265  1.7331
    1SOL    HW3 7907   0.688   4.485   3.477  1.5148 -0.5151 -1.0311
    1SOL    MW4 7908   0.713   4.417   3.524  0.8830  0.1159  0.2522
    1SOL     OW 7909   1.118   4.647   3.381  0.0063  0.0259  0.0470
    1SOL    HW2 7910   1.192   4.697   3.415  1.0449 -0.7956 -0.9292
    1SOL    HW3 7911   1.107   4.679   3.291  1.3963 -2.1837 -0.9693
    1SOL    MW4 7912   1.126   4.657   3.373  0.3266 -0.3740 -0.2160
    1SOL     OW 7913   0.912   0.133   3.504  0.3218 -0.0562 -0.2205
    1SOL    HW2 7914   0.909   0.130   3.600  1.3860  0.2463 -0.1798
    1SOL    HW3 7915   0.980   0.070   3.480  1.6384  1.5329 -0.6785
    1SOL    MW4 7916   0.920   0.124   3.513  0.6359  0.1934 -0.2754
    1SOL     OW 7917   0.926   0.389   3.396  0.2729 -0.4318  0.0362
    1SOL    HW2 7918   1.007   0.438   3.411  0.1587 -0.1254 -0.3310
    1SOL    HW3 7919   0.942   0.303   3.433  0.7156 -0.3212  0.0993
    1SOL    MW4 7920   0.939   0.384   3.403  0.3163 -0.3769 -0.0038
    1SOL     OW 7921   1.169   0.507   3.448  0.1707  0.1568  0.0138
    1SOL    HW2 7922   1.162   0.501   3.543  1.7526 -0.9101  0.0911
    1SOL    HW3 7923   1.155   0.600   3.428 -0.6319  0.2936  1.2417
    1SOL    MW4 7924   1.166   0.519   3.458  0.2735  0.0341  0.1860
    1SOL     OW 7925   1.130   0.761   3.399 -0.0321 -0.4792  0.3280
    1SOL    HW2 7926   1.211   0.801   3.431 -0.1525  0.1628 -0.1701
    1SOL    HW3 7927   1.060   0.815   3.436 -0.2339 -0.9299  0.6154
    1SOL    MW4 7928   1.131   0.773   3.408 -0.0746 -0.4540  0.3004
    1SOL     OW 7929   0.906   0.890   3.491  0.5227 -0.2261 -0.3052
    1SOL    HW2 7930   0.913   0.979   3.459  0.6410  0.5307  1.7656
    1SOL    HW3 7931   0.827   0.855   3.449  0.0792  1.0820 -0.5655
    1SOL    MW4 7932   0.897   0.897   3.482  0.4798  0.0464 -0.0665
    1SOL     OW 7933   0.896   1.130   3.383  0.0220 -0.0640 -0.0506
    1SOL    HW2 7934   0.966   1.187   3.417  0.6852 -0.9904  0.1537
    1SOL    HW3 7935   0.815   1.174   3.408  0.5081 -0.3245  2.0792
    1SOL    MW4 7936   0.895   1.143   3.391  0.1736 -0.2207  0.2575
    1SOL     OW 7937   1.136   1.270   3.455 -0.6538 -0.3164 -0.0703
    1SOL    HW2 7938   1.151   1.282   3.548  1.0528  0.4455 -0.4313
    1SOL    HW3 7939   1.123   1.358   3.421  1.1761 -0.3576 -0.9411
    1SOL    MW4 7940   1.136   1.283   3.463 -0.1873 -0.2213 -0.2329
    1SOL     OW 7941   1.147   1.547   3.381  0.6636  0.3140 -0.3119
    1SOL    HW2 7942   1.224   1.594   3.412  1.2910 -0.5593 -0.5467
    1SOL    HW3 7943   1.145   1.565   3.287  1.5673 -1.0557 -0.6111
    1SOL    MW4 7944   1.157   1.556   3.372  0.8656  0.0180 -0.3827
    1SOL     OW 7945   0.884   1.678   3.483 -0.2102  0.0625 -0.1799
    1SOL    HW2 7946   0.900   1.765   3.447  0.0503 -0.0513 -0.3436
    1SOL    HW3 7947   0.964   1.629   3.464  0.0960  0.1241  0.9338
    1SOL    MW4 7948   0.897   1.683   3.476 -0.1354  0.0556 -0.0548
    1SOL     OW 7949   0.934   1.939   3.385  0.2322  0.1757 -0.3301
    1SOL    HW2 7950   0.997   2.000   3.423  0.7599 -0.6674  0.1620
    1SOL    HW3 7951   0.849   1.971   3.414  0.4968  0.7575 -0.1938
    1SOL    MW4 7952   0.931   1.951   3.394  0.3367  0.1414 -0.2470
    1SOL     OW 7953   1.144   2.098   3.488  0.2523  0.4517  0.1856
    1SOL    HW2 7954   1.233   2.077   3.462  0.8521  2.6552  0.3260
    1SOL    HW3 7955   1.139   2.194   3.482 -1.8360  0.4304  0.9977
    1SOL    MW4 7956   1.155   2.108   3.484  0.0557  0.7393  0.3111
    1SOL     OW 7957   1.109   2.368   3.398 -0.1516  0.1744 -0.5291
    1SOL    HW2 7958   1.198   2.397   3.417  0.0569 -0.8499  0.1232
    1SOL    HW3 7959   1.106   2.362   3.303 -0.1694  2.1755 -0.6753
    1SOL    MW4 7960   1.121   2.371   3.388 -0.1262  0.3035 -0.4625
    1SOL     OW 7961   0.863   2.475   3.460 -0.0316  0.3833 -0.3715
    1SOL    HW2 7962   0.864   2.488   3.555  2.1031 -1.3099 -0.1397
    1SOL    HW3 7963   0.949   2.439   3.440 -1.7458 -2.7298 -2.4757
    1SOL    MW4 7964   0.874   2.472   3.470  0.0238 -0.2508 -0.6189
    1SOL     OW 7965   0.850   2.738   3.376  0.0412 -0.0922  0.5808
    1SOL    HW2 7966   0.938   2.764   3.404  0.4135 -0.1252 -0.5329
    1SOL    HW3 7967   0.844   2.645   3.400  0.0360  0.0934  1.3152
    1SOL    MW4 7968   0.861   2.729   3.383  0.0896 -0.0720  0.5305
    1SOL     OW 7969   1.091   2.846   3.474 -0.9209 -0.1211 -0.2680
    1SOL    HW2 7970   1.100   2.851   3.569 -0.9934 -0.5391 -0.2387
    1SOL    HW3 7971   1.169   2.798   3.445 -0.7842  0.2041 -0.4412
    1SOL    MW4 7972   1.103   2.840   3.483 -0.9124 -0.1330 -0.2871
    1SOL     OW 7973   1.103   3.109   3.363  0.1844  0.2876 -0.4835
    1SOL    HW2 7974   1.099   3.022   3.402  1.2292  0.5944  0.2980
    1SOL    HW3 7975   1.100   3.093   3.269 -1.5324 -0.4881 -0.3277
    1SOL    MW4 7976   1.102   3.096   3.356  0.0956  0.2258 -0.3598
    1SOL     OW 7977   0.904   3.248   3.500 -0.2568  0.2516 -0.0282
    1SOL    HW2 7978   0.973   3.187   3.473 -0.0962  0.8872 -1.0676
    1SOL    HW3 7979   0.824   3.213   3.462  0.1131  1.6611 -2.1919
    1SOL    MW4 7980   0.903   3.235   3.491 -0.1867  0.5214 -0.4511
    1SOL     OW 7981   0.925   3.503   3.438 -1.0175 -0.2998  0.5500
    1SOL    HW2 7982   0.921   3.412   3.468  1.1981  0.0180  1.9505
    1SOL    HW3 7983   0.913   3.498   3.343 -1.1281 -2.0416  0.6411
    1SOL    MW4 7984   0.923   3.490   3.429 -0.7398 -0.4876  0.7467
    1SOL     OW 7985   1.167   3.631   3.489 -0.0638  0.1897  0.2143
    1SOL    HW2 7986   1.163   3.639   3.584 -1.2078 -0.3260  0.2140
    1SOL    HW3 7987   1.093   3.574   3.466  0.0369  0.5339 -1.0061
    1SOL    MW4 7988   1.157   3.624   3.498 -0.2015  0.1669  0.0532
    1SOL     OW 7989   1.147   3.906   3.414 -0.1561  0.0302  0.6525
    1SOL    HW2 7990   1.218   3.957   3.453  0.2594  0.6901 -0.9302
    1SOL    HW3 7991   1.165   3.816   3.442  0.6719  0.3453  1.1755
    1SOL    MW4 7992   1.159   3.901   3.423  0.0080  0.1593  0.5126
    1SOL     OW 7993   0.900   4.010   3.496  0.4028 -0.2920 -0.0195
    1SOL    HW2 7994   0.977   3.962   3.468 -0.8264 -1.7590 -0.9781
    1SOL    HW3 7995   0.827   3.967   3.451 -0.8593  1.7416  0.0069
    1SOL    MW4 7996   0.900   3.998   3.487  0.0741 -0.2174 -0.1426
    1SOL     OW 7997   0.901   4.275   3.408  0.2384 -0.2730  0.0601
    1SOL    HW2 7998   0.884   4.184   3.433  0.3547 -0.3784 -0.2373
    1SOL    HW3 7999   0.887   4.277   3.314 -1.5616  0.4467  0.3349
    1SOL    MW4 8000   0.897   4.263   3.399  0.0163 -0.1922  0.0570
    1SOL     OW 8001   1.126   4.392   3.508 -0.2242 -0.5318 -0.4468
    1SOL    HW2 8002   1.045   4.348   3.481 -0.6140 -0.0063 -0.1380
    1SOL    HW3 8003   1.123   4.477   3.465  0.1008 -0.4536 -0.3190
    1SOL    MW4 8004   1.115   4.397   3.499 -0.2326 -0.4520 -0.3893
    1SOL     OW 8005   1.561   4.654   3.437  0.3017 -0.1722 -0.5444
    1SOL    HW2 8006   1.544   4.579   3.493 -0.9075  0.0320 -0.6095
    1SOL    HW3 8007   1.484   4.710   3.449 -0.2842 -0.4145 -2.8654
    1SOL    MW4 8008   1.548   4.652   3.446  0.0648 -0.1772 -0.8590
    1SOL     OW 8009   1.320   0.136   3.484  0.3184  0.0960 -0.5297
    1SOL    HW2 8010   1.308   0.150   3.578  1.3635 -0.5376 -0.2987
    1SOL    HW3 8011   1.365   0.214   3.453  1.2495 -0.3050 -0.2295
    1SOL    MW4 8012   1.324   0.148   3.492  0.5791 -0.0405 -0.4597
    1SOL     OW 8013   1.407   0.377   3.380  0.3275 -0.1477  0.4824
    1SOL    HW2 8014   1.479   0.435   3.404  0.1114  0.5981 -0.6307
    1SOL    HW3 8015   1.328   0.430   3.394  0.1714  0.1822 -1.4169
    1SOL    MW4 8016   1.406   0.392   3.385  0.2782 -0.0058  0.0849
    1SOL     OW 8017   1.602   0.574   3.525  0.1641  0.5913  0.3552
    1SOL    HW2 8018   1.587   0.564   3.619  0.4550 -0.7241  0.2820
    1SOL    HW3 8019   1.671   0.510   3.505 -1.3106 -0.5799 -1.1080
    1SOL    MW4 8020   1.609   0.564   3.535  0.0079  0.2631  0.1523
    1SOL     OW 8021   1.588   0.784   3.344 -0.4198 -0.1548  0.2636
    1SOL    HW2 8022   1.504   0.818   3.374 -0.0744  0.4072  0.6010
    1SOL    HW3 8023   1.597   0.700   3.389 -0.7470 -0.1608  0.3189
    1SOL    MW4 8024   1.578   0.777   3.354 -0.4174 -0.0814  0.3152
    1SOL     OW 8025   1.372   0.884   3.463  0.1122 -0.1041 -0.4309
    1SOL    HW2 8026   1.363   0.894   3.557  1.2404  0.3580 -0.3689
    1SOL    HW3 8027   1.366   0.973   3.428  0.0396 -0.2385 -0.7691
    1SOL    MW4 8028   1.370   0.897   3.471  0.2515 -0.0609 -0.4671
    1SOL     OW 8029   1.336   1.129   3.338 -0.6874  0.0266  0.6059
    1SOL    HW2 8030   1.413   1.175   3.371 -0.7758  1.6928 -1.4562
    1SOL    HW3 8031   1.262   1.174   3.378 -0.7164  0.6263 -0.1256
    1SOL    MW4 8032   1.336   1.141   3.348 -0.7030  0.3256  0.2372
    1SOL     OW 8033   1.573   1.230   3.406 -0.1334 -0.3189  0.2331
    1SOL    HW2 8034   1.576   1.236   3.501  0.1263 -1.7741  0.3178
    1SOL    HW3 8035   1.661   1.204   3.380  0.1637  1.3531 -0.5133
    1SOL    MW4 8036   1.585   1.228   3.415 -0.0601 -0.2903  0.1457
    1SOL     OW 8037   1.587   1.510   3.370  0.0461  0.0835 -0.4691
    1SOL    HW2 8038   1.569   1.418   3.390 -1.1578  0.2035 -0.9661
    1SOL    HW3 8039   1.615   1.509   3.279  2.1571 -0.0376  0.1462
    1SOL    MW4 8040   1.588   1.497   3.361  0.1657  0.0834 -0.4532
    1SOL     OW 8041   1.384   1.684   3.423 -0.0674  0.2616 -0.1791
    1SOL    HW2 8042   1.386   1.691   3.518  0.1265  1.2200 -0.2509
    1SOL    HW3 8043   1.459   1.629   3.401 -0.1023  0.0534  0.2219
    1SOL    MW4 8044   1.394   1.678   3.432 -0.0464  0.3605 -0.1359
    1SOL     OW 8045   1.391   1.974   3.369  0.1147  0.4447  0.3608
    1SOL    HW2 8046   1.470   1.999   3.416  0.6704 -0.0958 -0.2786
    1SOL    HW3 8047   1.384   1.879   3.382  0.0003  0.3702 -0.2362
    1SOL    MW4 8048   1.400   1.965   3.377  0.1730  0.3636  0.1974
    1SOL     OW 8049   1.631   2.078   3.497  0.1557 -0.0445 -0.0768
    1SOL    HW2 8050   1.704   2.024   3.467 -0.3678 -1.1193  0.5566
    1SOL    HW3 8051   1.622   2.145   3.430  1.0428 -0.5407 -0.6993
    1SOL    MW4 8052   1.640   2.080   3.484  0.2035 -0.2518 -0.0751
    1SOL     OW 8053   1.617   2.324   3.360  0.3199  0.1719  0.0064
    1SOL    HW2 8054   1.533   2.369   3.370  0.4907  0.5735 -0.3515
    1SOL    HW3 8055   1.625   2.309   3.266  0.2499 -0.6424  0.1239
    1SOL    MW4 8056   1.607   2.328   3.349  0.3331  0.1173 -0.0253
    1SOL     OW 8057   1.387   2.455   3.464  0.2097 -0.0510 -0.0788
    1SOL    HW2 8058   1.382   2.449   3.559  2.3044  1.3843  0.1421
    1SOL    HW3 8059   1.364   2.546   3.444 -1.5354 -0.6680 -1.0875
    1SOL    MW4 8060   1.383   2.466   3.474  0.2558  0.0570 -0.1826
    1SOL     OW 8061   1.365   2.723   3.404 -0.6446 -0.5815 -0.2942
    1SOL    HW2 8062   1.447   2.762   3.434 -0.5387 -0.3035 -0.9345
    1SOL    HW3 8063   1.378   2.710   3.310 -0.9672 -1.4519 -0.2203
    1SOL    MW4 8064   1.378   2.726   3.396 -0.6732 -0.6597 -0.3688
    1SOL     OW 8065   1.591   2.841   3.496 -0.5678 -0.2277 -0.1761
    1SOL    HW2 8066   1.671   2.803   3.458 -1.6048 -0.2375 -2.3772
    1SOL    HW3 8067   1.580   2.924   3.450 -0.7780  0.6950  1.5084
    1SOL    MW4 8068   1.600   2.847   3.485 -0.7323 -0.1073 -0.2441
    1SOL     OW 8069   1.550   3.103   3.374  0.0555 -0.2066  0.1144
    1SOL    HW2 8070   1.616   3.159   3.414  0.7639 -0.9988  0.0750
    1SOL    HW3 8071   1.467   3.140   3.402  0.5259  0.2693  0.8994
    1SOL    MW4 8072   1.548   3.115   3.383  0.2111 -0.2482  0.2129
    1SOL     OW 8073   1.334   3.242   3.459 -0.1223 -0.2759 -0.0267
    1SOL    HW2 8074   1.343   3.243   3.554  1.5746  1.7500 -0.1836
    1SOL    HW3 8075   1.252   3.195   3.443 -0.9337  0.2322  2.4734
    1SOL    MW4 8076   1.324   3.236   3.469 -0.0055  0.0584  0.2825
    1SOL     OW 8077   1.380   3.507   3.366  0.3045  0.0100 -0.2019
    1SOL    HW2 8078   1.380   3.415   3.390  0.2168 -0.2597 -1.1895
    1SOL    HW3 8079   1.303   3.544   3.409  0.2869 -0.3972  0.1166
    1SOL    MW4 8080   1.370   3.500   3.375  0.2906 -0.0796 -0.2902
    1SOL     OW 8081   1.587   3.615   3.495 -0.6288  0.4169  0.0003
    1SOL    HW2 8082   1.581   3.608   3.590 -0.3774  0.8801  0.0497
    1SOL    HW3 8083   1.516   3.559   3.462 -0.3948 -0.1445  0.4507
    1SOL    MW4 8084   1.577   3.607   3.503 -0.5647  0.4041  0.0663
    1SOL     OW 8085   1.572   3.885   3.418  0.1734 -0.1049 -0.2870
    1SOL    HW2 8086   1.565   3.795   3.450 -1.7130  0.2934  0.4636
    1SOL    HW3 8087   1.579   3.877   3.323  0.7581 -1.0652 -0.1642
    1SOL    MW4 8088   1.572   3.872   3.410  0.0017 -0.1791 -0.1719
    1SOL     OW 8089   1.362   4.014   3.555 -0.0114  0.2898  0.4102
    1SOL    HW2 8090   1.370   4.100   3.513 -0.8616 -0.4688 -1.3584
    1SOL    HW3 8091   1.438   3.966   3.525 -0.6284 -0.2618 -0.2793
    1SOL    MW4 8092   1.373   4.019   3.546 -0.2050  0.1173  0.0861
    1SOL     OW 8093   1.351   4.258   3.394 -0.3489  0.0462  0.7511
    1SOL    HW2 8094   1.266   4.303   3.390 -0.6082 -0.5087 -0.0421
    1SOL    HW3 8095   1.381   4.254   3.304  0.1540 -0.4726  0.9327
    1SOL    MW4 8096   1.344   4.263   3.382 -0.3166 -0.0954  0.6704
    1SOL     OW 8097   1.526   4.410   3.554  0.0683 -0.1758 -0.0464
    1SOL    HW2 8098   1.608   4.377   3.519 -0.3333 -1.2156 -0.0184
    1SOL    HW3 8099   1.458   4.361   3.509 -0.4668 -1.4405  2.0502
    1SOL    MW4 8100   1.527   4.399   3.544 -0.0551 -0.4797  0.2339
    1SOL     OW 8101   2.012   4.648   3.394  0.4089 -0.2111  0.4410
    1SOL    HW2 8102   2.085   4.703   3.422  1.1968 -1.0604  0.0733
    1SOL    HW3 8103   1.934   4.694   3.425  1.1241  0.4556  1.2667
    1SOL    MW4 8104   2.011   4.661   3.402  0.6070 -0.2356  0.5014
    1SOL     OW 8105   1.805   0.121   3.519  0.3026 -0.4610  0.2234
    1SOL    HW2 8106   1.802   0.122   3.615 -0.0221  0.9633  0.2087
    1SOL    HW3 8107   1.725   0.077   3.492 -0.3661  0.5289  0.5835
    1SOL    MW4 8108   1.794   0.115   3.528  0.1717 -0.1425  0.2689
    1SOL     OW 8109   1.793   0.386   3.436 -0.4886 -0.0243 -0.0110
    1SOL    HW2 8110   1.793   0.295   3.464  0.3801  0.1886  0.6805
    1SOL    HW3 8111   1.744   0.385   3.353 -1.3776 -0.9494  0.5132
    1SOL    MW4 8112   1.786   0.374   3.428 -0.4913 -0.1182  0.1495
    1SOL     OW 8113   2.048   0.475   3.534  0.0105 -0.0840  0.3983
    1SOL    HW2 8114   2.059   0.557   3.487  0.3153  0.0083  0.6283
    1SOL    HW3 8115   1.962   0.442   3.506 -1.0365  1.3165  1.8537
    1SOL    MW4 8116   2.038   0.481   3.525 -0.0873  0.1129  0.6208
    1SOL     OW 8117   2.018   0.708   3.415  0.6439  0.3304  0.4230
    1SOL    HW2 8118   2.092   0.764   3.439  0.2788  0.9786  0.0601
    1SOL    HW3 8119   2.020   0.706   3.319  0.4136  0.0408  0.4241
    1SOL    MW4 8120   2.028   0.715   3.406  0.5655  0.3777  0.3750
    1SOL     OW 8121   1.811   0.871   3.501  0.2275  0.1074  0.0181
    1SOL    HW2 8122   1.887   0.815   3.485 -0.6044 -1.0756  0.2039
    1SOL    HW3 8123   1.741   0.833   3.448 -0.1711  1.3511 -0.3695
    1SOL    MW4 8124   1.812   0.859   3.492  0.0652  0.1154 -0.0083
    1SOL     OW 8125   1.834   1.130   3.374 -0.5942 -0.1626  0.5396
    1SOL    HW2 8126   1.913   1.164   3.417 -0.3956 -0.6195  0.5460
    1SOL    HW3 8127   1.820   1.045   3.415  0.3171 -1.1496 -1.1330
    1SOL    MW4 8128   1.843   1.124   3.385 -0.4476 -0.3531  0.3197
    1SOL     OW 8129   2.027   1.283   3.492 -0.4068 -0.2560 -0.1381
    1SOL    HW2 8130   2.008   1.285   3.586 -0.0879  0.6796 -0.0898
    1SOL    HW3 8131   2.032   1.375   3.467  1.1852 -0.4882 -0.7331
    1SOL    MW4 8132   2.025   1.296   3.501 -0.1547 -0.1632 -0.2100
    1SOL     OW 8133   2.046   1.536   3.386  0.4126  0.3200 -0.1851
    1SOL    HW2 8134   2.119   1.583   3.427 -1.0056  2.1149  0.3479
    1SOL    HW3 8135   1.968   1.577   3.422 -0.8795 -1.1258 -1.2693
    1SOL    MW4 8136   2.045   1.547   3.396  0.0548  0.3662 -0.2580
    1SOL     OW 8137   1.808   1.652   3.498  0.0456 -0.2802 -0.0811
    1SOL    HW2 8138   1.796   1.731   3.444 -0.4371 -0.1465  0.2176
    1SOL    HW3 8139   1.740   1.592   3.467  0.1526 -0.4276 -0.0290
    1SOL    MW4 8140   1.797   1.654   3.487 -0.0041 -0.2820 -0.0346
    1SOL     OW 8141   1.803   1.902   3.388  0.2122  0.1281  0.2548
    1SOL    HW2 8142   1.881   1.956   3.402 -0.3471  1.1727 -0.5439
    1SOL    HW3 8143   1.776   1.923   3.299 -0.8648 -0.3764  0.4573
    1SOL    MW4 8144   1.810   1.912   3.378 -0.0037  0.1993  0.1762
    1SOL     OW 8145   1.998   2.067   3.492  0.4242  0.1499 -0.6926
    1SOL    HW2 8146   2.076   2.021   3.463  0.1566  0.2834 -1.6481
    1SOL    HW3 8147   2.010   2.157   3.461 -0.0986  0.1778 -0.8283
    1SOL    MW4 8148   2.010   2.073   3.484  0.3197  0.1709 -0.8364
    1SOL     OW 8149   2.034   2.360   3.408 -0.6940  0.2281  0.7422
    1SOL    HW2 8150   1.952   2.388   3.450 -0.8401  1.3318 -0.2648
    1SOL    HW3 8151   2.013   2.358   3.315  0.1579 -0.4203  0.5611
    1SOL    MW4 8152   2.020   2.363   3.401 -0.6008  0.2880  0.5853
    1SOL     OW 8153   1.801   2.438   3.543  0.5181 -0.4154 -0.2235
    1SOL    HW2 8154   1.796   2.403   3.631 -0.6941  0.2582 -0.0102
    1SOL    HW3 8155   1.740   2.385   3.492 -0.3651  0.5267 -0.1762
    1SOL    MW4 8156   1.792   2.427   3.548  0.2418 -0.2022 -0.1891
    1SOL     OW 8157   1.808   2.680   3.403  0.2969  0.1417 -0.3825
    1SOL    HW2 8158   1.887   2.721   3.438  2.4246 -1.8134 -2.6107
    1SOL    HW3 8159   1.786   2.611   3.466  0.0355  1.0550  0.5257
    1SOL    MW4 8160   1.815   2.676   3.416  0.5432  0.0043 -0.5565
    1SOL     OW 8161   2.009   2.836   3.485  0.1852  0.5673 -0.7902
    1SOL    HW2 8162   2.023   2.826   3.579  0.2772 -0.7340 -0.9359
    1SOL    HW3 8163   2.000   2.931   3.473 -0.1360  0.7332  0.5668
    1SOL    MW4 8164   2.010   2.848   3.496  0.1550  0.4175 -0.6301
    1SOL     OW 8165   1.982   3.096   3.412 -0.5530  0.0974 -0.2053
    1SOL    HW2 8166   2.057   3.140   3.451 -0.1401 -0.4747 -0.3521
    1SOL    HW3 8167   1.909   3.156   3.428  0.1084  1.1105 -0.9163
    1SOL    MW4 8168   1.982   3.110   3.419 -0.4113  0.1559 -0.3181
    1SOL     OW 8169   1.783   3.254   3.490  0.1396  0.0411  0.5074
    1SOL    HW2 8170   1.786   3.237   3.584  0.7383  0.6683  0.6056
    1SOL    HW3 8171   1.799   3.348   3.482 -0.5769  0.1152 -0.1804
    1SOL    MW4 8172   1.785   3.264   3.501  0.1240  0.1338  0.4296
    1SOL     OW 8173   1.841   3.513   3.418  0.2297 -0.0324  0.0469
    1SOL    HW2 8174   1.755   3.549   3.438  0.2902  0.1688 -0.0587
    1SOL    HW3 8175   1.840   3.501   3.323  0.0247 -0.7762  0.1374
    1SOL    MW4 8176   1.829   3.516   3.408  0.2106 -0.1040  0.0446
    1SOL     OW 8177   2.035   3.665   3.543 -0.1909  0.4540 -0.9016
    1SOL    HW2 8178   2.119   3.621   3.528 -0.8753 -1.8837  1.8436
    1SOL    HW3 8179   1.971   3.610   3.499 -0.7451  0.1260  0.3153
    1SOL    MW4 8180   2.038   3.652   3.535 -0.3545  0.1023 -0.3788
    1SOL     OW 8181   2.033   3.904   3.398 -0.2957  0.0761 -0.1766
    1SOL    HW2 8182   1.952   3.953   3.397 -1.6822 -2.1122  0.8073
    1SOL    HW3 8183   2.015   3.829   3.456  2.1661 -0.8329 -0.5253
    1SOL    MW4 8184   2.020   3.900   3.406 -0.1540 -0.3326 -0.0927
    1SOL     OW 8185   1.783   4.063   3.472 -0.4267 -0.0630  0.2264
    1SOL    HW2 8186   1.807   4.060   3.564 -0.4728  2.1557  0.3184
    1SOL    HW3 8187   1.728   3.985   3.460  1.6165 -1.7439  1.4468
    1SOL    MW4 8188   1.779   4.052   3.482 -0.1633  0.0081  0.3996
    1SOL     OW 8189   1.779   4.331   3.435  1.1759 -0.2202 -0.1748
    1SOL    HW2 8190   1.779   4.242   3.469 -1.3466  0.1560  0.9464
    1SOL    HW3 8191   1.761   4.321   3.342 -2.6541 -0.7658  0.5479
    1SOL    MW4 8192   1.777   4.318   3.427  0.3378 -0.2422  0.0687
    1SOL     OW 8193   2.023   4.408   3.523 -0.6364  0.3638  0.0541
    1SOL    HW2 8194   1.941   4.372   3.488  0.0192  0.0673 -1.1997
    1SOL    HW3 8195   2.024   4.498   3.493  0.7938 -0.3979 -2.2569
    1SOL    MW4 8196   2.012   4.415   3.515 -0.3610  0.2241 -0.4163
    1SOL     OW 8197   2.499   4.624   3.422 -0.7360 -0.2599  1.1516
    1SOL    HW2 8198   2.498   4.544   3.474  0.8875 -0.4028  0.9637
    1SOL    HW3 8199   2.505   4.593   3.331 -0.4489  0.0776  1.0574
    1SOL    MW4 8200   2.499   4.610   3.417 -0.4840 -0.2341  1.1141
    1SOL     OW 8201   2.260   0.077   3.497  0.0587  0.3140  0.4412
    1SOL    HW2 8202   2.257   0.165   3.458  0.4197  0.0307 -0.2292
    1SOL    HW3 8203   2.345   0.042   3.472 -0.4649 -0.5940 -0.1054
    1SOL    MW4 8204   2.271   0.084   3.489  0.0372  0.1568  0.2809
    1SOL     OW 8205   2.241   0.329   3.373  0.0480  0.2001 -0.3297
    1SOL    HW2 8206   2.324   0.363   3.408 -0.5143  0.0061  1.2311
    1SOL    HW3 8207   2.174   0.369   3.428 -0.7780 -1.2348 -0.2682
    1SOL    MW4 8208   2.243   0.339   3.385 -0.1352 -0.0148 -0.1156
    1SOL     OW 8209   2.466   0.455   3.502 -0.5618  0.0206 -0.2043
    1SOL    HW2 8210   2.545   0.426   3.457  0.4586  0.8232  1.0440
    1SOL    HW3 8211   2.448   0.542   3.465  0.4821  0.8370  1.1328
    1SOL    MW4 8212   2.474   0.463   3.491 -0.2897  0.2342  0.1369
    1SOL     OW 8213   2.448   0.736   3.422 -0.4602 -0.4656  0.0187
    1SOL    HW2 8214   2.521   0.792   3.448  0.7797 -1.4207 -1.2739
    1SOL    HW3 8215   2.445   0.744   3.327 -1.2372 -1.4099 -0.0388
    1SOL    MW4 8216   2.457   0.744   3.413 -0.3991 -0.7163 -0.1595
    1SOL     OW 8217   2.222   0.855   3.513  0.0235  0.0254  0.1293
    1SOL    HW2 8218   2.232   0.945   3.483 -0.0289  0.3462  1.0800
    1SOL    HW3 8219   2.305   0.813   3.491 -0.0926  0.2028 -0.6574
    1SOL    MW4 8220   2.234   0.861   3.506  0.0014  0.0911  0.1509
    1SOL     OW 8221   2.239   1.119   3.432 -0.1816 -0.3361 -0.2725
    1SOL    HW2 8222   2.314   1.173   3.457 -0.3294  0.8690 -2.3348
    1SOL    HW3 8223   2.163   1.173   3.453 -0.4643 -1.2667  1.1429
    1SOL    MW4 8224   2.239   1.133   3.438 -0.2382 -0.2999 -0.3576
    1SOL     OW 8225   2.429   1.322   3.505 -0.1474  0.2437  0.5719
    1SOL    HW2 8226   2.461   1.319   3.595 -0.1613 -0.3648  0.5611
    1SOL    HW3 8227   2.489   1.265   3.456 -1.7480 -1.6263  0.7172
    1SOL    MW4 8228   2.441   1.314   3.510 -0.3605 -0.0833  0.5896
    1SOL     OW 8229   2.479   1.575   3.389 -0.2602  0.3441 -0.0048
    1SOL    HW2 8230   2.459   1.489   3.425 -2.1039  0.9632  0.5379
    1SOL    HW3 8231   2.474   1.564   3.294  1.6358 -0.6171 -0.0120
    1SOL    MW4 8232   2.476   1.562   3.381 -0.2532  0.2990  0.0658
    1SOL     OW 8233   2.254   1.696   3.496 -0.2241  0.2552  0.4080
    1SOL    HW2 8234   2.258   1.683   3.591 -0.5497 -1.1807  0.2378
    1SOL    HW3 8235   2.324   1.640   3.461 -1.2961 -0.6403 -0.3278
    1SOL    MW4 8236   2.264   1.687   3.504 -0.4084 -0.0523  0.2887
    1SOL     OW 8237   2.244   1.967   3.405  0.1139 -0.2030  0.0939
    1SOL    HW2 8238   2.254   1.876   3.434  0.6394  0.2320  1.3148
    1SOL    HW3 8239   2.225   1.961   3.311  2.9680 -1.4593 -0.4544
    1SOL    MW4 8240   2.243   1.954   3.396  0.5598 -0.3113  0.1826
    1SOL     OW 8241   2.470   2.100   3.504  0.0350  0.1058 -0.5200
    1SOL    HW2 8242   2.388   2.058   3.476 -0.5693  1.0506 -0.2094
    1SOL    HW3 8243   2.462   2.190   3.470  0.1782  0.6972  0.9714
    1SOL    MW4 8244   2.458   2.107   3.495 -0.0262  0.3083 -0.2823
    1SOL     OW 8245   2.477   2.332   3.381  0.4549  0.0882  0.0580
    1SOL    HW2 8246   2.408   2.387   3.418  0.0297 -0.0608 -0.5111
    1SOL    HW3 8247   2.558   2.369   3.416 -0.0216 -0.9559  2.3410
    1SOL    MW4 8248   2.478   2.344   3.391  0.3362 -0.0694  0.2844
    1SOL     OW 8249   2.277   2.457   3.519 -0.1910  0.3034 -0.2076
    1SOL    HW2 8250   2.201   2.419   3.476 -0.7493  1.3688 -0.1778
    1SOL    HW3 8251   2.283   2.546   3.483 -0.6819  1.2141  1.9161
    1SOL    MW4 8252   2.268   2.463   3.508 -0.3297  0.5643  0.0765
    1SOL     OW 8253   2.275   2.703   3.414 -0.0997  0.3454  0.0213
    1SOL    HW2 8254   2.199   2.751   3.448 -1.2324 -1.3756 -0.0186
    1SOL    HW3 8255   2.259   2.696   3.320 -0.3145 -0.7273  0.1298
    1SOL    MW4 8256   2.263   2.709   3.406 -0.2778 -0.0231  0.0303
    1SOL     OW 8257   2.494   2.843   3.492 -0.2107  0.0641  0.6804
    1SOL    HW2 8258   2.488   2.935   3.468  0.7598  0.5893  2.4480
    1SOL    HW3 8259   2.410   2.805   3.464 -0.2856  1.2840 -0.7959
    1SOL    MW4 8260   2.482   2.850   3.485 -0.0923  0.2942  0.7188
    1SOL     OW 8261   2.469   3.112   3.401 -0.0445  0.1078  0.4218
    1SOL    HW2 8262   2.546   3.156   3.435  0.1300  0.2226 -0.1204
    1SOL    HW3 8263   2.479   3.114   3.306  0.1725 -1.4785  0.3929
    1SOL    MW4 8264   2.480   3.118   3.393  0.0069 -0.0863  0.3464
    1SOL     OW 8265   2.223   3.203   3.500  0.0496 -0.0832  0.0305
    1SOL    HW2 8266   2.235   3.189   3.594 -0.1270  0.2615  0.1037
    1SOL    HW3 8267   2.309   3.184   3.462  0.3596  0.6356  0.3604
    1SOL    MW4 8268   2.236   3.198   3.508  0.0672  0.0570  0.0834
    1SOL     OW 8269   2.227   3.495   3.463  0.4281 -0.4737  0.6822
    1SOL    HW2 8270   2.216   3.407   3.500  0.3093 -0.2335  1.2152
    1SOL    HW3 8271   2.220   3.482   3.368  0.5461 -1.0607  0.7516
    1SOL    MW4 8272   2.225   3.482   3.455  0.4280 -0.5195  0.7617
    1SOL     OW 8273   2.489   3.592   3.452  0.2632 -0.4521  0.2708
    1SOL    HW2 8274   2.483   3.687   3.442  0.5511 -0.3466  1.0745
    1SOL    HW3 8275   2.398   3.563   3.451  0.1697 -0.1646  0.1229
    1SOL    MW4 8276   2.476   3.601   3.450  0.2887 -0.4003  0.3576
    1SOL     OW 8277   2.474   3.859   3.402  0.4206  0.1293  0.4271
    1SOL    HW2 8278   2.549   3.910   3.431 -0.0095  0.0861  1.6545
    1SOL    HW3 8279   2.398   3.904   3.440 -0.0266 -0.8688  0.7419
    1SOL    MW4 8280   2.474   3.872   3.411  0.3049 -0.0083  0.6306
    1SOL     OW 8281   2.261   4.008   3.493 -0.4671  0.0213 -0.2356
    1SOL    HW2 8282   2.263   4.095   3.453  1.9668 -1.2307 -3.0510
    1SOL    HW3 8283   2.179   3.970   3.461 -1.3663  1.1014  0.7150
    1SOL    MW4 8284   2.250   4.015   3.483 -0.2646 -0.0014 -0.4818
    1SOL     OW 8285   2.237   4.257   3.390  0.2780 -0.2833  0.4197
    1SOL    HW2 8286   2.166   4.307   3.430  0.6699  0.2773  0.4315
    1SOL    HW3 8287   2.220   4.264   3.296  0.2532 -0.2414  0.4267
    1SOL    MW4 8288   2.225   4.265   3.383  0.3262 -0.2046  0.4225
    1SOL     OW 8289   2.473   4.362   3.509  0.1062 -1.0170 -0.0334
    1SOL    HW2 8290   2.463   4.356   3.604 -0.5279  0.6348  0.0154
    1SOL    HW3 8291   2.385   4.345   3.475  0.1929 -0.9245 -0.3009
    1SOL    MW4 8292   2.460   4.359   3.517  0.0341 -0.7868 -0.0622
    1SOL     OW 8293   2.937   4.664   3.381  0.4143 -0.0280  0.1122
    1SOL    HW2 8294   2.873   4.720   3.424 -0.5126 -0.5295 -0.6036
    1SOL    HW3 8295   2.909   4.660   3.289  1.8500  0.2912 -0.3552
    1SOL    MW4 8296   2.925   4.671   3.374  0.4814 -0.0515 -0.0439
    1SOL     OW 8297   2.723   0.121   3.501  0.2567  0.1857  0.2608
    1SOL    HW2 8298   2.721   0.121   3.597 -0.1119 -1.2200  0.2502
    1SOL    HW3 8299   2.649   0.068   3.475  0.9205 -0.2303 -0.8006
    1SOL    MW4 8300   2.713   0.114   3.510  0.2954 -0.0547  0.1197
    1SOL     OW 8301   2.711   0.368   3.382  0.7103  0.0184 -0.2215
    1SOL    HW2 8302   2.774   0.427   3.425  1.0775 -1.1319  0.8468
    1SOL    HW3 8303   2.725   0.284   3.425 -0.5759 -0.5826 -0.9832
    1SOL    MW4 8304   2.721   0.365   3.393  0.5889 -0.2126 -0.1810
    1SOL     OW 8305   2.899   0.524   3.502  0.1745  0.2996 -0.1902
    1SOL    HW2 8306   2.904   0.533   3.597 -0.6333  1.2176 -0.2387
    1SOL    HW3 8307   2.893   0.613   3.469 -2.1822 -0.1197 -0.9558
    1SOL    MW4 8308   2.899   0.537   3.510 -0.2429  0.3654 -0.2975
    1SOL     OW 8309   2.880   0.779   3.390 -0.1007  0.2655 -0.0485
    1SOL    HW2 8310   2.954   0.823   3.432 -0.5266  0.0927  0.8887
    1SOL    HW3 8311   2.803   0.818   3.430 -0.4818 -1.3848  0.8580
    1SOL    MW4 8312   2.880   0.790   3.400 -0.2072  0.0250  0.1945
    1SOL     OW 8313   2.669   0.917   3.501  0.1889  0.0899 -0.5694
    1SOL    HW2 8314   2.660   0.907   3.595  0.7081 -2.1915 -0.7381
    1SOL    HW3 8315   2.674   1.012   3.487  2.4051  0.3958  1.9187
    1SOL    MW4 8316   2.669   0.928   3.511  0.5498 -0.1707 -0.2635
    1SOL     OW 8317   2.652   1.186   3.382  0.1732 -0.0690 -0.2531
    1SOL    HW2 8318   2.733   1.225   3.415  0.4248 -0.9444  0.1872
    1SOL    HW3 8319   2.674   1.155   3.294 -0.3252  1.7135 -1.0218
    1SOL    MW4 8320   2.666   1.187   3.374  0.1404  0.0508 -0.2964
    1SOL     OW 8321   2.898   1.260   3.514 -0.3117 -0.4690 -0.4237
    1SOL    HW2 8322   2.912   1.271   3.608 -0.0818  0.8236 -0.6064
    1SOL    HW3 8323   2.984   1.233   3.480 -0.6530 -2.0030 -0.1183
    1SOL    MW4 8324   2.911   1.258   3.522 -0.3266 -0.5009 -0.4075
    1SOL     OW 8325   2.934   1.522   3.421  0.0170 -0.0912  0.0755
    1SOL    HW2 8326   2.860   1.574   3.451  0.0006 -0.2483  0.3087
    1SOL    HW3 8327   2.928   1.440   3.470 -0.1766 -0.4663 -0.5642
    1SOL    MW4 8328   2.924   1.518   3.431 -0.0107 -0.1613  0.0217
    1SOL     OW 8329   2.721   1.680   3.505  0.0285  0.0128 -0.2384
    1SOL    HW2 8330   2.727   1.769   3.471 -0.4803  1.0591  2.2524
    1SOL    HW3 8331   2.643   1.643   3.463 -0.1834  0.9940 -0.7187
    1SOL    MW4 8332   2.712   1.687   3.495 -0.0668  0.2803  0.0267
    1SOL     OW 8333   2.704   1.949   3.432  0.0173 -0.1940  0.9670
    1SOL    HW2 8334   2.623   1.975   3.476  0.4090  0.9253  1.0630
    1SOL    HW3 8335   2.686   1.963   3.339 -0.2975 -1.0882  0.8921
    1SOL    MW4 8336   2.691   1.954   3.425  0.0274 -0.1644  0.9694
    1SOL     OW 8337   2.943   2.049   3.542  0.2763  0.1301  0.1850
    1SOL    HW2 8338   2.963   2.036   3.635 -0.3449 -0.6639  0.2095
    1SOL    HW3 8339   2.851   2.026   3.533  0.4298 -0.1791 -0.7046
    1SOL    MW4 8340   2.933   2.044   3.553  0.2148 -0.0153  0.0710
    1SOL     OW 8341   2.942   2.281   3.396  0.1196 -0.3765 -0.7153
    1SOL    HW2 8342   2.937   2.195   3.438  1.0800 -1.1271 -2.0927
    1SOL    HW3 8343   2.938   2.263   3.302  2.1439  0.8994 -1.0963
    1SOL    MW4 8344   2.941   2.267   3.389  0.5133 -0.3071 -0.9470
    1SOL     OW 8345   2.710   2.422   3.481  0.1420  0.2948 -0.3204
    1SOL    HW2 8346   2.735   2.433   3.572  0.0337 -0.6518 -0.1750
    1SOL    HW3 8347   2.780   2.369   3.443 -1.2869 -1.8222 -0.0676
    1SOL    MW4 8348   2.723   2.417   3.488 -0.0608 -0.1092 -0.2680
    1SOL     OW 8349   2.691   2.687   3.381  0.0026 -0.0495  0.6553
    1SOL    HW2 8350   2.682   2.606   3.431  0.7059 -0.4699  0.1119
    1SOL    HW3 8351   2.622   2.744   3.415 -0.9349 -1.1231  0.5613
    1SOL    MW4 8352   2.681   2.684   3.392 -0.0286 -0.2465  0.5710
    1SOL     OW 8353   2.938   2.787   3.506 -0.0677 -0.6495  0.1797
    1SOL    HW2 8354   2.919   2.815   3.595 -0.8116  0.3178 -0.2691
    1SOL    HW3 8355   2.853   2.762   3.470  0.2195 -0.9764 -0.2709
    1SOL    MW4 8356   2.924   2.788   3.513 -0.1278 -0.5648  0.0610
    1SOL     OW 8357   2.955   3.064   3.440 -0.2521 -0.1014 -1.2465
    1SOL    HW2 8358   2.937   2.970   3.443 -0.1204 -0.1343 -1.4902
    1SOL    HW3 8359   2.951   3.086   3.347  0.2031  0.0388 -1.2327
    1SOL    MW4 8360   2.952   3.054   3.428 -0.1748 -0.0870 -1.2770
    1SOL     OW 8361   2.711   3.219   3.483  0.0891 -0.0294  0.1986
    1SOL    HW2 8362   2.707   3.229   3.578 -0.0049  0.3023  0.1619
    1SOL    HW3 8363   2.790   3.169   3.467 -0.0691 -0.3713  0.4739
    1SOL    MW4 8364   2.721   3.214   3.493  0.0558 -0.0308  0.2298
    1SOL     OW 8365   2.719   3.460   3.367 -0.4066  0.0764  0.0383
    1SOL    HW2 8366   2.721   3.371   3.403  0.7109  0.4790  0.9759
    1SOL    HW3 8367   2.632   3.493   3.390 -0.1612 -0.1269  1.2623
    1SOL    MW4 8368   2.708   3.453   3.375 -0.2267  0.1025  0.3235
    1SOL     OW 8369   2.923   3.568   3.502  0.1157 -0.2293  0.2688
    1SOL    HW2 8370   2.914   3.660   3.478  0.4701 -0.1656  0.3937
    1SOL    HW3 8371   2.855   3.524   3.450 -0.3723  0.1631  0.5722
    1SOL    MW4 8372   2.913   3.574   3.492  0.0978 -0.1693  0.3254
    1SOL     OW 8373   2.900   3.837   3.421  0.0158 -0.0669 -0.0929
    1SOL    HW2 8374   2.979   3.887   3.441 -0.2292 -0.0652  0.9317
    1SOL    HW3 8375   2.828   3.897   3.441 -0.2712 -0.7137  0.8886
    1SOL    MW4 8376   2.901   3.851   3.426 -0.0546 -0.1521  0.1719
    1SOL     OW 8377   2.693   4.011   3.463 -0.4888  0.0822 -0.1775
    1SOL    HW2 8378   2.695   4.021   3.558 -0.7501 -2.2691  0.1124
    1SOL    HW3 8379   2.697   4.100   3.429 -1.7037  1.0205  2.0603
    1SOL    MW4 8380   2.694   4.024   3.471 -0.6835 -0.1044  0.1562
    1SOL     OW 8381   2.692   4.269   3.362  0.0146 -0.0227  0.4697
    1SOL    HW2 8382   2.757   4.321   3.411  0.0673  0.3525  0.0049
    1SOL    HW3 8383   2.608   4.296   3.399  0.0280  0.5372  0.1073
    1SOL    MW4 8384   2.689   4.280   3.373  0.0231  0.1006  0.3610
    1SOL     OW 8385   2.897   4.411   3.497  0.1857  0.2790 -0.1878
    1SOL    HW2 8386   2.879   4.414   3.591 -1.2016  2.1329 -0.4772
    1SOL    HW3 8387   2.887   4.502   3.468  0.1219 -0.3506 -2.2068
    1SOL    MW4 8388   2.893   4.424   3.505 -0.0060  0.4406 -0.4926
    1SOL     OW 8389   3.390   4.612   3.401  1.1437  0.0595  0.4828
    1SOL    HW2 8390   3.314   4.662   3.432  0.9721 -0.0437  0.2280
    1SOL    HW3 8391   3.379   4.609   3.306  1.5377  0.1609  0.4320
    1SOL    MW4 8392   3.378   4.618   3.393  1.1733  0.0591  0.4425
    1SOL     OW 8393   3.177   0.102   3.488  0.1789 -0.2735 -0.1038
    1SOL    HW2 8394   3.162   0.192   3.460  0.1494 -0.4201 -0.5573
    1SOL    HW3 8395   3.102   0.053   3.453  0.8986 -0.7261 -1.0460
    1SOL    MW4 8396   3.165   0.107   3.480  0.2699 -0.3525 -0.2880
    1SOL     OW 8397   3.129   0.386   3.430  0.0659 -0.2596 -0.0851
    1SOL    HW2 8398   3.050   0.434   3.456  0.0013  0.0382 -0.8130
    1SOL    HW3 8399   3.124   0.383   3.334  1.4053  0.5316 -0.1770
    1SOL    MW4 8400   3.118   0.392   3.421  0.2344 -0.1159 -0.1934
    1SOL     OW 8401   3.357   0.512   3.522 -0.0251  0.3245  0.5701
    1SOL    HW2 8402   3.371   0.493   3.615 -0.5126 -1.5485  0.2858
    1SOL    HW3 8403   3.273   0.470   3.501  1.3467 -1.6146 -1.3261
    1SOL    MW4 8404   3.348   0.504   3.531  0.0916 -0.1785  0.2825
    1SOL     OW 8405   3.389   0.748   3.410 -0.6522 -0.2999 -0.0574
    1SOL    HW2 8406   3.474   0.784   3.433 -0.6107  0.0797 -0.8218
    1SOL    HW3 8407   3.385   0.665   3.457  1.1264 -1.4645 -1.9037
    1SOL    MW4 8408   3.400   0.742   3.420 -0.4122 -0.4035 -0.4017
    1SOL     OW 8409   3.141   0.876   3.458 -0.1554 -0.3789 -0.3476
    1SOL    HW2 8410   3.155   0.967   3.435 -1.4070 -0.2728 -0.6710
    1SOL    HW3 8411   3.230   0.840   3.466  0.3589  1.0667  0.6351
    1SOL    MW4 8412   3.155   0.883   3.456 -0.2530 -0.1741 -0.2606
    1SOL     OW 8413   3.127   1.144   3.408 -0.2109 -0.1848  0.1302
    1SOL    HW2 8414   3.194   1.208   3.432 -0.6905 -0.0778  1.2432
    1SOL    HW3 8415   3.119   1.152   3.313  0.6838  0.4639  0.1017
    1SOL    MW4 8416   3.135   1.154   3.399 -0.1559 -0.0851  0.2735
    1SOL     OW 8417   3.360   1.284   3.508  0.0414 -0.3628 -0.6569
    1SOL    HW2 8418   3.436   1.236   3.476  0.1131 -0.4858 -0.3095
    1SOL    HW3 8419   3.367   1.371   3.468  0.5916 -0.2362 -0.2835
    1SOL    MW4 8420   3.371   1.289   3.498  0.1235 -0.3624 -0.5617
    1SOL     OW 8421   3.358   1.532   3.408 -0.1374 -0.2944  0.6165
    1SOL    HW2 8422   3.426   1.567   3.465 -1.4823  2.6994  0.4485
    1SOL    HW3 8423   3.277   1.572   3.439 -1.4159 -1.4989 -1.0691
    1SOL    MW4 8424   3.356   1.542   3.419 -0.4835 -0.0584  0.3722
    1SOL     OW 8425   3.147   1.654   3.535 -0.1135  0.4192 -0.3057
    1SOL    HW2 8426   3.157   1.735   3.485 -1.5615  0.0182 -1.2828
    1SOL    HW3 8427   3.074   1.609   3.493 -0.8994 -0.2757  1.7358
    1SOL    MW4 8428   3.139   1.658   3.523 -0.4082  0.2747 -0.1652
    1SOL     OW 8429   3.124   1.908   3.393 -0.2752 -0.6901  0.6677
    1SOL    HW2 8430   3.061   1.953   3.450 -0.2100  1.1927 -0.6749
    1SOL    HW3 8431   3.209   1.946   3.416 -0.3102  0.4407 -0.9747
    1SOL    MW4 8432   3.127   1.919   3.404 -0.2711 -0.2925  0.2737
    1SOL     OW 8433   3.389   2.016   3.477 -0.3684  0.1496 -0.4429
    1SOL    HW2 8434   3.412   2.105   3.450  3.2072 -0.6430 -0.2497
    1SOL    HW3 8435   3.368   2.024   3.570 -0.6749  0.9036 -0.5737
    1SOL    MW4 8436   3.389   2.029   3.485  0.0632  0.1445 -0.4346
    1SOL     OW 8437   3.423   2.293   3.394 -0.0368  0.3950 -0.1997
    1SOL    HW2 8438   3.489   2.352   3.428 -0.8176  0.5865  1.0053
    1SOL    HW3 8439   3.341   2.324   3.431 -0.5492 -1.0362 -0.0957
    1SOL    MW4 8440   3.421   2.305   3.403 -0.2072  0.2317 -0.0272
    1SOL     OW 8441   3.181   2.396   3.470  0.0698  0.2277 -0.2794
    1SOL    HW2 8442   3.180   2.479   3.422 -1.5817  0.1648 -0.3732
    1SOL    HW3 8443   3.098   2.355   3.448  0.4509 -1.0078  0.5574
    1SOL    MW4 8444   3.170   2.402   3.461 -0.0978  0.0565 -0.1814
    1SOL     OW 8445   3.182   2.682   3.380  0.4462 -0.2085  0.5177
    1SOL    HW2 8446   3.248   2.726   3.433  0.5262  0.5711 -0.2115
    1SOL    HW3 8447   3.098   2.717   3.412  0.4929  0.2305  0.1815
    1SOL    MW4 8448   3.179   2.693   3.391  0.4628 -0.0477  0.3772
    1SOL     OW 8449   3.388   2.815   3.522 -0.1109  0.1349 -0.2539
    1SOL    HW2 8450   3.370   2.815   3.616  0.4482 -0.8355 -0.1498
    1SOL    HW3 8451   3.384   2.908   3.498 -0.8070  0.3476  0.6133
    1SOL    MW4 8452   3.385   2.828   3.531 -0.1287  0.0346 -0.1256
    1SOL     OW 8453   3.403   3.090   3.410  0.3080 -0.4749  0.2337
    1SOL    HW2 8454   3.483   3.123   3.451 -0.3461  2.0400 -0.4083
    1SOL    HW3 8455   3.332   3.133   3.458 -0.5395  0.3774 -1.7067
    1SOL    MW4 8456   3.404   3.100   3.422  0.1099 -0.0303 -0.1073
    1SOL     OW 8457   3.175   3.187   3.506  0.4287 -0.0347 -0.4151
    1SOL    HW2 8458   3.157   3.273   3.466 -1.4328  0.8677  2.1770
    1SOL    HW3 8459   3.092   3.140   3.500  0.6827 -0.6312  0.5613
    1SOL    MW4 8460   3.162   3.192   3.500  0.2165  0.0057  0.0558
    1SOL     OW 8461   3.170   3.467   3.424 -0.0615  0.7453  0.2263
    1SOL    HW2 8462   3.087   3.499   3.459 -0.6352 -1.4352  0.9832
    1SOL    HW3 8463   3.166   3.485   3.330 -1.9005 -0.3603  0.0754
    1SOL    MW4 8464   3.159   3.473   3.416 -0.3800  0.3116  0.3061
    1SOL     OW 8465   3.407   3.607   3.494  0.1721 -0.2917  0.3832
    1SOL    HW2 8466   3.395   3.694   3.456 -0.2425 -0.4112  0.2445
    1SOL    HW3 8467   3.326   3.560   3.474  0.5882 -0.8657  0.0499
    1SOL    MW4 8468   3.395   3.613   3.487  0.1721 -0.3834  0.3209
    1SOL     OW 8469   3.400   3.861   3.391 -0.1384  0.1059  0.1385
    1SOL    HW2 8470   3.476   3.912   3.418  0.7676 -1.3077  0.3427
    1SOL    HW3 8471   3.326   3.901   3.438  0.3780  1.8240 -0.4776
    1SOL    MW4 8472   3.400   3.873   3.401  0.0494  0.1462  0.0842
    1SOL     OW 8473   3.147   3.965   3.455 -0.2223 -0.0991  0.4151
    1SOL    HW2 8474   3.139   3.977   3.550 -0.6565 -0.9190  0.4854
    1SOL    HW3 8475   3.133   4.053   3.419  1.4901  0.5112  1.1867
    1SOL    MW4 8476   3.144   3.978   3.463 -0.0536 -0.1264  0.5262
    1SOL     OW 8477   3.098   4.238   3.451 -0.4454 -0.1614  0.5428
    1SOL    HW2 8478   3.185   4.268   3.478 -0.7486  0.4647  0.8429
    1SOL    HW3 8479   3.039   4.311   3.473 -0.9311 -0.2594 -0.3874
    1SOL    MW4 8480   3.101   4.251   3.458 -0.5496 -0.0920  0.4597
    1SOL     OW 8481   3.338   4.336   3.490  0.0048 -0.2650  0.2017
    1SOL    HW2 8482   3.345   4.345   3.585 -0.4446  2.5674  0.0104
    1SOL    HW3 8483   3.336   4.426   3.458 -0.0497 -1.1904 -2.4880
    1SOL    MW4 8484   3.339   4.349   3.498 -0.0618 -0.0129 -0.1783
    1SOL     OW 8485   3.832   4.650   3.373 -0.1533 -0.4199  0.0240
    1SOL    HW2 8486   3.749   4.682   3.410  0.2901  0.0167  0.6562
    1SOL    HW3 8487   3.823   4.665   3.279 -0.4045  0.5555  0.1917
    1SOL    MW4 8488   3.820   4.656   3.365 -0.1280 -0.2336  0.1297
    1SOL     OW 8489   3.600   0.099   3.488 -0.1513 -0.2592  0.3812
    1SOL    HW2 8490   3.562   0.177   3.448 -0.2793 -0.4156  0.1969
    1SOL    HW3 8491   3.539   0.028   3.467  0.8154 -0.7381 -0.9299
    1SOL    MW4 8492   3.587   0.100   3.480 -0.0408 -0.3431  0.1838
    1SOL     OW 8493   3.561   0.365   3.384 -0.2818  0.3480  0.0903
    1SOL    HW2 8494   3.637   0.398   3.431 -0.2696  1.0334 -0.4016
    1SOL    HW3 8495   3.486   0.402   3.431 -0.3402 -0.9419  1.0335
    1SOL    MW4 8496   3.561   0.375   3.396 -0.2878  0.2683  0.1495
    1SOL     OW 8497   3.801   0.496   3.504  0.3062 -0.5408  0.0004
    1SOL    HW2 8498   3.815   0.505   3.598  1.6852  0.4505 -0.2874
    1SOL    HW3 8499   3.888   0.475   3.469 -0.2581 -1.2137 -1.0181
    1SOL    MW4 8500   3.814   0.494   3.512  0.4137 -0.4988 -0.1721
    1SOL     OW 8501   3.820   0.735   3.356 -0.3754  0.1046  0.2797
    1SOL    HW2 8502   3.888   0.769   3.414  1.5052 -0.5124 -1.5199
    1SOL    HW3 8503   3.795   0.651   3.396 -1.1525  1.0050  1.7381
    1SOL    MW4 8504   3.825   0.728   3.369 -0.2298  0.1420  0.2346
    1SOL     OW 8505   3.617   0.897   3.470 -0.0155  0.3089  0.0458
    1SOL    HW2 8506   3.621   0.887   3.565 -0.1819  1.9436  0.2493
    1SOL    HW3 8507   3.695   0.853   3.437 -0.0888 -0.4756  0.9183
    1SOL    MW4 8508   3.628   0.890   3.478 -0.0472  0.4210  0.1876
    1SOL     OW 8509   3.578   1.157   3.368  0.0778  0.1822  0.0088
    1SOL    HW2 8510   3.580   1.065   3.395 -0.7452  0.5117  1.2572
    1SOL    HW3 8511   3.574   1.154   3.272  0.9417 -1.0627  0.0016
    1SOL    MW4 8512   3.578   1.145   3.359  0.0832  0.0614  0.1726
    1SOL     OW 8513   3.801   1.289   3.456  0.0394 -0.6882  0.1396
    1SOL    HW2 8514   3.803   1.275   3.551 -0.0082 -0.5826  0.1553
    1SOL    HW3 8515   3.719   1.250   3.427 -0.7153  0.7456  0.3581
    1SOL    MW4 8516   3.791   1.282   3.465 -0.0665 -0.4849  0.1702
    1SOL     OW 8517   3.809   1.551   3.389 -0.0521  0.3890  0.3256
    1SOL    HW2 8518   3.892   1.594   3.407 -0.6534  0.9887  1.7278
    1SOL    HW3 8519   3.817   1.464   3.428  0.3248  0.0382 -0.5238
    1SOL    MW4 8520   3.821   1.545   3.396 -0.0818  0.4219  0.3986
    1SOL     OW 8521   3.590   1.680   3.507  0.4189  0.2846  0.0700
    1SOL    HW2 8522   3.596   1.771   3.479  0.9088  0.1434 -0.2913
    1SOL    HW3 8523   3.660   1.635   3.460  0.5880 -0.1602  0.7312
    1SOL    MW4 8524   3.600   1.686   3.497  0.5059  0.2073  0.1094
    1SOL     OW 8525   3.645   1.948   3.398  0.0282 -0.1193  0.4319
    1SOL    HW2 8526   3.714   1.997   3.443  0.3846  0.1296 -0.3733
    1SOL    HW3 8527   3.564   1.983   3.435  0.3119  0.0375  0.9227
    1SOL    MW4 8528   3.643   1.959   3.409  0.1125 -0.0659  0.3905
    1SOL     OW 8529   3.826   2.131   3.507 -0.7547  0.4620  0.1641
    1SOL    HW2 8530   3.801   2.120   3.599 -1.4511  0.4689 -0.0199
    1SOL    HW3 8531   3.905   2.078   3.497 -1.9314 -1.3739  0.2189
    1SOL    MW4 8532   3.833   2.122   3.518 -1.0018  0.2208  0.1473
    1SOL     OW 8533   3.817   2.362   3.350  0.7961 -0.7054 -0.5285
    1SOL    HW2 8534   3.902   2.396   3.379 -0.1659  1.2173  0.1616
    1SOL    HW3 8535   3.804   2.283   3.402  1.1995  0.1730  0.9532
    1SOL    MW4 8536   3.827   2.356   3.361  0.7224 -0.3359 -0.2420
    1SOL     OW 8537   3.616   2.459   3.490 -0.5879 -0.0593  0.1579
    1SOL    HW2 8538   3.590   2.535   3.438  0.6771 -0.2611 -0.8017
    1SOL    HW3 8539   3.696   2.427   3.448 -2.0959 -3.0363 -0.5804
    1SOL    MW4 8540   3.623   2.465   3.478 -0.6199 -0.4790 -0.0663
    1SOL     OW 8541   3.576   2.706   3.362 -0.0425  0.2179 -0.2768
    1SOL    HW2 8542   3.663   2.733   3.394  0.3373  0.4336 -1.4842
    1SOL    HW3 8543   3.515   2.749   3.422  0.6897 -0.4430  0.9700
    1SOL    MW4 8544   3.580   2.715   3.374  0.1044  0.1593 -0.2713
    1SOL     OW 8545   3.799   2.819   3.490  0.2869 -0.0776 -0.4096
    1SOL    HW2 8546   3.798   2.819   3.585 -1.4967 -1.1802 -0.4069
    1SOL    HW3 8547   3.793   2.912   3.466  0.0830  0.1681  0.5605
    1SOL    MW4 8548   3.798   2.831   3.499  0.0246 -0.1907 -0.2813
    1SOL     OW 8549   3.806   3.070   3.396  0.5955 -0.0661 -0.3937
    1SOL    HW2 8550   3.890   3.109   3.419  0.2496  0.2519  0.3310
    1SOL    HW3 8551   3.797   3.088   3.302  0.6226  1.2709 -0.1603
    1SOL    MW4 8552   3.816   3.078   3.386  0.5536  0.1521 -0.2673
    1SOL     OW 8553   3.619   3.221   3.520 -0.8846 -0.3914 -0.1667
    1SOL    HW2 8554   3.625   3.305   3.473  0.1847  0.2949  1.1540
    1SOL    HW3 8555   3.685   3.166   3.478 -1.4910 -0.5200 -0.9474
    1SOL    MW4 8556   3.629   3.225   3.508 -0.8235 -0.3178 -0.0956
    1SOL     OW 8557   3.617   3.458   3.385  0.1294  0.5567 -0.5458
    1SOL    HW2 8558   3.537   3.499   3.418 -0.6872 -1.0703 -0.4310
    1SOL    HW3 8559   3.609   3.465   3.289  0.2062  1.0483 -0.5169
    1SOL    MW4 8560   3.605   3.464   3.376  0.0317  0.4070 -0.5267
    1SOL     OW 8561   3.819   3.649   3.484 -0.0934 -0.1365 -0.4090
    1SOL    HW2 8562   3.821   3.651   3.580  0.4002 -0.6051 -0.4100
    1SOL    HW3 8563   3.751   3.585   3.463  1.5376 -1.9121 -0.3633
    1SOL    MW4 8564   3.810   3.641   3.494  0.1869 -0.4323 -0.4029
    1SOL     OW 8565   3.818   3.900   3.354 -0.2473  0.1908 -0.2524
    1SOL    HW2 8566   3.738   3.945   3.382 -0.1256  0.5443 -0.4869
    1SOL    HW3 8567   3.811   3.813   3.395 -0.0129  0.7450  0.9890
    1SOL    MW4 8568   3.806   3.894   3.363 -0.2003  0.3104 -0.1194
    1SOL     OW 8569   3.609   4.023   3.476 -0.1488  0.3353  0.0053
    1SOL    HW2 8570   3.617   4.037   3.570 -1.6191 -1.0317  0.3415
    1SOL    HW3 8571   3.599   4.111   3.440  0.6693  0.8835  1.0955
    1SOL    MW4 8572   3.609   4.037   3.484 -0.2348  0.2275  0.1934
    1SOL     OW 8573   3.563   4.269   3.358  0.0939  0.0082 -0.7519
    1SOL    HW2 8574   3.481   4.297   3.398  0.6596  0.9347 -0.2289
    1SOL    HW3 8575   3.554   4.291   3.266 -0.3065 -0.0496 -0.7297
    1SOL    MW4 8576   3.551   4.275   3.351  0.1156  0.1225 -0.6800
    1SOL     OW 8577   3.811   4.395   3.467  0.2871  0.0516  0.2505
    1SOL    HW2 8578   3.745   4.348   3.415  1.9055 -1.1877 -0.7458
    1SOL    HW3 8579   3.810   4.483   3.431 -1.0987  0.1719  0.5249
    1SOL    MW4 8580   3.802   4.400   3.455  0.3181 -0.0963  0.1554
    1SOL     OW 8581   4.286   4.635   3.366 -0.0369 -0.0679 -0.1207
    1SOL    HW2 8582   4.295   4.542   3.384 -0.3311 -0.1749 -0.5184
    1SOL    HW3 8583   4.351   4.677   3.422  0.6274 -0.5688 -0.5174
    1SOL    MW4 8584   4.296   4.629   3.375  0.0124 -0.1488 -0.2258
    1SOL     OW 8585   4.058   0.135   3.471 -0.5183 -0.5422  0.4551
    1SOL    HW2 8586   4.123   0.068   3.451 -0.9579 -0.7189 -0.4184
    1SOL    HW3 8587   3.979   0.106   3.426 -0.8492  0.3121  0.4762
    1SOL    MW4 8588   4.056   0.122   3.462 -0.6199 -0.4528  0.3426
    1SOL     OW 8589   4.045   0.405   3.406  0.4157  0.1103  0.4175
    1SOL    HW2 8590   4.047   0.314   3.437 -0.8047  0.3806  1.3297
    1SOL    HW3 8591   4.041   0.397   3.311 -0.0207 -0.8044  0.5027
    1SOL    MW4 8592   4.045   0.392   3.397  0.1965  0.0252  0.5493
    1SOL     OW 8593   4.290   0.528   3.450  0.0283 -0.2441  0.0949
    1SOL    HW2 8594   4.269   0.621   3.455 -0.3787 -0.4147  2.0988
    1SOL    HW3 8595   4.208   0.485   3.427  0.3962 -0.0501 -1.6295
    1SOL    MW4 8596   4.277   0.535   3.448  0.0238 -0.2410  0.1316
    1SOL     OW 8597   4.245   0.794   3.389  0.0222  0.1332 -0.7553
    1SOL    HW2 8598   4.329   0.838   3.402  1.0212 -1.6569 -0.9879
    1SOL    HW3 8599   4.241   0.778   3.295 -0.5522  0.1425 -0.7358
    1SOL    MW4 8600   4.255   0.797   3.378  0.0782 -0.1019 -0.7832
    1SOL     OW 8601   4.009   0.932   3.487 -0.0827 -0.0052  0.1673
    1SOL    HW2 8602   4.025   1.016   3.444 -0.9196 -0.3013 -0.7214
    1SOL    HW3 8603   4.088   0.880   3.470 -0.5917 -0.2760 -1.3666
    1SOL    MW4 8604   4.021   0.936   3.479 -0.2599 -0.0800 -0.1526
    1SOL     OW 8605   4.038   1.199   3.356  0.3423 -0.0815  0.0164
    1SOL    HW2 8606   4.102   1.257   3.397  1.8058 -0.3314 -1.8474
    1SOL    HW3 8607   3.953   1.236   3.381  1.2188  1.4110  0.8918
    1SOL    MW4 8608   4.035   1.212   3.365  0.6514  0.0825 -0.1144
    1SOL     OW 8609   4.231   1.320   3.507 -0.2780 -0.1426 -0.0522
    1SOL    HW2 8610   4.256   1.412   3.504 -0.6610  0.0449  1.6229
    1SOL    HW3 8611   4.312   1.273   3.486 -0.2165  0.5762 -1.4651
    1SOL    MW4 8612   4.245   1.326   3.504 -0.3204 -0.0229 -0.0176
    1SOL     OW 8613   4.271   1.593   3.426 -0.4788  0.3229  0.2546
    1SOL    HW2 8614   4.195   1.644   3.454  0.9445  2.1005  1.0929
    1SOL    HW3 8615   4.269   1.596   3.331 -1.3090  0.6018  0.2778
    1SOL    MW4 8616   4.261   1.600   3.417 -0.4005  0.5941  0.3681
    1SOL     OW 8617   4.034   1.702   3.524 -0.6002  0.1869 -0.3977
    1SOL    HW2 8618   4.027   1.697   3.619  0.7265  0.3591 -0.2823
    1SOL    HW3 8619   4.046   1.795   3.506 -2.8581  0.4070 -0.8929
    1SOL    MW4 8620   4.035   1.714   3.534 -0.7224  0.2388 -0.4478
    1SOL     OW 8621   4.060   1.966   3.430  0.0379  0.1037 -0.1861
    1SOL    HW2 8622   4.152   1.985   3.446 -0.8392  2.6445  2.2593
    1SOL    HW3 8623   4.055   1.950   3.336  2.6042  2.1600 -0.7268
    1SOL    MW4 8624   4.071   1.966   3.420  0.2608  0.7101  0.0656
    1SOL     OW 8625   4.323   2.059   3.513  0.0615 -0.0084  0.3173
    1SOL    HW2 8626   4.323   2.150   3.484 -0.3489  0.4821  1.8312
    1SOL    HW3 8627   4.403   2.022   3.474  1.2984  1.5303  1.3098
    1SOL    MW4 8628   4.334   2.066   3.504  0.1702  0.2592  0.6478
    1SOL     OW 8629   4.286   2.315   3.421  0.3402 -0.0333  0.2758
    1SOL    HW2 8630   4.204   2.351   3.453  0.8432  1.9516 -0.5987
    1SOL    HW3 8631   4.274   2.308   3.326  1.1935  0.3127  0.1395
    1SOL    MW4 8632   4.274   2.318   3.413  0.5193  0.2742  0.1421
    1SOL     OW 8633   4.060   2.455   3.481 -0.0941  0.4251  0.2033
    1SOL    HW2 8634   4.051   2.449   3.576  1.8267  1.5894  0.4838
    1SOL    HW3 8635   4.053   2.548   3.461 -0.7029  0.1713 -0.8327
    1SOL    MW4 8636   4.058   2.467   3.491  0.0792  0.5450  0.1040
    1SOL     OW 8637   4.021   2.717   3.401  0.1795  0.0924  0.2401
    1SOL    HW2 8638   4.094   2.776   3.417 -0.0216 -0.1220  1.9978
    1SOL    HW3 8639   3.944   2.765   3.430 -0.2187 -0.2658 -0.1996
    1SOL    MW4 8640   4.020   2.731   3.407  0.1006  0.0167  0.4139
    1SOL     OW 8641   4.251   2.847   3.467  0.0702 -0.4510  0.0836
    1SOL    HW2 8642   4.258   2.848   3.563  0.8946 -0.9147  0.0308
    1SOL    HW3 8643   4.332   2.806   3.438  0.3789  0.8050 -0.8742
    1SOL    MW4 8644   4.263   2.842   3.476  0.2198 -0.3467 -0.0498
    1SOL     OW 8645   4.290   3.113   3.362  0.3629  0.0910  0.1757
    1SOL    HW2 8646   4.265   3.022   3.379 -0.8757  0.3217 -0.4017
    1SOL    HW3 8647   4.324   3.112   3.273  2.5291 -0.2276  0.9594
    1SOL    MW4 8648   4.291   3.101   3.353  0.4849  0.0796  0.2027
    1SOL     OW 8649   4.049   3.210   3.477 -0.3655  0.1167  0.2458
    1SOL    HW2 8650   4.044   3.299   3.443 -0.7914 -0.6414 -1.8088
    1SOL    HW3 8651   4.135   3.178   3.450 -0.1843 -0.0572  1.0361
    1SOL    MW4 8652   4.059   3.218   3.469 -0.3977 -0.0062  0.0792
    1SOL     OW 8653   4.017   3.476   3.412  0.4573 -0.2638  0.0805
    1SOL    HW2 8654   4.097   3.518   3.445  1.0107 -0.2216 -1.3160
    1SOL    HW3 8655   3.946   3.527   3.450  1.1057  0.4948  0.2810
    1SOL    MW4 8656   4.019   3.488   3.422  0.6161 -0.1583 -0.0772
    1SOL     OW 8657   4.254   3.609   3.480 -0.5942  0.0242  0.0363
    1SOL    HW2 8658   4.269   3.624   3.574  3.5644  0.6327 -0.6285
    1SOL    HW3 8659   4.237   3.695   3.444  0.6326  0.1785 -0.1926
    1SOL    MW4 8660   4.254   3.622   3.488  0.1154  0.1245 -0.0815
    1SOL     OW 8661   4.206   3.879   3.406  0.0909 -0.6171 -0.0260
    1SOL    HW2 8662   4.298   3.902   3.421 -0.3117  0.7794  0.4448
    1SOL    HW3 8663   4.196   3.881   3.311  0.2697  0.4078 -0.0290
    1SOL    MW4 8664   4.217   3.883   3.395  0.0615 -0.2975  0.0355
    1SOL     OW 8665   3.994   4.009   3.524  0.0813  0.8902 -0.2229
    1SOL    HW2 8666   4.076   3.967   3.497  0.2922  1.0140  0.2151
    1SOL    HW3 8667   3.928   3.975   3.464  0.4732  0.8537 -0.6301
    1SOL    MW4 8668   3.996   3.999   3.513  0.1605  0.9017 -0.2186
    1SOL     OW 8669   4.037   4.253   3.383 -0.1800 -0.1916  0.2408
    1SOL    HW2 8670   4.019   4.168   3.423 -0.0916  0.3946  1.5599
    1SOL    HW3 8671   3.964   4.308   3.409  0.1727  0.3674  0.0723
    1SOL    MW4 8672   4.025   4.249   3.391 -0.1216 -0.0401  0.3924
    1SOL     OW 8673   4.307   4.361   3.421  0.1262 -0.5162 -0.1451
    1SOL    HW2 8674   4.310   4.382   3.514 -1.0441 -0.7697 -0.0465
    1SOL    HW3 8675   4.218   4.329   3.406 -0.5124  1.9724 -1.8781
    1SOL    MW4 8676   4.296   4.359   3.431 -0.1125 -0.2213 -0.3605
    1SOL     OW 8677   0.234   4.628   3.846 -0.6201 -0.7661 -0.4133
    1SOL    HW2 8678   0.262   4.652   3.934  0.2604 -3.0801 -0.0347
    1SOL    HW3 8679   0.167   4.693   3.824 -0.2429  0.3545  1.6090
    1SOL    MW4 8680   0.229   4.639   3.855 -0.4542 -0.9236 -0.0963
    1SOL     OW 8681   0.058   0.134   3.761  0.1754  0.1626 -0.0528
    1SOL    HW2 8682   0.047   0.225   3.789  1.5201  0.2516  0.2175
    1SOL    HW3 8683   0.047   0.137   3.666 -0.9715  0.4110  0.0810
    1SOL    MW4 8684   0.055   0.146   3.752  0.2015  0.2071  0.0007
    1SOL     OW 8685   0.032   0.396   3.839  0.0134  0.0924 -0.0147
    1SOL    HW2 8686  -0.040   0.439   3.793  0.4024 -1.2270 -1.9411
    1SOL    HW3 8687   0.111   0.435   3.802  0.3157 -0.3582  0.1436
    1SOL    MW4 8688   0.033   0.406   3.828  0.1046 -0.1411 -0.2480
    1SOL     OW 8689   0.260   0.509   3.747 -0.0769  0.0218 -0.6563
    1SOL    HW2 8690   0.241   0.597   3.780 -1.2037 -0.1944 -0.7308
    1SOL    HW3 8691   0.252   0.517   3.652  1.8319  0.3175 -0.8147
    1SOL    MW4 8692   0.257   0.522   3.738  0.0263  0.0324 -0.6871
    1SOL     OW 8693   0.197   0.769   3.844  0.1803  0.0212  0.3828
    1SOL    HW2 8694   0.213   0.782   3.938  0.6682  0.7410  0.2018
    1SOL    HW3 8695   0.117   0.817   3.826 -1.3450 -2.2157  0.9442
    1SOL    MW4 8696   0.188   0.777   3.854  0.0434 -0.1789  0.4330
    1SOL     OW 8697   4.443   0.903   3.744  0.7972 -0.1269 -0.2348
    1SOL    HW2 8698   4.370   0.864   3.792 -0.7354  0.1664 -2.2725
    1SOL    HW3 8699   4.461   0.985   3.790  0.3033 -0.5198  0.6766
    1SOL    MW4 8700   4.436   0.908   3.756  0.5298 -0.1400 -0.3834
    1SOL     OW 8701   0.011   1.144   3.869  0.0656 -0.2167  0.1222
    1SOL    HW2 8702  -0.070   1.196   3.871 -1.0879 -1.9327 -0.7043
    1SOL    HW3 8703   0.036   1.134   3.960 -0.9535 -0.1209  0.4178
    1SOL    MW4 8704   0.003   1.150   3.881 -0.2208 -0.4305  0.0520
    1SOL     OW 8705   0.246   1.244   3.762  0.1010  0.5660 -0.2200
    1SOL    HW2 8706   0.240   1.334   3.793  0.9634  0.5980 -0.1565
    1SOL    HW3 8707   0.164   1.204   3.792 -0.1899  1.2661 -0.0633
    1SOL    MW4 8708   0.234   1.251   3.770  0.1764  0.6627 -0.1907
    1SOL     OW 8709   0.218   1.512   3.829  0.2285 -0.0334 -0.2218
    1SOL    HW2 8710   0.246   1.525   3.920 -0.6708 -1.3268  0.2650
    1SOL    HW3 8711   0.150   1.577   3.815 -0.1129 -0.2824  0.2607
    1SOL    MW4 8712   0.213   1.522   3.839  0.0648 -0.2367 -0.0939
    1SOL     OW 8713   0.013   1.712   3.760 -0.4758  0.1493 -0.2836
    1SOL    HW2 8714   0.022   1.801   3.795 -2.0393  0.0498  0.4427
    1SOL    HW3 8715   0.021   1.723   3.665  1.0000  0.8156 -0.0931
    1SOL    MW4 8716   0.015   1.725   3.752 -0.4874  0.2240 -0.1628
    1SOL     OW 8717   0.025   1.956   3.899 -0.3165  0.4243 -0.5944
    1SOL    HW2 8718   0.024   1.950   3.995 -0.2136  0.9070 -0.5657
    1SOL    HW3 8719  -0.061   1.990   3.876 -1.0269 -1.4196 -0.7888
    1SOL    MW4 8720   0.014   1.959   3.909 -0.3967  0.2447 -0.6163
    1SOL     OW 8721   0.256   2.091   3.764 -0.3041 -0.0512  0.1574
    1SOL    HW2 8722   0.251   2.180   3.797  0.4725  0.4497 -1.0651
    1SOL    HW3 8723   0.182   2.046   3.805 -0.6365  1.1242  0.8520
    1SOL    MW4 8724   0.245   2.097   3.774 -0.2455  0.1702  0.0877
    1SOL     OW 8725   0.238   2.349   3.858 -0.5060  0.0781 -0.3545
    1SOL    HW2 8726   0.213   2.328   3.947 -1.1447 -0.5962 -0.6876
    1SOL    HW3 8727   0.159   2.390   3.820  0.2146  1.6895 -0.1779
    1SOL    MW4 8728   0.224   2.352   3.865 -0.4952  0.2017 -0.3750
    1SOL     OW 8729   0.007   2.459   3.761 -0.3883 -0.1444 -0.7416
    1SOL    HW2 8730  -0.064   2.416   3.808 -0.3173 -0.5064 -0.9654
    1SOL    HW3 8731   0.002   2.551   3.788 -0.2716 -0.3731  0.0615
    1SOL    MW4 8732  -0.003   2.466   3.771 -0.3635 -0.2222 -0.6654
    1SOL     OW 8733   0.006   2.725   3.834 -0.3304  0.1181  0.3003
    1SOL    HW2 8734   0.010   2.698   3.926 -0.7441 -1.0443 -0.0178
    1SOL    HW3 8735   0.089   2.771   3.819  0.1932 -0.5783  0.9865
    1SOL    MW4 8736   0.018   2.727   3.844 -0.3157 -0.1271  0.3488
    1SOL     OW 8737   0.249   2.843   3.810  0.1965  0.3492 -0.6237
    1SOL    HW2 8738   0.326   2.789   3.830 -0.0105  0.2981  0.0440
    1SOL    HW3 8739   0.249   2.849   3.714  0.7077 -0.1243 -0.6604
    1SOL    MW4 8740   0.259   2.837   3.800  0.2366  0.2799 -0.5405
    1SOL     OW 8741   0.229   3.090   3.919  0.3088  0.4455 -0.2077
    1SOL    HW2 8742   0.220   3.065   4.011 -0.1407  1.1222 -0.0705
    1SOL    HW3 8743   0.246   3.007   3.873  1.5737  0.2406  0.6148
    1SOL    MW4 8744   0.230   3.075   3.925  0.4164  0.5078 -0.0811
    1SOL     OW 8745   0.009   3.211   3.788 -0.3036  0.0194 -0.5859
    1SOL    HW2 8746   0.079   3.157   3.825  1.4692  2.7010  0.0853
    1SOL    HW3 8747   0.019   3.200   3.693  0.4622 -0.3219 -0.4704
    1SOL    MW4 8748   0.020   3.202   3.780  0.0314  0.3283 -0.4821
    1SOL     OW 8749   4.479   3.475   3.857 -0.1043 -0.2054  0.6477
    1SOL    HW2 8750   4.570   3.502   3.841 -0.7933  0.5630 -2.1803
    1SOL    HW3 8751   4.475   3.384   3.826 -0.2903 -0.2527  0.8099
    1SOL    MW4 8752   4.491   3.466   3.851 -0.2198 -0.1099  0.2961
    1SOL     OW 8753   0.211   3.628   3.763  0.0536 -0.3151 -0.0121
    1SOL    HW2 8754   0.287   3.583   3.801  1.3854  0.6886 -1.3951
    1SOL    HW3 8755   0.207   3.712   3.809  0.6523  0.2071 -0.8838
    1SOL    MW4 8756   0.221   3.633   3.774  0.3083 -0.1137 -0.3097
    1SOL     OW 8757   0.232   3.863   3.881  0.3813 -0.2069  0.0348
    1SOL    HW2 8758   0.310   3.915   3.861 -0.7496  1.7594  0.5750
    1SOL    HW3 8759   0.229   3.860   3.976 -0.4810  0.1987  0.0289
    1SOL    MW4 8760   0.242   3.869   3.891  0.1183  0.1061  0.1054
    1SOL     OW 8761   0.025   3.976   3.728  0.2472 -0.0635  0.0382
    1SOL    HW2 8762  -0.065   3.967   3.761  0.0476 -0.6264 -0.6531
    1SOL    HW3 8763   0.079   3.937   3.796  0.0327  0.8928  0.7792
    1SOL    MW4 8764   0.020   3.970   3.741  0.1926 -0.0114  0.0446
    1SOL     OW 8765   0.041   4.241   3.811  0.6166  0.2959 -0.4721
    1SOL    HW2 8766   0.124   4.285   3.788  1.8089 -1.3103  0.6494
    1SOL    HW3 8767   0.052   4.152   3.778 -0.2374 -0.2303  0.6617
    1SOL    MW4 8768   0.054   4.235   3.804  0.6613  0.0143 -0.1748
    1SOL     OW 8769   0.282   4.364   3.767  0.3412  0.2673 -0.3304
    1SOL    HW2 8770   0.360   4.332   3.813  0.1639 -1.0381 -0.9270
    1SOL    HW3 8771   0.268   4.451   3.803  0.3376 -0.6285  1.9368
    1SOL    MW4 8772   0.291   4.371   3.778  0.3174 -0.0234 -0.1099
    1SOL     OW 8773   0.646   4.632   3.892 -0.0729 -0.0091  0.7791
    1SOL    HW2 8774   0.653   4.540   3.867 -1.1443  0.0880  0.0959
    1SOL    HW3 8775   0.605   4.675   3.817  1.1446  1.1795  0.7650
    1SOL    MW4 8776   0.642   4.626   3.879 -0.0536  0.1607  0.6871
    1SOL     OW 8777   0.462   0.119   3.714 -0.2279 -0.0486  0.4552
    1SOL    HW2 8778   0.449   0.196   3.771  0.1285 -0.5803  1.2626
    1SOL    HW3 8779   0.386   0.064   3.732  0.3528 -0.6446  1.1147
    1SOL    MW4 8780   0.450   0.122   3.724 -0.1043 -0.1974  0.6487
    1SOL     OW 8781   0.453   0.345   3.858 -0.7998 -0.2114  0.1188
    1SOL    HW2 8782   0.544   0.368   3.838 -0.2484 -3.2443 -1.2784
    1SOL    HW3 8783   0.401   0.406   3.805  0.4608  0.2963 -0.5674
    1SOL    MW4 8784   0.458   0.356   3.848 -0.5608 -0.5446 -0.1559
    1SOL     OW 8785   0.683   0.468   3.736  0.0250  0.2185 -0.1014
    1SOL    HW2 8786   0.763   0.436   3.779  0.2605 -1.1111 -1.5003
    1SOL    HW3 8787   0.669   0.555   3.774  1.6902  0.1464  0.7358
    1SOL    MW4 8788   0.691   0.475   3.747  0.2758  0.0335 -0.1755
    1SOL     OW 8789   0.643   0.721   3.845 -0.2930 -0.0952 -0.8915
    1SOL    HW2 8790   0.723   0.770   3.823  0.4550 -1.5971 -1.5630
    1SOL    HW3 8791   0.572   0.778   3.816  0.5214  1.4778  0.1596
    1SOL    MW4 8792   0.645   0.735   3.838 -0.0868 -0.0858 -0.8416
    1SOL     OW 8793   0.413   0.906   3.736 -0.1931  0.0721  0.5318
    1SOL    HW2 8794   0.435   0.980   3.791 -0.0369  0.6050 -0.2408
    1SOL    HW3 8795   0.343   0.860   3.783  0.5270  0.0306  1.5790
    1SOL    MW4 8796   0.407   0.909   3.749 -0.0775  0.1369  0.5682
    1SOL     OW 8797   0.481   1.134   3.888 -0.3573  0.0128  0.4238
    1SOL    HW2 8798   0.550   1.182   3.842 -0.8613  0.4139  0.0868
    1SOL    HW3 8799   0.399   1.173   3.857 -0.6960  0.6130  2.0199
    1SOL    MW4 8800   0.479   1.146   3.878 -0.4684  0.1450  0.5896
    1SOL     OW 8801   0.688   1.256   3.754 -0.0480  0.1380  0.1083
    1SOL    HW2 8802   0.766   1.212   3.786  0.1449 -0.2912 -0.9250
    1SOL    HW3 8803   0.693   1.248   3.659 -2.0821 -1.1317  0.0850
    1SOL    MW4 8804   0.699   1.249   3.745 -0.2909 -0.0862 -0.0310
    1SOL     OW 8805   0.650   1.521   3.855  0.7133 -0.0046 -0.4898
    1SOL    HW2 8806   0.726   1.568   3.820  0.0898  0.4092 -1.2961
    1SOL    HW3 8807   0.657   1.433   3.820  1.1329 -0.1339 -0.0922
    1SOL    MW4 8808   0.661   1.516   3.846  0.6864  0.0329 -0.5438
    1SOL     OW 8809   0.439   1.664   3.739  0.1736 -0.5394 -0.9491
    1SOL    HW2 8810   0.520   1.644   3.787 -1.0718  0.6717  1.8111
    1SOL    HW3 8811   0.377   1.597   3.767 -0.8353  0.7155 -0.0433
    1SOL    MW4 8812   0.442   1.653   3.749 -0.1238 -0.2140 -0.4654
    1SOL     OW 8813   0.445   1.910   3.849  0.1719  0.1357 -0.0106
    1SOL    HW2 8814   0.422   1.824   3.816 -0.3440 -0.3864  1.6735
    1SOL    HW3 8815   0.373   1.967   3.821  0.5973  0.0686 -1.2666
    1SOL    MW4 8816   0.433   1.906   3.841  0.1599  0.0579  0.0460
    1SOL     OW 8817   0.680   2.033   3.767  0.4472  0.0973 -0.1349
    1SOL    HW2 8818   0.674   2.123   3.799  0.2147 -0.0666  0.2926
    1SOL    HW3 8819   0.595   1.994   3.788  0.3470 -0.0617 -0.8166
    1SOL    MW4 8820   0.668   2.040   3.774  0.4032  0.0546 -0.1683
    1SOL     OW 8821   0.671   2.292   3.872  0.0150  0.3444  0.0853
    1SOL    HW2 8822   0.741   2.350   3.844 -0.4104  0.9949  0.3514
    1SOL    HW3 8823   0.591   2.343   3.859 -0.3940 -0.3184 -0.0369
    1SOL    MW4 8824   0.670   2.306   3.867 -0.0950  0.3426  0.1044
    1SOL     OW 8825   0.475   2.454   3.745 -0.1162 -0.4766  0.2354
    1SOL    HW2 8826   0.388   2.431   3.778 -0.5904  0.9410 -0.0018
    1SOL    HW3 8827   0.465   2.457   3.650  0.4819 -1.4176  0.1286
    1SOL    MW4 8828   0.462   2.451   3.737 -0.0998 -0.4139  0.1903
    1SOL     OW 8829   0.472   2.702   3.882 -0.3728 -0.0686 -0.1379
    1SOL    HW2 8830   0.542   2.766   3.869  0.9012 -0.7711  2.9347
    1SOL    HW3 8831   0.504   2.621   3.842 -0.5303  0.2512 -0.9366
    1SOL    MW4 8832   0.485   2.700   3.875 -0.2255 -0.1190  0.1619
    1SOL     OW 8833   0.685   2.853   3.810 -0.0793 -0.5952 -0.0909
    1SOL    HW2 8834   0.757   2.793   3.830  0.6631  0.5531  0.6537
    1SOL    HW3 8835   0.671   2.841   3.716  1.5973 -0.2485 -0.3988
    1SOL    MW4 8836   0.692   2.843   3.800  0.2398 -0.3984 -0.0334
    1SOL     OW 8837   0.675   3.109   3.879  0.0442 -0.0848  0.0844
    1SOL    HW2 8838   0.653   3.103   3.972  0.1930 -0.4051  0.1000
    1SOL    HW3 8839   0.701   3.020   3.855  3.3053  0.6482  0.5815
    1SOL    MW4 8840   0.676   3.097   3.888  0.4941 -0.0303  0.1521
    1SOL     OW 8841   0.445   3.259   3.820 -0.0946  0.2625 -0.5053
    1SOL    HW2 8842   0.526   3.209   3.823  0.5476  1.3223  0.3018
    1SOL    HW3 8843   0.381   3.203   3.865  0.6223  0.1630  0.4154
    1SOL    MW4 8844   0.447   3.245   3.827  0.0848  0.3891 -0.2775
    1SOL     OW 8845   0.430   3.533   3.881  0.1576  0.3194  0.0348
    1SOL    HW2 8846   0.501   3.576   3.834 -0.7002  0.5521 -1.0634
    1SOL    HW3 8847   0.442   3.440   3.863  0.5885  0.2940  0.4312
    1SOL    MW4 8848   0.441   3.526   3.873  0.1012  0.3469 -0.0579
    1SOL     OW 8849   0.664   3.641   3.775  0.0317 -0.0032  0.1012
    1SOL    HW2 8850   0.680   3.723   3.823  0.8625 -0.6249  0.9102
    1SOL    HW3 8851   0.692   3.660   3.685 -0.3068  0.7735  0.1606
    1SOL    MW4 8852   0.670   3.654   3.769  0.0966  0.0174  0.2160
    1SOL     OW 8853   0.690   3.883   3.916 -0.3412 -0.1184  0.4882
    1SOL    HW2 8854   0.720   3.899   4.006 -2.3363  1.0421  0.9673
    1SOL    HW3 8855   0.761   3.917   3.862 -0.3731  1.8547  1.6136
    1SOL    MW4 8856   0.703   3.890   3.921 -0.6086  0.2952  0.7000
    1SOL     OW 8857   0.463   3.990   3.784 -0.0102 -0.4124  0.0192
    1SOL    HW2 8858   0.539   3.938   3.810  0.4944  0.5377  0.4871
    1SOL    HW3 8859   0.459   3.981   3.689 -0.8495 -2.5445  0.2367
    1SOL    MW4 8860   0.473   3.982   3.775 -0.0544 -0.5682  0.1097
    1SOL     OW 8861   0.482   4.241   3.907  0.0585  0.2136 -0.1317
    1SOL    HW2 8862   0.557   4.292   3.877  0.3167 -0.1553 -0.1206
    1SOL    HW3 8863   0.493   4.156   3.864  0.4380 -0.3295  1.0124
    1SOL    MW4 8864   0.493   4.236   3.897  0.1426  0.0930  0.0207
    1SOL     OW 8865   0.699   4.368   3.814 -0.3656 -0.2379  0.1589
    1SOL    HW2 8866   0.791   4.358   3.837  0.1058 -0.1742 -1.5934
    1SOL    HW3 8867   0.699   4.373   3.718 -2.1525  0.1457  0.1611
    1SOL    MW4 8868   0.711   4.367   3.804 -0.5392 -0.1788 -0.0722
    1SOL     OW 8869   1.127   0.012   3.925 -0.4214  0.2086  0.4898
    1SOL    HW2 8870   1.198   0.059   3.881 -1.5494  0.4746 -1.0866
    1SOL    HW3 8871   1.136  -0.079   3.894 -0.0148 -0.0196  1.2655
    1SOL    MW4 8872   1.138   0.006   3.915 -0.5165  0.2136  0.3841
    1SOL     OW 8873   0.874   0.102   3.776 -0.3390 -0.4738  0.2781
    1SOL    HW2 8874   0.953   0.065   3.816 -0.4131 -0.3146  0.5684
    1SOL    HW3 8875   0.802   0.052   3.814 -0.3449 -0.9997 -0.4079
    1SOL    MW4 8876   0.875   0.090   3.786 -0.3496 -0.5222  0.2260
    1SOL     OW 8877   0.908   0.363   3.873 -0.7386  0.2473  0.1055
    1SOL    HW2 8878   0.907   0.372   3.969 -1.2573 -1.5970  0.3028
    1SOL    HW3 8879   0.897   0.269   3.858  0.6117  0.3612 -1.7530
    1SOL    MW4 8880   0.906   0.352   3.884 -0.6289  0.0190 -0.1137
    1SOL     OW 8881   1.127   0.500   3.718 -0.7343  0.2515  0.4492
    1SOL    HW2 8882   1.200   0.462   3.766 -0.6525 -2.5683 -1.7755
    1SOL    HW3 8883   1.051   0.449   3.746 -0.7920 -0.9774 -1.8520
    1SOL    MW4 8884   1.126   0.489   3.728 -0.7312 -0.2827 -0.1478
    1SOL     OW 8885   1.102   0.750   3.838  0.3973 -0.0041  0.0599
    1SOL    HW2 8886   1.118   0.732   3.931  0.5419 -0.7521 -0.1105
    1SOL    HW3 8887   1.114   0.666   3.795 -1.3247 -0.0106 -0.4253
    1SOL    MW4 8888   1.106   0.737   3.845  0.1892 -0.1037 -0.0267
    1SOL     OW 8889   0.855   0.880   3.763 -0.0764 -0.3372  0.0348
    1SOL    HW2 8890   0.937   0.842   3.794 -0.1968 -1.4221 -0.9570
    1SOL    HW3 8891   0.864   0.884   3.668  0.3251  3.0551  0.1555
    1SOL    MW4 8892   0.867   0.876   3.754 -0.0393 -0.0328 -0.0801
    1SOL     OW 8893   0.921   1.147   3.838 -0.1291 -0.0279  0.0339
    1SOL    HW2 8894   0.933   1.135   3.932 -0.7536  0.3383  0.1635
    1SOL    HW3 8895   0.893   1.062   3.806 -0.7041  0.0549  0.3117
    1SOL    MW4 8896   0.919   1.134   3.846 -0.2873  0.0312  0.0873
    1SOL     OW 8897   1.132   1.313   3.739  0.1151 -0.4003 -0.6363
    1SOL    HW2 8898   1.115   1.399   3.778  1.6457 -0.3642 -0.0226
    1SOL    HW3 8899   1.057   1.260   3.764 -0.1524  0.3532  0.1837
    1SOL    MW4 8900   1.120   1.318   3.747  0.2817 -0.2962 -0.4470
    1SOL     OW 8901   1.123   1.561   3.832  0.4982 -0.1291  0.3179
    1SOL    HW2 8902   1.137   1.568   3.927 -0.0996  0.7256  0.3604
    1SOL    HW3 8903   1.208   1.583   3.794  1.3815 -2.7576  0.6805
    1SOL    MW4 8904   1.136   1.565   3.840  0.5360 -0.3632  0.3712
    1SOL     OW 8905   0.875   1.651   3.764 -0.4520  0.1346  0.2388
    1SOL    HW2 8906   0.967   1.629   3.774 -0.8432 -2.3045 -1.1532
    1SOL    HW3 8907   0.863   1.664   3.670 -1.8439 -1.1226  0.2286
    1SOL    MW4 8908   0.885   1.650   3.753 -0.6872 -0.3530  0.0536
    1SOL     OW 8909   0.913   1.906   3.841  0.4642 -0.4026 -0.0799
    1SOL    HW2 8910   0.895   1.812   3.831  1.3314 -0.4966 -0.8542
    1SOL    HW3 8911   0.836   1.948   3.803  0.1250 -0.7997  0.1573
    1SOL    MW4 8912   0.900   1.899   3.834  0.5338 -0.4673 -0.1507
    1SOL     OW 8913   1.136   2.064   3.777 -0.1022 -0.0758 -0.3780
    1SOL    HW2 8914   1.057   2.019   3.808 -0.3603  0.1251 -0.7497
    1SOL    HW3 8915   1.124   2.071   3.682 -0.4586  1.5610 -0.2148
    1SOL    MW4 8916   1.124   2.059   3.769 -0.1832  0.1667 -0.4055
    1SOL     OW 8917   1.134   2.335   3.852  0.1229  0.2169 -0.6068
    1SOL    HW2 8918   1.128   2.346   3.947 -4.5917 -0.0614 -0.7847
    1SOL    HW3 8919   1.151   2.241   3.840 -0.1249  0.1007 -0.0748
    1SOL    MW4 8920   1.136   2.324   3.863 -0.5318  0.1650 -0.5600
    1SOL     OW 8921   0.883   2.431   3.742 -0.4133  0.3825  0.3580
    1SOL    HW2 8922   0.911   2.511   3.786  1.0636  1.1913 -1.9917
    1SOL    HW3 8923   0.963   2.379   3.735 -0.5680  0.4037 -1.6252
    1SOL    MW4 8924   0.897   2.435   3.747 -0.2388  0.4921 -0.2136
    1SOL     OW 8925   0.908   2.676   3.863 -0.0498  0.3343  0.2998
    1SOL    HW2 8926   0.923   2.660   3.956 -0.7182 -1.4969  0.1142
    1SOL    HW3 8927   0.980   2.734   3.837 -0.1056  1.2396  2.0325
    1SOL    MW4 8928   0.920   2.682   3.872 -0.1453  0.2122  0.5040
    1SOL     OW 8929   1.103   2.846   3.759  0.1369 -0.1045 -0.1160
    1SOL    HW2 8930   1.184   2.808   3.796 -1.1664 -1.4556  1.4335
    1SOL    HW3 8931   1.109   2.939   3.781  1.8994  0.0800 -1.2142
    1SOL    MW4 8932   1.115   2.853   3.767  0.1975 -0.2584 -0.0567
    1SOL     OW 8933   1.130   3.109   3.858 -0.3447  0.0933  0.2967
    1SOL    HW2 8934   1.204   3.164   3.832 -0.3404 -0.1642 -0.2563
    1SOL    HW3 8935   1.053   3.166   3.848 -0.2586  0.2427  0.4946
    1SOL    MW4 8936   1.129   3.124   3.853 -0.3327  0.0789  0.2499
    1SOL     OW 8937   0.898   3.270   3.786 -0.0393 -0.6370 -0.0726
    1SOL    HW2 8938   0.836   3.208   3.823  1.0209 -0.9884  1.1581
    1SOL    HW3 8939   0.884   3.264   3.691 -0.4481 -2.2265  0.0732
    1SOL    MW4 8940   0.888   3.261   3.778  0.0466 -0.8934  0.1092
    1SOL     OW 8941   0.892   3.524   3.886 -0.3034 -0.2530  0.4553
    1SOL    HW2 8942   0.898   3.430   3.867  0.8838 -0.2713  0.8239
    1SOL    HW3 8943   0.811   3.552   3.845  0.7143 -0.8779 -2.0685
    1SOL    MW4 8944   0.882   3.515   3.878 -0.0125 -0.3378  0.1709
    1SOL     OW 8945   1.133   3.646   3.774  0.1417 -0.3167  0.4531
    1SOL    HW2 8946   1.140   3.734   3.812 -0.6551 -0.2439  0.4431
    1SOL    HW3 8947   1.052   3.611   3.811 -1.0754  0.0395 -1.7776
    1SOL    MW4 8948   1.123   3.653   3.784 -0.1241 -0.2601  0.1576
    1SOL     OW 8949   1.139   3.901   3.902  0.2298 -0.0489 -0.3723
    1SOL    HW2 8950   1.145   3.872   3.993  0.2816 -1.8692 -0.9364
    1SOL    HW3 8951   1.218   3.954   3.888  0.4900 -0.2067  0.4816
    1SOL    MW4 8952   1.150   3.904   3.912  0.2710 -0.3097 -0.3343
    1SOL     OW 8953   0.902   4.029   3.778 -0.1348  0.0818 -0.1529
    1SOL    HW2 8954   0.987   3.991   3.801 -0.0965  0.1287 -0.2168
    1SOL    HW3 8955   0.895   4.017   3.683  0.4264  1.3342 -0.3732
    1SOL    MW4 8956   0.913   4.023   3.768 -0.0557  0.2537 -0.1907
    1SOL     OW 8957   0.951   4.282   3.888 -0.4563 -0.1613  0.1460
    1SOL    HW2 8958   0.946   4.263   3.981  1.7731 -1.7122 -0.0070
    1SOL    HW3 8959   0.919   4.203   3.845  1.8746 -0.8412 -0.4120
    1SOL    MW4 8960   0.946   4.269   3.894  0.1454 -0.4559  0.0522
    1SOL     OW 8961   1.156   4.424   3.790 -0.5215 -0.2677  0.2706
    1SOL    HW2 8962   1.079   4.377   3.820 -1.7957  1.1894 -0.6287
    1SOL    HW3 8963   1.146   4.430   3.695  0.8358 -0.2983  0.1066
    1SOL    MW4 8964   1.145   4.419   3.782 -0.5106 -0.0796  0.1302
    1SOL     OW 8965   1.555   0.048   3.887  0.2796 -0.0205 -0.5449
    1SOL    HW2 8966   1.561   0.056   3.982  1.1725  1.5608 -0.7216
    1SOL    HW3 8967   1.587  -0.041   3.868 -0.4192 -0.5369  0.6626
    1SOL    MW4 8968   1.560   0.037   3.897  0.3053  0.1200 -0.4091
    1SOL     OW 8969   1.303   0.144   3.769 -0.1851 -0.4112  0.1874
    1SOL    HW2 8970   1.319   0.237   3.786  0.8027 -0.2646 -1.4377
    1SOL    HW3 8971   1.381   0.100   3.802 -0.5081 -0.6494  0.6492
    1SOL    MW4 8972   1.315   0.151   3.776 -0.0974 -0.4233  0.0339
    1SOL     OW 8973   1.339   0.411   3.878 -0.1885  0.2597 -0.5840
    1SOL    HW2 8974   1.342   0.399   3.972 -1.4330 -1.6371 -0.7612
    1SOL    HW3 8975   1.422   0.453   3.856 -0.4906  2.0247  1.5163
    1SOL    MW4 8976   1.350   0.415   3.887 -0.3926  0.2423 -0.3302
    1SOL     OW 8977   1.581   0.533   3.796  0.3089 -0.1338 -0.3292
    1SOL    HW2 8978   1.660   0.499   3.839  0.5636 -0.0953 -0.7568
    1SOL    HW3 8979   1.561   0.614   3.842  0.5820 -0.0903 -0.2841
    1SOL    MW4 8980   1.589   0.539   3.808  0.3786 -0.1230 -0.3796
    1SOL     OW 8981   1.542   0.779   3.909  0.0204  0.6738  0.3190
    1SOL    HW2 8982   1.626   0.807   3.872 -0.1577 -1.6712 -2.0013
    1SOL    HW3 8983   1.476   0.830   3.863  0.0421  0.8919  0.5284
    1SOL    MW4 8984   1.545   0.789   3.898 -0.0002  0.3932  0.0403
    1SOL     OW 8985   1.350   0.888   3.736  0.1801  0.1757  0.1858
    1SOL    HW2 8986   1.338   0.978   3.767 -2.1077  1.1048 -3.1373
    1SOL    HW3 8987   1.267   0.844   3.756  0.6355 -0.6984  0.1747
    1SOL    MW4 8988   1.337   0.894   3.743 -0.0618  0.1829 -0.2542
    1SOL     OW 8989   1.350   1.162   3.813 -0.4585  0.2733  0.3981
    1SOL    HW2 8990   1.430   1.200   3.777 -1.3848  0.5379 -1.4575
    1SOL    HW3 8991   1.283   1.230   3.800 -1.4283 -0.7424 -0.0063
    1SOL    MW4 8992   1.352   1.176   3.806 -0.7087  0.1743  0.0999
    1SOL     OW 8993   1.593   1.262   3.687 -0.5932  0.3048 -0.3669
    1SOL    HW2 8994   1.660   1.206   3.728 -1.6258  0.5827  1.7287
    1SOL    HW3 8995   1.609   1.349   3.723 -1.8985  0.4316 -0.1038
    1SOL    MW4 8996   1.604   1.266   3.697 -0.9016  0.3582 -0.0556
    1SOL     OW 8997   1.610   1.517   3.809 -0.0949  0.0029  0.1688
    1SOL    HW2 8998   1.607   1.511   3.905 -0.8162  0.8864  0.2064
    1SOL    HW3 8999   1.689   1.568   3.790 -0.2584  0.3034  0.3081
    1SOL    MW4 9000   1.620   1.523   3.819 -0.2116  0.1591  0.1922
    1SOL     OW 9001   1.378   1.665   3.694 -0.1107 -0.0794  0.0644
    1SOL    HW2 9002   1.380   1.755   3.728  0.5503 -0.1740  0.2772
    1SOL    HW3 9003   1.452   1.621   3.737  0.4799 -0.3175 -1.1652
    1SOL    MW4 9004   1.388   1.671   3.704  0.0545 -0.1231 -0.0696
    1SOL     OW 9005   1.348   1.914   3.809  0.3336 -0.0758  0.0866
    1SOL    HW2 9006   1.365   1.912   3.903 -0.3570 -0.5978  0.2027
    1SOL    HW3 9007   1.268   1.966   3.800 -0.7883 -1.7712 -0.0155
    1SOL    MW4 9008   1.340   1.921   3.820  0.0945 -0.3682  0.0885
    1SOL     OW 9009   1.542   2.103   3.764 -0.6013 -0.2411 -0.1906
    1SOL    HW2 9010   1.479   2.033   3.777 -1.5298  0.8243  1.1934
    1SOL    HW3 9011   1.571   2.093   3.673 -1.1259 -2.0540 -0.1783
    1SOL    MW4 9012   1.538   2.093   3.754 -0.7930 -0.3395 -0.0062
    1SOL     OW 9013   1.562   2.342   3.899 -0.3114 -0.0624  0.1112
    1SOL    HW2 9014   1.577   2.327   3.992 -2.6710 -0.0050  0.5310
    1SOL    HW3 9015   1.561   2.255   3.860 -0.2078 -0.1429  0.2877
    1SOL    MW4 9016   1.564   2.329   3.906 -0.6092 -0.0653  0.1895
    1SOL     OW 9017   1.376   2.458   3.745  0.2396  0.7965 -0.2838
    1SOL    HW2 9018   1.439   2.436   3.813  1.4422  0.2821 -1.5420
    1SOL    HW3 9019   1.291   2.443   3.785  0.9416  0.0823  0.9564
    1SOL    MW4 9020   1.373   2.453   3.759  0.4909  0.6347 -0.2863
    1SOL     OW 9021   1.339   2.717   3.831 -0.2496  0.2088  0.4908
    1SOL    HW2 9022   1.339   2.706   3.926 -1.5386 -0.8807  0.3674
    1SOL    HW3 9023   1.371   2.634   3.797  0.8102  0.8138 -0.0152
    1SOL    MW4 9024   1.343   2.705   3.839 -0.2799  0.1450  0.4079
    1SOL     OW 9025   1.587   2.836   3.784  0.0769  0.3446  0.2940
    1SOL    HW2 9026   1.501   2.800   3.806  0.5209 -1.3794 -0.6628
    1SOL    HW3 9027   1.586   2.843   3.688  0.9391  0.4640  0.2886
    1SOL    MW4 9028   1.575   2.832   3.774  0.2493  0.1328  0.1671
    1SOL     OW 9029   1.576   3.120   3.882 -0.2121  0.0340 -0.4103
    1SOL    HW2 9030   1.563   3.108   3.976 -1.3721 -0.6938 -0.6557
    1SOL    HW3 9031   1.579   3.031   3.847  0.0928  0.3067 -1.0762
    1SOL    MW4 9032   1.574   3.107   3.890 -0.3250 -0.0260 -0.5307
    1SOL     OW 9033   1.363   3.230   3.747 -0.4212  0.0440  0.1397
    1SOL    HW2 9034   1.354   3.321   3.774  0.5510  0.8500 -2.0780
    1SOL    HW3 9035   1.430   3.195   3.806  0.2681  1.1959  0.0767
    1SOL    MW4 9036   1.371   3.238   3.758 -0.2019  0.3026 -0.1612
    1SOL     OW 9037   1.329   3.497   3.889 -0.0973 -0.2063  0.6444
    1SOL    HW2 9038   1.406   3.526   3.841 -0.0168 -1.5600 -0.0687
    1SOL    HW3 9039   1.256   3.541   3.847  0.3313  1.6087  1.7535
    1SOL    MW4 9040   1.330   3.506   3.877 -0.0302 -0.1454  0.6967
    1SOL     OW 9041   1.540   3.607   3.768 -0.2181 -0.1540 -0.1140
    1SOL    HW2 9042   1.616   3.557   3.799 -0.1343  0.6260  0.9721
    1SOL    HW3 9043   1.550   3.693   3.808 -1.9930 -0.2181  0.5399
    1SOL    MW4 9044   1.551   3.611   3.778 -0.4412 -0.0594  0.1156
    1SOL     OW 9045   1.608   3.854   3.851  0.0625 -0.0831 -0.1784
    1SOL    HW2 9046   1.618   3.853   3.946 -0.0685 -0.7280 -0.1725
    1SOL    HW3 9047   1.526   3.901   3.837 -0.7746 -1.4326  0.1065
    1SOL    MW4 9048   1.599   3.860   3.862 -0.0652 -0.3462 -0.1397
    1SOL     OW 9049   1.379   4.013   3.822  0.5832 -0.2574  0.3649
    1SOL    HW2 9050   1.395   4.103   3.851 -1.4033 -0.1994  1.3492
    1SOL    HW3 9051   1.356   4.021   3.729  1.5919  0.1258  0.1505
    1SOL    MW4 9052   1.378   4.026   3.814  0.4543 -0.1993  0.4663
    1SOL     OW 9053   1.377   4.288   3.874  0.3970 -0.0403 -0.0090
    1SOL    HW2 9054   1.442   4.351   3.845  0.1328  0.1276 -0.2444
    1SOL    HW3 9055   1.293   4.328   3.848  0.3453 -1.8382 -2.8351
    1SOL    MW4 9056   1.374   4.302   3.867  0.3552 -0.2556 -0.4132
    1SOL     OW 9057   1.628   4.462   3.819 -0.0893 -0.4287  0.7063
    1SOL    HW2 9058   1.672   4.387   3.858 -0.7683 -0.2183  1.8934
    1SOL    HW3 9059   1.603   4.433   3.732  0.6762 -1.1948  0.7399
    1SOL    MW4 9060   1.631   4.448   3.813 -0.0781 -0.5021  0.8674
    1SOL     OW 9061   2.000   4.634   3.882 -0.1257  0.1199 -0.1644
    1SOL    HW2 9062   2.069   4.667   3.825 -1.9666  1.6863 -1.5457
    1SOL    HW3 9063   1.988   4.543   3.856  0.8204  0.0940 -0.5149
    1SOL    MW4 9064   2.007   4.626   3.871 -0.2437  0.3233 -0.3927
    1SOL     OW 9065   1.802   0.140   3.789  0.2693 -0.2230 -0.2915
    1SOL    HW2 9066   1.877   0.089   3.821  0.9735 -0.3434 -2.0572
    1SOL    HW3 9067   1.726   0.100   3.831  0.9679 -1.7287 -0.4189
    1SOL    MW4 9068   1.802   0.128   3.798  0.4544 -0.4376 -0.5414
    1SOL     OW 9069   1.820   0.395   3.905 -0.5125  0.0780 -0.0489
    1SOL    HW2 9070   1.816   0.374   3.998  0.6907 -2.4132 -0.4951
    1SOL    HW3 9071   1.797   0.313   3.862  2.8151  0.0522 -1.9561
    1SOL    MW4 9072   1.816   0.381   3.912  0.0852 -0.2541 -0.3591
    1SOL     OW 9073   2.016   0.519   3.788 -0.3346  0.2114  0.1202
    1SOL    HW2 9074   1.939   0.468   3.813  0.6378 -1.5102 -0.3642
    1SOL    HW3 9075   2.025   0.503   3.694  0.1788  1.0341  0.0229
    1SOL    MW4 9076   2.007   0.510   3.779 -0.1385  0.0929  0.0436
    1SOL     OW 9077   2.013   0.756   3.889  0.0113  0.3741  0.3578
    1SOL    HW2 9078   2.026   0.753   3.984  0.5392  1.2040  0.3217
    1SOL    HW3 9079   2.008   0.665   3.862 -3.6998  0.1192  1.6561
    1SOL    MW4 9080   2.014   0.744   3.898 -0.4089  0.4500  0.5245
    1SOL     OW 9081   1.783   0.845   3.784 -0.2579 -0.3105 -0.1790
    1SOL    HW2 9082   1.864   0.813   3.823  0.6305  1.8806 -0.1675
    1SOL    HW3 9083   1.792   0.829   3.691  0.0927 -0.3089 -0.1449
    1SOL    MW4 9084   1.795   0.839   3.777 -0.0944 -0.0213 -0.1731
    1SOL     OW 9085   1.779   1.114   3.834  0.3349  0.1541 -0.0604
    1SOL    HW2 9086   1.781   1.118   3.929  2.2562  0.1926 -0.0714
    1SOL    HW3 9087   1.779   1.021   3.813  2.3168  0.1216 -0.0132
    1SOL    MW4 9088   1.780   1.102   3.844  0.8500  0.1549 -0.0556
    1SOL     OW 9089   2.011   1.275   3.761 -0.6204 -0.1230  0.1585
    1SOL    HW2 9090   2.083   1.242   3.815 -0.5461 -0.8660 -0.3938
    1SOL    HW3 9091   1.938   1.218   3.781 -0.8993  0.2721  0.2805
    1SOL    MW4 9092   2.011   1.263   3.771 -0.6475 -0.1689  0.1018
    1SOL     OW 9093   2.011   1.508   3.904 -0.5350  0.0094 -0.1154
    1SOL    HW2 9094   1.932   1.559   3.884 -0.1886  0.7189  0.3207
    1SOL    HW3 9095   2.005   1.431   3.847 -1.6975 -0.0939  0.1229
    1SOL    MW4 9096   2.000   1.504   3.894 -0.6428  0.0894 -0.0265
    1SOL     OW 9097   1.808   1.692   3.776 -0.1476  0.7201  0.2258
    1SOL    HW2 9098   1.785   1.780   3.806  1.0433  1.1794 -0.1850
    1SOL    HW3 9099   1.813   1.700   3.681 -0.3426  0.1309  0.1626
    1SOL    MW4 9100   1.805   1.705   3.767 -0.0162  0.7030  0.1633
    1SOL     OW 9101   1.758   1.946   3.881  0.3906 -0.3908  0.3049
    1SOL    HW2 9102   1.694   2.003   3.839  0.1353  0.6572  2.0654
    1SOL    HW3 9103   1.842   1.974   3.846  0.2074  0.6477  0.6945
    1SOL    MW4 9104   1.761   1.957   3.871  0.3326 -0.1155  0.5887
    1SOL     OW 9105   2.043   2.251   3.911 -0.1786  0.3922 -0.2083
    1SOL    HW2 9106   2.092   2.312   3.857  0.9277  0.6349  1.0409
    1SOL    HW3 9107   2.109   2.209   3.966 -1.0635 -1.1735 -0.3388
    1SOL    MW4 9108   2.058   2.254   3.911 -0.1495  0.2177 -0.0603
    1SOL     OW 9109   2.213   2.412   3.789 -0.1105  0.2500 -0.0438
    1SOL    HW2 9110   2.241   2.430   3.699  0.0912 -0.5432 -0.1408
    1SOL    HW3 9111   2.287   2.364   3.828 -0.6724 -0.4282  0.1895
    1SOL    MW4 9112   2.227   2.408   3.782 -0.1578  0.0558 -0.0257
    1SOL     OW 9113   1.805   2.385   3.806 -0.0268  0.0821 -0.1329
    1SOL    HW2 9114   1.869   2.330   3.851 -0.0333  0.9634  0.9626
    1SOL    HW3 9115   1.723   2.371   3.853  0.1595  1.6637  0.7070
    1SOL    MW4 9116   1.803   2.376   3.818 -0.0031  0.4070  0.1223
    1SOL     OW 9117   3.040   2.494   4.703 -0.1515  0.0887 -0.0734
    1SOL    HW2 9118   2.965   2.476   4.646 -0.9950 -2.0710  1.6556
    1SOL    HW3 9119   3.114   2.503   4.643 -1.5783  1.2512 -1.7433
    1SOL    MW4 9120   3.040   2.493   4.687 -0.4511 -0.0427 -0.0653
    1SOL     OW 9121   2.031   3.078   3.848 -0.5045  0.1715 -0.0802
    1SOL    HW2 9122   2.101   3.138   3.821 -1.1723  0.2504 -1.6946
    1SOL    HW3 9123   2.043   3.068   3.942  0.8701  1.2302 -0.1271
    1SOL    MW4 9124   2.042   3.084   3.857 -0.4113  0.3219 -0.2995
    1SOL     OW 9125   2.044   2.800   3.767  0.2219 -0.0980 -0.0446
    1SOL    HW2 9126   2.046   2.887   3.806 -0.3238  0.2356 -0.7550
    1SOL    HW3 9127   1.973   2.755   3.812  0.7019 -0.2835  0.5373
    1SOL    MW4 9128   2.035   2.806   3.778  0.2131 -0.0784 -0.0615
    1SOL     OW 9129   1.818   3.211   3.761 -0.1007 -0.0797 -0.0113
    1SOL    HW2 9130   1.888   3.152   3.788 -0.1567  0.1227  0.5693
    1SOL    HW3 9131   1.738   3.173   3.796 -0.3963 -0.7474 -1.3597
    1SOL    MW4 9132   1.817   3.198   3.769 -0.1470 -0.1411 -0.1128
    1SOL     OW 9133   1.776   3.473   3.857  0.2391  0.5293 -0.2297
    1SOL    HW2 9134   1.853   3.528   3.845  0.7424  0.7309  3.3735
    1SOL    HW3 9135   1.801   3.389   3.819  1.1483  1.4448 -1.6897
    1SOL    MW4 9136   1.789   3.469   3.851  0.4253  0.6769  0.0532
    1SOL     OW 9137   2.004   3.629   3.804 -0.0379 -0.1024  0.1595
    1SOL    HW2 9138   2.086   3.592   3.837 -0.8038 -1.0760  1.0176
    1SOL    HW3 9139   2.012   3.627   3.709  0.5415 -1.0742  0.2324
    1SOL    MW4 9140   2.016   3.624   3.796 -0.0625 -0.3593  0.2823
    1SOL     OW 9141   2.043   3.895   3.867 -0.0483  0.2342  0.4032
    1SOL    HW2 9142   2.122   3.934   3.829 -0.4952 -0.0284 -0.8335
    1SOL    HW3 9143   2.044   3.804   3.836 -0.2721 -0.0696  1.2760
    1SOL    MW4 9144   2.054   3.888   3.858 -0.1371  0.1595  0.3552
    1SOL     OW 9145   1.816   4.007   3.737 -0.5967  0.0129  0.1266
    1SOL    HW2 9146   1.896   3.972   3.777 -0.3308 -0.7925 -1.0971
    1SOL    HW3 9147   1.745   3.956   3.776 -0.3378 -0.7928 -0.4516
    1SOL    MW4 9148   1.818   3.996   3.747 -0.5274 -0.1993 -0.1111
    1SOL     OW 9149   1.788   4.241   3.884 -0.1653  0.3428 -0.2068
    1SOL    HW2 9150   1.864   4.289   3.851 -0.0063  0.5831  0.4984
    1SOL    HW3 9151   1.792   4.157   3.838  0.7332  0.2184  0.0798
    1SOL    MW4 9152   1.799   4.236   3.874 -0.0256  0.3581 -0.0758
    1SOL     OW 9153   2.004   4.368   3.803 -0.3235  0.2194 -0.1275
    1SOL    HW2 9154   2.085   4.327   3.834 -0.1968  1.1452  0.8217
    1SOL    HW3 9155   2.019   4.382   3.710  0.1521 -0.6682 -0.1918
    1SOL    MW4 9156   2.017   4.365   3.795 -0.2439  0.2241 -0.0107
    1SOL     OW 9157   2.467   4.654   3.874 -0.0073 -0.0656  0.2751
    1SOL    HW2 9158   2.497   4.655   3.965  2.3232 -0.6455 -0.4426
    1SOL    HW3 9159   2.483   4.563   3.845 -0.6321  0.1363 -0.7313
    1SOL    MW4 9160   2.473   4.642   3.882  0.2179 -0.1154  0.0474
    1SOL     OW 9161   2.217   0.100   3.762  0.4486  0.0776 -0.5846
    1SOL    HW2 9162   2.300   0.061   3.790  0.1052 -0.7117 -0.6662
    1SOL    HW3 9163   2.226   0.107   3.667  0.2914 -0.3117 -0.6285
    1SOL    MW4 9164   2.229   0.096   3.753  0.3827 -0.0779 -0.6013
    1SOL     OW 9165   2.227   0.351   3.894  0.2351  0.1001 -0.2321
    1SOL    HW2 9166   2.207   0.269   3.849 -1.1671 -0.4731  1.4049
    1SOL    HW3 9167   2.158   0.411   3.866  0.0530  0.0937  0.1959
    1SOL    MW4 9168   2.215   0.348   3.884  0.0262  0.0237  0.0405
    1SOL     OW 9169   2.467   0.482   3.774  0.0703  0.2847 -0.2301
    1SOL    HW2 9170   2.397   0.422   3.800 -0.1150  0.7781  0.4261
    1SOL    HW3 9171   2.485   0.460   3.682  0.8973 -1.6425  0.3836
    1SOL    MW4 9172   2.460   0.471   3.765  0.1547  0.0956 -0.0625
    1SOL     OW 9173   2.439   0.757   3.897 -0.3773 -0.4969  0.0165
    1SOL    HW2 9174   2.365   0.810   3.865  0.0565 -0.4982 -1.0121
    1SOL    HW3 9175   2.429   0.673   3.852  0.9031 -0.1038 -1.0139
    1SOL    MW4 9176   2.428   0.753   3.887 -0.1512 -0.4452 -0.2551
    1SOL     OW 9177   2.224   0.899   3.799 -0.3953 -0.3091  0.6635
    1SOL    HW2 9178   2.145   0.855   3.830 -0.2014 -1.0367  0.1408
    1SOL    HW3 9179   2.232   0.872   3.708  0.1930  0.1488  0.5750
    1SOL    MW4 9180   2.215   0.890   3.791 -0.2923 -0.3447  0.5829
    1SOL     OW 9181   2.281   1.150   3.862 -0.3275 -0.2594  0.0660
    1SOL    HW2 9182   2.271   1.140   3.957 -0.4219 -0.4794  0.0333
    1SOL    HW3 9183   2.259   1.063   3.827 -1.3891  0.1257 -0.2438
    1SOL    MW4 9184   2.277   1.137   3.870 -0.4799 -0.2376  0.0207
    1SOL     OW 9185   2.482   1.319   3.786  0.1014  0.2738 -0.1808
    1SOL    HW2 9186   2.475   1.406   3.825 -2.3375  1.0750 -2.2157
    1SOL    HW3 9187   2.408   1.271   3.823 -0.5316  0.1480 -1.5784
    1SOL    MW4 9188   2.471   1.324   3.796 -0.3035  0.3629 -0.6335
    1SOL     OW 9189   2.465   1.577   3.892 -0.3814  0.1375 -0.0153
    1SOL    HW2 9190   2.522   1.635   3.842 -0.2163  0.6438  0.7598
    1SOL    HW3 9191   2.376   1.603   3.866 -0.3048  0.6153  0.2003
    1SOL    MW4 9192   2.460   1.588   3.882 -0.3495  0.2673  0.1154
    1SOL     OW 9193   2.224   1.675   3.778  0.1789  0.3350  0.1813
    1SOL    HW2 9194   2.225   1.761   3.821 -1.9676  0.3955  0.1639
    1SOL    HW3 9195   2.150   1.630   3.819 -0.9987 -0.1447 -2.4194
    1SOL    MW4 9196   2.214   1.681   3.789 -0.2596  0.2798 -0.1640
    1SOL     OW 9197   2.232   1.929   3.910  0.5167  0.4795  0.4415
    1SOL    HW2 9198   2.166   1.957   3.846 -0.4916  0.3334  1.4063
    1SOL    HW3 9199   2.313   1.968   3.878  0.2742 -0.5939 -1.5999
    1SOL    MW4 9200   2.234   1.938   3.897  0.3517  0.3185  0.2997
    1SOL     OW 9201   2.450   2.043   3.772  0.2293 -0.0505 -0.6039
    1SOL    HW2 9202   2.465   2.066   3.681  1.6096 -0.5384 -0.5080
    1SOL    HW3 9203   2.535   2.011   3.804  0.0329  1.0564  1.1269
    1SOL    MW4 9204   2.463   2.041   3.764  0.3853  0.0310 -0.3629
    1SOL     OW 9205   2.268   2.669   3.836  0.0894  0.0818 -0.0210
    1SOL    HW2 9206   2.189   2.716   3.810 -0.2081 -0.1456  0.4683
    1SOL    HW3 9207   2.252   2.579   3.810  0.2192  0.0496  0.0105
    1SOL    MW4 9208   2.256   2.663   3.829  0.0675  0.0474  0.0479
    1SOL     OW 9209   0.989   2.246   4.636  0.2239 -0.1163 -0.2566
    1SOL    HW2 9210   1.079   2.230   4.610  0.1905 -0.6790 -0.0383
    1SOL    HW3 9211   0.950   2.159   4.643 -0.0423  0.0707  0.6894
    1SOL    MW4 9212   0.995   2.232   4.633  0.1845 -0.1659 -0.1030
    1SOL     OW 9213   2.003   2.022   3.779  0.3955  0.2392 -0.1426
    1SOL    HW2 9214   2.031   2.105   3.818 -0.6793  0.8244 -0.6064
    1SOL    HW3 9215   2.019   2.033   3.685  0.5023 -0.1867 -0.1780
    1SOL    MW4 9216   2.009   2.034   3.772  0.2677  0.2604 -0.2084
    1SOL     OW 9217   2.495   2.825   3.786  0.1304 -0.5976 -0.3237
    1SOL    HW2 9218   2.411   2.781   3.796  0.4553 -1.2410 -0.3885
    1SOL    HW3 9219   2.510   2.827   3.691  0.3304 -0.7684 -0.2978
    1SOL    MW4 9220   2.486   2.820   3.775  0.1998 -0.7048 -0.3290
    1SOL     OW 9221   2.498   3.102   3.884 -0.1542  0.1629  0.0392
    1SOL    HW2 9222   2.496   3.082   3.978  1.1411 -1.1490 -0.1883
    1SOL    HW3 9223   2.490   3.016   3.842  1.1102  0.5546 -1.0260
    1SOL    MW4 9224   2.496   3.088   3.891  0.1833  0.0415 -0.1318
    1SOL     OW 9225   2.242   3.237   3.789  0.7333 -0.4505 -0.3626
    1SOL    HW2 9226   2.242   3.326   3.822 -0.5471  0.0436 -1.6378
    1SOL    HW3 9227   2.324   3.199   3.820  0.5261  0.6524  1.5602
    1SOL    MW4 9228   2.253   3.244   3.797  0.5372 -0.2396 -0.2770
    1SOL     OW 9229   2.265   3.516   3.855  0.1292 -0.1198  0.4340
    1SOL    HW2 9230   2.281   3.494   3.946 -1.2202  0.4645  0.8247
    1SOL    HW3 9231   2.351   3.540   3.820  0.7627 -1.0348  1.3502
    1SOL    MW4 9232   2.278   3.516   3.862  0.0346 -0.1636  0.6065
    1SOL     OW 9233   2.508   3.630   3.743  0.2486  0.1070 -0.1203
    1SOL    HW2 9234   2.568   3.571   3.789  0.6809 -0.0478 -0.8881
    1SOL    HW3 9235   2.522   3.612   3.650 -0.1809  0.8658 -0.3366
    1SOL    MW4 9236   2.518   3.619   3.737  0.2489  0.1867 -0.2501
    1SOL     OW 9237   2.478   3.887   3.869  0.2387  0.0191 -0.5117
    1SOL    HW2 9238   2.556   3.926   3.829 -0.5928 -0.5599 -2.7355
    1SOL    HW3 9239   2.474   3.798   3.835 -1.9667  0.3612 -1.2486
    1SOL    MW4 9240   2.488   3.881   3.859 -0.1619 -0.0122 -0.9024
    1SOL     OW 9241   2.260   4.025   3.781  0.1649 -0.0961  0.2087
    1SOL    HW2 9242   2.331   3.968   3.808  0.6921  0.0117 -0.8885
    1SOL    HW3 9243   2.257   4.015   3.685 -0.4082  0.9201  0.1142
    1SOL    MW4 9244   2.269   4.016   3.772  0.1585  0.0525  0.0513
    1SOL     OW 9245   2.255   4.268   3.899  0.2730  0.0490 -0.5762
    1SOL    HW2 9246   2.243   4.236   3.989  1.1438 -0.0369 -0.4905
    1SOL    HW3 9247   2.271   4.189   3.847  0.8500  0.1971 -0.6255
    1SOL    MW4 9248   2.256   4.253   3.904  0.4642  0.0567 -0.5715
    1SOL     OW 9249   2.500   4.377   3.795 -0.0932 -0.5559 -0.3594
    1SOL    HW2 9250   2.575   4.322   3.820  1.1705  1.2234 -0.0773
    1SOL    HW3 9251   2.426   4.340   3.843  0.7704 -1.8440  0.0191
    1SOL    MW4 9252   2.500   4.365   3.805  0.1874 -0.4911 -0.2720
    1SOL     OW 9253   2.930   0.014   3.862 -0.0798 -0.3785  0.3625
    1SOL    HW2 9254   2.926   0.039   3.955 -1.7396  0.8796 -0.0155
    1SOL    HW3 9255   3.015   0.046   3.832  1.2559 -2.3521  1.8470
    1SOL    MW4 9256   2.941   0.022   3.871 -0.1228 -0.4730  0.5083
    1SOL     OW 9257   2.711   0.149   3.793 -0.0232  0.0023  0.0492
    1SOL    HW2 9258   2.781   0.088   3.817 -0.6036 -0.6074  0.1699
    1SOL    HW3 9259   2.630   0.103   3.813 -0.4660  0.7211 -0.0773
    1SOL    MW4 9260   2.710   0.135   3.799 -0.1583  0.0167  0.0484
    1SOL     OW 9261   2.718   0.417   3.898 -0.0488  0.4300 -0.7464
    1SOL    HW2 9262   2.722   0.327   3.864 -0.8680  0.1118 -0.0553
    1SOL    HW3 9263   2.629   0.446   3.876  0.0575  0.8939 -0.5596
    1SOL    MW4 9264   2.707   0.409   3.891 -0.1428  0.4492 -0.6306
    1SOL     OW 9265   2.935   0.534   3.792  0.4009  0.2117 -0.2863
    1SOL    HW2 9266   3.010   0.475   3.804  1.5279  1.4629 -1.0576
    1SOL    HW3 9267   2.862   0.487   3.831  1.9830 -0.1546  2.4179
    1SOL    MW4 9268   2.935   0.520   3.799  0.7584  0.3285 -0.0312
    1SOL     OW 9269   2.884   0.788   3.846  0.1103  0.3272  0.2776
    1SOL    HW2 9270   2.953   0.835   3.799 -1.2698  2.1508 -0.0086
    1SOL    HW3 9271   2.895   0.697   3.821  2.7238  0.5064  0.6367
    1SOL    MW4 9272   2.894   0.782   3.836  0.2730  0.5915  0.2871
    1SOL     OW 9273   2.646   0.923   3.801 -0.2359  0.0730 -0.1826
    1SOL    HW2 9274   2.731   0.889   3.829 -0.3671 -0.4251 -0.3841
    1SOL    HW3 9275   2.583   0.857   3.831 -0.5676  0.5305  0.1300
    1SOL    MW4 9276   2.649   0.910   3.809 -0.2971  0.0677 -0.1678
    1SOL     OW 9277   2.703   1.185   3.885 -0.2095  0.0388  1.0676
    1SOL    HW2 9278   2.676   1.093   3.876 -0.0988  0.0647  0.4749
    1SOL    HW3 9279   2.640   1.234   3.832  1.0868  0.0854 -0.4622
    1SOL    MW4 9280   2.691   1.179   3.877 -0.0238  0.0483  0.7877
    1SOL     OW 9281   2.914   1.317   3.791 -0.5595  0.3026 -0.3159
    1SOL    HW2 9282   2.918   1.403   3.832 -0.0800  0.1667 -0.0752
    1SOL    HW3 9283   2.838   1.275   3.830  0.1818 -0.0120  0.8009
    1SOL    MW4 9284   2.904   1.323   3.801 -0.3986  0.2431 -0.1364
    1SOL     OW 9285   2.899   1.586   3.869 -0.0239 -0.0913 -0.4952
    1SOL    HW2 9286   2.909   1.590   3.964 -0.9757  0.6030 -0.4180
    1SOL    HW3 9287   2.984   1.615   3.835  0.2154 -0.0235  0.1453
    1SOL    MW4 9288   2.911   1.591   3.877 -0.1180  0.0092 -0.4005
    1SOL     OW 9289   2.674   1.698   3.764 -0.0241  0.1510 -0.1747
    1SOL    HW2 9290   2.755   1.660   3.796 -0.6116 -0.3412  0.7571
    1SOL    HW3 9291   2.683   1.698   3.668  1.2910  0.6090 -0.0609
    1SOL    MW4 9292   2.686   1.693   3.755  0.0720  0.1464 -0.0367
    1SOL     OW 9293   2.702   1.956   3.873 -0.3565 -0.1429  0.0618
    1SOL    HW2 9294   2.712   1.949   3.968 -3.3907 -1.3166  0.3699
    1SOL    HW3 9295   2.709   1.866   3.841 -2.2157 -0.1268 -0.4574
    1SOL    MW4 9296   2.704   1.944   3.881 -1.0021 -0.2956  0.0339
    1SOL     OW 9297   2.960   2.274   3.887  0.3507  0.2601  0.4670
    1SOL    HW2 9298   2.885   2.320   3.849  0.1813 -0.0206  0.4592
    1SOL    HW3 9299   3.036   2.318   3.849  0.1844 -1.1096 -1.5767
    1SOL    MW4 9300   2.960   2.286   3.877  0.3064  0.0424  0.1962
    1SOL     OW 9301   2.730   1.720   4.521  0.4360 -0.1526 -0.0425
    1SOL    HW2 9302   2.750   1.669   4.599 -0.7185 -0.8151 -0.1695
    1SOL    HW3 9303   2.801   1.784   4.515  0.3805  0.0734  1.6873
    1SOL    MW4 9304   2.742   1.722   4.530  0.2763 -0.2102  0.1693
    1SOL     OW 9305   2.744   2.419   3.772 -0.3205  0.3437 -0.2036
    1SOL    HW2 9306   2.739   2.504   3.816 -1.8104  0.4939 -0.6560
    1SOL    HW3 9307   2.653   2.391   3.763  0.1551 -1.2303 -0.2055
    1SOL    MW4 9308   2.732   2.426   3.776 -0.4542  0.1557 -0.2637
    1SOL     OW 9309   2.707   2.687   3.869 -0.3718  0.1692  0.0930
    1SOL    HW2 9310   2.619   2.724   3.859 -0.7583 -0.2433  1.7337
    1SOL    HW3 9311   2.705   2.647   3.956  1.0016 -1.0684 -0.4463
    1SOL    MW4 9312   2.695   2.687   3.879 -0.2415 -0.0486  0.2382
    1SOL     OW 9313   2.924   2.832   3.772  0.1254 -0.4263 -0.1473
    1SOL    HW2 9314   2.939   2.911   3.823  1.1992 -0.6659 -0.0787
    1SOL    HW3 9315   2.840   2.798   3.804 -0.2474  0.5800 -0.0585
    1SOL    MW4 9316   2.915   2.838   3.783  0.2179 -0.3252 -0.1266
    1SOL     OW 9317   2.947   3.099   3.874  0.4749  0.3559 -0.0140
    1SOL    HW2 9318   3.017   3.158   3.846 -0.6584  2.2192  1.0030
    1SOL    HW3 9319   2.868   3.136   3.836 -0.1959 -0.8362  0.1882
    1SOL    MW4 9320   2.946   3.112   3.865  0.2367  0.4442  0.1469
    1SOL     OW 9321   2.709   3.214   3.755  0.3152  0.2277 -0.2910
    1SOL    HW2 9322   2.717   3.303   3.788 -0.7574  0.4988 -0.7531
    1SOL    HW3 9323   2.629   3.180   3.795 -0.5257  0.2691 -1.8861
    1SOL    MW4 9324   2.700   3.221   3.764  0.0625  0.2692 -0.5624
    1SOL     OW 9325   2.715   3.471   3.865  0.1425 -0.3195  0.2723
    1SOL    HW2 9326   2.724   3.451   3.959  0.6345  0.6476  0.4344
    1SOL    HW3 9327   2.790   3.527   3.845  0.6779 -1.4687 -0.9746
    1SOL    MW4 9328   2.726   3.476   3.875  0.2778 -0.3436  0.1290
    1SOL     OW 9329   2.934   3.596   3.781 -0.8363 -0.4721 -0.1172
    1SOL    HW2 9330   3.023   3.572   3.809 -0.7323 -0.2001 -0.2094
    1SOL    HW3 9331   2.936   3.587   3.686 -0.5348  0.7493 -0.2375
    1SOL    MW4 9332   2.946   3.591   3.772 -0.7825 -0.2751 -0.1454
    1SOL     OW 9333   2.926   3.870   3.852  0.1791  0.4575 -0.4812
    1SOL    HW2 9334   2.941   3.878   3.946  0.6387  2.1562 -0.6831
    1SOL    HW3 9335   2.916   3.776   3.837  0.4248  0.1506  1.2086
    1SOL    MW4 9336   2.926   3.858   3.862  0.2720  0.6411 -0.2849
    1SOL     OW 9337   2.705   4.003   3.747 -0.2023 -0.2943 -0.3378
    1SOL    HW2 9338   2.710   4.090   3.787  0.2511 -0.1577 -0.6869
    1SOL    HW3 9339   2.781   3.956   3.780 -1.3009 -1.0926  1.0855
    1SOL    MW4 9340   2.716   4.009   3.756 -0.2873 -0.3815 -0.1960
    1SOL     OW 9341   2.719   4.237   3.872  0.7173  0.1505  0.1131
    1SOL    HW2 9342   2.784   4.306   3.855  1.8844 -0.3838  2.1951
    1SOL    HW3 9343   2.713   4.233   3.968 -1.7874 -0.3962 -0.0380
    1SOL    MW4 9344   2.727   4.246   3.882  0.5407  0.0081  0.3679
    1SOL     OW 9345   2.910   4.422   3.760  0.0312  0.7915 -0.5437
    1SOL    HW2 9346   2.993   4.375   3.774 -1.2702 -1.3251  0.4840
    1SOL    HW3 9347   2.924   4.508   3.799  2.0875  0.8157 -1.3068
    1SOL    MW4 9348   2.923   4.427   3.767  0.1309  0.5155 -0.5085
    1SOL     OW 9349   3.375   4.660   3.865  0.0190  0.2413 -0.2238
    1SOL    HW2 9350   3.392   4.658   3.959 -0.3281  1.5325 -0.1254
    1SOL    HW3 9351   3.462   4.673   3.826 -0.0351  1.3596  0.0077
    1SOL    MW4 9352   3.389   4.662   3.872 -0.0339  0.5593 -0.1805
    1SOL     OW 9353   3.172   0.120   3.766  0.2694 -0.0878  0.3767
    1SOL    HW2 9354   3.259   0.087   3.788  0.5866  0.9894  0.7935
    1SOL    HW3 9355   3.174   0.128   3.670  0.2930 -0.9743  0.3017
    1SOL    MW4 9356   3.184   0.117   3.756  0.3142 -0.0627  0.4218
    1SOL     OW 9357   3.147   0.375   3.864  0.0640 -0.0405 -0.0450
    1SOL    HW2 9358   3.144   0.376   3.960 -2.2780 -0.2218 -0.0778
    1SOL    HW3 9359   3.160   0.283   3.842 -1.0255 -0.2468  0.1074
    1SOL    MW4 9360   3.148   0.363   3.874 -0.3889 -0.0916 -0.0291
    1SOL     OW 9361   3.387   0.500   3.807  0.2859 -0.0251  0.1532
    1SOL    HW2 9362   3.463   0.445   3.827  0.9247  0.7715 -0.0737
    1SOL    HW3 9363   3.312   0.449   3.837  1.0583  0.1349  2.3930
    1SOL    MW4 9364   3.387   0.486   3.813  0.4721  0.1011  0.4189
    1SOL     OW 9365   3.347   0.790   3.812 -0.3230 -1.2397  0.1859
    1SOL    HW2 9366   3.352   0.804   3.907 -0.7903 -1.1789  0.1982
    1SOL    HW3 9367   3.348   0.695   3.802 -1.0785 -1.2605  0.2927
    1SOL    MW4 9368   3.348   0.779   3.823 -0.4842 -1.2344  0.2015
    1SOL     OW 9369   3.115   0.912   3.743 -0.1525  0.0243 -0.1900
    1SOL    HW2 9370   3.198   0.873   3.771 -0.8198 -1.9990 -0.9321
    1SOL    HW3 9371   3.118   0.909   3.648 -1.6504 -1.3611 -0.2093
    1SOL    MW4 9372   3.127   0.907   3.734 -0.4382 -0.4255 -0.2906
    1SOL     OW 9373   3.149   1.169   3.869 -0.6266 -0.0910  0.3912
    1SOL    HW2 9374   3.148   1.091   3.812  2.5272  0.5808 -0.6472
    1SOL    HW3 9375   3.077   1.223   3.835 -0.5078 -0.9108 -1.2467
    1SOL    MW4 9376   3.139   1.166   3.857 -0.1953 -0.1105  0.0379
    1SOL     OW 9377   3.399   1.255   3.774 -0.0913  0.0059 -0.3058
    1SOL    HW2 9378   3.308   1.241   3.799  0.2453 -1.3775  0.2141
    1SOL    HW3 9379   3.395   1.276   3.680 -0.8073 -2.2986 -0.8385
    1SOL    MW4 9380   3.387   1.256   3.765 -0.1414 -0.4807 -0.3076
    1SOL     OW 9381   3.411   1.524   3.880  0.5504 -0.4606  0.0936
    1SOL    HW2 9382   3.322   1.544   3.852  0.8624  0.2128 -0.4586
    1SOL    HW3 9383   3.423   1.432   3.859 -0.0922 -0.6038  0.3722
    1SOL    MW4 9384   3.401   1.515   3.873  0.5066 -0.3906  0.0575
    1SOL     OW 9385   3.149   1.615   3.815 -0.5743 -0.3590 -0.2174
    1SOL    HW2 9386   3.167   1.697   3.863 -1.0712 -0.4537  0.1330
    1SOL    HW3 9387   3.156   1.640   3.723  1.2349 -0.3623 -0.0990
    1SOL    MW4 9388   3.153   1.629   3.809 -0.4013 -0.3719 -0.1554
    1SOL     OW 9389   3.160   1.868   3.932  0.4209  0.1580  0.1527
    1SOL    HW2 9390   3.206   1.913   4.002  1.0318  1.3491 -0.9856
    1SOL    HW3 9391   3.081   1.920   3.918  0.4242  0.0715 -0.1987
    1SOL    MW4 9392   3.156   1.881   3.939  0.5019  0.3037 -0.0436
    1SOL     OW 9393   3.322   2.028   3.735  0.3616 -0.3067  0.3291
    1SOL    HW2 9394   3.248   1.989   3.781 -0.3246 -0.6516 -1.0327
    1SOL    HW3 9395   3.398   2.005   3.788 -0.4456 -0.4112  1.4579
    1SOL    MW4 9396   3.323   2.020   3.748  0.1645 -0.3660  0.2983
    1SOL     OW 9397   3.353   2.280   3.834  0.4689 -0.4768 -0.0007
    1SOL    HW2 9398   3.272   2.321   3.806  0.2442 -0.2550  0.9619
    1SOL    HW3 9399   3.354   2.196   3.788 -0.4075 -0.5725  0.1437
    1SOL    MW4 9400   3.343   2.274   3.825  0.3238 -0.4604  0.1454
    1SOL     OW 9401   3.147   2.419   3.759  0.4935  0.4333  0.0637
    1SOL    HW2 9402   3.149   2.511   3.787  0.9403  0.1546  0.9487
    1SOL    HW3 9403   3.162   2.423   3.665  0.6516  1.2590  0.1159
    1SOL    MW4 9404   3.149   2.432   3.750  0.5734  0.5054  0.1872
    1SOL     OW 9405   3.132   2.673   3.870 -0.0776  0.0732 -0.8562
    1SOL    HW2 9406   3.114   2.681   3.964 -0.5518 -0.0597 -0.9329
    1SOL    HW3 9407   3.058   2.718   3.828 -0.2084 -0.4406 -1.1795
    1SOL    MW4 9408   3.120   2.680   3.877 -0.1576 -0.0122 -0.9089
    1SOL     OW 9409   3.344   2.830   3.786 -0.0315 -0.2094 -0.6620
    1SOL    HW2 9410   3.274   2.773   3.818  0.1907 -0.4027 -0.5255
    1SOL    HW3 9411   3.346   2.903   3.848 -0.2648 -0.0894 -0.7940
    1SOL    MW4 9412   3.335   2.832   3.798 -0.0331 -0.2191 -0.6614
    1SOL     OW 9413   3.359   3.085   3.904 -0.2209  0.3562  0.2743
    1SOL    HW2 9414   3.366   3.096   3.999 -1.0024  1.3224  0.2281
    1SOL    HW3 9415   3.437   3.128   3.869 -1.2005  2.2264  0.3437
    1SOL    MW4 9416   3.370   3.092   3.912 -0.4530  0.7305  0.2778
    1SOL     OW 9417   3.167   3.249   3.788  0.0467 -0.3357  0.5036
    1SOL    HW2 9418   3.232   3.196   3.834  0.8464 -0.2653 -0.5380
    1SOL    HW3 9419   3.181   3.229   3.696 -1.9832 -0.9918  0.3025
    1SOL    MW4 9420   3.177   3.239   3.782 -0.1156 -0.4129  0.3400
    1SOL     OW 9421   3.186   3.501   3.884 -0.5306  0.6350 -0.4754
    1SOL    HW2 9422   3.258   3.542   3.836  0.1187  0.8363  0.6647
    1SOL    HW3 9423   3.186   3.410   3.855  1.0797  0.2931  0.5565
    1SOL    MW4 9424   3.195   3.495   3.874 -0.2325  0.6163 -0.1888
    1SOL     OW 9425   3.427   3.612   3.769 -0.0960 -0.3498 -0.2966
    1SOL    HW2 9426   3.431   3.702   3.798  0.1268 -0.3227 -0.4089
    1SOL    HW3 9427   3.404   3.618   3.676  0.9775 -0.3618 -0.5781
    1SOL    MW4 9428   3.425   3.624   3.760  0.0751 -0.3479 -0.3483
    1SOL     OW 9429   3.379   3.875   3.849 -0.1279  0.1136  0.1869
    1SOL    HW2 9430   3.451   3.928   3.816 -0.9618  1.3007  0.2108
    1SOL    HW3 9431   3.300   3.914   3.809 -0.8036 -0.7265  0.6827
    1SOL    MW4 9432   3.378   3.887   3.840 -0.3273  0.1593  0.2551
    1SOL     OW 9433   3.125   3.998   3.722  0.1958 -0.1324  0.2367
    1SOL    HW2 9434   3.119   4.090   3.744 -1.7778  0.0499 -0.9947
    1SOL    HW3 9435   3.062   3.954   3.778  0.1251 -0.5505 -0.1573
    1SOL    MW4 9436   3.116   4.004   3.732 -0.0739 -0.1631  0.0222
    1SOL     OW 9437   3.131   4.259   3.817 -0.4940 -0.0286 -0.2626
    1SOL    HW2 9438   3.134   4.236   3.910 -0.5250 -1.1186 -0.5322
    1SOL    HW3 9439   3.216   4.300   3.800 -0.5949  0.4237  0.3076
    1SOL    MW4 9440   3.143   4.261   3.827 -0.5116 -0.1130 -0.2229
    1SOL     OW 9441   3.381   4.397   3.767 -0.2892  0.2840 -0.5017
    1SOL    HW2 9442   3.463   4.360   3.797 -1.3780 -0.8255  1.1863
    1SOL    HW3 9443   3.375   4.482   3.812 -0.4081  0.0395 -0.0542
    1SOL    MW4 9444   3.391   4.403   3.777 -0.4482  0.1059 -0.2201
    1SOL     OW 9445   3.877   0.056   3.824 -0.0926 -0.0682 -0.0372
    1SOL    HW2 9446   3.958   0.093   3.789  0.0791 -0.0383  0.3893
    1SOL    HW3 9447   3.871  -0.031   3.783  0.3412 -0.2153  0.2036
    1SOL    MW4 9448   3.887   0.049   3.814 -0.0126 -0.0837  0.0508
    1SOL     OW 9449   3.615   0.091   3.754 -0.0798  0.3234  0.1229
    1SOL    HW2 9450   3.707   0.098   3.777 -0.2534 -0.8485  1.2523
    1SOL    HW3 9451   3.614   0.094   3.659  0.9726  1.8710  0.1388
    1SOL    MW4 9452   3.627   0.092   3.745  0.0360  0.3730  0.2739
    1SOL     OW 9453   3.624   0.335   3.873  0.2930  0.1218 -0.4578
    1SOL    HW2 9454   3.698   0.383   3.836  0.7286 -0.4037 -0.2659
    1SOL    HW3 9455   3.623   0.252   3.825  0.2558 -0.1613  0.0333
    1SOL    MW4 9456   3.634   0.331   3.862  0.3455  0.0151 -0.3679
    1SOL     OW 9457   3.826   0.490   3.795 -0.0018 -0.0352  0.1830
    1SOL    HW2 9458   3.914   0.466   3.825 -0.2125  0.5118  1.2722
    1SOL    HW3 9459   3.813   0.579   3.829 -1.0858 -0.2274  0.2745
    1SOL    MW4 9460   3.836   0.499   3.804 -0.1729  0.0116  0.3388
    1SOL     OW 9461   3.825   0.763   3.902  0.0931 -0.0602 -0.0738
    1SOL    HW2 9462   3.887   0.831   3.874  0.0359 -0.0534 -0.1844
    1SOL    HW3 9463   3.741   0.791   3.867  0.1802 -0.5026 -0.6476
    1SOL    MW4 9464   3.822   0.775   3.893  0.0968 -0.1177 -0.1640
    1SOL     OW 9465   3.608   0.871   3.748  0.1403 -0.5428  0.2098
    1SOL    HW2 9466   3.628   0.955   3.789 -1.1857 -0.2433  0.2734
    1SOL    HW3 9467   3.517   0.853   3.773  0.2488 -1.7516 -0.2198
    1SOL    MW4 9468   3.599   0.880   3.757 -0.0200 -0.6628  0.1616
    1SOL     OW 9469   3.631   1.110   3.857  0.1008  0.2263  0.1936
    1SOL    HW2 9470   3.709   1.159   3.830  0.3547 -0.2193  0.1073
    1SOL    HW3 9471   3.558   1.158   3.820  0.3823  0.2332 -0.3547
    1SOL    MW4 9472   3.632   1.123   3.849  0.1714  0.1684  0.1099
    1SOL     OW 9473   3.816   1.281   3.735  0.1213 -0.1683  0.0563
    1SOL    HW2 9474   3.898   1.243   3.766  0.2682 -0.1958 -0.3733
    1SOL    HW3 9475   3.821   1.373   3.763  0.5618 -0.0252 -0.4999
    1SOL    MW4 9476   3.827   1.288   3.743  0.1988 -0.1529 -0.0739
    1SOL     OW 9477   3.811   1.530   3.856  0.0132  0.0143 -0.2600
    1SOL    HW2 9478   3.826   1.535   3.950  1.0493 -0.9251 -0.3647
    1SOL    HW3 9479   3.744   1.596   3.838  1.2493  1.5982  0.8509
    1SOL    MW4 9480   3.804   1.540   3.866  0.3130  0.0994 -0.1271
    1SOL     OW 9481   3.603   1.694   3.787 -0.1851 -0.5536  0.5960
    1SOL    HW2 9482   3.536   1.635   3.822 -0.7607  0.3975  1.1227
    1SOL    HW3 9483   3.600   1.680   3.692 -1.5821 -0.0709  0.5573
    1SOL    MW4 9484   3.593   1.684   3.779 -0.4451 -0.3647  0.6604
    1SOL     OW 9485   3.576   1.959   3.868  0.9450 -0.2224  0.2416
    1SOL    HW2 9486   3.602   1.869   3.852  1.6006 -0.0286  0.2135
    1SOL    HW3 9487   3.561   1.964   3.962  2.0787 -0.0545  0.4150
    1SOL    MW4 9488   3.577   1.948   3.878  1.1811 -0.1746  0.2606
    1SOL     OW 9489   3.787   2.095   3.771  0.1136  0.3754  0.2160
    1SOL    HW2 9490   3.863   2.048   3.804 -0.4340 -0.7908 -0.1396
    1SOL    HW3 9491   3.712   2.045   3.803 -0.4799  0.7251 -0.5831
    1SOL    MW4 9492   3.787   2.082   3.779 -0.0372  0.2677  0.0637
    1SOL     OW 9493   3.816   2.359   3.851 -0.1693 -0.1630 -0.0415
    1SOL    HW2 9494   3.814   2.264   3.835  0.7189 -0.1575 -0.1805
    1SOL    HW3 9495   3.727   2.388   3.829 -0.2221 -0.8415 -0.7542
    1SOL    MW4 9496   3.804   2.350   3.846 -0.0587 -0.2518 -0.1540
    1SOL     OW 9497   3.559   2.454   3.776  0.7309  0.0461 -0.2921
    1SOL    HW2 9498   3.493   2.387   3.792  0.1856  0.9592  1.3723
    1SOL    HW3 9499   3.578   2.448   3.682  1.3591 -3.0370 -0.0039
    1SOL    MW4 9500   3.553   2.445   3.765  0.7420 -0.2401 -0.0343
    1SOL     OW 9501   3.588   2.726   3.871 -0.5146  0.1094 -0.1749
    1SOL    HW2 9502   3.589   2.634   3.845  0.5715  0.5597 -1.8282
    1SOL    HW3 9503   3.507   2.761   3.833  0.3726  0.4268 -1.8644
    1SOL    MW4 9504   3.578   2.719   3.862 -0.2542  0.2108 -0.6158
    1SOL     OW 9505   3.809   2.851   3.768 -0.4678  0.4179 -0.2441
    1SOL    HW2 9506   3.884   2.800   3.799 -0.0732  0.1036 -1.6527
    1SOL    HW3 9507   3.733   2.804   3.802 -0.0562  0.0982  0.2487
    1SOL    MW4 9508   3.809   2.838   3.776 -0.3614  0.3340 -0.3653
    1SOL     OW 9509   3.824   3.111   3.858  0.0195  0.1590  0.2739
    1SOL    HW2 9510   3.745   3.151   3.821 -0.1421 -0.3959  0.0177
    1SOL    HW3 9511   3.817   3.018   3.836  1.0639  0.2109 -0.3010
    1SOL    MW4 9512   3.813   3.104   3.851  0.1357  0.0927  0.1640
    1SOL     OW 9513   3.575   3.234   3.786 -0.1954 -0.0542 -0.3845
    1SOL    HW2 9514   3.609   3.316   3.822 -1.3117  0.6181 -0.8162
    1SOL    HW3 9515   3.599   3.237   3.693  0.0998 -0.4074 -0.3226
    1SOL    MW4 9516   3.583   3.245   3.778 -0.3040 -0.0119 -0.4332
    1SOL     OW 9517   3.652   3.473   3.894 -0.0358  0.1259 -0.2187
    1SOL    HW2 9518   3.640   3.464   3.989 -0.1323  0.4111 -0.2044
    1SOL    HW3 9519   3.566   3.501   3.862  0.1561  0.6050 -0.3181
    1SOL    MW4 9520   3.639   3.475   3.902 -0.0231  0.2270 -0.2301
    1SOL     OW 9521   3.835   3.650   3.769  0.6994  0.6250 -0.0417
    1SOL    HW2 9522   3.832   3.730   3.821 -0.0554  0.9979 -0.6568
    1SOL    HW3 9523   3.780   3.588   3.817  0.9148  0.6194  0.1963
    1SOL    MW4 9524   3.827   3.652   3.782  0.6285  0.6735 -0.0913
    1SOL     OW 9525   3.814   3.901   3.869  0.1018 -0.2866  0.0076
    1SOL    HW2 9526   3.814   3.884   3.963  1.7883 -0.9692 -0.1089
    1SOL    HW3 9527   3.891   3.955   3.853 -1.3200  1.5730 -0.6875
    1SOL    MW4 9528   3.824   3.906   3.879  0.1369 -0.1311 -0.0999
    1SOL     OW 9529   3.590   4.021   3.754  0.3748 -0.1470 -0.2868
    1SOL    HW2 9530   3.595   4.110   3.790  1.5012  0.6858 -2.3909
    1SOL    HW3 9531   3.664   3.975   3.793  0.4466  0.1665 -0.0541
    1SOL    MW4 9532   3.600   4.027   3.763  0.5331  0.0043 -0.5336
    1SOL     OW 9533   3.630   4.319   3.857  0.3753  0.3314 -0.4642
    1SOL    HW2 9534   3.638   4.304   3.952  0.3863  0.8917 -0.3724
    1SOL    HW3 9535   3.714   4.360   3.833  0.8486 -0.9035 -0.9372
    1SOL    MW4 9536   3.642   4.323   3.867  0.4392  0.2427 -0.5145
    1SOL     OW 9537   3.867   4.451   3.750  0.3107 -0.5337  0.0451
    1SOL    HW2 9538   3.944   4.412   3.791  0.9926  0.3747 -0.3514
    1SOL    HW3 9539   3.868   4.419   3.660  1.5271  1.2774 -0.6176
    1SOL    MW4 9540   3.877   4.442   3.744  0.5612 -0.1750 -0.0947
    1SOL     OW 9541   4.313   4.642   3.818  0.6592 -0.1623  0.0110
    1SOL    HW2 9542   4.297   4.635   3.912 -0.4235  3.0322  0.1119
    1SOL    HW3 9543   4.401   4.679   3.811 -0.6119  2.9446 -0.1221
    1SOL    MW4 9544   4.323   4.646   3.829  0.3495  0.6695  0.0072
    1SOL     OW 9545   4.129   0.160   3.730 -0.3440  0.6257 -0.6610
    1SOL    HW2 9546   4.191   0.090   3.752  0.1204  1.0485 -0.6239
    1SOL    HW3 9547   4.106   0.144   3.639 -0.6014  0.1463 -0.5122
    1SOL    MW4 9548   4.134   0.149   3.721 -0.3166  0.6182 -0.6363
    1SOL     OW 9549   4.104   0.395   3.871 -0.1293  0.4258  0.1884
    1SOL    HW2 9550   4.086   0.377   3.964  0.1518  1.4246  0.4427
    1SOL    HW3 9551   4.108   0.308   3.831  1.9879 -0.1750  1.5470
    1SOL    MW4 9552   4.102   0.381   3.878  0.1864  0.4783  0.4013
    1SOL     OW 9553   4.306   0.528   3.736  0.0447  0.5782  0.1115
    1SOL    HW2 9554   4.235   0.479   3.779 -1.3666  1.7166 -0.8590
    1SOL    HW3 9555   4.283   0.527   3.643  2.4772 -0.8947 -0.4959
    1SOL    MW4 9556   4.293   0.522   3.729  0.1802  0.5341 -0.0966
    1SOL     OW 9557   4.228   0.771   3.910 -0.0571 -0.1970  0.2842
    1SOL    HW2 9558   4.147   0.816   3.885 -1.3256 -2.0116  1.0282
    1SOL    HW3 9559   4.237   0.700   3.847  0.5523 -0.4681  0.6641
    1SOL    MW4 9560   4.219   0.767   3.899 -0.1435 -0.4722  0.4327
    1SOL     OW 9561   4.032   0.909   3.780  0.0494  0.3960  0.3926
    1SOL    HW2 9562   4.034   0.999   3.813  0.4778  0.2770  0.6872
    1SOL    HW3 9563   4.043   0.919   3.685  1.7600  0.5652  0.5904
    1SOL    MW4 9564   4.034   0.922   3.772  0.3319  0.4027  0.4575
    1SOL     OW 9565   4.039   1.181   3.880  0.2276 -0.2913 -0.7020
    1SOL    HW2 9566   4.058   1.190   3.974 -2.0961  0.8271 -0.3146
    1SOL    HW3 9567   4.112   1.226   3.837  1.5752 -1.2445  0.5263
    1SOL    MW4 9568   4.051   1.188   3.887  0.0987 -0.2697 -0.4888
    1SOL     OW 9569   4.256   1.309   3.794  0.4025 -0.1026 -0.9006
    1SOL    HW2 9570   4.263   1.402   3.812  4.5616 -0.1101 -1.9485
    1SOL    HW3 9571   4.252   1.302   3.698  0.4900 -1.0340 -0.8493
    1SOL    MW4 9572   4.256   1.320   3.783  0.9627 -0.2264 -1.0321
    1SOL     OW 9573   4.271   1.571   3.880 -0.3740 -0.5802  0.0826
    1SOL    HW2 9574   4.198   1.627   3.855  0.9321  0.7348 -0.8231
    1SOL    HW3 9575   4.348   1.614   3.844  1.3298  0.1233  4.2795
    1SOL    MW4 9576   4.271   1.584   3.872  0.0229 -0.3139  0.5167
    1SOL     OW 9577   4.032   1.694   3.792  0.4416  0.2635 -0.6519
    1SOL    HW2 9578   4.003   1.784   3.806  0.9108  0.6632 -2.1668
    1SOL    HW3 9579   3.957   1.640   3.819 -0.3237  1.1452 -0.9979
    1SOL    MW4 9580   4.018   1.698   3.798  0.4025  0.4326 -0.8976
    1SOL     OW 9581   4.002   1.966   3.869  0.1617 -0.5328  0.0181
    1SOL    HW2 9582   4.020   1.959   3.963  0.4723 -0.1432 -0.0098
    1SOL    HW3 9583   4.082   2.005   3.833  0.6221 -2.0782 -0.6356
    1SOL    MW4 9584   4.015   1.970   3.877  0.2632 -0.6853 -0.0720
    1SOL     OW 9585   4.242   2.062   3.778  0.0918  0.2286  0.1948
    1SOL    HW2 9586   4.251   2.154   3.800  1.3146  0.2077 -0.1656
    1SOL    HW3 9587   4.273   2.056   3.687 -0.5739 -0.4255  0.0070
    1SOL    MW4 9588   4.248   2.073   3.769  0.1659  0.1395  0.1223
    1SOL     OW 9589   4.295   2.307   3.865 -0.0781 -0.4225  0.4477
    1SOL    HW2 9590   4.273   2.291   3.956 -0.1414  1.2804  0.7606
    1SOL    HW3 9591   4.231   2.372   3.836  1.1381  0.5009 -0.2326
    1SOL    MW4 9592   4.283   2.314   3.873  0.0739 -0.0763  0.3994
    1SOL     OW 9593   4.085   2.445   3.758  0.2491 -0.0709  0.5773
    1SOL    HW2 9594   4.071   2.535   3.787 -0.6242  0.2571 -0.8179
    1SOL    HW3 9595   4.003   2.400   3.779 -0.4913  0.2300 -1.5456
    1SOL    MW4 9596   4.072   2.451   3.765  0.0367  0.0119  0.1130
    1SOL     OW 9597   4.036   2.703   3.865  0.2525  0.0561 -0.0446
    1SOL    HW2 9598   4.047   2.719   3.958 -1.1774  1.6229 -0.1128
    1SOL    HW3 9599   4.110   2.747   3.824  0.6264 -0.2364  0.3092
    1SOL    MW4 9600   4.047   2.711   3.872  0.1135  0.2244 -0.0067
    1SOL     OW 9601   4.259   2.843   3.750 -0.3869 -0.6769 -0.0428
    1SOL    HW2 9602   4.256   2.933   3.784  0.0526 -0.1440 -1.3706
    1SOL    HW3 9603   4.339   2.806   3.787 -0.0555 -0.1912 -0.2632
    1SOL    MW4 9604   4.269   2.850   3.759 -0.2847 -0.5424 -0.2472
    1SOL     OW 9605   4.253   3.086   3.885 -0.1703 -0.2261 -0.0586
    1SOL    HW2 9606   4.185   3.139   3.843  0.0737 -0.5726 -0.9094
    1SOL    HW3 9607   4.335   3.124   3.853  0.0936  1.2276  2.2240
    1SOL    MW4 9608   4.255   3.098   3.875 -0.1030 -0.0801  0.1304
    1SOL     OW 9609   4.056   3.244   3.768 -0.4462  0.3146  0.0346
    1SOL    HW2 9610   3.970   3.222   3.804 -1.2215 -0.0194 -1.9974
    1SOL    HW3 9611   4.048   3.229   3.674  1.5357  1.2495 -0.3124
    1SOL    MW4 9612   4.043   3.239   3.760 -0.2871  0.3939 -0.2792
    1SOL     OW 9613   4.047   3.504   3.866 -0.0778  0.2821 -0.4558
    1SOL    HW2 9614   4.047   3.424   3.813  0.9160  0.7541 -1.1820
    1SOL    HW3 9615   3.982   3.561   3.825 -2.0172 -0.7678  1.0472
    1SOL    MW4 9616   4.038   3.501   3.854 -0.2031  0.2060 -0.3531
    1SOL     OW 9617   4.276   3.647   3.748  0.0041  0.0133  0.1630
    1SOL    HW2 9618   4.204   3.598   3.787 -0.0361  0.1073  0.2073
    1SOL    HW3 9619   4.355   3.602   3.778 -0.0587 -0.6726 -0.6591
    1SOL    MW4 9620   4.277   3.635   3.757 -0.0095 -0.0648  0.0603
    1SOL     OW 9621   4.278   3.898   3.862 -0.7258  0.2182  0.6228
    1SOL    HW2 9622   4.194   3.939   3.843 -0.2313  0.8498 -0.2360
    1SOL    HW3 9623   4.278   3.817   3.811 -0.3221  0.8122 -0.3330
    1SOL    MW4 9624   4.267   3.893   3.853 -0.6070  0.3798  0.3831
    1SOL     OW 9625   4.025   4.048   3.815  0.5783  0.0690  0.3742
    1SOL    HW2 9626   4.023   4.142   3.835 -1.1232  0.3792 -1.0937
    1SOL    HW3 9627   4.011   4.043   3.720  1.9896 -1.6146  0.2301
    1SOL    MW4 9628   4.023   4.060   3.805  0.5398 -0.1121  0.1612
    1SOL     OW 9629   4.074   4.318   3.868 -0.0136 -0.0454  0.3324
    1SOL    HW2 9630   4.090   4.323   3.962 -1.0345  1.2398  0.4598
    1SOL    HW3 9631   4.161   4.323   3.828  0.4099 -0.3931  1.2078
    1SOL    MW4 9632   4.088   4.320   3.875 -0.0925  0.0787  0.4647
    1SOL     OW 9633   4.307   4.379   3.729  0.0185 -0.2176  0.5785
    1SOL    HW2 9634   4.302   4.470   3.761 -0.5483  0.2038 -0.6703
    1SOL    HW3 9635   4.386   4.343   3.769  1.0944  1.3109 -0.1242
    1SOL    MW4 9636   4.316   4.386   3.738  0.0854  0.0401  0.3209
    1SOL     OW 9637   2.574   1.362   4.718 -0.0187  0.3536  0.1440
    1SOL    HW2 9638   2.644   1.424   4.740  0.2090  0.1882 -0.1180
    1SOL    HW3 9639   2.515   1.412   4.661  1.0156 -0.1562 -1.4050
    1SOL    MW4 9640   2.576   1.377   4.713  0.1478  0.2644 -0.0944
    1SOL     OW 9641   4.082   4.281   4.149 -0.1998 -0.1757  0.2573
    1SOL    HW2 9642   4.067   4.189   4.166 -0.6048 -0.3169 -0.8283
    1SOL    HW3 9643   3.999   4.324   4.168  0.1367  0.0472  1.2702
    1SOL    MW4 9644   4.069   4.275   4.153 -0.2084 -0.1650  0.2475
    1SOL     OW 9645   2.176   4.486   4.615  0.1513 -0.0507 -0.4427
    1SOL    HW2 9646   2.090   4.528   4.622 -0.8443 -2.2572  1.6070
    1SOL    HW3 9647   2.239   4.556   4.630 -1.3457  1.3459 -0.5500
    1SOL    MW4 9648   2.173   4.500   4.618 -0.1776 -0.1574 -0.1860
    1SOL     OW 9649   0.639   0.736   4.126  0.1842 -0.0227  0.5854
    1SOL    HW2 9650   0.725   0.779   4.128  0.2279 -0.1408  1.3678
    1SOL    HW3 9651   0.616   0.733   4.034  0.2646  1.5272  0.5027
    1SOL    MW4 9652   0.648   0.742   4.114  0.2006  0.1662  0.6776
    1SOL     OW 9653   4.261   0.766   4.186  0.0994  0.1394  0.1439
    1SOL    HW2 9654   4.244   0.774   4.092  0.7103  0.2051  0.0376
    1SOL    HW3 9655   4.347   0.805   4.198  0.4172 -0.6950  0.5939
    1SOL    MW4 9656   4.270   0.772   4.175  0.2217  0.0380  0.1898
    1SOL     OW 9657   2.010   2.115   4.325 -0.0478 -0.5062 -0.0036
    1SOL    HW2 9658   1.947   2.172   4.369 -0.7693  0.4742 -2.2141
    1SOL    HW3 9659   2.095   2.156   4.341 -0.2156 -0.5656  1.0653
    1SOL    MW4 9660   2.013   2.128   4.333 -0.1652 -0.3848 -0.1540
    1SOL     OW 9661   0.043   1.143   4.135  0.2427 -0.0034 -0.0322
    1SOL    HW2 9662  -0.022   1.177   4.197  0.1817 -2.5387  1.3963
    1SOL    HW3 9663   0.126   1.178   4.166 -0.2734  2.2623 -1.1384
    1SOL    MW4 9664   0.045   1.152   4.147  0.1666 -0.0389  0.0100
    1SOL     OW 9665   1.124   2.791   4.204 -0.3221  0.0774  0.0177
    1SOL    HW2 9666   1.142   2.885   4.209  2.5914 -0.3592 -1.1945
    1SOL    HW3 9667   1.139   2.759   4.293 -0.3734  0.6096  0.2190
    1SOL    MW4 9668   1.128   2.799   4.216  0.0556  0.0899 -0.1159
    1SOL     OW 9669   0.420   0.030   4.538 -0.3405  0.0361  0.5470
    1SOL    HW2 9670   0.483  -0.009   4.477  1.0319 -0.2450  2.1178
    1SOL    HW3 9671   0.341  -0.022   4.527  0.0219 -0.2660 -0.7078
    1SOL    MW4 9672   0.418   0.018   4.528 -0.1116 -0.0410  0.5894
    1SOL     OW 9673   3.267   3.483   4.615  0.0909  0.0315 -0.1405
    1SOL    HW2 9674   3.180   3.459   4.646  0.3978  0.3493  1.0294
    1SOL    HW3 9675   3.316   3.401   4.614 -0.1723 -0.1159 -0.6088
    1SOL    MW4 9676   3.262   3.469   4.619  0.0966  0.0539 -0.0482
    1SOL     OW 9677   0.667   3.732   4.641 -0.0637 -0.4078 -0.0350
    1SOL    HW2 9678   0.760   3.746   4.656 -0.0054 -0.6894 -0.1316
    1SOL    HW3 9679   0.626   3.816   4.663  0.0434 -0.7495  1.5329
    1SOL    MW4 9680   0.674   3.745   4.646 -0.0420 -0.4902  0.1593
    1SOL     OW 9681   1.333   4.010   4.251  0.5228 -0.2482  0.1193
    1SOL    HW2 9682   1.405   3.967   4.205  1.3613  1.2468 -0.0125
    1SOL    HW3 9683   1.362   4.015   4.342  0.3204 -0.1737  0.1808
    1SOL    MW4 9684   1.346   4.005   4.257  0.6068 -0.0410  0.1101
    1SOL     OW 9685   0.217   2.284   4.130 -0.1023  0.2715  0.2561
    1SOL    HW2 9686   0.218   2.223   4.203  1.5468  0.0901  0.1170
    1SOL    HW3 9687   0.295   2.338   4.144  0.6699 -0.2701 -1.7577
    1SOL    MW4 9688   0.228   2.283   4.141  0.2172  0.1762 -0.0277
    1SOL     OW 9689   1.131   4.399   4.281  0.2584 -0.3265  0.0753
    1SOL    HW2 9690   1.149   4.379   4.373  0.0071  0.8469  0.3784
    1SOL    HW3 9691   1.200   4.352   4.233  1.4537  0.4904  0.9676
    1SOL    MW4 9692   1.143   4.390   4.287  0.3830 -0.0639  0.2327
    1SOL     OW 9693   4.322   4.398   4.209 -0.3604 -0.2171 -0.3563
    1SOL    HW2 9694   4.313   4.484   4.169 -1.3560 -0.6057 -0.9907
    1SOL    HW3 9695   4.238   4.355   4.193  0.0267 -1.2038  0.1963
    1SOL    MW4 9696   4.309   4.403   4.202 -0.4406 -0.3982 -0.3667
    1SOL     OW 9697   0.238   1.845   4.519 -0.0825 -0.2716 -0.5327
    1SOL    HW2 9698   0.246   1.912   4.452 -0.6180 -0.7721 -1.1003
    1SOL    HW3 9699   0.163   1.871   4.572  0.5223  0.2832  0.0623
    1SOL    MW4 9700   0.229   1.857   4.518 -0.0734 -0.2644 -0.5288
    1SOL     OW 9701   0.199   2.778   4.234  0.0284 -0.0833  0.0702
    1SOL    HW2 9702   0.206   2.871   4.214  2.7600 -0.5895 -1.6760
    1SOL    HW3 9703   0.122   2.748   4.185 -1.0452  1.2915  0.8995
    1SOL    MW4 9704   0.190   2.786   4.225  0.2471  0.0312 -0.0505
    1SOL     OW 9705   2.377   1.296   4.343  0.0191  0.1840 -0.6167
    1SOL    HW2 9706   2.358   1.265   4.431 -0.1588  0.6837 -0.4727
    1SOL    HW3 9707   2.471   1.316   4.344  0.4993 -1.9809 -1.2335
    1SOL    MW4 9708   2.387   1.295   4.354  0.0589 -0.0358 -0.6790
    1SOL     OW 9709   4.235   3.100   4.187  0.1966  0.1047  0.1837
    1SOL    HW2 9710   4.318   3.138   4.216 -1.4596  2.7497  1.7221
    1SOL    HW3 9711   4.233   3.117   4.093  1.4837 -0.1682  0.0969
    1SOL    MW4 9712   4.246   3.107   4.178  0.1483  0.4179  0.3753
    1SOL     OW 9713   3.831   2.804   4.540 -0.6839 -0.1138 -0.1910
    1SOL    HW2 9714   3.832   2.837   4.450  0.7060 -0.7055 -0.4104
    1SOL    HW3 9715   3.765   2.734   4.539  0.5301 -1.2776 -1.2036
    1SOL    MW4 9716   3.822   2.799   4.528 -0.3402 -0.3452 -0.3533
    1SOL     OW 9717   2.353   0.897   4.533  0.3964  0.1759  0.1796
    1SOL    HW2 9718   2.324   0.883   4.443  0.5303  0.7827  0.0459
    1SOL    HW3 9719   2.324   0.818   4.579 -1.5401  0.7988  0.0620
    1SOL    MW4 9720   2.345   0.885   4.527  0.1588  0.3381  0.1464
    1SOL     OW 9721   1.423   1.867   4.643 -0.5120  0.1329  0.5143
    1SOL    HW2 9722   1.492   1.815   4.685  1.7458  0.6205 -2.4395
    1SOL    HW3 9723   1.449   1.958   4.657 -0.1204  0.3096 -1.2478
    1SOL    MW4 9724   1.435   1.872   4.650 -0.1626  0.2204 -0.1082
    1SOL     OW 9725   0.236   4.415   4.225  0.5575  0.3862 -0.0142
    1SOL    HW2 9726   0.217   4.437   4.316 -0.7779  1.1860 -0.4652
    1SOL    HW3 9727   0.164   4.358   4.199  0.7075  0.4977 -0.6845
    1SOL    MW4 9728   0.224   4.411   4.234  0.4011  0.5064 -0.1621
    1SOL     OW 9729   3.164   1.168   4.157  0.0563 -0.3398  0.1268
    1SOL    HW2 9730   3.155   1.154   4.063  0.2867 -0.6196  0.1418
    1SOL    HW3 9731   3.080   1.204   4.185  0.1012  0.0559 -0.2409
    1SOL    MW4 9732   3.152   1.171   4.148  0.0925 -0.3245  0.0806
    1SOL     OW 9733   0.922   1.078   4.554 -0.1136  0.0385 -0.1838
    1SOL    HW2 9734   0.874   0.995   4.559 -0.1791  0.0826 -0.0842
    1SOL    HW3 9735   1.007   1.054   4.518  0.0126 -0.1296  0.2265
    1SOL    MW4 9736   0.927   1.064   4.550 -0.1056  0.0222 -0.1168
    1SOL     OW 9737   0.522   0.028   4.140 -0.2700 -0.4678  0.3144
    1SOL    HW2 9738   0.518   0.124   4.140  0.6876 -0.4213  1.5214
    1SOL    HW3 9739   0.560   0.006   4.054 -1.0606  0.1956 -0.2169
    1SOL    MW4 9740   0.526   0.038   4.128 -0.2480 -0.3742  0.4029
    1SOL     OW 9741   0.478   0.301   4.124 -0.0108  0.3523  0.3376
    1SOL    HW2 9742   0.543   0.365   4.152 -0.3138 -0.0098  1.9419
    1SOL    HW3 9743   0.472   0.312   4.029  0.2635  2.3965  0.5307
    1SOL    MW4 9744   0.486   0.311   4.115 -0.0146  0.5742  0.5751
    1SOL     OW 9745   0.853   0.875   4.223  0.0876  0.2491 -0.0913
    1SOL    HW2 9746   0.872   0.968   4.208  2.3224 -0.2588 -0.6247
    1SOL    HW3 9747   0.820   0.872   4.313  0.8852  1.4593  0.2632
    1SOL    MW4 9748   0.851   0.887   4.233  0.4876  0.3418 -0.1149
    1SOL     OW 9749   4.270   0.769   4.585 -0.1137 -0.0556 -0.0851
    1SOL    HW2 9750   4.193   0.826   4.574 -0.6333 -0.4443  1.3556
    1SOL    HW3 9751   4.249   0.690   4.536 -1.2632 -0.7323  1.4559
    1SOL    MW4 9752   4.257   0.766   4.577 -0.3338 -0.1962  0.3085
    1SOL     OW 9753   2.947   1.906   4.548 -0.0122 -0.3397 -0.0200
    1SOL    HW2 9754   2.975   1.936   4.462  0.5956 -1.0926 -0.0939
    1SOL    HW3 9755   2.915   1.984   4.592 -0.6838 -0.0182 -1.0655
    1SOL    MW4 9756   2.947   1.920   4.542 -0.0205 -0.3967 -0.1678
    1SOL     OW 9757   0.692   1.564   4.154  0.4986  0.7656  0.2607
    1SOL    HW2 9758   0.698   1.482   4.203 -1.5050  0.8446  0.6899
    1SOL    HW3 9759   0.683   1.537   4.063 -1.1925  0.4623  0.5048
    1SOL    MW4 9760   0.691   1.550   4.149  0.0111  0.7360  0.3490
    1SOL     OW 9761   0.242   0.769   4.122  0.1735 -0.0918  0.2089
    1SOL    HW2 9762   0.262   0.682   4.156 -1.0137 -0.5139 -0.1376
    1SOL    HW3 9763   0.159   0.792   4.164  0.4668  0.8668  0.2799
    1SOL    MW4 9764   0.234   0.761   4.132  0.0556 -0.0210  0.1726
    1SOL     OW 9765   0.838   2.459   4.530  0.0928  0.3722 -0.0135
    1SOL    HW2 9766   0.867   2.442   4.440  1.0608  1.5583  0.0611
    1SOL    HW3 9767   0.877   2.389   4.582  1.4616  1.0039 -0.1752
    1SOL    MW4 9768   0.847   2.448   4.525  0.4011  0.6123 -0.0248
    1SOL     OW 9769   3.815   1.107   4.777  0.3370  0.1843  0.6222
    1SOL    HW2 9770   3.750   1.161   4.733 -0.3503 -0.5761  0.6961
    1SOL    HW3 9771   3.789   1.108   4.869 -0.2754 -1.0918  0.4757
    1SOL    MW4 9772   3.803   1.114   4.783  0.1655 -0.0843  0.6132
    1SOL     OW 9773   0.428   1.947   4.153  0.2226 -0.1461  0.6973
    1SOL    HW2 9774   0.518   1.975   4.167  0.2151  0.2103  0.0526
    1SOL    HW3 9775   0.421   1.937   4.058  0.2877 -2.5108  0.9147
    1SOL    MW4 9776   0.439   1.949   4.142  0.2302 -0.4112  0.6409
    1SOL     OW 9777   1.853   3.308   4.514 -0.2848 -0.0076 -0.1387
    1SOL    HW2 9778   1.863   3.227   4.563 -0.8087 -0.8979 -1.4979
    1SOL    HW3 9779   1.845   3.281   4.423  0.6667  1.6320 -0.7373
    1SOL    MW4 9780   1.853   3.294   4.509 -0.2284  0.0911 -0.3977
    1SOL     OW 9781   0.672   2.307   4.144 -0.3163 -0.3328  0.4371
    1SOL    HW2 9782   0.591   2.354   4.168 -1.1666 -1.7672  0.3976
    1SOL    HW3 9783   0.670   2.303   4.049  0.2697  0.4178  0.3840
    1SOL    MW4 9784   0.661   2.313   4.135 -0.3512 -0.4232  0.4253
    1SOL     OW 9785   1.722   3.866   4.837 -0.4248  0.1634 -0.2748
    1SOL    HW2 9786   1.697   3.952   4.805 -0.2226  0.7994  1.2152
    1SOL    HW3 9787   1.767   3.883   4.920 -0.4994 -1.3743  0.1072
    1SOL    MW4 9788   1.724   3.879   4.844 -0.4078  0.0443 -0.0281
    1SOL     OW 9789   0.685   2.845   4.218 -0.1184 -0.1057  0.0888
    1SOL    HW2 9790   0.759   2.786   4.202  0.7832  1.2144 -0.7431
    1SOL    HW3 9791   0.608   2.791   4.203  0.6948 -0.8786 -1.4482
    1SOL    MW4 9792   0.685   2.830   4.214  0.1078 -0.0331 -0.2236
    1SOL     OW 9793   1.604   2.807   4.232  0.0681  0.0647  0.4202
    1SOL    HW2 9794   1.609   2.839   4.322  1.4257  0.4482  0.2181
    1SOL    HW3 9795   1.689   2.765   4.217  0.5784  1.6455 -1.2921
    1SOL    MW4 9796   1.616   2.805   4.242  0.3147  0.3240  0.1678
    1SOL     OW 9797   0.675   3.116   4.160  0.5249 -0.4780 -0.2129
    1SOL    HW2 9798   0.694   3.024   4.178  0.4151 -0.3819  0.4155
    1SOL    HW3 9799   0.603   3.138   4.220 -1.8295 -0.9279 -2.7783
    1SOL    MW4 9800   0.668   3.107   4.170  0.1997 -0.5248 -0.4687
    1SOL     OW 9801   4.486   3.231   4.255 -0.1235  0.3280 -0.1625
    1SOL    HW2 9802   4.498   3.314   4.210 -0.6143  0.5262  0.0698
    1SOL    HW3 9803   4.497   3.252   4.348 -0.1347  0.1103 -0.1115
    1SOL    MW4 9804   4.489   3.245   4.262 -0.1898  0.3254 -0.1254
    1SOL     OW 9805   1.096   1.269   4.678 -0.1584 -0.1320 -0.0558
    1SOL    HW2 9806   1.163   1.213   4.719  1.0185  0.6136 -0.9218
    1SOL    HW3 9807   1.022   1.210   4.663  0.8161 -1.3027 -0.3518
    1SOL    MW4 9808   1.095   1.253   4.682  0.1254 -0.1882 -0.2098
    1SOL     OW 9809   3.643   3.719   4.548 -0.3002 -0.1305 -0.2214
    1SOL    HW2 9810   3.643   3.649   4.612 -0.3885  1.7677  1.9268
    1SOL    HW3 9811   3.735   3.727   4.521 -0.0963 -0.2761  0.4310
    1SOL    MW4 9812   3.655   3.711   4.553 -0.2847  0.1006  0.1473
    1SOL     OW 9813   0.654   3.574   4.295  0.1244 -0.1273  0.1839
    1SOL    HW2 9814   0.735   3.562   4.245 -0.7503 -0.4203 -1.1970
    1SOL    HW3 9815   0.651   3.668   4.313  1.2521 -0.2528  1.0881
    1SOL    MW4 9816   0.664   3.585   4.290  0.1577 -0.1826  0.1211
    1SOL     OW 9817   2.920   0.708   4.587  0.2201  0.3603 -0.4548
    1SOL    HW2 9818   2.836   0.751   4.569 -0.3623  0.1295  1.5613
    1SOL    HW3 9819   2.980   0.780   4.605  0.2810  0.5006 -1.2233
    1SOL    MW4 9820   2.917   0.723   4.587  0.1514  0.3483 -0.2899
    1SOL     OW 9821   0.262   0.704   4.626 -0.0246  0.2478  0.2585
    1SOL    HW2 9822   0.256   0.624   4.574 -0.9030 -0.2137  1.0363
    1SOL    HW3 9823   0.185   0.754   4.601 -0.0591  0.3505  0.5629
    1SOL    MW4 9824   0.251   0.700   4.616 -0.1450  0.2005  0.4010
    1SOL     OW 9825   0.172   4.537   4.492  0.0406  0.1873 -0.2606
    1SOL    HW2 9826   0.130   4.622   4.479 -2.7856 -1.0568  0.3455
    1SOL    HW3 9827   0.102   4.481   4.524  1.7076 -2.5679 -1.3160
    1SOL    MW4 9828   0.157   4.541   4.495 -0.1124 -0.3405 -0.3204
    1SOL     OW 9829   1.180   4.658   4.214 -0.1292 -0.1233 -0.1498
    1SOL    HW2 9830   1.150   4.568   4.232  1.4930 -0.5847  0.3482
    1SOL    HW3 9831   1.168   4.668   4.120 -0.1478 -0.9456 -0.2451
    1SOL    MW4 9832   1.174   4.647   4.204  0.0824 -0.2928 -0.0973
    1SOL     OW 9833   1.017   0.188   4.341 -0.1185  0.3708 -0.4381
    1SOL    HW2 9834   0.963   0.241   4.282 -0.7096  1.2058  0.8291
    1SOL    HW3 9835   1.050   0.117   4.286 -2.0149  0.1888 -1.3820
    1SOL    MW4 9836   1.014   0.186   4.326 -0.4467  0.4570 -0.3953
    1SOL     OW 9837   1.583   0.071   4.701  0.0422 -0.3571  0.4668
    1SOL    HW2 9838   1.604  -0.002   4.643  0.5113  0.0618  0.0989
    1SOL    HW3 9839   1.668   0.102   4.733 -0.1671 -0.1325  0.8196
    1SOL    MW4 9840   1.597   0.065   4.698  0.0764 -0.2721  0.4654
    1SOL     OW 9841   0.452   1.664   4.244  0.2985 -0.1980  0.2352
    1SOL    HW2 9842   0.541   1.648   4.212  0.6278 -0.0203  1.0705
    1SOL    HW3 9843   0.429   1.750   4.208 -0.2049 -1.0075 -1.4399
    1SOL    MW4 9844   0.461   1.673   4.235  0.2755 -0.2815  0.1245
    1SOL     OW 9845   1.093   0.749   4.130 -0.2569  0.0203  0.1120
    1SOL    HW2 9846   1.156   0.817   4.154 -0.6141  0.3844  0.0209
    1SOL    HW3 9847   1.010   0.779   4.168 -0.6471  0.1762 -0.8602
    1SOL    MW4 9848   1.090   0.762   4.139 -0.3556  0.0889 -0.0281
    1SOL     OW 9849   2.281   0.248   4.451  0.0523 -0.2461 -0.0507
    1SOL    HW2 9850   2.198   0.233   4.496  1.1381  0.0132  2.0965
    1SOL    HW3 9851   2.318   0.326   4.493  0.8426  0.3442 -1.7790
    1SOL    MW4 9852   2.275   0.257   4.462  0.2999 -0.1340  0.0043
    1SOL     OW 9853   0.934   1.124   4.127 -0.6980  0.1093 -0.0504
    1SOL    HW2 9854   0.868   1.188   4.152 -0.5849 -0.4035  1.6062
    1SOL    HW3 9855   1.017   1.171   4.136 -0.7847  0.6161 -1.6995
    1SOL    MW4 9856   0.936   1.139   4.132 -0.6945  0.1085 -0.0491
    1SOL     OW 9857   0.102   1.595   4.463  0.2615 -0.2576 -0.3487
    1SOL    HW2 9858   0.155   1.516   4.453 -0.7750 -0.8879 -0.9368
    1SOL    HW3 9859   0.165   1.665   4.481  1.1942 -1.1913  0.0361
    1SOL    MW4 9860   0.117   1.594   4.464  0.2478 -0.4641 -0.3757
    1SOL     OW 9861   3.923   3.774   4.449  0.1776 -0.0908 -0.7184
    1SOL    HW2 9862   3.977   3.705   4.488  0.4239  0.8388  0.6437
    1SOL    HW3 9863   3.890   3.736   4.368  3.2833 -0.5351 -1.8775
    1SOL    MW4 9864   3.926   3.760   4.444  0.6199 -0.0269 -0.6919
    1SOL     OW 9865   1.162   3.916   4.572  0.3405  0.0596  0.2395
    1SOL    HW2 9866   1.178   3.822   4.572  0.3520  0.0245 -2.0940
    1SOL    HW3 9867   1.245   3.954   4.544 -0.0429  0.6844 -0.0593
    1SOL    MW4 9868   1.175   3.909   4.568  0.2913  0.1378 -0.1078
    1SOL     OW 9869   0.634   1.978   4.506  0.0869 -0.0609 -0.1522
    1SOL    HW2 9870   0.598   1.891   4.490 -0.1709 -0.1054  0.6436
    1SOL    HW3 9871   0.646   2.016   4.419  0.6575 -1.0714 -0.5206
    1SOL    MW4 9872   0.631   1.972   4.493  0.1282 -0.2002 -0.0958
    1SOL     OW 9873   0.894   1.955   4.117 -0.3603 -0.5729 -0.2755
    1SOL    HW2 9874   0.984   1.977   4.140 -0.6850 -0.3325  0.7896
    1SOL    HW3 9875   0.897   1.933   4.024  0.6709  0.1288 -0.4040
    1SOL    MW4 9876   0.906   1.955   4.108 -0.2671 -0.4487 -0.1521
    1SOL     OW 9877   2.573   2.119   4.254  0.2045  0.1928 -0.1197
    1SOL    HW2 9878   2.489   2.073   4.260  0.6474 -0.3337  2.7159
    1SOL    HW3 9879   2.571   2.182   4.325  2.2535  0.0843  0.0543
    1SOL    MW4 9880   2.562   2.121   4.264  0.5331  0.1092  0.2780
    1SOL     OW 9881   0.285   3.928   4.551  0.4360  0.0040 -0.2536
    1SOL    HW2 9882   0.316   3.966   4.469  1.1370  2.0793  0.9278
    1SOL    HW3 9883   0.202   3.972   4.568  0.5392 -0.0518  0.3973
    1SOL    MW4 9884   0.278   3.939   4.543  0.5421  0.2706 -0.0124
    1SOL     OW 9885   0.895   2.677   4.143 -0.2576 -0.5009 -0.1149
    1SOL    HW2 9886   0.891   2.591   4.186  1.1996 -0.5628 -0.0750
    1SOL    HW3 9887   0.972   2.719   4.182 -0.0318  0.1894 -1.2992
    1SOL    MW4 9888   0.905   2.671   4.154 -0.0355 -0.4179 -0.2661
    1SOL     OW 9889   0.972   4.108   4.533 -0.2846  0.0736  0.1809
    1SOL    HW2 9890   1.031   4.042   4.568  0.9200  0.4734 -1.0521
    1SOL    HW3 9891   0.941   4.070   4.450 -0.0277  0.7902 -0.2535
    1SOL    MW4 9892   0.976   4.094   4.526 -0.0917  0.2213 -0.0391
    1SOL     OW 9893   1.159   3.061   4.141 -0.3696  0.0211 -0.1294
    1SOL    HW2 9894   1.152   3.069   4.046 -0.9288 -1.7051 -0.2661
    1SOL    HW3 9895   1.081   3.106   4.175  0.5595  1.8623 -0.3952
    1SOL    MW4 9896   1.148   3.068   4.133 -0.3207  0.0365 -0.1817
    1SOL     OW 9897   3.628   0.144   4.242 -0.0267  0.1091  0.0829
    1SOL    HW2 9898   3.700   0.094   4.203 -0.6279 -0.7877  0.0823
    1SOL    HW3 9899   3.626   0.226   4.193  1.7214  0.6214  0.8526
    1SOL    MW4 9900   3.637   0.148   4.230  0.1247  0.0584  0.1845
    1SOL     OW 9901   0.180   3.549   4.279  0.1312 -0.4494  0.2686
    1SOL    HW2 9902   0.191   3.639   4.247  0.4113 -0.6659 -0.2419
    1SOL    HW3 9903   0.254   3.501   4.243 -0.1407 -0.9408  0.3569
    1SOL    MW4 9904   0.191   3.555   4.270  0.1323 -0.5429  0.2122
    1SOL     OW 9905   4.053   2.711   4.149 -0.2785  0.4713 -0.1601
    1SOL    HW2 9906   4.042   2.617   4.161 -0.8829  0.4390 -0.9005
    1SOL    HW3 9907   3.975   2.749   4.190 -0.2524  0.6246 -0.2526
    1SOL    MW4 9908   4.041   2.704   4.156 -0.3548  0.4873 -0.2694
    1SOL     OW 9909   2.084   2.869   4.206 -0.0336 -0.3777 -0.2505
    1SOL    HW2 9910   2.003   2.817   4.205  0.3468 -1.0029  0.8136
    1SOL    HW3 9911   2.148   2.813   4.162 -0.1697  0.1274 -1.1143
    1SOL    MW4 9912   2.081   2.854   4.200 -0.0014 -0.3934 -0.2241
    1SOL     OW 9913   0.428   3.247   4.258  0.4171 -0.1585  0.3247
    1SOL    HW2 9914   0.424   3.331   4.212  0.7954 -0.4822 -0.3043
    1SOL    HW3 9915   0.454   3.270   4.347  0.7149  0.3811  0.1046
    1SOL    MW4 9916   0.431   3.261   4.264  0.5063 -0.1299  0.2122
    1SOL     OW 9917   0.908   4.267   4.161  0.3187 -0.0550  0.0055
    1SOL    HW2 9918   0.837   4.299   4.216 -0.2857 -0.5502 -0.4804
    1SOL    HW3 9919   0.986   4.312   4.195 -0.0049 -0.4950  1.3931
    1SOL    MW4 9920   0.909   4.277   4.173  0.1963 -0.1779  0.1240
    1SOL     OW 9921   0.714   4.378   4.772  0.2378 -0.1222 -0.3003
    1SOL    HW2 9922   0.686   4.377   4.864  1.0434 -0.1405 -0.0517
    1SOL    HW3 9923   0.681   4.461   4.738  0.0591 -0.0505  0.0510
    1SOL    MW4 9924   0.706   4.389   4.780  0.3205 -0.1149 -0.2213
    1SOL     OW 9925   2.689   3.997   4.248  0.0653  0.2507 -0.1634
    1SOL    HW2 9926   2.692   3.950   4.331 -0.0233  2.3339  1.0738
    1SOL    HW3 9927   2.611   3.964   4.204  0.1075 -0.8797  0.5968
    1SOL    MW4 9928   2.679   3.987   4.253  0.0594  0.3765  0.1001
    1SOL     OW 9929   1.394   0.148   4.301 -0.0415  0.0353  0.4860
    1SOL    HW2 9930   1.365   0.164   4.391 -0.2182 -2.9747  1.0240
    1SOL    HW3 9931   1.329   0.087   4.266 -0.0774  1.3307 -1.7657
    1SOL    MW4 9932   1.382   0.142   4.308 -0.0696 -0.1909  0.2604
    1SOL     OW 9933   1.330   0.380   4.163  0.4101 -0.0391  0.4856
    1SOL    HW2 9934   1.255   0.426   4.201  0.4613  1.1311 -0.7733
    1SOL    HW3 9935   1.339   0.301   4.215 -1.2551  0.1656  1.1055
    1SOL    MW4 9936   1.321   0.376   4.175  0.1971  0.1423  0.4015
    1SOL     OW 9937   1.631   3.496   4.489  0.1719 -0.0048 -0.1736
    1SOL    HW2 9938   1.703   3.432   4.489  0.7435  0.6340  0.3842
    1SOL    HW3 9939   1.672   3.578   4.517 -0.7757  0.3661  0.1248
    1SOL    MW4 9940   1.646   3.498   4.492  0.1223  0.1285 -0.0610
    1SOL     OW 9941   2.584   2.106   4.628 -0.3385 -0.3667 -0.2930
    1SOL    HW2 9942   2.500   2.131   4.667 -0.0065 -1.2646  1.0319
    1SOL    HW3 9943   2.572   2.014   4.603  0.4806 -0.7284  0.5963
    1SOL    MW4 9944   2.571   2.097   4.630 -0.1864 -0.5329 -0.0005
    1SOL     OW 9945   1.686   4.133   4.733  0.0366  0.2724  0.0857
    1SOL    HW2 9946   1.601   4.169   4.710  0.3329  0.0888 -1.3640
    1SOL    HW3 9947   1.746   4.208   4.731  0.1445  0.1809 -0.1934
    1SOL    MW4 9948   1.683   4.148   4.730  0.0899  0.2365 -0.1416
    1SOL     OW 9949   0.930   3.208   4.215  0.3794 -0.2633  0.1738
    1SOL    HW2 9950   0.927   3.233   4.307  0.9239  0.3748  0.0206
    1SOL    HW3 9951   0.848   3.161   4.200  0.7675 -1.2963  1.2479
    1SOL    MW4 9952   0.919   3.205   4.225  0.5024 -0.3154  0.2956
    1SOL     OW 9953   1.351   1.148   4.102  0.1900  0.2025  0.1875
    1SOL    HW2 9954   1.436   1.169   4.141 -0.3833  2.3214  0.3898
    1SOL    HW3 9955   1.370   1.130   4.010  0.9901 -0.3282  0.4597
    1SOL    MW4 9956   1.364   1.149   4.095  0.2198  0.4121  0.2503
    1SOL     OW 9957   3.251   2.508   4.510  0.4344  0.0035 -0.1202
    1SOL    HW2 9958   3.252   2.603   4.511 -0.2399  0.0240 -0.5792
    1SOL    HW3 9959   3.187   2.485   4.442 -0.2466 -0.7674  0.7610
    1SOL    MW4 9960   3.243   2.517   4.501  0.2558 -0.0956 -0.0648
    1SOL     OW 9961   3.359   4.120   4.601  0.2739 -0.2200  0.0462
    1SOL    HW2 9962   3.398   4.187   4.657 -0.8090 -1.3503  2.2224
    1SOL    HW3 9963   3.431   4.061   4.579  0.4792 -0.3940  1.1883
    1SOL    MW4 9964   3.373   4.121   4.605  0.1578 -0.3920  0.4835
    1SOL     OW 9965   3.353   3.693   4.474 -0.1505 -0.0211  0.0864
    1SOL    HW2 9966   3.331   3.625   4.538 -1.0423 -0.6131 -0.8332
    1SOL    HW3 9967   3.449   3.699   4.477 -0.2064  0.1939  1.7133
    1SOL    MW4 9968   3.363   3.684   4.483 -0.2756 -0.0706  0.1802
    1SOL     OW 9969   1.392   0.224   4.569 -0.2295  0.1374  0.2770
    1SOL    HW2 9970   1.298   0.219   4.584 -0.4920 -0.8672 -1.5680
    1SOL    HW3 9971   1.429   0.156   4.625 -0.6250  0.3503  0.8026
    1SOL    MW4 9972   1.384   0.215   4.578 -0.3163  0.0330  0.1030
    1SOL     OW 9973   2.409   0.483   4.529 -0.1072  0.1903 -0.1172
    1SOL    HW2 9974   2.409   0.509   4.437  1.1659  1.0327  0.1105
    1SOL    HW3 9975   2.501   0.485   4.555 -0.4390 -0.1762  1.1344
    1SOL    MW4 9976   2.421   0.487   4.520  0.0172  0.2531  0.0782
    1SOL     OW 9977   1.829   2.677   3.883 -0.3764  0.1439  0.0503
    1SOL    HW2 9978   1.749   2.725   3.859  0.6798  1.3080 -1.2271
    1SOL    HW3 9979   1.805   2.585   3.873 -1.4962  0.4926 -0.5553
    1SOL    MW4 9980   1.815   2.671   3.878 -0.3849  0.3436 -0.1981
    1SOL     OW 9981   3.124   3.845   4.470  0.0118 -0.7236 -0.6011
    1SOL    HW2 9982   3.124   3.880   4.559  0.8971  0.6086 -1.1051
    1SOL    HW3 9983   3.207   3.796   4.464 -0.6038 -1.8102 -0.3206
    1SOL    MW4 9984   3.135   3.843   4.481  0.0472 -0.6912 -0.6309
    1SOL     OW 9985   1.154   2.027   4.174 -0.7859 -0.5345 -0.3780
    1SOL    HW2 9986   1.235   1.984   4.149 -0.7678  0.0448 -1.3398
    1SOL    HW3 9987   1.150   2.017   4.269 -0.4745 -2.0950 -0.5145
    1SOL    MW4 9988   1.164   2.020   4.183 -0.7426 -0.6642 -0.5226
    1SOL     OW 9989   3.585   4.019   4.228 -0.0952 -0.3263 -0.1921
    1SOL    HW2 9990   3.664   3.988   4.184  0.0357 -0.1292 -0.0952
    1SOL    HW3 9991   3.521   3.950   4.213  0.6949 -1.4628  1.4816
    1SOL    MW4 9992   3.587   4.006   4.220  0.0262 -0.4501  0.0415
    1SOL     OW 9993   3.087   0.498   4.512  0.2893  0.1838  0.3234
    1SOL    HW2 9994   3.161   0.554   4.490 -0.3135  0.9951  0.3547
    1SOL    HW3 9995   3.024   0.556   4.553 -0.6086 -0.3972 -0.2109
    1SOL    MW4 9996   3.089   0.513   4.515  0.0913  0.2142  0.2565
    1SOL     OW 9997   3.290   4.341   4.439  0.3695  0.0223  0.4010
    1SOL    HW2 9998   3.325   4.263   4.482 -1.4397 -1.4737 -0.7320
    1SOL    HW3 9999   3.195   4.327   4.438  0.0752  1.9142 -0.4643
    1SOL    MW410000   3.282   4.328   4.444  0.0920  0.0744  0.1378
    1SOL     OW10001   1.832   0.132   4.266 -0.2219 -0.1028 -0.2510
    1SOL    HW210002   1.893   0.061   4.247  1.1715  1.6117 -2.4554
    1SOL    HW310003   1.748   0.101   4.233 -0.0168 -1.4604  0.4706
    1SOL    MW410004   1.829   0.119   4.259 -0.0111 -0.0557 -0.4463
    1SOL     OW10005   0.878   4.025   4.286 -0.1813 -0.3810 -0.1175
    1SOL    HW210006   0.887   4.115   4.254  0.6870 -0.0428  1.0431
    1SOL    HW310007   0.957   3.981   4.257  0.7651  0.0140  1.7793
    1SOL    MW410008   0.889   4.031   4.278  0.0582 -0.2842  0.2861
    1SOL     OW10009   0.652   3.865   4.362  0.0480  0.1090  0.1125
    1SOL    HW210010   0.691   3.837   4.445  0.1085 -0.1178  0.0090
    1SOL    HW310011   0.720   3.918   4.320  1.0310 -2.0056 -1.0047
    1SOL    MW410012   0.666   3.869   4.367  0.1857 -0.1996 -0.0482
    1SOL     OW10013   1.570   0.500   4.253 -0.3073 -0.6072 -0.3228
    1SOL    HW210014   1.484   0.464   4.232 -0.4398 -1.3846  1.4828
    1SOL    HW310015   1.559   0.595   4.248 -1.4696 -0.6859  0.6700
    1SOL    MW410016   1.557   0.507   4.249 -0.4781 -0.7201  0.0467
    1SOL     OW10017   2.404   0.009   4.593 -0.1641 -0.3480  0.1687
    1SOL    HW210018   2.429  -0.052   4.524  1.6165 -1.2805  1.5814
    1SOL    HW310019   2.376   0.088   4.547  1.2202 -0.8578 -1.6182
    1SOL    MW410020   2.404   0.011   4.578  0.2534 -0.5383  0.1192
    1SOL     OW10021   2.020   4.609   4.172  0.1862 -0.4420 -0.1171
    1SOL    HW210022   2.103   4.654   4.189 -0.6648  1.1261 -0.0574
    1SOL    HW310023   2.016   4.603   4.076 -0.8136  1.7913 -0.2491
    1SOL    MW410024   2.030   4.614   4.162 -0.0582  0.0596 -0.1264
    1SOL     OW10025   2.024   0.526   4.319 -0.3484 -0.1067 -0.3559
    1SOL    HW210026   1.956   0.466   4.289 -0.7366  0.4478 -0.6073
    1SOL    HW310027   2.104   0.494   4.278 -1.0056  1.1362 -2.7357
    1SOL    MW410028   2.026   0.514   4.310 -0.4864  0.1304 -0.7029
    1SOL     OW10029   1.597   0.045   4.169 -0.4716  0.5582 -0.1275
    1SOL    HW210030   1.526   0.093   4.211 -0.9128  0.2330 -0.5069
    1SOL    HW310031   1.589  -0.044   4.202 -0.3439  0.4828 -0.2982
    1SOL    MW410032   1.587   0.040   4.179 -0.5128  0.5054 -0.1998
    1SOL     OW10033   1.074   0.498   4.543 -0.1514  0.2332  0.0596
    1SOL    HW210034   0.990   0.526   4.580 -0.5906  0.0184 -0.7562
    1SOL    HW310035   1.086   0.409   4.577 -0.6247 -0.0191 -0.4163
    1SOL    MW410036   1.064   0.490   4.553 -0.2717  0.1715 -0.1101
    1SOL     OW10037   3.798   0.771   4.170 -0.0309 -0.3915 -0.2838
    1SOL    HW210038   3.708   0.803   4.179 -0.0766 -0.4705 -0.4523
    1SOL    HW310039   3.814   0.771   4.075  0.5701  0.7993 -0.2000
    1SOL    MW410040   3.788   0.776   4.158  0.0422 -0.2448 -0.2952
    1SOL     OW10041   3.873   0.194   4.572 -0.1029  0.2998 -0.0830
    1SOL    HW210042   3.928   0.120   4.547 -0.7362  0.0048 -0.5861
    1SOL    HW310043   3.921   0.271   4.540 -0.3830 -0.0042 -1.2517
    1SOL    MW410044   3.887   0.194   4.565 -0.2236  0.2208 -0.3033
    1SOL     OW10045   0.477   1.414   4.554  0.2472 -0.1824 -0.4173
    1SOL    HW210046   0.565   1.375   4.552  0.0231 -0.6089 -2.8886
    1SOL    HW310047   0.494   1.508   4.560  0.8650 -0.2960 -0.2742
    1SOL    MW410048   0.491   1.421   4.555  0.2991 -0.2536 -0.7243
    1SOL     OW10049   1.636   1.919   4.433 -0.6306  0.6244  0.2812
    1SOL    HW210050   1.592   1.833   4.434 -0.7377  0.6763 -0.0196
    1SOL    HW310051   1.609   1.960   4.515 -0.0641  0.1089  0.7268
    1SOL    MW410052   1.627   1.913   4.444 -0.5702  0.5633  0.3004
    1SOL     OW10053   1.792   1.464   4.789  0.0418  0.5967 -0.0904
    1SOL    HW210054   1.828   1.449   4.876  0.3176  0.6861 -0.1857
    1SOL    HW310055   1.739   1.387   4.771  0.9111  0.0476 -0.3102
    1SOL    MW410056   1.790   1.452   4.798  0.1930  0.5360 -0.1321
    1SOL     OW10057   1.588   1.267   4.204  0.2818 -0.3550 -0.1416
    1SOL    HW210058   1.609   1.349   4.160 -0.1331 -0.3570 -0.3464
    1SOL    HW310059   1.665   1.212   4.190  0.4598 -0.0881 -0.2168
    1SOL    MW410060   1.601   1.271   4.196  0.2505 -0.3201 -0.1788
    1SOL     OW10061   1.163   1.566   4.106  0.1011 -0.2038 -0.0608
    1SOL    HW210062   1.146   1.476   4.135  1.9956  0.0304  1.9368
    1SOL    HW310063   1.092   1.617   4.146 -1.2804 -0.8599 -1.6335
    1SOL    MW410064   1.151   1.561   4.115  0.1688 -0.2594 -0.0043
    1SOL     OW10065   0.532   2.422   4.499 -0.2422  0.2248  0.5308
    1SOL    HW210066   0.619   2.455   4.525 -0.4797  0.1834  1.4039
    1SOL    HW310067   0.516   2.349   4.559  0.1570 -1.3290 -1.2133
    1SOL    MW410068   0.541   2.417   4.510 -0.2208  0.0143  0.4158
    1SOL     OW10069   3.584   2.711   4.146  0.4063 -0.0126 -0.0474
    1SOL    HW210070   3.597   2.718   4.052 -0.6864  1.8888 -0.0764
    1SOL    HW310071   3.499   2.751   4.162  0.2570 -0.9615  1.6674
    1SOL    MW410072   3.575   2.717   4.136  0.2425  0.1130  0.1750
    1SOL     OW10073   3.514   1.509   4.529  0.1951 -0.4341  0.3333
    1SOL    HW210074   3.546   1.598   4.547  0.6512 -0.6112  0.4132
    1SOL    HW310075   3.423   1.521   4.503  0.7839  0.2653 -1.5239
    1SOL    MW410076   3.506   1.523   4.528  0.3331 -0.3653  0.0987
    1SOL     OW10077   2.275   2.675   4.122 -0.2626 -0.0661 -0.4225
    1SOL    HW210078   2.270   2.670   4.026  2.6526 -0.2353 -0.5908
    1SOL    HW310079   2.274   2.583   4.150  0.0358 -0.0465 -0.3516
    1SOL    MW410080   2.274   2.662   4.113  0.1614 -0.0858 -0.4349
    1SOL     OW10081   2.004   1.229   4.243 -0.2715 -0.0036  0.1740
    1SOL    HW210082   2.021   1.318   4.213 -1.1241  0.0271 -0.2463
    1SOL    HW310083   2.003   1.235   4.339 -2.2179  0.8227  0.1322
    1SOL    MW410084   2.006   1.242   4.252 -0.6406  0.1093  0.1125
    1SOL     OW10085   2.731   1.908   4.153 -0.0989  0.5618 -0.3723
    1SOL    HW210086   2.699   1.990   4.192 -0.4758 -0.0073  0.5279
    1SOL    HW310087   2.658   1.847   4.162 -0.4708  0.6029 -2.6423
    1SOL    MW410088   2.717   1.911   4.159 -0.1976  0.4922 -0.5536
    1SOL     OW10089   1.369   2.687   4.103 -0.0775  0.3252  0.6726
    1SOL    HW210090   1.287   2.726   4.134 -0.2422  1.0517 -0.6456
    1SOL    HW310091   1.437   2.730   4.154 -0.5282 -0.4663  1.9577
    1SOL    MW410092   1.367   2.698   4.114 -0.1585  0.3166  0.6676
    1SOL     OW10093   2.036   3.569   4.219 -0.1594  0.2307  0.2802
    1SOL    HW210094   1.952   3.526   4.203  0.3664 -0.4309 -0.7633
    1SOL    HW310095   2.020   3.661   4.201 -0.4338 -0.0258 -0.8147
    1SOL    MW410096   2.023   3.576   4.215 -0.1261  0.1094 -0.0014
    1SOL     OW10097   0.875   1.990   4.645 -0.0109  0.0013  0.2707
    1SOL    HW210098   0.784   1.990   4.615  0.1113 -1.9357 -0.1585
    1SOL    HW310099   0.882   1.913   4.701  1.8592 -0.9822 -1.2728
    1SOL    MW410100   0.864   1.980   4.649  0.2519 -0.3841  0.0100
    1SOL     OW10101   2.019   3.833   4.155  0.1965 -0.1185 -0.0169
    1SOL    HW210102   2.020   3.844   4.060 -1.6124 -1.0197 -0.1638
    1SOL    HW310103   1.941   3.880   4.184 -0.9332 -2.3708  0.6784
    1SOL    MW410104   2.009   3.841   4.147 -0.1910 -0.5348  0.0553
    1SOL     OW10105   1.354   4.280   4.155  0.0566 -0.2458 -0.2198
    1SOL    HW210106   1.355   4.272   4.060 -1.8130  1.1735 -0.3950
    1SOL    HW310107   1.337   4.191   4.187  0.5505 -0.6998 -1.2234
    1SOL    MW410108   1.352   4.267   4.147 -0.1248 -0.1178 -0.3753
    1SOL     OW10109   1.547   3.849   4.138  0.0239  0.4643  0.4495
    1SOL    HW210110   1.545   3.760   4.175 -0.5487 -0.2012 -1.1213
    1SOL    HW310111   1.629   3.886   4.169  0.7571 -0.9952  0.2850
    1SOL    MW410112   1.557   3.842   4.147  0.0451  0.1841  0.2203
    1SOL     OW10113   2.516   2.773   4.219  0.1915 -0.0821  0.1221
    1SOL    HW210114   2.532   2.861   4.183 -2.1493  0.5338  0.5622
    1SOL    HW310115   2.428   2.751   4.192  0.8835 -2.4925 -0.2904
    1SOL    MW410116   2.507   2.782   4.211 -0.0257 -0.3185  0.1259
    1SOL     OW10117   2.518   0.020   4.156  0.5069 -0.0822 -0.3890
    1SOL    HW210118   2.533  -0.065   4.198 -0.2090  0.4912  1.0601
    1SOL    HW310119   2.578   0.079   4.200 -1.1296  0.7873  0.7163
    1SOL    MW410120   2.528   0.016   4.168  0.1965  0.1081 -0.0520
    1SOL     OW10121   4.055   1.902   4.504  0.1101  0.5157  0.1801
    1SOL    HW210122   3.967   1.934   4.526 -0.6092 -0.8425 -0.7095
    1SOL    HW310123   4.048   1.807   4.511  0.7519  0.2394 -2.7047
    1SOL    MW410124   4.042   1.894   4.508  0.0997  0.3000 -0.3176
    1SOL     OW10125   1.844   0.140   4.784 -0.2420  0.8042  0.1954
    1SOL    HW210126   1.806   0.177   4.864  1.0454 -0.5168  1.4597
    1SOL    HW310127   1.878   0.215   4.736 -0.8612  1.5945  0.9770
    1SOL    MW410128   1.843   0.155   4.788 -0.1540  0.7342  0.4654
    1SOL     OW10129   2.489   0.780   4.160  0.2561 -0.3940 -0.3789
    1SOL    HW210130   2.459   0.783   4.070  1.2837  0.1450 -0.7071
    1SOL    HW310131   2.578   0.816   4.158  0.1825 -0.0898  0.8848
    1SOL    MW410132   2.497   0.785   4.148  0.3819 -0.2828 -0.2556
    1SOL     OW10133   3.847   3.232   4.720  0.1111 -0.1866 -0.0473
    1SOL    HW210134   3.843   3.274   4.806  1.1735 -1.5270  0.6617
    1SOL    HW310135   3.935   3.249   4.688  0.2542 -1.0867 -0.1542
    1SOL    MW410136   3.858   3.240   4.727  0.2701 -0.4823  0.0315
    1SOL     OW10137   2.034   0.738   4.162 -0.2121  0.2619 -0.1664
    1SOL    HW210138   2.105   0.788   4.202  0.6154  0.6473 -2.0331
    1SOL    HW310139   2.025   0.660   4.215  1.4188  0.3618  0.2518
    1SOL    MW410140   2.042   0.734   4.174  0.1123  0.3259 -0.3576
    1SOL     OW10141   0.433   2.426   4.244 -0.2723  0.2611 -0.4138
    1SOL    HW210142   0.464   2.427   4.334  1.7213 -0.9211 -1.0471
    1SOL    HW310143   0.445   2.516   4.213 -0.7470  0.6143  0.4115
    1SOL    MW410144   0.439   2.438   4.251 -0.0719  0.1519 -0.3886
    1SOL     OW10145   0.282   1.283   4.197 -0.0783  0.4495  0.0044
    1SOL    HW210146   0.286   1.366   4.148  1.7020 -0.7281 -1.9556
    1SOL    HW310147   0.364   1.239   4.174 -1.5645 -2.3962  0.0165
    1SOL    MW410148   0.293   1.288   4.187 -0.0395 -0.0813 -0.2527
    1SOL     OW10149   2.942   1.302   4.263 -0.2955  0.5820 -0.2358
    1SOL    HW210150   2.946   1.272   4.354 -0.6310  0.8491 -0.1306
    1SOL    HW310151   2.863   1.261   4.228 -0.1554  0.4637 -0.4132
    1SOL    MW410152   2.932   1.293   4.270 -0.3211  0.6016 -0.2456
    1SOL     OW10153   3.065   2.755   4.134 -0.1360  0.1244  0.1610
    1SOL    HW210154   3.020   2.839   4.140 -1.1458 -0.3213 -1.1388
    1SOL    HW310155   3.006   2.693   4.177 -0.3076 -0.2840 -0.6697
    1SOL    MW410156   3.052   2.758   4.141 -0.2918  0.0119 -0.1197
    1SOL     OW10157   0.456   4.255   4.181  0.0621  0.1094 -0.1369
    1SOL    HW210158   0.469   4.245   4.087  0.2718  0.7539 -0.1764
    1SOL    HW310159   0.376   4.307   4.189  0.9188  1.4020  0.0233
    1SOL    MW410160   0.447   4.260   4.170  0.2028  0.3657 -0.1211
    1SOL     OW10161   1.120   1.995   4.468 -0.0112  0.1315  0.5219
    1SOL    HW210162   1.036   1.995   4.514 -0.0671  0.5397  0.4225
    1SOL    HW310163   1.170   2.065   4.511  0.3802 -0.3051  0.7724
    1SOL    MW410164   1.115   2.005   4.480  0.0330  0.1278  0.5422
    1SOL     OW10165   2.473   1.840   4.516  0.3345 -0.2739 -0.1735
    1SOL    HW210166   2.539   1.773   4.531 -0.0110 -0.9043 -1.3463
    1SOL    HW310167   2.390   1.797   4.535  0.1381 -0.0482 -0.5075
    1SOL    MW410168   2.471   1.826   4.520  0.2632 -0.3273 -0.3719
    1SOL     OW10169   3.129   1.701   4.270 -0.3977 -0.2048 -0.4379
    1SOL    HW210170   3.059   1.646   4.235 -0.4063 -1.6740  1.7944
    1SOL    HW310171   3.092   1.789   4.269 -0.6266 -0.2787 -3.4304
    1SOL    MW410172   3.115   1.705   4.265 -0.4292 -0.4083 -0.5383
    1SOL     OW10173   2.628   2.304   4.451  0.0062 -0.1135 -0.3533
    1SOL    HW210174   2.603   2.245   4.522  0.7086 -0.5747 -0.4820
    1SOL    HW310175   2.556   2.367   4.445  0.2391  0.3200  1.1932
    1SOL    MW410176   2.615   2.305   4.460  0.1297 -0.1171 -0.1664
    1SOL     OW10177   0.022   2.453   4.273 -0.3536  0.8078 -0.0392
    1SOL    HW210178   0.068   2.477   4.354  1.6749  1.3436 -1.3384
    1SOL    HW310179   0.083   2.395   4.227 -1.9941 -0.4686 -0.6394
    1SOL    MW410180   0.036   2.448   4.278 -0.3024  0.7100 -0.2894
    1SOL     OW10181   4.004   3.217   4.285 -0.0810  0.1579  0.2266
    1SOL    HW210182   4.081   3.160   4.284 -0.6244 -0.5788 -0.2164
    1SOL    HW310183   4.030   3.292   4.232 -0.5032 -1.2180 -1.9898
    1SOL    MW410184   4.018   3.219   4.278 -0.2084 -0.1206 -0.1235
    1SOL     OW10185   1.864   2.716   4.154  0.0329 -0.2664 -0.4309
    1SOL    HW210186   1.887   2.626   4.177 -0.6777 -0.4747 -0.4889
    1SOL    HW310187   1.848   2.712   4.059  0.4330  0.0151 -0.5084
    1SOL    MW410188   1.865   2.704   4.144 -0.0080 -0.2570 -0.4487
    1SOL     OW10189   0.800   3.021   4.649  0.2897 -0.0773 -0.3176
    1SOL    HW210190   0.726   2.987   4.598  0.6468 -0.2096 -0.7508
    1SOL    HW310191   0.865   2.951   4.646  0.7982  0.4092 -0.7223
    1SOL    MW410192   0.799   3.007   4.642  0.4038 -0.0305 -0.4282
    1SOL     OW10193   4.305   3.685   4.550 -0.9807  0.5944  0.3503
    1SOL    HW210194   4.310   3.772   4.591 -0.1943  0.3606  0.7721
    1SOL    HW310195   4.392   3.648   4.564 -2.1257 -1.3654  2.6062
    1SOL    MW410196   4.317   3.692   4.557 -1.0281  0.3049  0.7038
    1SOL     OW10197   2.617   3.032   4.586  0.0721 -0.0114 -0.4427
    1SOL    HW210198   2.521   3.027   4.581 -0.0373  0.4939  0.8672
    1SOL    HW310199   2.640   2.969   4.654  0.7529 -0.8206 -1.4224
    1SOL    MW410200   2.607   3.023   4.594  0.1473 -0.0515 -0.3996
    1SOL     OW10201   2.225   3.962   4.284 -0.3031  0.2442  0.0225
    1SOL    HW210202   2.298   3.923   4.235 -0.2348  0.0796  0.2538
    1SOL    HW310203   2.147   3.924   4.244 -0.3032  1.1503 -0.8608
    1SOL    MW410204   2.224   3.952   4.272 -0.2942  0.3419 -0.0639
    1SOL     OW10205   2.701   4.504   4.506  0.5437  0.0401 -0.7151
    1SOL    HW210206   2.701   4.423   4.557 -1.8992  0.5550  0.1748
    1SOL    HW310207   2.793   4.528   4.497  1.2029 -2.1098  0.1623
    1SOL    MW410208   2.713   4.497   4.511  0.3083 -0.1755 -0.4816
    1SOL     OW10209   1.998   0.641   4.561  0.2082 -0.5175 -0.2361
    1SOL    HW210210   2.090   0.647   4.586 -0.0700 -0.8602  0.8797
    1SOL    HW310211   1.999   0.602   4.473  1.0894 -1.1269  0.0415
    1SOL    MW410212   2.010   0.637   4.552  0.2875 -0.6431 -0.0520
    1SOL     OW10213   2.726   0.166   4.265 -0.0727  0.5239 -0.3760
    1SOL    HW210214   2.733   0.260   4.249 -1.4357  0.4279 -1.6676
    1SOL    HW310215   2.791   0.127   4.207  0.5694  0.6852  0.2414
    1SOL    MW410216   2.735   0.173   4.255 -0.1674  0.5325 -0.4649
    1SOL     OW10217   2.501   3.727   4.477  0.1630  0.3618 -0.1716
    1SOL    HW210218   2.580   3.757   4.521 -0.9613  1.9311  0.7916
    1SOL    HW310219   2.498   3.633   4.494  1.3129  0.4543  0.5595
    1SOL    MW410220   2.511   3.718   4.485  0.1667  0.5813  0.0520
    1SOL     OW10221   2.729   0.437   4.196 -0.2021 -0.0166  0.1559
    1SOL    HW210222   2.649   0.472   4.234 -0.7728 -0.2799 -0.7956
    1SOL    HW310223   2.712   0.435   4.102  1.0632  0.3061 -0.0937
    1SOL    MW410224   2.716   0.442   4.189 -0.1106 -0.0088 -0.0019
    1SOL     OW10225   0.526   3.975   4.678  0.2807  0.1514 -0.5981
    1SOL    HW210226   0.565   4.058   4.649  1.8712 -0.5356 -0.4879
    1SOL    HW310227   0.433   3.985   4.659  0.6536  1.4013 -1.9286
    1SOL    MW410228   0.519   3.988   4.672  0.5398  0.2255 -0.7591
    1SOL     OW10229   2.961   0.783   4.128 -0.4078 -0.2489 -0.0718
    1SOL    HW210230   2.949   0.694   4.162  1.1946 -0.7571 -0.8019
    1SOL    HW310231   2.961   0.773   4.033  0.9004  0.3777 -0.1451
    1SOL    MW410232   2.959   0.770   4.120 -0.0236 -0.2333 -0.1779
    1SOL     OW10233   2.504   2.692   4.478  0.9214 -0.4478  0.2134
    1SOL    HW210234   2.512   2.728   4.389  1.0821 -0.3304  0.2740
    1SOL    HW310235   2.469   2.604   4.465  1.5850 -0.6847 -0.0139
    1SOL    MW410236   2.500   2.685   4.464  1.0302 -0.4635  0.1912
    1SOL     OW10237   2.686   0.036   4.703 -0.2673  0.3324  0.1113
    1SOL    HW210238   2.689  -0.027   4.631 -0.5416  1.3773 -0.8425
    1SOL    HW310239   2.594   0.039   4.728 -0.3474  0.7485 -0.2186
    1SOL    MW410240   2.674   0.028   4.697 -0.3138  0.5252 -0.0577
    1SOL     OW10241   2.485   3.450   4.545  0.4342 -0.2189 -0.2304
    1SOL    HW210242   2.571   3.412   4.526  1.0185  0.6802  0.5455
    1SOL    HW310243   2.422   3.386   4.511  1.4096 -0.8528 -0.8665
    1SOL    MW410244   2.488   3.437   4.538  0.6397 -0.1841 -0.2122
    1SOL     OW10245   2.715   1.142   4.562 -0.0398 -0.1846 -0.1052
    1SOL    HW210246   2.666   1.180   4.635 -0.3627 -0.3039 -0.2629
    1SOL    HW310247   2.702   1.204   4.490  0.8995  0.3263  0.1515
    1SOL    MW410248   2.707   1.155   4.562  0.0420 -0.1329 -0.0925
    1SOL     OW10249   0.101   3.576   4.536  0.2053 -0.0831  0.3030
    1SOL    HW210250   0.136   3.580   4.448 -1.6267  2.8071 -0.3668
    1SOL    HW310251   0.178   3.580   4.593  1.4780 -3.1123 -1.1083
    1SOL    MW410252   0.116   3.577   4.532  0.1315 -0.1018  0.0291
    1SOL     OW10253   3.404   3.220   4.554  0.3716  0.0850 -0.1615
    1SOL    HW210254   3.461   3.173   4.615 -0.0211 -1.5140 -1.0049
    1SOL    HW310255   3.448   3.212   4.470 -0.1492  0.4791 -0.4714
    1SOL    MW410256   3.417   3.213   4.551  0.2513 -0.0741 -0.3133
    1SOL     OW10257   2.959   2.020   3.817 -0.7418 -0.0301 -0.0982
    1SOL    HW210258   2.870   1.990   3.836 -0.0307 -1.4915  1.0314
    1SOL    HW310259   2.960   2.111   3.848 -1.2162 -0.6916  1.9641
    1SOL    MW410260   2.947   2.028   3.824 -0.7105 -0.3102  0.3231
    1SOL     OW10261   0.617   4.586   4.377  0.1161  0.0207 -0.0383
    1SOL    HW210262   0.638   4.493   4.368  1.1915  0.3135 -0.6880
    1SOL    HW310263   0.595   4.614   4.288 -1.0204  0.2091  0.2929
    1SOL    MW410264   0.617   4.577   4.364  0.1081  0.0839 -0.0806
    1SOL     OW10265   2.697   0.479   4.563  0.1475 -0.2453  0.3179
    1SOL    HW210266   2.721   0.387   4.571  1.6628  0.2382  1.3652
    1SOL    HW310267   2.779   0.525   4.547 -0.6009  0.9390 -0.2682
    1SOL    MW410268   2.711   0.473   4.562  0.2484 -0.0253  0.3786
    1SOL     OW10269   4.350   2.856   4.509  0.1691  0.2516 -0.5146
    1SOL    HW210270   4.442   2.833   4.524 -0.0889 -0.6518 -0.3031
    1SOL    HW310271   4.341   2.856   4.413 -0.3610 -2.7038 -0.4934
    1SOL    MW410272   4.361   2.853   4.498  0.0653 -0.2575 -0.4835
    1SOL     OW10273   2.410   1.513   4.528  0.3571 -0.6962 -0.2899
    1SOL    HW210274   2.379   1.466   4.450 -0.5355 -0.0415 -0.3375
    1SOL    HW310275   2.337   1.571   4.551  0.6542 -0.8077  0.9691
    1SOL    MW410276   2.396   1.514   4.521  0.2785 -0.6247 -0.1302
    1SOL     OW10277   0.289   3.207   4.658  0.1911  0.2443 -0.4098
    1SOL    HW210278   0.346   3.278   4.629 -0.9404  1.5667  0.5487
    1SOL    HW310279   0.287   3.214   4.754 -0.8380 -0.3440 -0.3691
    1SOL    MW410280   0.296   3.218   4.667 -0.0940  0.3412 -0.2770
    1SOL     OW10281   2.699   2.849   4.779 -0.0323 -0.1719 -0.0701
    1SOL    HW210282   2.792   2.831   4.792  0.1598  0.0046 -1.1450
    1SOL    HW310283   2.661   2.765   4.753 -0.2985 -0.3877  0.9987
    1SOL    MW410284   2.706   2.836   4.777 -0.0422 -0.1769 -0.0710
    1SOL     OW10285   2.946   3.583   4.203 -0.6867 -0.2028  0.2819
    1SOL    HW210286   2.930   3.605   4.294 -1.9492  0.3267 -0.0628
    1SOL    HW310287   2.942   3.667   4.157 -1.3494 -0.6218 -0.4378
    1SOL    MW410288   2.944   3.597   4.209 -0.9408 -0.1884  0.1411
    1SOL     OW10289   2.772   3.181   4.266  0.0262  0.1205 -0.1568
    1SOL    HW210290   2.758   3.269   4.230  0.7207  0.1647 -0.3266
    1SOL    HW310291   2.824   3.136   4.199  0.5243 -0.0984  0.3714
    1SOL    MW410292   2.777   3.186   4.252  0.1836  0.0973 -0.1092
    1SOL     OW10293   2.913   3.860   4.128  0.5910 -0.1428  0.0200
    1SOL    HW210294   2.839   3.900   4.175  0.2070 -0.2258 -0.5123
    1SOL    HW310295   2.990   3.889   4.177  0.1526 -0.9009  1.2005
    1SOL    MW410296   2.913   3.869   4.141  0.4826 -0.2539  0.1059
    1SOL     OW10297   2.686   4.258   4.153  0.3227 -0.0353 -0.1785
    1SOL    HW210298   2.619   4.316   4.189 -0.6843  0.9327 -3.4164
    1SOL    HW310299   2.673   4.175   4.199  0.8821  1.8266  3.5340
    1SOL    MW410300   2.676   4.255   4.164  0.2637  0.3381 -0.1159
    1SOL     OW10301   2.454   3.852   4.153  0.3913  0.1861 -0.1863
    1SOL    HW210302   2.460   3.857   4.058  0.2271  0.1489 -0.1992
    1SOL    HW310303   2.469   3.760   4.173  0.4514  0.1981 -0.1732
    1SOL    MW410304   2.457   3.841   4.143  0.3774  0.1824 -0.1864
    1SOL     OW10305   2.941   4.397   4.177  0.0028 -0.5800 -0.1979
    1SOL    HW210306   2.858   4.350   4.169 -0.1776 -0.7184  2.1064
    1SOL    HW310307   3.006   4.337   4.140 -0.9455 -0.3094 -2.3662
    1SOL    MW410308   2.939   4.383   4.171 -0.1462 -0.5622 -0.1802
    1SOL     OW10309   3.407   4.662   4.150  0.5482  0.5781 -0.0845
    1SOL    HW210310   3.475   4.719   4.184  1.0676 -0.3856  0.4950
    1SOL    HW310311   3.325   4.700   4.184  0.8948  0.9192  0.3783
    1SOL    MW410312   3.405   4.675   4.159  0.6623  0.4959  0.0534
    1SOL     OW10313   1.413   1.663   4.198 -0.3280  0.3280 -0.0778
    1SOL    HW210314   1.331   1.630   4.160 -1.1730  1.2520  0.8964
    1SOL    HW310315   1.387   1.698   4.283  0.7280  2.3633 -0.5561
    1SOL    MW410316   1.399   1.663   4.204 -0.3002  0.7184 -0.0124
    1SOL     OW10317   2.999   0.525   4.244  0.5319 -0.0202 -0.0083
    1SOL    HW210318   2.905   0.504   4.245  0.6948 -0.7482  0.4871
    1SOL    HW310319   3.026   0.518   4.336  1.3200 -0.9809 -0.3011
    1SOL    MW410320   2.990   0.521   4.256  0.6573 -0.2429  0.0181
    1SOL     OW10321   3.394   0.555   4.186 -0.0162 -0.2083 -0.3096
    1SOL    HW210322   3.366   0.546   4.277  0.0980 -2.0168 -0.4365
    1SOL    HW310323   3.482   0.517   4.183  0.0799  0.0492 -1.1350
    1SOL    MW410324   3.402   0.549   4.197  0.0114 -0.4129 -0.4354
    1SOL     OW10325   2.530   4.457   4.310 -0.3292 -0.3617 -0.1759
    1SOL    HW210326   2.586   4.463   4.388 -0.3359 -0.6533 -0.1442
    1SOL    HW310327   2.449   4.415   4.343  0.7273 -3.0522 -0.8737
    1SOL    MW410328   2.526   4.452   4.325 -0.1905 -0.7548 -0.2637
    1SOL     OW10329   3.830   4.425   4.501 -0.4671  0.3157 -0.1503
    1SOL    HW210330   3.814   4.334   4.526 -1.2167 -0.0676 -1.9448
    1SOL    HW310331   3.742   4.464   4.496 -0.1512  1.1157  0.5584
    1SOL    MW410332   3.816   4.418   4.504 -0.5243  0.3700 -0.2937
    1SOL     OW10333   3.170   0.903   4.270  0.3747  0.0807  0.2456
    1SOL    HW210334   3.097   0.860   4.226 -0.8160 -0.1110  2.3726
    1SOL    HW310335   3.171   0.992   4.233  1.0381 -0.8234 -2.0270
    1SOL    MW410336   3.161   0.909   4.259  0.3049 -0.0640  0.2260
    1SOL     OW10337   1.852   4.365   4.543  0.3239 -0.4252  0.1732
    1SOL    HW210338   1.906   4.345   4.467  0.8900 -0.4625  0.5797
    1SOL    HW310339   1.879   4.453   4.569 -0.6702  0.0452 -0.3419
    1SOL    MW410340   1.862   4.374   4.536  0.2675 -0.3681  0.1583
    1SOL     OW10341   2.807   2.893   4.389 -0.0032  0.0240  0.1017
    1SOL    HW210342   2.735   2.928   4.441 -0.5755 -0.2924 -0.4762
    1SOL    HW310343   2.828   2.962   4.327 -0.9274 -0.5308 -0.8351
    1SOL    MW410344   2.801   2.907   4.388 -0.2005 -0.0911 -0.0982
    1SOL     OW10345   2.503   1.726   4.162 -0.0862  0.2711 -0.0578
    1SOL    HW210346   2.421   1.753   4.203  0.4961  0.6077  0.8926
    1SOL    HW310347   2.477   1.692   4.077 -0.9520  2.8273 -0.8579
    1SOL    MW410348   2.489   1.725   4.156 -0.1235  0.6527 -0.0381
    1SOL     OW10349   2.821   0.228   4.542  0.1616 -0.2209  0.4405
    1SOL    HW210350   2.781   0.199   4.459 -2.0629  1.5990  0.8311
    1SOL    HW310351   2.773   0.180   4.609  1.9408 -1.6630  0.7378
    1SOL    MW410352   2.810   0.218   4.540  0.1030 -0.1711  0.5307
    1SOL     OW10353   2.245   2.184   4.081  0.1847 -0.1676  0.2980
    1SOL    HW210354   2.273   2.108   4.132 -0.8664 -0.9732 -0.3119
    1SOL    HW310355   2.234   2.253   4.146 -0.3102 -0.9490  1.0543
    1SOL    MW410356   2.247   2.183   4.097 -0.0191 -0.3772  0.3171
    1SOL     OW10357   3.497   0.874   4.477  0.0345  0.2344 -0.4569
    1SOL    HW210358   3.458   0.961   4.491 -1.5584 -0.7526  1.5004
    1SOL    HW310359   3.530   0.876   4.387 -0.2572  2.7553 -0.5360
    1SOL    MW410360   3.496   0.886   4.467 -0.2143  0.4368 -0.2089
    1SOL     OW10361   3.047   1.453   4.682  0.2653 -0.8984 -0.5483
    1SOL    HW210362   3.034   1.384   4.618 -0.6145  0.1252 -1.4974
    1SOL    HW310363   3.108   1.514   4.640 -1.3823  0.4734 -0.9937
    1SOL    MW410364   3.053   1.452   4.668 -0.0684 -0.5822 -0.7319
    1SOL     OW10365   3.558   2.443   4.216  0.7578  0.0677  0.6385
    1SOL    HW210366   3.559   2.535   4.191 -0.3718 -0.5933 -2.1598
    1SOL    HW310367   3.646   2.411   4.195  0.3090 -0.0958 -1.1161
    1SOL    MW410368   3.569   2.451   4.210  0.5496 -0.0412  0.0381
    1SOL     OW10369   2.226   4.205   4.151  0.2460 -0.3644  0.5825
    1SOL    HW210370   2.230   4.114   4.182  1.4068 -0.1525  1.0759
    1SOL    HW310371   2.277   4.254   4.215  1.7327  0.2693 -1.0755
    1SOL    MW410372   2.233   4.199   4.164  0.5953 -0.2532  0.4287
    1SOL     OW10373   3.364   3.108   4.174  0.7909  0.1327 -0.0879
    1SOL    HW210374   3.278   3.139   4.203  0.4430 -0.4152 -0.5418
    1SOL    HW310375   3.365   3.015   4.196  1.3133  0.1617  0.0172
    1SOL    MW410376   3.353   3.100   4.181  0.8140  0.0641 -0.1340
    1SOL     OW10377   2.524   3.053   4.145  0.3583  0.0202 -0.0104
    1SOL    HW210378   2.592   3.107   4.185  1.3274 -0.7380 -0.6171
    1SOL    HW310379   2.442   3.092   4.176  0.9104  3.7110 -2.7958
    1SOL    MW410380   2.522   3.065   4.155  0.5589  0.4070 -0.4582
    1SOL     OW10381   3.388   3.596   4.216 -0.2505  0.0072  0.0922
    1SOL    HW210382   3.313   3.539   4.197  0.5399 -1.2305  0.5648
    1SOL    HW310383   3.372   3.626   4.305 -0.0350 -0.5184  0.3135
    1SOL    MW410384   3.376   3.592   4.225 -0.1178 -0.2253  0.1836
    1SOL     OW10385   3.632   3.459   4.196 -0.6828 -0.9112 -0.0603
    1SOL    HW210386   3.606   3.373   4.229  0.7104 -0.3721  2.6329
    1SOL    HW310387   3.556   3.515   4.212 -0.2601 -0.8074  1.7846
    1SOL    MW410388   3.619   3.455   4.203 -0.4432 -0.8264  0.5388
    1SOL     OW10389   3.386   3.850   4.128  0.7384  0.1600  0.4508
    1SOL    HW210390   3.384   3.758   4.153 -1.3656  0.0056 -0.1930
    1SOL    HW310391   3.387   3.849   4.033 -1.3976  0.8099  0.4115
    1SOL    MW410392   3.386   3.838   4.119  0.1791  0.2251  0.3605
    1SOL     OW10393   4.474   2.665   4.102  0.2158  0.0165  0.0943
    1SOL    HW210394   4.398   2.716   4.132 -0.1560 -0.3030 -0.3076
    1SOL    HW310395   4.472   2.585   4.154  0.0764 -0.1490 -0.1674
    1SOL    MW410396   4.464   2.661   4.113  0.1483 -0.0470  0.0067
    1SOL     OW10397   0.019   0.881   4.219  0.0610 -0.1628 -0.3096
    1SOL    HW210398   0.029   0.870   4.314 -0.4661  0.3206 -0.1935
    1SOL    HW310399   0.028   0.976   4.205 -1.8404  0.0209 -0.4887
    1SOL    MW410400   0.021   0.892   4.230 -0.2594 -0.0748 -0.3185
    1SOL     OW10401   3.594   4.267   4.126  0.7560 -0.1728 -0.0537
    1SOL    HW210402   3.516   4.312   4.157  0.6808  0.1084 -0.6518
    1SOL    HW310403   3.598   4.186   4.178 -1.5472 -1.6209 -2.0662
    1SOL    MW410404   3.584   4.262   4.137  0.4425 -0.3266 -0.3982
    1SOL     OW10405   3.847   0.010   4.097 -0.1267 -0.1010  0.4194
    1SOL    HW210406   3.836  -0.085   4.106 -2.7255  0.1607  0.2647
    1SOL    HW310407   3.853   0.025   4.003  1.3854 -0.2026  0.4866
    1SOL    MW410408   3.846  -0.001   4.086 -0.2701 -0.0796  0.4082
    1SOL     OW10409   2.327   2.010   4.303 -0.1623  0.1570  0.2980
    1SOL    HW210410   2.372   1.952   4.365  1.8496  1.6950  0.3404
    1SOL    HW310411   2.309   2.089   4.355 -0.9667  0.3821 -0.3289
    1SOL    MW410412   2.331   2.013   4.318 -0.0029  0.3893  0.2208
    1SOL     OW10413   3.637   0.407   4.149 -0.3633 -0.1279  0.3199
    1SOL    HW210414   3.722   0.437   4.181 -0.0140  0.5079 -1.1416
    1SOL    HW310415   3.649   0.396   4.054 -1.7434 -0.5800  0.1776
    1SOL    MW410416   3.650   0.409   4.141 -0.4988 -0.1037  0.1082
    1SOL     OW10417   4.074   0.352   4.147 -0.0613  0.3680 -0.1925
    1SOL    HW210418   4.072   0.268   4.194 -2.4514  0.1917 -0.5140
    1SOL    HW310419   4.007   0.405   4.191  0.6005  1.6830 -0.7512
    1SOL    MW410420   4.065   0.348   4.159 -0.2890  0.5182 -0.3085
    1SOL     OW10421   1.618   0.386   4.512 -0.0910  0.1134 -0.5664
    1SOL    HW210422   1.536   0.339   4.526  0.3087 -0.8097 -1.3107
    1SOL    HW310423   1.617   0.410   4.419 -0.0484  1.1103 -0.3173
    1SOL    MW410424   1.607   0.383   4.502 -0.0328  0.1231 -0.6318
    1SOL     OW10425   2.030   3.767   4.561  0.1442  0.5001 -0.1846
    1SOL    HW210426   2.108   3.821   4.569 -0.4505  1.2036  0.9287
    1SOL    HW310427   2.062   3.681   4.533  1.3990  0.5162  1.1603
    1SOL    MW410428   2.044   3.763   4.558  0.2310  0.5949  0.1392
    1SOL     OW10429   2.054   1.923   4.120 -0.5372 -0.6630 -0.3247
    1SOL    HW210430   2.124   1.916   4.055 -0.1446 -1.2162  0.1684
    1SOL    HW310431   2.060   2.014   4.151  0.2429 -0.8358  0.0421
    1SOL    MW410432   2.064   1.934   4.115 -0.3824 -0.7588 -0.2103
    1SOL     OW10433   0.125   2.783   4.510  0.0657  0.1952  0.1743
    1SOL    HW210434   0.120   2.694   4.544 -2.6423  0.7708  1.4371
    1SOL    HW310435   0.132   2.772   4.415  0.3870 -1.3697  0.3742
    1SOL    MW410436   0.125   2.770   4.502 -0.2492  0.0646  0.3672
    1SOL     OW10437   4.215   2.224   4.140  0.1610  0.4460  0.0136
    1SOL    HW210438   4.268   2.230   4.219  1.6949 -0.0187 -0.9517
    1SOL    HW310439   4.192   2.131   4.133  0.2491  0.4395 -0.2136
    1SOL    MW410440   4.219   2.213   4.150  0.3748  0.3836 -0.1435
    1SOL     OW10441   3.375   1.548   4.169 -0.3852  0.2446  0.2996
    1SOL    HW210442   3.295   1.596   4.191  0.5352  2.7363 -1.5309
    1SOL    HW310443   3.371   1.539   4.074  0.9630 -0.6515  0.3180
    1SOL    MW410444   3.364   1.554   4.159 -0.0858  0.4551  0.0601
    1SOL     OW10445   3.582   1.918   4.147  0.3625 -0.3245  0.1019
    1SOL    HW210446   3.599   1.830   4.180  1.4769 -0.3176 -0.4607
    1SOL    HW310447   3.528   1.958   4.215  1.1248 -0.9250  1.0766
    1SOL    MW410448   3.577   1.912   4.160  0.6099 -0.4027  0.1559
    1SOL     OW10449   1.625   1.669   4.724  0.4999 -0.2128 -0.3476
    1SOL    HW210450   1.618   1.650   4.631  0.0842 -0.2934 -0.3025
    1SOL    HW310451   1.678   1.598   4.759  0.7427 -0.1262 -0.5407
    1SOL    MW410452   1.631   1.657   4.716  0.4771 -0.2120 -0.3676
    1SOL     OW10453   0.461   0.302   4.599  0.0529  0.4896  0.3462
    1SOL    HW210454   0.484   0.214   4.570 -1.1073  0.4944 -0.6328
    1SOL    HW310455   0.448   0.293   4.693 -0.6638 -0.5284  0.1584
    1SOL    MW410456   0.462   0.289   4.608 -0.1948  0.3559  0.1922
    1SOL     OW10457   3.426   1.985   4.357 -0.1369 -0.1888 -0.1191
    1SOL    HW210458   3.452   2.051   4.422 -0.4016 -0.2346  0.0343
    1SOL    HW310459   3.358   1.933   4.401 -0.4158 -0.1331 -0.4785
    1SOL    MW410460   3.420   1.987   4.371 -0.2086 -0.1874 -0.1464
    1SOL     OW10461   3.798   2.061   4.248 -0.2798  0.3030  0.2432
    1SOL    HW210462   3.739   2.008   4.195  0.5812  1.3014 -1.7541
    1SOL    HW310463   3.794   2.148   4.209  2.8515  0.2788 -0.2584
    1SOL    MW410464   3.790   2.065   4.236  0.2470  0.4318 -0.0863
    1SOL     OW10465   1.688   3.957   4.479  0.1553  0.0039 -0.0375
    1SOL    HW210466   1.716   3.871   4.510 -0.4986 -0.1128  0.2269
    1SOL    HW310467   1.720   4.018   4.545 -0.9988 -0.2170  0.7330
    1SOL    MW410468   1.696   3.954   4.492 -0.0832 -0.0403  0.0982
    1SOL     OW10469   3.798   3.101   4.142 -0.3252  0.3002 -0.0257
    1SOL    HW210470   3.875   3.142   4.180  0.2050 -0.1370 -0.6226
    1SOL    HW310471   3.810   3.108   4.047 -1.4245  0.9925 -0.1270
    1SOL    MW410472   3.809   3.107   4.134 -0.4003  0.3338 -0.1178
    1SOL     OW10473   3.837   4.408   4.218 -0.1707  0.2872 -0.0932
    1SOL    HW210474   3.758   4.358   4.199 -0.0832  0.0140  0.2533
    1SOL    HW310475   3.840   4.412   4.314  0.9278 -0.8133 -0.0774
    1SOL    MW410476   3.827   4.402   4.228 -0.0143  0.1054 -0.0458
    1SOL     OW10477   3.591   3.207   4.291 -0.3590  0.4043  0.1660
    1SOL    HW210478   3.514   3.177   4.243 -0.2371  0.0358  0.2009
    1SOL    HW310479   3.665   3.166   4.246 -0.2751 -0.2936  0.9378
    1SOL    MW410480   3.590   3.198   4.279 -0.3321  0.2637  0.2723
    1SOL     OW10481   1.282   2.469   4.461  0.3226  0.2004  0.2958
    1SOL    HW210482   1.367   2.451   4.502  1.0816  0.3759 -1.1737
    1SOL    HW310483   1.295   2.449   4.369 -0.7658  1.7660 -0.2275
    1SOL    MW410484   1.295   2.464   4.454  0.2791  0.4301  0.0329
    1SOL     OW10485   4.076   2.652   4.523 -0.0498  0.0694 -0.2512
    1SOL    HW210486   3.993   2.691   4.549 -0.3124 -0.2521 -0.5978
    1SOL    HW310487   4.140   2.722   4.534 -0.5481  0.6634 -1.0678
    1SOL    MW410488   4.073   2.666   4.528 -0.1507  0.1056 -0.4044
    1SOL     OW10489   1.308   3.477   4.157  0.1287  0.2871  0.0234
    1SOL    HW210490   1.311   3.489   4.062 -1.3591 -0.1297 -0.0879
    1SOL    HW310491   1.324   3.384   4.170 -1.5594 -0.0148  0.0482
    1SOL    MW410492   1.311   3.466   4.146 -0.2904  0.1922  0.0114
    1SOL     OW10493   3.135   4.221   4.094 -0.0156 -0.1409 -0.1456
    1SOL    HW210494   3.136   4.138   4.143 -0.8278  0.9365  1.7563
    1SOL    HW310495   3.220   4.261   4.113  1.1137 -1.2982 -2.4953
    1SOL    MW410496   3.146   4.215   4.103  0.0262 -0.1516 -0.2046
    1SOL     OW10497   0.065   1.114   4.512 -0.1642  0.1032 -0.2445
    1SOL    HW210498   0.123   1.190   4.517  0.2481 -0.2180 -0.1516
    1SOL    HW310499  -0.023   1.151   4.517  0.0391  0.5648 -0.0350
    1SOL    MW410500   0.061   1.129   4.513 -0.0830  0.1217 -0.2041
    1SOL     OW10501   4.424   4.386   4.478  0.0075  0.0348  0.1369
    1SOL    HW210502   4.387   4.385   4.390  0.2339 -1.2830  0.0500
    1SOL    HW310503   4.368   4.445   4.527 -0.6843  0.0389 -0.6509
    1SOL    MW410504   4.412   4.394   4.473 -0.0544 -0.1378  0.0215
    1SOL     OW10505   4.330   2.277   4.413 -0.0590 -0.3656 -0.1781
    1SOL    HW210506   4.249   2.315   4.447  1.4247  1.2650  1.6528
    1SOL    HW310507   4.382   2.352   4.384  1.1755 -1.3147 -0.4663
    1SOL    MW410508   4.326   2.292   4.414  0.2995 -0.2756  0.0262
    1SOL     OW10509   3.533   4.537   4.498 -0.3714 -0.0257  0.3072
    1SOL    HW210510   3.443   4.516   4.473 -0.3730  1.1676 -0.7906
    1SOL    HW310511   3.536   4.633   4.497  0.9141 -0.0524  0.3002
    1SOL    MW410512   3.521   4.547   4.495 -0.2019  0.1283  0.1616
    1SOL     OW10513   0.764   0.831   4.502 -0.0804  0.3280  0.0313
    1SOL    HW210514   0.671   0.811   4.492  0.1547 -0.7932 -0.0353
    1SOL    HW310515   0.793   0.773   4.573  0.8543 -0.2959 -0.8447
    1SOL    MW410516   0.756   0.821   4.510  0.0739  0.0977 -0.0920
    1SOL     OW10517   4.487   0.376   4.562  0.8065  0.3616 -0.1377
    1SOL    HW210518   4.560   0.413   4.513  0.8581 -1.6198 -1.5778
    1SOL    HW310519   4.481   0.431   4.641  1.4006  2.9255 -1.8157
    1SOL    MW410520   4.496   0.388   4.566  0.8917  0.4385 -0.5488
    1SOL     OW10521   4.319   4.612   4.589 -0.1494 -0.0407 -0.2105
    1SOL    HW210522   4.373   4.669   4.534  0.4329  0.1742  0.5627
    1SOL    HW310523   4.302   4.665   4.668  0.6109 -1.0181  0.6267
    1SOL    MW410524   4.324   4.627   4.592  0.0277 -0.1416  0.0019
    1SOL     OW10525   4.096   1.163   4.158  0.0771  0.1475  0.2194
    1SOL    HW210526   4.013   1.206   4.180  0.6049  1.2705  0.0504
    1SOL    HW310527   4.082   1.071   4.180 -1.4219  0.2237 -0.3879
    1SOL    MW410528   4.083   1.156   4.164 -0.0515  0.3058  0.1173
    1SOL     OW10529   3.064   0.945   4.556  0.0510  0.3842  0.5529
    1SOL    HW210530   3.110   0.923   4.475 -0.8261 -1.8140  0.6136
    1SOL    HW310531   3.130   0.987   4.611  2.0594 -2.8975  0.7285
    1SOL    MW410532   3.079   0.948   4.552  0.2003 -0.3388  0.5841
    1SOL     OW10533   1.209   1.388   4.426 -0.2139 -0.0661 -0.5961
    1SOL    HW210534   1.176   1.345   4.506  2.9694  2.2785  2.1282
    1SOL    HW310535   1.169   1.475   4.429  0.0949  0.1015 -1.4608
    1SOL    MW410536   1.199   1.394   4.437  0.2469  0.2654 -0.3510
    1SOL     OW10537   1.984   0.211   4.483 -0.4351  0.0560 -0.0511
    1SOL    HW210538   1.927   0.201   4.407 -0.6053  0.4106  0.0326
    1SOL    HW310539   1.949   0.286   4.530 -0.1006  0.0681  0.1780
    1SOL    MW410540   1.972   0.219   4.479 -0.4134  0.1044 -0.0100
    1SOL     OW10541   1.184   4.302   4.535 -0.1141 -0.2649  0.1290
    1SOL    HW210542   1.125   4.231   4.508 -0.6965 -0.1790  1.1367
    1SOL    HW310543   1.129   4.359   4.589  0.8555 -0.0942  0.9385
    1SOL    MW410544   1.169   4.300   4.539 -0.0632 -0.2308  0.3691
    1SOL     OW10545   3.870   0.512   4.243  0.5987  0.4102  0.1632
    1SOL    HW210546   3.868   0.606   4.226 -0.4787  0.5792  1.1657
    1SOL    HW310547   3.855   0.504   4.337 -2.1025 -0.8896 -0.3374
    1SOL    MW410548   3.868   0.523   4.253  0.1001  0.2609  0.2298
    1SOL     OW10549   3.796   2.328   4.137  0.5129  0.0436 -0.2203
    1SOL    HW210550   3.800   2.331   4.041 -1.3005  1.5661 -0.2875
    1SOL    HW310551   3.878   2.367   4.166 -0.0180  1.9577 -1.1948
    1SOL    MW410552   3.807   2.333   4.128  0.2038  0.4969 -0.3576
    1SOL     OW10553   4.057   3.459   4.151 -0.1400 -0.2067 -0.4627
    1SOL    HW210554   4.049   3.484   4.059  0.9802 -0.4434 -0.6349
    1SOL    HW310555   4.117   3.523   4.189 -0.1924 -0.4169 -0.0175
    1SOL    MW410556   4.064   3.470   4.144  0.0010 -0.2656 -0.4268
    1SOL     OW10557   4.035   2.433   4.208 -0.2711  0.3203  0.2430
    1SOL    HW210558   4.107   2.382   4.172 -0.8767 -0.8969  0.7073
    1SOL    HW310559   4.051   2.435   4.302 -1.4700 -1.0284  0.5075
    1SOL    MW410560   4.046   2.426   4.215 -0.5093 -0.0184  0.3395
    1SOL     OW10561   1.388   3.410   4.601  0.0373  0.5402 -0.0202
    1SOL    HW210562   1.475   3.424   4.563 -0.1735 -0.7008 -0.9867
    1SOL    HW310563   1.404   3.403   4.695  0.9900  0.2677 -0.1954
    1SOL    MW410564   1.402   3.411   4.608  0.1352  0.3409 -0.1712
    1SOL     OW10565   3.604   0.174   4.520  0.1465  0.3086  0.0215
    1SOL    HW210566   3.597   0.193   4.426 -0.5961  0.2520  0.0605
    1SOL    HW310567   3.698   0.180   4.539  0.4487 -1.0917 -1.0049
    1SOL    MW410568   3.615   0.178   4.510  0.0882  0.1164 -0.1087
    1SOL     OW10569   3.848   3.611   4.231  0.0907 -0.0081 -0.4442
    1SOL    HW210570   3.781   3.543   4.224 -1.1266  1.0287  0.8164
    1SOL    HW310571   3.931   3.564   4.224 -0.7499 -1.4875 -0.6231
    1SOL    MW410572   3.850   3.596   4.229 -0.1807 -0.0665 -0.3014
    1SOL     OW10573   2.252   1.127   4.142  0.4175 -0.7712 -0.0318
    1SOL    HW210574   2.326   1.162   4.193 -1.1648  0.9818  1.1394
    1SOL    HW310575   2.175   1.150   4.193 -0.9863 -2.2539 -1.4278
    1SOL    MW410576   2.252   1.135   4.155  0.0236 -0.7355 -0.0615
    1SOL     OW10577   4.236   3.652   4.267 -0.2947 -0.1815  0.4029
    1SOL    HW210578   4.306   3.593   4.237 -1.0073 -0.8883  0.1235
    1SOL    HW310579   4.264   3.679   4.355 -0.3728 -1.6265  0.8884
    1SOL    MW410580   4.249   3.647   4.275 -0.3991 -0.4656  0.4301
    1SOL     OW10581   0.414   3.997   4.289 -0.0843  0.0557  0.1734
    1SOL    HW210582   0.440   4.083   4.255  0.3751 -0.6478 -1.3459
    1SOL    HW310583   0.497   3.953   4.307 -0.3075 -0.2785  0.3860
    1SOL    MW410584   0.429   4.003   4.287 -0.0531 -0.0806  0.0005
    1SOL     OW10585   1.285   0.751   4.575  0.6370 -0.2042 -0.1654
    1SOL    HW210586   1.231   0.828   4.553  0.6921 -0.2271 -0.3841
    1SOL    HW310587   1.222   0.681   4.589  0.5045  0.1968  1.3598
    1SOL    MW410588   1.269   0.752   4.574  0.6267 -0.1543  0.0067
    1SOL     OW10589   3.805   3.866   4.145 -0.1292  0.6641  0.4963
    1SOL    HW210590   3.892   3.906   4.144 -0.0961  0.5574 -0.9106
    1SOL    HW310591   3.821   3.774   4.165  0.1876  0.3955 -0.9668
    1SOL    MW410592   3.818   3.859   4.148 -0.0832  0.6144  0.1173
    1SOL     OW10593   2.959   4.558   4.583  0.1653 -0.1863  0.5112
    1SOL    HW210594   3.010   4.631   4.546 -0.0156  0.0842  0.7961
    1SOL    HW310595   2.957   4.576   4.677  0.8776 -1.0321  0.6997
    1SOL    MW410596   2.966   4.570   4.590  0.2353 -0.2623  0.5741
    1SOL     OW10597   3.652   2.593   4.645  0.4945  0.3591 -0.3555
    1SOL    HW210598   3.610   2.533   4.583  0.7036  0.1289 -0.2756
    1SOL    HW310599   3.692   2.536   4.710  0.5461  0.5925 -0.1834
    1SOL    MW410600   3.652   2.577   4.645  0.5286  0.3593 -0.3223
    1SOL     OW10601   1.858   1.596   4.338 -0.0570  0.5891 -0.5756
    1SOL    HW210602   1.909   1.548   4.272  1.1851  1.6875 -0.4258
    1SOL    HW310603   1.900   1.681   4.343 -0.0430  0.4668  1.7731
    1SOL    MW410604   1.870   1.601   4.330  0.1088  0.7179 -0.2456
    1SOL     OW10605   4.315   1.999   4.406 -0.0374  0.0085  0.0698
    1SOL    HW210606   4.310   2.094   4.415  0.6683 -0.0257  1.0133
    1SOL    HW310607   4.225   1.969   4.417  0.0419  0.4066  2.0389
    1SOL    MW410608   4.303   2.008   4.409  0.0663  0.0563  0.4539
    1SOL     OW10609   4.074   0.069   4.244  0.5190  0.1126  0.2740
    1SOL    HW210610   4.063   0.015   4.323 -0.0116 -1.3803 -0.7931
    1SOL    HW310611   4.003   0.041   4.186  0.6142  1.5469 -0.5393
    1SOL    MW410612   4.063   0.058   4.247  0.4621  0.1048  0.0253
    1SOL     OW10613   1.154   2.719   4.480  0.7388  0.3261  0.7419
    1SOL    HW210614   1.178   2.628   4.491  0.8251  0.2507  0.0037
    1SOL    HW310615   1.062   2.723   4.506 -0.2594 -0.6658 -2.3992
    1SOL    MW410616   1.145   2.708   4.485  0.6186  0.1853  0.2303
    1SOL     OW10617   1.800   0.834   4.512  0.0130  0.4256 -0.3683
    1SOL    HW210618   1.870   0.780   4.549  0.1848 -0.4267 -1.8802
    1SOL    HW310619   1.720   0.786   4.532  0.0252  0.4702 -0.2173
    1SOL    MW410620   1.799   0.820   4.519  0.0372  0.3191 -0.5479
    1SOL     OW10621   1.850   2.998   4.589  0.1415 -0.4680 -0.5415
    1SOL    HW210622   1.857   2.927   4.652  0.0830 -0.0615 -0.0796
    1SOL    HW310623   1.940   3.014   4.560  0.4806  0.9801  1.2388
    1SOL    MW410624   1.863   2.991   4.593  0.1786 -0.2234 -0.2460
    1SOL     OW10625   0.269   1.534   4.101  0.7187  0.6621  0.2886
    1SOL    HW210626   0.203   1.588   4.143  0.9857 -0.2950  1.9817
    1SOL    HW310627   0.352   1.566   4.136  1.0617  0.9573 -0.7840
    1SOL    MW410628   0.271   1.545   4.111  0.7992  0.5748  0.3705
    1SOL     OW10629   4.035   4.022   4.463  0.0470 -0.2757 -0.0813
    1SOL    HW210630   3.994   3.936   4.464 -0.0234 -0.2356  0.7324
    1SOL    HW310631   4.105   4.016   4.527 -1.0808  0.8274  1.2799
    1SOL    MW410632   4.039   4.010   4.471 -0.1116 -0.1254  0.2055
    1SOL     OW10633   4.278   0.177   4.752  0.0814  0.2478 -0.2140
    1SOL    HW210634   4.196   0.221   4.773  0.6229  1.1540 -0.0095
    1SOL    HW310635   4.340   0.247   4.733  1.4059 -0.3379  1.7251
    1SOL    MW410636   4.276   0.192   4.752  0.3276  0.2901  0.0687
    1SOL     OW10637   0.755   1.305   4.515  0.1845 -0.3177  0.6468
    1SOL    HW210638   0.810   1.374   4.551  1.5780 -0.4609 -1.1580
    1SOL    HW310639   0.806   1.225   4.525 -0.4353 -0.7240  0.5957
    1SOL    MW410640   0.769   1.304   4.521  0.2866 -0.3903  0.4020
    1SOL     OW10641   4.486   1.953   4.193 -0.3192 -0.4860 -0.3027
    1SOL    HW210642   4.511   1.860   4.192 -0.4686 -0.5195 -1.1250
    1SOL    HW310643   4.420   1.959   4.262 -0.9018 -1.1482 -0.7945
    1SOL    MW410644   4.481   1.941   4.202 -0.4158 -0.5778 -0.4764
    1SOL     OW10645   2.067   3.493   4.483  0.5191 -0.0860 -0.2018
    1SOL    HW210646   1.997   3.430   4.500 -0.4689  1.0498 -0.0017
    1SOL    HW310647   2.059   3.513   4.390  1.1369 -0.6041 -0.3723
    1SOL    MW410648   2.057   3.487   4.473  0.4699 -0.0048 -0.1984
    1SOL     OW10649   4.013   0.299   4.818  0.2232 -0.1380 -0.0574
    1SOL    HW210650   3.949   0.323   4.886 -0.3587  4.0918 -1.8763
    1SOL    HW310651   3.968   0.233   4.765 -1.0784 -0.1829  1.0791
    1SOL    MW410652   3.998   0.294   4.820 -0.0250  0.4142 -0.1478
    1SOL     OW10653   0.426   3.506   4.164  0.0382  0.0798  0.4324
    1SOL    HW210654   0.510   3.534   4.201  1.1208 -1.4329 -0.8114
    1SOL    HW310655   0.432   3.527   4.071  0.2226 -2.6683 -0.2116
    1SOL    MW410656   0.438   3.513   4.157  0.2054 -0.4826  0.1831
    1SOL     OW10657   3.229   1.603   4.508 -0.0707 -0.0393  0.2257
    1SOL    HW210658   3.188   1.628   4.425  2.5055  0.3144 -0.9979
    1SOL    HW310659   3.248   1.687   4.551  0.3750 -0.1576  0.2609
    1SOL    MW410660   3.226   1.618   4.502  0.3281 -0.0083  0.0687
    1SOL     OW10661   4.242   0.509   4.474 -0.1465 -0.4552 -0.3006
    1SOL    HW210662   4.329   0.479   4.499  0.7901  2.5280  0.2276
    1SOL    HW310663   4.245   0.517   4.379  0.3898  0.3083 -0.2215
    1SOL    MW410664   4.254   0.506   4.465  0.0477  0.0392 -0.2208
    1SOL     OW10665   3.324   0.639   4.457  0.7548  0.4753  0.0388
    1SOL    HW210666   3.396   0.585   4.492  0.1810  0.2185  0.8357
    1SOL    HW310667   3.362   0.726   4.448  1.4885  0.1029 -0.5929
    1SOL    MW410668   3.339   0.643   4.461  0.7758  0.3923  0.0606
    1SOL     OW10669   0.493   1.705   4.509  0.0204 -0.3932  0.2610
    1SOL    HW210670   0.408   1.741   4.536 -0.6414 -1.4928 -0.3474
    1SOL    HW310671   0.485   1.692   4.414  0.9000 -0.4309  0.1832
    1SOL    MW410672   0.481   1.708   4.500  0.0492 -0.5432  0.1707
    1SOL     OW10673   0.225   3.801   4.171 -0.4221 -0.2589  0.0588
    1SOL    HW210674   0.300   3.852   4.202  0.5806 -1.7574  0.1741
    1SOL    HW310675   0.149   3.845   4.208  0.4849  0.5486  0.9983
    1SOL    MW410676   0.225   3.813   4.180 -0.1701 -0.3500  0.1979
    1SOL     OW10677   2.261   0.869   4.256 -0.0365 -0.1872 -0.6430
    1SOL    HW210678   2.348   0.836   4.234  0.4210  0.1781  0.5897
    1SOL    HW310679   2.258   0.958   4.220  0.4453  0.1409  0.1137
    1SOL    MW410680   2.272   0.876   4.249  0.0875 -0.0957 -0.3805
    1SOL     OW10681   1.938   4.620   4.590  0.1467  0.2088  0.4119
    1SOL    HW210682   1.902   4.656   4.671 -2.2685  1.3746 -1.1134
    1SOL    HW310683   1.962   4.697   4.538  1.2596 -0.5158 -0.1536
    1SOL    MW410684   1.936   4.635   4.594 -0.0250  0.2675  0.1364
    1SOL     OW10685   4.053   3.577   4.584  0.5431  0.2156 -0.2980
    1SOL    HW210686   4.142   3.606   4.602  0.9026 -0.8272 -0.3611
    1SOL    HW310687   4.059   3.481   4.582 -0.6261  0.1311 -0.0340
    1SOL    MW410688   4.065   3.568   4.586  0.4363  0.0668 -0.2718
    1SOL     OW10689   0.860   0.027   4.513  0.5864 -0.0824 -0.3076
    1SOL    HW210690   0.773   0.011   4.476  0.0629  0.0210  0.8223
    1SOL    HW310691   0.900   0.092   4.456 -0.3986  0.4556 -0.3937
    1SOL    MW410692   0.854   0.034   4.501  0.3874  0.0022 -0.1702
    1SOL     OW10693   0.235   1.330   4.471  0.0832 -0.2049  0.2760
    1SOL    HW210694   0.257   1.299   4.383 -0.7673  0.5372 -0.2009
    1SOL    HW310695   0.320   1.349   4.511  0.4710 -0.4117 -0.4235
    1SOL    MW410696   0.249   1.328   4.464  0.0221 -0.1342  0.1206
    1SOL     OW10697   4.311   1.576   4.139 -0.1407  0.0843 -0.2646
    1SOL    HW210698   4.328   1.490   4.177 -1.6164  0.5658  1.5701
    1SOL    HW310699   4.304   1.560   4.045 -3.6863 -2.4177  0.3143
    1SOL    MW410700   4.312   1.563   4.132 -0.8030 -0.1824  0.0544
    1SOL     OW10701   2.934   1.554   4.149 -0.3406 -0.1830 -0.0144
    1SOL    HW210702   2.936   1.461   4.171 -2.4231 -0.6894 -1.8331
    1SOL    HW310703   2.858   1.589   4.195  0.2957  0.5849  0.4730
    1SOL    MW410704   2.924   1.547   4.158 -0.5314 -0.1484 -0.1898
    1SOL     OW10705   3.817   2.830   4.229  0.3011  0.2949  0.6164
    1SOL    HW210706   3.806   2.917   4.191  0.0684 -0.8692 -2.0378
    1SOL    HW310707   3.737   2.783   4.208  0.0292 -0.3199  2.8272
    1SOL    MW410708   3.805   2.835   4.221  0.2346  0.0601  0.5579
    1SOL     OW10709   3.788   1.995   4.514  0.5043 -0.1814 -0.3243
    1SOL    HW210710   3.717   2.054   4.537  0.5764 -0.0426 -0.4577
    1SOL    HW310711   3.809   2.017   4.423  0.4334 -0.5112 -0.4203
    1SOL    MW410712   3.782   2.006   4.505  0.5045 -0.2067 -0.3543
    1SOL     OW10713   4.349   1.556   4.606  0.1239  0.3355  0.3073
    1SOL    HW210714   4.342   1.618   4.679  0.7092  1.4304 -0.5548
    1SOL    HW310715   4.436   1.570   4.570  0.1429 -0.7657 -0.1079
    1SOL    MW410716   4.359   1.566   4.611  0.2041  0.3347  0.1388
    1SOL     OW10717   2.007   4.345   4.264  0.0775  0.3202 -0.6844
    1SOL    HW210718   2.022   4.433   4.228  2.0760  0.6073  0.7860
    1SOL    HW310719   2.077   4.292   4.228 -0.8370 -0.5772 -1.1592
    1SOL    MW410720   2.018   4.350   4.254  0.2208  0.2398 -0.5531
    1SOL     OW10721   2.674   4.259   4.643 -0.3192  0.3608 -0.2743
    1SOL    HW210722   2.737   4.188   4.659 -0.6147  0.2373  0.3514
    1SOL    HW310723   2.594   4.214   4.616 -0.3807  0.4742 -0.2806
    1SOL    MW410724   2.672   4.244   4.642 -0.3662  0.3595 -0.1926
    1SOL     OW10725   2.860   2.154   4.636 -0.4958 -0.2577  0.2200
    1SOL    HW210726   2.768   2.130   4.638 -0.6958  0.5141  0.3656
    1SOL    HW310727   2.861   2.249   4.620  0.2280 -0.0227  1.5589
    1SOL    MW410728   2.848   2.164   4.634 -0.4268 -0.1249  0.4158
    1SOL     OW10729   1.113   0.516   4.275  0.5720 -0.0960  0.1089
    1SOL    HW210730   1.102   0.525   4.369  0.5069 -0.4821  0.1392
    1SOL    HW310731   1.100   0.605   4.241  1.0470  0.1222  0.5035
    1SOL    MW410732   1.110   0.529   4.283  0.6261 -0.1182  0.1650
    1SOL     OW10733   0.502   0.741   4.482 -0.0920  0.5636 -0.5040
    1SOL    HW210734   0.422   0.733   4.534 -1.1182 -0.6194 -2.2074
    1SOL    HW310735   0.476   0.789   4.404  0.8207  0.0547 -1.1338
    1SOL    MW410736   0.488   0.746   4.479 -0.1070  0.3405 -0.8116
    1SOL     OW10737   0.678   0.471   4.206 -0.0940 -0.0824 -0.1052
    1SOL    HW210738   0.670   0.469   4.302  0.0273  0.9361 -0.0664
    1SOL    HW310739   0.679   0.564   4.184  0.1536 -0.3096 -1.0797
    1SOL    MW410740   0.677   0.483   4.216 -0.0453  0.0220 -0.2284
    1SOL     OW10741   1.265   2.201   4.558  0.1629  0.5870 -0.0127
    1SOL    HW210742   1.264   2.286   4.514  1.2345 -0.3832 -1.9951
    1SOL    HW310743   1.336   2.207   4.622 -0.4982  1.5487  0.6442
    1SOL    MW410744   1.274   2.213   4.561  0.2171  0.5860 -0.1869
    1SOL     OW10745   1.094   3.620   4.299  0.2258 -0.2594 -0.2004
    1SOL    HW210746   1.162   3.567   4.258  0.4768 -0.2092  0.1467
    1SOL    HW310747   1.012   3.579   4.271  0.4160 -0.7304 -0.0713
    1SOL    MW410748   1.092   3.607   4.290  0.2840 -0.3147 -0.1378
    1SOL     OW10749   3.134   3.186   4.272 -0.0782 -0.1965 -0.1904
    1SOL    HW210750   3.129   3.278   4.247  2.7503  0.0334 -0.0367
    1SOL    HW310751   3.125   3.186   4.368 -2.5189 -0.3372 -0.3866
    1SOL    MW410752   3.132   3.198   4.282 -0.0269 -0.1850 -0.1960
    1SOL     OW10753   3.269   2.793   4.908 -0.0316 -0.1178  0.1109
    1SOL    HW210754   3.330   2.811   4.837 -0.4631 -1.2446 -0.5640
    1SOL    HW310755   3.324   2.781   4.985  0.6317 -1.4064 -0.5470
    1SOL    MW410756   3.284   2.794   4.909 -0.0012 -0.4365 -0.0648
    1SOL     OW10757   0.729   1.294   4.239  0.2757  0.3165  0.3388
    1SOL    HW210758   0.723   1.291   4.335 -0.6030  0.5761  0.2964
    1SOL    HW310759   0.654   1.243   4.209  1.1506 -0.6643 -0.2159
    1SOL    MW410760   0.718   1.287   4.248  0.2752  0.2214  0.2604
    1SOL     OW10761   1.624   2.032   4.191 -0.5674 -0.1190 -0.1086
    1SOL    HW210762   1.669   1.953   4.161 -2.6394 -1.4304  0.1725
    1SOL    HW310763   1.632   2.029   4.286  0.6156  0.8034 -0.1625
    1SOL    MW410764   1.631   2.021   4.200 -0.6847 -0.1702 -0.0792
    1SOL     OW10765   1.340   2.943   4.588 -0.3075 -0.3481  0.1779
    1SOL    HW210766   1.297   3.027   4.573 -1.9461 -1.2700 -0.4752
    1SOL    HW310767   1.283   2.879   4.545 -0.5504 -2.1096  3.0226
    1SOL    MW410768   1.327   2.946   4.580 -0.5559 -0.7021  0.4673
    1SOL     OW10769   0.954   3.723   4.664 -0.3062 -0.6625  0.3824
    1SOL    HW210770   0.975   3.811   4.696 -0.1906 -0.9876  1.2392
    1SOL    HW310771   1.039   3.681   4.653 -0.3487 -0.5352 -0.4009
    1SOL    MW410772   0.968   3.729   4.667 -0.2965 -0.6883  0.3920
    1SOL     OW10773   4.442   3.487   4.135  0.2686  0.3111  0.2689
    1SOL    HW210774   4.522   3.528   4.169  1.9605 -0.6635 -2.4574
    1SOL    HW310775   4.452   3.489   4.040 -1.8365 -2.0881 -0.0458
    1SOL    MW410776   4.454   3.493   4.127  0.2141 -0.1342 -0.1321
    1SOL     OW10777   3.070   2.226   4.838 -0.3175 -0.4888 -0.0850
    1SOL    HW210778   3.053   2.315   4.807  0.7678 -0.1099  0.4009
    1SOL    HW310779   3.009   2.171   4.788 -0.8919  0.5070 -0.4808
    1SOL    MW410780   3.060   2.230   4.827 -0.2501 -0.3071 -0.0725
    1SOL     OW10781   4.279   3.958   4.614  0.7212 -0.1395  0.3605
    1SOL    HW210782   4.300   3.973   4.706  1.1181 -1.0381  0.4295
    1SOL    HW310783   4.354   3.992   4.566  0.6450  0.0689  0.3896
    1SOL    MW410784   4.292   3.964   4.620  0.7634 -0.2303  0.3738
    1SOL     OW10785   2.738   3.288   4.522 -0.1831 -0.2532  0.0244
    1SOL    HW210786   2.751   3.252   4.435  1.7664 -0.2486  0.2998
    1SOL    HW310787   2.682   3.224   4.566 -0.6475 -0.5683 -1.0089
    1SOL    MW410788   2.732   3.275   4.517  0.0129 -0.2944 -0.0758
    1SOL     OW10789   0.067   0.545   4.795  0.2996  0.3583 -0.1419
    1SOL    HW210790   0.005   0.612   4.825 -1.2541 -0.6217 -1.0516
    1SOL    HW310791   0.137   0.595   4.752  0.3180  1.5070  1.1838
    1SOL    MW410792   0.068   0.561   4.793  0.0970  0.3805 -0.0868
    1SOL     OW10793   2.977   1.219   4.531 -0.0834  0.0476  0.1092
    1SOL    HW210794   3.042   1.149   4.541  0.1595  0.4591  1.6893
    1SOL    HW310795   2.900   1.185   4.576  0.1258  0.8829  1.1194
    1SOL    MW410796   2.976   1.205   4.538 -0.0236  0.2122  0.4506
    1SOL     OW10797   1.562   3.563   4.226 -0.1777 -0.0488  0.3383
    1SOL    HW210798   1.477   3.529   4.198 -0.4489  0.3380  0.6803
    1SOL    HW310799   1.575   3.526   4.314 -0.1879  0.2287  0.4576
    1SOL    MW410800   1.552   3.553   4.234 -0.2149  0.0389  0.3996
    1SOL     OW10801   3.144   3.969   4.214  0.2019  0.1760 -0.0675
    1SOL    HW210802   3.228   3.936   4.182 -0.7309 -3.4276  0.8599
    1SOL    HW310803   3.142   3.944   4.307 -1.3784  1.2704  0.2193
    1SOL    MW410804   3.155   3.961   4.222 -0.1295 -0.1552  0.0925
    1SOL     OW10805   0.224   2.053   4.314  0.2783  0.0672  0.0761
    1SOL    HW210806   0.145   2.024   4.269 -0.6780  1.6183  0.7246
    1SOL    HW310807   0.295   2.033   4.253 -0.5146 -2.0675 -0.1766
    1SOL    MW410808   0.223   2.047   4.300  0.0475 -0.0095  0.1278
    1SOL     OW10809   1.909   1.876   4.422  0.2004  0.1524  0.2359
    1SOL    HW210810   1.958   1.952   4.390 -0.3639  0.6791  0.6227
    1SOL    HW310811   1.817   1.900   4.410  0.0220 -0.4626  0.3827
    1SOL    MW410812   1.904   1.889   4.416  0.1024  0.1408  0.3066
    1SOL     OW10813   2.981   3.424   4.659  0.0302  0.1145 -0.0046
    1SOL    HW210814   3.023   3.347   4.620 -0.6717 -1.2026  1.7975
    1SOL    HW310815   2.888   3.403   4.659 -0.2690  1.3996 -0.3986
    1SOL    MW410816   2.974   3.411   4.654 -0.1018  0.1101  0.1817
    1SOL     OW10817   0.741   3.443   4.536 -0.3488  0.5248  0.3515
    1SOL    HW210818   0.740   3.484   4.449  0.6525  0.6431  0.3880
    1SOL    HW310819   0.717   3.513   4.596 -0.9334  0.4711  0.1790
    1SOL    MW410820   0.738   3.457   4.532 -0.2938  0.5333  0.3333
    1SOL     OW10821   1.797   3.222   4.260  0.4356 -0.0535  0.1682
    1SOL    HW210822   1.718   3.177   4.232  0.4694  0.4776 -0.7983
    1SOL    HW310823   1.796   3.305   4.212  1.3000  0.1884  0.5546
    1SOL    MW410824   1.786   3.227   4.250  0.5541  0.0486  0.0916
    1SOL     OW10825   2.889   2.348   4.141  0.2568 -0.5211 -0.0844
    1SOL    HW210826   2.798   2.381   4.141  0.1517 -0.7939  1.1213
    1SOL    HW310827   2.907   2.328   4.049 -1.1007 -0.9885 -0.2615
    1SOL    MW410828   2.879   2.350   4.129  0.0639 -0.6187  0.0515
    1SOL     OW10829   2.741   3.889   4.504 -0.1398 -0.3205 -0.1768
    1SOL    HW210830   2.794   3.961   4.537 -0.8546 -0.1264  0.5584
    1SOL    HW310831   2.796   3.812   4.515  0.3599  0.0154 -0.3150
    1SOL    MW410832   2.755   3.889   4.510 -0.1683 -0.2506 -0.0987
    1SOL     OW10833   2.305   4.327   4.397  0.2508 -0.2416  0.6632
    1SOL    HW210834   2.232   4.367   4.443 -0.0375 -0.8420  0.7297
    1SOL    HW310835   2.341   4.264   4.459  1.0442  0.2906  0.7590
    1SOL    MW410836   2.300   4.324   4.411  0.3173 -0.2503  0.6843
    1SOL     OW10837   0.013   1.948   4.624  0.2550 -0.4183  0.3004
    1SOL    HW210838  -0.052   1.957   4.554  0.1771  1.2862  0.5722
    1SOL    HW310839   0.060   2.031   4.624  0.6957 -0.6572  1.8255
    1SOL    MW410840   0.010   1.960   4.615  0.3029 -0.2249  0.5374
    1SOL     OW10841   3.672   3.018   4.673 -0.3796  0.2048  0.0026
    1SOL    HW210842   3.736   2.958   4.635 -0.1213  0.7682 -0.4604
    1SOL    HW310843   3.719   3.101   4.682 -1.3075  0.8657 -1.1785
    1SOL    MW410844   3.687   3.021   4.669 -0.4678  0.3662 -0.2146
    1SOL     OW10845   1.786   1.816   4.118 -0.5935 -0.2035  0.4226
    1SOL    HW210846   1.763   1.845   4.030 -0.3914 -0.0800  0.4094
    1SOL    HW310847   1.878   1.840   4.128 -0.7095  0.0925  0.7914
    1SOL    MW410848   1.795   1.823   4.108 -0.5825 -0.1481  0.4692
    1SOL     OW10849   1.785   1.108   4.122  0.0779 -0.1170  0.1835
    1SOL    HW210850   1.792   1.024   4.168  2.1542 -0.3352 -0.4756
    1SOL    HW310851   1.855   1.161   4.160 -0.4575  0.9173 -0.2614
    1SOL    MW410852   1.795   1.104   4.133  0.2811 -0.0093  0.0377
    1SOL     OW10853   3.769   3.496   4.689  0.2207  0.6536 -0.5140
    1SOL    HW210854   3.772   3.401   4.680  0.1779  0.8100 -2.6387
    1SOL    HW310855   3.856   3.526   4.662  0.1692  1.2301 -0.0546
    1SOL    MW410856   3.781   3.487   4.684  0.2081  0.7503 -0.7334
    1SOL     OW10857   0.840   0.563   4.660 -0.1710  0.3426  0.0624
    1SOL    HW210858   0.785   0.506   4.606 -0.1395  1.3423 -1.0497
    1SOL    HW310859   0.794   0.569   4.744 -0.5144 -0.7715 -0.0382
    1SOL    MW410860   0.827   0.556   4.664 -0.2121  0.3275 -0.0968
    1SOL     OW10861   2.315   2.859   4.606  0.2644  0.1193  0.0482
    1SOL    HW210862   2.263   2.806   4.666 -0.8056 -1.2225 -2.0089
    1SOL    HW310863   2.372   2.795   4.561  1.5323  1.1848  0.1098
    1SOL    MW410864   2.316   2.843   4.608  0.2906  0.0830 -0.2151
    1SOL     OW10865   3.012   2.767   4.793  0.0513 -0.3110  0.1590
    1SOL    HW210866   3.084   2.775   4.855 -0.1923  0.8168  0.3022
    1SOL    HW310867   3.019   2.678   4.760  1.4154 -0.2664  0.2955
    1SOL    MW410868   3.022   2.756   4.797  0.1993 -0.1562  0.1960
    1SOL     OW10869   1.640   2.307   4.153  0.4098  0.4654 -0.4027
    1SOL    HW210870   1.716   2.331   4.206  0.8853  0.3181 -1.0144
    1SOL    HW310871   1.629   2.213   4.168  1.8471 -0.0109 -2.2161
    1SOL    MW410872   1.649   2.298   4.162  0.6622  0.3831 -0.7224
    1SOL     OW10873   1.288   1.796   4.414 -0.1406  0.3540 -0.1655
    1SOL    HW210874   1.234   1.875   4.423 -1.8633 -0.8745  0.7712
    1SOL    HW310875   1.354   1.804   4.482 -0.9242  0.5447  0.5895
    1SOL    MW410876   1.289   1.807   4.424 -0.4714  0.2171  0.0577
    1SOL     OW10877   4.060   4.616   4.494 -0.0400 -0.1867 -0.3171
    1SOL    HW210878   4.144   4.596   4.536  1.5050 -0.0502 -3.1562
    1SOL    HW310879   4.003   4.543   4.518  1.3126 -0.9733  0.5609
    1SOL    MW410880   4.064   4.604   4.502  0.3424 -0.2723 -0.5765
    1SOL     OW10881   2.112   3.007   4.481 -0.4731 -0.2038 -0.1693
    1SOL    HW210882   2.182   2.955   4.519 -0.0939  0.8115  0.5406
    1SOL    HW310883   2.099   2.970   4.393 -1.6178 -2.8034  1.0390
    1SOL    MW410884   2.119   2.995   4.474 -0.5744 -0.4127  0.0844
    1SOL     OW10885   4.273   3.890   4.131  0.2843 -0.0962  0.6597
    1SOL    HW210886   4.250   3.800   4.155  2.1574 -1.0113 -0.8478
    1SOL    HW310887   4.279   3.889   4.036  1.4473  1.3460  0.6924
    1SOL    MW410888   4.271   3.878   4.122  0.6843 -0.0265  0.4654
    1SOL     OW10889   0.875   2.728   4.535  0.4476  0.1342 -0.1006
    1SOL    HW210890   0.785   2.758   4.523  0.5857  1.1199  1.2389
    1SOL    HW310891   0.867   2.632   4.540 -0.1995  0.0292 -2.5295
    1SOL    MW410892   0.862   2.719   4.534  0.3803  0.2506 -0.2441
    1SOL     OW10893   1.181   0.988   4.473  0.0417  0.2070 -0.2135
    1SOL    HW210894   1.245   1.046   4.513 -1.1225  1.2906  0.1097
    1SOL    HW310895   1.218   0.966   4.388  0.1719  1.9977 -0.6266
    1SOL    MW410896   1.194   0.993   4.467 -0.0948  0.5862 -0.2255
    1SOL     OW10897   4.295   2.821   4.208 -0.0558  0.3906 -0.1465
    1SOL    HW210898   4.282   2.911   4.180 -0.8493 -0.3315 -2.1939
    1SOL    HW310899   4.211   2.778   4.190  0.9727 -1.2492 -1.1507
    1SOL    MW410900   4.282   2.827   4.202 -0.0253  0.0789 -0.5498
    1SOL     OW10901   0.251   0.006   4.109  0.1807 -0.3277 -0.4689
    1SOL    HW210902   0.344   0.021   4.129 -0.3878  1.2627  1.0734
    1SOL    HW310903   0.236  -0.085   4.133  0.8455 -0.0038  1.2542
    1SOL    MW410904   0.262  -0.004   4.115  0.1934 -0.0753 -0.0377
    1SOL     OW10905   3.243   1.879   4.594  0.4102  0.1989 -0.5792
    1SOL    HW210906   3.263   1.956   4.647  0.0695 -1.9623  2.8672
    1SOL    HW310907   3.148   1.882   4.583  0.6632  1.6336 -2.7780
    1SOL    MW410908   3.233   1.889   4.599  0.3986  0.1031 -0.4144
    1SOL     OW10909   0.500   1.134   4.160  0.2056 -0.2778  0.2480
    1SOL    HW210910   0.495   1.045   4.196  0.5181 -0.4423 -0.1108
    1SOL    HW310911   0.493   1.122   4.065 -0.5202  0.1492  0.2477
    1SOL    MW410912   0.498   1.120   4.152  0.1510 -0.2432  0.2007
    1SOL     OW10913   2.298   3.195   4.213  0.1019  0.0723  0.4324
    1SOL    HW210914   2.213   3.151   4.206  0.4073 -0.3399 -0.9309
    1SOL    HW310915   2.295   3.241   4.297 -1.3245 -0.2404  0.5629
    1SOL    MW410916   2.286   3.196   4.223 -0.0460 -0.0234  0.2699
    1SOL     OW10917   0.014   0.154   4.206  0.1758  0.1119 -0.1598
    1SOL    HW210918   0.101   0.116   4.194  0.5757  0.6189  0.9844
    1SOL    HW310919   0.020   0.241   4.166 -0.1579 -0.3005 -1.1035
    1SOL    MW410920   0.026   0.161   4.199  0.1845  0.1244 -0.1330
    1SOL     OW10921   1.497   4.266   4.607  0.0119  0.2087 -0.0400
    1SOL    HW210922   1.534   4.344   4.565 -1.3023  1.2403  0.6850
    1SOL    HW310923   1.405   4.287   4.620 -0.1860 -1.1634  0.9176
    1SOL    MW410924   1.490   4.279   4.603 -0.1874  0.1636  0.1822
    1SOL     OW10925   1.216   3.631   4.547  0.3415 -0.3234  0.6826
    1SOL    HW210926   1.283   3.564   4.554 -0.5342 -1.2753  0.0739
    1SOL    HW310927   1.170   3.612   4.465  0.0214  0.9571  0.5522
    1SOL    MW410928   1.219   3.619   4.537  0.1838 -0.2799  0.5851
    1SOL     OW10929   2.810   1.577   4.736 -0.4145  0.5843  0.1707
    1SOL    HW210930   2.890   1.535   4.703 -0.1238  1.6444 -0.5011
    1SOL    HW310931   2.826   1.587   4.830  0.1193  0.5077  0.0912
    1SOL    MW410932   2.823   1.573   4.744 -0.3059  0.7139  0.0720
    1SOL     OW10933   2.670   0.878   4.496  0.0086  0.1760  0.1909
    1SOL    HW210934   2.699   0.962   4.531  0.6255  0.2712 -0.5592
    1SOL    HW310935   2.576   0.876   4.514  0.2113  0.4724  1.3490
    1SOL    MW410936   2.661   0.889   4.503  0.1168  0.2276  0.2441
    1SOL     OW10937   1.293   0.913   4.232  0.1552 -0.3021  0.7188
    1SOL    HW210938   1.375   0.865   4.224 -0.6718 -1.3382 -2.0728
    1SOL    HW310939   1.308   0.995   4.186 -1.1319 -1.5606 -2.0240
    1SOL    MW410940   1.306   0.918   4.225 -0.1239 -0.6048 -0.0114
    1SOL     OW10941   4.064   1.172   4.634 -0.3107  0.2085 -0.3383
    1SOL    HW210942   4.012   1.182   4.714 -0.0346  1.6322 -0.3360
    1SOL    HW310943   4.061   1.078   4.616  0.1801 -0.2252  1.7166
    1SOL    MW410944   4.057   1.161   4.642 -0.2093  0.3392 -0.0668
    1SOL     OW10945   2.298   1.158   4.588  0.3485  0.1858  0.4267
    1SOL    HW210946   2.348   1.178   4.668  1.9621 -1.2468 -0.1676
    1SOL    HW310947   2.311   1.064   4.576  0.2538  0.4263 -1.6157
    1SOL    MW410948   2.307   1.148   4.597  0.5491  0.0285  0.0787
    1SOL     OW10949   1.356   3.214   4.276  0.0783 -0.0398  0.0110
    1SOL    HW210950   1.316   3.193   4.361  1.2083  0.6469  0.7191
    1SOL    HW310951   1.295   3.177   4.212 -1.4240  0.5079  1.0851
    1SOL    MW410952   1.342   3.206   4.279  0.0291  0.1233  0.2460
    1SOL     OW10953   1.135   2.296   4.157 -0.2507 -0.2706 -0.0900
    1SOL    HW210954   1.218   2.326   4.195 -0.2792  0.1259 -0.3449
    1SOL    HW310955   1.136   2.201   4.169 -0.8867 -0.0195  2.1855
    1SOL    MW410956   1.146   2.287   4.164 -0.3384 -0.1853  0.1764
    1SOL     OW10957   4.318   1.269   4.529 -0.1038 -0.4353 -0.2277
    1SOL    HW210958   4.328   1.356   4.567  0.2388 -0.5404 -0.0732
    1SOL    HW310959   4.238   1.234   4.569 -1.2610  0.5246 -1.6831
    1SOL    MW410960   4.309   1.276   4.539 -0.2112 -0.3223 -0.3996
    1SOL     OW10961   4.021   0.914   4.536 -0.1985 -0.1717 -0.1600
    1SOL    HW210962   3.932   0.917   4.571 -0.2939 -0.3011 -0.3842
    1SOL    HW310963   4.008   0.913   4.441  0.0363 -0.3849 -0.1879
    1SOL    MW410964   4.007   0.914   4.528 -0.1798 -0.2170 -0.1936
    1SOL     OW10965   3.440   1.171   4.521  0.3246 -0.2044 -0.1156
    1SOL    HW210966   3.429   1.216   4.437  0.4095  1.3220  0.6666
    1SOL    HW310967   3.524   1.203   4.555  0.5892 -1.2815  0.2632
    1SOL    MW410968   3.450   1.181   4.515  0.3707 -0.1451  0.0372
    1SOL     OW10969   3.131   4.013   4.698 -0.1811 -0.1860  0.0404
    1SOL    HW210970   3.156   3.972   4.781 -1.1517 -0.0435  0.4044
    1SOL    HW310971   3.210   4.060   4.671 -0.0955  0.4041  1.2758
    1SOL    MW410972   3.145   4.014   4.706 -0.2980 -0.0887  0.2513
    1SOL     OW10973   1.122   0.211   4.599 -0.1022  0.1479 -0.0482
    1SOL    HW210974   1.088   0.198   4.510  0.1830 -1.1087  0.0180
    1SOL    HW310975   1.064   0.159   4.655 -0.1232  0.7248  0.4722
    1SOL    MW410976   1.110   0.203   4.595 -0.0672  0.0582  0.0286
    1SOL     OW10977   0.186   2.200   4.572  0.3471 -0.1106  0.2339
    1SOL    HW210978   0.272   2.187   4.612  0.3749 -0.4274  0.0647
    1SOL    HW310979   0.192   2.158   4.486 -0.9372 -2.7894  1.3977
    1SOL    MW410980   0.199   2.193   4.566  0.1814 -0.5057  0.3653
    1SOL     OW10981   1.781   1.122   4.583 -0.7348 -0.1611 -0.2861
    1SOL    HW210982   1.872   1.151   4.571 -0.5417 -0.1265  1.1852
    1SOL    HW310983   1.780   1.033   4.548  0.1842 -0.6346  0.8561
    1SOL    MW410984   1.793   1.114   4.576 -0.5881 -0.2190  0.0587
    1SOL     OW10985   4.304   4.661   4.103  0.1692 -0.1857 -0.0485
    1SOL    HW210986   4.231   4.693   4.155 -0.8854  0.2134 -1.7376
    1SOL    HW310987   4.378   4.716   4.128 -0.5584  0.6232  0.3365
    1SOL    MW410988   4.304   4.672   4.113 -0.0658 -0.0262 -0.2203
    1SOL     OW10989   2.610   2.602   4.717  0.3739  0.4244  0.1431
    1SOL    HW210990   2.689   2.560   4.684  0.7022  0.8628  0.3636
    1SOL    HW310991   2.568   2.641   4.640 -0.6116 -1.4047 -0.2651
    1SOL    MW410992   2.615   2.602   4.703  0.2873  0.2406  0.1183
    1SOL     OW10993   2.212   4.221   4.734  0.3251 -0.4434  0.0913
    1SOL    HW210994   2.181   4.308   4.707  1.1988 -0.5119 -1.1577
    1SOL    HW310995   2.132   4.169   4.742 -0.0841  0.0518 -0.6863
    1SOL    MW410996   2.198   4.226   4.731  0.3862 -0.3872 -0.1764
    1SOL     OW10997   3.022   4.314   4.418 -0.2061  0.0617 -0.1926
    1SOL    HW210998   3.018   4.391   4.474 -1.5227 -0.9366  1.1583
    1SOL    HW310999   2.989   4.344   4.333 -2.6007  0.5618  0.8576
    1SOL    MW411000   3.017   4.328   4.414 -0.6957 -0.0038  0.1249
    1SOL     OW11001   3.551   4.330   4.691 -0.1166 -0.3134  0.3180
    1SOL    HW211002   3.543   4.399   4.624 -0.1116 -0.4586  0.1680
    1SOL    HW311003   3.638   4.293   4.677  0.1200  0.0567  0.7940
    1SOL    MW411004   3.561   4.334   4.680 -0.0846 -0.2842  0.3605
    1SOL     OW11005   3.310   2.145   4.689  0.0348 -0.2893  0.1555
    1SOL    HW211006   3.239   2.156   4.753  0.4999  1.3829  0.4098
    1SOL    HW311007   3.267   2.149   4.604 -0.2551  0.1012  0.3211
    1SOL    MW411008   3.295   2.147   4.686  0.0579 -0.0172  0.2108
    1SOL     OW11009   1.763   4.259   4.177 -0.0203  0.9754  0.2902
    1SOL    HW211010   1.768   4.248   4.082  0.6824  1.1975  0.3003
    1SOL    HW311011   1.850   4.289   4.203 -0.1785  0.8189  1.0202
    1SOL    MW411012   1.775   4.262   4.168  0.0515  0.9837  0.3881
    1SOL     OW11013   2.644   1.338   4.374  0.3177  0.1248  0.3174
    1SOL    HW211014   2.665   1.281   4.301  0.8086  1.6078 -0.7356
    1SOL    HW311015   2.666   1.426   4.342 -0.8416  0.9455  1.7141
    1SOL    MW411016   2.650   1.342   4.360  0.2296  0.4287  0.3629
    1SOL     OW11017   0.677   4.187   4.584 -0.6239  0.0205  0.0231
    1SOL    HW211018   0.667   4.245   4.660  0.1597  0.2501 -0.0494
    1SOL    HW311019   0.770   4.165   4.582 -0.8620 -1.0028 -0.1295
    1SOL    MW411020   0.688   4.192   4.594 -0.5519 -0.0844 -0.0062
    1SOL     OW11021   3.089   0.123   4.483 -0.2363 -0.4614 -0.1471
    1SOL    HW211022   3.153   0.172   4.534  0.3612 -0.0790 -1.2483
    1SOL    HW311023   3.005   0.164   4.503  0.3815  1.7574 -1.8892
    1SOL    MW411024   3.087   0.135   4.492 -0.0758 -0.1182 -0.5226
    1SOL     OW11025   4.077   1.715   4.229 -0.4728 -0.1312 -0.2449
    1SOL    HW211026   4.148   1.667   4.185 -1.2640 -1.3895 -0.1627
    1SOL    HW311027   4.091   1.698   4.322 -0.8288 -0.2954 -0.2231
    1SOL    MW411028   4.088   1.706   4.235 -0.6242 -0.3189 -0.2313
    1SOL     OW11029   1.819   1.867   4.687 -0.0006 -0.2133 -0.0658
    1SOL    HW211030   1.837   1.863   4.593 -0.2385 -0.4639 -0.1001
    1SOL    HW311031   1.748   1.804   4.701 -0.5634  0.4630  0.1382
    1SOL    MW411032   1.812   1.858   4.677 -0.1063 -0.1574 -0.0429
    1SOL     OW11033   0.461   2.171   4.633  0.1928  0.2910  0.0619
    1SOL    HW211034   0.510   2.207   4.707 -0.3180  0.7045  0.2019
    1SOL    HW311035   0.523   2.114   4.588  0.4219 -0.1511  0.9502
    1SOL    MW411036   0.476   2.168   4.637  0.1557  0.2873  0.1979
    1SOL     OW11037   2.860   2.627   4.318 -0.2152 -0.1450 -0.6373
    1SOL    HW211038   2.842   2.720   4.334  0.4834  0.0104 -0.7167
    1SOL    HW311039   2.790   2.599   4.260  0.6514  0.8475 -2.2338
    1SOL    MW411040   2.849   2.636   4.313 -0.0088  0.0064 -0.8583
    1SOL     OW11041   1.542   0.768   4.206  0.5417  0.1386  0.3655
    1SOL    HW211042   1.632   0.789   4.231  0.8152 -1.0861  0.4458
    1SOL    HW311043   1.543   0.768   4.110  0.6296  0.0775  0.3667
    1SOL    MW411044   1.554   0.771   4.197  0.5893 -0.0311  0.3757
    1SOL     OW11045   3.558   2.150   4.571  0.2552  0.2190 -0.1728
    1SOL    HW211046   3.486   2.143   4.634  0.8277 -0.7534  0.3804
    1SOL    HW311047   3.546   2.237   4.532 -0.0883  0.8544  1.3054
    1SOL    MW411048   3.547   2.161   4.574  0.2856  0.1743  0.0954
    1SOL     OW11049   4.041   4.015   4.186  0.0799  0.7276  0.7195
    1SOL    HW211050   4.121   3.964   4.170 -0.5243  0.1997 -0.7105
    1SOL    HW311051   4.038   4.025   4.281  0.4701 -1.5070  1.0046
    1SOL    MW411052   4.052   4.009   4.196  0.0510  0.3629  0.5684
    1SOL     OW11053   2.883   4.103   4.599  0.2252  0.1978  0.3595
    1SOL    HW211054   2.969   4.084   4.636  0.0994 -0.3538  0.3723
    1SOL    HW311055   2.899   4.171   4.533  0.6521  0.1608  0.4261
    1SOL    MW411056   2.897   4.110   4.595  0.2646  0.1197  0.3700
    1SOL     OW11057   0.250   0.466   4.478 -0.0332  0.1710 -0.0673
    1SOL    HW211058   0.309   0.394   4.500  1.4706  1.5266  0.4534
    1SOL    HW311059   0.266   0.482   4.385  0.0252  0.1748 -0.0563
    1SOL    MW411060   0.260   0.459   4.469  0.1729  0.3504  0.0029
    1SOL     OW11061   0.943   3.213   4.520 -0.0213  0.2463  0.1017
    1SOL    HW211062   0.891   3.292   4.537  0.6701  0.1873  2.7108
    1SOL    HW311063   0.900   3.144   4.570 -0.0673 -0.8367 -1.4059
    1SOL    MW411064   0.930   3.215   4.529  0.0638  0.0956  0.2475
    1SOL     OW11065   0.188   2.477   4.490 -0.1577  0.4547  0.2290
    1SOL    HW211066   0.281   2.501   4.482  0.1780 -0.5437  1.0669
    1SOL    HW311067   0.188   2.396   4.540 -1.4675  0.2162 -0.1341
    1SOL    MW411068   0.200   2.470   4.495 -0.2862  0.2916  0.2913
    1SOL     OW11069   2.204   1.699   4.566 -0.2206  0.2691  0.3061
    1SOL    HW211070   2.173   1.784   4.600 -0.8009  0.6080 -1.0548
    1SOL    HW311071   2.127   1.643   4.572 -0.6379  0.6278 -1.4372
    1SOL    MW411072   2.190   1.703   4.572 -0.3524  0.3611 -0.1030
    1SOL     OW11073   0.458   0.896   4.255  0.1626 -0.0182 -0.0902
    1SOL    HW211074   0.530   0.850   4.212  1.1818 -2.2841  3.7910
    1SOL    HW311075   0.381   0.874   4.203  1.7306 -0.1879 -2.4593
    1SOL    MW411076   0.457   0.887   4.243  0.5040 -0.3396  0.1097
    1SOL     OW11077   2.040   1.238   4.517 -0.3226 -0.2864  0.1208
    1SOL    HW211078   2.124   1.203   4.545  1.3833  0.5405 -3.5901
    1SOL    HW311079   2.048   1.333   4.530  0.2061  0.0234 -2.3031
    1SOL    MW411080   2.052   1.246   4.522 -0.0279 -0.1364 -0.6890
    1SOL     OW11081   3.526   2.403   4.491 -0.1838 -0.1391 -0.8453
    1SOL    HW211082   3.544   2.427   4.400 -1.1744 -0.7767 -1.2193
    1SOL    HW311083   3.436   2.432   4.507 -0.7161 -1.7778 -0.6984
    1SOL    MW411084   3.516   2.410   4.481 -0.3846 -0.4394 -0.8745
    1SOL     OW11085   2.335   2.490   4.714 -0.0128  0.6643 -0.4651
    1SOL    HW211086   2.330   2.474   4.619 -0.2242 -2.3575  0.0322
    1SOL    HW311087   2.426   2.514   4.729  0.3293 -0.1235 -1.2451
    1SOL    MW411088   2.346   2.491   4.703  0.0043  0.1616 -0.5021
    1SOL     OW11089   1.136   1.300   4.185 -0.3377 -0.3799  0.1553
    1SOL    HW211090   1.215   1.262   4.146 -0.8812 -0.4548 -0.8999
    1SOL    HW311091   1.165   1.334   4.269  0.6112 -1.2860  0.2121
    1SOL    MW411092   1.151   1.300   4.191 -0.2841 -0.5094  0.0238
    1SOL     OW11093   3.216   1.139   4.676 -0.2287  0.4389  0.2922
    1SOL    HW211094   3.283   1.172   4.616 -1.7694  0.4151 -1.4655
    1SOL    HW311095   3.169   1.218   4.703  0.3116  0.4216  1.3244
    1SOL    MW411096   3.219   1.154   4.672 -0.3607  0.4334  0.1960
    1SOL     OW11097   1.785   3.983   4.235  0.3054 -0.3255 -0.0698
    1SOL    HW211098   1.798   4.077   4.225 -2.0743 -0.0741 -1.2031
    1SOL    HW311099   1.750   3.972   4.324  1.8487 -0.3251  0.5627
    1SOL    MW411100   1.782   3.994   4.246  0.1949 -0.2925 -0.1359
    1SOL     OW11101   4.034   0.898   4.254  0.6664 -0.1196  0.5792
    1SOL    HW211102   3.957   0.853   4.220 -0.0071  1.6126 -0.2268
    1SOL    HW311103   4.108   0.842   4.228 -0.0410 -0.0809 -1.6156
    1SOL    MW411104   4.034   0.885   4.246  0.4845  0.1141  0.1836
    1SOL     OW11105   0.307   0.491   4.201  0.0276 -0.6958  0.1808
    1SOL    HW211106   0.219   0.469   4.170 -0.6754 -0.8128  2.2112
    1SOL    HW311107   0.364   0.426   4.160 -1.1844 -2.3107  1.0010
    1SOL    MW411108   0.303   0.480   4.191 -0.2251 -0.9243  0.5569
    1SOL     OW11109   1.242   3.185   4.538 -0.3101 -0.1461  0.3890
    1SOL    HW211110   1.287   3.262   4.572 -0.0960  0.8590 -2.0441
    1SOL    HW311111   1.149   3.208   4.543 -0.3076 -0.2055  0.7376
    1SOL    MW411112   1.235   3.199   4.543 -0.2815 -0.0215  0.1140
    1SOL     OW11113   1.769   3.722   4.614 -0.0636 -0.5040  0.4280
    1SOL    HW211114   1.745   3.765   4.696 -0.5786 -0.7880  0.4296
    1SOL    HW311115   1.863   3.739   4.604  0.2264 -1.3476  1.6049
    1SOL    MW411116   1.778   3.730   4.624 -0.0932 -0.6526  0.5836
    1SOL     OW11117   0.026   3.988   4.232 -0.1592 -0.0870 -0.2492
    1SOL    HW211118  -0.057   3.948   4.206 -0.1457 -0.5062  0.3453
    1SOL    HW311119   0.030   4.070   4.182 -0.7791 -0.2213 -0.5185
    1SOL    MW411120   0.016   3.993   4.222 -0.2393 -0.1600 -0.2065
    1SOL     OW11121   0.692   4.309   4.327 -0.7041  0.1564 -0.0814
    1SOL    HW211122   0.684   4.267   4.412 -0.1231  0.4141  0.1064
    1SOL    HW311123   0.610   4.289   4.282 -1.7918  1.5010  1.2058
    1SOL    MW411124   0.680   4.301   4.332 -0.7709  0.3681  0.1135
    1SOL     OW11125   0.459   3.407   4.534 -0.8453  0.3367 -0.6692
    1SOL    HW211126   0.554   3.418   4.539 -0.8604 -0.4024  1.9539
    1SOL    HW311127   0.424   3.496   4.542 -0.4053  0.5354 -0.9155
    1SOL    MW411128   0.467   3.420   4.536 -0.7892  0.2654 -0.3552
    1SOL     OW11129   0.064   0.406   4.117  0.1078 -0.1585 -0.2013
    1SOL    HW211130   0.059   0.413   4.021 -2.1453 -0.0489 -0.1109
    1SOL    HW311131  -0.025   0.425   4.147  0.8491  0.0801  1.9480
    1SOL    MW411132   0.051   0.410   4.108 -0.0916 -0.1126  0.0944
    1SOL     OW11133   1.392   1.911   4.096  0.0315 -0.0679  0.5132
    1SOL    HW211134   1.458   1.966   4.138  2.9710 -1.2418 -2.2988
    1SOL    HW311135   1.402   1.825   4.137 -0.9804  0.2095  1.3307
    1SOL    MW411136   1.402   1.907   4.107  0.2857 -0.1863  0.2499
    1SOL     OW11137   1.571   3.078   4.151  0.1841  0.0178 -0.1231
    1SOL    HW211138   1.507   3.098   4.219 -0.0703 -0.8596 -0.1070
    1SOL    HW311139   1.593   2.986   4.164  1.9871  0.4805  0.3284
    1SOL    MW411140   1.566   3.068   4.162  0.3884 -0.0367 -0.0610
    1SOL     OW11141   2.520   3.585   4.232 -0.1271  0.2668 -0.1767
    1SOL    HW211142   2.431   3.550   4.228 -0.3275  0.8498 -1.0694
    1SOL    HW311143   2.522   3.636   4.313  0.0143 -1.3704  0.8703
    1SOL    MW411144   2.508   3.587   4.242 -0.1347  0.1276 -0.1564
    1SOL     OW11145   2.516   2.340   4.123  0.5079  0.0399 -0.5193
    1SOL    HW211146   2.429   2.352   4.159  1.1441  1.5219  0.5941
    1SOL    HW311147   2.546   2.256   4.159  1.2009  1.5735  2.6616
    1SOL    MW411148   2.509   2.330   4.133  0.6833  0.4377  0.0477
    1SOL     OW11149   0.000   4.072   4.497  0.1736  0.4869  0.1859
    1SOL    HW211150   0.008   4.045   4.405 -0.9067 -1.3753  0.6000
    1SOL    HW311151  -0.026   4.164   4.493  0.0455  0.3985 -1.3827
    1SOL    MW411152  -0.002   4.080   4.484  0.0143  0.2298  0.0339
    1SOL     OW11153   0.924   2.428   4.261 -0.2894 -0.3883  0.3690
    1SOL    HW211154   0.848   2.382   4.225  0.7569  0.7317 -3.5294
    1SOL    HW311155   0.999   2.374   4.237  0.4017  0.0191  1.5680
    1SOL    MW411156   0.924   2.415   4.253 -0.0602 -0.1869  0.0129
    1SOL     OW11157   2.068   1.500   4.183  0.8332  0.1235  0.2502
    1SOL    HW211158   2.141   1.559   4.203 -0.0862  1.0237  0.9798
    1SOL    HW311159   2.055   1.508   4.089  1.4101  0.2642  0.1811
    1SOL    MW411160   2.076   1.509   4.173  0.7880  0.2607  0.3376
    1SOL     OW11161   2.298   3.893   4.538  0.1598  0.0939 -0.0463
    1SOL    HW211162   2.274   3.912   4.447  0.4358  0.3165 -0.0756
    1SOL    HW311163   2.370   3.830   4.531  1.3154  1.3825 -0.0328
    1SOL    MW411164   2.304   3.888   4.525  0.3488  0.2933 -0.0482
    1SOL     OW11165   4.092   1.636   4.526 -0.3313  0.0384 -0.3862
    1SOL    HW211166   4.036   1.557   4.529 -0.8497  0.4749  1.9343
    1SOL    HW311167   4.181   1.602   4.531 -0.5225 -0.4378 -0.1474
    1SOL    MW411168   4.096   1.621   4.527 -0.4244  0.0333 -0.0486
    1SOL     OW11169   3.860   1.578   4.142  0.0451 -0.0125  0.3336
    1SOL    HW211170   3.779   1.603   4.186 -0.1795 -0.5069  0.2051
    1SOL    HW311171   3.929   1.620   4.193 -0.1016 -1.7522  2.0201
    1SOL    MW411172   3.858   1.587   4.154 -0.0036 -0.3072  0.5393
    1SOL     OW11173   4.333   1.305   4.254  0.0074  0.3124  0.1372
    1SOL    HW211174   4.251   1.265   4.226 -0.5504  0.8878  0.9017
    1SOL    HW311175   4.325   1.310   4.350  0.3334  1.6795  0.0923
    1SOL    MW411176   4.321   1.300   4.263 -0.0238  0.5687  0.2317
    1SOL     OW11177   2.258   0.089   4.205  0.5372  0.1273  0.7058
    1SOL    HW211178   2.348   0.061   4.186  0.8207 -0.1281  2.3218
    1SOL    HW311179   2.262   0.121   4.296 -0.8636  0.7259  0.5635
    1SOL    MW411180   2.271   0.090   4.215  0.3898  0.1726  0.8998
    1SOL     OW11181   0.938   1.496   4.644  0.2042 -0.0806 -0.0414
    1SOL    HW211182   0.992   1.554   4.590 -0.8894  1.6468  0.6850
    1SOL    HW311183   1.000   1.432   4.679  1.5288  0.9711 -0.4222
    1SOL    MW411184   0.954   1.495   4.641  0.2346  0.2861  0.0038
    1SOL     OW11185   1.362   1.113   4.659 -0.6987  0.2272 -0.3612
    1SOL    HW211186   1.405   1.029   4.676 -1.4719 -0.5228 -1.9668
    1SOL    HW311187   1.430   1.178   4.672  0.1996 -0.7282 -0.2128
    1SOL    MW411188   1.376   1.110   4.663 -0.6822  0.0021 -0.5531
    1SOL     OW11189   3.396   1.297   4.268 -0.0679 -0.1087 -0.1065
    1SOL    HW211190   3.396   1.390   4.246  0.3564  0.3077  1.6014
    1SOL    HW311191   3.316   1.263   4.228  0.3994  0.7263 -1.7790
    1SOL    MW411192   3.385   1.305   4.260  0.0496  0.0565 -0.1020
    1SOL     OW11193   1.799   0.856   4.244 -0.3256  0.1684 -0.7325
    1SOL    HW211194   1.874   0.801   4.223 -0.3924  0.4960 -1.8135
    1SOL    HW311195   1.793   0.851   4.340 -0.0746 -1.3566 -0.7750
    1SOL    MW411196   1.808   0.848   4.254 -0.3014  0.0104 -0.8807
    1SOL     OW11197   1.647   1.534   4.095  0.6319 -0.5315 -0.1897
    1SOL    HW211198   1.719   1.590   4.123  0.9019 -1.0804  0.2026
    1SOL    HW311199   1.568   1.578   4.128  0.7976 -0.0084 -0.4976
    1SOL    MW411200   1.646   1.547   4.103  0.6893 -0.5350 -0.1793
    1SOL     OW11201   2.170   1.978   4.630 -0.5501 -0.0843  0.3493
    1SOL    HW211202   2.234   2.039   4.665 -0.4088 -0.6592  1.1186
    1SOL    HW311203   2.132   2.022   4.554 -0.2226  0.8141  0.7101
    1SOL    MW411204   2.173   1.992   4.625 -0.4885 -0.0416  0.4988
    1SOL     OW11205   3.320   2.319   4.121  0.7093 -0.3148 -0.1428
    1SOL    HW211206   3.352   2.299   4.033  0.5150  2.3442 -0.8835
    1SOL    HW311207   3.399   2.343   4.170  0.6036  0.0385 -0.1427
    1SOL    MW411208   3.335   2.320   4.116  0.6697  0.0825 -0.2403
    1SOL     OW11209   2.246   3.276   4.479  0.1238 -0.0625  0.4647
    1SOL    HW211210   2.205   3.191   4.495 -1.1291  0.4748  0.1268
    1SOL    HW311211   2.176   3.340   4.493  0.8337  0.8611 -0.1273
    1SOL    MW411212   2.231   3.273   4.483  0.0522  0.1302  0.3419
    1SOL     OW11213   1.848   2.341   4.362 -0.0956  0.1779 -0.5837
    1SOL    HW211214   1.914   2.368   4.299 -0.3813  0.6782 -0.6725
    1SOL    HW311215   1.877   2.381   4.445  0.7260 -1.1509 -0.2006
    1SOL    MW411216   1.861   2.350   4.365 -0.0249  0.0687 -0.5445
    1SOL     OW11217   3.916   1.405   4.509  0.0025  0.6650 -0.1052
    1SOL    HW211218   3.977   1.342   4.547  0.0604  1.2649  0.8366
    1SOL    HW311219   3.887   1.365   4.427 -0.8969 -1.1165  1.0589
    1SOL    MW411220   3.920   1.392   4.503 -0.1085  0.5090  0.1726
    1SOL     OW11221   0.613   4.626   4.727 -0.1752  0.1042  0.1744
    1SOL    HW211222   0.529   4.644   4.685  0.1648  0.3633 -0.4072
    1SOL    HW311223   0.677   4.672   4.673  0.2957  0.2505  0.8568
    1SOL    MW411224   0.611   4.634   4.714 -0.0682  0.1578  0.1879
    1SOL     OW11225   2.836   2.435   4.533 -0.4009  0.0672  0.0767
    1SOL    HW211226   2.765   2.386   4.493  0.7040 -0.7248 -0.9452
    1SOL    HW311227   2.868   2.492   4.463 -0.3409  0.7611  0.6676
    1SOL    MW411228   2.831   2.436   4.518 -0.2475  0.0544  0.0200
    1SOL     OW11229   2.938   3.020   4.139  0.0230  0.2827 -0.3358
    1SOL    HW211230   2.952   3.053   4.050  1.1587  0.7306  0.0046
    1SOL    HW311231   3.006   3.061   4.192 -0.8635  0.2994  0.8257
    1SOL    MW411232   2.949   3.029   4.134  0.0558  0.3438 -0.1373
    1SOL     OW11233   1.598   2.923   4.479 -0.1272 -0.0894  0.0532
    1SOL    HW211234   1.664   2.972   4.529 -0.4185 -1.2556  1.6133
    1SOL    HW311235   1.517   2.933   4.530 -0.3084 -1.7390  0.0941
    1SOL    MW411236   1.596   2.931   4.493 -0.1894 -0.4611  0.2646
    1SOL     OW11237   1.866   0.394   4.654 -0.0456 -0.0431 -0.0456
    1SOL    HW211238   1.893   0.486   4.652  0.6026 -0.2425 -0.2715
    1SOL    HW311239   1.783   0.393   4.606 -0.2046  0.4740  0.2153
    1SOL    MW411240   1.858   0.406   4.647  0.0188 -0.0012 -0.0410
    1SOL     OW11241   1.600   1.288   4.686 -0.0797 -0.5252 -0.1230
    1SOL    HW211242   1.667   1.224   4.663  0.6965  0.0491  0.4754
    1SOL    HW311243   1.562   1.315   4.603  1.4859  0.2571 -0.6007
    1SOL    MW411244   1.604   1.283   4.672  0.2294 -0.3463 -0.1073
    1SOL     OW11245   0.353   2.959   4.534  0.2089  0.1582 -0.1368
    1SOL    HW211246   0.319   3.034   4.583  0.2764  0.0667  0.0496
    1SOL    HW311247   0.278   2.900   4.526  0.4709 -0.3151  0.7984
    1SOL    MW411248   0.338   2.961   4.539  0.2523  0.0839  0.0110
    1SOL     OW11249   3.155   2.153   4.452 -0.2733 -0.3085  0.0435
    1SOL    HW211250   3.143   2.229   4.396  0.1526 -0.1364  0.1874
    1SOL    HW311251   3.066   2.120   4.467 -0.4010 -0.2631 -0.6001
    1SOL    MW411252   3.142   2.158   4.446 -0.2339 -0.2799 -0.0224
    1SOL     OW11253   3.793   4.154   4.603 -0.0837 -0.7860 -0.1565
    1SOL    HW211254   3.734   4.089   4.567  0.4724 -0.7184 -1.2126
    1SOL    HW311255   3.880   4.115   4.596  0.0429 -0.7281  1.0218
    1SOL    MW411256   3.797   4.140   4.597  0.0064 -0.7691 -0.1402
    1SOL     OW11257   3.279   2.811   4.501 -0.2894  0.5649  0.3519
    1SOL    HW211258   3.201   2.837   4.550 -0.2774  1.0829  0.1013
    1SOL    HW311259   3.351   2.824   4.564 -0.2249  1.6556  0.0613
    1SOL    MW411260   3.278   2.816   4.516 -0.2792  0.7772  0.2809
    1SOL     OW11261   0.383   3.647   4.599  0.8094  0.3222  0.7149
    1SOL    HW211262   0.332   3.726   4.581  0.2079 -0.4140 -0.9003
    1SOL    HW311263   0.473   3.677   4.606  0.6704  1.0507 -0.6176
    1SOL    MW411264   0.388   3.661   4.598  0.7117  0.3211  0.3266
    1SOL     OW11265   3.192   0.374   4.141 -0.0912 -0.3452 -0.0246
    1SOL    HW211266   3.118   0.426   4.172  0.2357 -0.0898  0.3280
    1SOL    HW311267   3.268   0.433   4.148  0.0777 -0.4663 -0.7751
    1SOL    MW411268   3.192   0.389   4.146 -0.0255 -0.3274 -0.0768
    1SOL     OW11269   0.207   3.052   4.182  0.1621 -0.0756 -0.2147
    1SOL    HW211270   0.272   3.098   4.235 -0.6831 -0.6175  1.3364
    1SOL    HW311271   0.125   3.100   4.197 -0.4135 -1.1791  0.2509
    1SOL    MW411272   0.204   3.064   4.191 -0.0254 -0.2925  0.0515
    1SOL     OW11273   1.577   0.650   4.573  0.3912 -0.0146  0.0242
    1SOL    HW211274   1.575   0.554   4.570 -0.4033 -0.1260  2.8502
    1SOL    HW311275   1.487   0.675   4.594  0.3489  1.4330 -1.7914
    1SOL    MW411276   1.565   0.641   4.576  0.2809  0.1616  0.1578
    1SOL     OW11277   2.275   3.458   4.127 -0.1516  0.2920 -0.1577
    1SOL    HW211278   2.275   3.365   4.150  0.1525  0.4505  0.4722
    1SOL    HW311279   2.192   3.491   4.160  0.5150  0.6373  1.1903
    1SOL    MW411280   2.264   3.450   4.134 -0.0234  0.3583  0.1030
    1SOL     OW11281   3.500   0.445   4.547 -0.2787  0.3181  0.0764
    1SOL    HW211282   3.529   0.354   4.558 -0.5792  0.1629 -0.3949
    1SOL    HW311283   3.580   0.496   4.541 -0.1038 -0.0564 -0.8143
    1SOL    MW411284   3.514   0.440   4.548 -0.2949  0.2483 -0.1030
    1SOL     OW11285   2.246   0.686   4.657 -0.6129  0.4299  0.1967
    1SOL    HW211286   2.310   0.625   4.619 -0.5031  1.8076 -1.8502
    1SOL    HW311287   2.235   0.655   4.747  3.0854  0.2603  0.6634
    1SOL    MW411288   2.253   0.674   4.664 -0.1104  0.5893 -0.0119
    1SOL     OW11289   4.292   3.142   4.522 -0.0678 -0.4411 -0.3254
    1SOL    HW211290   4.321   3.051   4.528  0.7302 -0.1325  0.6651
    1SOL    HW311291   4.370   3.194   4.541 -0.4718  0.4630 -1.0625
    1SOL    MW411292   4.306   3.137   4.525 -0.0157 -0.2813 -0.2918
    1SOL     OW11293   2.223   0.375   4.159 -0.3470 -0.3299  0.2215
    1SOL    HW211294   2.223   0.369   4.063  1.6442 -1.1850  0.2576
    1SOL    HW311295   2.228   0.284   4.189 -0.3936 -0.0366  1.1406
    1SOL    MW411296   2.224   0.362   4.150 -0.0906 -0.4040  0.3481
    1SOL     OW11297   3.575   0.906   4.221 -0.0288  0.4245 -0.3723
    1SOL    HW211298   3.493   0.871   4.187 -0.6516  1.7170 -0.2498
    1SOL    HW311299   3.577   0.997   4.190 -0.0992  1.3202  2.1095
    1SOL    MW411300   3.565   0.913   4.212 -0.1204  0.7132 -0.0281
    1SOL     OW11301   0.628   2.855   4.483  0.1419 -0.1504 -0.0993
    1SOL    HW211302   0.538   2.882   4.503  0.6632  0.7709  1.0189
    1SOL    HW311303   0.631   2.851   4.387 -0.5781  1.5620 -0.2081
    1SOL    MW411304   0.616   2.858   4.473  0.1157  0.1972  0.0339
    1SOL     OW11305   2.218   1.722   4.272 -0.4728 -0.2053  0.6293
    1SOL    HW211306   2.162   1.796   4.251 -0.6474 -0.4708  0.1456
    1SOL    HW311307   2.224   1.722   4.368 -0.4270  0.4609  0.6314
    1SOL    MW411308   2.212   1.732   4.282 -0.4900 -0.1525  0.5655
    1SOL     OW11309   0.924   1.680   4.199  0.3180 -0.3364  0.2237
    1SOL    HW211310   0.837   1.641   4.203 -0.0826  0.5686  0.4721
    1SOL    HW311311   0.908   1.773   4.185  1.2805 -0.3972 -1.4382
    1SOL    MW411312   0.910   1.687   4.198  0.3921 -0.2249  0.0372
    1SOL     OW11313   3.627   1.667   4.270 -0.3430 -0.0161  0.2608
    1SOL    HW211314   3.627   1.682   4.365  0.3329  0.5553  0.1723
    1SOL    HW311315   3.549   1.613   4.255 -0.2199 -0.4764  1.1971
    1SOL    MW411316   3.617   1.662   4.281 -0.2375 -0.0014  0.3729
    1SOL     OW11317   3.340   2.831   4.234 -0.5798  0.0085 -0.1503
    1SOL    HW211318   3.257   2.806   4.193 -0.4679  0.0037 -0.3736
    1SOL    HW311319   3.321   2.829   4.328 -0.6902 -0.4762 -0.1823
    1SOL    MW411320   3.326   2.828   4.241 -0.5796 -0.0563 -0.1841
    1SOL     OW11321   3.463   2.823   4.701  0.1638  0.0656 -0.4074
    1SOL    HW211322   3.522   2.748   4.702  0.2098  0.0990  0.6996
    1SOL    HW311323   3.521   2.899   4.697  0.2451  0.1148  1.1568
    1SOL    MW411324   3.478   2.823   4.701  0.1807  0.0765 -0.0553
    1SOL     OW11325   0.996   4.472   4.634  0.0616  0.4142  0.6681
    1SOL    HW211326   0.919   4.422   4.661  1.6869 -2.8252 -0.3950
    1SOL    HW311327   0.961   4.546   4.585 -2.3981 -0.3422  1.1929
    1SOL    MW411328   0.981   4.475   4.631 -0.0484 -0.1125  0.5970
    1SOL     OW11329   1.566   4.455   4.262 -0.1925  0.2495 -0.1770
    1SOL    HW211330   1.629   4.390   4.232  0.4492  0.4442  0.7199
    1SOL    HW311331   1.481   4.420   4.236  0.3770  0.7325 -2.7757
    1SOL    MW411332   1.563   4.442   4.255 -0.0327  0.3395 -0.4015
    1SOL     OW11333   2.980   1.967   4.281 -0.6733  0.3383 -0.0981
    1SOL    HW211334   2.896   1.957   4.238 -0.3003  0.7176 -0.9226
    1SOL    HW311335   3.028   2.030   4.227 -0.1633  0.7403  0.8064
    1SOL    MW411336   2.976   1.974   4.268 -0.5569  0.4414 -0.0873
    1SOL     OW11337   3.624   1.184   4.157 -0.1082  0.3470 -0.0832
    1SOL    HW211338   3.593   1.192   4.067  0.3565  0.4235 -0.2338
    1SOL    HW311339   3.550   1.213   4.210 -0.3296  0.4449 -0.4444
    1SOL    MW411340   3.610   1.189   4.152 -0.0761  0.3700 -0.1507
    1SOL     OW11341   1.808   0.398   4.191 -0.0010 -0.0526  0.1773
    1SOL    HW211342   1.722   0.432   4.215 -0.1028 -0.4644  0.3991
    1SOL    HW311343   1.805   0.306   4.216  0.0320 -0.4003 -1.0759
    1SOL    MW411344   1.796   0.390   4.198 -0.0101 -0.1528  0.0410
    1SOL     OW11345   3.340   4.396   4.176  0.1847 -0.0477 -0.3289
    1SOL    HW211346   3.315   4.385   4.267 -0.9799  1.3410 -0.4511
    1SOL    HW311347   3.375   4.486   4.171 -2.1519  0.8440 -1.7119
    1SOL    MW411348   3.341   4.407   4.187 -0.2773  0.2532 -0.5274
    1SOL     OW11349   2.472   0.515   4.259 -0.5733 -0.6355 -0.5681
    1SOL    HW211350   2.473   0.603   4.220 -0.4462  0.0627  0.9857
    1SOL    HW311351   2.408   0.467   4.206  0.7746 -0.2136 -2.6760
    1SOL    MW411352   2.464   0.520   4.247 -0.3786 -0.4877 -0.6409
    1SOL     OW11353   2.676   2.562   4.120  0.1847 -0.0807 -0.4498
    1SOL    HW211354   2.620   2.634   4.149  1.2701  1.3649 -1.8666
    1SOL    HW311355   2.616   2.487   4.113 -1.4046  1.1948 -0.9851
    1SOL    MW411356   2.660   2.561   4.123  0.1183  0.2782 -0.7076
    1SOL     OW11357   2.716   1.177   4.158  0.3845 -0.2917  0.3930
    1SOL    HW211358   2.690   1.204   4.070 -0.2906 -0.0253  0.6668
    1SOL    HW311359   2.733   1.083   4.151  0.4154 -0.2529 -0.0405
    1SOL    MW411360   2.715   1.168   4.146  0.2997 -0.2514  0.3719
    1SOL     OW11361   3.172   3.447   4.158 -0.3586 -0.2729  0.0674
    1SOL    HW211362   3.177   3.451   4.063 -1.0194 -1.7887 -0.0447
    1SOL    HW311363   3.100   3.506   4.181 -0.2357  0.0495 -0.3748
    1SOL    MW411364   3.163   3.455   4.149 -0.4294 -0.4301 -0.0062
    1SOL     OW11365   3.589   3.994   4.508 -0.3994  0.3372 -0.3453
    1SOL    HW211366   3.603   4.005   4.414  1.7942  0.4049 -0.0275
    1SOL    HW311367   3.602   3.901   4.524 -1.0780  0.2717 -0.1492
    1SOL    MW411368   3.593   3.983   4.498 -0.1996  0.3374 -0.2775
    1SOL     OW11369   3.875   1.308   4.241 -0.0405 -0.4464 -0.0828
    1SOL    HW211370   3.863   1.395   4.204  0.5039 -0.8182 -1.1655
    1SOL    HW311371   3.793   1.262   4.222 -0.2070 -0.2690  0.2081
    1SOL    MW411372   3.863   1.313   4.234  0.0093 -0.4721 -0.1869
    1SOL     OW11373   3.233   2.050   4.141  0.2164 -0.0898  0.1287
    1SOL    HW211374   3.284   2.031   4.220  2.0580  0.1166 -0.9830
    1SOL    HW311375   3.244   2.144   4.128 -1.1589  0.1178  0.3279
    1SOL    MW411376   3.241   2.060   4.150  0.2780 -0.0350  0.0086
    1SOL     OW11377   3.773   0.557   4.510  0.0763 -0.6443 -0.2991
    1SOL    HW211378   3.794   0.647   4.533 -0.4882 -0.3064 -1.0841
    1SOL    HW311379   3.846   0.505   4.545  0.0604  0.0328  0.7574
    1SOL    MW411380   3.785   0.562   4.518 -0.0002 -0.5103 -0.2637
    1SOL     OW11381   2.702   1.580   4.283  0.5095 -0.5424  0.2826
    1SOL    HW211382   2.627   1.620   4.239  2.3260  1.2632 -1.2625
    1SOL    HW311383   2.711   1.629   4.365  0.1850 -0.5349  0.3121
    1SOL    MW411384   2.694   1.592   4.288  0.7062 -0.3031  0.0820
    1SOL     OW11385   4.312   0.503   4.195  0.0647 -0.4214 -0.7727
    1SOL    HW211386   4.303   0.597   4.178 -1.2943 -0.6322 -1.2432
    1SOL    HW311387   4.227   0.466   4.171  0.8514 -1.8877 -1.3041
    1SOL    MW411388   4.299   0.511   4.190 -0.0110 -0.6427 -0.9050
    1SOL     OW11389   4.000   0.433   4.577  0.3100 -0.5727 -0.0515
    1SOL    HW211390   4.084   0.457   4.537  0.9882 -0.6485  1.3064
    1SOL    HW311391   4.022   0.410   4.667 -1.4886  1.7221  1.0226
    1SOL    MW411392   4.014   0.433   4.584  0.1621 -0.2799  0.2699
    1SOL     OW11393   2.024   3.124   4.143 -0.0288  0.8048 -0.1019
    1SOL    HW211394   2.024   3.030   4.163 -0.0123  0.8897  0.3146
    1SOL    HW311395   1.955   3.160   4.200  0.1180  1.0762 -0.0975
    1SOL    MW411396   2.015   3.116   4.153 -0.0074  0.8516 -0.0467
    1SOL     OW11397   1.079   1.623   4.433  0.3630  0.1614 -0.0455
    1SOL    HW211398   1.015   1.634   4.362 -0.0570  1.6944  0.5614
    1SOL    HW311399   1.132   1.702   4.430 -0.8929  1.1636  2.5690
    1SOL    MW411400   1.077   1.635   4.423  0.1419  0.4958  0.3796
    1SOL     OW11401   0.866   1.749   4.773 -0.2293  0.4649 -0.4965
    1SOL    HW211402   0.771   1.747   4.781 -0.3015  1.1821 -1.2013
    1SOL    HW311403   0.889   1.661   4.742 -0.5434 -0.1144  0.8596
    1SOL    MW411404   0.856   1.737   4.770 -0.2803  0.4832 -0.4101
    1SOL     OW11405   3.249   0.285   4.641  0.5289 -0.5247  0.2375
    1SOL    HW211406   3.195   0.363   4.653  0.1203 -0.7426 -0.1494
    1SOL    HW311407   3.335   0.318   4.616  0.4586 -0.1892  0.4345
    1SOL    MW411408   3.253   0.299   4.640  0.4656 -0.5092  0.2117
    1SOL     OW11409   3.352   0.812   4.092  0.0832 -0.0836  0.0764
    1SOL    HW211410   3.352   0.721   4.120 -1.2727 -0.4804 -1.1568
    1SOL    HW311411   3.284   0.853   4.146  0.7676  0.2240  0.7063
    1SOL    MW411412   3.343   0.806   4.103 -0.0052 -0.0954 -0.0029
    1SOL     OW11413   3.758   0.862   4.600  0.2822  0.1241  0.4170
    1SOL    HW211414   3.752   0.936   4.661 -1.3701  0.0962  0.3123
    1SOL    HW311415   3.673   0.861   4.555 -0.1988 -2.5922  1.3009
    1SOL    MW411416   3.746   0.872   4.602  0.0007 -0.2380  0.5198
    1SOL     OW11417   2.486   2.323   3.841 -0.0279  0.5566 -0.7580
    1SOL    HW211418   2.494   2.324   3.936 -0.8902  1.0127 -0.6819
    1SOL    HW311419   2.486   2.230   3.818  0.1779  0.4467 -0.3112
    1SOL    MW411420   2.487   2.310   3.851 -0.1144  0.6022 -0.6890
    1SOL     OW11421   2.429   4.144   4.580  0.0945 -0.8576 -0.4564
    1SOL    HW211422   2.392   4.061   4.548 -0.3902 -0.6034 -0.5576
    1SOL    HW311423   2.376   4.166   4.657 -1.0166  0.3168 -1.5244
    1SOL    MW411424   2.417   4.136   4.586 -0.1159 -0.6695 -0.6108
    1SOL     OW11425   3.673   1.292   4.619 -0.0329 -0.0448  0.2597
    1SOL    HW211426   3.615   1.367   4.606 -0.0302 -0.0569  0.1738
    1SOL    HW311427   3.761   1.328   4.605 -0.0257 -0.0424  0.3145
    1SOL    MW411428   3.677   1.307   4.615 -0.0317 -0.0463  0.2551
    1SOL     OW11429   3.176   0.115   4.226  0.1422  0.0054 -0.0545
    1SOL    HW211430   3.180   0.206   4.198  0.1223 -0.2562 -0.9250
    1SOL    HW311431   3.151   0.119   4.318 -0.2187  0.8603 -0.1875
    1SOL    MW411432   3.173   0.127   4.234  0.0918  0.0837 -0.1864
    1SOL     OW11433   2.738   3.414   4.136 -0.2257  0.0757 -0.2643
    1SOL    HW211434   2.816   3.464   4.161 -0.3925 -1.1692  3.0367
    1SOL    HW311435   2.665   3.467   4.169 -0.6041 -0.2361 -0.6017
    1SOL    MW411436   2.738   3.428   4.144 -0.2975 -0.1297  0.1268
    1SOL     OW11437   1.098   3.865   4.176  0.1723 -0.1427 -0.1017
    1SOL    HW211438   1.178   3.911   4.201 -0.0471  0.2739 -0.1513
    1SOL    HW311439   1.102   3.782   4.223  0.7856 -0.2552 -0.3474
    1SOL    MW411440   1.109   3.860   4.185  0.2242 -0.1025 -0.1402
    1SOL     OW11441   0.039   0.848   4.521  0.2402  0.1560  0.9004
    1SOL    HW211442  -0.048   0.828   4.557 -0.6720  0.2438 -1.1941
    1SOL    HW311443   0.047   0.943   4.528 -0.3859  0.2952 -0.0382
    1SOL    MW411444   0.028   0.858   4.527  0.0372  0.1859  0.4997
    1SOL     OW11445   0.667   2.052   4.236 -0.5390 -0.0787 -0.0112
    1SOL    HW211446   0.747   2.016   4.200 -1.0240  0.3321 -1.5408
    1SOL    HW311447   0.671   2.146   4.215 -0.2658  0.4113  2.0878
    1SOL    MW411448   0.678   2.060   4.228 -0.5669  0.0403  0.0639
    1SOL     OW11449   0.453   2.696   4.157 -0.1198 -0.0433 -0.1450
    1SOL    HW211450   0.461   2.699   4.062  1.7532 -0.9986 -0.0513
    1SOL    HW311451   0.360   2.712   4.174 -0.4875  0.0825 -2.1244
    1SOL    MW411452   0.442   2.698   4.147  0.0788 -0.1531 -0.3943
    1SOL     OW11453   1.392   2.421   4.217 -0.2949 -0.0866  0.2535
    1SOL    HW211454   1.482   2.395   4.196 -1.0907 -1.5728 -1.4395
    1SOL    HW311455   1.383   2.508   4.179  0.0758 -0.4063 -0.5899
    1SOL    MW411456   1.403   2.429   4.209 -0.3511 -0.3250 -0.0806
    1SOL     OW11457   3.023   2.933   4.577  0.0541 -0.2414  0.0202
    1SOL    HW211458   3.006   2.884   4.657  0.5642 -0.0149  0.2659
    1SOL    HW311459   2.949   2.911   4.520  0.6179 -1.8478 -0.1252
    1SOL    MW411460   3.011   2.923   4.580  0.1957 -0.4234  0.0329
    1SOL     OW11461   2.732   0.917   4.220 -0.1333 -0.1053 -0.0290
    1SOL    HW211462   2.821   0.892   4.194 -0.6806 -1.8174 -0.2705
    1SOL    HW311463   2.727   0.895   4.313 -0.3893 -0.2579 -0.0788
    1SOL    MW411464   2.743   0.911   4.229 -0.2394 -0.3513 -0.0677
    1SOL     OW11465   0.024   0.121   4.470 -0.0417  0.0127  0.1056
    1SOL    HW211466   0.008   0.207   4.508 -1.3461 -0.1687  0.0190
    1SOL    HW311467   0.005   0.132   4.376 -1.4158 -0.6406  0.2899
    1SOL    MW411468   0.019   0.134   4.462 -0.3951 -0.0974  0.1183
    1SOL     OW11469   0.047   3.298   4.544 -0.1570  0.0825  0.4602
    1SOL    HW211470   0.063   3.392   4.554  1.4707  0.2564 -2.9047
    1SOL    HW311471   0.126   3.257   4.577  0.9250  0.1619 -1.9187
    1SOL    MW411472   0.059   3.305   4.550  0.2005  0.1159 -0.2975
    1SOL     OW11473   3.114   3.184   4.542 -0.0183 -0.2861 -0.7838
    1SOL    HW211474   3.083   3.095   4.558 -0.3343 -0.3470 -1.7358
    1SOL    HW311475   3.209   3.180   4.554 -0.2988 -0.1767  1.8293
    1SOL    MW411476   3.122   3.172   4.546 -0.0973 -0.2797 -0.5641
    1SOL     OW11477   1.602   1.635   4.460 -0.5291 -0.0546  0.0172
    1SOL    HW211478   1.685   1.620   4.415 -0.0118  0.0310  0.9172
    1SOL    HW311479   1.552   1.555   4.446 -0.1736 -0.2255 -0.2734
    1SOL    MW411480   1.606   1.623   4.453 -0.4138 -0.0658  0.0978
    1SOL     OW11481   1.492   1.366   4.444  0.2830  0.1068 -0.2425
    1SOL    HW211482   1.402   1.389   4.418  0.3402  0.4070 -0.1834
    1SOL    HW311483   1.526   1.318   4.369  0.0028 -0.1875 -0.1798
    1SOL    MW411484   1.484   1.363   4.430  0.2537  0.1076 -0.2270
    1SOL     OW11485   4.070   1.997   4.154  0.3949  0.2294  0.0608
    1SOL    HW211486   3.983   2.028   4.177  0.2655  0.7091 -1.0198
    1SOL    HW311487   4.076   1.909   4.192 -0.0940  0.6754  1.1901
    1SOL    MW411488   4.059   1.990   4.162  0.3138  0.3513  0.0668
    1SOL     OW11489   2.925   4.665   4.141  0.0922  0.4997 -0.2136
    1SOL    HW211490   3.020   4.674   4.143  0.1758 -0.4537  0.0910
    1SOL    HW311491   2.909   4.571   4.137 -0.8589  0.6004  0.8368
    1SOL    MW411492   2.935   4.654   4.141 -0.0222  0.3872 -0.0353
    1SOL     OW11493   0.639   0.479   4.481 -0.0227  0.0693  0.3069
    1SOL    HW211494   0.580   0.554   4.474 -1.6385 -1.1606  0.3611
    1SOL    HW311495   0.585   0.410   4.519  1.8130 -0.7322  1.5240
    1SOL    MW411496   0.624   0.480   4.485  0.0064 -0.1987  0.4749
    1SOL     OW11497   1.606   4.495   4.522 -0.3569  0.0990  0.3058
    1SOL    HW211498   1.571   4.488   4.433 -0.6705 -0.6038  0.4817
    1SOL    HW311499   1.696   4.463   4.514 -0.2412  0.4591  0.1547
    1SOL    MW411500   1.613   4.490   4.509 -0.3830  0.0534  0.3099
    1SOL     OW11501   3.569   1.780   4.548 -0.3641  0.0906  0.0713
    1SOL    HW211502   3.631   1.850   4.528  1.6381 -1.7291 -0.2057
    1SOL    HW311503   3.490   1.826   4.577  0.3882  2.4829 -1.5634
    1SOL    MW411504   3.567   1.795   4.549 -0.0005  0.1661 -0.1807
    1SOL     OW11505   4.096   2.388   4.476  0.4096 -0.2034 -0.5747
    1SOL    HW211506   4.101   2.481   4.498 -1.6871  0.1579 -1.5677
    1SOL    HW311507   4.082   2.345   4.560  0.0243  0.5070 -0.2675
    1SOL    MW411508   4.095   2.395   4.490  0.0825 -0.0618 -0.6652
    1SOL     OW11509   2.928   3.647   4.475 -0.3276  0.1702  0.2398
    1SOL    HW211510   2.964   3.571   4.521  0.2090  0.9062  1.0607
    1SOL    HW311511   3.001   3.708   4.469 -0.8372  0.7495 -0.1223
    1SOL    MW411512   2.942   3.645   4.480 -0.3238  0.3436  0.3004
    1SOL     OW11513   1.421   4.017   4.510 -0.1688  0.0237  0.1532
    1SOL    HW211514   1.451   4.095   4.557  0.5162  1.7487 -3.0017
    1SOL    HW311515   1.500   3.964   4.498  0.0146  0.4513 -0.5860
    1SOL    MW411516   1.435   4.021   4.514 -0.0544  0.3076 -0.3605
    1SOL     OW11517   1.797   3.456   4.142 -0.3678  0.2323 -0.1528
    1SOL    HW211518   1.787   3.453   4.047 -1.7491  0.3668 -0.0269
    1SOL    HW311519   1.712   3.488   4.174 -0.6004 -1.6789  1.2288
    1SOL    MW411520   1.784   3.460   4.134 -0.5807 -0.0021  0.0458
    1SOL     OW11521   1.986   1.499   4.577 -0.2278 -0.6674 -0.2938
    1SOL    HW211522   1.943   1.520   4.494 -0.1900  1.1813  0.1347
    1SOL    HW311523   1.914   1.496   4.641  0.0939  1.1582  0.1871
    1SOL    MW411524   1.971   1.501   4.575 -0.1805 -0.1826 -0.1736
    1SOL     OW11525   2.323   2.197   4.671  0.1075  0.1045 -0.5766
    1SOL    HW211526   2.280   2.206   4.586 -0.0302  1.9953 -0.3182
    1SOL    HW311527   2.325   2.286   4.707  1.1765 -0.4993  0.9050
    1SOL    MW411528   2.318   2.210   4.664  0.2303  0.2742 -0.3471
    1SOL     OW11529   0.878   3.506   4.169 -0.3770  0.1599  0.1210
    1SOL    HW211530   0.891   3.412   4.169 -0.4074  0.1529  0.5462
    1SOL    HW311531   0.891   3.533   4.078 -0.6153 -0.2860 -0.0449
    1SOL    MW411532   0.882   3.497   4.157 -0.4125  0.1004  0.1550
    1SOL     OW11533   0.060   1.679   4.208  0.1728  0.0825  0.0128
    1SOL    HW211534   0.059   1.662   4.303  0.0387  2.7178  0.5345
    1SOL    HW311535  -0.028   1.656   4.179  0.3802 -1.2633  0.4311
    1SOL    MW411536   0.048   1.674   4.217  0.1824  0.2526  0.1369
    1SOL     OW11537   4.078   3.297   4.553 -0.3264  0.3597  0.1120
    1SOL    HW211538   4.036   3.267   4.472 -1.4510 -2.2679  1.6029
    1SOL    HW311539   4.160   3.249   4.557 -1.1082 -0.9242  1.3947
    1SOL    MW411540   4.083   3.287   4.543 -0.5784 -0.1566  0.4778
    1SOL     OW11541   3.118   2.387   4.309  0.0707 -0.2601 -0.3862
    1SOL    HW211542   3.028   2.382   4.274  0.3171  0.0641 -1.0790
    1SOL    HW311543   3.174   2.382   4.232  0.5941  2.0426 -0.2182
    1SOL    MW411544   3.113   2.386   4.294  0.1721  0.0863 -0.4559
    1SOL     OW11545   0.061   4.235   4.119 -0.0796 -0.0429  0.2464
    1SOL    HW211546  -0.016   4.286   4.148  0.2755  0.9995 -0.6075
    1SOL    HW311547   0.065   4.250   4.025  1.0798 -0.2279  0.2670
    1SOL    MW411548   0.051   4.244   4.111  0.1202  0.0696  0.1369
    1SOL     OW11549   2.005   2.448   4.131 -0.0318  0.3232 -0.6163
    1SOL    HW211550   2.086   2.452   4.181 -1.4492  0.4649  1.7063
    1SOL    HW311551   2.026   2.391   4.057  2.0396 -0.0281  0.2075
    1SOL    MW411552   2.019   2.441   4.127  0.0546  0.2956 -0.2012
    1SOL     OW11553   0.925   0.363   4.148  0.0815  0.5312 -0.1629
    1SOL    HW211554   0.982   0.429   4.187 -0.7752  1.2290 -0.0793
    1SOL    HW311555   0.837   0.399   4.157 -0.2973 -0.1582 -1.0412
    1SOL    MW411556   0.921   0.377   4.154 -0.0815  0.5323 -0.2680
    1NA      NA11557   3.098   3.974   0.443  0.4098  0.2097  0.1412
    1NA      NA11558   0.881   2.405   0.710  0.3290 -0.1176 -0.0844
   4.49070   4.66690  10.00000
