Average structure
   36
    1RG35     P    1   0.357  -0.040  -0.240
    1RG35   O1P    2   0.469   0.025  -0.172
    1RG35   O2P    3   0.344  -0.182  -0.212
    1RG35   O5'    4   0.229   0.019  -0.171
    1RG35   C5'    5   0.191   0.154  -0.187
    1RG35  H5'1    6   0.157   0.169  -0.288
    1RG35  H5'2    7   0.277   0.217  -0.169
    1RG35   C4'    8   0.080   0.196  -0.091
    1RG35   H4'    9   0.070   0.304  -0.098
    1RG35   O4'   10  -0.046   0.139  -0.121
    1RG35   C1'   11  -0.128   0.156  -0.007
    1RG35   H1'   12  -0.190   0.244  -0.021
    1RG35    N9   13  -0.217   0.040   0.012
    1RG35    C8   14  -0.352   0.036  -0.010
    1RG35    H8   15  -0.408   0.122  -0.042
    1RG35    N7   16  -0.408  -0.079   0.012
    1RG35    C5   17  -0.301  -0.161   0.051
    1RG35    C6   18  -0.296  -0.300   0.085
    1RG35    O6   19  -0.385  -0.384   0.087
    1RG35    N1   20  -0.170  -0.343   0.118
    1RG35    H1   21  -0.159  -0.441   0.136
    1RG35    C2   22  -0.062  -0.264   0.118
    1RG35    N2   23   0.051  -0.321   0.144
    1RG35   H21   24   0.055  -0.420   0.161
    1RG35   H22   25   0.134  -0.267   0.135
    1RG35    N3   26  -0.060  -0.137   0.083
    1RG35    C4   27  -0.184  -0.089   0.051
    1RG35   C3'   28   0.104   0.161   0.056
    1RG35   H3'   29   0.128   0.055   0.065
    1RG35   C2'   30  -0.036   0.185   0.113
    1RG35  H2'1   31  -0.055   0.119   0.197
    1RG35   O2'   32  -0.049   0.321   0.151
    1RG35  HO'2   33   0.032   0.342   0.193
    1RG35   O3'   34   0.204   0.240   0.119
    1RG35   H3T   35   0.281   0.185   0.122
    1RG35   O3P   36   0.344  -0.005  -0.381
   0.00000   0.00000   0.00000
