Gromacs Runs On Most of All Computer Systems in water t=   0.00010 step= 19
   36
    1RG35     P    1   0.052  -0.044   0.053
    1RG35   O1P    2   0.056  -0.054   0.058
    1RG35   O2P    3   0.073  -0.019   0.037
    1RG35   O5'    4   0.056  -0.065   0.066
    1RG35   C5'    5   0.054  -0.026   0.020
    1RG35  H5'1    6   0.116  -0.013  -0.001
    1RG35  H5'2    7   0.053  -0.031   0.025
    1RG35   C4'    8  -0.009   0.029   0.003
    1RG35   H4'    9   0.025   0.046   0.052
    1RG35   O4'   10  -0.057   0.059  -0.005
    1RG35   C1'   11  -0.001   0.008  -0.017
    1RG35   H1'   12  -0.021  -0.059   0.012
    1RG35    N9   13  -0.035   0.006  -0.017
    1RG35    C8   14  -0.165   0.033  -0.024
    1RG35    H8   15  -0.190   0.062  -0.018
    1RG35    N7   16  -0.224   0.014  -0.041
    1RG35    C5   17  -0.142  -0.012  -0.030
    1RG35    C6   18  -0.146   0.000  -0.079
    1RG35    O6   19  -0.287   0.069  -0.176
    1RG35    N1   20  -0.007  -0.062  -0.053
    1RG35    H1   21  -0.067  -0.118  -0.139
    1RG35    C2   22   0.149  -0.072   0.037
    1RG35    N2   23   0.238   0.038   0.159
    1RG35   H21   24   0.405   0.165   0.291
    1RG35   H22   25   0.197   0.083   0.157
    1RG35    N3   26   0.102  -0.074   0.020
    1RG35    C4   27  -0.017  -0.038   0.010
    1RG35   C3'   28  -0.008   0.012  -0.023
    1RG35   H3'   29   0.006   0.052  -0.041
    1RG35   C2'   30   0.012  -0.017  -0.038
    1RG35  H2'1   31   0.051  -0.009  -0.051
    1RG35   O2'   32  -0.083  -0.038  -0.152
    1RG35  HO'2   33  -0.192   0.108  -0.119
    1RG35   O3'   34  -0.009  -0.011  -0.019
    1RG35   H3T   35  -0.003   0.014  -0.019
    1RG35   O3P   36   0.016  -0.036   0.061
   0.00000   0.00000   0.00000
