Gromacs Runs On Most of All Computer Systems in water t=   0.00003 step= 38
   36
    1RG35     P    1  -0.000   0.019  -0.028
    1RG35   O1P    2  -0.050  -0.022  -0.022
    1RG35   O2P    3  -0.026  -0.011  -0.020
    1RG35   O5'    4   0.005   0.014  -0.016
    1RG35   C5'    5   0.004  -0.032   0.006
    1RG35  H5'1    6   0.080  -0.036  -0.025
    1RG35  H5'2    7  -0.201  -0.073   0.044
    1RG35   C4'    8   0.008   0.015   0.024
    1RG35   H4'    9   0.118   0.150   0.090
    1RG35   O4'   10   0.045   0.007   0.036
    1RG35   C1'   11   0.108  -0.023   0.014
    1RG35   H1'   12   0.120   0.018  -0.054
    1RG35    N9   13   0.030   0.054  -0.050
    1RG35    C8   14  -0.016   0.055  -0.044
    1RG35    H8   15  -0.064  -0.044  -0.070
    1RG35    N7   16  -0.034  -0.021   0.036
    1RG35    C5   17  -0.027   0.007   0.045
    1RG35    C6   18  -0.000   0.049   0.071
    1RG35    O6   19   0.058   0.055   0.113
    1RG35    N1   20   0.003   0.050  -0.004
    1RG35    H1   21  -0.077  -0.032  -0.073
    1RG35    C2   22   0.003  -0.001   0.003
    1RG35    N2   23   0.006   0.007  -0.031
    1RG35   H21   24   0.005  -0.012   0.001
    1RG35   H22   25  -0.046   0.002  -0.024
    1RG35    N3   26  -0.006  -0.020   0.018
    1RG35    C4   27  -0.006   0.005   0.013
    1RG35   C3'   28  -0.028   0.005  -0.009
    1RG35   H3'   29  -0.245  -0.106  -0.452
    1RG35   C2'   30  -0.002  -0.130   0.033
    1RG35  H2'1   31  -0.136  -0.167   0.152
    1RG35   O2'   32  -0.012  -0.180  -0.086
    1RG35  HO'2   33   0.085  -0.003  -0.172
    1RG35   O3'   34   0.140   0.340   0.062
    1RG35   H3T   35   0.070   0.007   0.434
    1RG35   O3P   36   0.088   0.051  -0.015
   0.00000   0.00000   0.00000
