Gromacs Runs On Most of All Computer Systems in water t=   0.00040 step= 7
   36
    1RG35     P    1  -0.016  -0.123   0.035
    1RG35   O1P    2   0.034  -0.493   0.068
    1RG35   O2P    3  -0.125  -0.072  -0.196
    1RG35   O5'    4  -0.110   0.063  -0.150
    1RG35   C5'    5  -0.055   0.090  -0.005
    1RG35  H5'1    6  -0.068   0.201   0.123
    1RG35  H5'2    7   0.033  -0.051   0.050
    1RG35   C4'    8  -0.078   0.108  -0.052
    1RG35   H4'    9  -0.079   0.084  -0.030
    1RG35   O4'   10  -0.083   0.086  -0.051
    1RG35   C1'   11  -0.014   0.036  -0.040
    1RG35   H1'   12  -0.027  -0.023  -0.009
    1RG35    N9   13  -0.002   0.006  -0.014
    1RG35    C8   14  -0.054  -0.127   0.066
    1RG35    H8   15  -0.117  -0.245   0.129
    1RG35    N7   16  -0.025  -0.103   0.061
    1RG35    C5   17   0.023   0.003   0.006
    1RG35    C6   18   0.055   0.047  -0.008
    1RG35    O6   19   0.084   0.073  -0.018
    1RG35    N1   20   0.043   0.051   0.002
    1RG35    H1   21   0.058   0.067   0.007
    1RG35    C2   22   0.020   0.038   0.006
    1RG35    N2   23  -0.028  -0.053   0.077
    1RG35   H21   24  -0.057  -0.119   0.133
    1RG35   H22   25  -0.011  -0.019   0.048
    1RG35    N3   26   0.028   0.066  -0.027
    1RG35    C4   27   0.021   0.037  -0.017
    1RG35   C3'   28  -0.001   0.110  -0.085
    1RG35   H3'   29   0.010   0.170  -0.128
    1RG35   C2'   30   0.048   0.047  -0.054
    1RG35  H2'1   31   0.124   0.068  -0.067
    1RG35   O2'   32   0.069  -0.032  -0.010
    1RG35  HO'2   33   0.117  -0.018  -0.027
    1RG35   O3'   34   0.035   0.066  -0.082
    1RG35   H3T   35   0.044  -0.113  -0.083
    1RG35   O3P   36   0.104   0.076   0.343
   0.00000   0.00000   0.00000
