Gromacs Runs On Most of All Computer Systems in water t=  -0.00000 step= 105
   36
    1RG35     P    1  -0.229  -0.007   0.069
    1RG35   O1P    2  -0.259  -0.024   0.079
    1RG35   O2P    3  -0.217   0.023   0.067
    1RG35   O5'    4  -0.203  -0.034   0.054
    1RG35   C5'    5  -0.210  -0.068   0.053
    1RG35  H5'1    6  -0.221  -0.070   0.057
    1RG35  H5'2    7  -0.225  -0.078   0.058
    1RG35   C4'    8  -0.181  -0.087   0.038
    1RG35   H4'    9  -0.187  -0.111   0.037
    1RG35   O4'   10  -0.160  -0.074   0.031
    1RG35   C1'   11  -0.130  -0.075   0.017
    1RG35   H1'   12  -0.119  -0.091   0.010
    1RG35    N9   13  -0.115  -0.041   0.015
    1RG35    C8   14  -0.125  -0.012   0.023
    1RG35    H8   15  -0.147  -0.010   0.032
    1RG35    N7   16  -0.107   0.014   0.018
    1RG35    C5   17  -0.082   0.000   0.006
    1RG35    C6   18  -0.054   0.015  -0.005
    1RG35    O6   19  -0.047   0.045  -0.004
    1RG35    N1   20  -0.035  -0.008  -0.016
    1RG35    H1   21  -0.015   0.001  -0.023
    1RG35    C2   22  -0.041  -0.043  -0.017
    1RG35    N2   23  -0.022  -0.064  -0.029
    1RG35   H21   24  -0.002  -0.055  -0.036
    1RG35   H22   25  -0.027  -0.088  -0.028
    1RG35    N3   26  -0.068  -0.055  -0.007
    1RG35    C4   27  -0.087  -0.034   0.004
    1RG35   C3'   28  -0.163  -0.081   0.031
    1RG35   H3'   29  -0.168  -0.059   0.036
    1RG35   C2'   30  -0.131  -0.087   0.016
    1RG35  H2'1   31  -0.114  -0.076   0.010
    1RG35   O2'   32  -0.125  -0.121   0.010
    1RG35  HO'2   33  -0.126  -0.129   0.009
    1RG35   O3'   34  -0.174  -0.105   0.033
    1RG35   H3T   35  -0.163  -0.101   0.028
    1RG35   O3P   36  -0.232   0.002   0.071
   0.00000   0.00000   0.00000
