Gromacs Runs On Most of All Computer Systems in water t=   0.00000 step= 69
   36
    1RG35     P    1  -0.022  -0.019  -0.009
    1RG35   O1P    2  -0.003   0.005   0.031
    1RG35   O2P    3   0.095  -0.042  -0.038
    1RG35   O5'    4  -0.212   0.161   0.100
    1RG35   C5'    5   0.003  -0.116  -0.018
    1RG35  H5'1    6   0.037  -0.119   0.118
    1RG35  H5'2    7  -0.014  -0.049  -0.150
    1RG35   C4'    8   0.116   0.173  -0.073
    1RG35   H4'    9   0.013  -0.079  -0.019
    1RG35   O4'   10   0.024   0.043   0.115
    1RG35   C1'   11  -0.049  -0.016  -0.013
    1RG35   H1'   12  -0.046   0.014  -0.010
    1RG35    N9   13   0.000  -0.021  -0.011
    1RG35    C8   14   0.001   0.003   0.004
    1RG35    H8   15  -0.001   0.002   0.004
    1RG35    N7   16   0.009   0.013   0.020
    1RG35    C5   17  -0.001  -0.030  -0.006
    1RG35    C6   18   0.010   0.015  -0.013
    1RG35    O6   19   0.002   0.009   0.028
    1RG35    N1   20  -0.015  -0.017  -0.021
    1RG35    H1   21   0.013   0.001   0.007
    1RG35    C2   22  -0.015   0.004  -0.014
    1RG35    N2   23   0.012  -0.006   0.003
    1RG35   H21   24   0.013  -0.008  -0.007
    1RG35   H22   25  -0.000   0.010   0.006
    1RG35    N3   26  -0.000   0.015   0.034
    1RG35    C4   27   0.023  -0.013  -0.022
    1RG35   C3'   28   0.135   0.315  -0.040
    1RG35   H3'   29  -0.019  -0.071  -0.006
    1RG35   C2'   30   0.130  -0.084  -0.047
    1RG35  H2'1   31   0.012  -0.135  -0.006
    1RG35   O2'   32  -0.447   0.051  -0.397
    1RG35  HO'2   33   0.229  -0.017   0.402
    1RG35   O3'   34  -0.037  -0.006   0.080
    1RG35   H3T   35   0.015  -0.005  -0.027
    1RG35   O3P   36  -0.012   0.016  -0.005
   0.00000   0.00000   0.00000
