Gromacs Runs On Most of All Computer Systems in water t=   0.00001 step= 56
   36
    1RG35     P    1   0.129   0.107   0.042
    1RG35   O1P    2  -0.006  -0.176   0.181
    1RG35   O2P    3  -0.021  -0.043  -0.018
    1RG35   O5'    4   0.151   0.219  -0.007
    1RG35   C5'    5   0.023  -0.034   0.067
    1RG35  H5'1    6  -0.002  -0.098   0.026
    1RG35  H5'2    7   0.042   0.047   0.022
    1RG35   C4'    8  -0.228   0.093  -0.149
    1RG35   H4'    9  -0.051   0.084   0.191
    1RG35   O4'   10  -0.105  -0.261  -0.212
    1RG35   C1'   11   0.024  -0.177  -0.005
    1RG35   H1'   12   0.081   0.086   0.016
    1RG35    N9   13   0.106  -0.006  -0.027
    1RG35    C8   14  -0.051   0.008   0.115
    1RG35    H8   15  -0.038  -0.020  -0.100
    1RG35    N7   16  -0.012   0.106   0.121
    1RG35    C5   17  -0.020  -0.023   0.040
    1RG35    C6   18  -0.144  -0.195   0.110
    1RG35    O6   19   0.090   0.078  -0.021
    1RG35    N1   20  -0.045   0.072  -0.079
    1RG35    H1   21  -0.035   0.041   0.077
    1RG35    C2   22   0.027   0.009  -0.095
    1RG35    N2   23  -0.035   0.024   0.007
    1RG35   H21   24  -0.045   0.026   0.017
    1RG35   H22   25   0.043   0.013   0.020
    1RG35    N3   26  -0.015  -0.220   0.080
    1RG35    C4   27   0.211   0.191  -0.169
    1RG35   C3'   28   0.009   0.139  -0.104
    1RG35   H3'   29  -0.013  -0.096   0.122
    1RG35   C2'   30   0.034   0.073  -0.006
    1RG35  H2'1   31  -0.084   0.043  -0.026
    1RG35   O2'   32   0.031  -0.047  -0.019
    1RG35  HO'2   33  -0.016   0.013   0.009
    1RG35   O3'   34   0.049  -0.081  -0.078
    1RG35   H3T   35   0.019   0.021   0.071
    1RG35   O3P   36  -0.104  -0.017  -0.221
   0.00000   0.00000   0.00000
