Gromacs Runs On Most of All Computer Systems in water t=   0.00015 step= 15
   36
    1RG35     P    1  -0.030  -0.073   0.015
    1RG35   O1P    2  -0.030  -0.053   0.011
    1RG35   O2P    3  -0.035  -0.081   0.020
    1RG35   O5'    4  -0.009  -0.073   0.049
    1RG35   C5'    5  -0.004  -0.048   0.005
    1RG35  H5'1    6   0.022  -0.042   0.000
    1RG35  H5'2    7  -0.076  -0.094   0.034
    1RG35   C4'    8   0.041  -0.065  -0.104
    1RG35   H4'    9  -0.092  -0.087  -0.324
    1RG35   O4'   10   0.320  -0.161  -0.123
    1RG35   C1'   11   0.049   0.052  -0.010
    1RG35   H1'   12   0.107   0.332  -0.018
    1RG35    N9   13  -0.076  -0.017   0.058
    1RG35    C8   14  -0.078   0.073   0.027
    1RG35    H8   15  -0.020   0.196  -0.025
    1RG35    N7   16  -0.103   0.038   0.048
    1RG35    C5   17  -0.113  -0.022   0.086
    1RG35    C6   18  -0.085   0.026   0.066
    1RG35    O6   19  -0.063   0.110   0.015
    1RG35    N1   20  -0.064   0.011   0.069
    1RG35    H1   21   0.038   0.222  -0.073
    1RG35    C2   22  -0.023   0.015   0.069
    1RG35    N2   23   0.045   0.046   0.008
    1RG35   H21   24  -0.108  -0.259   0.206
    1RG35   H22   25   0.241   0.245  -0.174
    1RG35    N3   26  -0.032   0.016   0.054
    1RG35    C4   27  -0.080  -0.028   0.081
    1RG35   C3'   28   0.016  -0.021  -0.020
    1RG35   H3'   29   0.004  -0.066  -0.000
    1RG35   C2'   30   0.005   0.003  -0.010
    1RG35  H2'1   31   0.006   0.003  -0.030
    1RG35   O2'   32   0.054  -0.003   0.047
    1RG35  HO'2   33   0.124  -0.037   0.025
    1RG35   O3'   34   0.047   0.022  -0.030
    1RG35   H3T   35   0.060  -0.089  -0.048
    1RG35   O3P   36  -0.057  -0.091  -0.008
   0.00000   0.00000   0.00000
