Gromacs Runs On Most of All Computer Systems in water t=   0.00000 step= 86
   36
    1RG35     P    1   0.064  -0.169   0.244
    1RG35   O1P    2  -0.026   0.010  -0.121
    1RG35   O2P    3  -0.016   0.026  -0.026
    1RG35   O5'    4   0.023   0.013  -0.019
    1RG35   C5'    5  -0.066  -0.008   0.011
    1RG35  H5'1    6   0.009  -0.001  -0.002
    1RG35  H5'2    7   0.007  -0.001  -0.006
    1RG35   C4'    8   0.031   0.021   0.029
    1RG35   H4'    9   0.002  -0.003  -0.006
    1RG35   O4'   10  -0.013  -0.016  -0.011
    1RG35   C1'   11  -0.004   0.015  -0.052
    1RG35   H1'   12  -0.009   0.002   0.006
    1RG35    N9   13   0.093  -0.018   0.051
    1RG35    C8   14  -0.030   0.004  -0.019
    1RG35    H8   15  -0.023   0.011  -0.003
    1RG35    N7   16   0.111  -0.047   0.021
    1RG35    C5   17  -0.281   0.174   0.032
    1RG35    C6   18   0.362  -0.052   0.224
    1RG35    O6   19  -0.041  -0.029  -0.080
    1RG35    N1   20  -0.199  -0.128  -0.350
    1RG35    H1   21   0.037  -0.004   0.024
    1RG35    C2   22  -0.103   0.306   0.337
    1RG35    N2   23  -0.038   0.008  -0.009
    1RG35   H21   24   0.044  -0.022  -0.003
    1RG35   H22   25  -0.009  -0.020  -0.030
    1RG35    N3   26   0.229  -0.175  -0.055
    1RG35    C4   27  -0.123  -0.017  -0.123
    1RG35   C3'   28  -0.010   0.003  -0.037
    1RG35   H3'   29   0.004   0.000   0.004
    1RG35   C2'   30  -0.013  -0.007   0.054
    1RG35  H2'1   31   0.003  -0.000  -0.006
    1RG35   O2'   32   0.007   0.001  -0.014
    1RG35  HO'2   33   0.002  -0.001   0.002
    1RG35   O3'   34  -0.002   0.002   0.017
    1RG35   H3T   35  -0.000   0.001  -0.002
    1RG35   O3P   36  -0.023   0.121  -0.086
   0.00000   0.00000   0.00000
