Gromacs Runs On Most of All Computer Systems in water t=   0.00010 step= 18
   36
    1RG35     P    1  -0.017   0.023  -0.033
    1RG35   O1P    2   0.024   0.051  -0.044
    1RG35   O2P    3  -0.004   0.055  -0.049
    1RG35   O5'    4   0.012  -0.033   0.014
    1RG35   C5'    5  -0.004  -0.049  -0.017
    1RG35  H5'1    6   0.043  -0.019   0.005
    1RG35  H5'2    7  -0.033  -0.106   0.008
    1RG35   C4'    8  -0.035  -0.011  -0.062
    1RG35   H4'    9  -0.034  -0.016  -0.059
    1RG35   O4'   10  -0.062   0.002  -0.028
    1RG35   C1'   11   0.049  -0.035   0.055
    1RG35   H1'   12   0.024  -0.171   0.056
    1RG35    N9   13   0.125   0.012   0.135
    1RG35    C8   14   0.136   0.113   0.235
    1RG35    H8   15   0.197   0.234   0.421
    1RG35    N7   16   0.075   0.140   0.178
    1RG35    C5   17   0.037   0.053   0.094
    1RG35    C6   18  -0.022   0.039   0.017
    1RG35    O6   19  -0.059   0.104  -0.007
    1RG35    N1   20  -0.041  -0.055  -0.051
    1RG35    H1   21  -0.074  -0.063  -0.123
    1RG35    C2   22  -0.032  -0.070  -0.055
    1RG35    N2   23  -0.121   0.035  -0.012
    1RG35   H21   24  -0.038   0.059   0.164
    1RG35   H22   25  -0.343   0.114  -0.048
    1RG35    N3   26   0.033  -0.062   0.001
    1RG35    C4   27   0.067  -0.007   0.081
    1RG35   C3'   28  -0.010  -0.019  -0.108
    1RG35   H3'   29  -0.007   0.022  -0.147
    1RG35   C2'   30   0.063  -0.101  -0.023
    1RG35  H2'1   31   0.142  -0.078  -0.076
    1RG35   O2'   32   0.013  -0.179  -0.085
    1RG35  HO'2   33  -0.002   0.096  -0.097
    1RG35   O3'   34  -0.011  -0.032  -0.135
    1RG35   H3T   35  -0.008  -0.049  -0.172
    1RG35   O3P   36  -0.082   0.003  -0.037
   0.00000   0.00000   0.00000
