Gromacs Runs On Most of All Computer Systems in water t=   0.00038 step= 8
   36
    1RG35     P    1  -0.030  -0.042   0.011
    1RG35   O1P    2  -0.021  -0.033   0.010
    1RG35   O2P    3  -0.048  -0.063   0.013
    1RG35   O5'    4  -0.039  -0.022   0.020
    1RG35   C5'    5  -0.028  -0.021   0.051
    1RG35  H5'1    6  -0.013   0.039   0.112
    1RG35  H5'2    7  -0.022  -0.109   0.090
    1RG35   C4'    8  -0.035  -0.016  -0.026
    1RG35   H4'    9  -0.079  -0.014  -0.106
    1RG35   O4'   10   0.056  -0.078  -0.033
    1RG35   C1'   11   0.039  -0.069  -0.032
    1RG35   H1'   12   0.039  -0.059   0.021
    1RG35    N9   13  -0.006  -0.052  -0.069
    1RG35    C8   14   0.016  -0.027  -0.104
    1RG35    H8   15   0.033  -0.001  -0.146
    1RG35    N7   16   0.020  -0.041  -0.093
    1RG35    C5   17   0.003  -0.065  -0.059
    1RG35    C6   18   0.019  -0.069  -0.024
    1RG35    O6   19   0.053  -0.079  -0.017
    1RG35    N1   20   0.004  -0.044   0.004
    1RG35    H1   21   0.018  -0.032   0.024
    1RG35    C2   22  -0.020  -0.008  -0.010
    1RG35    N2   23  -0.029   0.104   0.009
    1RG35   H21   24   0.031   0.168   0.042
    1RG35   H22   25  -0.102   0.159  -0.020
    1RG35    N3   26  -0.029  -0.014  -0.045
    1RG35    C4   27  -0.014  -0.051  -0.063
    1RG35   C3'   28  -0.035   0.045   0.067
    1RG35   H3'   29   0.050   0.095   0.234
    1RG35   C2'   30   0.101  -0.075  -0.039
    1RG35  H2'1   31   0.237  -0.036  -0.054
    1RG35   O2'   32   0.125  -0.201   0.010
    1RG35  HO'2   33   0.316   0.330  -0.054
    1RG35   O3'   34  -0.275   0.177   0.069
    1RG35   H3T   35  -0.313   0.251   0.205
    1RG35   O3P   36  -0.024  -0.045   0.002
   0.00000   0.00000   0.00000
