Gromacs Runs On Most of All Computer Systems in water t=   0.00021 step= 11
   36
    1RG35     P    1  -0.019  -0.003  -0.040
    1RG35   O1P    2  -0.104  -0.050  -0.022
    1RG35   O2P    3  -0.010  -0.022  -0.003
    1RG35   O5'    4  -0.044   0.066  -0.144
    1RG35   C5'    5  -0.017   0.062  -0.054
    1RG35  H5'1    6  -0.079   0.057  -0.036
    1RG35  H5'2    7   0.042   0.070  -0.063
    1RG35   C4'    8   0.015   0.034   0.014
    1RG35   H4'    9   0.001   0.031  -0.007
    1RG35   O4'   10   0.060   0.011   0.006
    1RG35   C1'   11   0.054   0.019  -0.008
    1RG35   H1'   12   0.060   0.042  -0.012
    1RG35    N9   13   0.021  -0.009   0.012
    1RG35    C8   14   0.039   0.046  -0.015
    1RG35    H8   15   0.107   0.172  -0.086
    1RG35    N7   16  -0.026  -0.051   0.047
    1RG35    C5   17  -0.048  -0.106   0.070
    1RG35    C6   18  -0.062  -0.123   0.067
    1RG35    O6   19  -0.166  -0.268   0.150
    1RG35    N1   20   0.074   0.105  -0.089
    1RG35    H1   21   0.206   0.382  -0.276
    1RG35    C2   22   0.010  -0.009  -0.007
    1RG35    N2   23  -0.014   0.018   0.027
    1RG35   H21   24   0.076   0.161  -0.026
    1RG35   H22   25  -0.170  -0.160   0.190
    1RG35    N3   26  -0.049  -0.121   0.079
    1RG35    C4   27  -0.030  -0.092   0.059
    1RG35   C3'   28   0.021   0.034   0.031
    1RG35   H3'   29   0.039   0.060   0.047
    1RG35   C2'   30   0.040   0.026  -0.009
    1RG35  H2'1   31   0.052   0.030   0.006
    1RG35   O2'   32   0.001   0.020  -0.060
    1RG35  HO'2   33  -0.040   0.026  -0.045
    1RG35   O3'   34  -0.050  -0.073   0.054
    1RG35   H3T   35  -0.064  -0.408   0.166
    1RG35   O3P   36   0.075   0.024  -0.025
   0.00000   0.00000   0.00000
