Gromacs Runs On Most of All Computer Systems in water t=   0.00115 step= 3
   36
    1RG35     P    1  -0.018  -0.077  -0.206
    1RG35   O1P    2   0.135  -0.124  -0.223
    1RG35   O2P    3  -0.095  -0.065  -0.332
    1RG35   O5'    4  -0.041  -0.062  -0.085
    1RG35   C5'    5   0.015  -0.070   0.099
    1RG35  H5'1    6  -0.017   0.031   0.228
    1RG35  H5'2    7   0.128  -0.204   0.145
    1RG35   C4'    8  -0.028  -0.026   0.074
    1RG35   H4'    9   0.004  -0.019   0.125
    1RG35   O4'   10  -0.077   0.061   0.055
    1RG35   C1'   11  -0.053   0.033  -0.018
    1RG35   H1'   12  -0.058   0.003  -0.046
    1RG35    N9   13   0.017   0.072  -0.037
    1RG35    C8   14   0.066   0.075  -0.075
    1RG35    H8   15   0.085   0.095  -0.132
    1RG35    N7   16   0.081   0.037  -0.025
    1RG35    C5   17   0.050   0.022   0.035
    1RG35    C6   18   0.048  -0.018   0.108
    1RG35    O6   19   0.073  -0.066   0.143
    1RG35    N1   20   0.023   0.007   0.138
    1RG35    H1   21   0.031  -0.001   0.177
    1RG35    C2   22   0.017   0.077   0.090
    1RG35    N2   23   0.050   0.183   0.043
    1RG35   H21   24   0.070   0.214   0.037
    1RG35   H22   25   0.092   0.302  -0.055
    1RG35    N3   26   0.010   0.101   0.028
    1RG35    C4   27   0.023   0.068   0.011
    1RG35   C3'   28  -0.053  -0.075   0.004
    1RG35   H3'   29  -0.065  -0.075  -0.026
    1RG35   C2'   30  -0.084  -0.019  -0.029
    1RG35  H2'1   31  -0.126  -0.032  -0.060
    1RG35   O2'   32  -0.083  -0.007  -0.029
    1RG35  HO'2   33  -0.096  -0.076  -0.025
    1RG35   O3'   34  -0.023  -0.147   0.012
    1RG35   H3T   35  -0.018  -0.167  -0.012
    1RG35   O3P   36  -0.082  -0.051  -0.140
   0.00000   0.00000   0.00000
