Gromacs Runs On Most of All Computer Systems in water t=   0.00000 step= 73
   36
    1RG35     P    1   0.135   0.069   0.008
    1RG35   O1P    2  -0.023  -0.018  -0.041
    1RG35   O2P    3  -0.053   0.016   0.025
    1RG35   O5'    4   0.041  -0.062  -0.027
    1RG35   C5'    5  -0.147  -0.016   0.042
    1RG35  H5'1    6   0.011   0.021  -0.019
    1RG35  H5'2    7   0.034   0.025   0.034
    1RG35   C4'    8  -0.066  -0.043  -0.153
    1RG35   H4'    9   0.050  -0.008   0.002
    1RG35   O4'   10  -0.009  -0.056   0.166
    1RG35   C1'   11   0.083   0.116   0.020
    1RG35   H1'   12   0.063  -0.045  -0.015
    1RG35    N9   13  -0.406   0.131  -0.091
    1RG35    C8   14   0.044   0.039   0.072
    1RG35    H8   15   0.101  -0.047   0.020
    1RG35    N7   16   0.150   0.032   0.166
    1RG35    C5   17  -0.076  -0.193  -0.334
    1RG35    C6   18  -0.096  -0.008  -0.112
    1RG35    O6   19  -0.021   0.107   0.160
    1RG35    N1   20  -0.015  -0.041  -0.064
    1RG35    H1   21   0.033  -0.007   0.012
    1RG35    C2   22   0.217  -0.022   0.123
    1RG35    N2   23  -0.073   0.005  -0.058
    1RG35   H21   24  -0.096   0.096   0.066
    1RG35   H22   25   0.007  -0.080  -0.089
    1RG35    N3   26   0.271   0.063   0.287
    1RG35    C4   27  -0.147  -0.051  -0.190
    1RG35   C3'   28   0.007   0.062  -0.115
    1RG35   H3'   29   0.021  -0.019   0.008
    1RG35   C2'   30  -0.022  -0.014  -0.043
    1RG35  H2'1   31   0.000  -0.009   0.014
    1RG35   O2'   32   0.002   0.002   0.029
    1RG35  HO'2   33  -0.010  -0.000  -0.009
    1RG35   O3'   34  -0.022  -0.004   0.099
    1RG35   H3T   35   0.022  -0.001  -0.007
    1RG35   O3P   36  -0.012  -0.039   0.015
   0.00000   0.00000   0.00000
