Gromacs Runs On Most of All Computer Systems in water t=   0.00005 step= 24
   36
    1RG35     P    1  -0.009   0.019   0.004
    1RG35   O1P    2  -0.022   0.026   0.007
    1RG35   O2P    3  -0.044  -0.031   0.016
    1RG35   O5'    4  -0.003   0.024  -0.012
    1RG35   C5'    5   0.002   0.010  -0.019
    1RG35  H5'1    6   0.009   0.018  -0.015
    1RG35  H5'2    7  -0.007  -0.008  -0.008
    1RG35   C4'    8   0.024  -0.022  -0.034
    1RG35   H4'    9  -0.003   0.026  -0.131
    1RG35   O4'   10   0.009   0.015  -0.025
    1RG35   C1'   11   0.085  -0.028  -0.026
    1RG35   H1'   12   0.059  -0.179  -0.164
    1RG35    N9   13   0.146   0.169  -0.149
    1RG35    C8   14   0.016   0.046  -0.027
    1RG35    H8   15  -0.004   0.038   0.053
    1RG35    N7   16  -0.134  -0.157   0.088
    1RG35    C5   17  -0.056  -0.061   0.009
    1RG35    C6   18  -0.066  -0.074   0.034
    1RG35    O6   19   0.007   0.124  -0.104
    1RG35    N1   20  -0.152  -0.233   0.199
    1RG35    H1   21   0.088   0.223  -0.040
    1RG35    C2   22  -0.097  -0.147   0.154
    1RG35    N2   23  -0.102  -0.193   0.192
    1RG35   H21   24   0.042   0.167  -0.124
    1RG35   H22   25   0.009  -0.009   0.036
    1RG35    N3   26   0.148   0.271  -0.182
    1RG35    C4   27   0.132   0.203  -0.177
    1RG35   C3'   28  -0.056  -0.024   0.047
    1RG35   H3'   29  -0.080  -0.165   0.150
    1RG35   C2'   30  -0.031  -0.054   0.046
    1RG35  H2'1   31   0.005  -0.044   0.088
    1RG35   O2'   32  -0.030  -0.080   0.087
    1RG35  HO'2   33  -0.046   0.035   0.112
    1RG35   O3'   34   0.042   0.126   0.014
    1RG35   H3T   35   0.084  -0.059  -0.090
    1RG35   O3P   36   0.037   0.027  -0.009
   0.00000   0.00000   0.00000
