Gromacs Runs On Most of All Computer Systems in water t=   0.00000 step= 77
   36
    1RG35     P    1   0.471   0.246   0.039
    1RG35   O1P    2  -0.083  -0.046  -0.125
    1RG35   O2P    3  -0.146   0.056   0.055
    1RG35   O5'    4  -0.309  -0.107   0.004
    1RG35   C5'    5   0.063   0.005  -0.024
    1RG35  H5'1    6   0.009  -0.048   0.051
    1RG35  H5'2    7  -0.036  -0.046  -0.069
    1RG35   C4'    8   0.229   0.208   0.282
    1RG35   H4'    9  -0.063  -0.015  -0.007
    1RG35   O4'   10  -0.060  -0.013  -0.278
    1RG35   C1'   11  -0.024  -0.231   0.025
    1RG35   H1'   12   0.027   0.020   0.002
    1RG35    N9   13   0.032   0.142   0.171
    1RG35    C8   14  -0.019   0.061   0.080
    1RG35    H8   15  -0.060   0.027  -0.017
    1RG35    N7   16   0.105  -0.116  -0.088
    1RG35    C5   17  -0.007  -0.062  -0.090
    1RG35    C6   18  -0.033   0.012  -0.034
    1RG35    O6   19  -0.006   0.024   0.030
    1RG35    N1   20  -0.007  -0.005  -0.013
    1RG35    H1   21   0.006   0.001  -0.002
    1RG35    C2   22   0.046  -0.001   0.029
    1RG35    N2   23  -0.003   0.005  -0.006
    1RG35   H21   24  -0.021   0.019   0.010
    1RG35   H22   25  -0.003  -0.021  -0.022
    1RG35    N3   26   0.019  -0.001   0.008
    1RG35    C4   27  -0.071   0.043   0.005
    1RG35   C3'   28   0.044  -0.030   0.166
    1RG35   H3'   29  -0.013   0.008  -0.021
    1RG35   C2'   30  -0.042  -0.006  -0.166
    1RG35  H2'1   31   0.004   0.008   0.010
    1RG35   O2'   32   0.005  -0.001   0.041
    1RG35  HO'2   33  -0.008  -0.002  -0.004
    1RG35   O3'   34   0.035   0.004  -0.096
    1RG35   H3T   35  -0.031  -0.005   0.001
    1RG35   O3P   36  -0.050  -0.133   0.054
   0.00000   0.00000   0.00000
