Gromacs Runs On Most of All Computer Systems in water t=   0.00001 step= 57
   36
    1RG35     P    1   0.087  -0.077  -0.144
    1RG35   O1P    2  -0.191   0.251  -0.260
    1RG35   O2P    3   0.143  -0.323  -0.051
    1RG35   O5'    4   0.118  -0.088   0.050
    1RG35   C5'    5   0.055   0.045  -0.007
    1RG35  H5'1    6  -0.095  -0.003  -0.018
    1RG35  H5'2    7  -0.018  -0.008   0.037
    1RG35   C4'    8  -0.039   0.131  -0.053
    1RG35   H4'    9  -0.052  -0.031   0.093
    1RG35   O4'   10   0.139   0.037  -0.113
    1RG35   C1'   11  -0.104   0.099   0.020
    1RG35   H1'   12  -0.133  -0.020  -0.012
    1RG35    N9   13   0.033  -0.015   0.150
    1RG35    C8   14   0.143   0.051   0.059
    1RG35    H8   15   0.097  -0.115  -0.066
    1RG35    N7   16  -0.154   0.018  -0.007
    1RG35    C5   17  -0.135   0.062  -0.077
    1RG35    C6   18  -0.106   0.030   0.013
    1RG35    O6   19   0.090   0.027   0.080
    1RG35    N1   20  -0.045  -0.012  -0.042
    1RG35    H1   21   0.025   0.046   0.079
    1RG35    C2   22   0.100  -0.064  -0.089
    1RG35    N2   23   0.039   0.024   0.063
    1RG35   H21   24  -0.057  -0.014  -0.053
    1RG35   H22   25   0.005   0.055   0.067
    1RG35    N3   26   0.090  -0.175  -0.080
    1RG35    C4   27   0.047   0.033  -0.052
    1RG35   C3'   28  -0.062   0.075  -0.086
    1RG35   H3'   29  -0.039  -0.022   0.094
    1RG35   C2'   30   0.017  -0.082  -0.033
    1RG35  H2'1   31   0.000  -0.088   0.035
    1RG35   O2'   32   0.075   0.002  -0.011
    1RG35  HO'2   33  -0.036   0.004   0.017
    1RG35   O3'   34   0.051  -0.034  -0.074
    1RG35   H3T   35   0.013   0.006   0.075
    1RG35   O3P   36  -0.101   0.175   0.392
   0.00000   0.00000   0.00000
