Gromacs Runs On Most of All Computer Systems in water t=  -0.00000 step= 107
   36
    1RG35     P    1  -0.113   0.077  -0.221
    1RG35   O1P    2  -0.145   0.085  -0.249
    1RG35   O2P    3  -0.098   0.118  -0.209
    1RG35   O5'    4  -0.079   0.056  -0.191
    1RG35   C5'    5  -0.087   0.026  -0.196
    1RG35  H5'1    6  -0.103  -0.003  -0.208
    1RG35  H5'2    7  -0.100   0.045  -0.209
    1RG35   C4'    8  -0.051   0.009  -0.163
    1RG35   H4'    9  -0.055  -0.012  -0.167
    1RG35   O4'   10  -0.031  -0.021  -0.145
    1RG35   C1'   11   0.007  -0.009  -0.111
    1RG35   H1'   12   0.020  -0.041  -0.100
    1RG35    N9   13   0.023   0.007  -0.099
    1RG35    C8   14   0.011   0.043  -0.112
    1RG35    H8   15  -0.014   0.064  -0.133
    1RG35    N7   16   0.029   0.049  -0.095
    1RG35    C5   17   0.057   0.015  -0.069
    1RG35    C6   18   0.087   0.002  -0.043
    1RG35    O6   19   0.093   0.023  -0.038
    1RG35    N1   20   0.109  -0.035  -0.022
    1RG35    H1   21   0.130  -0.045  -0.003
    1RG35    C2   22   0.103  -0.061  -0.025
    1RG35    N2   23   0.125  -0.097  -0.004
    1RG35   H21   24   0.147  -0.106   0.015
    1RG35   H22   25   0.120  -0.113  -0.008
    1RG35    N3   26   0.075  -0.047  -0.051
    1RG35    C4   27   0.053  -0.011  -0.072
    1RG35   C3'   28  -0.025   0.054  -0.143
    1RG35   H3'   29  -0.028   0.082  -0.148
    1RG35   C2'   30   0.014   0.031  -0.108
    1RG35  H2'1   31   0.035   0.056  -0.091
    1RG35   O2'   32   0.022   0.011  -0.099
    1RG35  HO'2   33   0.026   0.037  -0.097
    1RG35   O3'   34  -0.031   0.071  -0.149
    1RG35   H3T   35  -0.015   0.100  -0.136
    1RG35   O3P   36  -0.124   0.032  -0.228
   0.00000   0.00000   0.00000
