Gromacs Runs On Most of All Computer Systems in water t=   0.00001 step= 50
   36
    1RG35     P    1  -0.019   0.010   0.010
    1RG35   O1P    2   0.010   0.021   0.008
    1RG35   O2P    3  -0.047   0.009   0.002
    1RG35   O5'    4   0.005  -0.071  -0.006
    1RG35   C5'    5  -0.012  -0.092  -0.040
    1RG35  H5'1    6   0.018   0.019   0.090
    1RG35  H5'2    7  -0.033   0.015  -0.099
    1RG35   C4'    8  -0.057  -0.008   0.055
    1RG35   H4'    9  -0.037   0.073   0.013
    1RG35   O4'   10   0.051  -0.056   0.051
    1RG35   C1'   11   0.006  -0.004  -0.024
    1RG35   H1'   12   0.001  -0.021   0.034
    1RG35    N9   13   0.043   0.072  -0.095
    1RG35    C8   14  -0.021  -0.064  -0.011
    1RG35    H8   15   0.047   0.079   0.003
    1RG35    N7   16  -0.116  -0.225   0.086
    1RG35    C5   17   0.143   0.290  -0.202
    1RG35    C6   18   0.045   0.100  -0.020
    1RG35    O6   19  -0.055   0.011   0.049
    1RG35    N1   20  -0.144  -0.321   0.218
    1RG35    H1   21   0.038   0.053  -0.029
    1RG35    C2   22   0.239   0.396  -0.292
    1RG35    N2   23  -0.045  -0.134   0.127
    1RG35   H21   24  -0.002   0.021  -0.049
    1RG35   H22   25  -0.010   0.051  -0.031
    1RG35    N3   26  -0.135  -0.239   0.175
    1RG35    C4   27  -0.031  -0.050   0.024
    1RG35   C3'   28   0.077  -0.010  -0.017
    1RG35   H3'   29   0.071  -0.039  -0.003
    1RG35   C2'   30  -0.010   0.087  -0.003
    1RG35  H2'1   31  -0.039   0.082   0.028
    1RG35   O2'   32  -0.052  -0.088   0.012
    1RG35  HO'2   33   0.017   0.011  -0.017
    1RG35   O3'   34   0.012  -0.000  -0.048
    1RG35   H3T   35  -0.005   0.003   0.006
    1RG35   O3P   36   0.046   0.021  -0.004
   0.00000   0.00000   0.00000
