Gromacs Runs On Most of All Computer Systems in water t=   0.00160 step= 2
   36
    1RG35     P    1   0.049  -0.155  -0.113
    1RG35   O1P    2   0.095  -0.117  -0.125
    1RG35   O2P    3   0.021  -0.181  -0.117
    1RG35   O5'    4   0.031  -0.143  -0.045
    1RG35   C5'    5   0.043  -0.087  -0.083
    1RG35  H5'1    6   0.068  -0.130  -0.141
    1RG35  H5'2    7   0.059  -0.016  -0.117
    1RG35   C4'    8  -0.001  -0.038  -0.006
    1RG35   H4'    9   0.027   0.028  -0.021
    1RG35   O4'   10  -0.046  -0.081   0.026
    1RG35   C1'   11  -0.064  -0.060   0.080
    1RG35   H1'   12  -0.061  -0.050   0.067
    1RG35    N9   13  -0.061  -0.081   0.100
    1RG35    C8   14  -0.040  -0.054   0.078
    1RG35    H8   15  -0.063  -0.097   0.105
    1RG35    N7   16   0.024   0.057   0.001
    1RG35    C5   17   0.036   0.086  -0.015
    1RG35    C6   18   0.106   0.216  -0.103
    1RG35    O6   19   0.185   0.358  -0.191
    1RG35    N1   20   0.082   0.174  -0.078
    1RG35    H1   21   0.135   0.274  -0.137
    1RG35    C2   22  -0.002   0.024   0.024
    1RG35    N2   23  -0.008   0.015   0.029
    1RG35   H21   24   0.031   0.096  -0.029
    1RG35   H22   25  -0.046  -0.045   0.082
    1RG35    N3   26  -0.055  -0.067   0.097
    1RG35    C4   27  -0.034  -0.033   0.071
    1RG35   C3'   28  -0.055  -0.009   0.064
    1RG35   H3'   29  -0.062  -0.058   0.104
    1RG35   C2'   30  -0.073  -0.003   0.100
    1RG35  H2'1   31  -0.098  -0.009   0.146
    1RG35   O2'   32  -0.066   0.064   0.090
    1RG35  HO'2   33  -0.054   0.158   0.085
    1RG35   O3'   34  -0.074   0.074   0.053
    1RG35   H3T   35  -0.074   0.060   0.057
    1RG35   O3P   36   0.046  -0.171  -0.140
   0.00000   0.00000   0.00000
