Gromacs Runs On Most of All Computer Systems in water t=   0.00001 step= 65
   36
    1RG35     P    1   0.041  -0.014   0.001
    1RG35   O1P    2  -0.015   0.006   0.022
    1RG35   O2P    3   0.076  -0.051  -0.046
    1RG35   O5'    4  -0.079   0.132   0.065
    1RG35   C5'    5  -0.067  -0.025  -0.008
    1RG35  H5'1    6   0.053   0.008   0.009
    1RG35  H5'2    7   0.028  -0.023  -0.044
    1RG35   C4'    8   0.057  -0.143   0.091
    1RG35   H4'    9   0.059   0.004  -0.066
    1RG35   O4'   10  -0.086  -0.074   0.206
    1RG35   C1'   11   0.048  -0.081  -0.198
    1RG35   H1'   12   0.064   0.018   0.087
    1RG35    N9   13   0.110  -0.091   0.058
    1RG35    C8   14   0.141   0.087   0.172
    1RG35    H8   15   0.103  -0.141  -0.099
    1RG35    N7   16  -0.267   0.159   0.062
    1RG35    C5   17  -0.147   0.048  -0.093
    1RG35    C6   18   0.002  -0.012   0.002
    1RG35    O6   19  -0.006  -0.022  -0.038
    1RG35    N1   20   0.152  -0.052   0.065
    1RG35    H1   21   0.110  -0.120  -0.104
    1RG35    C2   22  -0.079   0.121   0.122
    1RG35    N2   23  -0.013  -0.017  -0.047
    1RG35   H21   24   0.042  -0.007   0.011
    1RG35   H22   25  -0.034  -0.031  -0.065
    1RG35    N3   26  -0.151   0.180   0.126
    1RG35    C4   27  -0.025  -0.007  -0.025
    1RG35   C3'   28  -0.183  -0.093  -0.068
    1RG35   H3'   29  -0.060   0.074   0.074
    1RG35   C2'   30  -0.075   0.091  -0.344
    1RG35  H2'1   31  -0.040   0.119   0.086
    1RG35   O2'   32   0.180  -0.060  -0.128
    1RG35  HO'2   33  -0.040   0.020   0.173
    1RG35   O3'   34   0.088   0.003  -0.172
    1RG35   H3T   35   0.026   0.011   0.098
    1RG35   O3P   36  -0.014  -0.016   0.014
   0.00000   0.00000   0.00000
