Gromacs Runs On Most of All Computer Systems in water t=   0.00001 step= 63
   36
    1RG35     P    1   0.181   0.045  -0.031
    1RG35   O1P    2  -0.088   0.014   0.147
    1RG35   O2P    3   0.226  -0.244  -0.152
    1RG35   O5'    4  -0.159   0.232   0.108
    1RG35   C5'    5  -0.249  -0.056   0.004
    1RG35  H5'1    6   0.110   0.031  -0.024
    1RG35  H5'2    7   0.083  -0.007  -0.069
    1RG35   C4'    8  -0.180  -0.249   0.071
    1RG35   H4'    9   0.015   0.182   0.009
    1RG35   O4'   10   0.060   0.057  -0.225
    1RG35   C1'   11   0.023   0.092  -0.109
    1RG35   H1'   12  -0.013  -0.039   0.039
    1RG35    N9   13  -0.066  -0.034   0.032
    1RG35    C8   14   0.045   0.039   0.007
    1RG35    H8   15   0.025  -0.023   0.005
    1RG35    N7   16   0.025   0.001   0.066
    1RG35    C5   17   0.008   0.028  -0.002
    1RG35    C6   18  -0.027  -0.018   0.010
    1RG35    O6   19   0.018   0.001   0.005
    1RG35    N1   20  -0.004   0.007  -0.003
    1RG35    H1   21   0.002   0.007   0.021
    1RG35    C2   22   0.033  -0.023   0.013
    1RG35    N2   23   0.068  -0.002   0.033
    1RG35   H21   24   0.018  -0.050  -0.037
    1RG35   H22   25  -0.026   0.037   0.040
    1RG35    N3   26  -0.025  -0.026  -0.054
    1RG35    C4   27  -0.032   0.021  -0.020
    1RG35   C3'   28   0.133  -0.299   0.181
    1RG35   H3'   29   0.144   0.003  -0.175
    1RG35   C2'   30  -0.034   0.004  -0.019
    1RG35  H2'1   31   0.053   0.026   0.023
    1RG35   O2'   32  -0.106   0.021   0.038
    1RG35  HO'2   33   0.016  -0.002  -0.003
    1RG35   O3'   34  -0.130   0.121   0.258
    1RG35   H3T   35  -0.012  -0.021  -0.143
    1RG35   O3P   36  -0.134   0.123  -0.044
   0.00000   0.00000   0.00000
