Gromacs Runs On Most of All Computer Systems in water t=   0.00020 step= 12
   36
    1RG35     P    1   0.029   0.030   0.014
    1RG35   O1P    2  -0.110  -0.179   0.059
    1RG35   O2P    3   0.162   0.209  -0.037
    1RG35   O5'    4   0.069  -0.029  -0.242
    1RG35   C5'    5   0.063  -0.146  -0.098
    1RG35  H5'1    6  -0.005  -0.052   0.039
    1RG35  H5'2    7   0.154  -0.280  -0.049
    1RG35   C4'    8   0.029  -0.098  -0.054
    1RG35   H4'    9   0.082  -0.036  -0.021
    1RG35   O4'   10  -0.094  -0.077  -0.009
    1RG35   C1'   11  -0.069  -0.072   0.055
    1RG35   H1'   12  -0.080  -0.128   0.053
    1RG35    N9   13  -0.010   0.007   0.013
    1RG35    C8   14   0.025   0.082  -0.031
    1RG35    H8   15   0.061   0.150  -0.066
    1RG35    N7   16   0.006   0.060  -0.016
    1RG35    C5   17  -0.007   0.035   0.001
    1RG35    C6   18  -0.052  -0.031   0.033
    1RG35    O6   19  -0.165  -0.195   0.133
    1RG35    N1   20   0.034   0.104  -0.072
    1RG35    H1   21   0.044   0.138  -0.112
    1RG35    C2   22   0.072   0.149  -0.104
    1RG35    N2   23   0.029   0.028  -0.031
    1RG35   H21   24  -0.059  -0.162   0.108
    1RG35   H22   25   0.019  -0.053   0.033
    1RG35    N3   26   0.060   0.122  -0.072
    1RG35    C4   27   0.031   0.083  -0.036
    1RG35   C3'   28  -0.014  -0.062   0.007
    1RG35   H3'   29  -0.023  -0.121   0.054
    1RG35   C2'   30  -0.056  -0.046   0.070
    1RG35  H2'1   31  -0.099  -0.058   0.093
    1RG35   O2'   32  -0.047   0.014   0.077
    1RG35  HO'2   33  -0.071  -0.019   0.087
    1RG35   O3'   34  -0.014   0.123  -0.021
    1RG35   H3T   35  -0.015   0.376  -0.058
    1RG35   O3P   36   0.018   0.134   0.199
   0.00000   0.00000   0.00000
