Gromacs Runs On Most of All Computer Systems in water t=   0.00056 step= 6
   36
    1RG35     P    1  -0.035  -0.029   0.085
    1RG35   O1P    2  -0.050  -0.125   0.096
    1RG35   O2P    3  -0.031   0.012   0.037
    1RG35   O5'    4  -0.031  -0.019   0.016
    1RG35   C5'    5  -0.043  -0.021  -0.023
    1RG35  H5'1    6  -0.051  -0.055  -0.058
    1RG35  H5'2    7  -0.070   0.018  -0.037
    1RG35   C4'    8  -0.017  -0.041  -0.004
    1RG35   H4'    9   0.005  -0.058   0.055
    1RG35   O4'   10  -0.091  -0.004   0.006
    1RG35   C1'   11  -0.055  -0.027   0.010
    1RG35   H1'   12  -0.064  -0.074  -0.007
    1RG35    N9   13  -0.002  -0.014   0.009
    1RG35    C8   14   0.040   0.042  -0.037
    1RG35    H8   15   0.070   0.090  -0.077
    1RG35    N7   16   0.040   0.038  -0.030
    1RG35    C5   17   0.006  -0.015   0.012
    1RG35    C6   18  -0.009  -0.037   0.022
    1RG35    O6   19  -0.008  -0.030   0.019
    1RG35    N1   20  -0.020  -0.059   0.026
    1RG35    H1   21  -0.028  -0.069   0.024
    1RG35    C2   22  -0.005  -0.050   0.017
    1RG35    N2   23   0.042   0.002  -0.058
    1RG35   H21   24   0.048   0.045  -0.123
    1RG35   H22   25   0.093   0.034  -0.090
    1RG35    N3   26  -0.005  -0.049   0.025
    1RG35    C4   27  -0.005  -0.030   0.024
    1RG35   C3'   28   0.030  -0.063  -0.056
    1RG35   H3'   29  -0.015  -0.090  -0.143
    1RG35   C2'   30  -0.057   0.019   0.026
    1RG35  H2'1   31  -0.183  -0.016   0.093
    1RG35   O2'   32   0.039   0.249   0.093
    1RG35  HO'2   33   0.219   0.700   0.034
    1RG35   O3'   34   0.127  -0.105  -0.053
    1RG35   H3T   35   0.144  -0.186  -0.100
    1RG35   O3P   36  -0.029   0.017   0.166
   0.00000   0.00000   0.00000
