Gromacs Runs On Most of All Computer Systems in water t=   0.00075 step= 4
   36
    1RG35     P    1  -0.002   0.041   0.108
    1RG35   O1P    2  -0.135   0.125   0.118
    1RG35   O2P    3   0.099   0.052   0.240
    1RG35   O5'    4   0.039  -0.022   0.028
    1RG35   C5'    5  -0.013  -0.050  -0.087
    1RG35  H5'1    6   0.001  -0.112  -0.161
    1RG35  H5'2    7  -0.086   0.031  -0.116
    1RG35   C4'    8   0.008  -0.073  -0.068
    1RG35   H4'    9   0.028  -0.087  -0.017
    1RG35   O4'   10  -0.065  -0.038  -0.060
    1RG35   C1'   11  -0.070  -0.038  -0.059
    1RG35   H1'   12  -0.074  -0.051  -0.029
    1RG35    N9   13  -0.064  -0.030  -0.068
    1RG35    C8   14  -0.039  -0.096  -0.077
    1RG35    H8   15  -0.066  -0.160  -0.104
    1RG35    N7   16   0.021  -0.090  -0.053
    1RG35    C5   17   0.032  -0.010  -0.026
    1RG35    C6   18   0.095   0.034   0.034
    1RG35    O6   19   0.156  -0.001   0.058
    1RG35    N1   20   0.075   0.121   0.078
    1RG35    H1   21   0.107   0.139   0.143
    1RG35    C2   22  -0.011   0.149   0.068
    1RG35    N2   23  -0.074   0.224   0.184
    1RG35   H21   24  -0.030   0.209   0.314
    1RG35   H22   25  -0.202   0.204   0.221
    1RG35    N3   26  -0.063   0.105  -0.000
    1RG35    C4   27  -0.032   0.027  -0.040
    1RG35   C3'   28   0.034  -0.085  -0.097
    1RG35   H3'   29   0.024  -0.079  -0.132
    1RG35   C2'   30  -0.004  -0.057  -0.074
    1RG35  H2'1   31  -0.022  -0.064  -0.102
    1RG35   O2'   32   0.044  -0.061  -0.011
    1RG35  HO'2   33   0.101  -0.079  -0.030
    1RG35   O3'   34   0.085  -0.115  -0.093
    1RG35   H3T   35   0.089  -0.055  -0.116
    1RG35   O3P   36   0.011  -0.007   0.022
   0.00000   0.00000   0.00000
