Gromacs Runs On Most of All Computer Systems in water t=  -0.00000 step= 108
   36
    1RG35     P    1   0.088  -0.145  -0.022
    1RG35   O1P    2   0.087  -0.115  -0.069
    1RG35   O2P    3   0.070  -0.176   0.045
    1RG35   O5'    4   0.047  -0.112  -0.029
    1RG35   C5'    5   0.042  -0.070  -0.089
    1RG35  H5'1    6   0.084  -0.082  -0.117
    1RG35  H5'2    7   0.023  -0.046  -0.103
    1RG35   C4'    8   0.004  -0.048  -0.082
    1RG35   H4'    9   0.000  -0.019  -0.123
    1RG35   O4'   10   0.033  -0.082  -0.060
    1RG35   C1'   11  -0.014  -0.075  -0.020
    1RG35   H1'   12  -0.012  -0.063  -0.040
    1RG35    N9   13  -0.002  -0.122   0.040
    1RG35    C8   14   0.008  -0.152   0.076
    1RG35    H8   15   0.012  -0.147   0.065
    1RG35    N7   16   0.018  -0.191   0.127
    1RG35    C5   17   0.011  -0.185   0.123
    1RG35    C6   18   0.015  -0.214   0.164
    1RG35    O6   19   0.026  -0.252   0.213
    1RG35    N1   20   0.006  -0.194   0.143
    1RG35    H1   21   0.008  -0.213   0.170
    1RG35    C2   22  -0.006  -0.149   0.087
    1RG35    N2   23  -0.015  -0.132   0.070
    1RG35   H21   24  -0.013  -0.151   0.097
    1RG35   H22   25  -0.024  -0.100   0.031
    1RG35    N3   26  -0.010  -0.124   0.052
    1RG35    C4   27  -0.001  -0.142   0.071
    1RG35   C3'   28  -0.056  -0.037  -0.031
    1RG35   H3'   29  -0.054  -0.060   0.001
    1RG35   C2'   30  -0.074  -0.038  -0.010
    1RG35  H2'1   31  -0.104  -0.045   0.032
    1RG35   O2'   32  -0.103   0.007  -0.050
    1RG35  HO'2   33  -0.143   0.031  -0.043
    1RG35   O3'   34  -0.097   0.009  -0.058
    1RG35   H3T   35  -0.137   0.016  -0.026
    1RG35   O3P   36   0.154  -0.181  -0.040
   0.00000   0.00000   0.00000
