Gromacs Runs On Most of All Computer Systems in water t=  -1.00000 step= -1
   36
    1RG35     P    1   0.200   0.426   0.032
    1RG35   O1P    2   0.160   0.545   0.110
    1RG35   O2P    3   0.338   0.372   0.045
    1RG35   O5'    4   0.097   0.307   0.065
    1RG35   C5'    5  -0.040   0.335   0.095
    1RG35  H5'1    6  -0.078   0.389   0.020
    1RG35  H5'2    7  -0.044   0.388   0.180
    1RG35   C4'    8  -0.115   0.205   0.111
    1RG35   H4'    9  -0.210   0.225   0.134
    1RG35   O4'   10  -0.111   0.130  -0.013
    1RG35   C1'   11  -0.102  -0.008   0.022
    1RG35   H1'   12  -0.186  -0.052  -0.011
    1RG35    N9   13   0.016  -0.065  -0.045
    1RG35    C8   14   0.146  -0.018  -0.045
    1RG35    H8   15   0.175   0.065   0.004
    1RG35    N7   16   0.228  -0.092  -0.115
    1RG35    C5   17   0.147  -0.194  -0.164
    1RG35    C6   18   0.175  -0.305  -0.246
    1RG35    O6   19   0.287  -0.329  -0.290
    1RG35    N1   20   0.064  -0.385  -0.273
    1RG35    H1   21   0.079  -0.465  -0.331
    1RG35    C2   22  -0.069  -0.364  -0.227
    1RG35    N2   23  -0.172  -0.445  -0.256
    1RG35   H21   24  -0.158  -0.526  -0.313
    1RG35   H22   25  -0.263  -0.425  -0.220
    1RG35    N3   26  -0.088  -0.258  -0.150
    1RG35    C4   27   0.018  -0.178  -0.122
    1RG35   C3'   28  -0.044   0.118   0.214
    1RG35   H3'   29   0.054   0.133   0.222
    1RG35   C2'   30  -0.086  -0.023   0.173
    1RG35  H2'1   31  -0.027  -0.098   0.204
    1RG35   O2'   32  -0.212  -0.052   0.230
    1RG35  HO'2   33  -0.202  -0.062   0.329
    1RG35   O3'   34  -0.094   0.147   0.344
    1RG35   H3T   35  -0.047   0.090   0.411
    1RG35   O3P   36   0.174   0.458  -0.124
   0.00000   0.00000   0.00000
Gromacs Runs On Most of All Computer Systems in water t=   0.00000 step= 0
   36
    1RG35     P    1   0.280   0.319   0.063
    1RG35   O1P    2   0.301   0.335   0.207
    1RG35   O2P    3   0.375   0.230  -0.003
    1RG35   O5'    4   0.146   0.238   0.052
    1RG35   C5'    5   0.023   0.293   0.092
    1RG35  H5'1    6  -0.006   0.371   0.023
    1RG35  H5'2    7   0.033   0.337   0.190
    1RG35   C4'    8  -0.089   0.190   0.099
    1RG35   H4'    9  -0.175   0.237   0.146
    1RG35   O4'   10  -0.129   0.142  -0.029
    1RG35   C1'   11  -0.202   0.022  -0.008
    1RG35   H1'   12  -0.309   0.045  -0.012
    1RG35    N9   13  -0.172  -0.076  -0.115
    1RG35    C8   14  -0.251  -0.107  -0.221
    1RG35    H8   15  -0.348  -0.063  -0.235
    1RG35    N7   16  -0.200  -0.194  -0.303
    1RG35    C5   17  -0.075  -0.223  -0.248
    1RG35    C6   18   0.031  -0.309  -0.293
    1RG35    O6   19   0.040  -0.376  -0.394
    1RG35    N1   20   0.137  -0.312  -0.208
    1RG35    H1   21   0.216  -0.367  -0.233
    1RG35    C2   22   0.144  -0.238  -0.096
    1RG35    N2   23   0.255  -0.243  -0.032
    1RG35   H21   24   0.329  -0.302  -0.064
    1RG35   H22   25   0.267  -0.181   0.045
    1RG35    N3   26   0.053  -0.153  -0.054
    1RG35    C4   27  -0.057  -0.151  -0.133
    1RG35   C3'   28  -0.056   0.063   0.178
    1RG35   H3'   29   0.038   0.021   0.142
    1RG35   C2'   30  -0.172  -0.026   0.135
    1RG35  H2'1   31  -0.143  -0.131   0.137
    1RG35   O2'   32  -0.284  -0.003   0.218
    1RG35  HO'2   33  -0.250  -0.002   0.305
    1RG35   O3'   34  -0.050   0.083   0.318
    1RG35   H3T   35   0.042   0.088   0.340
    1RG35   O3P   36   0.256   0.443  -0.009
   0.00000   0.00000   0.00000
Gromacs Runs On Most of All Computer Systems in water t=   0.00959 step= 1
   36
    1RG35     P    1   0.036  -0.078   0.100
    1RG35   O1P    2   0.018  -0.101   0.106
    1RG35   O2P    3   0.021  -0.099   0.105
    1RG35   O5'    4   0.016  -0.038   0.068
    1RG35   C5'    5   0.025  -0.012   0.058
    1RG35  H5'1    6   0.059   0.010   0.068
    1RG35  H5'2    7   0.018  -0.037   0.070
    1RG35   C4'    8  -0.002   0.014   0.011
    1RG35   H4'    9  -0.002   0.022   0.003
    1RG35   O4'   10   0.019   0.055  -0.010
    1RG35   C1'   11   0.005   0.054  -0.068
    1RG35   H1'   12   0.008   0.058  -0.101
    1RG35    N9   13   0.046   0.094  -0.094
    1RG35    C8   14   0.120   0.201  -0.181
    1RG35    H8   15   0.159   0.268  -0.242
    1RG35    N7   16   0.142   0.221  -0.188
    1RG35    C5   17   0.078   0.118  -0.098
    1RG35    C6   18   0.069   0.086  -0.060
    1RG35    O6   19   0.120   0.147  -0.096
    1RG35    N1   20  -0.008  -0.031   0.032
    1RG35    H1   21  -0.011  -0.049   0.059
    1RG35    C2   22  -0.061  -0.102   0.082
    1RG35    N2   23  -0.117  -0.201   0.172
    1RG35   H21   24  -0.117  -0.214   0.196
    1RG35   H22   25  -0.141  -0.224   0.192
    1RG35    N3   26  -0.047  -0.072   0.053
    1RG35    C4   27   0.020   0.038  -0.039
    1RG35   C3'   28  -0.047  -0.011  -0.010
    1RG35   H3'   29  -0.044  -0.019   0.009
    1RG35   C2'   30  -0.050   0.019  -0.067
    1RG35  H2'1   31  -0.072   0.012  -0.077
    1RG35   O2'   32  -0.070   0.025  -0.095
    1RG35  HO'2   33  -0.092   0.007  -0.086
    1RG35   O3'   34  -0.088  -0.042  -0.004
    1RG35   H3T   35  -0.094  -0.057   0.024
    1RG35   O3P   36   0.083  -0.063   0.111
   0.00000   0.00000   0.00000
Gromacs Runs On Most of All Computer Systems in water t=   0.00160 step= 2
   36
    1RG35     P    1   0.049  -0.155  -0.113
    1RG35   O1P    2   0.095  -0.117  -0.125
    1RG35   O2P    3   0.021  -0.181  -0.117
    1RG35   O5'    4   0.031  -0.143  -0.045
    1RG35   C5'    5   0.043  -0.087  -0.083
    1RG35  H5'1    6   0.068  -0.130  -0.141
    1RG35  H5'2    7   0.059  -0.016  -0.117
    1RG35   C4'    8  -0.001  -0.038  -0.006
    1RG35   H4'    9   0.027   0.028  -0.021
    1RG35   O4'   10  -0.046  -0.081   0.026
    1RG35   C1'   11  -0.064  -0.060   0.080
    1RG35   H1'   12  -0.061  -0.050   0.067
    1RG35    N9   13  -0.061  -0.081   0.100
    1RG35    C8   14  -0.040  -0.054   0.078
    1RG35    H8   15  -0.063  -0.097   0.105
    1RG35    N7   16   0.024   0.057   0.001
    1RG35    C5   17   0.036   0.086  -0.015
    1RG35    C6   18   0.106   0.216  -0.103
    1RG35    O6   19   0.185   0.358  -0.191
    1RG35    N1   20   0.082   0.174  -0.078
    1RG35    H1   21   0.135   0.274  -0.137
    1RG35    C2   22  -0.002   0.024   0.024
    1RG35    N2   23  -0.008   0.015   0.029
    1RG35   H21   24   0.031   0.096  -0.029
    1RG35   H22   25  -0.046  -0.045   0.082
    1RG35    N3   26  -0.055  -0.067   0.097
    1RG35    C4   27  -0.034  -0.033   0.071
    1RG35   C3'   28  -0.055  -0.009   0.064
    1RG35   H3'   29  -0.062  -0.058   0.104
    1RG35   C2'   30  -0.073  -0.003   0.100
    1RG35  H2'1   31  -0.098  -0.009   0.146
    1RG35   O2'   32  -0.066   0.064   0.090
    1RG35  HO'2   33  -0.054   0.158   0.085
    1RG35   O3'   34  -0.074   0.074   0.053
    1RG35   H3T   35  -0.074   0.060   0.057
    1RG35   O3P   36   0.046  -0.171  -0.140
   0.00000   0.00000   0.00000
Gromacs Runs On Most of All Computer Systems in water t=   0.00115 step= 3
   36
    1RG35     P    1  -0.018  -0.077  -0.206
    1RG35   O1P    2   0.135  -0.124  -0.223
    1RG35   O2P    3  -0.095  -0.065  -0.332
    1RG35   O5'    4  -0.041  -0.062  -0.085
    1RG35   C5'    5   0.015  -0.070   0.099
    1RG35  H5'1    6  -0.017   0.031   0.228
    1RG35  H5'2    7   0.128  -0.204   0.145
    1RG35   C4'    8  -0.028  -0.026   0.074
    1RG35   H4'    9   0.004  -0.019   0.125
    1RG35   O4'   10  -0.077   0.061   0.055
    1RG35   C1'   11  -0.053   0.033  -0.018
    1RG35   H1'   12  -0.058   0.003  -0.046
    1RG35    N9   13   0.017   0.072  -0.037
    1RG35    C8   14   0.066   0.075  -0.075
    1RG35    H8   15   0.085   0.095  -0.132
    1RG35    N7   16   0.081   0.037  -0.025
    1RG35    C5   17   0.050   0.022   0.035
    1RG35    C6   18   0.048  -0.018   0.108
    1RG35    O6   19   0.073  -0.066   0.143
    1RG35    N1   20   0.023   0.007   0.138
    1RG35    H1   21   0.031  -0.001   0.177
    1RG35    C2   22   0.017   0.077   0.090
    1RG35    N2   23   0.050   0.183   0.043
    1RG35   H21   24   0.070   0.214   0.037
    1RG35   H22   25   0.092   0.302  -0.055
    1RG35    N3   26   0.010   0.101   0.028
    1RG35    C4   27   0.023   0.068   0.011
    1RG35   C3'   28  -0.053  -0.075   0.004
    1RG35   H3'   29  -0.065  -0.075  -0.026
    1RG35   C2'   30  -0.084  -0.019  -0.029
    1RG35  H2'1   31  -0.126  -0.032  -0.060
    1RG35   O2'   32  -0.083  -0.007  -0.029
    1RG35  HO'2   33  -0.096  -0.076  -0.025
    1RG35   O3'   34  -0.023  -0.147   0.012
    1RG35   H3T   35  -0.018  -0.167  -0.012
    1RG35   O3P   36  -0.082  -0.051  -0.140
   0.00000   0.00000   0.00000
Gromacs Runs On Most of All Computer Systems in water t=   0.00075 step= 4
   36
    1RG35     P    1  -0.002   0.041   0.108
    1RG35   O1P    2  -0.135   0.125   0.118
    1RG35   O2P    3   0.099   0.052   0.240
    1RG35   O5'    4   0.039  -0.022   0.028
    1RG35   C5'    5  -0.013  -0.050  -0.087
    1RG35  H5'1    6   0.001  -0.112  -0.161
    1RG35  H5'2    7  -0.086   0.031  -0.116
    1RG35   C4'    8   0.008  -0.073  -0.068
    1RG35   H4'    9   0.028  -0.087  -0.017
    1RG35   O4'   10  -0.065  -0.038  -0.060
    1RG35   C1'   11  -0.070  -0.038  -0.059
    1RG35   H1'   12  -0.074  -0.051  -0.029
    1RG35    N9   13  -0.064  -0.030  -0.068
    1RG35    C8   14  -0.039  -0.096  -0.077
    1RG35    H8   15  -0.066  -0.160  -0.104
    1RG35    N7   16   0.021  -0.090  -0.053
    1RG35    C5   17   0.032  -0.010  -0.026
    1RG35    C6   18   0.095   0.034   0.034
    1RG35    O6   19   0.156  -0.001   0.058
    1RG35    N1   20   0.075   0.121   0.078
    1RG35    H1   21   0.107   0.139   0.143
    1RG35    C2   22  -0.011   0.149   0.068
    1RG35    N2   23  -0.074   0.224   0.184
    1RG35   H21   24  -0.030   0.209   0.314
    1RG35   H22   25  -0.202   0.204   0.221
    1RG35    N3   26  -0.063   0.105  -0.000
    1RG35    C4   27  -0.032   0.027  -0.040
    1RG35   C3'   28   0.034  -0.085  -0.097
    1RG35   H3'   29   0.024  -0.079  -0.132
    1RG35   C2'   30  -0.004  -0.057  -0.074
    1RG35  H2'1   31  -0.022  -0.064  -0.102
    1RG35   O2'   32   0.044  -0.061  -0.011
    1RG35  HO'2   33   0.101  -0.079  -0.030
    1RG35   O3'   34   0.085  -0.115  -0.093
    1RG35   H3T   35   0.089  -0.055  -0.116
    1RG35   O3P   36   0.011  -0.007   0.022
   0.00000   0.00000   0.00000
Gromacs Runs On Most of All Computer Systems in water t=   0.00065 step= 5
   36
    1RG35     P    1  -0.006   0.177  -0.051
    1RG35   O1P    2   0.032   0.242  -0.062
    1RG35   O2P    3   0.031   0.220  -0.056
    1RG35   O5'    4   0.044   0.079   0.020
    1RG35   C5'    5   0.047  -0.024   0.158
    1RG35  H5'1    6   0.018   0.125   0.339
    1RG35  H5'2    7   0.079  -0.236   0.249
    1RG35   C4'    8   0.053  -0.040  -0.006
    1RG35   H4'    9   0.009  -0.060  -0.066
    1RG35   O4'   10   0.159  -0.044  -0.043
    1RG35   C1'   11   0.047   0.013  -0.069
    1RG35   H1'   12   0.070   0.112  -0.123
    1RG35    N9   13  -0.006  -0.072  -0.012
    1RG35    C8   14  -0.046  -0.161   0.044
    1RG35    H8   15  -0.085  -0.234   0.084
    1RG35    N7   16  -0.031  -0.145   0.035
    1RG35    C5   17   0.009  -0.064  -0.013
    1RG35    C6   18   0.048   0.003  -0.050
    1RG35    O6   19   0.071   0.036  -0.072
    1RG35    N1   20   0.057   0.031  -0.058
    1RG35    H1   21   0.083   0.080  -0.081
    1RG35    C2   22   0.015  -0.014  -0.025
    1RG35    N2   23  -0.040  -0.070   0.060
    1RG35   H21   24  -0.031  -0.088   0.111
    1RG35   H22   25  -0.116  -0.138   0.121
    1RG35    N3   26  -0.007  -0.047  -0.012
    1RG35    C4   27  -0.003  -0.063  -0.013
    1RG35   C3'   28  -0.003  -0.059  -0.020
    1RG35   H3'   29  -0.020  -0.095  -0.021
    1RG35   C2'   30  -0.059   0.022  -0.044
    1RG35  H2'1   31  -0.155  -0.005   0.000
    1RG35   O2'   32  -0.068   0.160  -0.095
    1RG35  HO'2   33  -0.074   0.273  -0.091
    1RG35   O3'   34  -0.003  -0.064  -0.020
    1RG35   H3T   35  -0.003   0.016  -0.031
    1RG35   O3P   36  -0.115   0.137  -0.086
   0.00000   0.00000   0.00000
Gromacs Runs On Most of All Computer Systems in water t=   0.00056 step= 6
   36
    1RG35     P    1  -0.035  -0.029   0.085
    1RG35   O1P    2  -0.050  -0.125   0.096
    1RG35   O2P    3  -0.031   0.012   0.037
    1RG35   O5'    4  -0.031  -0.019   0.016
    1RG35   C5'    5  -0.043  -0.021  -0.023
    1RG35  H5'1    6  -0.051  -0.055  -0.058
    1RG35  H5'2    7  -0.070   0.018  -0.037
    1RG35   C4'    8  -0.017  -0.041  -0.004
    1RG35   H4'    9   0.005  -0.058   0.055
    1RG35   O4'   10  -0.091  -0.004   0.006
    1RG35   C1'   11  -0.055  -0.027   0.010
    1RG35   H1'   12  -0.064  -0.074  -0.007
    1RG35    N9   13  -0.002  -0.014   0.009
    1RG35    C8   14   0.040   0.042  -0.037
    1RG35    H8   15   0.070   0.090  -0.077
    1RG35    N7   16   0.040   0.038  -0.030
    1RG35    C5   17   0.006  -0.015   0.012
    1RG35    C6   18  -0.009  -0.037   0.022
    1RG35    O6   19  -0.008  -0.030   0.019
    1RG35    N1   20  -0.020  -0.059   0.026
    1RG35    H1   21  -0.028  -0.069   0.024
    1RG35    C2   22  -0.005  -0.050   0.017
    1RG35    N2   23   0.042   0.002  -0.058
    1RG35   H21   24   0.048   0.045  -0.123
    1RG35   H22   25   0.093   0.034  -0.090
    1RG35    N3   26  -0.005  -0.049   0.025
    1RG35    C4   27  -0.005  -0.030   0.024
    1RG35   C3'   28   0.030  -0.063  -0.056
    1RG35   H3'   29  -0.015  -0.090  -0.143
    1RG35   C2'   30  -0.057   0.019   0.026
    1RG35  H2'1   31  -0.183  -0.016   0.093
    1RG35   O2'   32   0.039   0.249   0.093
    1RG35  HO'2   33   0.219   0.700   0.034
    1RG35   O3'   34   0.127  -0.105  -0.053
    1RG35   H3T   35   0.144  -0.186  -0.100
    1RG35   O3P   36  -0.029   0.017   0.166
   0.00000   0.00000   0.00000
Gromacs Runs On Most of All Computer Systems in water t=   0.00040 step= 7
   36
    1RG35     P    1  -0.016  -0.123   0.035
    1RG35   O1P    2   0.034  -0.493   0.068
    1RG35   O2P    3  -0.125  -0.072  -0.196
    1RG35   O5'    4  -0.110   0.063  -0.150
    1RG35   C5'    5  -0.055   0.090  -0.005
    1RG35  H5'1    6  -0.068   0.201   0.123
    1RG35  H5'2    7   0.033  -0.051   0.050
    1RG35   C4'    8  -0.078   0.108  -0.052
    1RG35   H4'    9  -0.079   0.084  -0.030
    1RG35   O4'   10  -0.083   0.086  -0.051
    1RG35   C1'   11  -0.014   0.036  -0.040
    1RG35   H1'   12  -0.027  -0.023  -0.009
    1RG35    N9   13  -0.002   0.006  -0.014
    1RG35    C8   14  -0.054  -0.127   0.066
    1RG35    H8   15  -0.117  -0.245   0.129
    1RG35    N7   16  -0.025  -0.103   0.061
    1RG35    C5   17   0.023   0.003   0.006
    1RG35    C6   18   0.055   0.047  -0.008
    1RG35    O6   19   0.084   0.073  -0.018
    1RG35    N1   20   0.043   0.051   0.002
    1RG35    H1   21   0.058   0.067   0.007
    1RG35    C2   22   0.020   0.038   0.006
    1RG35    N2   23  -0.028  -0.053   0.077
    1RG35   H21   24  -0.057  -0.119   0.133
    1RG35   H22   25  -0.011  -0.019   0.048
    1RG35    N3   26   0.028   0.066  -0.027
    1RG35    C4   27   0.021   0.037  -0.017
    1RG35   C3'   28  -0.001   0.110  -0.085
    1RG35   H3'   29   0.010   0.170  -0.128
    1RG35   C2'   30   0.048   0.047  -0.054
    1RG35  H2'1   31   0.124   0.068  -0.067
    1RG35   O2'   32   0.069  -0.032  -0.010
    1RG35  HO'2   33   0.117  -0.018  -0.027
    1RG35   O3'   34   0.035   0.066  -0.082
    1RG35   H3T   35   0.044  -0.113  -0.083
    1RG35   O3P   36   0.104   0.076   0.343
   0.00000   0.00000   0.00000
Gromacs Runs On Most of All Computer Systems in water t=   0.00038 step= 8
   36
    1RG35     P    1  -0.030  -0.042   0.011
    1RG35   O1P    2  -0.021  -0.033   0.010
    1RG35   O2P    3  -0.048  -0.063   0.013
    1RG35   O5'    4  -0.039  -0.022   0.020
    1RG35   C5'    5  -0.028  -0.021   0.051
    1RG35  H5'1    6  -0.013   0.039   0.112
    1RG35  H5'2    7  -0.022  -0.109   0.090
    1RG35   C4'    8  -0.035  -0.016  -0.026
    1RG35   H4'    9  -0.079  -0.014  -0.106
    1RG35   O4'   10   0.056  -0.078  -0.033
    1RG35   C1'   11   0.039  -0.069  -0.032
    1RG35   H1'   12   0.039  -0.059   0.021
    1RG35    N9   13  -0.006  -0.052  -0.069
    1RG35    C8   14   0.016  -0.027  -0.104
    1RG35    H8   15   0.033  -0.001  -0.146
    1RG35    N7   16   0.020  -0.041  -0.093
    1RG35    C5   17   0.003  -0.065  -0.059
    1RG35    C6   18   0.019  -0.069  -0.024
    1RG35    O6   19   0.053  -0.079  -0.017
    1RG35    N1   20   0.004  -0.044   0.004
    1RG35    H1   21   0.018  -0.032   0.024
    1RG35    C2   22  -0.020  -0.008  -0.010
    1RG35    N2   23  -0.029   0.104   0.009
    1RG35   H21   24   0.031   0.168   0.042
    1RG35   H22   25  -0.102   0.159  -0.020
    1RG35    N3   26  -0.029  -0.014  -0.045
    1RG35    C4   27  -0.014  -0.051  -0.063
    1RG35   C3'   28  -0.035   0.045   0.067
    1RG35   H3'   29   0.050   0.095   0.234
    1RG35   C2'   30   0.101  -0.075  -0.039
    1RG35  H2'1   31   0.237  -0.036  -0.054
    1RG35   O2'   32   0.125  -0.201   0.010
    1RG35  HO'2   33   0.316   0.330  -0.054
    1RG35   O3'   34  -0.275   0.177   0.069
    1RG35   H3T   35  -0.313   0.251   0.205
    1RG35   O3P   36  -0.024  -0.045   0.002
   0.00000   0.00000   0.00000
Gromacs Runs On Most of All Computer Systems in water t=   0.00032 step= 9
   36
    1RG35     P    1   0.028   0.139   0.050
    1RG35   O1P    2   0.251  -0.158   0.049
    1RG35   O2P    3  -0.020   0.347  -0.302
    1RG35   O5'    4   0.086   0.031   0.107
    1RG35   C5'    5   0.028  -0.003  -0.038
    1RG35  H5'1    6   0.056  -0.091  -0.145
    1RG35  H5'2    7  -0.064   0.113  -0.082
    1RG35   C4'    8   0.049  -0.035  -0.042
    1RG35   H4'    9   0.018  -0.018  -0.116
    1RG35   O4'   10   0.113  -0.103  -0.037
    1RG35   C1'   11   0.020  -0.043  -0.006
    1RG35   H1'   12   0.038   0.042  -0.019
    1RG35    N9   13  -0.037  -0.094   0.021
    1RG35    C8   14   0.015  -0.020  -0.039
    1RG35    H8   15   0.052   0.039  -0.096
    1RG35    N7   16   0.034  -0.001  -0.050
    1RG35    C5   17  -0.011  -0.073   0.010
    1RG35    C6   18   0.020  -0.031   0.004
    1RG35    O6   19   0.106   0.072  -0.055
    1RG35    N1   20  -0.029  -0.081   0.058
    1RG35    H1   21   0.007  -0.017   0.032
    1RG35    C2   22  -0.078  -0.122   0.089
    1RG35    N2   23  -0.044   0.018   0.028
    1RG35   H21   24   0.055   0.210  -0.088
    1RG35   H22   25  -0.075   0.076  -0.017
    1RG35    N3   26  -0.109  -0.170   0.105
    1RG35    C4   27  -0.070  -0.143   0.061
    1RG35   C3'   28  -0.007  -0.009   0.021
    1RG35   H3'   29  -0.007  -0.042   0.061
    1RG35   C2'   30  -0.013  -0.011   0.018
    1RG35  H2'1   31  -0.016  -0.011   0.046
    1RG35   O2'   32  -0.044  -0.011  -0.023
    1RG35  HO'2   33  -0.117  -0.140  -0.003
    1RG35   O3'   34  -0.022   0.047   0.013
    1RG35   H3T   35  -0.020   0.011   0.018
    1RG35   O3P   36  -0.193   0.281   0.366
   0.00000   0.00000   0.00000
Gromacs Runs On Most of All Computer Systems in water t=   0.00028 step= 10
   36
    1RG35     P    1   0.015   0.041  -0.041
    1RG35   O1P    2   0.158  -0.013  -0.058
    1RG35   O2P    3   0.003   0.137  -0.188
    1RG35   O5'    4   0.064  -0.056   0.103
    1RG35   C5'    5   0.033  -0.028  -0.039
    1RG35  H5'1    6   0.044  -0.194  -0.230
    1RG35  H5'2    7  -0.029   0.195  -0.134
    1RG35   C4'    8   0.048  -0.031   0.076
    1RG35   H4'    9   0.076  -0.002   0.097
    1RG35   O4'   10   0.010   0.044   0.063
    1RG35   C1'   11   0.020   0.040  -0.007
    1RG35   H1'   12   0.020   0.041  -0.010
    1RG35    N9   13   0.038   0.092  -0.044
    1RG35    C8   14  -0.026  -0.005   0.035
    1RG35    H8   15  -0.081  -0.101   0.113
    1RG35    N7   16  -0.034  -0.011   0.039
    1RG35    C5   17   0.018   0.076  -0.031
    1RG35    C6   18  -0.011   0.028  -0.005
    1RG35    O6   19  -0.066  -0.064   0.053
    1RG35    N1   20   0.009   0.053  -0.028
    1RG35    H1   21  -0.036  -0.031   0.015
    1RG35    C2   22   0.066   0.142  -0.092
    1RG35    N2   23  -0.008  -0.039   0.028
    1RG35   H21   24  -0.125  -0.282   0.207
    1RG35   H22   25   0.038  -0.004  -0.008
    1RG35    N3   26   0.113   0.224  -0.146
    1RG35    C4   27   0.078   0.168  -0.101
    1RG35   C3'   28  -0.013  -0.058   0.077
    1RG35   H3'   29   0.013  -0.063   0.153
    1RG35   C2'   30   0.007  -0.036  -0.036
    1RG35  H2'1   31   0.002  -0.037  -0.093
    1RG35   O2'   32  -0.004  -0.069  -0.050
    1RG35  HO'2   33   0.055   0.189  -0.070
    1RG35   O3'   34  -0.159  -0.130   0.100
    1RG35   H3T   35  -0.184  -0.272   0.214
    1RG35   O3P   36  -0.152   0.057   0.039
   0.00000   0.00000   0.00000
Gromacs Runs On Most of All Computer Systems in water t=   0.00021 step= 11
   36
    1RG35     P    1  -0.019  -0.003  -0.040
    1RG35   O1P    2  -0.104  -0.050  -0.022
    1RG35   O2P    3  -0.010  -0.022  -0.003
    1RG35   O5'    4  -0.044   0.066  -0.144
    1RG35   C5'    5  -0.017   0.062  -0.054
    1RG35  H5'1    6  -0.079   0.057  -0.036
    1RG35  H5'2    7   0.042   0.070  -0.063
    1RG35   C4'    8   0.015   0.034   0.014
    1RG35   H4'    9   0.001   0.031  -0.007
    1RG35   O4'   10   0.060   0.011   0.006
    1RG35   C1'   11   0.054   0.019  -0.008
    1RG35   H1'   12   0.060   0.042  -0.012
    1RG35    N9   13   0.021  -0.009   0.012
    1RG35    C8   14   0.039   0.046  -0.015
    1RG35    H8   15   0.107   0.172  -0.086
    1RG35    N7   16  -0.026  -0.051   0.047
    1RG35    C5   17  -0.048  -0.106   0.070
    1RG35    C6   18  -0.062  -0.123   0.067
    1RG35    O6   19  -0.166  -0.268   0.150
    1RG35    N1   20   0.074   0.105  -0.089
    1RG35    H1   21   0.206   0.382  -0.276
    1RG35    C2   22   0.010  -0.009  -0.007
    1RG35    N2   23  -0.014   0.018   0.027
    1RG35   H21   24   0.076   0.161  -0.026
    1RG35   H22   25  -0.170  -0.160   0.190
    1RG35    N3   26  -0.049  -0.121   0.079
    1RG35    C4   27  -0.030  -0.092   0.059
    1RG35   C3'   28   0.021   0.034   0.031
    1RG35   H3'   29   0.039   0.060   0.047
    1RG35   C2'   30   0.040   0.026  -0.009
    1RG35  H2'1   31   0.052   0.030   0.006
    1RG35   O2'   32   0.001   0.020  -0.060
    1RG35  HO'2   33  -0.040   0.026  -0.045
    1RG35   O3'   34  -0.050  -0.073   0.054
    1RG35   H3T   35  -0.064  -0.408   0.166
    1RG35   O3P   36   0.075   0.024  -0.025
   0.00000   0.00000   0.00000
Gromacs Runs On Most of All Computer Systems in water t=   0.00020 step= 12
   36
    1RG35     P    1   0.029   0.030   0.014
    1RG35   O1P    2  -0.110  -0.179   0.059
    1RG35   O2P    3   0.162   0.209  -0.037
    1RG35   O5'    4   0.069  -0.029  -0.242
    1RG35   C5'    5   0.063  -0.146  -0.098
    1RG35  H5'1    6  -0.005  -0.052   0.039
    1RG35  H5'2    7   0.154  -0.280  -0.049
    1RG35   C4'    8   0.029  -0.098  -0.054
    1RG35   H4'    9   0.082  -0.036  -0.021
    1RG35   O4'   10  -0.094  -0.077  -0.009
    1RG35   C1'   11  -0.069  -0.072   0.055
    1RG35   H1'   12  -0.080  -0.128   0.053
    1RG35    N9   13  -0.010   0.007   0.013
    1RG35    C8   14   0.025   0.082  -0.031
    1RG35    H8   15   0.061   0.150  -0.066
    1RG35    N7   16   0.006   0.060  -0.016
    1RG35    C5   17  -0.007   0.035   0.001
    1RG35    C6   18  -0.052  -0.031   0.033
    1RG35    O6   19  -0.165  -0.195   0.133
    1RG35    N1   20   0.034   0.104  -0.072
    1RG35    H1   21   0.044   0.138  -0.112
    1RG35    C2   22   0.072   0.149  -0.104
    1RG35    N2   23   0.029   0.028  -0.031
    1RG35   H21   24  -0.059  -0.162   0.108
    1RG35   H22   25   0.019  -0.053   0.033
    1RG35    N3   26   0.060   0.122  -0.072
    1RG35    C4   27   0.031   0.083  -0.036
    1RG35   C3'   28  -0.014  -0.062   0.007
    1RG35   H3'   29  -0.023  -0.121   0.054
    1RG35   C2'   30  -0.056  -0.046   0.070
    1RG35  H2'1   31  -0.099  -0.058   0.093
    1RG35   O2'   32  -0.047   0.014   0.077
    1RG35  HO'2   33  -0.071  -0.019   0.087
    1RG35   O3'   34  -0.014   0.123  -0.021
    1RG35   H3T   35  -0.015   0.376  -0.058
    1RG35   O3P   36   0.018   0.134   0.199
   0.00000   0.00000   0.00000
Gromacs Runs On Most of All Computer Systems in water t=   0.00020 step= 13
   36
    1RG35     P    1  -0.028  -0.094   0.044
    1RG35   O1P    2   0.287  -0.002  -0.015
    1RG35   O2P    3  -0.186  -0.148  -0.112
    1RG35   O5'    4  -0.038  -0.108   0.396
    1RG35   C5'    5  -0.058   0.028   0.148
    1RG35  H5'1    6   0.076  -0.075  -0.025
    1RG35  H5'2    7  -0.204   0.173   0.099
    1RG35   C4'    8  -0.071   0.034   0.057
    1RG35   H4'    9  -0.084  -0.011   0.080
    1RG35   O4'   10  -0.042   0.062   0.032
    1RG35   C1'   11   0.005   0.016  -0.025
    1RG35   H1'   12  -0.002  -0.022  -0.044
    1RG35    N9   13   0.044   0.026  -0.043
    1RG35    C8   14   0.049  -0.006  -0.035
    1RG35    H8   15   0.063   0.006  -0.063
    1RG35    N7   16   0.024  -0.065   0.010
    1RG35    C5   17   0.021  -0.055   0.003
    1RG35    C6   18   0.001  -0.092   0.021
    1RG35    O6   19  -0.061  -0.221   0.101
    1RG35    N1   20   0.077   0.062  -0.080
    1RG35    H1   21   0.160   0.232  -0.190
    1RG35    C2   22   0.044   0.032  -0.059
    1RG35    N2   23  -0.004  -0.021   0.007
    1RG35   H21   24  -0.002  -0.040   0.056
    1RG35   H22   25  -0.062  -0.058   0.046
    1RG35    N3   26   0.027   0.008  -0.041
    1RG35    C4   27   0.034   0.005  -0.035
    1RG35   C3'   28  -0.023   0.010  -0.018
    1RG35   H3'   29  -0.048   0.017  -0.093
    1RG35   C2'   30  -0.022   0.013  -0.014
    1RG35  H2'1   31  -0.026   0.012  -0.014
    1RG35   O2'   32  -0.005   0.028   0.003
    1RG35  HO'2   33   0.005   0.000  -0.003
    1RG35   O3'   34   0.105   0.032  -0.032
    1RG35   H3T   35   0.127   0.364  -0.180
    1RG35   O3P   36  -0.182  -0.140   0.018
   0.00000   0.00000   0.00000
Gromacs Runs On Most of All Computer Systems in water t=   0.00016 step= 14
   36
    1RG35     P    1   0.080   0.047   0.005
    1RG35   O1P    2   0.127   0.085  -0.006
    1RG35   O2P    3   0.110   0.097  -0.017
    1RG35   O5'    4   0.115  -0.050   0.072
    1RG35   C5'    5   0.089  -0.066   0.013
    1RG35  H5'1    6   0.175  -0.027   0.024
    1RG35  H5'2    7   0.064  -0.106   0.031
    1RG35   C4'    8  -0.004   0.014  -0.047
    1RG35   H4'    9   0.056   0.058   0.019
    1RG35   O4'   10  -0.141   0.098  -0.036
    1RG35   C1'   11  -0.131   0.085  -0.031
    1RG35   H1'   12  -0.143   0.039   0.019
    1RG35    N9   13  -0.081   0.077   0.010
    1RG35    C8   14  -0.082   0.041   0.025
    1RG35    H8   15  -0.087   0.033   0.005
    1RG35    N7   16  -0.066   0.012   0.074
    1RG35    C5   17  -0.067   0.029   0.103
    1RG35    C6   18  -0.052   0.045   0.112
    1RG35    O6   19  -0.037   0.052   0.116
    1RG35    N1   20  -0.036   0.067   0.086
    1RG35    H1   21   0.009   0.151   0.037
    1RG35    C2   22  -0.048  -0.018   0.121
    1RG35    N2   23   0.029  -0.123   0.003
    1RG35   H21   24   0.024   0.027  -0.302
    1RG35   H22   25   0.162  -0.279   0.100
    1RG35    N3   26  -0.071  -0.022   0.130
    1RG35    C4   27  -0.077   0.027   0.101
    1RG35   C3'   28  -0.057  -0.030  -0.106
    1RG35   H3'   29  -0.048  -0.020  -0.094
    1RG35   C2'   30  -0.031  -0.042  -0.117
    1RG35  H2'1   31   0.030  -0.029  -0.280
    1RG35   O2'   32   0.090  -0.225   0.066
    1RG35  HO'2   33   0.359  -0.017  -0.028
    1RG35   O3'   34  -0.115  -0.063  -0.104
    1RG35   H3T   35  -0.123   0.009  -0.097
    1RG35   O3P   36  -0.019   0.025  -0.006
   0.00000   0.00000   0.00000
Gromacs Runs On Most of All Computer Systems in water t=   0.00015 step= 15
   36
    1RG35     P    1  -0.030  -0.073   0.015
    1RG35   O1P    2  -0.030  -0.053   0.011
    1RG35   O2P    3  -0.035  -0.081   0.020
    1RG35   O5'    4  -0.009  -0.073   0.049
    1RG35   C5'    5  -0.004  -0.048   0.005
    1RG35  H5'1    6   0.022  -0.042   0.000
    1RG35  H5'2    7  -0.076  -0.094   0.034
    1RG35   C4'    8   0.041  -0.065  -0.104
    1RG35   H4'    9  -0.092  -0.087  -0.324
    1RG35   O4'   10   0.320  -0.161  -0.123
    1RG35   C1'   11   0.049   0.052  -0.010
    1RG35   H1'   12   0.107   0.332  -0.018
    1RG35    N9   13  -0.076  -0.017   0.058
    1RG35    C8   14  -0.078   0.073   0.027
    1RG35    H8   15  -0.020   0.196  -0.025
    1RG35    N7   16  -0.103   0.038   0.048
    1RG35    C5   17  -0.113  -0.022   0.086
    1RG35    C6   18  -0.085   0.026   0.066
    1RG35    O6   19  -0.063   0.110   0.015
    1RG35    N1   20  -0.064   0.011   0.069
    1RG35    H1   21   0.038   0.222  -0.073
    1RG35    C2   22  -0.023   0.015   0.069
    1RG35    N2   23   0.045   0.046   0.008
    1RG35   H21   24  -0.108  -0.259   0.206
    1RG35   H22   25   0.241   0.245  -0.174
    1RG35    N3   26  -0.032   0.016   0.054
    1RG35    C4   27  -0.080  -0.028   0.081
    1RG35   C3'   28   0.016  -0.021  -0.020
    1RG35   H3'   29   0.004  -0.066  -0.000
    1RG35   C2'   30   0.005   0.003  -0.010
    1RG35  H2'1   31   0.006   0.003  -0.030
    1RG35   O2'   32   0.054  -0.003   0.047
    1RG35  HO'2   33   0.124  -0.037   0.025
    1RG35   O3'   34   0.047   0.022  -0.030
    1RG35   H3T   35   0.060  -0.089  -0.048
    1RG35   O3P   36  -0.057  -0.091  -0.008
   0.00000   0.00000   0.00000
Gromacs Runs On Most of All Computer Systems in water t=   0.00014 step= 16
   36
    1RG35     P    1  -0.070  -0.115  -0.010
    1RG35   O1P    2  -0.088  -0.194  -0.000
    1RG35   O2P    3  -0.077  -0.090  -0.053
    1RG35   O5'    4  -0.062  -0.070  -0.043
    1RG35   C5'    5  -0.030  -0.046  -0.009
    1RG35  H5'1    6  -0.091  -0.094  -0.037
    1RG35  H5'2    7  -0.044  -0.032  -0.013
    1RG35   C4'    8   0.062  -0.086  -0.007
    1RG35   H4'    9  -0.021  -0.133  -0.112
    1RG35   O4'   10   0.264  -0.069  -0.045
    1RG35   C1'   11   0.089   0.081  -0.024
    1RG35   H1'   12   0.136   0.297  -0.063
    1RG35    N9   13   0.023   0.070   0.007
    1RG35    C8   14  -0.029   0.049   0.070
    1RG35    H8   15  -0.066  -0.004   0.169
    1RG35    N7   16  -0.027   0.082   0.039
    1RG35    C5   17   0.012   0.122  -0.018
    1RG35    C6   18  -0.021   0.069   0.011
    1RG35    O6   19  -0.102  -0.052   0.087
    1RG35    N1   20   0.011   0.103  -0.025
    1RG35    H1   21  -0.139  -0.200   0.168
    1RG35    C2   22   0.038   0.110  -0.037
    1RG35    N2   23   0.001   0.023   0.019
    1RG35   H21   24   0.132   0.304  -0.193
    1RG35   H22   25  -0.150  -0.263   0.267
    1RG35    N3   26   0.037   0.098  -0.025
    1RG35    C4   27   0.041   0.119  -0.031
    1RG35   C3'   28   0.064  -0.072   0.015
    1RG35   H3'   29   0.054  -0.111   0.036
    1RG35   C2'   30   0.018   0.010  -0.033
    1RG35  H2'1   31  -0.050  -0.009  -0.074
    1RG35   O2'   32   0.024   0.053  -0.046
    1RG35  HO'2   33   0.025   0.011  -0.045
    1RG35   O3'   34   0.056  -0.035   0.011
    1RG35   H3T   35   0.054   0.157  -0.007
    1RG35   O3P   36  -0.071  -0.083   0.051
   0.00000   0.00000   0.00000
Gromacs Runs On Most of All Computer Systems in water t=   0.00012 step= 17
   36
    1RG35     P    1   0.013  -0.006   0.024
    1RG35   O1P    2   0.093   0.083   0.002
    1RG35   O2P    3   0.062   0.059   0.004
    1RG35   O5'    4   0.063  -0.115   0.169
    1RG35   C5'    5   0.035  -0.059   0.021
    1RG35  H5'1    6   0.224   0.030   0.045
    1RG35  H5'2    7  -0.041  -0.157   0.072
    1RG35   C4'    8  -0.097   0.067  -0.133
    1RG35   H4'    9  -0.149   0.157  -0.321
    1RG35   O4'   10  -0.004  -0.103  -0.095
    1RG35   C1'   11  -0.043  -0.073   0.036
    1RG35   H1'   12  -0.045  -0.080   0.041
    1RG35    N9   13  -0.032  -0.058   0.015
    1RG35    C8   14   0.005  -0.002  -0.043
    1RG35    H8   15  -0.001  -0.014  -0.062
    1RG35    N7   16   0.041   0.056  -0.083
    1RG35    C5   17   0.043   0.064  -0.076
    1RG35    C6   18   0.018   0.011  -0.039
    1RG35    O6   19  -0.058  -0.129   0.043
    1RG35    N1   20   0.051   0.076  -0.069
    1RG35    H1   21  -0.062  -0.156   0.079
    1RG35    C2   22   0.076   0.136  -0.103
    1RG35    N2   23   0.027   0.037  -0.016
    1RG35   H21   24   0.040   0.055  -0.024
    1RG35   H22   25  -0.046  -0.115   0.115
    1RG35    N3   26   0.043   0.090  -0.069
    1RG35    C4   27   0.034   0.061  -0.065
    1RG35   C3'   28  -0.108   0.144  -0.013
    1RG35   H3'   29  -0.121   0.135  -0.039
    1RG35   C2'   30  -0.044   0.042   0.101
    1RG35  H2'1   31   0.072   0.078   0.216
    1RG35   O2'   32  -0.004   0.030   0.174
    1RG35  HO'2   33   0.012  -0.059   0.176
    1RG35   O3'   34   0.010   0.176  -0.025
    1RG35   H3T   35   0.039  -0.393  -0.030
    1RG35   O3P   36  -0.148  -0.066  -0.029
   0.00000   0.00000   0.00000
Gromacs Runs On Most of All Computer Systems in water t=   0.00010 step= 18
   36
    1RG35     P    1  -0.017   0.023  -0.033
    1RG35   O1P    2   0.024   0.051  -0.044
    1RG35   O2P    3  -0.004   0.055  -0.049
    1RG35   O5'    4   0.012  -0.033   0.014
    1RG35   C5'    5  -0.004  -0.049  -0.017
    1RG35  H5'1    6   0.043  -0.019   0.005
    1RG35  H5'2    7  -0.033  -0.106   0.008
    1RG35   C4'    8  -0.035  -0.011  -0.062
    1RG35   H4'    9  -0.034  -0.016  -0.059
    1RG35   O4'   10  -0.062   0.002  -0.028
    1RG35   C1'   11   0.049  -0.035   0.055
    1RG35   H1'   12   0.024  -0.171   0.056
    1RG35    N9   13   0.125   0.012   0.135
    1RG35    C8   14   0.136   0.113   0.235
    1RG35    H8   15   0.197   0.234   0.421
    1RG35    N7   16   0.075   0.140   0.178
    1RG35    C5   17   0.037   0.053   0.094
    1RG35    C6   18  -0.022   0.039   0.017
    1RG35    O6   19  -0.059   0.104  -0.007
    1RG35    N1   20  -0.041  -0.055  -0.051
    1RG35    H1   21  -0.074  -0.063  -0.123
    1RG35    C2   22  -0.032  -0.070  -0.055
    1RG35    N2   23  -0.121   0.035  -0.012
    1RG35   H21   24  -0.038   0.059   0.164
    1RG35   H22   25  -0.343   0.114  -0.048
    1RG35    N3   26   0.033  -0.062   0.001
    1RG35    C4   27   0.067  -0.007   0.081
    1RG35   C3'   28  -0.010  -0.019  -0.108
    1RG35   H3'   29  -0.007   0.022  -0.147
    1RG35   C2'   30   0.063  -0.101  -0.023
    1RG35  H2'1   31   0.142  -0.078  -0.076
    1RG35   O2'   32   0.013  -0.179  -0.085
    1RG35  HO'2   33  -0.002   0.096  -0.097
    1RG35   O3'   34  -0.011  -0.032  -0.135
    1RG35   H3T   35  -0.008  -0.049  -0.172
    1RG35   O3P   36  -0.082   0.003  -0.037
   0.00000   0.00000   0.00000
Gromacs Runs On Most of All Computer Systems in water t=   0.00010 step= 19
   36
    1RG35     P    1   0.052  -0.044   0.053
    1RG35   O1P    2   0.056  -0.054   0.058
    1RG35   O2P    3   0.073  -0.019   0.037
    1RG35   O5'    4   0.056  -0.065   0.066
    1RG35   C5'    5   0.054  -0.026   0.020
    1RG35  H5'1    6   0.116  -0.013  -0.001
    1RG35  H5'2    7   0.053  -0.031   0.025
    1RG35   C4'    8  -0.009   0.029   0.003
    1RG35   H4'    9   0.025   0.046   0.052
    1RG35   O4'   10  -0.057   0.059  -0.005
    1RG35   C1'   11  -0.001   0.008  -0.017
    1RG35   H1'   12  -0.021  -0.059   0.012
    1RG35    N9   13  -0.035   0.006  -0.017
    1RG35    C8   14  -0.165   0.033  -0.024
    1RG35    H8   15  -0.190   0.062  -0.018
    1RG35    N7   16  -0.224   0.014  -0.041
    1RG35    C5   17  -0.142  -0.012  -0.030
    1RG35    C6   18  -0.146   0.000  -0.079
    1RG35    O6   19  -0.287   0.069  -0.176
    1RG35    N1   20  -0.007  -0.062  -0.053
    1RG35    H1   21  -0.067  -0.118  -0.139
    1RG35    C2   22   0.149  -0.072   0.037
    1RG35    N2   23   0.238   0.038   0.159
    1RG35   H21   24   0.405   0.165   0.291
    1RG35   H22   25   0.197   0.083   0.157
    1RG35    N3   26   0.102  -0.074   0.020
    1RG35    C4   27  -0.017  -0.038   0.010
    1RG35   C3'   28  -0.008   0.012  -0.023
    1RG35   H3'   29   0.006   0.052  -0.041
    1RG35   C2'   30   0.012  -0.017  -0.038
    1RG35  H2'1   31   0.051  -0.009  -0.051
    1RG35   O2'   32  -0.083  -0.038  -0.152
    1RG35  HO'2   33  -0.192   0.108  -0.119
    1RG35   O3'   34  -0.009  -0.011  -0.019
    1RG35   H3T   35  -0.003   0.014  -0.019
    1RG35   O3P   36   0.016  -0.036   0.061
   0.00000   0.00000   0.00000
Gromacs Runs On Most of All Computer Systems in water t=   0.00009 step= 20
   36
    1RG35     P    1  -0.044  -0.033   0.021
    1RG35   O1P    2  -0.055  -0.001   0.019
    1RG35   O2P    3   0.000   0.019   0.019
    1RG35   O5'    4   0.013  -0.092   0.049
    1RG35   C5'    5   0.010  -0.074   0.003
    1RG35  H5'1    6   0.044  -0.073  -0.008
    1RG35  H5'2    7  -0.006  -0.117   0.024
    1RG35   C4'    8  -0.001  -0.028  -0.017
    1RG35   H4'    9   0.013  -0.049   0.030
    1RG35   O4'   10  -0.024  -0.034  -0.011
    1RG35   C1'   11   0.044  -0.067   0.016
    1RG35   H1'   12   0.025  -0.138   0.120
    1RG35    N9   13  -0.051  -0.019  -0.016
    1RG35    C8   14  -0.045  -0.005  -0.028
    1RG35    H8   15  -0.037   0.004  -0.061
    1RG35    N7   16  -0.022  -0.002  -0.016
    1RG35    C5   17  -0.033   0.015   0.018
    1RG35    C6   18   0.003   0.046   0.075
    1RG35    O6   19   0.077   0.026   0.107
    1RG35    N1   20  -0.040   0.102   0.104
    1RG35    H1   21   0.010   0.146   0.168
    1RG35    C2   22  -0.078   0.094   0.077
    1RG35    N2   23  -0.044  -0.004  -0.025
    1RG35   H21   24  -0.172  -0.062  -0.214
    1RG35   H22   25   0.144  -0.081   0.001
    1RG35    N3   26  -0.082   0.090   0.035
    1RG35    C4   27  -0.055   0.023   0.005
    1RG35   C3'   28   0.110   0.043   0.008
    1RG35   H3'   29   0.176   0.167   0.034
    1RG35   C2'   30   0.175  -0.043  -0.012
    1RG35  H2'1   31   0.302  -0.008   0.040
    1RG35   O2'   32  -0.061  -0.064  -0.316
    1RG35  HO'2   33  -0.408   0.218  -0.232
    1RG35   O3'   34   0.124   0.098  -0.009
    1RG35   H3T   35   0.135  -0.033  -0.014
    1RG35   O3P   36  -0.147  -0.064   0.006
   0.00000   0.00000   0.00000
Gromacs Runs On Most of All Computer Systems in water t=   0.00009 step= 21
   36
    1RG35     P    1  -0.166  -0.086   0.040
    1RG35   O1P    2  -0.310  -0.071   0.061
    1RG35   O2P    3   0.015   0.089   0.076
    1RG35   O5'    4   0.006  -0.242  -0.007
    1RG35   C5'    5   0.081  -0.150  -0.036
    1RG35  H5'1    6   0.186  -0.151  -0.077
    1RG35  H5'2    7   0.156  -0.181  -0.033
    1RG35   C4'    8  -0.006   0.057   0.021
    1RG35   H4'    9   0.122   0.179   0.132
    1RG35   O4'   10  -0.077   0.178  -0.006
    1RG35   C1'   11   0.022   0.127  -0.076
    1RG35   H1'   12   0.019   0.096  -0.143
    1RG35    N9   13   0.075   0.069  -0.037
    1RG35    C8   14   0.061  -0.039   0.026
    1RG35    H8   15   0.064  -0.055   0.026
    1RG35    N7   16   0.014  -0.124   0.088
    1RG35    C5   17   0.012  -0.086   0.050
    1RG35    C6   18   0.014  -0.056  -0.001
    1RG35    O6   19   0.054   0.040  -0.060
    1RG35    N1   20  -0.018  -0.100   0.006
    1RG35    H1   21   0.022  -0.003  -0.078
    1RG35    C2   22  -0.031  -0.093   0.007
    1RG35    N2   23  -0.019   0.017  -0.038
    1RG35   H21   24   0.005   0.024   0.010
    1RG35   H22   25  -0.067   0.065  -0.069
    1RG35    N3   26   0.007  -0.045  -0.004
    1RG35    C4   27   0.019  -0.036   0.017
    1RG35   C3'   28   0.023   0.087   0.023
    1RG35   H3'   29   0.022   0.080   0.028
    1RG35   C2'   30   0.001   0.177  -0.052
    1RG35  H2'1   31  -0.020   0.172  -0.047
    1RG35   O2'   32   0.053   0.212  -0.007
    1RG35  HO'2   33   0.082  -0.113  -0.015
    1RG35   O3'   34   0.001   0.081   0.040
    1RG35   H3T   35  -0.011   0.015   0.099
    1RG35   O3P   36  -0.414  -0.133   0.038
   0.00000   0.00000   0.00000
Gromacs Runs On Most of All Computer Systems in water t=   0.00008 step= 22
   36
    1RG35     P    1  -0.012   0.011   0.013
    1RG35   O1P    2  -0.049   0.022   0.019
    1RG35   O2P    3  -0.006   0.004   0.029
    1RG35   O5'    4   0.011  -0.010  -0.007
    1RG35   C5'    5   0.017  -0.017  -0.013
    1RG35  H5'1    6   0.030  -0.007  -0.007
    1RG35  H5'2    7   0.020  -0.041  -0.003
    1RG35   C4'    8   0.014  -0.004  -0.018
    1RG35   H4'    9   0.013   0.015  -0.039
    1RG35   O4'   10   0.021  -0.000  -0.015
    1RG35   C1'   11   0.018   0.002  -0.004
    1RG35   H1'   12   0.019   0.002  -0.020
    1RG35    N9   13   0.037   0.061  -0.043
    1RG35    C8   14  -0.003   0.034  -0.017
    1RG35    H8   15  -0.211  -0.325   0.247
    1RG35    N7   16   0.162   0.347  -0.243
    1RG35    C5   17   0.141   0.285  -0.204
    1RG35    C6   18  -0.004   0.006  -0.015
    1RG35    O6   19  -0.161  -0.288   0.162
    1RG35    N1   20  -0.022  -0.041   0.031
    1RG35    H1   21   0.068   0.145  -0.088
    1RG35    C2   22  -0.109  -0.227   0.170
    1RG35    N2   23  -0.049  -0.105   0.099
    1RG35   H21   24   0.019   0.043  -0.009
    1RG35   H22   25   0.074   0.168  -0.134
    1RG35    N3   26  -0.087  -0.186   0.138
    1RG35    C4   27   0.051   0.088  -0.063
    1RG35   C3'   28   0.003   0.002   0.005
    1RG35   H3'   29   0.001  -0.013   0.018
    1RG35   C2'   30   0.002  -0.002   0.003
    1RG35  H2'1   31  -0.007  -0.004   0.011
    1RG35   O2'   32  -0.001  -0.002  -0.008
    1RG35  HO'2   33  -0.004   0.003  -0.007
    1RG35   O3'   34   0.011   0.039   0.004
    1RG35   H3T   35   0.015  -0.008   0.006
    1RG35   O3P   36  -0.022   0.004   0.002
   0.00000   0.00000   0.00000
Gromacs Runs On Most of All Computer Systems in water t=   0.00006 step= 23
   36
    1RG35     P    1   0.028   0.007   0.013
    1RG35   O1P    2   0.156   0.037  -0.009
    1RG35   O2P    3  -0.076  -0.070  -0.033
    1RG35   O5'    4   0.010   0.033   0.098
    1RG35   C5'    5  -0.045   0.004  -0.014
    1RG35  H5'1    6  -0.041   0.043   0.029
    1RG35  H5'2    7  -0.246  -0.127   0.066
    1RG35   C4'    8   0.076  -0.103  -0.162
    1RG35   H4'    9   0.087  -0.197  -0.046
    1RG35   O4'   10  -0.151   0.025  -0.154
    1RG35   C1'   11  -0.023  -0.030  -0.064
    1RG35   H1'   12  -0.085  -0.326  -0.061
    1RG35    N9   13   0.020   0.005  -0.009
    1RG35    C8   14  -0.006   0.035   0.027
    1RG35    H8   15  -0.004   0.060   0.099
    1RG35    N7   16  -0.037   0.028   0.026
    1RG35    C5   17  -0.032   0.026   0.018
    1RG35    C6   18  -0.045   0.034   0.019
    1RG35    O6   19  -0.071   0.047   0.009
    1RG35    N1   20  -0.036   0.026   0.020
    1RG35    H1   21  -0.042   0.026   0.008
    1RG35    C2   22  -0.003   0.029   0.021
    1RG35    N2   23   0.007   0.007   0.028
    1RG35   H21   24  -0.003   0.008   0.005
    1RG35   H22   25   0.050  -0.005   0.034
    1RG35    N3   26  -0.009   0.017   0.023
    1RG35    C4   27  -0.000   0.012   0.012
    1RG35   C3'   28   0.207  -0.022  -0.070
    1RG35   H3'   29   0.249  -0.054   0.073
    1RG35   C2'   30   0.092   0.111  -0.061
    1RG35  H2'1   31  -0.158   0.044   0.067
    1RG35   O2'   32   0.148   0.417  -0.098
    1RG35  HO'2   33   0.128  -0.214  -0.107
    1RG35   O3'   34  -0.060   0.116  -0.050
    1RG35   H3T   35  -0.131  -0.045   0.254
    1RG35   O3P   36   0.046  -0.003  -0.009
   0.00000   0.00000   0.00000
Gromacs Runs On Most of All Computer Systems in water t=   0.00005 step= 24
   36
    1RG35     P    1  -0.009   0.019   0.004
    1RG35   O1P    2  -0.022   0.026   0.007
    1RG35   O2P    3  -0.044  -0.031   0.016
    1RG35   O5'    4  -0.003   0.024  -0.012
    1RG35   C5'    5   0.002   0.010  -0.019
    1RG35  H5'1    6   0.009   0.018  -0.015
    1RG35  H5'2    7  -0.007  -0.008  -0.008
    1RG35   C4'    8   0.024  -0.022  -0.034
    1RG35   H4'    9  -0.003   0.026  -0.131
    1RG35   O4'   10   0.009   0.015  -0.025
    1RG35   C1'   11   0.085  -0.028  -0.026
    1RG35   H1'   12   0.059  -0.179  -0.164
    1RG35    N9   13   0.146   0.169  -0.149
    1RG35    C8   14   0.016   0.046  -0.027
    1RG35    H8   15  -0.004   0.038   0.053
    1RG35    N7   16  -0.134  -0.157   0.088
    1RG35    C5   17  -0.056  -0.061   0.009
    1RG35    C6   18  -0.066  -0.074   0.034
    1RG35    O6   19   0.007   0.124  -0.104
    1RG35    N1   20  -0.152  -0.233   0.199
    1RG35    H1   21   0.088   0.223  -0.040
    1RG35    C2   22  -0.097  -0.147   0.154
    1RG35    N2   23  -0.102  -0.193   0.192
    1RG35   H21   24   0.042   0.167  -0.124
    1RG35   H22   25   0.009  -0.009   0.036
    1RG35    N3   26   0.148   0.271  -0.182
    1RG35    C4   27   0.132   0.203  -0.177
    1RG35   C3'   28  -0.056  -0.024   0.047
    1RG35   H3'   29  -0.080  -0.165   0.150
    1RG35   C2'   30  -0.031  -0.054   0.046
    1RG35  H2'1   31   0.005  -0.044   0.088
    1RG35   O2'   32  -0.030  -0.080   0.087
    1RG35  HO'2   33  -0.046   0.035   0.112
    1RG35   O3'   34   0.042   0.126   0.014
    1RG35   H3T   35   0.084  -0.059  -0.090
    1RG35   O3P   36   0.037   0.027  -0.009
   0.00000   0.00000   0.00000
Gromacs Runs On Most of All Computer Systems in water t=   0.00005 step= 25
   36
    1RG35     P    1  -0.130  -0.024   0.009
    1RG35   O1P    2  -0.174  -0.050   0.019
    1RG35   O2P    3  -0.208  -0.081  -0.014
    1RG35   O5'    4  -0.040   0.019   0.035
    1RG35   C5'    5   0.105   0.167   0.003
    1RG35  H5'1    6   0.342   0.292   0.039
    1RG35  H5'2    7   0.214   0.223  -0.029
    1RG35   C4'    8   0.138   0.074  -0.036
    1RG35   H4'    9   0.165   0.170  -0.084
    1RG35   O4'   10   0.072  -0.037   0.000
    1RG35   C1'   11   0.081  -0.083   0.045
    1RG35   H1'   12   0.056  -0.172   0.181
    1RG35    N9   13  -0.043  -0.054  -0.001
    1RG35    C8   14  -0.087   0.039   0.001
    1RG35    H8   15  -0.072   0.121   0.081
    1RG35    N7   16  -0.096   0.058  -0.049
    1RG35    C5   17  -0.061  -0.017  -0.069
    1RG35    C6   18   0.005  -0.016  -0.009
    1RG35    O6   19   0.074  -0.046   0.020
    1RG35    N1   20   0.018   0.023   0.021
    1RG35    H1   21   0.065   0.031   0.135
    1RG35    C2   22  -0.003   0.043  -0.023
    1RG35    N2   23  -0.003   0.015  -0.009
    1RG35   H21   24  -0.021  -0.018  -0.006
    1RG35   H22   25   0.016  -0.017   0.013
    1RG35    N3   26  -0.054   0.003  -0.067
    1RG35    C4   27  -0.054  -0.034  -0.069
    1RG35   C3'   28   0.032  -0.055  -0.081
    1RG35   H3'   29  -0.034  -0.201  -0.081
    1RG35   C2'   30   0.043  -0.091   0.024
    1RG35  H2'1   31  -0.060  -0.119   0.180
    1RG35   O2'   32   0.036   0.072  -0.051
    1RG35  HO'2   33   0.063  -0.050  -0.061
    1RG35   O3'   34  -0.084  -0.239  -0.064
    1RG35   H3T   35  -0.117   0.080  -0.018
    1RG35   O3P   36  -0.187  -0.025   0.015
   0.00000   0.00000   0.00000
Gromacs Runs On Most of All Computer Systems in water t=   0.00005 step= 26
   36
    1RG35     P    1  -0.073   0.008   0.019
    1RG35   O1P    2  -0.050   0.015   0.016
    1RG35   O2P    3  -0.184  -0.087   0.004
    1RG35   O5'    4  -0.028   0.051   0.040
    1RG35   C5'    5   0.026   0.083  -0.019
    1RG35  H5'1    6   0.063   0.142   0.030
    1RG35  H5'2    7  -0.043   0.030   0.015
    1RG35   C4'    8   0.167  -0.052  -0.091
    1RG35   H4'    9   0.265  -0.034   0.069
    1RG35   O4'   10  -0.069   0.030  -0.047
    1RG35   C1'   11  -0.105   0.058   0.042
    1RG35   H1'   12  -0.101   0.112   0.207
    1RG35    N9   13  -0.065   0.005   0.038
    1RG35    C8   14  -0.018  -0.008   0.005
    1RG35    H8   15  -0.006  -0.009  -0.085
    1RG35    N7   16   0.028  -0.011   0.034
    1RG35    C5   17   0.034   0.004   0.022
    1RG35    C6   18   0.052   0.005  -0.005
    1RG35    O6   19   0.047  -0.040   0.036
    1RG35    N1   20   0.081   0.017  -0.076
    1RG35    H1   21   0.012  -0.101  -0.046
    1RG35    C2   22   0.043  -0.023  -0.057
    1RG35    N2   23  -0.003  -0.058  -0.004
    1RG35   H21   24   0.062  -0.006   0.049
    1RG35   H22   25  -0.079   0.013  -0.056
    1RG35    N3   26   0.011  -0.051  -0.002
    1RG35    C4   27  -0.016  -0.002   0.030
    1RG35   C3'   28   0.071  -0.032  -0.011
    1RG35   H3'   29   0.074  -0.252   0.261
    1RG35   C2'   30  -0.011   0.003  -0.005
    1RG35  H2'1   31  -0.098  -0.029  -0.323
    1RG35   O2'   32  -0.026  -0.153   0.055
    1RG35  HO'2   33  -0.129   0.068   0.080
    1RG35   O3'   34   0.052   0.491  -0.106
    1RG35   H3T   35   0.087  -0.180  -0.106
    1RG35   O3P   36  -0.071  -0.009  -0.014
   0.00000   0.00000   0.00000
Gromacs Runs On Most of All Computer Systems in water t=   0.00005 step= 27
   36
    1RG35     P    1   0.072   0.003  -0.005
    1RG35   O1P    2   0.113   0.011  -0.012
    1RG35   O2P    3   0.067   0.011  -0.017
    1RG35   O5'    4   0.050  -0.021  -0.004
    1RG35   C5'    5   0.008  -0.079   0.006
    1RG35  H5'1    6  -0.051  -0.122  -0.017
    1RG35  H5'2    7  -0.022  -0.145   0.039
    1RG35   C4'    8  -0.027  -0.014   0.025
    1RG35   H4'    9  -0.003  -0.066   0.122
    1RG35   O4'   10  -0.040   0.043   0.016
    1RG35   C1'   11  -0.019   0.046   0.036
    1RG35   H1'   12   0.001   0.183   0.238
    1RG35    N9   13  -0.101   0.038  -0.055
    1RG35    C8   14  -0.206   0.123   0.003
    1RG35    H8   15  -0.193   0.259   0.211
    1RG35    N7   16  -0.219   0.084  -0.042
    1RG35    C5   17  -0.104  -0.065  -0.150
    1RG35    C6   18   0.065  -0.115  -0.043
    1RG35    O6   19   0.335  -0.148   0.016
    1RG35    N1   20   0.051  -0.149   0.025
    1RG35    H1   21   0.231   0.038   0.123
    1RG35    C2   22  -0.022  -0.091  -0.087
    1RG35    N2   23  -0.035  -0.080  -0.048
    1RG35   H21   24   0.091   0.019   0.036
    1RG35   H22   25  -0.165  -0.022  -0.088
    1RG35    N3   26  -0.052  -0.025  -0.233
    1RG35    C4   27  -0.095  -0.016  -0.187
    1RG35   C3'   28   0.047   0.021  -0.014
    1RG35   H3'   29   0.048   0.114  -0.119
    1RG35   C2'   30   0.028   0.043   0.024
    1RG35  H2'1   31   0.006   0.036  -0.002
    1RG35   O2'   32   0.042   0.083   0.058
    1RG35  HO'2   33  -0.016  -0.004   0.083
    1RG35   O3'   34   0.020   0.027  -0.001
    1RG35   H3T   35   0.005  -0.027   0.059
    1RG35   O3P   36   0.092   0.007   0.000
   0.00000   0.00000   0.00000
Gromacs Runs On Most of All Computer Systems in water t=   0.00004 step= 28
   36
    1RG35     P    1  -0.008   0.003   0.011
    1RG35   O1P    2  -0.002   0.010   0.010
    1RG35   O2P    3  -0.036  -0.012  -0.004
    1RG35   O5'    4   0.007  -0.002   0.009
    1RG35   C5'    5  -0.006  -0.009  -0.039
    1RG35  H5'1    6   0.067   0.039  -0.015
    1RG35  H5'2    7  -0.083  -0.084   0.002
    1RG35   C4'    8   0.011  -0.018  -0.069
    1RG35   H4'    9  -0.021  -0.083  -0.061
    1RG35   O4'   10  -0.016  -0.015  -0.032
    1RG35   C1'   11  -0.052   0.046   0.111
    1RG35   H1'   12  -0.033   0.220   0.508
    1RG35    N9   13  -0.022   0.068   0.038
    1RG35    C8   14   0.066  -0.036  -0.037
    1RG35    H8   15   0.023  -0.218  -0.288
    1RG35    N7   16   0.143  -0.044   0.057
    1RG35    C5   17   0.088   0.050   0.103
    1RG35    C6   18  -0.008   0.003   0.068
    1RG35    O6   19  -0.097   0.114  -0.004
    1RG35    N1   20  -0.060  -0.172   0.066
    1RG35    H1   21  -0.005   0.029  -0.202
    1RG35    C2   22  -0.001  -0.086   0.013
    1RG35    N2   23  -0.029  -0.105   0.021
    1RG35   H21   24   0.076   0.061  -0.030
    1RG35   H22   25  -0.111   0.000  -0.054
    1RG35    N3   26   0.135   0.134  -0.068
    1RG35    C4   27   0.084   0.164   0.017
    1RG35   C3'   28   0.093  -0.021  -0.106
    1RG35   H3'   29   0.077   0.038  -0.221
    1RG35   C2'   30   0.063  -0.000   0.040
    1RG35  H2'1   31   0.038  -0.006   0.055
    1RG35   O2'   32   0.015   0.093   0.001
    1RG35  HO'2   33  -0.120  -0.002   0.050
    1RG35   O3'   34  -0.095  -0.216  -0.069
    1RG35   H3T   35  -0.163   0.056   0.112
    1RG35   O3P   36  -0.019  -0.001   0.007
   0.00000   0.00000   0.00000
Gromacs Runs On Most of All Computer Systems in water t=   0.00004 step= 29
   36
    1RG35     P    1  -0.005   0.012   0.008
    1RG35   O1P    2   0.001   0.004   0.007
    1RG35   O2P    3  -0.066  -0.036  -0.008
    1RG35   O5'    4   0.009   0.021   0.026
    1RG35   C5'    5   0.011   0.003  -0.012
    1RG35  H5'1    6   0.010  -0.008  -0.022
    1RG35  H5'2    7  -0.068  -0.049   0.019
    1RG35   C4'    8   0.081  -0.047  -0.050
    1RG35   H4'    9   0.195  -0.211   0.320
    1RG35   O4'   10  -0.018   0.061  -0.048
    1RG35   C1'   11   0.051   0.020  -0.037
    1RG35   H1'   12   0.093   0.177  -0.253
    1RG35    N9   13   0.018   0.000  -0.013
    1RG35    C8   14  -0.002  -0.015  -0.001
    1RG35    H8   15   0.010   0.002  -0.018
    1RG35    N7   16  -0.029  -0.033   0.003
    1RG35    C5   17  -0.012   0.011  -0.021
    1RG35    C6   18  -0.007   0.036  -0.025
    1RG35    O6   19  -0.059  -0.017   0.004
    1RG35    N1   20   0.026   0.094  -0.044
    1RG35    H1   21  -0.022  -0.013   0.048
    1RG35    C2   22  -0.012   0.020   0.010
    1RG35    N2   23  -0.022  -0.013   0.040
    1RG35   H21   24  -0.024   0.008  -0.003
    1RG35   H22   25   0.046   0.030  -0.004
    1RG35    N3   26  -0.043  -0.030   0.023
    1RG35    C4   27  -0.014  -0.020  -0.003
    1RG35   C3'   28   0.025  -0.034  -0.156
    1RG35   H3'   29  -0.037  -0.171  -0.154
    1RG35   C2'   30  -0.006   0.041   0.058
    1RG35  H2'1   31   0.395   0.160   0.378
    1RG35   O2'   32  -0.031  -0.044   0.125
    1RG35  HO'2   33  -0.083   0.022   0.172
    1RG35   O3'   34  -0.206   0.058  -0.216
    1RG35   H3T   35  -0.232  -0.053  -0.152
    1RG35   O3P   36   0.026   0.014   0.001
   0.00000   0.00000   0.00000
Gromacs Runs On Most of All Computer Systems in water t=   0.00004 step= 30
   36
    1RG35     P    1   0.008   0.015  -0.004
    1RG35   O1P    2   0.037   0.007  -0.008
    1RG35   O2P    3  -0.062  -0.042  -0.021
    1RG35   O5'    4  -0.008   0.028  -0.002
    1RG35   C5'    5  -0.019   0.007  -0.073
    1RG35  H5'1    6   0.029   0.065  -0.023
    1RG35  H5'2    7  -0.194  -0.148   0.013
    1RG35   C4'    8   0.048  -0.013  -0.090
    1RG35   H4'    9   0.089   0.178  -0.209
    1RG35   O4'   10  -0.126   0.083  -0.087
    1RG35   C1'   11  -0.097   0.075  -0.037
    1RG35   H1'   12  -0.121  -0.048  -0.073
    1RG35    N9   13  -0.044   0.025   0.011
    1RG35    C8   14  -0.036   0.016   0.011
    1RG35    H8   15  -0.038   0.010  -0.002
    1RG35    N7   16   0.000   0.033   0.012
    1RG35    C5   17  -0.005   0.004   0.019
    1RG35    C6   18   0.017  -0.004   0.021
    1RG35    O6   19   0.073  -0.023   0.052
    1RG35    N1   20   0.024  -0.006  -0.020
    1RG35    H1   21   0.000  -0.044  -0.018
    1RG35    C2   22   0.011  -0.017  -0.031
    1RG35    N2   23   0.019   0.015  -0.062
    1RG35   H21   24   0.029  -0.031   0.035
    1RG35   H22   25  -0.074  -0.009  -0.032
    1RG35    N3   26  -0.014  -0.047   0.006
    1RG35    C4   27  -0.036  -0.015   0.032
    1RG35   C3'   28   0.013   0.008   0.099
    1RG35   H3'   29  -0.164  -0.370   0.083
    1RG35   C2'   30   0.003   0.161  -0.008
    1RG35  H2'1   31   0.365   0.261  -0.079
    1RG35   O2'   32  -0.040  -0.054   0.016
    1RG35  HO'2   33  -0.083   0.076   0.042
    1RG35   O3'   34   0.167  -0.350   0.200
    1RG35   H3T   35   0.154   0.122   0.219
    1RG35   O3P   36   0.073   0.034   0.006
   0.00000   0.00000   0.00000
Gromacs Runs On Most of All Computer Systems in water t=   0.00004 step= 31
   36
    1RG35     P    1   0.018  -0.042  -0.024
    1RG35   O1P    2  -0.004  -0.062  -0.023
    1RG35   O2P    3   0.108   0.038  -0.012
    1RG35   O5'    4  -0.002  -0.012   0.014
    1RG35   C5'    5  -0.005   0.039   0.027
    1RG35  H5'1    6  -0.051   0.059   0.062
    1RG35  H5'2    7  -0.066   0.094   0.012
    1RG35   C4'    8   0.030   0.001   0.003
    1RG35   H4'    9   0.061  -0.017   0.076
    1RG35   O4'   10   0.005  -0.003   0.005
    1RG35   C1'   11  -0.013  -0.007  -0.007
    1RG35   H1'   12  -0.004   0.021  -0.052
    1RG35    N9   13  -0.027  -0.023   0.011
    1RG35    C8   14   0.007   0.035  -0.028
    1RG35    H8   15  -0.083  -0.138   0.059
    1RG35    N7   16   0.129   0.227  -0.147
    1RG35    C5   17  -0.013  -0.008   0.021
    1RG35    C6   18  -0.070  -0.125   0.126
    1RG35    O6   19   0.105   0.102   0.010
    1RG35    N1   20  -0.227  -0.381   0.260
    1RG35    H1   21  -0.009   0.117  -0.146
    1RG35    C2   22   0.031   0.074  -0.065
    1RG35    N2   23   0.196   0.386  -0.322
    1RG35   H21   24   0.004  -0.076   0.079
    1RG35   H22   25  -0.065  -0.215   0.196
    1RG35    N3   26   0.013   0.042  -0.051
    1RG35    C4   27  -0.036  -0.035   0.025
    1RG35   C3'   28  -0.012  -0.001  -0.010
    1RG35   H3'   29  -0.027  -0.084   0.056
    1RG35   C2'   30  -0.004   0.002  -0.004
    1RG35  H2'1   31   0.056   0.021   0.059
    1RG35   O2'   32   0.001  -0.009  -0.021
    1RG35  HO'2   33   0.021  -0.009  -0.038
    1RG35   O3'   34  -0.025   0.098  -0.044
    1RG35   H3T   35  -0.008  -0.052  -0.088
    1RG35   O3P   36  -0.035  -0.055  -0.020
   0.00000   0.00000   0.00000
Gromacs Runs On Most of All Computer Systems in water t=   0.00004 step= 32
   36
    1RG35     P    1  -0.025  -0.012   0.007
    1RG35   O1P    2  -0.057  -0.033   0.012
    1RG35   O2P    3  -0.011   0.005  -0.002
    1RG35   O5'    4  -0.001   0.002   0.014
    1RG35   C5'    5   0.014   0.058  -0.022
    1RG35  H5'1    6   0.245   0.164  -0.004
    1RG35  H5'2    7   0.037   0.066  -0.025
    1RG35   C4'    8   0.004  -0.027  -0.052
    1RG35   H4'    9  -0.109  -0.281  -0.002
    1RG35   O4'   10   0.011  -0.041  -0.060
    1RG35   C1'   11  -0.023  -0.008  -0.037
    1RG35   H1'   12  -0.027  -0.064  -0.224
    1RG35    N9   13   0.038  -0.016  -0.011
    1RG35    C8   14   0.045  -0.010   0.013
    1RG35    H8   15   0.050   0.028   0.125
    1RG35    N7   16   0.013   0.008  -0.035
    1RG35    C5   17   0.007  -0.015  -0.036
    1RG35    C6   18  -0.006  -0.033  -0.028
    1RG35    O6   19   0.016  -0.013  -0.061
    1RG35    N1   20  -0.036  -0.029   0.032
    1RG35    H1   21   0.017   0.051   0.020
    1RG35    C2   22  -0.008   0.026   0.014
    1RG35    N2   23   0.039   0.097  -0.039
    1RG35   H21   24  -0.045  -0.012  -0.029
    1RG35   H22   25   0.076  -0.021   0.060
    1RG35    N3   26  -0.008   0.011   0.006
    1RG35    C4   27   0.014  -0.021  -0.016
    1RG35   C3'   28   0.115  -0.012  -0.059
    1RG35   H3'   29   0.123   0.162  -0.252
    1RG35   C2'   30  -0.030   0.019   0.021
    1RG35  H2'1   31  -0.091  -0.006  -0.316
    1RG35   O2'   32  -0.050  -0.164   0.225
    1RG35  HO'2   33  -0.265   0.112   0.370
    1RG35   O3'   34   0.040  -0.042   0.022
    1RG35   H3T   35  -0.048   0.067   0.358
    1RG35   O3P   36  -0.061  -0.017   0.009
   0.00000   0.00000   0.00000
Gromacs Runs On Most of All Computer Systems in water t=   0.00003 step= 33
   36
    1RG35     P    1  -0.019   0.027   0.001
    1RG35   O1P    2   0.019   0.043  -0.000
    1RG35   O2P    3  -0.098  -0.037  -0.008
    1RG35   O5'    4  -0.008   0.013  -0.016
    1RG35   C5'    5   0.041   0.011   0.002
    1RG35  H5'1    6   0.236   0.067  -0.012
    1RG35  H5'2    7   0.320   0.096  -0.065
    1RG35   C4'    8  -0.043  -0.046   0.039
    1RG35   H4'    9  -0.178  -0.319   0.066
    1RG35   O4'   10  -0.016  -0.123   0.021
    1RG35   C1'   11  -0.159  -0.039  -0.029
    1RG35   H1'   12  -0.140   0.003  -0.292
    1RG35    N9   13  -0.132  -0.034   0.044
    1RG35    C8   14  -0.134   0.032  -0.000
    1RG35    H8   15  -0.137   0.006  -0.164
    1RG35    N7   16  -0.009   0.094   0.053
    1RG35    C5   17  -0.019   0.085   0.112
    1RG35    C6   18  -0.002   0.077   0.147
    1RG35    O6   19   0.026   0.097   0.204
    1RG35    N1   20   0.019  -0.043   0.022
    1RG35    H1   21  -0.012  -0.046  -0.086
    1RG35    C2   22   0.043  -0.049  -0.066
    1RG35    N2   23  -0.028  -0.170  -0.045
    1RG35   H21   24   0.145  -0.013   0.051
    1RG35   H22   25  -0.280  -0.000  -0.170
    1RG35    N3   26   0.075   0.034  -0.051
    1RG35    C4   27  -0.017   0.075   0.056
    1RG35   C3'   28   0.015  -0.005   0.056
    1RG35   H3'   29   0.052   0.070   0.071
    1RG35   C2'   30  -0.010   0.006  -0.014
    1RG35  H2'1   31   0.086   0.037   0.158
    1RG35   O2'   32   0.011   0.002  -0.061
    1RG35  HO'2   33   0.118  -0.023  -0.125
    1RG35   O3'   34   0.103   0.039   0.066
    1RG35   H3T   35   0.117  -0.004   0.037
    1RG35   O3P   36   0.017   0.036  -0.002
   0.00000   0.00000   0.00000
Gromacs Runs On Most of All Computer Systems in water t=   0.00003 step= 34
   36
    1RG35     P    1   0.016  -0.005  -0.012
    1RG35   O1P    2   0.002  -0.030  -0.011
    1RG35   O2P    3   0.016   0.005  -0.027
    1RG35   O5'    4   0.017  -0.001   0.014
    1RG35   C5'    5   0.014  -0.007   0.021
    1RG35  H5'1    6   0.022  -0.037  -0.017
    1RG35  H5'2    7  -0.054  -0.035   0.041
    1RG35   C4'    8   0.018   0.010   0.011
    1RG35   H4'    9   0.021   0.040  -0.016
    1RG35   O4'   10   0.030   0.061   0.005
    1RG35   C1'   11   0.080   0.025   0.007
    1RG35   H1'   12   0.057  -0.087  -0.024
    1RG35    N9   13   0.061   0.106  -0.050
    1RG35    C8   14  -0.022   0.056  -0.047
    1RG35    H8   15  -0.105  -0.095  -0.131
    1RG35    N7   16  -0.030  -0.002   0.046
    1RG35    C5   17   0.004   0.034   0.058
    1RG35    C6   18  -0.044   0.026  -0.008
    1RG35    O6   19  -0.460   0.158  -0.140
    1RG35    N1   20   0.112  -0.022   0.016
    1RG35    H1   21   0.360   0.095   0.498
    1RG35    C2   22   0.005  -0.065  -0.048
    1RG35    N2   23   0.050   0.078  -0.247
    1RG35   H21   24   0.024  -0.106   0.007
    1RG35   H22   25  -0.304  -0.025  -0.143
    1RG35    N3   26   0.019  -0.108   0.050
    1RG35    C4   27   0.019  -0.012   0.063
    1RG35   C3'   28   0.008  -0.007   0.001
    1RG35   H3'   29   0.020   0.011   0.016
    1RG35   C2'   30   0.012  -0.028   0.017
    1RG35  H2'1   31  -0.031  -0.043  -0.030
    1RG35   O2'   32   0.013  -0.010   0.041
    1RG35  HO'2   33  -0.018   0.018   0.064
    1RG35   O3'   34   0.008   0.007  -0.007
    1RG35   H3T   35   0.014  -0.009  -0.014
    1RG35   O3P   36   0.043   0.005  -0.004
   0.00000   0.00000   0.00000
Gromacs Runs On Most of All Computer Systems in water t=   0.00003 step= 35
   36
    1RG35     P    1   0.087  -0.126  -0.056
    1RG35   O1P    2  -0.060  -0.154  -0.039
    1RG35   O2P    3   0.501   0.219   0.013
    1RG35   O5'    4   0.016  -0.117  -0.020
    1RG35   C5'    5  -0.030   0.067   0.046
    1RG35  H5'1    6  -0.020   0.214   0.180
    1RG35  H5'2    7  -0.077   0.298  -0.036
    1RG35   C4'    8  -0.062  -0.001   0.020
    1RG35   H4'    9  -0.230  -0.272  -0.010
    1RG35   O4'   10  -0.042   0.068  -0.004
    1RG35   C1'   11   0.011   0.039  -0.001
    1RG35   H1'   12  -0.012  -0.036   0.152
    1RG35    N9   13   0.031   0.070  -0.032
    1RG35    C8   14   0.005   0.018   0.001
    1RG35    H8   15   0.005   0.019   0.006
    1RG35    N7   16  -0.041  -0.068   0.053
    1RG35    C5   17   0.011   0.006  -0.015
    1RG35    C6   18   0.030   0.025  -0.036
    1RG35    O6   19  -0.006  -0.022  -0.016
    1RG35    N1   20   0.056   0.061  -0.049
    1RG35    H1   21   0.040  -0.008   0.044
    1RG35    C2   22  -0.023  -0.047   0.021
    1RG35    N2   23  -0.037  -0.066   0.039
    1RG35   H21   24   0.002   0.017  -0.028
    1RG35   H22   25   0.007   0.050  -0.064
    1RG35    N3   26  -0.022  -0.044   0.016
    1RG35    C4   27   0.007   0.017  -0.017
    1RG35   C3'   28  -0.005  -0.009   0.003
    1RG35   H3'   29  -0.151  -0.303  -0.033
    1RG35   C2'   30   0.017   0.052  -0.015
    1RG35  H2'1   31   0.099   0.075  -0.003
    1RG35   O2'   32   0.008   0.059  -0.055
    1RG35  HO'2   33   0.024  -0.024  -0.082
    1RG35   O3'   34   0.011   0.125  -0.000
    1RG35   H3T   35   0.002  -0.013   0.070
    1RG35   O3P   36  -0.152  -0.187  -0.052
   0.00000   0.00000   0.00000
Gromacs Runs On Most of All Computer Systems in water t=   0.00003 step= 36
   36
    1RG35     P    1   0.006   0.013  -0.091
    1RG35   O1P    2  -0.172  -0.097  -0.071
    1RG35   O2P    3   0.085   0.071  -0.064
    1RG35   O5'    4  -0.015  -0.006  -0.034
    1RG35   C5'    5  -0.046   0.016  -0.087
    1RG35  H5'1    6   0.506   0.216  -0.097
    1RG35  H5'2    7  -0.474  -0.150   0.032
    1RG35   C4'    8  -0.088   0.019   0.005
    1RG35   H4'    9  -0.054  -0.082   0.169
    1RG35   O4'   10  -0.087   0.038   0.015
    1RG35   C1'   11  -0.002   0.003   0.013
    1RG35   H1'   12   0.039   0.192  -0.021
    1RG35    N9   13   0.016   0.004   0.003
    1RG35    C8   14   0.021  -0.017   0.015
    1RG35    H8   15   0.039   0.014   0.038
    1RG35    N7   16   0.007  -0.016  -0.007
    1RG35    C5   17   0.004  -0.023  -0.024
    1RG35    C6   18   0.003  -0.028  -0.039
    1RG35    O6   19   0.007  -0.039  -0.052
    1RG35    N1   20  -0.002   0.001  -0.016
    1RG35    H1   21   0.002  -0.005   0.007
    1RG35    C2   22  -0.015   0.003   0.005
    1RG35    N2   23  -0.012   0.009   0.022
    1RG35   H21   24  -0.022   0.008  -0.002
    1RG35   H22   25   0.032   0.006   0.024
    1RG35    N3   26  -0.015   0.001   0.007
    1RG35    C4   27  -0.001  -0.014  -0.010
    1RG35   C3'   28  -0.045   0.007   0.074
    1RG35   H3'   29   0.086   0.126   0.277
    1RG35   C2'   30  -0.004  -0.072   0.013
    1RG35  H2'1   31  -0.121  -0.102   0.126
    1RG35   O2'   32  -0.006  -0.053  -0.044
    1RG35  HO'2   33   0.062  -0.005  -0.078
    1RG35   O3'   34   0.027  -0.126   0.071
    1RG35   H3T   35   0.076   0.009  -0.135
    1RG35   O3P   36   0.161   0.081  -0.043
   0.00000   0.00000   0.00000
Gromacs Runs On Most of All Computer Systems in water t=   0.00003 step= 37
   36
    1RG35     P    1  -0.047   0.072   0.030
    1RG35   O1P    2   0.016   0.090   0.023
    1RG35   O2P    3  -0.204  -0.067   0.016
    1RG35   O5'    4  -0.036   0.041  -0.005
    1RG35   C5'    5  -0.013  -0.033  -0.014
    1RG35  H5'1    6   0.143  -0.058  -0.096
    1RG35  H5'2    7   0.189  -0.051  -0.034
    1RG35   C4'    8  -0.100  -0.011   0.026
    1RG35   H4'    9  -0.166  -0.168   0.068
    1RG35   O4'   10  -0.074  -0.043   0.020
    1RG35   C1'   11  -0.100   0.002   0.009
    1RG35   H1'   12  -0.074   0.159   0.146
    1RG35    N9   13  -0.025  -0.154   0.120
    1RG35    C8   14   0.104  -0.102   0.072
    1RG35    H8   15   0.174   0.030   0.145
    1RG35    N7   16   0.118   0.041  -0.086
    1RG35    C5   17   0.043  -0.069  -0.053
    1RG35    C6   18  -0.029  -0.117  -0.122
    1RG35    O6   19  -0.188  -0.056  -0.256
    1RG35    N1   20  -0.034  -0.099   0.041
    1RG35    H1   21   0.151   0.097   0.199
    1RG35    C2   22   0.006   0.060  -0.007
    1RG35    N2   23  -0.006   0.040   0.066
    1RG35   H21   24  -0.070   0.027  -0.041
    1RG35   H22   25   0.144  -0.013   0.106
    1RG35    N3   26   0.043   0.090  -0.047
    1RG35    C4   27   0.035  -0.040  -0.016
    1RG35   C3'   28  -0.066   0.025   0.027
    1RG35   H3'   29  -0.210  -0.197  -0.092
    1RG35   C2'   30  -0.040   0.084  -0.035
    1RG35  H2'1   31   0.082   0.118  -0.045
    1RG35   O2'   32  -0.032   0.054  -0.129
    1RG35  HO'2   33   0.092  -0.034  -0.226
    1RG35   O3'   34   0.034   0.177   0.041
    1RG35   H3T   35   0.030  -0.013   0.116
    1RG35   O3P   36   0.110   0.117   0.034
   0.00000   0.00000   0.00000
Gromacs Runs On Most of All Computer Systems in water t=   0.00003 step= 38
   36
    1RG35     P    1  -0.000   0.019  -0.028
    1RG35   O1P    2  -0.050  -0.022  -0.022
    1RG35   O2P    3  -0.026  -0.011  -0.020
    1RG35   O5'    4   0.005   0.014  -0.016
    1RG35   C5'    5   0.004  -0.032   0.006
    1RG35  H5'1    6   0.080  -0.036  -0.025
    1RG35  H5'2    7  -0.201  -0.073   0.044
    1RG35   C4'    8   0.008   0.015   0.024
    1RG35   H4'    9   0.118   0.150   0.090
    1RG35   O4'   10   0.045   0.007   0.036
    1RG35   C1'   11   0.108  -0.023   0.014
    1RG35   H1'   12   0.120   0.018  -0.054
    1RG35    N9   13   0.030   0.054  -0.050
    1RG35    C8   14  -0.016   0.055  -0.044
    1RG35    H8   15  -0.064  -0.044  -0.070
    1RG35    N7   16  -0.034  -0.021   0.036
    1RG35    C5   17  -0.027   0.007   0.045
    1RG35    C6   18  -0.000   0.049   0.071
    1RG35    O6   19   0.058   0.055   0.113
    1RG35    N1   20   0.003   0.050  -0.004
    1RG35    H1   21  -0.077  -0.032  -0.073
    1RG35    C2   22   0.003  -0.001   0.003
    1RG35    N2   23   0.006   0.007  -0.031
    1RG35   H21   24   0.005  -0.012   0.001
    1RG35   H22   25  -0.046   0.002  -0.024
    1RG35    N3   26  -0.006  -0.020   0.018
    1RG35    C4   27  -0.006   0.005   0.013
    1RG35   C3'   28  -0.028   0.005  -0.009
    1RG35   H3'   29  -0.245  -0.106  -0.452
    1RG35   C2'   30  -0.002  -0.130   0.033
    1RG35  H2'1   31  -0.136  -0.167   0.152
    1RG35   O2'   32  -0.012  -0.180  -0.086
    1RG35  HO'2   33   0.085  -0.003  -0.172
    1RG35   O3'   34   0.140   0.340   0.062
    1RG35   H3T   35   0.070   0.007   0.434
    1RG35   O3P   36   0.088   0.051  -0.015
   0.00000   0.00000   0.00000
Gromacs Runs On Most of All Computer Systems in water t=   0.00003 step= 39
   36
    1RG35     P    1  -0.038   0.068  -0.000
    1RG35   O1P    2  -0.008   0.060  -0.005
    1RG35   O2P    3  -0.175  -0.044  -0.021
    1RG35   O5'    4  -0.031   0.027  -0.009
    1RG35   C5'    5   0.003  -0.051   0.032
    1RG35  H5'1    6   0.176  -0.135  -0.120
    1RG35  H5'2    7   0.204  -0.060   0.005
    1RG35   C4'    8  -0.100   0.005   0.032
    1RG35   H4'    9  -0.301  -0.208  -0.117
    1RG35   O4'   10  -0.053   0.195   0.003
    1RG35   C1'   11   0.149   0.082  -0.004
    1RG35   H1'   12   0.108  -0.083   0.201
    1RG35    N9   13   0.155   0.291  -0.206
    1RG35    C8   14   0.044   0.121  -0.096
    1RG35    H8   15  -0.070  -0.093  -0.003
    1RG35    N7   16  -0.087  -0.134   0.084
    1RG35    C5   17  -0.019  -0.002  -0.007
    1RG35    C6   18   0.016   0.033   0.011
    1RG35    O6   19   0.137  -0.007   0.068
    1RG35    N1   20   0.001   0.084  -0.046
    1RG35    H1   21  -0.132  -0.074  -0.102
    1RG35    C2   22  -0.040  -0.035   0.039
    1RG35    N2   23   0.091   0.224  -0.149
    1RG35   H21   24  -0.045  -0.061   0.065
    1RG35   H22   25   0.032  -0.052   0.082
    1RG35    N3   26  -0.121  -0.170   0.125
    1RG35    C4   27  -0.027  -0.015  -0.003
    1RG35   C3'   28  -0.015  -0.025   0.006
    1RG35   H3'   29  -0.041  -0.145   0.079
    1RG35   C2'   30   0.048  -0.015   0.009
    1RG35  H2'1   31   0.023  -0.022   0.015
    1RG35   O2'   32   0.048   0.081   0.027
    1RG35  HO'2   33  -0.042   0.007   0.073
    1RG35   O3'   34  -0.023   0.048  -0.022
    1RG35   H3T   35  -0.008  -0.026  -0.075
    1RG35   O3P   36   0.144   0.130   0.029
   0.00000   0.00000   0.00000
Gromacs Runs On Most of All Computer Systems in water t=   0.00003 step= 40
   36
    1RG35     P    1   0.006  -0.033   0.098
    1RG35   O1P    2   0.281   0.130   0.065
    1RG35   O2P    3  -0.012  -0.039   0.067
    1RG35   O5'    4  -0.028  -0.014  -0.021
    1RG35   C5'    5  -0.071   0.049  -0.229
    1RG35  H5'1    6  -0.189   0.257   0.047
    1RG35  H5'2    7   0.147  -0.090  -0.190
    1RG35   C4'    8  -0.023  -0.028  -0.103
    1RG35   H4'    9  -0.000   0.000  -0.088
    1RG35   O4'   10  -0.244   0.089  -0.062
    1RG35   C1'   11  -0.100   0.034   0.007
    1RG35   H1'   12  -0.045   0.294  -0.064
    1RG35    N9   13   0.054   0.144  -0.070
    1RG35    C8   14   0.046   0.060  -0.022
    1RG35    H8   15   0.012   0.016   0.072
    1RG35    N7   16  -0.020  -0.078   0.063
    1RG35    C5   17   0.038  -0.007  -0.013
    1RG35    C6   18   0.035  -0.032  -0.064
    1RG35    O6   19  -0.009  -0.043  -0.107
    1RG35    N1   20   0.052  -0.018  -0.029
    1RG35    H1   21   0.066  -0.035   0.036
    1RG35    C2   22  -0.016  -0.055   0.039
    1RG35    N2   23   0.045   0.110  -0.047
    1RG35   H21   24  -0.052  -0.037   0.006
    1RG35   H22   25   0.039  -0.023   0.069
    1RG35    N3   26  -0.015  -0.060   0.065
    1RG35    C4   27   0.020   0.026   0.002
    1RG35   C3'   28   0.046  -0.040  -0.011
    1RG35   H3'   29   0.113   0.039   0.067
    1RG35   C2'   30   0.010  -0.125   0.028
    1RG35  H2'1   31  -0.106  -0.155   0.318
    1RG35   O2'   32  -0.016  -0.218  -0.044
    1RG35  HO'2   33   0.027   0.017  -0.084
    1RG35   O3'   34   0.079  -0.042   0.027
    1RG35   H3T   35   0.061   0.023   0.116
    1RG35   O3P   36  -0.236  -0.117   0.055
   0.00000   0.00000   0.00000
Gromacs Runs On Most of All Computer Systems in water t=   0.00002 step= 41
   36
    1RG35     P    1  -0.004   0.027  -0.085
    1RG35   O1P    2  -0.284  -0.129  -0.050
    1RG35   O2P    3  -0.011   0.021  -0.081
    1RG35   O5'    4   0.073   0.035   0.063
    1RG35   C5'    5   0.119  -0.059   0.309
    1RG35  H5'1    6   0.017  -0.282   0.107
    1RG35  H5'2    7  -0.017   0.299   0.169
    1RG35   C4'    8   0.114  -0.074  -0.035
    1RG35   H4'    9   0.052   0.055  -0.279
    1RG35   O4'   10  -0.143  -0.006   0.002
    1RG35   C1'   11  -0.265   0.040  -0.000
    1RG35   H1'   12  -0.249   0.121  -0.054
    1RG35    N9   13  -0.026   0.103  -0.030
    1RG35    C8   14   0.057   0.037  -0.005
    1RG35    H8   15   0.053   0.025   0.087
    1RG35    N7   16   0.016  -0.097   0.089
    1RG35    C5   17   0.055   0.002  -0.018
    1RG35    C6   18   0.045  -0.029  -0.066
    1RG35    O6   19  -0.012  -0.058  -0.083
    1RG35    N1   20   0.038  -0.038  -0.037
    1RG35    H1   21   0.059  -0.036  -0.000
    1RG35    C2   22  -0.047  -0.068   0.024
    1RG35    N2   23   0.017   0.067  -0.030
    1RG35   H21   24  -0.012   0.001   0.021
    1RG35   H22   25   0.054  -0.014   0.037
    1RG35    N3   26  -0.051  -0.029  -0.002
    1RG35    C4   27  -0.007   0.066  -0.035
    1RG35   C3'   28   0.099  -0.055  -0.058
    1RG35   H3'   29   0.176   0.081  -0.019
    1RG35   C2'   30  -0.031   0.000  -0.007
    1RG35  H2'1   31   0.006   0.015   0.230
    1RG35   O2'   32  -0.052  -0.138  -0.026
    1RG35  HO'2   33  -0.002   0.009  -0.076
    1RG35   O3'   34   0.026   0.018  -0.062
    1RG35   H3T   35  -0.003   0.014   0.060
    1RG35   O3P   36   0.138   0.074  -0.061
   0.00000   0.00000   0.00000
Gromacs Runs On Most of All Computer Systems in water t=   0.00002 step= 42
   36
    1RG35     P    1  -0.001   0.003  -0.020
    1RG35   O1P    2  -0.048  -0.011  -0.018
    1RG35   O2P    3   0.034   0.028  -0.003
    1RG35   O5'    4  -0.024  -0.015   0.009
    1RG35   C5'    5  -0.011  -0.019   0.079
    1RG35  H5'1    6  -0.013  -0.106  -0.018
    1RG35  H5'2    7   0.062   0.041   0.047
    1RG35   C4'    8  -0.076   0.040  -0.011
    1RG35   H4'    9  -0.148   0.054  -0.153
    1RG35   O4'   10  -0.230   0.331  -0.047
    1RG35   C1'   11   0.141   0.078  -0.004
    1RG35   H1'   12   0.143   0.073  -0.092
    1RG35    N9   13  -0.016  -0.053   0.074
    1RG35    C8   14  -0.031   0.057  -0.007
    1RG35    H8   15  -0.116  -0.097  -0.021
    1RG35    N7   16   0.110   0.275  -0.148
    1RG35    C5   17  -0.084  -0.169   0.133
    1RG35    C6   18  -0.054  -0.149   0.087
    1RG35    O6   19   0.023   0.056  -0.053
    1RG35    N1   20   0.058  -0.040  -0.008
    1RG35    H1   21   0.061  -0.042  -0.023
    1RG35    C2   22   0.165   0.244  -0.177
    1RG35    N2   23  -0.115  -0.190   0.219
    1RG35   H21   24  -0.080   0.044  -0.106
    1RG35   H22   25  -0.001   0.092  -0.016
    1RG35    N3   26   0.068   0.058  -0.019
    1RG35    C4   27  -0.083  -0.196   0.163
    1RG35   C3'   28   0.094  -0.053  -0.065
    1RG35   H3'   29   0.108  -0.129   0.056
    1RG35   C2'   30   0.086  -0.077   0.013
    1RG35  H2'1   31  -0.061  -0.120   0.065
    1RG35   O2'   32   0.077  -0.053   0.015
    1RG35  HO'2   33  -0.070   0.020   0.089
    1RG35   O3'   34   0.014   0.007  -0.065
    1RG35   H3T   35  -0.014   0.009   0.046
    1RG35   O3P   36   0.033   0.012  -0.019
   0.00000   0.00000   0.00000
Gromacs Runs On Most of All Computer Systems in water t=   0.00002 step= 43
   36
    1RG35     P    1  -0.002   0.003  -0.002
    1RG35   O1P    2  -0.007   0.008  -0.006
    1RG35   O2P    3   0.003   0.016  -0.000
    1RG35   O5'    4  -0.009  -0.000   0.018
    1RG35   C5'    5  -0.008   0.002   0.003
    1RG35  H5'1    6  -0.031  -0.006   0.014
    1RG35  H5'2    7   0.030   0.018  -0.013
    1RG35   C4'    8  -0.015   0.001  -0.019
    1RG35   H4'    9  -0.018   0.018  -0.044
    1RG35   O4'   10  -0.101   0.072  -0.021
    1RG35   C1'   11   0.017  -0.004  -0.032
    1RG35   H1'   12   0.035   0.082   0.046
    1RG35    N9   13   0.028  -0.035  -0.056
    1RG35    C8   14   0.211  -0.102  -0.042
    1RG35    H8   15   0.249  -0.104   0.115
    1RG35    N7   16   0.089  -0.056  -0.129
    1RG35    C5   17  -0.103  -0.046  -0.040
    1RG35    C6   18  -0.129   0.052   0.047
    1RG35    O6   19   0.024   0.082   0.121
    1RG35    N1   20  -0.244   0.192   0.016
    1RG35    H1   21  -0.187   0.226   0.220
    1RG35    C2   22  -0.104   0.072  -0.088
    1RG35    N2   23   0.028  -0.220  -0.116
    1RG35   H21   24   0.440   0.032   0.272
    1RG35   H22   25   0.027  -0.155  -0.202
    1RG35    N3   26  -0.172   0.005  -0.113
    1RG35    C4   27  -0.114  -0.061  -0.080
    1RG35   C3'   28   0.025  -0.000  -0.007
    1RG35   H3'   29   0.031  -0.013   0.032
    1RG35   C2'   30   0.017   0.001  -0.005
    1RG35  H2'1   31  -0.048  -0.014   0.052
    1RG35   O2'   32   0.016  -0.066   0.015
    1RG35  HO'2   33  -0.016   0.011   0.026
    1RG35   O3'   34   0.024  -0.006  -0.001
    1RG35   H3T   35   0.015   0.006   0.031
    1RG35   O3P   36  -0.001  -0.010  -0.011
   0.00000   0.00000   0.00000
Gromacs Runs On Most of All Computer Systems in water t=   0.00002 step= 44
   36
    1RG35     P    1  -0.022   0.002  -0.020
    1RG35   O1P    2   0.012   0.004  -0.030
    1RG35   O2P    3   0.022   0.038  -0.000
    1RG35   O5'    4  -0.057  -0.037   0.014
    1RG35   C5'    5  -0.038  -0.032   0.050
    1RG35  H5'1    6   0.014  -0.051   0.012
    1RG35  H5'2    7   0.037   0.042   0.007
    1RG35   C4'    8  -0.126   0.041   0.022
    1RG35   H4'    9  -0.111   0.153  -0.058
    1RG35   O4'   10  -0.218   0.178  -0.000
    1RG35   C1'   11   0.105  -0.018   0.005
    1RG35   H1'   12   0.139   0.118  -0.132
    1RG35    N9   13  -0.094  -0.227   0.149
    1RG35    C8   14  -0.200  -0.339   0.233
    1RG35    H8   15   0.104   0.198  -0.182
    1RG35    N7   16  -0.054  -0.048   0.023
    1RG35    C5   17   0.096   0.218  -0.149
    1RG35    C6   18   0.073   0.172  -0.064
    1RG35    O6   19  -0.035  -0.065   0.105
    1RG35    N1   20  -0.051  -0.056   0.073
    1RG35    H1   21  -0.020   0.035  -0.008
    1RG35    C2   22  -0.077  -0.173   0.127
    1RG35    N2   23   0.064   0.109  -0.105
    1RG35   H21   24   0.010  -0.033   0.025
    1RG35   H22   25  -0.031  -0.042   0.026
    1RG35    N3   26   0.036   0.010  -0.031
    1RG35    C4   27   0.068   0.097  -0.085
    1RG35   C3'   28   0.062  -0.055  -0.058
    1RG35   H3'   29   0.057  -0.146   0.038
    1RG35   C2'   30   0.109  -0.129  -0.003
    1RG35  H2'1   31   0.021  -0.158  -0.054
    1RG35   O2'   32   0.123   0.102  -0.003
    1RG35  HO'2   33  -0.069   0.004   0.085
    1RG35   O3'   34   0.011   0.042  -0.069
    1RG35   H3T   35  -0.020   0.006   0.057
    1RG35   O3P   36   0.059   0.039   0.000
   0.00000   0.00000   0.00000
Gromacs Runs On Most of All Computer Systems in water t=   0.00002 step= 45
   36
    1RG35     P    1   0.010  -0.008   0.004
    1RG35   O1P    2  -0.033  -0.031   0.017
    1RG35   O2P    3   0.003  -0.018  -0.006
    1RG35   O5'    4   0.036   0.040   0.013
    1RG35   C5'    5   0.047   0.062   0.030
    1RG35  H5'1    6  -0.064  -0.070  -0.084
    1RG35  H5'2    7   0.040  -0.048   0.088
    1RG35   C4'    8   0.127   0.016  -0.100
    1RG35   H4'    9   0.030  -0.241  -0.018
    1RG35   O4'   10   0.050   0.271  -0.181
    1RG35   C1'   11   0.189   0.152  -0.034
    1RG35   H1'   12   0.108  -0.199   0.143
    1RG35    N9   13  -0.006  -0.095   0.126
    1RG35    C8   14  -0.106  -0.130   0.132
    1RG35    H8   15  -0.001   0.046  -0.152
    1RG35    N7   16  -0.036   0.054  -0.010
    1RG35    C5   17   0.016   0.057  -0.057
    1RG35    C6   18   0.004   0.021  -0.095
    1RG35    O6   19   0.072  -0.117  -0.042
    1RG35    N1   20  -0.080  -0.000   0.021
    1RG35    H1   21  -0.049   0.054   0.017
    1RG35    C2   22  -0.021  -0.016   0.038
    1RG35    N2   23   0.024   0.017  -0.042
    1RG35   H21   24   0.011  -0.020  -0.008
    1RG35   H22   25  -0.064   0.000  -0.017
    1RG35    N3   26   0.085   0.062   0.053
    1RG35    C4   27   0.050   0.007   0.031
    1RG35   C3'   28   0.011   0.087   0.021
    1RG35   H3'   29   0.004   0.076   0.014
    1RG35   C2'   30  -0.110   0.244   0.033
    1RG35  H2'1   31  -0.256   0.210   0.165
    1RG35   O2'   32  -0.208  -0.385   0.019
    1RG35  HO'2   33   0.123   0.008  -0.121
    1RG35   O3'   34   0.011  -0.080   0.037
    1RG35   H3T   35   0.030   0.002  -0.022
    1RG35   O3P   36  -0.045  -0.023  -0.010
   0.00000   0.00000   0.00000
Gromacs Runs On Most of All Computer Systems in water t=   0.00002 step= 46
   36
    1RG35     P    1  -0.008  -0.013   0.011
    1RG35   O1P    2   0.024   0.018   0.010
    1RG35   O2P    3   0.028   0.009   0.016
    1RG35   O5'    4  -0.052   0.025  -0.057
    1RG35   C5'    5  -0.034   0.045  -0.007
    1RG35  H5'1    6   0.032   0.011  -0.089
    1RG35  H5'2    7  -0.045  -0.062   0.051
    1RG35   C4'    8  -0.022   0.035   0.097
    1RG35   H4'    9  -0.078   0.092  -0.053
    1RG35   O4'   10   0.079  -0.073   0.168
    1RG35   C1'   11  -0.076   0.026   0.118
    1RG35   H1'   12  -0.081  -0.032  -0.142
    1RG35    N9   13   0.038   0.090   0.146
    1RG35    C8   14  -0.004   0.149   0.067
    1RG35    H8   15  -0.098  -0.072  -0.138
    1RG35    N7   16  -0.048   0.048   0.151
    1RG35    C5   17   0.040   0.008   0.003
    1RG35    C6   18  -0.039  -0.129  -0.247
    1RG35    O6   19   0.276  -0.330  -0.293
    1RG35    N1   20  -0.216   0.068  -0.004
    1RG35    H1   21  -0.132   0.163   0.127
    1RG35    C2   22  -0.009   0.095   0.021
    1RG35    N2   23   0.056  -0.082  -0.063
    1RG35   H21   24   0.154  -0.038   0.039
    1RG35   H22   25  -0.097  -0.016  -0.095
    1RG35    N3   26   0.128   0.085   0.263
    1RG35    C4   27   0.093   0.049   0.172
    1RG35   C3'   28   0.087  -0.051  -0.053
    1RG35   H3'   29   0.074  -0.092  -0.055
    1RG35   C2'   30   0.031  -0.049   0.040
    1RG35  H2'1   31   0.055  -0.047  -0.040
    1RG35   O2'   32   0.014   0.061  -0.024
    1RG35  HO'2   33  -0.023  -0.009  -0.045
    1RG35   O3'   34  -0.044   0.046  -0.095
    1RG35   H3T   35  -0.071  -0.009  -0.015
    1RG35   O3P   36  -0.030  -0.018   0.014
   0.00000   0.00000   0.00000
Gromacs Runs On Most of All Computer Systems in water t=   0.00002 step= 47
   36
    1RG35     P    1  -0.014  -0.038  -0.006
    1RG35   O1P    2   0.071  -0.044  -0.009
    1RG35   O2P    3   0.144   0.088   0.025
    1RG35   O5'    4  -0.176   0.113   0.002
    1RG35   C5'    5  -0.099   0.265   0.023
    1RG35  H5'1    6  -0.006  -0.015  -0.368
    1RG35  H5'2    7   0.087  -0.231   0.257
    1RG35   C4'    8  -0.008   0.156   0.118
    1RG35   H4'    9  -0.113   0.069   0.017
    1RG35   O4'   10   0.164  -0.051   0.158
    1RG35   C1'   11  -0.066   0.032   0.051
    1RG35   H1'   12  -0.084  -0.095  -0.076
    1RG35    N9   13  -0.099   0.032   0.039
    1RG35    C8   14   0.032   0.041   0.039
    1RG35    H8   15   0.033  -0.037  -0.050
    1RG35    N7   16   0.078   0.001   0.125
    1RG35    C5   17   0.039   0.042   0.008
    1RG35    C6   18   0.049   0.030   0.028
    1RG35    O6   19  -0.071   0.072   0.060
    1RG35    N1   20   0.065  -0.104  -0.058
    1RG35    H1   21   0.115  -0.068  -0.030
    1RG35    C2   22  -0.098  -0.049  -0.110
    1RG35    N2   23  -0.098   0.021   0.020
    1RG35   H21   24  -0.017   0.090   0.092
    1RG35   H22   25   0.202  -0.060   0.051
    1RG35    N3   26  -0.189  -0.058  -0.200
    1RG35    C4   27  -0.126   0.045  -0.084
    1RG35   C3'   28   0.159   0.019  -0.076
    1RG35   H3'   29   0.116  -0.157   0.022
    1RG35   C2'   30   0.037   0.060   0.027
    1RG35  H2'1   31  -0.073   0.031   0.055
    1RG35   O2'   32   0.008  -0.132  -0.003
    1RG35  HO'2   33   0.007   0.005  -0.021
    1RG35   O3'   34   0.020   0.002  -0.117
    1RG35   H3T   35  -0.026   0.002   0.028
    1RG35   O3P   36  -0.060  -0.077  -0.039
   0.00000   0.00000   0.00000
Gromacs Runs On Most of All Computer Systems in water t=   0.00001 step= 48
   36
    1RG35     P    1   0.030   0.028   0.007
    1RG35   O1P    2  -0.019   0.027   0.019
    1RG35   O2P    3  -0.092  -0.072  -0.024
    1RG35   O5'    4   0.149  -0.027  -0.046
    1RG35   C5'    5   0.085  -0.123  -0.068
    1RG35  H5'1    6  -0.012   0.035   0.180
    1RG35  H5'2    7  -0.078   0.065  -0.155
    1RG35   C4'    8   0.077  -0.074  -0.023
    1RG35   H4'    9   0.049  -0.111  -0.044
    1RG35   O4'   10   0.004   0.108  -0.016
    1RG35   C1'   11   0.091   0.083   0.065
    1RG35   H1'   12   0.064  -0.099  -0.084
    1RG35    N9   13  -0.063   0.133   0.096
    1RG35    C8   14  -0.061   0.036   0.242
    1RG35    H8   15  -0.015  -0.083  -0.231
    1RG35    N7   16   0.138   0.157   0.301
    1RG35    C5   17   0.076   0.046   0.045
    1RG35    C6   18   0.029  -0.071  -0.072
    1RG35    O6   19   0.014  -0.066  -0.082
    1RG35    N1   20  -0.036  -0.111  -0.096
    1RG35    H1   21   0.087  -0.020   0.039
    1RG35    C2   22  -0.159   0.029  -0.185
    1RG35    N2   23  -0.159   0.000  -0.002
    1RG35   H21   24   0.023   0.144   0.173
    1RG35   H22   25   0.270  -0.103   0.031
    1RG35    N3   26  -0.250  -0.042  -0.160
    1RG35    C4   27  -0.148   0.044  -0.021
    1RG35   C3'   28  -0.110  -0.010   0.088
    1RG35   H3'   29  -0.103   0.127  -0.048
    1RG35   C2'   30   0.017  -0.088   0.031
    1RG35  H2'1   31   0.060  -0.078  -0.046
    1RG35   O2'   32   0.031   0.090   0.003
    1RG35  HO'2   33   0.011  -0.002   0.001
    1RG35   O3'   34  -0.005   0.012   0.104
    1RG35   H3T   35   0.028  -0.004  -0.037
    1RG35   O3P   36  -0.025   0.018   0.013
   0.00000   0.00000   0.00000
Gromacs Runs On Most of All Computer Systems in water t=   0.00001 step= 49
   36
    1RG35     P    1   0.023  -0.010  -0.023
    1RG35   O1P    2  -0.053  -0.123  -0.009
    1RG35   O2P    3   0.107   0.023   0.018
    1RG35   O5'    4  -0.049   0.172   0.111
    1RG35   C5'    5   0.002   0.272   0.081
    1RG35  H5'1    6  -0.071  -0.032  -0.281
    1RG35  H5'2    7   0.137  -0.082   0.263
    1RG35   C4'    8   0.166  -0.021  -0.159
    1RG35   H4'    9   0.158  -0.175  -0.022
    1RG35   O4'   10  -0.095   0.060  -0.169
    1RG35   C1'   11  -0.045  -0.000  -0.045
    1RG35   H1'   12  -0.038   0.056   0.022
    1RG35    N9   13   0.006   0.057  -0.078
    1RG35    C8   14  -0.047  -0.099   0.025
    1RG35    H8   15   0.029   0.072   0.032
    1RG35    N7   16   0.014  -0.065   0.011
    1RG35    C5   17   0.077   0.080  -0.030
    1RG35    C6   18   0.003  -0.022  -0.016
    1RG35    O6   19   0.007  -0.029  -0.041
    1RG35    N1   20  -0.061  -0.077   0.063
    1RG35    H1   21  -0.016   0.022  -0.009
    1RG35    C2   22   0.070   0.159  -0.077
    1RG35    N2   23   0.000  -0.064   0.028
    1RG35   H21   24   0.027  -0.008  -0.019
    1RG35   H22   25  -0.036   0.021  -0.035
    1RG35    N3   26  -0.033  -0.050   0.157
    1RG35    C4   27   0.016   0.020   0.045
    1RG35   C3'   28  -0.254   0.009   0.074
    1RG35   H3'   29  -0.221   0.154  -0.005
    1RG35   C2'   30  -0.012  -0.247  -0.049
    1RG35  H2'1   31   0.125  -0.212  -0.017
    1RG35   O2'   32   0.097   0.194  -0.020
    1RG35  HO'2   33  -0.034  -0.006   0.058
    1RG35   O3'   34   0.007  -0.010   0.169
    1RG35   H3T   35   0.058   0.013   0.017
    1RG35   O3P   36  -0.067  -0.051  -0.070
   0.00000   0.00000   0.00000
Gromacs Runs On Most of All Computer Systems in water t=   0.00001 step= 50
   36
    1RG35     P    1  -0.019   0.010   0.010
    1RG35   O1P    2   0.010   0.021   0.008
    1RG35   O2P    3  -0.047   0.009   0.002
    1RG35   O5'    4   0.005  -0.071  -0.006
    1RG35   C5'    5  -0.012  -0.092  -0.040
    1RG35  H5'1    6   0.018   0.019   0.090
    1RG35  H5'2    7  -0.033   0.015  -0.099
    1RG35   C4'    8  -0.057  -0.008   0.055
    1RG35   H4'    9  -0.037   0.073   0.013
    1RG35   O4'   10   0.051  -0.056   0.051
    1RG35   C1'   11   0.006  -0.004  -0.024
    1RG35   H1'   12   0.001  -0.021   0.034
    1RG35    N9   13   0.043   0.072  -0.095
    1RG35    C8   14  -0.021  -0.064  -0.011
    1RG35    H8   15   0.047   0.079   0.003
    1RG35    N7   16  -0.116  -0.225   0.086
    1RG35    C5   17   0.143   0.290  -0.202
    1RG35    C6   18   0.045   0.100  -0.020
    1RG35    O6   19  -0.055   0.011   0.049
    1RG35    N1   20  -0.144  -0.321   0.218
    1RG35    H1   21   0.038   0.053  -0.029
    1RG35    C2   22   0.239   0.396  -0.292
    1RG35    N2   23  -0.045  -0.134   0.127
    1RG35   H21   24  -0.002   0.021  -0.049
    1RG35   H22   25  -0.010   0.051  -0.031
    1RG35    N3   26  -0.135  -0.239   0.175
    1RG35    C4   27  -0.031  -0.050   0.024
    1RG35   C3'   28   0.077  -0.010  -0.017
    1RG35   H3'   29   0.071  -0.039  -0.003
    1RG35   C2'   30  -0.010   0.087  -0.003
    1RG35  H2'1   31  -0.039   0.082   0.028
    1RG35   O2'   32  -0.052  -0.088   0.012
    1RG35  HO'2   33   0.017   0.011  -0.017
    1RG35   O3'   34   0.012  -0.000  -0.048
    1RG35   H3T   35  -0.005   0.003   0.006
    1RG35   O3P   36   0.046   0.021  -0.004
   0.00000   0.00000   0.00000
Gromacs Runs On Most of All Computer Systems in water t=   0.00001 step= 51
   36
    1RG35     P    1  -0.108  -0.036  -0.046
    1RG35   O1P    2  -0.144  -0.006  -0.088
    1RG35   O2P    3   0.031   0.212  -0.109
    1RG35   O5'    4  -0.167  -0.318   0.483
    1RG35   C5'    5  -0.143  -0.001  -0.062
    1RG35  H5'1    6  -0.123   0.095   0.034
    1RG35  H5'2    7   0.230  -0.025  -0.093
    1RG35   C4'    8  -0.116   0.018  -0.131
    1RG35   H4'    9   0.080   0.074   0.174
    1RG35   O4'   10   0.086  -0.094  -0.264
    1RG35   C1'   11   0.020  -0.017  -0.062
    1RG35   H1'   12   0.016  -0.016   0.032
    1RG35    N9   13  -0.048  -0.016   0.002
    1RG35    C8   14   0.007   0.130  -0.029
    1RG35    H8   15  -0.066  -0.017  -0.011
    1RG35    N7   16   0.050   0.013   0.138
    1RG35    C5   17   0.066   0.001   0.055
    1RG35    C6   18   0.035  -0.023  -0.062
    1RG35    O6   19   0.002  -0.070  -0.084
    1RG35    N1   20  -0.024  -0.003  -0.020
    1RG35    H1   21  -0.018   0.002  -0.009
    1RG35    C2   22  -0.073  -0.001   0.015
    1RG35    N2   23  -0.036  -0.004  -0.022
    1RG35   H21   24   0.014   0.025   0.037
    1RG35   H22   25   0.020  -0.024  -0.018
    1RG35    N3   26  -0.030   0.072   0.019
    1RG35    C4   27  -0.016   0.012   0.047
    1RG35   C3'   28   0.002   0.050  -0.037
    1RG35   H3'   29  -0.001  -0.031   0.052
    1RG35   C2'   30   0.043   0.014  -0.038
    1RG35  H2'1   31  -0.056  -0.012   0.029
    1RG35   O2'   32   0.060  -0.051  -0.009
    1RG35  HO'2   33  -0.021   0.013   0.045
    1RG35   O3'   34   0.041  -0.044  -0.002
    1RG35   H3T   35   0.029   0.011   0.054
    1RG35   O3P   36   0.359   0.067  -0.021
   0.00000   0.00000   0.00000
Gromacs Runs On Most of All Computer Systems in water t=   0.00001 step= 52
   36
    1RG35     P    1  -0.112  -0.062  -0.009
    1RG35   O1P    2   0.254   0.120  -0.117
    1RG35   O2P    3   0.038  -0.002   0.183
    1RG35   O5'    4  -0.256   0.018  -0.426
    1RG35   C5'    5  -0.047  -0.110   0.201
    1RG35  H5'1    6   0.176  -0.171   0.060
    1RG35  H5'2    7  -0.059   0.182   0.067
    1RG35   C4'    8  -0.118   0.006  -0.096
    1RG35   H4'    9   0.056   0.070   0.167
    1RG35   O4'   10   0.158  -0.004  -0.320
    1RG35   C1'   11  -0.009   0.047  -0.170
    1RG35   H1'   12  -0.047  -0.062   0.088
    1RG35    N9   13  -0.100  -0.035  -0.051
    1RG35    C8   14  -0.029   0.050  -0.062
    1RG35    H8   15  -0.045   0.051   0.062
    1RG35    N7   16   0.103  -0.020   0.076
    1RG35    C5   17   0.103   0.010   0.060
    1RG35    C6   18   0.058  -0.007  -0.045
    1RG35    O6   19  -0.043  -0.040  -0.076
    1RG35    N1   20  -0.008  -0.021  -0.001
    1RG35    H1   21   0.001  -0.008  -0.020
    1RG35    C2   22  -0.060   0.028   0.012
    1RG35    N2   23  -0.030  -0.023  -0.029
    1RG35   H21   24   0.047   0.017   0.048
    1RG35   H22   25   0.028  -0.041  -0.028
    1RG35    N3   26  -0.033   0.089   0.056
    1RG35    C4   27  -0.031   0.016   0.062
    1RG35   C3'   28  -0.052   0.032  -0.046
    1RG35   H3'   29  -0.026  -0.016   0.081
    1RG35   C2'   30   0.041  -0.022  -0.127
    1RG35  H2'1   31  -0.026  -0.038   0.104
    1RG35   O2'   32   0.112  -0.050  -0.011
    1RG35  HO'2   33  -0.053   0.018   0.112
    1RG35   O3'   34   0.049  -0.030  -0.003
    1RG35   H3T   35   0.036   0.006   0.052
    1RG35   O3P   36  -0.073   0.001   0.147
   0.00000   0.00000   0.00000
Gromacs Runs On Most of All Computer Systems in water t=   0.00001 step= 53
   36
    1RG35     P    1   0.089   0.035   0.018
    1RG35   O1P    2  -0.116   0.015   0.097
    1RG35   O2P    3  -0.049  -0.075  -0.118
    1RG35   O5'    4   0.198  -0.014   0.063
    1RG35   C5'    5   0.058  -0.023  -0.111
    1RG35  H5'1    6  -0.074   0.045   0.019
    1RG35  H5'2    7  -0.059  -0.075  -0.081
    1RG35   C4'    8  -0.043   0.092   0.125
    1RG35   H4'    9  -0.124   0.025   0.057
    1RG35   O4'   10   0.285   0.059   0.046
    1RG35   C1'   11  -0.122   0.167  -0.146
    1RG35   H1'   12  -0.194  -0.107   0.031
    1RG35    N9   13  -0.054   0.175  -0.168
    1RG35    C8   14  -0.186  -0.345   0.113
    1RG35    H8   15   0.058   0.166   0.078
    1RG35    N7   16   0.170   0.048  -0.160
    1RG35    C5   17   0.042  -0.073   0.083
    1RG35    C6   18   0.000  -0.147   0.065
    1RG35    O6   19  -0.015   0.014  -0.109
    1RG35    N1   20   0.081   0.043  -0.008
    1RG35    H1   21   0.010  -0.060  -0.054
    1RG35    C2   22  -0.016   0.061   0.064
    1RG35    N2   23   0.038  -0.032  -0.033
    1RG35   H21   24   0.073  -0.042  -0.001
    1RG35   H22   25  -0.054  -0.009  -0.044
    1RG35    N3   26  -0.071   0.079   0.141
    1RG35    C4   27  -0.035   0.117   0.022
    1RG35   C3'   28   0.028   0.029   0.005
    1RG35   H3'   29  -0.028  -0.083  -0.015
    1RG35   C2'   30   0.130  -0.013  -0.137
    1RG35  H2'1   31  -0.067  -0.064   0.158
    1RG35   O2'   32   0.206  -0.074  -0.057
    1RG35  HO'2   33  -0.096   0.024   0.111
    1RG35   O3'   34  -0.024   0.031  -0.007
    1RG35   H3T   35  -0.018  -0.004  -0.014
    1RG35   O3P   36  -0.020   0.013  -0.033
   0.00000   0.00000   0.00000
Gromacs Runs On Most of All Computer Systems in water t=   0.00001 step= 54
   36
    1RG35     P    1  -0.141  -0.073  -0.030
    1RG35   O1P    2   0.094   0.072  -0.138
    1RG35   O2P    3   0.049   0.107   0.086
    1RG35   O5'    4  -0.263  -0.135  -0.007
    1RG35   C5'    5  -0.110  -0.003   0.027
    1RG35  H5'1    6   0.062   0.031  -0.006
    1RG35  H5'2    7   0.031   0.023   0.000
    1RG35   C4'    8   0.043  -0.103   0.021
    1RG35   H4'    9   0.087   0.043  -0.051
    1RG35   O4'   10   0.045  -0.030   0.045
    1RG35   C1'   11   0.005   0.033   0.016
    1RG35   H1'   12  -0.009  -0.029   0.069
    1RG35    N9   13   0.151   0.211  -0.110
    1RG35    C8   14  -0.135  -0.286   0.246
    1RG35    H8   15   0.066   0.037  -0.092
    1RG35    N7   16   0.033   0.176  -0.103
    1RG35    C5   17  -0.089  -0.079   0.019
    1RG35    C6   18  -0.143  -0.188   0.118
    1RG35    O6   19   0.072   0.102  -0.028
    1RG35    N1   20   0.027   0.082  -0.071
    1RG35    H1   21   0.001  -0.001   0.028
    1RG35    C2   22   0.043   0.020  -0.050
    1RG35    N2   23   0.003   0.002   0.023
    1RG35   H21   24  -0.019  -0.002  -0.015
    1RG35   H22   25   0.008   0.022   0.010
    1RG35    N3   26  -0.039  -0.143   0.054
    1RG35    C4   27   0.094   0.124  -0.124
    1RG35   C3'   28  -0.024  -0.165  -0.061
    1RG35   H3'   29   0.123   0.091   0.018
    1RG35   C2'   30  -0.226  -0.071   0.018
    1RG35  H2'1   31   0.148   0.030  -0.014
    1RG35   O2'   32  -0.284   0.076   0.089
    1RG35  HO'2   33   0.103  -0.027  -0.068
    1RG35   O3'   34   0.068   0.036  -0.111
    1RG35   H3T   35   0.021  -0.000   0.095
    1RG35   O3P   36   0.104   0.017   0.098
   0.00000   0.00000   0.00000
Gromacs Runs On Most of All Computer Systems in water t=   0.00001 step= 55
   36
    1RG35     P    1  -0.110  -0.054  -0.032
    1RG35   O1P    2   0.086   0.031  -0.142
    1RG35   O2P    3   0.033   0.065   0.108
    1RG35   O5'    4  -0.180  -0.088  -0.017
    1RG35   C5'    5  -0.039  -0.006   0.037
    1RG35  H5'1    6   0.052  -0.001   0.005
    1RG35  H5'2    7   0.019   0.021   0.018
    1RG35   C4'    8   0.122  -0.103  -0.005
    1RG35   H4'    9   0.101  -0.051  -0.103
    1RG35   O4'   10  -0.133  -0.102   0.076
    1RG35   C1'   11  -0.061  -0.035   0.045
    1RG35   H1'   12  -0.037   0.056  -0.073
    1RG35    N9   13   0.070   0.045   0.007
    1RG35    C8   14  -0.010  -0.061   0.091
    1RG35    H8   15   0.029  -0.031  -0.072
    1RG35    N7   16  -0.063   0.058  -0.027
    1RG35    C5   17  -0.073  -0.013  -0.016
    1RG35    C6   18  -0.097  -0.082   0.056
    1RG35    O6   19   0.039   0.049   0.003
    1RG35    N1   20  -0.016   0.033  -0.037
    1RG35    H1   21  -0.009   0.018   0.041
    1RG35    C2   22   0.048  -0.003  -0.045
    1RG35    N2   23  -0.002   0.021   0.034
    1RG35   H21   24  -0.049   0.004  -0.020
    1RG35   H22   25  -0.001   0.029   0.023
    1RG35    N3   26   0.014  -0.139   0.021
    1RG35    C4   27   0.089   0.089  -0.091
    1RG35   C3'   28   0.119   0.123   0.225
    1RG35   H3'   29  -0.111  -0.024  -0.205
    1RG35   C2'   30   0.308   0.200   0.029
    1RG35  H2'1   31  -0.199   0.068   0.018
    1RG35   O2'   32   0.338  -0.144  -0.114
    1RG35  HO'2   33  -0.108   0.027   0.041
    1RG35   O3'   34  -0.176   0.011   0.285
    1RG35   H3T   35  -0.066  -0.033  -0.250
    1RG35   O3P   36   0.071   0.021   0.083
   0.00000   0.00000   0.00000
Gromacs Runs On Most of All Computer Systems in water t=   0.00001 step= 56
   36
    1RG35     P    1   0.129   0.107   0.042
    1RG35   O1P    2  -0.006  -0.176   0.181
    1RG35   O2P    3  -0.021  -0.043  -0.018
    1RG35   O5'    4   0.151   0.219  -0.007
    1RG35   C5'    5   0.023  -0.034   0.067
    1RG35  H5'1    6  -0.002  -0.098   0.026
    1RG35  H5'2    7   0.042   0.047   0.022
    1RG35   C4'    8  -0.228   0.093  -0.149
    1RG35   H4'    9  -0.051   0.084   0.191
    1RG35   O4'   10  -0.105  -0.261  -0.212
    1RG35   C1'   11   0.024  -0.177  -0.005
    1RG35   H1'   12   0.081   0.086   0.016
    1RG35    N9   13   0.106  -0.006  -0.027
    1RG35    C8   14  -0.051   0.008   0.115
    1RG35    H8   15  -0.038  -0.020  -0.100
    1RG35    N7   16  -0.012   0.106   0.121
    1RG35    C5   17  -0.020  -0.023   0.040
    1RG35    C6   18  -0.144  -0.195   0.110
    1RG35    O6   19   0.090   0.078  -0.021
    1RG35    N1   20  -0.045   0.072  -0.079
    1RG35    H1   21  -0.035   0.041   0.077
    1RG35    C2   22   0.027   0.009  -0.095
    1RG35    N2   23  -0.035   0.024   0.007
    1RG35   H21   24  -0.045   0.026   0.017
    1RG35   H22   25   0.043   0.013   0.020
    1RG35    N3   26  -0.015  -0.220   0.080
    1RG35    C4   27   0.211   0.191  -0.169
    1RG35   C3'   28   0.009   0.139  -0.104
    1RG35   H3'   29  -0.013  -0.096   0.122
    1RG35   C2'   30   0.034   0.073  -0.006
    1RG35  H2'1   31  -0.084   0.043  -0.026
    1RG35   O2'   32   0.031  -0.047  -0.019
    1RG35  HO'2   33  -0.016   0.013   0.009
    1RG35   O3'   34   0.049  -0.081  -0.078
    1RG35   H3T   35   0.019   0.021   0.071
    1RG35   O3P   36  -0.104  -0.017  -0.221
   0.00000   0.00000   0.00000
Gromacs Runs On Most of All Computer Systems in water t=   0.00001 step= 57
   36
    1RG35     P    1   0.087  -0.077  -0.144
    1RG35   O1P    2  -0.191   0.251  -0.260
    1RG35   O2P    3   0.143  -0.323  -0.051
    1RG35   O5'    4   0.118  -0.088   0.050
    1RG35   C5'    5   0.055   0.045  -0.007
    1RG35  H5'1    6  -0.095  -0.003  -0.018
    1RG35  H5'2    7  -0.018  -0.008   0.037
    1RG35   C4'    8  -0.039   0.131  -0.053
    1RG35   H4'    9  -0.052  -0.031   0.093
    1RG35   O4'   10   0.139   0.037  -0.113
    1RG35   C1'   11  -0.104   0.099   0.020
    1RG35   H1'   12  -0.133  -0.020  -0.012
    1RG35    N9   13   0.033  -0.015   0.150
    1RG35    C8   14   0.143   0.051   0.059
    1RG35    H8   15   0.097  -0.115  -0.066
    1RG35    N7   16  -0.154   0.018  -0.007
    1RG35    C5   17  -0.135   0.062  -0.077
    1RG35    C6   18  -0.106   0.030   0.013
    1RG35    O6   19   0.090   0.027   0.080
    1RG35    N1   20  -0.045  -0.012  -0.042
    1RG35    H1   21   0.025   0.046   0.079
    1RG35    C2   22   0.100  -0.064  -0.089
    1RG35    N2   23   0.039   0.024   0.063
    1RG35   H21   24  -0.057  -0.014  -0.053
    1RG35   H22   25   0.005   0.055   0.067
    1RG35    N3   26   0.090  -0.175  -0.080
    1RG35    C4   27   0.047   0.033  -0.052
    1RG35   C3'   28  -0.062   0.075  -0.086
    1RG35   H3'   29  -0.039  -0.022   0.094
    1RG35   C2'   30   0.017  -0.082  -0.033
    1RG35  H2'1   31   0.000  -0.088   0.035
    1RG35   O2'   32   0.075   0.002  -0.011
    1RG35  HO'2   33  -0.036   0.004   0.017
    1RG35   O3'   34   0.051  -0.034  -0.074
    1RG35   H3T   35   0.013   0.006   0.075
    1RG35   O3P   36  -0.101   0.175   0.392
   0.00000   0.00000   0.00000
Gromacs Runs On Most of All Computer Systems in water t=   0.00001 step= 58
   36
    1RG35     P    1  -0.088   0.084   0.080
    1RG35   O1P    2   0.139  -0.231   0.148
    1RG35   O2P    3  -0.131   0.231   0.098
    1RG35   O5'    4  -0.045   0.030  -0.015
    1RG35   C5'    5  -0.028  -0.071  -0.017
    1RG35  H5'1    6   0.033  -0.016   0.047
    1RG35  H5'2    7  -0.003   0.006  -0.075
    1RG35   C4'    8  -0.019  -0.011   0.013
    1RG35   H4'    9   0.009   0.017   0.040
    1RG35   O4'   10   0.220   0.081  -0.097
    1RG35   C1'   11  -0.138   0.204  -0.049
    1RG35   H1'   12  -0.203  -0.059   0.030
    1RG35    N9   13   0.089   0.110   0.086
    1RG35    C8   14   0.130  -0.023   0.130
    1RG35    H8   15   0.133  -0.126  -0.085
    1RG35    N7   16  -0.149   0.079  -0.042
    1RG35    C5   17  -0.167   0.054  -0.082
    1RG35    C6   18  -0.062   0.159  -0.080
    1RG35    O6   19   0.072  -0.047   0.114
    1RG35    N1   20  -0.083  -0.015  -0.036
    1RG35    H1   21   0.005   0.070   0.094
    1RG35    C2   22   0.097  -0.142  -0.053
    1RG35    N2   23   0.052   0.036   0.089
    1RG35   H21   24  -0.085  -0.018  -0.073
    1RG35   H22   25  -0.006   0.071   0.098
    1RG35    N3   26   0.195  -0.094  -0.204
    1RG35    C4   27  -0.062  -0.176   0.086
    1RG35   C3'   28  -0.063  -0.034  -0.007
    1RG35   H3'   29  -0.025   0.028   0.022
    1RG35   C2'   30   0.019  -0.086  -0.097
    1RG35  H2'1   31   0.022  -0.083   0.094
    1RG35   O2'   32   0.097   0.011  -0.028
    1RG35  HO'2   33  -0.045   0.008   0.061
    1RG35   O3'   34   0.016   0.011  -0.008
    1RG35   H3T   35   0.017   0.009   0.026
    1RG35   O3P   36   0.058  -0.065  -0.308
   0.00000   0.00000   0.00000
Gromacs Runs On Most of All Computer Systems in water t=   0.00001 step= 59
   36
    1RG35     P    1   0.093  -0.141   0.127
    1RG35   O1P    2  -0.141   0.350   0.240
    1RG35   O2P    3   0.028   0.048  -0.431
    1RG35   O5'    4  -0.052   0.054  -0.131
    1RG35   C5'    5  -0.018   0.038   0.074
    1RG35  H5'1    6   0.036  -0.033  -0.039
    1RG35  H5'2    7   0.012   0.044   0.083
    1RG35   C4'    8  -0.035  -0.012  -0.066
    1RG35   H4'    9   0.034   0.021   0.025
    1RG35   O4'   10  -0.090  -0.185  -0.038
    1RG35   C1'   11  -0.017  -0.092  -0.001
    1RG35   H1'   12   0.015   0.054   0.011
    1RG35    N9   13   0.166   0.195  -0.171
    1RG35    C8   14  -0.083  -0.111   0.127
    1RG35    H8   15   0.005   0.014  -0.055
    1RG35    N7   16   0.019   0.098   0.019
    1RG35    C5   17  -0.008  -0.003   0.010
    1RG35    C6   18   0.048   0.141  -0.080
    1RG35    O6   19  -0.011  -0.052   0.069
    1RG35    N1   20  -0.057  -0.017   0.003
    1RG35    H1   21  -0.021   0.037   0.032
    1RG35    C2   22   0.003  -0.050  -0.020
    1RG35    N2   23  -0.024   0.017   0.012
    1RG35   H21   24  -0.031   0.027  -0.000
    1RG35   H22   25   0.026   0.003   0.016
    1RG35    N3   26   0.117   0.046  -0.120
    1RG35    C4   27  -0.067  -0.251   0.142
    1RG35   C3'   28   0.005   0.052  -0.001
    1RG35   H3'   29  -0.023  -0.016   0.008
    1RG35   C2'   30   0.018   0.038   0.009
    1RG35  H2'1   31  -0.039   0.024  -0.014
    1RG35   O2'   32   0.007  -0.008  -0.007
    1RG35  HO'2   33  -0.009   0.001  -0.009
    1RG35   O3'   34  -0.013  -0.014   0.015
    1RG35   H3T   35  -0.005  -0.003  -0.005
    1RG35   O3P   36   0.113  -0.315   0.167
   0.00000   0.00000   0.00000
Gromacs Runs On Most of All Computer Systems in water t=   0.00001 step= 60
   36
    1RG35     P    1  -0.024  -0.088   0.154
    1RG35   O1P    2  -0.029   0.202   0.258
    1RG35   O2P    3  -0.096   0.206  -0.293
    1RG35   O5'    4  -0.064  -0.059  -0.146
    1RG35   C5'    5   0.010  -0.014   0.013
    1RG35  H5'1    6   0.019  -0.012   0.002
    1RG35  H5'2    7  -0.033   0.023   0.006
    1RG35   C4'    8   0.046   0.019  -0.003
    1RG35   H4'    9   0.006  -0.036  -0.015
    1RG35   O4'   10   0.088   0.194  -0.059
    1RG35   C1'   11   0.005   0.121   0.060
    1RG35   H1'   12  -0.030  -0.049  -0.051
    1RG35    N9   13  -0.177  -0.194   0.252
    1RG35    C8   14   0.145   0.115  -0.098
    1RG35    H8   15   0.055  -0.062   0.040
    1RG35    N7   16  -0.089  -0.109  -0.042
    1RG35    C5   17  -0.057   0.022  -0.044
    1RG35    C6   18  -0.093  -0.161   0.116
    1RG35    O6   19   0.045   0.071  -0.044
    1RG35    N1   20   0.069   0.005   0.002
    1RG35    H1   21   0.043  -0.046  -0.027
    1RG35    C2   22   0.038   0.056   0.004
    1RG35    N2   23   0.051  -0.000   0.010
    1RG35   H21   24   0.025  -0.047  -0.036
    1RG35   H22   25  -0.038   0.030  -0.003
    1RG35    N3   26  -0.131  -0.115   0.114
    1RG35    C4   27   0.072   0.320  -0.196
    1RG35   C3'   28  -0.030  -0.013   0.012
    1RG35   H3'   29  -0.020   0.020  -0.002
    1RG35   C2'   30   0.006  -0.069   0.040
    1RG35  H2'1   31   0.030  -0.068  -0.009
    1RG35   O2'   32   0.004   0.030  -0.005
    1RG35  HO'2   33  -0.003  -0.001  -0.017
    1RG35   O3'   34  -0.008   0.004   0.017
    1RG35   H3T   35  -0.002   0.001  -0.007
    1RG35   O3P   36   0.169  -0.296  -0.002
   0.00000   0.00000   0.00000
Gromacs Runs On Most of All Computer Systems in water t=   0.00001 step= 61
   36
    1RG35     P    1   0.005  -0.014   0.015
    1RG35   O1P    2  -0.035   0.039   0.027
    1RG35   O2P    3  -0.007   0.017  -0.063
    1RG35   O5'    4   0.004  -0.027   0.017
    1RG35   C5'    5  -0.003   0.024  -0.042
    1RG35  H5'1    6   0.002   0.055  -0.021
    1RG35  H5'2    7  -0.024  -0.030  -0.013
    1RG35   C4'    8   0.082  -0.052   0.149
    1RG35   H4'    9  -0.008   0.007  -0.079
    1RG35   O4'   10   0.021   0.122   0.136
    1RG35   C1'   11  -0.038  -0.011  -0.239
    1RG35   H1'   12  -0.048   0.018   0.103
    1RG35    N9   13   0.016  -0.249  -0.054
    1RG35    C8   14  -0.093   0.037  -0.160
    1RG35    H8   15  -0.138   0.085   0.041
    1RG35    N7   16   0.013  -0.038   0.019
    1RG35    C5   17   0.094   0.033   0.082
    1RG35    C6   18  -0.061  -0.014   0.037
    1RG35    O6   19   0.047   0.066   0.100
    1RG35    N1   20  -0.133   0.003  -0.141
    1RG35    H1   21  -0.028   0.089   0.114
    1RG35    C2   22  -0.054  -0.107  -0.221
    1RG35    N2   23  -0.268   0.052  -0.094
    1RG35   H21   24  -0.140   0.209   0.170
    1RG35   H22   25   0.205  -0.121  -0.031
    1RG35    N3   26   0.308  -0.139   0.098
    1RG35    C4   27   0.296  -0.007   0.066
    1RG35   C3'   28  -0.041  -0.128   0.016
    1RG35   H3'   29   0.020   0.040  -0.020
    1RG35   C2'   30  -0.067  -0.003  -0.216
    1RG35  H2'1   31   0.021   0.031   0.085
    1RG35   O2'   32   0.032  -0.009  -0.020
    1RG35  HO'2   33  -0.017   0.005   0.107
    1RG35   O3'   34   0.005   0.050   0.007
    1RG35   H3T   35   0.006   0.000   0.008
    1RG35   O3P   36   0.025  -0.033   0.015
   0.00000   0.00000   0.00000
Gromacs Runs On Most of All Computer Systems in water t=   0.00001 step= 62
   36
    1RG35     P    1   0.014   0.024  -0.004
    1RG35   O1P    2   0.001  -0.028   0.041
    1RG35   O2P    3   0.031  -0.044   0.004
    1RG35   O5'    4  -0.032   0.016   0.012
    1RG35   C5'    5  -0.040  -0.032   0.029
    1RG35  H5'1    6   0.013  -0.025   0.016
    1RG35  H5'2    7   0.020   0.030  -0.008
    1RG35   C4'    8  -0.083  -0.000  -0.092
    1RG35   H4'    9   0.004   0.029   0.050
    1RG35   O4'   10   0.015  -0.060  -0.147
    1RG35   C1'   11   0.009   0.050   0.165
    1RG35   H1'   12   0.001  -0.013  -0.063
    1RG35    N9   13   0.092   0.134   0.106
    1RG35    C8   14   0.074  -0.128  -0.045
    1RG35    H8   15   0.095  -0.021   0.036
    1RG35    N7   16  -0.252  -0.077  -0.345
    1RG35    C5   17  -0.175   0.077   0.022
    1RG35    C6   18  -0.017   0.061   0.006
    1RG35    O6   19   0.080  -0.019   0.074
    1RG35    N1   20   0.135  -0.159  -0.089
    1RG35    H1   21   0.231  -0.144  -0.049
    1RG35    C2   22  -0.160   0.017  -0.090
    1RG35    N2   23  -0.243   0.001  -0.161
    1RG35   H21   24  -0.021   0.159   0.175
    1RG35   H22   25   0.145  -0.159  -0.105
    1RG35    N3   26   0.087   0.180   0.259
    1RG35    C4   27  -0.002   0.110   0.233
    1RG35   C3'   28   0.052   0.032   0.015
    1RG35   H3'   29   0.011  -0.032  -0.030
    1RG35   C2'   30   0.040  -0.012   0.161
    1RG35  H2'1   31   0.003  -0.031  -0.059
    1RG35   O2'   32  -0.049   0.024   0.013
    1RG35  HO'2   33   0.010  -0.007  -0.087
    1RG35   O3'   34  -0.041  -0.015   0.034
    1RG35   H3T   35  -0.023   0.000  -0.031
    1RG35   O3P   36  -0.023   0.063  -0.044
   0.00000   0.00000   0.00000
Gromacs Runs On Most of All Computer Systems in water t=   0.00001 step= 63
   36
    1RG35     P    1   0.181   0.045  -0.031
    1RG35   O1P    2  -0.088   0.014   0.147
    1RG35   O2P    3   0.226  -0.244  -0.152
    1RG35   O5'    4  -0.159   0.232   0.108
    1RG35   C5'    5  -0.249  -0.056   0.004
    1RG35  H5'1    6   0.110   0.031  -0.024
    1RG35  H5'2    7   0.083  -0.007  -0.069
    1RG35   C4'    8  -0.180  -0.249   0.071
    1RG35   H4'    9   0.015   0.182   0.009
    1RG35   O4'   10   0.060   0.057  -0.225
    1RG35   C1'   11   0.023   0.092  -0.109
    1RG35   H1'   12  -0.013  -0.039   0.039
    1RG35    N9   13  -0.066  -0.034   0.032
    1RG35    C8   14   0.045   0.039   0.007
    1RG35    H8   15   0.025  -0.023   0.005
    1RG35    N7   16   0.025   0.001   0.066
    1RG35    C5   17   0.008   0.028  -0.002
    1RG35    C6   18  -0.027  -0.018   0.010
    1RG35    O6   19   0.018   0.001   0.005
    1RG35    N1   20  -0.004   0.007  -0.003
    1RG35    H1   21   0.002   0.007   0.021
    1RG35    C2   22   0.033  -0.023   0.013
    1RG35    N2   23   0.068  -0.002   0.033
    1RG35   H21   24   0.018  -0.050  -0.037
    1RG35   H22   25  -0.026   0.037   0.040
    1RG35    N3   26  -0.025  -0.026  -0.054
    1RG35    C4   27  -0.032   0.021  -0.020
    1RG35   C3'   28   0.133  -0.299   0.181
    1RG35   H3'   29   0.144   0.003  -0.175
    1RG35   C2'   30  -0.034   0.004  -0.019
    1RG35  H2'1   31   0.053   0.026   0.023
    1RG35   O2'   32  -0.106   0.021   0.038
    1RG35  HO'2   33   0.016  -0.002  -0.003
    1RG35   O3'   34  -0.130   0.121   0.258
    1RG35   H3T   35  -0.012  -0.021  -0.143
    1RG35   O3P   36  -0.134   0.123  -0.044
   0.00000   0.00000   0.00000
Gromacs Runs On Most of All Computer Systems in water t=   0.00001 step= 64
   36
    1RG35     P    1  -0.076  -0.081   0.007
    1RG35   O1P    2  -0.061  -0.035  -0.417
    1RG35   O2P    3  -0.126   0.223   0.127
    1RG35   O5'    4   0.234   0.492   0.161
    1RG35   C5'    5   0.035  -0.048  -0.042
    1RG35  H5'1    6   0.030  -0.034   0.053
    1RG35  H5'2    7   0.028  -0.065  -0.092
    1RG35   C4'    8  -0.117  -0.045   0.041
    1RG35   H4'    9  -0.051   0.070   0.054
    1RG35   O4'   10   0.026   0.005  -0.086
    1RG35   C1'   11  -0.001   0.030  -0.029
    1RG35   H1'   12  -0.012  -0.008   0.011
    1RG35    N9   13   0.003  -0.009   0.011
    1RG35    C8   14   0.002   0.005   0.010
    1RG35    H8   15  -0.000  -0.010  -0.006
    1RG35    N7   16  -0.018   0.037  -0.030
    1RG35    C5   17  -0.070  -0.107   0.053
    1RG35    C6   18   0.065   0.114  -0.079
    1RG35    O6   19  -0.032  -0.027  -0.004
    1RG35    N1   20  -0.007  -0.030   0.030
    1RG35    H1   21  -0.004   0.002  -0.032
    1RG35    C2   22   0.005   0.038  -0.010
    1RG35    N2   23  -0.024   0.005  -0.018
    1RG35   H21   24  -0.013   0.029   0.002
    1RG35   H22   25   0.003  -0.009  -0.031
    1RG35    N3   26  -0.020  -0.025   0.043
    1RG35    C4   27   0.047   0.066  -0.060
    1RG35   C3'   28   0.056  -0.093   0.053
    1RG35   H3'   29   0.052  -0.035  -0.033
    1RG35   C2'   30  -0.003  -0.014   0.001
    1RG35  H2'1   31   0.019  -0.009   0.001
    1RG35   O2'   32  -0.037   0.000   0.020
    1RG35  HO'2   33   0.012  -0.012  -0.005
    1RG35   O3'   34  -0.013   0.019   0.079
    1RG35   H3T   35  -0.005  -0.017  -0.030
    1RG35   O3P   36   0.074  -0.422   0.248
   0.00000   0.00000   0.00000
Gromacs Runs On Most of All Computer Systems in water t=   0.00001 step= 65
   36
    1RG35     P    1   0.041  -0.014   0.001
    1RG35   O1P    2  -0.015   0.006   0.022
    1RG35   O2P    3   0.076  -0.051  -0.046
    1RG35   O5'    4  -0.079   0.132   0.065
    1RG35   C5'    5  -0.067  -0.025  -0.008
    1RG35  H5'1    6   0.053   0.008   0.009
    1RG35  H5'2    7   0.028  -0.023  -0.044
    1RG35   C4'    8   0.057  -0.143   0.091
    1RG35   H4'    9   0.059   0.004  -0.066
    1RG35   O4'   10  -0.086  -0.074   0.206
    1RG35   C1'   11   0.048  -0.081  -0.198
    1RG35   H1'   12   0.064   0.018   0.087
    1RG35    N9   13   0.110  -0.091   0.058
    1RG35    C8   14   0.141   0.087   0.172
    1RG35    H8   15   0.103  -0.141  -0.099
    1RG35    N7   16  -0.267   0.159   0.062
    1RG35    C5   17  -0.147   0.048  -0.093
    1RG35    C6   18   0.002  -0.012   0.002
    1RG35    O6   19  -0.006  -0.022  -0.038
    1RG35    N1   20   0.152  -0.052   0.065
    1RG35    H1   21   0.110  -0.120  -0.104
    1RG35    C2   22  -0.079   0.121   0.122
    1RG35    N2   23  -0.013  -0.017  -0.047
    1RG35   H21   24   0.042  -0.007   0.011
    1RG35   H22   25  -0.034  -0.031  -0.065
    1RG35    N3   26  -0.151   0.180   0.126
    1RG35    C4   27  -0.025  -0.007  -0.025
    1RG35   C3'   28  -0.183  -0.093  -0.068
    1RG35   H3'   29  -0.060   0.074   0.074
    1RG35   C2'   30  -0.075   0.091  -0.344
    1RG35  H2'1   31  -0.040   0.119   0.086
    1RG35   O2'   32   0.180  -0.060  -0.128
    1RG35  HO'2   33  -0.040   0.020   0.173
    1RG35   O3'   34   0.088   0.003  -0.172
    1RG35   H3T   35   0.026   0.011   0.098
    1RG35   O3P   36  -0.014  -0.016   0.014
   0.00000   0.00000   0.00000
Gromacs Runs On Most of All Computer Systems in water t=   0.00001 step= 66
   36
    1RG35     P    1  -0.022  -0.015   0.003
    1RG35   O1P    2  -0.009  -0.007  -0.106
    1RG35   O2P    3  -0.056   0.070   0.044
    1RG35   O5'    4   0.078   0.071   0.012
    1RG35   C5'    5   0.040   0.007  -0.005
    1RG35  H5'1    6  -0.010  -0.010   0.003
    1RG35  H5'2    7  -0.004  -0.010   0.002
    1RG35   C4'    8  -0.030   0.031  -0.002
    1RG35   H4'    9  -0.030   0.013   0.024
    1RG35   O4'   10   0.012   0.001  -0.047
    1RG35   C1'   11  -0.028   0.005  -0.010
    1RG35   H1'   12  -0.030   0.008   0.005
    1RG35    N9   13   0.052  -0.010  -0.002
    1RG35    C8   14   0.010   0.024   0.022
    1RG35    H8   15   0.007   0.006  -0.030
    1RG35    N7   16  -0.095  -0.076   0.077
    1RG35    C5   17   0.231   0.398  -0.339
    1RG35    C6   18  -0.211  -0.448   0.284
    1RG35    O6   19   0.045   0.155  -0.074
    1RG35    N1   20   0.105   0.160  -0.056
    1RG35    H1   21  -0.006  -0.024  -0.026
    1RG35    C2   22  -0.054  -0.040   0.095
    1RG35    N2   23  -0.029   0.004  -0.033
    1RG35   H21   24  -0.002   0.018   0.022
    1RG35   H22   25   0.003  -0.034  -0.027
    1RG35    N3   26   0.073   0.162  -0.094
    1RG35    C4   27  -0.103  -0.289   0.149
    1RG35   C3'   28   0.054   0.001   0.022
    1RG35   H3'   29   0.026  -0.031  -0.025
    1RG35   C2'   30   0.010  -0.021   0.011
    1RG35  H2'1   31   0.010  -0.025  -0.003
    1RG35   O2'   32  -0.057   0.010   0.004
    1RG35  HO'2   33   0.020  -0.007   0.001
    1RG35   O3'   34  -0.024   0.011   0.067
    1RG35   H3T   35   0.001  -0.008  -0.026
    1RG35   O3P   36   0.023  -0.101   0.059
   0.00000   0.00000   0.00000
Gromacs Runs On Most of All Computer Systems in water t=   0.00001 step= 67
   36
    1RG35     P    1   0.017  -0.018  -0.001
    1RG35   O1P    2  -0.015  -0.012  -0.041
    1RG35   O2P    3   0.084  -0.021  -0.019
    1RG35   O5'    4  -0.123   0.243   0.121
    1RG35   C5'    5  -0.102  -0.108  -0.005
    1RG35  H5'1    6   0.076  -0.047   0.083
    1RG35  H5'2    7   0.036  -0.024  -0.123
    1RG35   C4'    8   0.047  -0.112  -0.001
    1RG35   H4'    9   0.078  -0.030  -0.044
    1RG35   O4'   10  -0.052  -0.041   0.155
    1RG35   C1'   11   0.132   0.004   0.074
    1RG35   H1'   12   0.137  -0.045  -0.037
    1RG35    N9   13  -0.240   0.112  -0.005
    1RG35    C8   14  -0.025  -0.097  -0.161
    1RG35    H8   15   0.033   0.050   0.099
    1RG35    N7   16   0.156  -0.174  -0.076
    1RG35    C5   17   0.004   0.220   0.125
    1RG35    C6   18  -0.189  -0.056   0.003
    1RG35    O6   19   0.123  -0.040  -0.028
    1RG35    N1   20  -0.103  -0.039  -0.231
    1RG35    H1   21   0.050   0.031   0.084
    1RG35    C2   22   0.019  -0.156  -0.126
    1RG35    N2   23   0.107   0.021   0.086
    1RG35   H21   24   0.004  -0.062  -0.086
    1RG35   H22   25  -0.022   0.114   0.114
    1RG35    N3   26   0.069  -0.011  -0.061
    1RG35    C4   27  -0.193   0.178   0.208
    1RG35   C3'   28  -0.144   0.047  -0.057
    1RG35   H3'   29  -0.096   0.059   0.085
    1RG35   C2'   30   0.019   0.081   0.022
    1RG35  H2'1   31  -0.051   0.070  -0.008
    1RG35   O2'   32   0.130  -0.031  -0.026
    1RG35  HO'2   33  -0.034   0.004  -0.018
    1RG35   O3'   34   0.079  -0.048  -0.229
    1RG35   H3T   35  -0.010   0.005   0.081
    1RG35   O3P   36   0.001  -0.063   0.041
   0.00000   0.00000   0.00000
Gromacs Runs On Most of All Computer Systems in water t=   0.00001 step= 68
   36
    1RG35     P    1  -0.039  -0.001   0.007
    1RG35   O1P    2   0.018   0.008  -0.039
    1RG35   O2P    3  -0.135   0.079   0.063
    1RG35   O5'    4   0.225  -0.235  -0.122
    1RG35   C5'    5   0.140   0.144   0.003
    1RG35  H5'1    6  -0.087   0.078  -0.100
    1RG35  H5'2    7  -0.038   0.034   0.161
    1RG35   C4'    8  -0.055   0.062   0.033
    1RG35   H4'    9  -0.076   0.047   0.027
    1RG35   O4'   10  -0.111  -0.102  -0.052
    1RG35   C1'   11   0.076  -0.177  -0.219
    1RG35   H1'   12   0.109   0.017   0.060
    1RG35    N9   13  -0.104  -0.008  -0.090
    1RG35    C8   14   0.079  -0.027   0.005
    1RG35    H8   15   0.118  -0.057   0.018
    1RG35    N7   16   0.004   0.045   0.064
    1RG35    C5   17  -0.148   0.161   0.132
    1RG35    C6   18  -0.167   0.057  -0.064
    1RG35    O6   19   0.121  -0.054   0.026
    1RG35    N1   20  -0.048  -0.121  -0.215
    1RG35    H1   21   0.152  -0.048   0.044
    1RG35    C2   22  -0.058  -0.061  -0.077
    1RG35    N2   23   0.127   0.004   0.075
    1RG35   H21   24   0.055  -0.097  -0.083
    1RG35   H22   25  -0.034   0.106   0.115
    1RG35    N3   26  -0.045   0.087   0.067
    1RG35    C4   27  -0.128   0.161   0.129
    1RG35   C3'   28   0.108  -0.093   0.038
    1RG35   H3'   29   0.097  -0.050  -0.075
    1RG35   C2'   30  -0.062  -0.015  -0.183
    1RG35  H2'1   31   0.025   0.008   0.026
    1RG35   O2'   32  -0.175   0.012  -0.077
    1RG35  HO'2   33   0.070  -0.005   0.149
    1RG35   O3'   34  -0.068   0.064   0.208
    1RG35   H3T   35   0.017  -0.011  -0.068
    1RG35   O3P   36   0.035  -0.009   0.012
   0.00000   0.00000   0.00000
Gromacs Runs On Most of All Computer Systems in water t=   0.00000 step= 69
   36
    1RG35     P    1  -0.022  -0.019  -0.009
    1RG35   O1P    2  -0.003   0.005   0.031
    1RG35   O2P    3   0.095  -0.042  -0.038
    1RG35   O5'    4  -0.212   0.161   0.100
    1RG35   C5'    5   0.003  -0.116  -0.018
    1RG35  H5'1    6   0.037  -0.119   0.118
    1RG35  H5'2    7  -0.014  -0.049  -0.150
    1RG35   C4'    8   0.116   0.173  -0.073
    1RG35   H4'    9   0.013  -0.079  -0.019
    1RG35   O4'   10   0.024   0.043   0.115
    1RG35   C1'   11  -0.049  -0.016  -0.013
    1RG35   H1'   12  -0.046   0.014  -0.010
    1RG35    N9   13   0.000  -0.021  -0.011
    1RG35    C8   14   0.001   0.003   0.004
    1RG35    H8   15  -0.001   0.002   0.004
    1RG35    N7   16   0.009   0.013   0.020
    1RG35    C5   17  -0.001  -0.030  -0.006
    1RG35    C6   18   0.010   0.015  -0.013
    1RG35    O6   19   0.002   0.009   0.028
    1RG35    N1   20  -0.015  -0.017  -0.021
    1RG35    H1   21   0.013   0.001   0.007
    1RG35    C2   22  -0.015   0.004  -0.014
    1RG35    N2   23   0.012  -0.006   0.003
    1RG35   H21   24   0.013  -0.008  -0.007
    1RG35   H22   25  -0.000   0.010   0.006
    1RG35    N3   26  -0.000   0.015   0.034
    1RG35    C4   27   0.023  -0.013  -0.022
    1RG35   C3'   28   0.135   0.315  -0.040
    1RG35   H3'   29  -0.019  -0.071  -0.006
    1RG35   C2'   30   0.130  -0.084  -0.047
    1RG35  H2'1   31   0.012  -0.135  -0.006
    1RG35   O2'   32  -0.447   0.051  -0.397
    1RG35  HO'2   33   0.229  -0.017   0.402
    1RG35   O3'   34  -0.037  -0.006   0.080
    1RG35   H3T   35   0.015  -0.005  -0.027
    1RG35   O3P   36  -0.012   0.016  -0.005
   0.00000   0.00000   0.00000
Gromacs Runs On Most of All Computer Systems in water t=   0.00000 step= 70
   36
    1RG35     P    1  -0.024  -0.014  -0.003
    1RG35   O1P    2   0.002   0.001   0.021
    1RG35   O2P    3   0.051  -0.011  -0.025
    1RG35   O5'    4  -0.141   0.103   0.059
    1RG35   C5'    5   0.022  -0.075  -0.027
    1RG35  H5'1    6   0.021  -0.069   0.081
    1RG35  H5'2    7  -0.016  -0.037  -0.108
    1RG35   C4'    8   0.106   0.130   0.016
    1RG35   H4'    9  -0.007  -0.047  -0.013
    1RG35   O4'   10   0.075   0.131   0.036
    1RG35   C1'   11  -0.091  -0.089  -0.133
    1RG35   H1'   12  -0.078   0.036   0.022
    1RG35    N9   13   0.099  -0.175  -0.170
    1RG35    C8   14  -0.007   0.019   0.025
    1RG35    H8   15  -0.001  -0.010  -0.021
    1RG35    N7   16  -0.000   0.099   0.142
    1RG35    C5   17  -0.002  -0.046  -0.071
    1RG35    C6   18  -0.094   0.021  -0.078
    1RG35    O6   19   0.021   0.107   0.201
    1RG35    N1   20  -0.099  -0.150  -0.283
    1RG35    H1   21   0.134  -0.046   0.025
    1RG35    C2   22  -0.197   0.034  -0.059
    1RG35    N2   23   0.113  -0.014   0.070
    1RG35   H21   24   0.099  -0.109  -0.079
    1RG35   H22   25  -0.032   0.107   0.113
    1RG35    N3   26  -0.097   0.222   0.221
    1RG35    C4   27   0.113  -0.116  -0.072
    1RG35   C3'   28   0.077   0.163  -0.011
    1RG35   H3'   29  -0.006  -0.033  -0.004
    1RG35   C2'   30   0.008  -0.061   0.096
    1RG35  H2'1   31   0.017  -0.069  -0.026
    1RG35   O2'   32   0.063   0.024   0.346
    1RG35  HO'2   33  -0.103   0.000  -0.285
    1RG35   O3'   34  -0.010  -0.027   0.026
    1RG35   H3T   35  -0.016  -0.000  -0.020
    1RG35   O3P   36  -0.003   0.001  -0.011
   0.00000   0.00000   0.00000
Gromacs Runs On Most of All Computer Systems in water t=   0.00000 step= 71
   36
    1RG35     P    1  -0.042  -0.023  -0.005
    1RG35   O1P    2   0.005   0.003   0.027
    1RG35   O2P    3   0.053  -0.016  -0.022
    1RG35   O5'    4  -0.133   0.077   0.048
    1RG35   C5'    5   0.071  -0.044  -0.021
    1RG35  H5'1    6   0.007  -0.079   0.070
    1RG35  H5'2    7  -0.028  -0.037  -0.086
    1RG35   C4'    8   0.097   0.188  -0.030
    1RG35   H4'    9  -0.016  -0.048  -0.008
    1RG35   O4'   10  -0.006   0.028   0.090
    1RG35   C1'   11   0.012  -0.149  -0.235
    1RG35   H1'   12   0.036   0.010   0.036
    1RG35    N9   13  -0.134  -0.033  -0.140
    1RG35    C8   14   0.070  -0.045  -0.005
    1RG35    H8   15   0.125  -0.055   0.018
    1RG35    N7   16  -0.066   0.092   0.067
    1RG35    C5   17  -0.159   0.186   0.160
    1RG35    C6   18  -0.047   0.039   0.041
    1RG35    O6   19   0.042  -0.166  -0.241
    1RG35    N1   20   0.142   0.091   0.248
    1RG35    H1   21  -0.033  -0.010  -0.037
    1RG35    C2   22   0.212  -0.018   0.105
    1RG35    N2   23  -0.100   0.008  -0.060
    1RG35   H21   24  -0.094   0.100   0.077
    1RG35   H22   25   0.024  -0.106  -0.110
    1RG35    N3   26   0.085  -0.153  -0.132
    1RG35    C4   27  -0.109   0.129   0.080
    1RG35   C3'   28   0.107   0.171  -0.059
    1RG35   H3'   29   0.030  -0.051  -0.010
    1RG35   C2'   30  -0.032  -0.072  -0.079
    1RG35  H2'1   31   0.020  -0.064   0.003
    1RG35   O2'   32  -0.031   0.029   0.328
    1RG35  HO'2   33  -0.075  -0.001  -0.209
    1RG35   O3'   34  -0.039  -0.001   0.142
    1RG35   H3T   35   0.010  -0.001  -0.033
    1RG35   O3P   36  -0.003   0.023  -0.019
   0.00000   0.00000   0.00000
Gromacs Runs On Most of All Computer Systems in water t=   0.00000 step= 72
   36
    1RG35     P    1   0.073   0.036  -0.002
    1RG35   O1P    2  -0.013  -0.009  -0.031
    1RG35   O2P    3  -0.050   0.015   0.018
    1RG35   O5'    4   0.102  -0.069  -0.049
    1RG35   C5'    5  -0.125   0.021   0.018
    1RG35  H5'1    6   0.006   0.073  -0.071
    1RG35  H5'2    7   0.024   0.019   0.070
    1RG35   C4'    8   0.011  -0.264   0.244
    1RG35   H4'    9   0.024   0.031  -0.027
    1RG35   O4'   10   0.015   0.085  -0.155
    1RG35   C1'   11  -0.059  -0.016  -0.158
    1RG35   H1'   12  -0.064   0.029   0.001
    1RG35    N9   13  -0.071  -0.122  -0.229
    1RG35    C8   14   0.040  -0.028  -0.023
    1RG35    H8   15   0.080  -0.041   0.007
    1RG35    N7   16  -0.012   0.116   0.148
    1RG35    C5   17  -0.107   0.081   0.038
    1RG35    C6   18  -0.113   0.042  -0.026
    1RG35    O6   19   0.034  -0.046  -0.052
    1RG35    N1   20   0.043  -0.001   0.039
    1RG35    H1   21   0.036  -0.027  -0.017
    1RG35    C2   22   0.079   0.011   0.073
    1RG35    N2   23  -0.032   0.004  -0.020
    1RG35   H21   24  -0.038   0.037   0.030
    1RG35   H22   25   0.004  -0.041  -0.039
    1RG35    N3   26   0.027   0.004   0.033
    1RG35    C4   27   0.008  -0.022  -0.032
    1RG35   C3'   28   0.021   0.131   0.296
    1RG35   H3'   29  -0.145   0.048   0.013
    1RG35   C2'   30   0.304   0.030   0.314
    1RG35  H2'1   31  -0.019  -0.072  -0.053
    1RG35   O2'   32  -0.174   0.028  -0.031
    1RG35  HO'2   33   0.077  -0.010   0.029
    1RG35   O3'   34   0.104  -0.059  -0.404
    1RG35   H3T   35  -0.078   0.003   0.039
    1RG35   O3P   36  -0.012  -0.018   0.007
   0.00000   0.00000   0.00000
Gromacs Runs On Most of All Computer Systems in water t=   0.00000 step= 73
   36
    1RG35     P    1   0.135   0.069   0.008
    1RG35   O1P    2  -0.023  -0.018  -0.041
    1RG35   O2P    3  -0.053   0.016   0.025
    1RG35   O5'    4   0.041  -0.062  -0.027
    1RG35   C5'    5  -0.147  -0.016   0.042
    1RG35  H5'1    6   0.011   0.021  -0.019
    1RG35  H5'2    7   0.034   0.025   0.034
    1RG35   C4'    8  -0.066  -0.043  -0.153
    1RG35   H4'    9   0.050  -0.008   0.002
    1RG35   O4'   10  -0.009  -0.056   0.166
    1RG35   C1'   11   0.083   0.116   0.020
    1RG35   H1'   12   0.063  -0.045  -0.015
    1RG35    N9   13  -0.406   0.131  -0.091
    1RG35    C8   14   0.044   0.039   0.072
    1RG35    H8   15   0.101  -0.047   0.020
    1RG35    N7   16   0.150   0.032   0.166
    1RG35    C5   17  -0.076  -0.193  -0.334
    1RG35    C6   18  -0.096  -0.008  -0.112
    1RG35    O6   19  -0.021   0.107   0.160
    1RG35    N1   20  -0.015  -0.041  -0.064
    1RG35    H1   21   0.033  -0.007   0.012
    1RG35    C2   22   0.217  -0.022   0.123
    1RG35    N2   23  -0.073   0.005  -0.058
    1RG35   H21   24  -0.096   0.096   0.066
    1RG35   H22   25   0.007  -0.080  -0.089
    1RG35    N3   26   0.271   0.063   0.287
    1RG35    C4   27  -0.147  -0.051  -0.190
    1RG35   C3'   28   0.007   0.062  -0.115
    1RG35   H3'   29   0.021  -0.019   0.008
    1RG35   C2'   30  -0.022  -0.014  -0.043
    1RG35  H2'1   31   0.000  -0.009   0.014
    1RG35   O2'   32   0.002   0.002   0.029
    1RG35  HO'2   33  -0.010  -0.000  -0.009
    1RG35   O3'   34  -0.022  -0.004   0.099
    1RG35   H3T   35   0.022  -0.001  -0.007
    1RG35   O3P   36  -0.012  -0.039   0.015
   0.00000   0.00000   0.00000
Gromacs Runs On Most of All Computer Systems in water t=   0.00000 step= 74
   36
    1RG35     P    1  -0.264  -0.142  -0.017
    1RG35   O1P    2   0.047   0.031   0.087
    1RG35   O2P    3   0.118  -0.037  -0.049
    1RG35   O5'    4  -0.089   0.116   0.060
    1RG35   C5'    5   0.318   0.045  -0.079
    1RG35  H5'1    6  -0.028  -0.056   0.056
    1RG35  H5'2    7  -0.066  -0.043  -0.073
    1RG35   C4'    8   0.056   0.193   0.087
    1RG35   H4'    9  -0.095   0.008   0.027
    1RG35   O4'   10   0.044   0.110  -0.214
    1RG35   C1'   11  -0.059  -0.214   0.204
    1RG35   H1'   12  -0.005   0.022  -0.023
    1RG35    N9   13  -0.083  -0.005  -0.169
    1RG35    C8   14   0.000  -0.027  -0.013
    1RG35    H8   15   0.045  -0.010   0.010
    1RG35    N7   16   0.121   0.032   0.143
    1RG35    C5   17  -0.109   0.018  -0.065
    1RG35    C6   18  -0.162   0.051  -0.048
    1RG35    O6   19   0.037  -0.009   0.019
    1RG35    N1   20   0.027  -0.019   0.001
    1RG35    H1   21   0.054  -0.032  -0.003
    1RG35    C2   22   0.113   0.015   0.103
    1RG35    N2   23  -0.040  -0.001  -0.028
    1RG35   H21   24  -0.045   0.046   0.037
    1RG35   H22   25   0.005  -0.048  -0.051
    1RG35    N3   26   0.084   0.021   0.087
    1RG35    C4   27  -0.041  -0.056  -0.089
    1RG35   C3'   28  -0.089  -0.320   0.056
    1RG35   H3'   29   0.042   0.036  -0.019
    1RG35   C2'   30  -0.151   0.065   0.221
    1RG35  H2'1   31  -0.006   0.123  -0.037
    1RG35   O2'   32   0.181  -0.039  -0.248
    1RG35  HO'2   33   0.019   0.004   0.091
    1RG35   O3'   34   0.010   0.026  -0.034
    1RG35   H3T   35  -0.011   0.003   0.010
    1RG35   O3P   36   0.020   0.090  -0.043
   0.00000   0.00000   0.00000
Gromacs Runs On Most of All Computer Systems in water t=   0.00000 step= 75
   36
    1RG35     P    1   0.279   0.139   0.019
    1RG35   O1P    2  -0.051  -0.031  -0.087
    1RG35   O2P    3  -0.112   0.042   0.044
    1RG35   O5'    4   0.006  -0.090  -0.042
    1RG35   C5'    5  -0.249  -0.047   0.060
    1RG35  H5'1    6   0.027   0.013  -0.009
    1RG35  H5'2    7   0.042   0.024   0.015
    1RG35   C4'    8  -0.045  -0.003  -0.182
    1RG35   H4'    9   0.055  -0.012  -0.001
    1RG35   O4'   10   0.138   0.161   0.134
    1RG35   C1'   11  -0.074  -0.032   0.179
    1RG35   H1'   12  -0.060   0.013  -0.007
    1RG35    N9   13   0.237  -0.162  -0.074
    1RG35    C8   14  -0.072  -0.066  -0.121
    1RG35    H8   15  -0.064   0.049  -0.000
    1RG35    N7   16   0.176  -0.033   0.088
    1RG35    C5   17  -0.139   0.175   0.136
    1RG35    C6   18  -0.348   0.158  -0.055
    1RG35    O6   19   0.100  -0.093  -0.066
    1RG35    N1   20   0.067  -0.027   0.031
    1RG35    H1   21   0.110  -0.071  -0.032
    1RG35    C2   22   0.052   0.075   0.140
    1RG35    N2   23  -0.002   0.006  -0.006
    1RG35   H21   24  -0.019   0.024   0.018
    1RG35   H22   25  -0.007  -0.045  -0.054
    1RG35    N3   26  -0.163   0.017  -0.099
    1RG35    C4   27   0.128  -0.092  -0.035
    1RG35   C3'   28  -0.038  -0.020  -0.188
    1RG35   H3'   29   0.048  -0.015   0.010
    1RG35   C2'   30  -0.110   0.004   0.086
    1RG35  H2'1   31   0.000   0.041  -0.012
    1RG35   O2'   32   0.101  -0.024  -0.129
    1RG35  HO'2   33   0.008  -0.001   0.050
    1RG35   O3'   34  -0.036   0.011   0.156
    1RG35   H3T   35   0.042  -0.003  -0.003
    1RG35   O3P   36  -0.026  -0.091   0.038
   0.00000   0.00000   0.00000
Gromacs Runs On Most of All Computer Systems in water t=   0.00000 step= 76
   36
    1RG35     P    1  -0.218  -0.117  -0.018
    1RG35   O1P    2   0.038   0.024   0.072
    1RG35   O2P    3   0.079  -0.026  -0.030
    1RG35   O5'    4   0.025   0.064   0.025
    1RG35   C5'    5   0.165   0.040  -0.034
    1RG35  H5'1    6  -0.021   0.000  -0.004
    1RG35  H5'2    7  -0.018  -0.006   0.007
    1RG35   C4'    8  -0.022  -0.057   0.065
    1RG35   H4'    9  -0.022   0.011   0.001
    1RG35   O4'   10  -0.139  -0.227  -0.026
    1RG35   C1'   11   0.066   0.279  -0.075
    1RG35   H1'   12   0.007  -0.021   0.010
    1RG35    N9   13   0.184   0.025   0.254
    1RG35    C8   14  -0.093   0.056  -0.024
    1RG35    H8   15  -0.150   0.066  -0.009
    1RG35    N7   16   0.335  -0.198  -0.014
    1RG35    C5   17  -0.110   0.011  -0.067
    1RG35    C6   18  -0.356   0.137  -0.087
    1RG35    O6   19   0.078  -0.017   0.048
    1RG35    N1   20   0.046  -0.038  -0.002
    1RG35    H1   21   0.111  -0.068  -0.018
    1RG35    C2   22   0.090   0.087   0.178
    1RG35    N2   23  -0.021  -0.002  -0.023
    1RG35   H21   24  -0.028   0.037   0.031
    1RG35   H22   25  -0.004  -0.054  -0.068
    1RG35    N3   26  -0.077   0.006  -0.043
    1RG35    C4   27   0.052  -0.078  -0.077
    1RG35   C3'   28   0.045   0.078   0.118
    1RG35   H3'   29  -0.040  -0.000  -0.003
    1RG35   C2'   30   0.111  -0.029  -0.231
    1RG35  H2'1   31  -0.000  -0.070   0.042
    1RG35   O2'   32  -0.109   0.022   0.154
    1RG35  HO'2   33  -0.022   0.004  -0.043
    1RG35   O3'   34   0.010  -0.009  -0.079
    1RG35   H3T   35  -0.014   0.002  -0.001
    1RG35   O3P   36   0.023   0.069  -0.030
   0.00000   0.00000   0.00000
Gromacs Runs On Most of All Computer Systems in water t=   0.00000 step= 77
   36
    1RG35     P    1   0.471   0.246   0.039
    1RG35   O1P    2  -0.083  -0.046  -0.125
    1RG35   O2P    3  -0.146   0.056   0.055
    1RG35   O5'    4  -0.309  -0.107   0.004
    1RG35   C5'    5   0.063   0.005  -0.024
    1RG35  H5'1    6   0.009  -0.048   0.051
    1RG35  H5'2    7  -0.036  -0.046  -0.069
    1RG35   C4'    8   0.229   0.208   0.282
    1RG35   H4'    9  -0.063  -0.015  -0.007
    1RG35   O4'   10  -0.060  -0.013  -0.278
    1RG35   C1'   11  -0.024  -0.231   0.025
    1RG35   H1'   12   0.027   0.020   0.002
    1RG35    N9   13   0.032   0.142   0.171
    1RG35    C8   14  -0.019   0.061   0.080
    1RG35    H8   15  -0.060   0.027  -0.017
    1RG35    N7   16   0.105  -0.116  -0.088
    1RG35    C5   17  -0.007  -0.062  -0.090
    1RG35    C6   18  -0.033   0.012  -0.034
    1RG35    O6   19  -0.006   0.024   0.030
    1RG35    N1   20  -0.007  -0.005  -0.013
    1RG35    H1   21   0.006   0.001  -0.002
    1RG35    C2   22   0.046  -0.001   0.029
    1RG35    N2   23  -0.003   0.005  -0.006
    1RG35   H21   24  -0.021   0.019   0.010
    1RG35   H22   25  -0.003  -0.021  -0.022
    1RG35    N3   26   0.019  -0.001   0.008
    1RG35    C4   27  -0.071   0.043   0.005
    1RG35   C3'   28   0.044  -0.030   0.166
    1RG35   H3'   29  -0.013   0.008  -0.021
    1RG35   C2'   30  -0.042  -0.006  -0.166
    1RG35  H2'1   31   0.004   0.008   0.010
    1RG35   O2'   32   0.005  -0.001   0.041
    1RG35  HO'2   33  -0.008  -0.002  -0.004
    1RG35   O3'   34   0.035   0.004  -0.096
    1RG35   H3T   35  -0.031  -0.005   0.001
    1RG35   O3P   36  -0.050  -0.133   0.054
   0.00000   0.00000   0.00000
Gromacs Runs On Most of All Computer Systems in water t=   0.00000 step= 78
   36
    1RG35     P    1  -0.251  -0.122  -0.014
    1RG35   O1P    2   0.038   0.022   0.053
    1RG35   O2P    3   0.063  -0.027  -0.029
    1RG35   O5'    4   0.290   0.042  -0.031
    1RG35   C5'    5  -0.338  -0.078   0.048
    1RG35  H5'1    6   0.029   0.054  -0.052
    1RG35  H5'2    7   0.046   0.016   0.030
    1RG35   C4'    8   0.064  -0.141   0.172
    1RG35   H4'    9   0.033   0.006  -0.033
    1RG35   O4'   10   0.140   0.290  -0.118
    1RG35   C1'   11  -0.111  -0.509   0.120
    1RG35   H1'   12   0.005   0.050  -0.011
    1RG35    N9   13   0.045   0.138   0.130
    1RG35    C8   14  -0.021   0.069   0.105
    1RG35    H8   15  -0.053   0.023  -0.019
    1RG35    N7   16   0.096  -0.110  -0.083
    1RG35    C5   17   0.009  -0.055  -0.076
    1RG35    C6   18  -0.028  -0.001  -0.024
    1RG35    O6   19   0.001   0.023   0.035
    1RG35    N1   20  -0.004  -0.001  -0.006
    1RG35    H1   21   0.002   0.002   0.005
    1RG35    C2   22   0.076  -0.024   0.019
    1RG35    N2   23  -0.009  -0.007  -0.012
    1RG35   H21   24  -0.018   0.019   0.015
    1RG35   H22   25   0.004  -0.016  -0.016
    1RG35    N3   26  -0.001   0.009   0.008
    1RG35    C4   27  -0.084   0.052   0.025
    1RG35   C3'   28   0.051   0.220  -0.092
    1RG35   H3'   29  -0.019  -0.019   0.008
    1RG35   C2'   30  -0.041   0.001  -0.204
    1RG35  H2'1   31  -0.008   0.012  -0.000
    1RG35   O2'   32  -0.018   0.004   0.047
    1RG35  HO'2   33  -0.008   0.000  -0.010
    1RG35   O3'   34  -0.012  -0.007   0.037
    1RG35   H3T   35   0.007   0.002  -0.002
    1RG35   O3P   36   0.025   0.061  -0.026
   0.00000   0.00000   0.00000
Gromacs Runs On Most of All Computer Systems in water t=   0.00000 step= 79
   36
    1RG35     P    1  -0.035  -0.008  -0.012
    1RG35   O1P    2   0.003   0.004   0.010
    1RG35   O2P    3   0.009  -0.005  -0.009
    1RG35   O5'    4   0.044   0.004  -0.008
    1RG35   C5'    5  -0.065  -0.017   0.017
    1RG35  H5'1    6   0.006  -0.005   0.003
    1RG35  H5'2    7   0.009   0.003  -0.002
    1RG35   C4'    8  -0.006   0.045  -0.066
    1RG35   H4'    9   0.009  -0.012   0.000
    1RG35   O4'   10  -0.029  -0.035   0.042
    1RG35   C1'   11   0.035   0.050  -0.207
    1RG35   H1'   12   0.016  -0.013   0.038
    1RG35    N9   13  -0.004   0.023   0.049
    1RG35    C8   14   0.020   0.017   0.036
    1RG35    H8   15  -0.003  -0.004  -0.012
    1RG35    N7   16  -0.154   0.010  -0.107
    1RG35    C5   17   0.212  -0.043   0.103
    1RG35    C6   18  -0.009  -0.089  -0.152
    1RG35    O6   19   0.001   0.072   0.116
    1RG35    N1   20  -0.125  -0.079  -0.211
    1RG35    H1   21  -0.001   0.024   0.038
    1RG35    C2   22   0.288   0.024   0.251
    1RG35    N2   23   0.032  -0.001   0.004
    1RG35   H21   24  -0.104   0.086   0.055
    1RG35   H22   25  -0.014  -0.092  -0.107
    1RG35    N3   26  -0.200   0.022  -0.118
    1RG35    C4   27   0.044   0.055   0.106
    1RG35   C3'   28   0.214   0.171   0.244
    1RG35   H3'   29   0.019  -0.022  -0.033
    1RG35   C2'   30  -0.434  -0.141   0.172
    1RG35  H2'1   31   0.046  -0.005  -0.016
    1RG35   O2'   32   0.201  -0.018  -0.149
    1RG35  HO'2   33  -0.004   0.003   0.041
    1RG35   O3'   34   0.043  -0.025  -0.092
    1RG35   H3T   35  -0.065  -0.002  -0.023
    1RG35   O3P   36   0.000   0.004  -0.004
   0.00000   0.00000   0.00000
Gromacs Runs On Most of All Computer Systems in water t=   0.00000 step= 80
   36
    1RG35     P    1   0.036   0.016   0.009
    1RG35   O1P    2  -0.005  -0.002  -0.006
    1RG35   O2P    3  -0.004   0.004   0.002
    1RG35   O5'    4  -0.094  -0.000   0.012
    1RG35   C5'    5   0.182   0.049  -0.031
    1RG35  H5'1    6  -0.021  -0.003  -0.003
    1RG35  H5'2    7  -0.018  -0.002   0.011
    1RG35   C4'    8  -0.080  -0.065  -0.058
    1RG35   H4'    9  -0.005   0.010   0.013
    1RG35   O4'   10   0.072   0.088   0.068
    1RG35   C1'   11  -0.059  -0.140  -0.082
    1RG35   H1'   12  -0.032   0.024  -0.006
    1RG35    N9   13   0.078  -0.003   0.043
    1RG35    C8   14   0.008   0.033   0.057
    1RG35    H8   15  -0.022   0.000  -0.017
    1RG35    N7   16  -0.101  -0.013  -0.098
    1RG35    C5   17   0.149  -0.030   0.078
    1RG35    C6   18   0.046  -0.069  -0.072
    1RG35    O6   19  -0.004   0.051   0.079
    1RG35    N1   20  -0.145  -0.080  -0.233
    1RG35    H1   21  -0.009   0.037   0.049
    1RG35    C2   22   0.351  -0.052   0.193
    1RG35    N2   23   0.054  -0.007   0.000
    1RG35   H21   24  -0.136   0.109   0.062
    1RG35   H22   25  -0.013  -0.094  -0.113
    1RG35    N3   26  -0.207   0.086  -0.044
    1RG35    C4   27  -0.050   0.069   0.058
    1RG35   C3'   28  -0.225  -0.224  -0.236
    1RG35   H3'   29  -0.011   0.029   0.035
    1RG35   C2'   30   0.441   0.141   0.045
    1RG35  H2'1   31  -0.046   0.009  -0.006
    1RG35   O2'   32  -0.180   0.012   0.101
    1RG35  HO'2   33   0.021  -0.005  -0.031
    1RG35   O3'   34  -0.020   0.021   0.094
    1RG35   H3T   35   0.054   0.004   0.026
    1RG35   O3P   36  -0.004  -0.007   0.001
   0.00000   0.00000   0.00000
Gromacs Runs On Most of All Computer Systems in water t=   0.00000 step= 81
   36
    1RG35     P    1   0.023   0.008   0.008
    1RG35   O1P    2  -0.008  -0.001  -0.013
    1RG35   O2P    3  -0.010   0.007  -0.005
    1RG35   O5'    4  -0.043   0.003   0.002
    1RG35   C5'    5   0.090   0.013   0.008
    1RG35  H5'1    6  -0.020  -0.015   0.003
    1RG35  H5'2    7   0.010   0.023   0.028
    1RG35   C4'    8  -0.221   0.052  -0.491
    1RG35   H4'    9   0.042  -0.014   0.043
    1RG35   O4'   10   0.152   0.191   0.288
    1RG35   C1'   11  -0.069  -0.255  -0.245
    1RG35   H1'   12  -0.024   0.027   0.028
    1RG35    N9   13   0.064   0.054   0.112
    1RG35    C8   14  -0.021   0.119   0.155
    1RG35    H8   15  -0.070   0.021  -0.031
    1RG35    N7   16   0.149  -0.139  -0.087
    1RG35    C5   17  -0.079  -0.030  -0.108
    1RG35    C6   18  -0.019   0.032   0.027
    1RG35    O6   19  -0.005  -0.005  -0.019
    1RG35    N1   20   0.050   0.024   0.075
    1RG35    H1   21   0.000  -0.008  -0.013
    1RG35    C2   22  -0.108   0.012  -0.067
    1RG35    N2   23  -0.029  -0.000  -0.005
    1RG35   H21   24   0.045  -0.036  -0.017
    1RG35   H22   25   0.007   0.030   0.044
    1RG35    N3   26   0.098  -0.046   0.015
    1RG35    C4   27  -0.094   0.067   0.025
    1RG35   C3'   28   0.053  -0.168   0.381
    1RG35   H3'   29  -0.019   0.022  -0.033
    1RG35   C2'   30   0.049   0.024   0.064
    1RG35  H2'1   31  -0.002   0.009  -0.016
    1RG35   O2'   32  -0.010   0.001   0.006
    1RG35  HO'2   33   0.013  -0.003   0.000
    1RG35   O3'   34   0.073  -0.018  -0.166
    1RG35   H3T   35  -0.058  -0.001   0.007
    1RG35   O3P   36  -0.010  -0.000  -0.003
   0.00000   0.00000   0.00000
Gromacs Runs On Most of All Computer Systems in water t=   0.00000 step= 82
   36
    1RG35     P    1  -0.019  -0.014  -0.001
    1RG35   O1P    2  -0.001   0.003   0.005
    1RG35   O2P    3   0.002  -0.000  -0.005
    1RG35   O5'    4   0.041   0.002  -0.011
    1RG35   C5'    5  -0.079  -0.011   0.027
    1RG35  H5'1    6   0.005  -0.020   0.011
    1RG35  H5'2    7   0.010   0.002  -0.004
    1RG35   C4'    8  -0.030   0.148  -0.209
    1RG35   H4'    9   0.007  -0.019   0.021
    1RG35   O4'   10   0.037   0.049   0.018
    1RG35   C1'   11  -0.007  -0.004   0.470
    1RG35   H1'   12   0.016  -0.006  -0.051
    1RG35    N9   13  -0.069  -0.033  -0.120
    1RG35    C8   14   0.009  -0.132  -0.182
    1RG35    H8   15   0.078  -0.019   0.033
    1RG35    N7   16  -0.146   0.149   0.093
    1RG35    C5   17   0.046   0.052   0.109
    1RG35    C6   18   0.063  -0.033  -0.001
    1RG35    O6   19  -0.003   0.007  -0.000
    1RG35    N1   20  -0.070  -0.041  -0.119
    1RG35    H1   21   0.003   0.011   0.016
    1RG35    C2   22   0.070   0.033   0.100
    1RG35    N2   23   0.028  -0.003   0.008
    1RG35   H21   24  -0.034   0.026   0.015
    1RG35   H22   25  -0.005  -0.029  -0.033
    1RG35    N3   26  -0.052   0.015  -0.019
    1RG35    C4   27   0.081  -0.072  -0.039
    1RG35   C3'   28   0.077  -0.107   0.384
    1RG35   H3'   29  -0.037   0.011  -0.037
    1RG35   C2'   30   0.087   0.020  -0.492
    1RG35  H2'1   31  -0.004  -0.001   0.054
    1RG35   O2'   32  -0.102   0.014   0.138
    1RG35  HO'2   33  -0.009  -0.001  -0.018
    1RG35   O3'   34   0.072  -0.006  -0.155
    1RG35   H3T   35  -0.062  -0.002  -0.000
    1RG35   O3P   36  -0.004   0.011  -0.005
   0.00000   0.00000   0.00000
Gromacs Runs On Most of All Computer Systems in water t=   0.00000 step= 83
   36
    1RG35     P    1  -0.098  -0.033  -0.015
    1RG35   O1P    2   0.019   0.005   0.022
    1RG35   O2P    3   0.023  -0.017  -0.008
    1RG35   O5'    4   0.236  -0.003  -0.042
    1RG35   C5'    5  -0.489  -0.117   0.092
    1RG35  H5'1    6   0.054  -0.033   0.025
    1RG35  H5'2    7   0.036  -0.012  -0.051
    1RG35   C4'    8   0.291   0.528  -0.032
    1RG35   H4'    9  -0.003  -0.046  -0.009
    1RG35   O4'   10  -0.106  -0.166  -0.023
    1RG35   C1'   11   0.019   0.102  -0.176
    1RG35   H1'   12  -0.008   0.001   0.012
    1RG35    N9   13   0.029  -0.020   0.018
    1RG35    C8   14  -0.005   0.053   0.068
    1RG35    H8   15  -0.021   0.000  -0.012
    1RG35    N7   16   0.027  -0.045  -0.039
    1RG35    C5   17  -0.001  -0.006  -0.010
    1RG35    C6   18  -0.012   0.033   0.048
    1RG35    O6   19   0.004  -0.021  -0.027
    1RG35    N1   20   0.002   0.008   0.014
    1RG35    H1   21  -0.009   0.007   0.008
    1RG35    C2   22   0.069  -0.083  -0.059
    1RG35    N2   23   0.012  -0.006  -0.002
    1RG35   H21   24  -0.019   0.014   0.007
    1RG35   H22   25  -0.002  -0.001  -0.004
    1RG35    N3   26  -0.059   0.065   0.041
    1RG35    C4   27  -0.011  -0.003  -0.013
    1RG35   C3'   28  -0.118  -0.317   0.063
    1RG35   H3'   29   0.007   0.024  -0.009
    1RG35   C2'   30   0.156   0.050   0.132
    1RG35  H2'1   31  -0.009   0.005  -0.005
    1RG35   O2'   32  -0.039  -0.000   0.005
    1RG35  HO'2   33   0.005   0.001  -0.004
    1RG35   O3'   34   0.003   0.021  -0.018
    1RG35   H3T   35   0.000   0.001   0.007
    1RG35   O3P   36   0.018   0.009  -0.002
   0.00000   0.00000   0.00000
Gromacs Runs On Most of All Computer Systems in water t=   0.00000 step= 84
   36
    1RG35     P    1  -0.011   0.006  -0.013
    1RG35   O1P    2   0.006  -0.002   0.005
    1RG35   O2P    3   0.004  -0.005   0.002
    1RG35   O5'    4   0.028  -0.002  -0.002
    1RG35   C5'    5  -0.057  -0.011   0.009
    1RG35  H5'1    6   0.010  -0.006   0.008
    1RG35  H5'2    7   0.005  -0.004  -0.012
    1RG35   C4'    8   0.047   0.074   0.006
    1RG35   H4'    9  -0.000  -0.007  -0.001
    1RG35   O4'   10   0.001   0.009   0.002
    1RG35   C1'   11   0.004  -0.085  -0.065
    1RG35   H1'   12   0.019   0.002  -0.003
    1RG35    N9   13  -0.232   0.149   0.023
    1RG35    C8   14   0.028  -0.042  -0.036
    1RG35    H8   15   0.047  -0.015   0.017
    1RG35    N7   16  -0.108   0.050  -0.014
    1RG35    C5   17   0.172  -0.093   0.013
    1RG35    C6   18  -0.209  -0.084  -0.318
    1RG35    O6   19   0.017   0.101   0.185
    1RG35    N1   20   0.054   0.002   0.063
    1RG35    H1   21   0.086  -0.079  -0.055
    1RG35    C2   22  -0.317   0.370   0.256
    1RG35    N2   23  -0.068   0.024   0.001
    1RG35   H21   24   0.119  -0.083  -0.040
    1RG35   H22   25  -0.012   0.016   0.009
    1RG35    N3   26   0.146  -0.281  -0.256
    1RG35    C4   27   0.212   0.019   0.182
    1RG35   C3'   28  -0.075  -0.096  -0.065
    1RG35   H3'   29  -0.003   0.013   0.014
    1RG35   C2'   30   0.128   0.044   0.032
    1RG35  H2'1   31  -0.018   0.011  -0.003
    1RG35   O2'   32  -0.048   0.003   0.024
    1RG35  HO'2   33   0.007  -0.001  -0.006
    1RG35   O3'   34  -0.018   0.008   0.019
    1RG35   H3T   35   0.030   0.001   0.013
    1RG35   O3P   36   0.005  -0.006   0.005
   0.00000   0.00000   0.00000
Gromacs Runs On Most of All Computer Systems in water t=   0.00000 step= 85
   36
    1RG35     P    1   0.193  -0.453   0.605
    1RG35   O1P    2  -0.066   0.028  -0.301
    1RG35   O2P    3  -0.053   0.081  -0.060
    1RG35   O5'    4  -0.009   0.045  -0.034
    1RG35   C5'    5   0.005   0.004   0.003
    1RG35  H5'1    6  -0.000  -0.007   0.005
    1RG35  H5'2    7  -0.001  -0.003  -0.009
    1RG35   C4'    8  -0.003   0.002  -0.004
    1RG35   H4'    9   0.002  -0.002   0.002
    1RG35   O4'   10  -0.002  -0.003   0.002
    1RG35   C1'   11   0.004   0.006   0.015
    1RG35   H1'   12   0.005  -0.002  -0.002
    1RG35    N9   13  -0.042   0.004  -0.024
    1RG35    C8   14   0.018   0.003   0.014
    1RG35    H8   15   0.006  -0.004  -0.001
    1RG35    N7   16  -0.049   0.016  -0.015
    1RG35    C5   17   0.123  -0.071  -0.008
    1RG35    C6   18  -0.149   0.020  -0.094
    1RG35    O6   19   0.015   0.013   0.036
    1RG35    N1   20   0.074   0.050   0.135
    1RG35    H1   21  -0.013  -0.002  -0.010
    1RG35    C2   22   0.028  -0.112  -0.127
    1RG35    N2   23   0.021  -0.003   0.010
    1RG35   H21   24  -0.022   0.010   0.004
    1RG35   H22   25   0.001   0.005   0.009
    1RG35    N3   26  -0.088   0.061   0.015
    1RG35    C4   27   0.048   0.008   0.050
    1RG35   C3'   28   0.004  -0.001   0.010
    1RG35   H3'   29  -0.001   0.000  -0.001
    1RG35   C2'   30   0.004  -0.000  -0.014
    1RG35  H2'1   31   0.002  -0.001   0.002
    1RG35   O2'   32  -0.003   0.002   0.004
    1RG35  HO'2   33   0.003   0.000   0.001
    1RG35   O3'   34   0.006  -0.000  -0.003
    1RG35   H3T   35  -0.000   0.001  -0.001
    1RG35   O3P   36  -0.061   0.306  -0.218
   0.00000   0.00000   0.00000
Gromacs Runs On Most of All Computer Systems in water t=   0.00000 step= 86
   36
    1RG35     P    1   0.064  -0.169   0.244
    1RG35   O1P    2  -0.026   0.010  -0.121
    1RG35   O2P    3  -0.016   0.026  -0.026
    1RG35   O5'    4   0.023   0.013  -0.019
    1RG35   C5'    5  -0.066  -0.008   0.011
    1RG35  H5'1    6   0.009  -0.001  -0.002
    1RG35  H5'2    7   0.007  -0.001  -0.006
    1RG35   C4'    8   0.031   0.021   0.029
    1RG35   H4'    9   0.002  -0.003  -0.006
    1RG35   O4'   10  -0.013  -0.016  -0.011
    1RG35   C1'   11  -0.004   0.015  -0.052
    1RG35   H1'   12  -0.009   0.002   0.006
    1RG35    N9   13   0.093  -0.018   0.051
    1RG35    C8   14  -0.030   0.004  -0.019
    1RG35    H8   15  -0.023   0.011  -0.003
    1RG35    N7   16   0.111  -0.047   0.021
    1RG35    C5   17  -0.281   0.174   0.032
    1RG35    C6   18   0.362  -0.052   0.224
    1RG35    O6   19  -0.041  -0.029  -0.080
    1RG35    N1   20  -0.199  -0.128  -0.350
    1RG35    H1   21   0.037  -0.004   0.024
    1RG35    C2   22  -0.103   0.306   0.337
    1RG35    N2   23  -0.038   0.008  -0.009
    1RG35   H21   24   0.044  -0.022  -0.003
    1RG35   H22   25  -0.009  -0.020  -0.030
    1RG35    N3   26   0.229  -0.175  -0.055
    1RG35    C4   27  -0.123  -0.017  -0.123
    1RG35   C3'   28  -0.010   0.003  -0.037
    1RG35   H3'   29   0.004   0.000   0.004
    1RG35   C2'   30  -0.013  -0.007   0.054
    1RG35  H2'1   31   0.003  -0.000  -0.006
    1RG35   O2'   32   0.007   0.001  -0.014
    1RG35  HO'2   33   0.002  -0.001   0.002
    1RG35   O3'   34  -0.002   0.002   0.017
    1RG35   H3T   35  -0.000   0.001  -0.002
    1RG35   O3P   36  -0.023   0.121  -0.086
   0.00000   0.00000   0.00000
Gromacs Runs On Most of All Computer Systems in water t=   0.00000 step= 87
   36
    1RG35     P    1  -0.002   0.020   0.003
    1RG35   O1P    2  -0.000  -0.003  -0.003
    1RG35   O2P    3   0.005  -0.006  -0.004
    1RG35   O5'    4  -0.015  -0.002   0.003
    1RG35   C5'    5   0.028   0.003  -0.006
    1RG35  H5'1    6  -0.004   0.003  -0.001
    1RG35  H5'2    7  -0.004   0.000   0.003
    1RG35   C4'    8  -0.009  -0.028   0.014
    1RG35   H4'    9  -0.003   0.002   0.001
    1RG35   O4'   10  -0.004  -0.003  -0.011
    1RG35   C1'   11   0.017   0.056   0.132
    1RG35   H1'   12   0.011  -0.011  -0.015
    1RG35    N9   13  -0.283  -0.063  -0.309
    1RG35    C8   14   0.054   0.325   0.503
    1RG35    H8   15   0.002  -0.041  -0.056
    1RG35    N7   16  -0.017  -0.222  -0.331
    1RG35    C5   17   0.136   0.051   0.174
    1RG35    C6   18  -0.106   0.184   0.207
    1RG35    O6   19   0.033  -0.099  -0.134
    1RG35    N1   20  -0.051  -0.035  -0.092
    1RG35    H1   21   0.045  -0.019   0.005
    1RG35    C2   22  -0.025   0.052   0.054
    1RG35    N2   23  -0.049   0.008  -0.014
    1RG35   H21   24   0.041  -0.028  -0.011
    1RG35   H22   25   0.006   0.014   0.020
    1RG35    N3   26  -0.006  -0.008  -0.016
    1RG35    C4   27   0.198  -0.164  -0.079
    1RG35   C3'   28   0.006   0.020  -0.008
    1RG35   H3'   29   0.001  -0.002   0.002
    1RG35   C2'   30  -0.002  -0.000  -0.053
    1RG35  H2'1   31   0.001   0.001   0.008
    1RG35   O2'   32  -0.010   0.002   0.012
    1RG35  HO'2   33   0.001  -0.001  -0.002
    1RG35   O3'   34   0.006  -0.000   0.006
    1RG35   H3T   35  -0.004  -0.001  -0.002
    1RG35   O3P   36  -0.000  -0.006   0.002
   0.00000   0.00000   0.00000
Gromacs Runs On Most of All Computer Systems in water t=   0.00000 step= 88
   36
    1RG35     P    1   0.331  -0.570  -0.522
    1RG35   O1P    2   0.001   0.094   0.264
    1RG35   O2P    3  -0.255   0.254   0.201
    1RG35   O5'    4   0.000   0.082   0.043
    1RG35   C5'    5  -0.026   0.028   0.004
    1RG35  H5'1    6   0.012  -0.027   0.021
    1RG35  H5'2    7  -0.002  -0.016  -0.038
    1RG35   C4'    8  -0.000  -0.005   0.000
    1RG35   H4'    9   0.000   0.002  -0.001
    1RG35   O4'   10   0.001   0.002  -0.002
    1RG35   C1'   11  -0.000  -0.003  -0.001
    1RG35   H1'   12   0.000  -0.000  -0.000
    1RG35    N9   13  -0.003   0.000   0.001
    1RG35    C8   14   0.003   0.009   0.012
    1RG35    H8   15  -0.003  -0.000  -0.002
    1RG35    N7   16  -0.004  -0.010  -0.013
    1RG35    C5   17   0.010  -0.001   0.009
    1RG35    C6   18   0.004   0.000   0.008
    1RG35    O6   19  -0.003  -0.004  -0.002
    1RG35    N1   20  -0.013   0.000  -0.004
    1RG35    H1   21   0.004  -0.005   0.002
    1RG35    C2   22  -0.007   0.003   0.005
    1RG35    N2   23  -0.001   0.003   0.010
    1RG35   H21   24  -0.002  -0.001   0.004
    1RG35   H22   25  -0.001  -0.005  -0.003
    1RG35    N3   26   0.010  -0.005   0.004
    1RG35    C4   27  -0.010  -0.001  -0.007
    1RG35   C3'   28   0.000  -0.001  -0.000
    1RG35   H3'   29   0.001   0.001  -0.001
    1RG35   C2'   30   0.001   0.003   0.003
    1RG35  H2'1   31  -0.000   0.002  -0.000
    1RG35   O2'   32   0.003   0.002   0.002
    1RG35  HO'2   33  -0.001   0.002   0.000
    1RG35   O3'   34  -0.017   0.003  -0.006
    1RG35   H3T   35   0.018   0.002   0.004
    1RG35   O3P   36  -0.052   0.160   0.005
   0.00000   0.00000   0.00000
Gromacs Runs On Most of All Computer Systems in water t=   0.00000 step= 89
   36
    1RG35     P    1  -0.007   0.003  -0.004
    1RG35   O1P    2   0.000   0.001   0.003
    1RG35   O2P    3   0.001  -0.001   0.000
    1RG35   O5'    4   0.009  -0.001  -0.002
    1RG35   C5'    5  -0.023  -0.002   0.005
    1RG35  H5'1    6   0.004  -0.002   0.004
    1RG35  H5'2    7   0.000  -0.001  -0.007
    1RG35   C4'    8   0.012   0.013   0.011
    1RG35   H4'    9  -0.002  -0.003  -0.002
    1RG35   O4'   10  -0.016  -0.032  -0.022
    1RG35   C1'   11  -0.001   0.155   0.195
    1RG35   H1'   12  -0.030  -0.000  -0.013
    1RG35    N9   13   0.240  -0.377  -0.337
    1RG35    C8   14   0.001   0.163   0.232
    1RG35    H8   15  -0.056   0.007  -0.034
    1RG35    N7   16   0.101  -0.108  -0.075
    1RG35    C5   17  -0.099   0.044  -0.005
    1RG35    C6   18   0.078  -0.260  -0.351
    1RG35    O6   19  -0.030   0.134   0.191
    1RG35    N1   20   0.058   0.036   0.101
    1RG35    H1   21  -0.028   0.010  -0.007
    1RG35    C2   22  -0.017   0.020   0.010
    1RG35    N2   23   0.020  -0.003   0.006
    1RG35   H21   24  -0.016   0.012   0.005
    1RG35   H22   25  -0.001  -0.010  -0.013
    1RG35    N3   26   0.104  -0.079  -0.027
    1RG35    C4   27  -0.295   0.289   0.179
    1RG35   C3'   28   0.010   0.005   0.012
    1RG35   H3'   29  -0.003  -0.001  -0.001
    1RG35   C2'   30  -0.006  -0.008  -0.069
    1RG35  H2'1   31   0.003  -0.004   0.010
    1RG35   O2'   32  -0.009   0.003   0.006
    1RG35  HO'2   33  -0.001  -0.000  -0.000
    1RG35   O3'   34  -0.004   0.000  -0.003
    1RG35   H3T   35   0.001   0.000  -0.001
    1RG35   O3P   36   0.001  -0.003   0.002
   0.00000   0.00000   0.00000
Gromacs Runs On Most of All Computer Systems in water t=   0.00000 step= 90
   36
    1RG35     P    1  -0.009   0.014   0.004
    1RG35   O1P    2   0.000  -0.002  -0.002
    1RG35   O2P    3   0.005  -0.006  -0.001
    1RG35   O5'    4   0.008  -0.002  -0.000
    1RG35   C5'    5  -0.014   0.002   0.003
    1RG35  H5'1    6   0.004  -0.002   0.002
    1RG35  H5'2    7   0.001  -0.001  -0.004
    1RG35   C4'    8   0.005   0.003   0.001
    1RG35   H4'    9   0.000  -0.000  -0.001
    1RG35   O4'   10  -0.002  -0.005  -0.003
    1RG35   C1'   11  -0.007   0.028   0.015
    1RG35   H1'   12  -0.021   0.007   0.000
    1RG35    N9   13   0.224  -0.114   0.016
    1RG35    C8   14   0.042  -0.051  -0.040
    1RG35    H8   15  -0.021   0.008  -0.003
    1RG35    N7   16  -0.174   0.100   0.009
    1RG35    C5   17   0.491  -0.198   0.092
    1RG35    C6   18  -0.266   0.244   0.166
    1RG35    O6   19   0.052  -0.082  -0.087
    1RG35    N1   20  -0.044  -0.010  -0.046
    1RG35    H1   21   0.083  -0.047  -0.010
    1RG35    C2   22  -0.087   0.089   0.049
    1RG35    N2   23   0.002   0.008   0.008
    1RG35   H21   24   0.004  -0.001  -0.001
    1RG35   H22   25  -0.005  -0.011  -0.019
    1RG35    N3   26   0.247  -0.091   0.065
    1RG35    C4   27  -0.506   0.128  -0.207
    1RG35   C3'   28   0.003   0.005   0.009
    1RG35   H3'   29  -0.001  -0.001  -0.002
    1RG35   C2'   30  -0.010  -0.004  -0.005
    1RG35  H2'1   31   0.001  -0.003  -0.000
    1RG35   O2'   32   0.001   0.002  -0.002
    1RG35  HO'2   33  -0.002   0.000  -0.002
    1RG35   O3'   34  -0.038  -0.002  -0.016
    1RG35   H3T   35   0.031   0.001   0.008
    1RG35   O3P   36   0.003  -0.007   0.005
   0.00000   0.00000   0.00000
Gromacs Runs On Most of All Computer Systems in water t=   0.00000 step= 91
   36
    1RG35     P    1  -0.004   0.007   0.001
    1RG35   O1P    2   0.004  -0.001   0.001
    1RG35   O2P    3   0.007  -0.008  -0.006
    1RG35   O5'    4   0.005  -0.003  -0.002
    1RG35   C5'    5   0.001  -0.000   0.001
    1RG35  H5'1    6   0.003   0.001   0.002
    1RG35  H5'2    7   0.003   0.001   0.002
    1RG35   C4'    8  -0.005   0.002  -0.002
    1RG35   H4'    9   0.006   0.001   0.002
    1RG35   O4'   10   0.005   0.007   0.009
    1RG35   C1'   11  -0.005  -0.044  -0.063
    1RG35   H1'   12   0.002   0.003   0.005
    1RG35    N9   13  -0.041   0.121   0.136
    1RG35    C8   14   0.035   0.001   0.029
    1RG35    H8   15  -0.009   0.002  -0.004
    1RG35    N7   16  -0.029  -0.060  -0.109
    1RG35    C5   17   0.015   0.294   0.438
    1RG35    C6   18   0.020  -0.202  -0.291
    1RG35    O6   19  -0.005   0.068   0.104
    1RG35    N1   20   0.053   0.045   0.110
    1RG35    H1   21  -0.019  -0.002  -0.014
    1RG35    C2   22  -0.158   0.002  -0.104
    1RG35    N2   23   0.259  -0.025   0.110
    1RG35   H21   24  -0.159   0.113   0.055
    1RG35   H22   25  -0.032  -0.085  -0.114
    1RG35    N3   26   0.127   0.033   0.142
    1RG35    C4   27  -0.103  -0.268  -0.452
    1RG35   C3'   28   0.006  -0.004  -0.001
    1RG35   H3'   29   0.001  -0.000   0.000
    1RG35   C2'   30   0.004  -0.000   0.019
    1RG35  H2'1   31   0.001   0.002  -0.003
    1RG35   O2'   32   0.004   0.001   0.002
    1RG35  HO'2   33   0.003   0.000   0.000
    1RG35   O3'   34  -0.007  -0.002  -0.004
    1RG35   H3T   35   0.014  -0.000   0.003
    1RG35   O3P   36   0.001  -0.004  -0.000
   0.00000   0.00000   0.00000
Gromacs Runs On Most of All Computer Systems in water t=   0.00000 step= 92
   36
    1RG35     P    1   0.013  -0.004   0.004
    1RG35   O1P    2  -0.001  -0.001  -0.009
    1RG35   O2P    3  -0.005   0.007   0.003
    1RG35   O5'    4  -0.006   0.002   0.004
    1RG35   C5'    5   0.005  -0.017  -0.005
    1RG35  H5'1    6  -0.004   0.007  -0.006
    1RG35  H5'2    7   0.002   0.003   0.011
    1RG35   C4'    8   0.006   0.004  -0.002
    1RG35   H4'    9  -0.002  -0.002   0.001
    1RG35   O4'   10  -0.000  -0.000   0.003
    1RG35   C1'   11  -0.006  -0.005  -0.016
    1RG35   H1'   12  -0.005   0.002   0.003
    1RG35    N9   13   0.044   0.026   0.069
    1RG35    C8   14   0.006  -0.017  -0.022
    1RG35    H8   15  -0.003  -0.000  -0.003
    1RG35    N7   16  -0.041  -0.002  -0.033
    1RG35    C5   17   0.041   0.124   0.210
    1RG35    C6   18  -0.000  -0.105  -0.172
    1RG35    O6   19  -0.003   0.043   0.069
    1RG35    N1   20   0.024   0.000   0.022
    1RG35    H1   21  -0.047   0.035   0.015
    1RG35    C2   22   0.267  -0.078   0.075
    1RG35    N2   23  -0.588   0.071  -0.228
    1RG35   H21   24   0.341  -0.253  -0.128
    1RG35   H22   25   0.067   0.202   0.271
    1RG35    N3   26  -0.009   0.058   0.068
    1RG35    C4   27  -0.099  -0.095  -0.207
    1RG35   C3'   28  -0.005  -0.005  -0.004
    1RG35   H3'   29   0.001   0.001   0.000
    1RG35   C2'   30   0.008   0.003  -0.003
    1RG35  H2'1   31  -0.000  -0.002   0.001
    1RG35   O2'   32  -0.002  -0.000   0.001
    1RG35  HO'2   33   0.001   0.000   0.001
    1RG35   O3'   34   0.039   0.003   0.014
    1RG35   H3T   35  -0.036  -0.002  -0.009
    1RG35   O3P   36  -0.001   0.001   0.000
   0.00000   0.00000   0.00000
Gromacs Runs On Most of All Computer Systems in water t=   0.00000 step= 93
   36
    1RG35     P    1  -0.002  -0.006  -0.021
    1RG35   O1P    2  -0.008   0.002   0.019
    1RG35   O2P    3  -0.007   0.005  -0.009
    1RG35   O5'    4   0.001  -0.001  -0.003
    1RG35   C5'    5  -0.012   0.026   0.007
    1RG35  H5'1    6  -0.003  -0.013   0.010
    1RG35  H5'2    7  -0.004  -0.008  -0.016
    1RG35   C4'    8  -0.002  -0.013   0.017
    1RG35   H4'    9   0.001  -0.003   0.001
    1RG35   O4'   10  -0.006  -0.009  -0.004
    1RG35   C1'   11   0.004   0.008  -0.002
    1RG35   H1'   12  -0.003  -0.004   0.005
    1RG35    N9   13   0.013  -0.003   0.004
    1RG35    C8   14  -0.011   0.002  -0.010
    1RG35    H8   15   0.003   0.002  -0.003
    1RG35    N7   16  -0.006   0.006  -0.006
    1RG35    C5   17   0.022  -0.012  -0.008
    1RG35    C6   18  -0.025   0.017   0.002
    1RG35    O6   19   0.002   0.001  -0.012
    1RG35    N1   20   0.014  -0.002   0.006
    1RG35    H1   21   0.003  -0.001  -0.002
    1RG35    C2   22  -0.032   0.011  -0.001
    1RG35    N2   23   0.038  -0.002   0.026
    1RG35   H21   24  -0.011   0.006   0.009
    1RG35   H22   25  -0.003  -0.019  -0.012
    1RG35    N3   26   0.024  -0.014   0.001
    1RG35    C4   27  -0.022   0.009  -0.001
    1RG35   C3'   28  -0.028  -0.008  -0.101
    1RG35   H3'   29   0.004   0.001   0.018
    1RG35   C2'   30   0.022   0.005   0.005
    1RG35  H2'1   31   0.006  -0.000   0.001
    1RG35   O2'   32  -0.014  -0.005  -0.002
    1RG35  HO'2   33   0.014  -0.002   0.011
    1RG35   O3'   34   0.686   0.041   0.241
    1RG35   H3T   35  -0.647  -0.029  -0.161
    1RG35   O3P   36  -0.013   0.012  -0.012
   0.00000   0.00000   0.00000
Gromacs Runs On Most of All Computer Systems in water t=   0.00000 step= 94
   36
    1RG35     P    1  -0.031   0.031   0.025
    1RG35   O1P    2   0.002  -0.003   0.000
    1RG35   O2P    3   0.011  -0.013  -0.007
    1RG35   O5'    4   0.102  -0.109  -0.053
    1RG35   C5'    5  -0.125   0.707   0.169
    1RG35  H5'1    6   0.121  -0.341   0.278
    1RG35  H5'2    7  -0.039  -0.200  -0.394
    1RG35   C4'    8  -0.053  -0.097  -0.004
    1RG35   H4'    9   0.013   0.009  -0.000
    1RG35   O4'   10   0.006   0.009   0.004
    1RG35   C1'   11  -0.006  -0.006  -0.008
    1RG35   H1'   12   0.002   0.001   0.001
    1RG35    N9   13   0.001   0.004   0.009
    1RG35    C8   14  -0.025   0.016  -0.001
    1RG35    H8   15   0.014  -0.008   0.001
    1RG35    N7   16  -0.000  -0.006  -0.007
    1RG35    C5   17  -0.003   0.001   0.001
    1RG35    C6   18   0.002  -0.003  -0.003
    1RG35    O6   19  -0.001  -0.000  -0.003
    1RG35    N1   20   0.004  -0.002  -0.000
    1RG35    H1   21  -0.004   0.004  -0.001
    1RG35    C2   22   0.007  -0.012  -0.011
    1RG35    N2   23  -0.031   0.047   0.038
    1RG35   H21   24   0.030  -0.024  -0.017
    1RG35   H22   25  -0.003  -0.015  -0.022
    1RG35    N3   26  -0.002   0.009   0.008
    1RG35    C4   27   0.003  -0.002  -0.004
    1RG35   C3'   28   0.005   0.008   0.001
    1RG35   H3'   29  -0.003  -0.000  -0.001
    1RG35   C2'   30   0.003  -0.003   0.003
    1RG35  H2'1   31  -0.001   0.000   0.000
    1RG35   O2'   32  -0.001   0.000   0.002
    1RG35  HO'2   33  -0.001  -0.000  -0.003
    1RG35   O3'   34  -0.025  -0.002  -0.008
    1RG35   H3T   35   0.024  -0.000   0.006
    1RG35   O3P   36   0.003  -0.002  -0.000
   0.00000   0.00000   0.00000
Gromacs Runs On Most of All Computer Systems in water t=   0.00000 step= 95
   36
    1RG35     P    1   0.003   0.001   0.002
    1RG35   O1P    2  -0.006   0.004   0.000
    1RG35   O2P    3  -0.005   0.010   0.006
    1RG35   O5'    4   0.002  -0.010  -0.005
    1RG35   C5'    5  -0.014   0.056   0.015
    1RG35  H5'1    6   0.008  -0.028   0.022
    1RG35  H5'2    7  -0.008  -0.016  -0.035
    1RG35   C4'    8  -0.002  -0.009  -0.002
    1RG35   H4'    9  -0.002  -0.000  -0.004
    1RG35   O4'   10  -0.000  -0.001  -0.000
    1RG35   C1'   11   0.006  -0.001  -0.003
    1RG35   H1'   12  -0.005   0.001  -0.003
    1RG35    N9   13   0.002   0.003   0.006
    1RG35    C8   14  -0.030   0.013  -0.004
    1RG35    H8   15   0.025  -0.011   0.005
    1RG35    N7   16  -0.003   0.002   0.001
    1RG35    C5   17   0.015   0.002   0.015
    1RG35    C6   18  -0.002   0.003  -0.001
    1RG35    O6   19   0.006   0.002   0.006
    1RG35    N1   20   0.013   0.008   0.014
    1RG35    H1   21   0.020  -0.009  -0.002
    1RG35    C2   22  -0.008   0.062   0.067
    1RG35    N2   23   0.196  -0.547  -0.550
    1RG35   H21   24  -0.221   0.191   0.114
    1RG35   H22   25   0.044   0.309   0.379
    1RG35    N3   26   0.005  -0.026  -0.027
    1RG35    C4   27   0.001  -0.004  -0.008
    1RG35   C3'   28  -0.007   0.003  -0.001
    1RG35   H3'   29  -0.001  -0.001   0.000
    1RG35   C2'   30  -0.004   0.003   0.003
    1RG35  H2'1   31  -0.003  -0.001   0.000
    1RG35   O2'   32   0.001  -0.002  -0.004
    1RG35  HO'2   33  -0.006  -0.001  -0.004
    1RG35   O3'   34  -0.002  -0.000  -0.001
    1RG35   H3T   35  -0.011  -0.001  -0.003
    1RG35   O3P   36   0.001  -0.002   0.005
   0.00000   0.00000   0.00000
Gromacs Runs On Most of All Computer Systems in water t=   0.00000 step= 96
   36
    1RG35     P    1  -0.000  -0.006  -0.003
    1RG35   O1P    2  -0.003   0.002   0.003
    1RG35   O2P    3  -0.005   0.005   0.004
    1RG35   O5'    4   0.000   0.000  -0.001
    1RG35   C5'    5  -0.005  -0.004  -0.003
    1RG35  H5'1    6  -0.002   0.001  -0.002
    1RG35  H5'2    7  -0.004   0.002   0.001
    1RG35   C4'    8  -0.000   0.003   0.004
    1RG35   H4'    9  -0.001  -0.002  -0.004
    1RG35   O4'   10  -0.001   0.000  -0.007
    1RG35   C1'   11  -0.001  -0.000   0.000
    1RG35   H1'   12  -0.001  -0.001  -0.001
    1RG35    N9   13   0.006  -0.002  -0.000
    1RG35    C8   14  -0.024   0.011  -0.001
    1RG35    H8   15   0.020  -0.009   0.005
    1RG35    N7   16  -0.002   0.004   0.002
    1RG35    C5   17   0.016  -0.005   0.004
    1RG35    C6   18  -0.078   0.048   0.013
    1RG35    O6   19   0.024  -0.011  -0.001
    1RG35    N1   20   0.601  -0.430  -0.200
    1RG35    H1   21  -0.492   0.349   0.165
    1RG35    C2   22  -0.061   0.060   0.037
    1RG35    N2   23   0.030  -0.009   0.003
    1RG35   H21   24   0.003   0.002   0.002
    1RG35   H22   25   0.000  -0.009  -0.010
    1RG35    N3   26   0.014  -0.005   0.001
    1RG35    C4   27  -0.013   0.002  -0.004
    1RG35   C3'   28  -0.003  -0.002  -0.003
    1RG35   H3'   29  -0.003   0.002  -0.001
    1RG35   C2'   30   0.004  -0.005  -0.002
    1RG35  H2'1   31  -0.004   0.005  -0.000
    1RG35   O2'   32  -0.006  -0.001  -0.003
    1RG35  HO'2   33  -0.002  -0.000   0.001
    1RG35   O3'   34  -0.015   0.000  -0.002
    1RG35   H3T   35   0.007   0.001   0.002
    1RG35   O3P   36  -0.002   0.001   0.001
   0.00000   0.00000   0.00000
Gromacs Runs On Most of All Computer Systems in water t=   0.00000 step= 97
   36
    1RG35     P    1  -0.002  -0.001  -0.002
    1RG35   O1P    2   0.005  -0.001   0.002
    1RG35   O2P    3   0.004  -0.002  -0.003
    1RG35   O5'    4   0.011  -0.004  -0.003
    1RG35   C5'    5  -0.003   0.024   0.008
    1RG35  H5'1    6   0.008  -0.014   0.014
    1RG35  H5'2    7   0.001  -0.008  -0.013
    1RG35   C4'    8  -0.000  -0.001  -0.000
    1RG35   H4'    9   0.005  -0.001   0.002
    1RG35   O4'   10  -0.003  -0.002   0.007
    1RG35   C1'   11   0.012   0.000   0.007
    1RG35   H1'   12  -0.002   0.003   0.001
    1RG35    N9   13  -0.077   0.007  -0.050
    1RG35    C8   14   0.687  -0.311   0.109
    1RG35    H8   15  -0.567   0.267  -0.075
    1RG35    N7   16   0.010   0.021   0.038
    1RG35    C5   17  -0.045   0.010  -0.022
    1RG35    C6   18  -0.000   0.003   0.008
    1RG35    O6   19  -0.001  -0.005  -0.006
    1RG35    N1   20   0.007  -0.017  -0.019
    1RG35    H1   21  -0.029   0.015   0.003
    1RG35    C2   22  -0.004   0.006   0.005
    1RG35    N2   23  -0.007  -0.021  -0.026
    1RG35   H21   24  -0.014   0.010   0.006
    1RG35   H22   25  -0.002   0.016   0.018
    1RG35    N3   26  -0.020   0.003  -0.010
    1RG35    C4   27   0.006  -0.001   0.006
    1RG35   C3'   28   0.002  -0.001   0.001
    1RG35   H3'   29   0.002  -0.001   0.001
    1RG35   C2'   30   0.003   0.006  -0.004
    1RG35  H2'1   31   0.003  -0.005   0.001
    1RG35   O2'   32   0.002   0.001   0.005
    1RG35  HO'2   33   0.003   0.000  -0.001
    1RG35   O3'   34   0.013  -0.000   0.003
    1RG35   H3T   35  -0.004  -0.002  -0.002
    1RG35   O3P   36   0.004  -0.004   0.002
   0.00000   0.00000   0.00000
Gromacs Runs On Most of All Computer Systems in water t=   0.00000 step= 98
   36
    1RG35     P    1  -0.000  -0.001   0.004
    1RG35   O1P    2   0.000  -0.000  -0.002
    1RG35   O2P    3   0.002  -0.000   0.001
    1RG35   O5'    4   0.000  -0.000   0.004
    1RG35   C5'    5  -0.166   0.140  -0.725
    1RG35  H5'1    6   0.123  -0.327   0.295
    1RG35  H5'2    7   0.044   0.189   0.422
    1RG35   C4'    8   0.006  -0.005  -0.001
    1RG35   H4'    9  -0.007   0.004   0.003
    1RG35   O4'   10   0.002   0.001   0.001
    1RG35   C1'   11   0.025  -0.003   0.001
    1RG35   H1'   12  -0.025   0.006  -0.001
    1RG35    N9   13   0.000   0.000   0.001
    1RG35    C8   14  -0.001   0.000   0.000
    1RG35    H8   15  -0.000  -0.000   0.001
    1RG35    N7   16  -0.001  -0.001  -0.002
    1RG35    C5   17  -0.000  -0.001  -0.000
    1RG35    C6   18   0.001  -0.000   0.001
    1RG35    O6   19  -0.000  -0.001  -0.000
    1RG35    N1   20  -0.001   0.002   0.002
    1RG35    H1   21   0.001  -0.000  -0.001
    1RG35    C2   22   0.001   0.000  -0.000
    1RG35    N2   23   0.001  -0.000  -0.002
    1RG35   H21   24  -0.001   0.002  -0.000
    1RG35   H22   25   0.000   0.001  -0.001
    1RG35    N3   26   0.000   0.001   0.001
    1RG35    C4   27   0.001   0.001   0.001
    1RG35   C3'   28  -0.008   0.003   0.002
    1RG35   H3'   29   0.005  -0.002  -0.002
    1RG35   C2'   30  -0.003   0.001  -0.001
    1RG35  H2'1   31  -0.001  -0.000  -0.001
    1RG35   O2'   32   0.000   0.001  -0.001
    1RG35  HO'2   33  -0.003   0.001  -0.001
    1RG35   O3'   34  -0.001   0.000   0.000
    1RG35   H3T   35  -0.003   0.000  -0.001
    1RG35   O3P   36   0.001   0.000   0.000
   0.00000   0.00000   0.00000
Gromacs Runs On Most of All Computer Systems in water t=   0.00000 step= 99
   36
    1RG35     P    1  -0.005   0.002  -0.001
    1RG35   O1P    2  -0.005   0.002  -0.003
    1RG35   O2P    3  -0.003   0.004  -0.002
    1RG35   O5'    4  -0.002   0.001  -0.002
    1RG35   C5'    5  -0.003   0.002   0.006
    1RG35  H5'1    6  -0.004   0.001  -0.004
    1RG35  H5'2    7  -0.005  -0.002  -0.008
    1RG35   C4'    8   0.037  -0.023  -0.022
    1RG35   H4'    9  -0.039   0.019   0.018
    1RG35   O4'   10  -0.003  -0.003   0.002
    1RG35   C1'   11   0.125  -0.032   0.007
    1RG35   H1'   12  -0.119   0.024  -0.004
    1RG35    N9   13  -0.001   0.000  -0.002
    1RG35    C8   14  -0.005   0.004  -0.000
    1RG35    H8   15   0.006  -0.001   0.001
    1RG35    N7   16   0.001   0.002   0.001
    1RG35    C5   17   0.003   0.002   0.003
    1RG35    C6   18   0.003  -0.001  -0.000
    1RG35    O6   19   0.003   0.003   0.005
    1RG35    N1   20   0.008  -0.004  -0.000
    1RG35    H1   21  -0.001   0.002   0.003
    1RG35    C2   22   0.003   0.000   0.002
    1RG35    N2   23   0.004   0.000   0.005
    1RG35   H21   24   0.005  -0.002   0.003
    1RG35   H22   25   0.003  -0.007  -0.003
    1RG35    N3   26   0.003  -0.005  -0.003
    1RG35    C4   27   0.003  -0.001   0.001
    1RG35   C3'   28  -0.091   0.027   0.028
    1RG35   H3'   29   0.078  -0.031  -0.029
    1RG35   C2'   30  -0.190   0.673  -0.005
    1RG35  H2'1   31   0.183  -0.650   0.013
    1RG35   O2'   32   0.016  -0.006  -0.006
    1RG35  HO'2   33  -0.001   0.000  -0.000
    1RG35   O3'   34  -0.001  -0.000  -0.004
    1RG35   H3T   35  -0.002   0.002  -0.000
    1RG35   O3P   36  -0.004   0.002  -0.003
   0.00000   0.00000   0.00000
Gromacs Runs On Most of All Computer Systems in water t=   0.00000 step= 100
   36
    1RG35     P    1   0.004  -0.001  -0.002
    1RG35   O1P    2   0.006  -0.001   0.001
    1RG35   O2P    3   0.003  -0.003  -0.001
    1RG35   O5'    4   0.002  -0.001   0.000
    1RG35   C5'    5   0.003   0.004  -0.027
    1RG35  H5'1    6   0.007  -0.010   0.011
    1RG35  H5'2    7   0.006   0.008   0.018
    1RG35   C4'    8  -0.290   0.162   0.165
    1RG35   H4'    9   0.288  -0.156  -0.155
    1RG35   O4'   10   0.009   0.008  -0.011
    1RG35   C1'   11  -0.579   0.116  -0.021
    1RG35   H1'   12   0.563  -0.116   0.025
    1RG35    N9   13   0.005  -0.004  -0.001
    1RG35    C8   14   0.003  -0.004  -0.001
    1RG35    H8   15  -0.004   0.000  -0.002
    1RG35    N7   16  -0.006  -0.002  -0.004
    1RG35    C5   17  -0.001  -0.003  -0.002
    1RG35    C6   18  -0.006  -0.000  -0.001
    1RG35    O6   19  -0.005  -0.004  -0.005
    1RG35    N1   20  -0.006  -0.001  -0.001
    1RG35    H1   21  -0.005  -0.001  -0.001
    1RG35    C2   22  -0.006   0.003   0.002
    1RG35    N2   23  -0.004  -0.003  -0.003
    1RG35   H21   24  -0.006   0.002   0.000
    1RG35   H22   25  -0.004   0.007   0.006
    1RG35    N3   26  -0.000   0.001   0.002
    1RG35    C4   27  -0.004   0.002   0.001
    1RG35   C3'   28   0.061  -0.031  -0.022
    1RG35   H3'   29  -0.053   0.024   0.021
    1RG35   C2'   30  -0.035   0.137   0.003
    1RG35  H2'1   31   0.038  -0.136   0.004
    1RG35   O2'   32   0.002   0.001  -0.002
    1RG35  HO'2   33   0.001   0.001   0.002
    1RG35   O3'   34   0.002   0.001   0.003
    1RG35   H3T   35   0.004  -0.000   0.000
    1RG35   O3P   36   0.003  -0.002   0.000
   0.00000   0.00000   0.00000
Gromacs Runs On Most of All Computer Systems in water t=   0.00000 step= 101
   36
    1RG35     P    1   0.001   0.000  -0.003
    1RG35   O1P    2   0.000  -0.000  -0.000
    1RG35   O2P    3  -0.001   0.000  -0.002
    1RG35   O5'    4  -0.001  -0.000  -0.000
    1RG35   C5'    5   0.008  -0.000   0.003
    1RG35  H5'1    6  -0.002   0.002  -0.003
    1RG35  H5'2    7  -0.001  -0.001  -0.001
    1RG35   C4'    8  -0.429   0.235   0.236
    1RG35   H4'    9   0.422  -0.232  -0.230
    1RG35   O4'   10  -0.002  -0.003  -0.005
    1RG35   C1'   11   0.365  -0.076   0.018
    1RG35   H1'   12  -0.360   0.075  -0.014
    1RG35    N9   13  -0.002   0.002   0.002
    1RG35    C8   14  -0.004   0.002  -0.001
    1RG35    H8   15   0.005  -0.002  -0.001
    1RG35    N7   16   0.001  -0.001  -0.001
    1RG35    C5   17  -0.002  -0.000  -0.003
    1RG35    C6   18  -0.002   0.001   0.002
    1RG35    O6   19  -0.000  -0.002  -0.004
    1RG35    N1   20  -0.004   0.000  -0.000
    1RG35    H1   21   0.001  -0.002  -0.001
    1RG35    C2   22   0.001  -0.001   0.000
    1RG35    N2   23  -0.005   0.000   0.000
    1RG35   H21   24   0.002  -0.003  -0.000
    1RG35   H22   25   0.000   0.001   0.004
    1RG35    N3   26  -0.003   0.002   0.003
    1RG35    C4   27   0.001   0.000   0.002
    1RG35   C3'   28   0.236  -0.108  -0.090
    1RG35   H3'   29  -0.226   0.102   0.085
    1RG35   C2'   30  -0.004   0.006  -0.002
    1RG35  H2'1   31   0.003  -0.005   0.000
    1RG35   O2'   32   0.001  -0.000   0.001
    1RG35  HO'2   33   0.002  -0.000   0.001
    1RG35   O3'   34  -0.006   0.002   0.004
    1RG35   H3T   35   0.008   0.000   0.001
    1RG35   O3P   36  -0.001  -0.000  -0.001
   0.00000   0.00000   0.00000
Gromacs Runs On Most of All Computer Systems in water t=   0.00000 step= 102
   36
    1RG35     P    1   0.003  -0.000  -0.001
    1RG35   O1P    2   0.004  -0.001  -0.001
    1RG35   O2P    3   0.003  -0.002  -0.002
    1RG35   O5'    4   0.002  -0.002  -0.001
    1RG35   C5'    5  -0.001  -0.000  -0.006
    1RG35  H5'1    6   0.004  -0.002   0.003
    1RG35  H5'2    7   0.003   0.002   0.004
    1RG35   C4'    8   0.214  -0.114  -0.122
    1RG35   H4'    9  -0.211   0.119   0.117
    1RG35   O4'   10   0.002   0.001   0.005
    1RG35   C1'   11  -0.074   0.016  -0.004
    1RG35   H1'   12   0.073  -0.015   0.004
    1RG35    N9   13   0.001  -0.000   0.000
    1RG35    C8   14   0.000  -0.002  -0.001
    1RG35    H8   15  -0.000  -0.001  -0.002
    1RG35    N7   16  -0.001  -0.001  -0.001
    1RG35    C5   17  -0.002  -0.001  -0.002
    1RG35    C6   18  -0.003   0.000   0.001
    1RG35    O6   19  -0.003  -0.003  -0.005
    1RG35    N1   20  -0.003  -0.001  -0.001
    1RG35    H1   21  -0.004  -0.001  -0.001
    1RG35    C2   22  -0.003   0.001   0.000
    1RG35    N2   23  -0.002  -0.002  -0.001
    1RG35   H21   24  -0.005   0.001   0.000
    1RG35   H22   25  -0.003   0.004   0.004
    1RG35    N3   26  -0.001   0.002   0.003
    1RG35    C4   27  -0.001  -0.001  -0.000
    1RG35   C3'   28   0.561  -0.250  -0.216
    1RG35   H3'   29  -0.548   0.248   0.206
    1RG35   C2'   30  -0.028   0.079  -0.001
    1RG35  H2'1   31   0.024  -0.079   0.002
    1RG35   O2'   32   0.000   0.001  -0.001
    1RG35  HO'2   33   0.002   0.001   0.002
    1RG35   O3'   34  -0.007   0.002   0.009
    1RG35   H3T   35   0.009   0.000  -0.000
    1RG35   O3P   36   0.002  -0.001  -0.001
   0.00000   0.00000   0.00000
Gromacs Runs On Most of All Computer Systems in water t=   0.00000 step= 103
   36
    1RG35     P    1  -0.087   0.087  -0.074
    1RG35   O1P    2  -0.088   0.102  -0.096
    1RG35   O2P    3  -0.073   0.118  -0.098
    1RG35   O5'    4  -0.055   0.077  -0.011
    1RG35   C5'    5  -0.052   0.059   0.020
    1RG35  H5'1    6  -0.084   0.031   0.015
    1RG35  H5'2    7  -0.038   0.082   0.005
    1RG35   C4'    8  -0.022   0.049   0.077
    1RG35   H4'    9  -0.020   0.037   0.098
    1RG35   O4'   10  -0.043   0.015   0.097
    1RG35   C1'   11  -0.006   0.026   0.133
    1RG35   H1'   12  -0.007   0.001   0.169
    1RG35    N9   13  -0.014   0.030   0.116
    1RG35    C8   14  -0.024   0.056   0.066
    1RG35    H8   15  -0.025   0.074   0.035
    1RG35    N7   16  -0.029   0.052   0.064
    1RG35    C5   17  -0.023   0.022   0.116
    1RG35    C6   18  -0.025   0.004   0.139
    1RG35    O6   19  -0.033   0.014   0.114
    1RG35    N1   20  -0.017  -0.024   0.193
    1RG35    H1   21  -0.018  -0.038   0.211
    1RG35    C2   22  -0.008  -0.037   0.224
    1RG35    N2   23  -0.001  -0.065   0.276
    1RG35   H21   24  -0.001  -0.078   0.295
    1RG35   H22   25   0.006  -0.073   0.296
    1RG35    N3   26  -0.007  -0.019   0.200
    1RG35    C4   27  -0.014   0.009   0.147
    1RG35   C3'   28   0.024   0.091   0.081
    1RG35   H3'   29   0.022   0.113   0.050
    1RG35   C2'   30   0.039   0.073   0.133
    1RG35  H2'1   31   0.062   0.092   0.138
    1RG35   O2'   32   0.061   0.064   0.177
    1RG35  HO'2   33   0.090   0.094   0.177
    1RG35   O3'   34   0.055   0.119   0.088
    1RG35   H3T   35   0.084   0.147   0.090
    1RG35   O3P   36  -0.137   0.039  -0.076
   0.00000   0.00000   0.00000
Gromacs Runs On Most of All Computer Systems in water t=  -0.00000 step= 104
   36
    1RG35     P    1   0.029   0.044  -0.009
    1RG35   O1P    2   0.043   0.063  -0.032
    1RG35   O2P    3   0.009   0.004   0.034
    1RG35   O5'    4  -0.015   0.077  -0.027
    1RG35   C5'    5  -0.015   0.121  -0.066
    1RG35  H5'1    6   0.021   0.126  -0.083
    1RG35  H5'2    7  -0.023   0.130  -0.074
    1RG35   C4'    8  -0.059   0.145  -0.075
    1RG35   H4'    9  -0.058   0.175  -0.104
    1RG35   O4'   10  -0.046   0.132  -0.067
    1RG35   C1'   11  -0.097   0.132  -0.052
    1RG35   H1'   12  -0.102   0.154  -0.071
    1RG35    N9   13  -0.096   0.091  -0.013
    1RG35    C8   14  -0.081   0.052   0.018
    1RG35    H8   15  -0.071   0.049   0.018
    1RG35    N7   16  -0.084   0.021   0.048
    1RG35    C5   17  -0.101   0.041   0.035
    1RG35    C6   18  -0.111   0.025   0.053
    1RG35    O6   19  -0.106  -0.013   0.086
    1RG35    N1   20  -0.128   0.055   0.030
    1RG35    H1   21  -0.135   0.045   0.042
    1RG35    C2   22  -0.134   0.099  -0.008
    1RG35    N2   23  -0.150   0.126  -0.029
    1RG35   H21   24  -0.159   0.117  -0.017
    1RG35   H22   25  -0.154   0.157  -0.056
    1RG35    N3   26  -0.124   0.112  -0.024
    1RG35    C4   27  -0.108   0.083  -0.002
    1RG35   C3'   28  -0.112   0.133  -0.048
    1RG35   H3'   29  -0.111   0.105  -0.022
    1RG35   C2'   30  -0.143   0.142  -0.046
    1RG35  H2'1   31  -0.174   0.127  -0.022
    1RG35   O2'   32  -0.168   0.185  -0.078
    1RG35  HO'2   33  -0.198   0.191  -0.074
    1RG35   O3'   34  -0.140   0.161  -0.064
    1RG35   H3T   35  -0.175   0.153  -0.046
    1RG35   O3P   36   0.082   0.036  -0.020
   0.00000   0.00000   0.00000
Gromacs Runs On Most of All Computer Systems in water t=  -0.00000 step= 105
   36
    1RG35     P    1  -0.229  -0.007   0.069
    1RG35   O1P    2  -0.259  -0.024   0.079
    1RG35   O2P    3  -0.217   0.023   0.067
    1RG35   O5'    4  -0.203  -0.034   0.054
    1RG35   C5'    5  -0.210  -0.068   0.053
    1RG35  H5'1    6  -0.221  -0.070   0.057
    1RG35  H5'2    7  -0.225  -0.078   0.058
    1RG35   C4'    8  -0.181  -0.087   0.038
    1RG35   H4'    9  -0.187  -0.111   0.037
    1RG35   O4'   10  -0.160  -0.074   0.031
    1RG35   C1'   11  -0.130  -0.075   0.017
    1RG35   H1'   12  -0.119  -0.091   0.010
    1RG35    N9   13  -0.115  -0.041   0.015
    1RG35    C8   14  -0.125  -0.012   0.023
    1RG35    H8   15  -0.147  -0.010   0.032
    1RG35    N7   16  -0.107   0.014   0.018
    1RG35    C5   17  -0.082   0.000   0.006
    1RG35    C6   18  -0.054   0.015  -0.005
    1RG35    O6   19  -0.047   0.045  -0.004
    1RG35    N1   20  -0.035  -0.008  -0.016
    1RG35    H1   21  -0.015   0.001  -0.023
    1RG35    C2   22  -0.041  -0.043  -0.017
    1RG35    N2   23  -0.022  -0.064  -0.029
    1RG35   H21   24  -0.002  -0.055  -0.036
    1RG35   H22   25  -0.027  -0.088  -0.028
    1RG35    N3   26  -0.068  -0.055  -0.007
    1RG35    C4   27  -0.087  -0.034   0.004
    1RG35   C3'   28  -0.163  -0.081   0.031
    1RG35   H3'   29  -0.168  -0.059   0.036
    1RG35   C2'   30  -0.131  -0.087   0.016
    1RG35  H2'1   31  -0.114  -0.076   0.010
    1RG35   O2'   32  -0.125  -0.121   0.010
    1RG35  HO'2   33  -0.126  -0.129   0.009
    1RG35   O3'   34  -0.174  -0.105   0.033
    1RG35   H3T   35  -0.163  -0.101   0.028
    1RG35   O3P   36  -0.232   0.002   0.071
   0.00000   0.00000   0.00000
Gromacs Runs On Most of All Computer Systems in water t=  -0.00000 step= 106
   36
    1RG35     P    1   0.000  -0.064  -0.163
    1RG35   O1P    2   0.049  -0.060  -0.144
    1RG35   O2P    3   0.002  -0.075  -0.232
    1RG35   O5'    4   0.007  -0.056  -0.108
    1RG35   C5'    5   0.025  -0.044  -0.038
    1RG35  H5'1    6  -0.009  -0.042  -0.020
    1RG35  H5'2    7   0.072  -0.043  -0.038
    1RG35   C4'    8   0.023  -0.038   0.002
    1RG35   H4'    9   0.036  -0.030   0.050
    1RG35   O4'   10  -0.046  -0.041   0.001
    1RG35   C1'   11  -0.040  -0.041  -0.001
    1RG35   H1'   12  -0.060  -0.035   0.042
    1RG35    N9   13  -0.078  -0.051  -0.060
    1RG35    C8   14  -0.075  -0.061  -0.128
    1RG35    H8   15  -0.043  -0.063  -0.144
    1RG35    N7   16  -0.116  -0.069  -0.168
    1RG35    C5   17  -0.149  -0.064  -0.125
    1RG35    C6   18  -0.200  -0.067  -0.137
    1RG35    O6   19  -0.224  -0.077  -0.194
    1RG35    N1   20  -0.220  -0.059  -0.079
    1RG35    H1   21  -0.256  -0.061  -0.086
    1RG35    C2   22  -0.195  -0.048  -0.012
    1RG35    N2   23  -0.216  -0.041   0.041
    1RG35   H21   24  -0.252  -0.042   0.036
    1RG35   H22   25  -0.196  -0.032   0.089
    1RG35    N3   26  -0.147  -0.045  -0.004
    1RG35    C4   27  -0.127  -0.053  -0.059
    1RG35   C3'   28   0.068  -0.042  -0.033
    1RG35   H3'   29   0.074  -0.050  -0.083
    1RG35   C2'   30   0.036  -0.039  -0.009
    1RG35  H2'1   31   0.046  -0.044  -0.038
    1RG35   O2'   32   0.063  -0.028   0.056
    1RG35  HO'2   33   0.112  -0.027   0.051
    1RG35   O3'   34   0.137  -0.036  -0.008
    1RG35   H3T   35   0.167  -0.038  -0.031
    1RG35   O3P   36  -0.077  -0.065  -0.150
   0.00000   0.00000   0.00000
Gromacs Runs On Most of All Computer Systems in water t=  -0.00000 step= 107
   36
    1RG35     P    1  -0.113   0.077  -0.221
    1RG35   O1P    2  -0.145   0.085  -0.249
    1RG35   O2P    3  -0.098   0.118  -0.209
    1RG35   O5'    4  -0.079   0.056  -0.191
    1RG35   C5'    5  -0.087   0.026  -0.196
    1RG35  H5'1    6  -0.103  -0.003  -0.208
    1RG35  H5'2    7  -0.100   0.045  -0.209
    1RG35   C4'    8  -0.051   0.009  -0.163
    1RG35   H4'    9  -0.055  -0.012  -0.167
    1RG35   O4'   10  -0.031  -0.021  -0.145
    1RG35   C1'   11   0.007  -0.009  -0.111
    1RG35   H1'   12   0.020  -0.041  -0.100
    1RG35    N9   13   0.023   0.007  -0.099
    1RG35    C8   14   0.011   0.043  -0.112
    1RG35    H8   15  -0.014   0.064  -0.133
    1RG35    N7   16   0.029   0.049  -0.095
    1RG35    C5   17   0.057   0.015  -0.069
    1RG35    C6   18   0.087   0.002  -0.043
    1RG35    O6   19   0.093   0.023  -0.038
    1RG35    N1   20   0.109  -0.035  -0.022
    1RG35    H1   21   0.130  -0.045  -0.003
    1RG35    C2   22   0.103  -0.061  -0.025
    1RG35    N2   23   0.125  -0.097  -0.004
    1RG35   H21   24   0.147  -0.106   0.015
    1RG35   H22   25   0.120  -0.113  -0.008
    1RG35    N3   26   0.075  -0.047  -0.051
    1RG35    C4   27   0.053  -0.011  -0.072
    1RG35   C3'   28  -0.025   0.054  -0.143
    1RG35   H3'   29  -0.028   0.082  -0.148
    1RG35   C2'   30   0.014   0.031  -0.108
    1RG35  H2'1   31   0.035   0.056  -0.091
    1RG35   O2'   32   0.022   0.011  -0.099
    1RG35  HO'2   33   0.026   0.037  -0.097
    1RG35   O3'   34  -0.031   0.071  -0.149
    1RG35   H3T   35  -0.015   0.100  -0.136
    1RG35   O3P   36  -0.124   0.032  -0.228
   0.00000   0.00000   0.00000
Gromacs Runs On Most of All Computer Systems in water t=  -0.00000 step= 108
   36
    1RG35     P    1   0.088  -0.145  -0.022
    1RG35   O1P    2   0.087  -0.115  -0.069
    1RG35   O2P    3   0.070  -0.176   0.045
    1RG35   O5'    4   0.047  -0.112  -0.029
    1RG35   C5'    5   0.042  -0.070  -0.089
    1RG35  H5'1    6   0.084  -0.082  -0.117
    1RG35  H5'2    7   0.023  -0.046  -0.103
    1RG35   C4'    8   0.004  -0.048  -0.082
    1RG35   H4'    9   0.000  -0.019  -0.123
    1RG35   O4'   10   0.033  -0.082  -0.060
    1RG35   C1'   11  -0.014  -0.075  -0.020
    1RG35   H1'   12  -0.012  -0.063  -0.040
    1RG35    N9   13  -0.002  -0.122   0.040
    1RG35    C8   14   0.008  -0.152   0.076
    1RG35    H8   15   0.012  -0.147   0.065
    1RG35    N7   16   0.018  -0.191   0.127
    1RG35    C5   17   0.011  -0.185   0.123
    1RG35    C6   18   0.015  -0.214   0.164
    1RG35    O6   19   0.026  -0.252   0.213
    1RG35    N1   20   0.006  -0.194   0.143
    1RG35    H1   21   0.008  -0.213   0.170
    1RG35    C2   22  -0.006  -0.149   0.087
    1RG35    N2   23  -0.015  -0.132   0.070
    1RG35   H21   24  -0.013  -0.151   0.097
    1RG35   H22   25  -0.024  -0.100   0.031
    1RG35    N3   26  -0.010  -0.124   0.052
    1RG35    C4   27  -0.001  -0.142   0.071
    1RG35   C3'   28  -0.056  -0.037  -0.031
    1RG35   H3'   29  -0.054  -0.060   0.001
    1RG35   C2'   30  -0.074  -0.038  -0.010
    1RG35  H2'1   31  -0.104  -0.045   0.032
    1RG35   O2'   32  -0.103   0.007  -0.050
    1RG35  HO'2   33  -0.143   0.031  -0.043
    1RG35   O3'   34  -0.097   0.009  -0.058
    1RG35   H3T   35  -0.137   0.016  -0.026
    1RG35   O3P   36   0.154  -0.181  -0.040
   0.00000   0.00000   0.00000
