Gromacs Runs On Most of All Computer Systems in water t=  -0.00000 step= 106
   36
    1RG35     P    1   0.000  -0.064  -0.163
    1RG35   O1P    2   0.049  -0.060  -0.144
    1RG35   O2P    3   0.002  -0.075  -0.232
    1RG35   O5'    4   0.007  -0.056  -0.108
    1RG35   C5'    5   0.025  -0.044  -0.038
    1RG35  H5'1    6  -0.009  -0.042  -0.020
    1RG35  H5'2    7   0.072  -0.043  -0.038
    1RG35   C4'    8   0.023  -0.038   0.002
    1RG35   H4'    9   0.036  -0.030   0.050
    1RG35   O4'   10  -0.046  -0.041   0.001
    1RG35   C1'   11  -0.040  -0.041  -0.001
    1RG35   H1'   12  -0.060  -0.035   0.042
    1RG35    N9   13  -0.078  -0.051  -0.060
    1RG35    C8   14  -0.075  -0.061  -0.128
    1RG35    H8   15  -0.043  -0.063  -0.144
    1RG35    N7   16  -0.116  -0.069  -0.168
    1RG35    C5   17  -0.149  -0.064  -0.125
    1RG35    C6   18  -0.200  -0.067  -0.137
    1RG35    O6   19  -0.224  -0.077  -0.194
    1RG35    N1   20  -0.220  -0.059  -0.079
    1RG35    H1   21  -0.256  -0.061  -0.086
    1RG35    C2   22  -0.195  -0.048  -0.012
    1RG35    N2   23  -0.216  -0.041   0.041
    1RG35   H21   24  -0.252  -0.042   0.036
    1RG35   H22   25  -0.196  -0.032   0.089
    1RG35    N3   26  -0.147  -0.045  -0.004
    1RG35    C4   27  -0.127  -0.053  -0.059
    1RG35   C3'   28   0.068  -0.042  -0.033
    1RG35   H3'   29   0.074  -0.050  -0.083
    1RG35   C2'   30   0.036  -0.039  -0.009
    1RG35  H2'1   31   0.046  -0.044  -0.038
    1RG35   O2'   32   0.063  -0.028   0.056
    1RG35  HO'2   33   0.112  -0.027   0.051
    1RG35   O3'   34   0.137  -0.036  -0.008
    1RG35   H3T   35   0.167  -0.038  -0.031
    1RG35   O3P   36  -0.077  -0.065  -0.150
   0.00000   0.00000   0.00000
