Gromacs Runs On Most of All Computer Systems in water t=   0.00001 step= 64
   36
    1RG35     P    1  -0.076  -0.081   0.007
    1RG35   O1P    2  -0.061  -0.035  -0.417
    1RG35   O2P    3  -0.126   0.223   0.127
    1RG35   O5'    4   0.234   0.492   0.161
    1RG35   C5'    5   0.035  -0.048  -0.042
    1RG35  H5'1    6   0.030  -0.034   0.053
    1RG35  H5'2    7   0.028  -0.065  -0.092
    1RG35   C4'    8  -0.117  -0.045   0.041
    1RG35   H4'    9  -0.051   0.070   0.054
    1RG35   O4'   10   0.026   0.005  -0.086
    1RG35   C1'   11  -0.001   0.030  -0.029
    1RG35   H1'   12  -0.012  -0.008   0.011
    1RG35    N9   13   0.003  -0.009   0.011
    1RG35    C8   14   0.002   0.005   0.010
    1RG35    H8   15  -0.000  -0.010  -0.006
    1RG35    N7   16  -0.018   0.037  -0.030
    1RG35    C5   17  -0.070  -0.107   0.053
    1RG35    C6   18   0.065   0.114  -0.079
    1RG35    O6   19  -0.032  -0.027  -0.004
    1RG35    N1   20  -0.007  -0.030   0.030
    1RG35    H1   21  -0.004   0.002  -0.032
    1RG35    C2   22   0.005   0.038  -0.010
    1RG35    N2   23  -0.024   0.005  -0.018
    1RG35   H21   24  -0.013   0.029   0.002
    1RG35   H22   25   0.003  -0.009  -0.031
    1RG35    N3   26  -0.020  -0.025   0.043
    1RG35    C4   27   0.047   0.066  -0.060
    1RG35   C3'   28   0.056  -0.093   0.053
    1RG35   H3'   29   0.052  -0.035  -0.033
    1RG35   C2'   30  -0.003  -0.014   0.001
    1RG35  H2'1   31   0.019  -0.009   0.001
    1RG35   O2'   32  -0.037   0.000   0.020
    1RG35  HO'2   33   0.012  -0.012  -0.005
    1RG35   O3'   34  -0.013   0.019   0.079
    1RG35   H3T   35  -0.005  -0.017  -0.030
    1RG35   O3P   36   0.074  -0.422   0.248
   0.00000   0.00000   0.00000
