Gromacs Runs On Most of All Computer Systems in water t=   0.00000 step= 71
   36
    1RG35     P    1  -0.042  -0.023  -0.005
    1RG35   O1P    2   0.005   0.003   0.027
    1RG35   O2P    3   0.053  -0.016  -0.022
    1RG35   O5'    4  -0.133   0.077   0.048
    1RG35   C5'    5   0.071  -0.044  -0.021
    1RG35  H5'1    6   0.007  -0.079   0.070
    1RG35  H5'2    7  -0.028  -0.037  -0.086
    1RG35   C4'    8   0.097   0.188  -0.030
    1RG35   H4'    9  -0.016  -0.048  -0.008
    1RG35   O4'   10  -0.006   0.028   0.090
    1RG35   C1'   11   0.012  -0.149  -0.235
    1RG35   H1'   12   0.036   0.010   0.036
    1RG35    N9   13  -0.134  -0.033  -0.140
    1RG35    C8   14   0.070  -0.045  -0.005
    1RG35    H8   15   0.125  -0.055   0.018
    1RG35    N7   16  -0.066   0.092   0.067
    1RG35    C5   17  -0.159   0.186   0.160
    1RG35    C6   18  -0.047   0.039   0.041
    1RG35    O6   19   0.042  -0.166  -0.241
    1RG35    N1   20   0.142   0.091   0.248
    1RG35    H1   21  -0.033  -0.010  -0.037
    1RG35    C2   22   0.212  -0.018   0.105
    1RG35    N2   23  -0.100   0.008  -0.060
    1RG35   H21   24  -0.094   0.100   0.077
    1RG35   H22   25   0.024  -0.106  -0.110
    1RG35    N3   26   0.085  -0.153  -0.132
    1RG35    C4   27  -0.109   0.129   0.080
    1RG35   C3'   28   0.107   0.171  -0.059
    1RG35   H3'   29   0.030  -0.051  -0.010
    1RG35   C2'   30  -0.032  -0.072  -0.079
    1RG35  H2'1   31   0.020  -0.064   0.003
    1RG35   O2'   32  -0.031   0.029   0.328
    1RG35  HO'2   33  -0.075  -0.001  -0.209
    1RG35   O3'   34  -0.039  -0.001   0.142
    1RG35   H3T   35   0.010  -0.001  -0.033
    1RG35   O3P   36  -0.003   0.023  -0.019
   0.00000   0.00000   0.00000
