Gromacs Runs On Most of All Computer Systems in water t=   0.00000 step= 98
   36
    1RG35     P    1  -0.000  -0.001   0.004
    1RG35   O1P    2   0.000  -0.000  -0.002
    1RG35   O2P    3   0.002  -0.000   0.001
    1RG35   O5'    4   0.000  -0.000   0.004
    1RG35   C5'    5  -0.166   0.140  -0.725
    1RG35  H5'1    6   0.123  -0.327   0.295
    1RG35  H5'2    7   0.044   0.189   0.422
    1RG35   C4'    8   0.006  -0.005  -0.001
    1RG35   H4'    9  -0.007   0.004   0.003
    1RG35   O4'   10   0.002   0.001   0.001
    1RG35   C1'   11   0.025  -0.003   0.001
    1RG35   H1'   12  -0.025   0.006  -0.001
    1RG35    N9   13   0.000   0.000   0.001
    1RG35    C8   14  -0.001   0.000   0.000
    1RG35    H8   15  -0.000  -0.000   0.001
    1RG35    N7   16  -0.001  -0.001  -0.002
    1RG35    C5   17  -0.000  -0.001  -0.000
    1RG35    C6   18   0.001  -0.000   0.001
    1RG35    O6   19  -0.000  -0.001  -0.000
    1RG35    N1   20  -0.001   0.002   0.002
    1RG35    H1   21   0.001  -0.000  -0.001
    1RG35    C2   22   0.001   0.000  -0.000
    1RG35    N2   23   0.001  -0.000  -0.002
    1RG35   H21   24  -0.001   0.002  -0.000
    1RG35   H22   25   0.000   0.001  -0.001
    1RG35    N3   26   0.000   0.001   0.001
    1RG35    C4   27   0.001   0.001   0.001
    1RG35   C3'   28  -0.008   0.003   0.002
    1RG35   H3'   29   0.005  -0.002  -0.002
    1RG35   C2'   30  -0.003   0.001  -0.001
    1RG35  H2'1   31  -0.001  -0.000  -0.001
    1RG35   O2'   32   0.000   0.001  -0.001
    1RG35  HO'2   33  -0.003   0.001  -0.001
    1RG35   O3'   34  -0.001   0.000   0.000
    1RG35   H3T   35  -0.003   0.000  -0.001
    1RG35   O3P   36   0.001   0.000   0.000
   0.00000   0.00000   0.00000
