Gromacs Runs On Most of All Computer Systems in water t=  -0.00000 step= 104
   36
    1RG35     P    1   0.029   0.044  -0.009
    1RG35   O1P    2   0.043   0.063  -0.032
    1RG35   O2P    3   0.009   0.004   0.034
    1RG35   O5'    4  -0.015   0.077  -0.027
    1RG35   C5'    5  -0.015   0.121  -0.066
    1RG35  H5'1    6   0.021   0.126  -0.083
    1RG35  H5'2    7  -0.023   0.130  -0.074
    1RG35   C4'    8  -0.059   0.145  -0.075
    1RG35   H4'    9  -0.058   0.175  -0.104
    1RG35   O4'   10  -0.046   0.132  -0.067
    1RG35   C1'   11  -0.097   0.132  -0.052
    1RG35   H1'   12  -0.102   0.154  -0.071
    1RG35    N9   13  -0.096   0.091  -0.013
    1RG35    C8   14  -0.081   0.052   0.018
    1RG35    H8   15  -0.071   0.049   0.018
    1RG35    N7   16  -0.084   0.021   0.048
    1RG35    C5   17  -0.101   0.041   0.035
    1RG35    C6   18  -0.111   0.025   0.053
    1RG35    O6   19  -0.106  -0.013   0.086
    1RG35    N1   20  -0.128   0.055   0.030
    1RG35    H1   21  -0.135   0.045   0.042
    1RG35    C2   22  -0.134   0.099  -0.008
    1RG35    N2   23  -0.150   0.126  -0.029
    1RG35   H21   24  -0.159   0.117  -0.017
    1RG35   H22   25  -0.154   0.157  -0.056
    1RG35    N3   26  -0.124   0.112  -0.024
    1RG35    C4   27  -0.108   0.083  -0.002
    1RG35   C3'   28  -0.112   0.133  -0.048
    1RG35   H3'   29  -0.111   0.105  -0.022
    1RG35   C2'   30  -0.143   0.142  -0.046
    1RG35  H2'1   31  -0.174   0.127  -0.022
    1RG35   O2'   32  -0.168   0.185  -0.078
    1RG35  HO'2   33  -0.198   0.191  -0.074
    1RG35   O3'   34  -0.140   0.161  -0.064
    1RG35   H3T   35  -0.175   0.153  -0.046
    1RG35   O3P   36   0.082   0.036  -0.020
   0.00000   0.00000   0.00000
