Gromacs Runs On Most of All Computer Systems in water t=   0.00001 step= 53
   36
    1RG35     P    1   0.089   0.035   0.018
    1RG35   O1P    2  -0.116   0.015   0.097
    1RG35   O2P    3  -0.049  -0.075  -0.118
    1RG35   O5'    4   0.198  -0.014   0.063
    1RG35   C5'    5   0.058  -0.023  -0.111
    1RG35  H5'1    6  -0.074   0.045   0.019
    1RG35  H5'2    7  -0.059  -0.075  -0.081
    1RG35   C4'    8  -0.043   0.092   0.125
    1RG35   H4'    9  -0.124   0.025   0.057
    1RG35   O4'   10   0.285   0.059   0.046
    1RG35   C1'   11  -0.122   0.167  -0.146
    1RG35   H1'   12  -0.194  -0.107   0.031
    1RG35    N9   13  -0.054   0.175  -0.168
    1RG35    C8   14  -0.186  -0.345   0.113
    1RG35    H8   15   0.058   0.166   0.078
    1RG35    N7   16   0.170   0.048  -0.160
    1RG35    C5   17   0.042  -0.073   0.083
    1RG35    C6   18   0.000  -0.147   0.065
    1RG35    O6   19  -0.015   0.014  -0.109
    1RG35    N1   20   0.081   0.043  -0.008
    1RG35    H1   21   0.010  -0.060  -0.054
    1RG35    C2   22  -0.016   0.061   0.064
    1RG35    N2   23   0.038  -0.032  -0.033
    1RG35   H21   24   0.073  -0.042  -0.001
    1RG35   H22   25  -0.054  -0.009  -0.044
    1RG35    N3   26  -0.071   0.079   0.141
    1RG35    C4   27  -0.035   0.117   0.022
    1RG35   C3'   28   0.028   0.029   0.005
    1RG35   H3'   29  -0.028  -0.083  -0.015
    1RG35   C2'   30   0.130  -0.013  -0.137
    1RG35  H2'1   31  -0.067  -0.064   0.158
    1RG35   O2'   32   0.206  -0.074  -0.057
    1RG35  HO'2   33  -0.096   0.024   0.111
    1RG35   O3'   34  -0.024   0.031  -0.007
    1RG35   H3T   35  -0.018  -0.004  -0.014
    1RG35   O3P   36  -0.020   0.013  -0.033
   0.00000   0.00000   0.00000
