Gromacs Runs On Most of All Computer Systems in water t=   0.00001 step= 52
   36
    1RG35     P    1  -0.112  -0.062  -0.009
    1RG35   O1P    2   0.254   0.120  -0.117
    1RG35   O2P    3   0.038  -0.002   0.183
    1RG35   O5'    4  -0.256   0.018  -0.426
    1RG35   C5'    5  -0.047  -0.110   0.201
    1RG35  H5'1    6   0.176  -0.171   0.060
    1RG35  H5'2    7  -0.059   0.182   0.067
    1RG35   C4'    8  -0.118   0.006  -0.096
    1RG35   H4'    9   0.056   0.070   0.167
    1RG35   O4'   10   0.158  -0.004  -0.320
    1RG35   C1'   11  -0.009   0.047  -0.170
    1RG35   H1'   12  -0.047  -0.062   0.088
    1RG35    N9   13  -0.100  -0.035  -0.051
    1RG35    C8   14  -0.029   0.050  -0.062
    1RG35    H8   15  -0.045   0.051   0.062
    1RG35    N7   16   0.103  -0.020   0.076
    1RG35    C5   17   0.103   0.010   0.060
    1RG35    C6   18   0.058  -0.007  -0.045
    1RG35    O6   19  -0.043  -0.040  -0.076
    1RG35    N1   20  -0.008  -0.021  -0.001
    1RG35    H1   21   0.001  -0.008  -0.020
    1RG35    C2   22  -0.060   0.028   0.012
    1RG35    N2   23  -0.030  -0.023  -0.029
    1RG35   H21   24   0.047   0.017   0.048
    1RG35   H22   25   0.028  -0.041  -0.028
    1RG35    N3   26  -0.033   0.089   0.056
    1RG35    C4   27  -0.031   0.016   0.062
    1RG35   C3'   28  -0.052   0.032  -0.046
    1RG35   H3'   29  -0.026  -0.016   0.081
    1RG35   C2'   30   0.041  -0.022  -0.127
    1RG35  H2'1   31  -0.026  -0.038   0.104
    1RG35   O2'   32   0.112  -0.050  -0.011
    1RG35  HO'2   33  -0.053   0.018   0.112
    1RG35   O3'   34   0.049  -0.030  -0.003
    1RG35   H3T   35   0.036   0.006   0.052
    1RG35   O3P   36  -0.073   0.001   0.147
   0.00000   0.00000   0.00000
