Gromacs Runs On Most of All Computer Systems in water t=   0.00000 step= 78
   36
    1RG35     P    1  -0.251  -0.122  -0.014
    1RG35   O1P    2   0.038   0.022   0.053
    1RG35   O2P    3   0.063  -0.027  -0.029
    1RG35   O5'    4   0.290   0.042  -0.031
    1RG35   C5'    5  -0.338  -0.078   0.048
    1RG35  H5'1    6   0.029   0.054  -0.052
    1RG35  H5'2    7   0.046   0.016   0.030
    1RG35   C4'    8   0.064  -0.141   0.172
    1RG35   H4'    9   0.033   0.006  -0.033
    1RG35   O4'   10   0.140   0.290  -0.118
    1RG35   C1'   11  -0.111  -0.509   0.120
    1RG35   H1'   12   0.005   0.050  -0.011
    1RG35    N9   13   0.045   0.138   0.130
    1RG35    C8   14  -0.021   0.069   0.105
    1RG35    H8   15  -0.053   0.023  -0.019
    1RG35    N7   16   0.096  -0.110  -0.083
    1RG35    C5   17   0.009  -0.055  -0.076
    1RG35    C6   18  -0.028  -0.001  -0.024
    1RG35    O6   19   0.001   0.023   0.035
    1RG35    N1   20  -0.004  -0.001  -0.006
    1RG35    H1   21   0.002   0.002   0.005
    1RG35    C2   22   0.076  -0.024   0.019
    1RG35    N2   23  -0.009  -0.007  -0.012
    1RG35   H21   24  -0.018   0.019   0.015
    1RG35   H22   25   0.004  -0.016  -0.016
    1RG35    N3   26  -0.001   0.009   0.008
    1RG35    C4   27  -0.084   0.052   0.025
    1RG35   C3'   28   0.051   0.220  -0.092
    1RG35   H3'   29  -0.019  -0.019   0.008
    1RG35   C2'   30  -0.041   0.001  -0.204
    1RG35  H2'1   31  -0.008   0.012  -0.000
    1RG35   O2'   32  -0.018   0.004   0.047
    1RG35  HO'2   33  -0.008   0.000  -0.010
    1RG35   O3'   34  -0.012  -0.007   0.037
    1RG35   H3T   35   0.007   0.002  -0.002
    1RG35   O3P   36   0.025   0.061  -0.026
   0.00000   0.00000   0.00000
