Gromacs Runs On Most of All Computer Systems in water t=   0.00001 step= 58
   36
    1RG35     P    1  -0.088   0.084   0.080
    1RG35   O1P    2   0.139  -0.231   0.148
    1RG35   O2P    3  -0.131   0.231   0.098
    1RG35   O5'    4  -0.045   0.030  -0.015
    1RG35   C5'    5  -0.028  -0.071  -0.017
    1RG35  H5'1    6   0.033  -0.016   0.047
    1RG35  H5'2    7  -0.003   0.006  -0.075
    1RG35   C4'    8  -0.019  -0.011   0.013
    1RG35   H4'    9   0.009   0.017   0.040
    1RG35   O4'   10   0.220   0.081  -0.097
    1RG35   C1'   11  -0.138   0.204  -0.049
    1RG35   H1'   12  -0.203  -0.059   0.030
    1RG35    N9   13   0.089   0.110   0.086
    1RG35    C8   14   0.130  -0.023   0.130
    1RG35    H8   15   0.133  -0.126  -0.085
    1RG35    N7   16  -0.149   0.079  -0.042
    1RG35    C5   17  -0.167   0.054  -0.082
    1RG35    C6   18  -0.062   0.159  -0.080
    1RG35    O6   19   0.072  -0.047   0.114
    1RG35    N1   20  -0.083  -0.015  -0.036
    1RG35    H1   21   0.005   0.070   0.094
    1RG35    C2   22   0.097  -0.142  -0.053
    1RG35    N2   23   0.052   0.036   0.089
    1RG35   H21   24  -0.085  -0.018  -0.073
    1RG35   H22   25  -0.006   0.071   0.098
    1RG35    N3   26   0.195  -0.094  -0.204
    1RG35    C4   27  -0.062  -0.176   0.086
    1RG35   C3'   28  -0.063  -0.034  -0.007
    1RG35   H3'   29  -0.025   0.028   0.022
    1RG35   C2'   30   0.019  -0.086  -0.097
    1RG35  H2'1   31   0.022  -0.083   0.094
    1RG35   O2'   32   0.097   0.011  -0.028
    1RG35  HO'2   33  -0.045   0.008   0.061
    1RG35   O3'   34   0.016   0.011  -0.008
    1RG35   H3T   35   0.017   0.009   0.026
    1RG35   O3P   36   0.058  -0.065  -0.308
   0.00000   0.00000   0.00000
