Gromacs Runs On Most of All Computer Systems in water t=   0.00001 step= 67
   36
    1RG35     P    1   0.017  -0.018  -0.001
    1RG35   O1P    2  -0.015  -0.012  -0.041
    1RG35   O2P    3   0.084  -0.021  -0.019
    1RG35   O5'    4  -0.123   0.243   0.121
    1RG35   C5'    5  -0.102  -0.108  -0.005
    1RG35  H5'1    6   0.076  -0.047   0.083
    1RG35  H5'2    7   0.036  -0.024  -0.123
    1RG35   C4'    8   0.047  -0.112  -0.001
    1RG35   H4'    9   0.078  -0.030  -0.044
    1RG35   O4'   10  -0.052  -0.041   0.155
    1RG35   C1'   11   0.132   0.004   0.074
    1RG35   H1'   12   0.137  -0.045  -0.037
    1RG35    N9   13  -0.240   0.112  -0.005
    1RG35    C8   14  -0.025  -0.097  -0.161
    1RG35    H8   15   0.033   0.050   0.099
    1RG35    N7   16   0.156  -0.174  -0.076
    1RG35    C5   17   0.004   0.220   0.125
    1RG35    C6   18  -0.189  -0.056   0.003
    1RG35    O6   19   0.123  -0.040  -0.028
    1RG35    N1   20  -0.103  -0.039  -0.231
    1RG35    H1   21   0.050   0.031   0.084
    1RG35    C2   22   0.019  -0.156  -0.126
    1RG35    N2   23   0.107   0.021   0.086
    1RG35   H21   24   0.004  -0.062  -0.086
    1RG35   H22   25  -0.022   0.114   0.114
    1RG35    N3   26   0.069  -0.011  -0.061
    1RG35    C4   27  -0.193   0.178   0.208
    1RG35   C3'   28  -0.144   0.047  -0.057
    1RG35   H3'   29  -0.096   0.059   0.085
    1RG35   C2'   30   0.019   0.081   0.022
    1RG35  H2'1   31  -0.051   0.070  -0.008
    1RG35   O2'   32   0.130  -0.031  -0.026
    1RG35  HO'2   33  -0.034   0.004  -0.018
    1RG35   O3'   34   0.079  -0.048  -0.229
    1RG35   H3T   35  -0.010   0.005   0.081
    1RG35   O3P   36   0.001  -0.063   0.041
   0.00000   0.00000   0.00000
