Gromacs Runs On Most of All Computer Systems in water t=   0.00001 step= 66
   36
    1RG35     P    1  -0.022  -0.015   0.003
    1RG35   O1P    2  -0.009  -0.007  -0.106
    1RG35   O2P    3  -0.056   0.070   0.044
    1RG35   O5'    4   0.078   0.071   0.012
    1RG35   C5'    5   0.040   0.007  -0.005
    1RG35  H5'1    6  -0.010  -0.010   0.003
    1RG35  H5'2    7  -0.004  -0.010   0.002
    1RG35   C4'    8  -0.030   0.031  -0.002
    1RG35   H4'    9  -0.030   0.013   0.024
    1RG35   O4'   10   0.012   0.001  -0.047
    1RG35   C1'   11  -0.028   0.005  -0.010
    1RG35   H1'   12  -0.030   0.008   0.005
    1RG35    N9   13   0.052  -0.010  -0.002
    1RG35    C8   14   0.010   0.024   0.022
    1RG35    H8   15   0.007   0.006  -0.030
    1RG35    N7   16  -0.095  -0.076   0.077
    1RG35    C5   17   0.231   0.398  -0.339
    1RG35    C6   18  -0.211  -0.448   0.284
    1RG35    O6   19   0.045   0.155  -0.074
    1RG35    N1   20   0.105   0.160  -0.056
    1RG35    H1   21  -0.006  -0.024  -0.026
    1RG35    C2   22  -0.054  -0.040   0.095
    1RG35    N2   23  -0.029   0.004  -0.033
    1RG35   H21   24  -0.002   0.018   0.022
    1RG35   H22   25   0.003  -0.034  -0.027
    1RG35    N3   26   0.073   0.162  -0.094
    1RG35    C4   27  -0.103  -0.289   0.149
    1RG35   C3'   28   0.054   0.001   0.022
    1RG35   H3'   29   0.026  -0.031  -0.025
    1RG35   C2'   30   0.010  -0.021   0.011
    1RG35  H2'1   31   0.010  -0.025  -0.003
    1RG35   O2'   32  -0.057   0.010   0.004
    1RG35  HO'2   33   0.020  -0.007   0.001
    1RG35   O3'   34  -0.024   0.011   0.067
    1RG35   H3T   35   0.001  -0.008  -0.026
    1RG35   O3P   36   0.023  -0.101   0.059
   0.00000   0.00000   0.00000
