Gromacs Runs On Most of All Computer Systems in water t=   0.00001 step= 61
   36
    1RG35     P    1   0.005  -0.014   0.015
    1RG35   O1P    2  -0.035   0.039   0.027
    1RG35   O2P    3  -0.007   0.017  -0.063
    1RG35   O5'    4   0.004  -0.027   0.017
    1RG35   C5'    5  -0.003   0.024  -0.042
    1RG35  H5'1    6   0.002   0.055  -0.021
    1RG35  H5'2    7  -0.024  -0.030  -0.013
    1RG35   C4'    8   0.082  -0.052   0.149
    1RG35   H4'    9  -0.008   0.007  -0.079
    1RG35   O4'   10   0.021   0.122   0.136
    1RG35   C1'   11  -0.038  -0.011  -0.239
    1RG35   H1'   12  -0.048   0.018   0.103
    1RG35    N9   13   0.016  -0.249  -0.054
    1RG35    C8   14  -0.093   0.037  -0.160
    1RG35    H8   15  -0.138   0.085   0.041
    1RG35    N7   16   0.013  -0.038   0.019
    1RG35    C5   17   0.094   0.033   0.082
    1RG35    C6   18  -0.061  -0.014   0.037
    1RG35    O6   19   0.047   0.066   0.100
    1RG35    N1   20  -0.133   0.003  -0.141
    1RG35    H1   21  -0.028   0.089   0.114
    1RG35    C2   22  -0.054  -0.107  -0.221
    1RG35    N2   23  -0.268   0.052  -0.094
    1RG35   H21   24  -0.140   0.209   0.170
    1RG35   H22   25   0.205  -0.121  -0.031
    1RG35    N3   26   0.308  -0.139   0.098
    1RG35    C4   27   0.296  -0.007   0.066
    1RG35   C3'   28  -0.041  -0.128   0.016
    1RG35   H3'   29   0.020   0.040  -0.020
    1RG35   C2'   30  -0.067  -0.003  -0.216
    1RG35  H2'1   31   0.021   0.031   0.085
    1RG35   O2'   32   0.032  -0.009  -0.020
    1RG35  HO'2   33  -0.017   0.005   0.107
    1RG35   O3'   34   0.005   0.050   0.007
    1RG35   H3T   35   0.006   0.000   0.008
    1RG35   O3P   36   0.025  -0.033   0.015
   0.00000   0.00000   0.00000
