Gromacs Runs On Most of All Computer Systems in water t=   0.00004 step= 31
   36
    1RG35     P    1   0.018  -0.042  -0.024
    1RG35   O1P    2  -0.004  -0.062  -0.023
    1RG35   O2P    3   0.108   0.038  -0.012
    1RG35   O5'    4  -0.002  -0.012   0.014
    1RG35   C5'    5  -0.005   0.039   0.027
    1RG35  H5'1    6  -0.051   0.059   0.062
    1RG35  H5'2    7  -0.066   0.094   0.012
    1RG35   C4'    8   0.030   0.001   0.003
    1RG35   H4'    9   0.061  -0.017   0.076
    1RG35   O4'   10   0.005  -0.003   0.005
    1RG35   C1'   11  -0.013  -0.007  -0.007
    1RG35   H1'   12  -0.004   0.021  -0.052
    1RG35    N9   13  -0.027  -0.023   0.011
    1RG35    C8   14   0.007   0.035  -0.028
    1RG35    H8   15  -0.083  -0.138   0.059
    1RG35    N7   16   0.129   0.227  -0.147
    1RG35    C5   17  -0.013  -0.008   0.021
    1RG35    C6   18  -0.070  -0.125   0.126
    1RG35    O6   19   0.105   0.102   0.010
    1RG35    N1   20  -0.227  -0.381   0.260
    1RG35    H1   21  -0.009   0.117  -0.146
    1RG35    C2   22   0.031   0.074  -0.065
    1RG35    N2   23   0.196   0.386  -0.322
    1RG35   H21   24   0.004  -0.076   0.079
    1RG35   H22   25  -0.065  -0.215   0.196
    1RG35    N3   26   0.013   0.042  -0.051
    1RG35    C4   27  -0.036  -0.035   0.025
    1RG35   C3'   28  -0.012  -0.001  -0.010
    1RG35   H3'   29  -0.027  -0.084   0.056
    1RG35   C2'   30  -0.004   0.002  -0.004
    1RG35  H2'1   31   0.056   0.021   0.059
    1RG35   O2'   32   0.001  -0.009  -0.021
    1RG35  HO'2   33   0.021  -0.009  -0.038
    1RG35   O3'   34  -0.025   0.098  -0.044
    1RG35   H3T   35  -0.008  -0.052  -0.088
    1RG35   O3P   36  -0.035  -0.055  -0.020
   0.00000   0.00000   0.00000
