Gromacs Runs On Most of All Computer Systems in water t=   0.00020 step= 13
   36
    1RG35     P    1  -0.028  -0.094   0.044
    1RG35   O1P    2   0.287  -0.002  -0.015
    1RG35   O2P    3  -0.186  -0.148  -0.112
    1RG35   O5'    4  -0.038  -0.108   0.396
    1RG35   C5'    5  -0.058   0.028   0.148
    1RG35  H5'1    6   0.076  -0.075  -0.025
    1RG35  H5'2    7  -0.204   0.173   0.099
    1RG35   C4'    8  -0.071   0.034   0.057
    1RG35   H4'    9  -0.084  -0.011   0.080
    1RG35   O4'   10  -0.042   0.062   0.032
    1RG35   C1'   11   0.005   0.016  -0.025
    1RG35   H1'   12  -0.002  -0.022  -0.044
    1RG35    N9   13   0.044   0.026  -0.043
    1RG35    C8   14   0.049  -0.006  -0.035
    1RG35    H8   15   0.063   0.006  -0.063
    1RG35    N7   16   0.024  -0.065   0.010
    1RG35    C5   17   0.021  -0.055   0.003
    1RG35    C6   18   0.001  -0.092   0.021
    1RG35    O6   19  -0.061  -0.221   0.101
    1RG35    N1   20   0.077   0.062  -0.080
    1RG35    H1   21   0.160   0.232  -0.190
    1RG35    C2   22   0.044   0.032  -0.059
    1RG35    N2   23  -0.004  -0.021   0.007
    1RG35   H21   24  -0.002  -0.040   0.056
    1RG35   H22   25  -0.062  -0.058   0.046
    1RG35    N3   26   0.027   0.008  -0.041
    1RG35    C4   27   0.034   0.005  -0.035
    1RG35   C3'   28  -0.023   0.010  -0.018
    1RG35   H3'   29  -0.048   0.017  -0.093
    1RG35   C2'   30  -0.022   0.013  -0.014
    1RG35  H2'1   31  -0.026   0.012  -0.014
    1RG35   O2'   32  -0.005   0.028   0.003
    1RG35  HO'2   33   0.005   0.000  -0.003
    1RG35   O3'   34   0.105   0.032  -0.032
    1RG35   H3T   35   0.127   0.364  -0.180
    1RG35   O3P   36  -0.182  -0.140   0.018
   0.00000   0.00000   0.00000
