Gromacs Runs On Most of All Computer Systems in water t=   0.00959 step= 1
   36
    1RG35     P    1   0.036  -0.078   0.100
    1RG35   O1P    2   0.018  -0.101   0.106
    1RG35   O2P    3   0.021  -0.099   0.105
    1RG35   O5'    4   0.016  -0.038   0.068
    1RG35   C5'    5   0.025  -0.012   0.058
    1RG35  H5'1    6   0.059   0.010   0.068
    1RG35  H5'2    7   0.018  -0.037   0.070
    1RG35   C4'    8  -0.002   0.014   0.011
    1RG35   H4'    9  -0.002   0.022   0.003
    1RG35   O4'   10   0.019   0.055  -0.010
    1RG35   C1'   11   0.005   0.054  -0.068
    1RG35   H1'   12   0.008   0.058  -0.101
    1RG35    N9   13   0.046   0.094  -0.094
    1RG35    C8   14   0.120   0.201  -0.181
    1RG35    H8   15   0.159   0.268  -0.242
    1RG35    N7   16   0.142   0.221  -0.188
    1RG35    C5   17   0.078   0.118  -0.098
    1RG35    C6   18   0.069   0.086  -0.060
    1RG35    O6   19   0.120   0.147  -0.096
    1RG35    N1   20  -0.008  -0.031   0.032
    1RG35    H1   21  -0.011  -0.049   0.059
    1RG35    C2   22  -0.061  -0.102   0.082
    1RG35    N2   23  -0.117  -0.201   0.172
    1RG35   H21   24  -0.117  -0.214   0.196
    1RG35   H22   25  -0.141  -0.224   0.192
    1RG35    N3   26  -0.047  -0.072   0.053
    1RG35    C4   27   0.020   0.038  -0.039
    1RG35   C3'   28  -0.047  -0.011  -0.010
    1RG35   H3'   29  -0.044  -0.019   0.009
    1RG35   C2'   30  -0.050   0.019  -0.067
    1RG35  H2'1   31  -0.072   0.012  -0.077
    1RG35   O2'   32  -0.070   0.025  -0.095
    1RG35  HO'2   33  -0.092   0.007  -0.086
    1RG35   O3'   34  -0.088  -0.042  -0.004
    1RG35   H3T   35  -0.094  -0.057   0.024
    1RG35   O3P   36   0.083  -0.063   0.111
   0.00000   0.00000   0.00000
