Gromacs Runs On Most of All Computer Systems in water t=   0.00001 step= 48
   36
    1RG35     P    1   0.030   0.028   0.007
    1RG35   O1P    2  -0.019   0.027   0.019
    1RG35   O2P    3  -0.092  -0.072  -0.024
    1RG35   O5'    4   0.149  -0.027  -0.046
    1RG35   C5'    5   0.085  -0.123  -0.068
    1RG35  H5'1    6  -0.012   0.035   0.180
    1RG35  H5'2    7  -0.078   0.065  -0.155
    1RG35   C4'    8   0.077  -0.074  -0.023
    1RG35   H4'    9   0.049  -0.111  -0.044
    1RG35   O4'   10   0.004   0.108  -0.016
    1RG35   C1'   11   0.091   0.083   0.065
    1RG35   H1'   12   0.064  -0.099  -0.084
    1RG35    N9   13  -0.063   0.133   0.096
    1RG35    C8   14  -0.061   0.036   0.242
    1RG35    H8   15  -0.015  -0.083  -0.231
    1RG35    N7   16   0.138   0.157   0.301
    1RG35    C5   17   0.076   0.046   0.045
    1RG35    C6   18   0.029  -0.071  -0.072
    1RG35    O6   19   0.014  -0.066  -0.082
    1RG35    N1   20  -0.036  -0.111  -0.096
    1RG35    H1   21   0.087  -0.020   0.039
    1RG35    C2   22  -0.159   0.029  -0.185
    1RG35    N2   23  -0.159   0.000  -0.002
    1RG35   H21   24   0.023   0.144   0.173
    1RG35   H22   25   0.270  -0.103   0.031
    1RG35    N3   26  -0.250  -0.042  -0.160
    1RG35    C4   27  -0.148   0.044  -0.021
    1RG35   C3'   28  -0.110  -0.010   0.088
    1RG35   H3'   29  -0.103   0.127  -0.048
    1RG35   C2'   30   0.017  -0.088   0.031
    1RG35  H2'1   31   0.060  -0.078  -0.046
    1RG35   O2'   32   0.031   0.090   0.003
    1RG35  HO'2   33   0.011  -0.002   0.001
    1RG35   O3'   34  -0.005   0.012   0.104
    1RG35   H3T   35   0.028  -0.004  -0.037
    1RG35   O3P   36  -0.025   0.018   0.013
   0.00000   0.00000   0.00000
