Gromacs Runs On Most of All Computer Systems in water t=   0.00000 step= 82
   36
    1RG35     P    1  -0.019  -0.014  -0.001
    1RG35   O1P    2  -0.001   0.003   0.005
    1RG35   O2P    3   0.002  -0.000  -0.005
    1RG35   O5'    4   0.041   0.002  -0.011
    1RG35   C5'    5  -0.079  -0.011   0.027
    1RG35  H5'1    6   0.005  -0.020   0.011
    1RG35  H5'2    7   0.010   0.002  -0.004
    1RG35   C4'    8  -0.030   0.148  -0.209
    1RG35   H4'    9   0.007  -0.019   0.021
    1RG35   O4'   10   0.037   0.049   0.018
    1RG35   C1'   11  -0.007  -0.004   0.470
    1RG35   H1'   12   0.016  -0.006  -0.051
    1RG35    N9   13  -0.069  -0.033  -0.120
    1RG35    C8   14   0.009  -0.132  -0.182
    1RG35    H8   15   0.078  -0.019   0.033
    1RG35    N7   16  -0.146   0.149   0.093
    1RG35    C5   17   0.046   0.052   0.109
    1RG35    C6   18   0.063  -0.033  -0.001
    1RG35    O6   19  -0.003   0.007  -0.000
    1RG35    N1   20  -0.070  -0.041  -0.119
    1RG35    H1   21   0.003   0.011   0.016
    1RG35    C2   22   0.070   0.033   0.100
    1RG35    N2   23   0.028  -0.003   0.008
    1RG35   H21   24  -0.034   0.026   0.015
    1RG35   H22   25  -0.005  -0.029  -0.033
    1RG35    N3   26  -0.052   0.015  -0.019
    1RG35    C4   27   0.081  -0.072  -0.039
    1RG35   C3'   28   0.077  -0.107   0.384
    1RG35   H3'   29  -0.037   0.011  -0.037
    1RG35   C2'   30   0.087   0.020  -0.492
    1RG35  H2'1   31  -0.004  -0.001   0.054
    1RG35   O2'   32  -0.102   0.014   0.138
    1RG35  HO'2   33  -0.009  -0.001  -0.018
    1RG35   O3'   34   0.072  -0.006  -0.155
    1RG35   H3T   35  -0.062  -0.002  -0.000
    1RG35   O3P   36  -0.004   0.011  -0.005
   0.00000   0.00000   0.00000
