Gromacs Runs On Most of All Computer Systems in water t=   0.00008 step= 22
   36
    1RG35     P    1  -0.012   0.011   0.013
    1RG35   O1P    2  -0.049   0.022   0.019
    1RG35   O2P    3  -0.006   0.004   0.029
    1RG35   O5'    4   0.011  -0.010  -0.007
    1RG35   C5'    5   0.017  -0.017  -0.013
    1RG35  H5'1    6   0.030  -0.007  -0.007
    1RG35  H5'2    7   0.020  -0.041  -0.003
    1RG35   C4'    8   0.014  -0.004  -0.018
    1RG35   H4'    9   0.013   0.015  -0.039
    1RG35   O4'   10   0.021  -0.000  -0.015
    1RG35   C1'   11   0.018   0.002  -0.004
    1RG35   H1'   12   0.019   0.002  -0.020
    1RG35    N9   13   0.037   0.061  -0.043
    1RG35    C8   14  -0.003   0.034  -0.017
    1RG35    H8   15  -0.211  -0.325   0.247
    1RG35    N7   16   0.162   0.347  -0.243
    1RG35    C5   17   0.141   0.285  -0.204
    1RG35    C6   18  -0.004   0.006  -0.015
    1RG35    O6   19  -0.161  -0.288   0.162
    1RG35    N1   20  -0.022  -0.041   0.031
    1RG35    H1   21   0.068   0.145  -0.088
    1RG35    C2   22  -0.109  -0.227   0.170
    1RG35    N2   23  -0.049  -0.105   0.099
    1RG35   H21   24   0.019   0.043  -0.009
    1RG35   H22   25   0.074   0.168  -0.134
    1RG35    N3   26  -0.087  -0.186   0.138
    1RG35    C4   27   0.051   0.088  -0.063
    1RG35   C3'   28   0.003   0.002   0.005
    1RG35   H3'   29   0.001  -0.013   0.018
    1RG35   C2'   30   0.002  -0.002   0.003
    1RG35  H2'1   31  -0.007  -0.004   0.011
    1RG35   O2'   32  -0.001  -0.002  -0.008
    1RG35  HO'2   33  -0.004   0.003  -0.007
    1RG35   O3'   34   0.011   0.039   0.004
    1RG35   H3T   35   0.015  -0.008   0.006
    1RG35   O3P   36  -0.022   0.004   0.002
   0.00000   0.00000   0.00000
