Gromacs Runs On Most of All Computer Systems in water t=   0.00065 step= 5
   36
    1RG35     P    1  -0.006   0.177  -0.051
    1RG35   O1P    2   0.032   0.242  -0.062
    1RG35   O2P    3   0.031   0.220  -0.056
    1RG35   O5'    4   0.044   0.079   0.020
    1RG35   C5'    5   0.047  -0.024   0.158
    1RG35  H5'1    6   0.018   0.125   0.339
    1RG35  H5'2    7   0.079  -0.236   0.249
    1RG35   C4'    8   0.053  -0.040  -0.006
    1RG35   H4'    9   0.009  -0.060  -0.066
    1RG35   O4'   10   0.159  -0.044  -0.043
    1RG35   C1'   11   0.047   0.013  -0.069
    1RG35   H1'   12   0.070   0.112  -0.123
    1RG35    N9   13  -0.006  -0.072  -0.012
    1RG35    C8   14  -0.046  -0.161   0.044
    1RG35    H8   15  -0.085  -0.234   0.084
    1RG35    N7   16  -0.031  -0.145   0.035
    1RG35    C5   17   0.009  -0.064  -0.013
    1RG35    C6   18   0.048   0.003  -0.050
    1RG35    O6   19   0.071   0.036  -0.072
    1RG35    N1   20   0.057   0.031  -0.058
    1RG35    H1   21   0.083   0.080  -0.081
    1RG35    C2   22   0.015  -0.014  -0.025
    1RG35    N2   23  -0.040  -0.070   0.060
    1RG35   H21   24  -0.031  -0.088   0.111
    1RG35   H22   25  -0.116  -0.138   0.121
    1RG35    N3   26  -0.007  -0.047  -0.012
    1RG35    C4   27  -0.003  -0.063  -0.013
    1RG35   C3'   28  -0.003  -0.059  -0.020
    1RG35   H3'   29  -0.020  -0.095  -0.021
    1RG35   C2'   30  -0.059   0.022  -0.044
    1RG35  H2'1   31  -0.155  -0.005   0.000
    1RG35   O2'   32  -0.068   0.160  -0.095
    1RG35  HO'2   33  -0.074   0.273  -0.091
    1RG35   O3'   34  -0.003  -0.064  -0.020
    1RG35   H3T   35  -0.003   0.016  -0.031
    1RG35   O3P   36  -0.115   0.137  -0.086
   0.00000   0.00000   0.00000
