Gromacs Runs On Most of All Computer Systems in water t=   0.00003 step= 34
   36
    1RG35     P    1   0.016  -0.005  -0.012
    1RG35   O1P    2   0.002  -0.030  -0.011
    1RG35   O2P    3   0.016   0.005  -0.027
    1RG35   O5'    4   0.017  -0.001   0.014
    1RG35   C5'    5   0.014  -0.007   0.021
    1RG35  H5'1    6   0.022  -0.037  -0.017
    1RG35  H5'2    7  -0.054  -0.035   0.041
    1RG35   C4'    8   0.018   0.010   0.011
    1RG35   H4'    9   0.021   0.040  -0.016
    1RG35   O4'   10   0.030   0.061   0.005
    1RG35   C1'   11   0.080   0.025   0.007
    1RG35   H1'   12   0.057  -0.087  -0.024
    1RG35    N9   13   0.061   0.106  -0.050
    1RG35    C8   14  -0.022   0.056  -0.047
    1RG35    H8   15  -0.105  -0.095  -0.131
    1RG35    N7   16  -0.030  -0.002   0.046
    1RG35    C5   17   0.004   0.034   0.058
    1RG35    C6   18  -0.044   0.026  -0.008
    1RG35    O6   19  -0.460   0.158  -0.140
    1RG35    N1   20   0.112  -0.022   0.016
    1RG35    H1   21   0.360   0.095   0.498
    1RG35    C2   22   0.005  -0.065  -0.048
    1RG35    N2   23   0.050   0.078  -0.247
    1RG35   H21   24   0.024  -0.106   0.007
    1RG35   H22   25  -0.304  -0.025  -0.143
    1RG35    N3   26   0.019  -0.108   0.050
    1RG35    C4   27   0.019  -0.012   0.063
    1RG35   C3'   28   0.008  -0.007   0.001
    1RG35   H3'   29   0.020   0.011   0.016
    1RG35   C2'   30   0.012  -0.028   0.017
    1RG35  H2'1   31  -0.031  -0.043  -0.030
    1RG35   O2'   32   0.013  -0.010   0.041
    1RG35  HO'2   33  -0.018   0.018   0.064
    1RG35   O3'   34   0.008   0.007  -0.007
    1RG35   H3T   35   0.014  -0.009  -0.014
    1RG35   O3P   36   0.043   0.005  -0.004
   0.00000   0.00000   0.00000
