Gromacs Runs On Most of All Computer Systems in water t=   0.00028 step= 10
   36
    1RG35     P    1   0.015   0.041  -0.041
    1RG35   O1P    2   0.158  -0.013  -0.058
    1RG35   O2P    3   0.003   0.137  -0.188
    1RG35   O5'    4   0.064  -0.056   0.103
    1RG35   C5'    5   0.033  -0.028  -0.039
    1RG35  H5'1    6   0.044  -0.194  -0.230
    1RG35  H5'2    7  -0.029   0.195  -0.134
    1RG35   C4'    8   0.048  -0.031   0.076
    1RG35   H4'    9   0.076  -0.002   0.097
    1RG35   O4'   10   0.010   0.044   0.063
    1RG35   C1'   11   0.020   0.040  -0.007
    1RG35   H1'   12   0.020   0.041  -0.010
    1RG35    N9   13   0.038   0.092  -0.044
    1RG35    C8   14  -0.026  -0.005   0.035
    1RG35    H8   15  -0.081  -0.101   0.113
    1RG35    N7   16  -0.034  -0.011   0.039
    1RG35    C5   17   0.018   0.076  -0.031
    1RG35    C6   18  -0.011   0.028  -0.005
    1RG35    O6   19  -0.066  -0.064   0.053
    1RG35    N1   20   0.009   0.053  -0.028
    1RG35    H1   21  -0.036  -0.031   0.015
    1RG35    C2   22   0.066   0.142  -0.092
    1RG35    N2   23  -0.008  -0.039   0.028
    1RG35   H21   24  -0.125  -0.282   0.207
    1RG35   H22   25   0.038  -0.004  -0.008
    1RG35    N3   26   0.113   0.224  -0.146
    1RG35    C4   27   0.078   0.168  -0.101
    1RG35   C3'   28  -0.013  -0.058   0.077
    1RG35   H3'   29   0.013  -0.063   0.153
    1RG35   C2'   30   0.007  -0.036  -0.036
    1RG35  H2'1   31   0.002  -0.037  -0.093
    1RG35   O2'   32  -0.004  -0.069  -0.050
    1RG35  HO'2   33   0.055   0.189  -0.070
    1RG35   O3'   34  -0.159  -0.130   0.100
    1RG35   H3T   35  -0.184  -0.272   0.214
    1RG35   O3P   36  -0.152   0.057   0.039
   0.00000   0.00000   0.00000
