Gromacs Runs On Most of All Computer Systems in water t=   0.00003 step= 36
   36
    1RG35     P    1   0.006   0.013  -0.091
    1RG35   O1P    2  -0.172  -0.097  -0.071
    1RG35   O2P    3   0.085   0.071  -0.064
    1RG35   O5'    4  -0.015  -0.006  -0.034
    1RG35   C5'    5  -0.046   0.016  -0.087
    1RG35  H5'1    6   0.506   0.216  -0.097
    1RG35  H5'2    7  -0.474  -0.150   0.032
    1RG35   C4'    8  -0.088   0.019   0.005
    1RG35   H4'    9  -0.054  -0.082   0.169
    1RG35   O4'   10  -0.087   0.038   0.015
    1RG35   C1'   11  -0.002   0.003   0.013
    1RG35   H1'   12   0.039   0.192  -0.021
    1RG35    N9   13   0.016   0.004   0.003
    1RG35    C8   14   0.021  -0.017   0.015
    1RG35    H8   15   0.039   0.014   0.038
    1RG35    N7   16   0.007  -0.016  -0.007
    1RG35    C5   17   0.004  -0.023  -0.024
    1RG35    C6   18   0.003  -0.028  -0.039
    1RG35    O6   19   0.007  -0.039  -0.052
    1RG35    N1   20  -0.002   0.001  -0.016
    1RG35    H1   21   0.002  -0.005   0.007
    1RG35    C2   22  -0.015   0.003   0.005
    1RG35    N2   23  -0.012   0.009   0.022
    1RG35   H21   24  -0.022   0.008  -0.002
    1RG35   H22   25   0.032   0.006   0.024
    1RG35    N3   26  -0.015   0.001   0.007
    1RG35    C4   27  -0.001  -0.014  -0.010
    1RG35   C3'   28  -0.045   0.007   0.074
    1RG35   H3'   29   0.086   0.126   0.277
    1RG35   C2'   30  -0.004  -0.072   0.013
    1RG35  H2'1   31  -0.121  -0.102   0.126
    1RG35   O2'   32  -0.006  -0.053  -0.044
    1RG35  HO'2   33   0.062  -0.005  -0.078
    1RG35   O3'   34   0.027  -0.126   0.071
    1RG35   H3T   35   0.076   0.009  -0.135
    1RG35   O3P   36   0.161   0.081  -0.043
   0.00000   0.00000   0.00000
