Gromacs Runs On Most of All Computer Systems in water t=   0.00000 step= 94
   36
    1RG35     P    1  -0.031   0.031   0.025
    1RG35   O1P    2   0.002  -0.003   0.000
    1RG35   O2P    3   0.011  -0.013  -0.007
    1RG35   O5'    4   0.102  -0.109  -0.053
    1RG35   C5'    5  -0.125   0.707   0.169
    1RG35  H5'1    6   0.121  -0.341   0.278
    1RG35  H5'2    7  -0.039  -0.200  -0.394
    1RG35   C4'    8  -0.053  -0.097  -0.004
    1RG35   H4'    9   0.013   0.009  -0.000
    1RG35   O4'   10   0.006   0.009   0.004
    1RG35   C1'   11  -0.006  -0.006  -0.008
    1RG35   H1'   12   0.002   0.001   0.001
    1RG35    N9   13   0.001   0.004   0.009
    1RG35    C8   14  -0.025   0.016  -0.001
    1RG35    H8   15   0.014  -0.008   0.001
    1RG35    N7   16  -0.000  -0.006  -0.007
    1RG35    C5   17  -0.003   0.001   0.001
    1RG35    C6   18   0.002  -0.003  -0.003
    1RG35    O6   19  -0.001  -0.000  -0.003
    1RG35    N1   20   0.004  -0.002  -0.000
    1RG35    H1   21  -0.004   0.004  -0.001
    1RG35    C2   22   0.007  -0.012  -0.011
    1RG35    N2   23  -0.031   0.047   0.038
    1RG35   H21   24   0.030  -0.024  -0.017
    1RG35   H22   25  -0.003  -0.015  -0.022
    1RG35    N3   26  -0.002   0.009   0.008
    1RG35    C4   27   0.003  -0.002  -0.004
    1RG35   C3'   28   0.005   0.008   0.001
    1RG35   H3'   29  -0.003  -0.000  -0.001
    1RG35   C2'   30   0.003  -0.003   0.003
    1RG35  H2'1   31  -0.001   0.000   0.000
    1RG35   O2'   32  -0.001   0.000   0.002
    1RG35  HO'2   33  -0.001  -0.000  -0.003
    1RG35   O3'   34  -0.025  -0.002  -0.008
    1RG35   H3T   35   0.024  -0.000   0.006
    1RG35   O3P   36   0.003  -0.002  -0.000
   0.00000   0.00000   0.00000
