Gromacs Runs On Most of All Computer Systems in water t=   0.00002 step= 41
   36
    1RG35     P    1  -0.004   0.027  -0.085
    1RG35   O1P    2  -0.284  -0.129  -0.050
    1RG35   O2P    3  -0.011   0.021  -0.081
    1RG35   O5'    4   0.073   0.035   0.063
    1RG35   C5'    5   0.119  -0.059   0.309
    1RG35  H5'1    6   0.017  -0.282   0.107
    1RG35  H5'2    7  -0.017   0.299   0.169
    1RG35   C4'    8   0.114  -0.074  -0.035
    1RG35   H4'    9   0.052   0.055  -0.279
    1RG35   O4'   10  -0.143  -0.006   0.002
    1RG35   C1'   11  -0.265   0.040  -0.000
    1RG35   H1'   12  -0.249   0.121  -0.054
    1RG35    N9   13  -0.026   0.103  -0.030
    1RG35    C8   14   0.057   0.037  -0.005
    1RG35    H8   15   0.053   0.025   0.087
    1RG35    N7   16   0.016  -0.097   0.089
    1RG35    C5   17   0.055   0.002  -0.018
    1RG35    C6   18   0.045  -0.029  -0.066
    1RG35    O6   19  -0.012  -0.058  -0.083
    1RG35    N1   20   0.038  -0.038  -0.037
    1RG35    H1   21   0.059  -0.036  -0.000
    1RG35    C2   22  -0.047  -0.068   0.024
    1RG35    N2   23   0.017   0.067  -0.030
    1RG35   H21   24  -0.012   0.001   0.021
    1RG35   H22   25   0.054  -0.014   0.037
    1RG35    N3   26  -0.051  -0.029  -0.002
    1RG35    C4   27  -0.007   0.066  -0.035
    1RG35   C3'   28   0.099  -0.055  -0.058
    1RG35   H3'   29   0.176   0.081  -0.019
    1RG35   C2'   30  -0.031   0.000  -0.007
    1RG35  H2'1   31   0.006   0.015   0.230
    1RG35   O2'   32  -0.052  -0.138  -0.026
    1RG35  HO'2   33  -0.002   0.009  -0.076
    1RG35   O3'   34   0.026   0.018  -0.062
    1RG35   H3T   35  -0.003   0.014   0.060
    1RG35   O3P   36   0.138   0.074  -0.061
   0.00000   0.00000   0.00000
