Gromacs Runs On Most of All Computer Systems in water t=   0.00006 step= 23
   36
    1RG35     P    1   0.028   0.007   0.013
    1RG35   O1P    2   0.156   0.037  -0.009
    1RG35   O2P    3  -0.076  -0.070  -0.033
    1RG35   O5'    4   0.010   0.033   0.098
    1RG35   C5'    5  -0.045   0.004  -0.014
    1RG35  H5'1    6  -0.041   0.043   0.029
    1RG35  H5'2    7  -0.246  -0.127   0.066
    1RG35   C4'    8   0.076  -0.103  -0.162
    1RG35   H4'    9   0.087  -0.197  -0.046
    1RG35   O4'   10  -0.151   0.025  -0.154
    1RG35   C1'   11  -0.023  -0.030  -0.064
    1RG35   H1'   12  -0.085  -0.326  -0.061
    1RG35    N9   13   0.020   0.005  -0.009
    1RG35    C8   14  -0.006   0.035   0.027
    1RG35    H8   15  -0.004   0.060   0.099
    1RG35    N7   16  -0.037   0.028   0.026
    1RG35    C5   17  -0.032   0.026   0.018
    1RG35    C6   18  -0.045   0.034   0.019
    1RG35    O6   19  -0.071   0.047   0.009
    1RG35    N1   20  -0.036   0.026   0.020
    1RG35    H1   21  -0.042   0.026   0.008
    1RG35    C2   22  -0.003   0.029   0.021
    1RG35    N2   23   0.007   0.007   0.028
    1RG35   H21   24  -0.003   0.008   0.005
    1RG35   H22   25   0.050  -0.005   0.034
    1RG35    N3   26  -0.009   0.017   0.023
    1RG35    C4   27  -0.000   0.012   0.012
    1RG35   C3'   28   0.207  -0.022  -0.070
    1RG35   H3'   29   0.249  -0.054   0.073
    1RG35   C2'   30   0.092   0.111  -0.061
    1RG35  H2'1   31  -0.158   0.044   0.067
    1RG35   O2'   32   0.148   0.417  -0.098
    1RG35  HO'2   33   0.128  -0.214  -0.107
    1RG35   O3'   34  -0.060   0.116  -0.050
    1RG35   H3T   35  -0.131  -0.045   0.254
    1RG35   O3P   36   0.046  -0.003  -0.009
   0.00000   0.00000   0.00000
