Gromacs Runs On Most of All Computer Systems in water t=   0.00000 step= 90
   36
    1RG35     P    1  -0.009   0.014   0.004
    1RG35   O1P    2   0.000  -0.002  -0.002
    1RG35   O2P    3   0.005  -0.006  -0.001
    1RG35   O5'    4   0.008  -0.002  -0.000
    1RG35   C5'    5  -0.014   0.002   0.003
    1RG35  H5'1    6   0.004  -0.002   0.002
    1RG35  H5'2    7   0.001  -0.001  -0.004
    1RG35   C4'    8   0.005   0.003   0.001
    1RG35   H4'    9   0.000  -0.000  -0.001
    1RG35   O4'   10  -0.002  -0.005  -0.003
    1RG35   C1'   11  -0.007   0.028   0.015
    1RG35   H1'   12  -0.021   0.007   0.000
    1RG35    N9   13   0.224  -0.114   0.016
    1RG35    C8   14   0.042  -0.051  -0.040
    1RG35    H8   15  -0.021   0.008  -0.003
    1RG35    N7   16  -0.174   0.100   0.009
    1RG35    C5   17   0.491  -0.198   0.092
    1RG35    C6   18  -0.266   0.244   0.166
    1RG35    O6   19   0.052  -0.082  -0.087
    1RG35    N1   20  -0.044  -0.010  -0.046
    1RG35    H1   21   0.083  -0.047  -0.010
    1RG35    C2   22  -0.087   0.089   0.049
    1RG35    N2   23   0.002   0.008   0.008
    1RG35   H21   24   0.004  -0.001  -0.001
    1RG35   H22   25  -0.005  -0.011  -0.019
    1RG35    N3   26   0.247  -0.091   0.065
    1RG35    C4   27  -0.506   0.128  -0.207
    1RG35   C3'   28   0.003   0.005   0.009
    1RG35   H3'   29  -0.001  -0.001  -0.002
    1RG35   C2'   30  -0.010  -0.004  -0.005
    1RG35  H2'1   31   0.001  -0.003  -0.000
    1RG35   O2'   32   0.001   0.002  -0.002
    1RG35  HO'2   33  -0.002   0.000  -0.002
    1RG35   O3'   34  -0.038  -0.002  -0.016
    1RG35   H3T   35   0.031   0.001   0.008
    1RG35   O3P   36   0.003  -0.007   0.005
   0.00000   0.00000   0.00000
