Gromacs Runs On Most of All Computer Systems in water t=   0.00001 step= 54
   36
    1RG35     P    1  -0.141  -0.073  -0.030
    1RG35   O1P    2   0.094   0.072  -0.138
    1RG35   O2P    3   0.049   0.107   0.086
    1RG35   O5'    4  -0.263  -0.135  -0.007
    1RG35   C5'    5  -0.110  -0.003   0.027
    1RG35  H5'1    6   0.062   0.031  -0.006
    1RG35  H5'2    7   0.031   0.023   0.000
    1RG35   C4'    8   0.043  -0.103   0.021
    1RG35   H4'    9   0.087   0.043  -0.051
    1RG35   O4'   10   0.045  -0.030   0.045
    1RG35   C1'   11   0.005   0.033   0.016
    1RG35   H1'   12  -0.009  -0.029   0.069
    1RG35    N9   13   0.151   0.211  -0.110
    1RG35    C8   14  -0.135  -0.286   0.246
    1RG35    H8   15   0.066   0.037  -0.092
    1RG35    N7   16   0.033   0.176  -0.103
    1RG35    C5   17  -0.089  -0.079   0.019
    1RG35    C6   18  -0.143  -0.188   0.118
    1RG35    O6   19   0.072   0.102  -0.028
    1RG35    N1   20   0.027   0.082  -0.071
    1RG35    H1   21   0.001  -0.001   0.028
    1RG35    C2   22   0.043   0.020  -0.050
    1RG35    N2   23   0.003   0.002   0.023
    1RG35   H21   24  -0.019  -0.002  -0.015
    1RG35   H22   25   0.008   0.022   0.010
    1RG35    N3   26  -0.039  -0.143   0.054
    1RG35    C4   27   0.094   0.124  -0.124
    1RG35   C3'   28  -0.024  -0.165  -0.061
    1RG35   H3'   29   0.123   0.091   0.018
    1RG35   C2'   30  -0.226  -0.071   0.018
    1RG35  H2'1   31   0.148   0.030  -0.014
    1RG35   O2'   32  -0.284   0.076   0.089
    1RG35  HO'2   33   0.103  -0.027  -0.068
    1RG35   O3'   34   0.068   0.036  -0.111
    1RG35   H3T   35   0.021  -0.000   0.095
    1RG35   O3P   36   0.104   0.017   0.098
   0.00000   0.00000   0.00000
