Gromacs Runs On Most of All Computer Systems in water t=   0.00001 step= 55
   36
    1RG35     P    1  -0.110  -0.054  -0.032
    1RG35   O1P    2   0.086   0.031  -0.142
    1RG35   O2P    3   0.033   0.065   0.108
    1RG35   O5'    4  -0.180  -0.088  -0.017
    1RG35   C5'    5  -0.039  -0.006   0.037
    1RG35  H5'1    6   0.052  -0.001   0.005
    1RG35  H5'2    7   0.019   0.021   0.018
    1RG35   C4'    8   0.122  -0.103  -0.005
    1RG35   H4'    9   0.101  -0.051  -0.103
    1RG35   O4'   10  -0.133  -0.102   0.076
    1RG35   C1'   11  -0.061  -0.035   0.045
    1RG35   H1'   12  -0.037   0.056  -0.073
    1RG35    N9   13   0.070   0.045   0.007
    1RG35    C8   14  -0.010  -0.061   0.091
    1RG35    H8   15   0.029  -0.031  -0.072
    1RG35    N7   16  -0.063   0.058  -0.027
    1RG35    C5   17  -0.073  -0.013  -0.016
    1RG35    C6   18  -0.097  -0.082   0.056
    1RG35    O6   19   0.039   0.049   0.003
    1RG35    N1   20  -0.016   0.033  -0.037
    1RG35    H1   21  -0.009   0.018   0.041
    1RG35    C2   22   0.048  -0.003  -0.045
    1RG35    N2   23  -0.002   0.021   0.034
    1RG35   H21   24  -0.049   0.004  -0.020
    1RG35   H22   25  -0.001   0.029   0.023
    1RG35    N3   26   0.014  -0.139   0.021
    1RG35    C4   27   0.089   0.089  -0.091
    1RG35   C3'   28   0.119   0.123   0.225
    1RG35   H3'   29  -0.111  -0.024  -0.205
    1RG35   C2'   30   0.308   0.200   0.029
    1RG35  H2'1   31  -0.199   0.068   0.018
    1RG35   O2'   32   0.338  -0.144  -0.114
    1RG35  HO'2   33  -0.108   0.027   0.041
    1RG35   O3'   34  -0.176   0.011   0.285
    1RG35   H3T   35  -0.066  -0.033  -0.250
    1RG35   O3P   36   0.071   0.021   0.083
   0.00000   0.00000   0.00000
