Gromacs Runs On Most of All Computer Systems in water t=   0.00004 step= 29
   36
    1RG35     P    1  -0.005   0.012   0.008
    1RG35   O1P    2   0.001   0.004   0.007
    1RG35   O2P    3  -0.066  -0.036  -0.008
    1RG35   O5'    4   0.009   0.021   0.026
    1RG35   C5'    5   0.011   0.003  -0.012
    1RG35  H5'1    6   0.010  -0.008  -0.022
    1RG35  H5'2    7  -0.068  -0.049   0.019
    1RG35   C4'    8   0.081  -0.047  -0.050
    1RG35   H4'    9   0.195  -0.211   0.320
    1RG35   O4'   10  -0.018   0.061  -0.048
    1RG35   C1'   11   0.051   0.020  -0.037
    1RG35   H1'   12   0.093   0.177  -0.253
    1RG35    N9   13   0.018   0.000  -0.013
    1RG35    C8   14  -0.002  -0.015  -0.001
    1RG35    H8   15   0.010   0.002  -0.018
    1RG35    N7   16  -0.029  -0.033   0.003
    1RG35    C5   17  -0.012   0.011  -0.021
    1RG35    C6   18  -0.007   0.036  -0.025
    1RG35    O6   19  -0.059  -0.017   0.004
    1RG35    N1   20   0.026   0.094  -0.044
    1RG35    H1   21  -0.022  -0.013   0.048
    1RG35    C2   22  -0.012   0.020   0.010
    1RG35    N2   23  -0.022  -0.013   0.040
    1RG35   H21   24  -0.024   0.008  -0.003
    1RG35   H22   25   0.046   0.030  -0.004
    1RG35    N3   26  -0.043  -0.030   0.023
    1RG35    C4   27  -0.014  -0.020  -0.003
    1RG35   C3'   28   0.025  -0.034  -0.156
    1RG35   H3'   29  -0.037  -0.171  -0.154
    1RG35   C2'   30  -0.006   0.041   0.058
    1RG35  H2'1   31   0.395   0.160   0.378
    1RG35   O2'   32  -0.031  -0.044   0.125
    1RG35  HO'2   33  -0.083   0.022   0.172
    1RG35   O3'   34  -0.206   0.058  -0.216
    1RG35   H3T   35  -0.232  -0.053  -0.152
    1RG35   O3P   36   0.026   0.014   0.001
   0.00000   0.00000   0.00000
