Gromacs Runs On Most of All Computer Systems in water t=  -1.00000 step= -1
   36
    1RG35     P    1   0.200   0.426   0.032
    1RG35   O1P    2   0.160   0.545   0.110
    1RG35   O2P    3   0.338   0.372   0.045
    1RG35   O5'    4   0.097   0.307   0.065
    1RG35   C5'    5  -0.040   0.335   0.095
    1RG35  H5'1    6  -0.078   0.389   0.020
    1RG35  H5'2    7  -0.044   0.388   0.180
    1RG35   C4'    8  -0.115   0.205   0.111
    1RG35   H4'    9  -0.210   0.225   0.134
    1RG35   O4'   10  -0.111   0.130  -0.013
    1RG35   C1'   11  -0.102  -0.008   0.022
    1RG35   H1'   12  -0.186  -0.052  -0.011
    1RG35    N9   13   0.016  -0.065  -0.045
    1RG35    C8   14   0.146  -0.018  -0.045
    1RG35    H8   15   0.175   0.065   0.004
    1RG35    N7   16   0.228  -0.092  -0.115
    1RG35    C5   17   0.147  -0.194  -0.164
    1RG35    C6   18   0.175  -0.305  -0.246
    1RG35    O6   19   0.287  -0.329  -0.290
    1RG35    N1   20   0.064  -0.385  -0.273
    1RG35    H1   21   0.079  -0.465  -0.331
    1RG35    C2   22  -0.069  -0.364  -0.227
    1RG35    N2   23  -0.172  -0.445  -0.256
    1RG35   H21   24  -0.158  -0.526  -0.313
    1RG35   H22   25  -0.263  -0.425  -0.220
    1RG35    N3   26  -0.088  -0.258  -0.150
    1RG35    C4   27   0.018  -0.178  -0.122
    1RG35   C3'   28  -0.044   0.118   0.214
    1RG35   H3'   29   0.054   0.133   0.222
    1RG35   C2'   30  -0.086  -0.023   0.173
    1RG35  H2'1   31  -0.027  -0.098   0.204
    1RG35   O2'   32  -0.212  -0.052   0.230
    1RG35  HO'2   33  -0.202  -0.062   0.329
    1RG35   O3'   34  -0.094   0.147   0.344
    1RG35   H3T   35  -0.047   0.090   0.411
    1RG35   O3P   36   0.174   0.458  -0.124
   0.00000   0.00000   0.00000
