Gromacs Runs On Most of All Computer Systems in water t=   0.00003 step= 33
   36
    1RG35     P    1  -0.019   0.027   0.001
    1RG35   O1P    2   0.019   0.043  -0.000
    1RG35   O2P    3  -0.098  -0.037  -0.008
    1RG35   O5'    4  -0.008   0.013  -0.016
    1RG35   C5'    5   0.041   0.011   0.002
    1RG35  H5'1    6   0.236   0.067  -0.012
    1RG35  H5'2    7   0.320   0.096  -0.065
    1RG35   C4'    8  -0.043  -0.046   0.039
    1RG35   H4'    9  -0.178  -0.319   0.066
    1RG35   O4'   10  -0.016  -0.123   0.021
    1RG35   C1'   11  -0.159  -0.039  -0.029
    1RG35   H1'   12  -0.140   0.003  -0.292
    1RG35    N9   13  -0.132  -0.034   0.044
    1RG35    C8   14  -0.134   0.032  -0.000
    1RG35    H8   15  -0.137   0.006  -0.164
    1RG35    N7   16  -0.009   0.094   0.053
    1RG35    C5   17  -0.019   0.085   0.112
    1RG35    C6   18  -0.002   0.077   0.147
    1RG35    O6   19   0.026   0.097   0.204
    1RG35    N1   20   0.019  -0.043   0.022
    1RG35    H1   21  -0.012  -0.046  -0.086
    1RG35    C2   22   0.043  -0.049  -0.066
    1RG35    N2   23  -0.028  -0.170  -0.045
    1RG35   H21   24   0.145  -0.013   0.051
    1RG35   H22   25  -0.280  -0.000  -0.170
    1RG35    N3   26   0.075   0.034  -0.051
    1RG35    C4   27  -0.017   0.075   0.056
    1RG35   C3'   28   0.015  -0.005   0.056
    1RG35   H3'   29   0.052   0.070   0.071
    1RG35   C2'   30  -0.010   0.006  -0.014
    1RG35  H2'1   31   0.086   0.037   0.158
    1RG35   O2'   32   0.011   0.002  -0.061
    1RG35  HO'2   33   0.118  -0.023  -0.125
    1RG35   O3'   34   0.103   0.039   0.066
    1RG35   H3T   35   0.117  -0.004   0.037
    1RG35   O3P   36   0.017   0.036  -0.002
   0.00000   0.00000   0.00000
