Gromacs Runs On Most of All Computer Systems in water t=   0.00003 step= 40
   36
    1RG35     P    1   0.006  -0.033   0.098
    1RG35   O1P    2   0.281   0.130   0.065
    1RG35   O2P    3  -0.012  -0.039   0.067
    1RG35   O5'    4  -0.028  -0.014  -0.021
    1RG35   C5'    5  -0.071   0.049  -0.229
    1RG35  H5'1    6  -0.189   0.257   0.047
    1RG35  H5'2    7   0.147  -0.090  -0.190
    1RG35   C4'    8  -0.023  -0.028  -0.103
    1RG35   H4'    9  -0.000   0.000  -0.088
    1RG35   O4'   10  -0.244   0.089  -0.062
    1RG35   C1'   11  -0.100   0.034   0.007
    1RG35   H1'   12  -0.045   0.294  -0.064
    1RG35    N9   13   0.054   0.144  -0.070
    1RG35    C8   14   0.046   0.060  -0.022
    1RG35    H8   15   0.012   0.016   0.072
    1RG35    N7   16  -0.020  -0.078   0.063
    1RG35    C5   17   0.038  -0.007  -0.013
    1RG35    C6   18   0.035  -0.032  -0.064
    1RG35    O6   19  -0.009  -0.043  -0.107
    1RG35    N1   20   0.052  -0.018  -0.029
    1RG35    H1   21   0.066  -0.035   0.036
    1RG35    C2   22  -0.016  -0.055   0.039
    1RG35    N2   23   0.045   0.110  -0.047
    1RG35   H21   24  -0.052  -0.037   0.006
    1RG35   H22   25   0.039  -0.023   0.069
    1RG35    N3   26  -0.015  -0.060   0.065
    1RG35    C4   27   0.020   0.026   0.002
    1RG35   C3'   28   0.046  -0.040  -0.011
    1RG35   H3'   29   0.113   0.039   0.067
    1RG35   C2'   30   0.010  -0.125   0.028
    1RG35  H2'1   31  -0.106  -0.155   0.318
    1RG35   O2'   32  -0.016  -0.218  -0.044
    1RG35  HO'2   33   0.027   0.017  -0.084
    1RG35   O3'   34   0.079  -0.042   0.027
    1RG35   H3T   35   0.061   0.023   0.116
    1RG35   O3P   36  -0.236  -0.117   0.055
   0.00000   0.00000   0.00000
