Gromacs Runs On Most of All Computer Systems in water t=   0.00005 step= 27
   36
    1RG35     P    1   0.072   0.003  -0.005
    1RG35   O1P    2   0.113   0.011  -0.012
    1RG35   O2P    3   0.067   0.011  -0.017
    1RG35   O5'    4   0.050  -0.021  -0.004
    1RG35   C5'    5   0.008  -0.079   0.006
    1RG35  H5'1    6  -0.051  -0.122  -0.017
    1RG35  H5'2    7  -0.022  -0.145   0.039
    1RG35   C4'    8  -0.027  -0.014   0.025
    1RG35   H4'    9  -0.003  -0.066   0.122
    1RG35   O4'   10  -0.040   0.043   0.016
    1RG35   C1'   11  -0.019   0.046   0.036
    1RG35   H1'   12   0.001   0.183   0.238
    1RG35    N9   13  -0.101   0.038  -0.055
    1RG35    C8   14  -0.206   0.123   0.003
    1RG35    H8   15  -0.193   0.259   0.211
    1RG35    N7   16  -0.219   0.084  -0.042
    1RG35    C5   17  -0.104  -0.065  -0.150
    1RG35    C6   18   0.065  -0.115  -0.043
    1RG35    O6   19   0.335  -0.148   0.016
    1RG35    N1   20   0.051  -0.149   0.025
    1RG35    H1   21   0.231   0.038   0.123
    1RG35    C2   22  -0.022  -0.091  -0.087
    1RG35    N2   23  -0.035  -0.080  -0.048
    1RG35   H21   24   0.091   0.019   0.036
    1RG35   H22   25  -0.165  -0.022  -0.088
    1RG35    N3   26  -0.052  -0.025  -0.233
    1RG35    C4   27  -0.095  -0.016  -0.187
    1RG35   C3'   28   0.047   0.021  -0.014
    1RG35   H3'   29   0.048   0.114  -0.119
    1RG35   C2'   30   0.028   0.043   0.024
    1RG35  H2'1   31   0.006   0.036  -0.002
    1RG35   O2'   32   0.042   0.083   0.058
    1RG35  HO'2   33  -0.016  -0.004   0.083
    1RG35   O3'   34   0.020   0.027  -0.001
    1RG35   H3T   35   0.005  -0.027   0.059
    1RG35   O3P   36   0.092   0.007   0.000
   0.00000   0.00000   0.00000
