Gromacs Runs On Most of All Computer Systems in water t=   0.00001 step= 68
   36
    1RG35     P    1  -0.039  -0.001   0.007
    1RG35   O1P    2   0.018   0.008  -0.039
    1RG35   O2P    3  -0.135   0.079   0.063
    1RG35   O5'    4   0.225  -0.235  -0.122
    1RG35   C5'    5   0.140   0.144   0.003
    1RG35  H5'1    6  -0.087   0.078  -0.100
    1RG35  H5'2    7  -0.038   0.034   0.161
    1RG35   C4'    8  -0.055   0.062   0.033
    1RG35   H4'    9  -0.076   0.047   0.027
    1RG35   O4'   10  -0.111  -0.102  -0.052
    1RG35   C1'   11   0.076  -0.177  -0.219
    1RG35   H1'   12   0.109   0.017   0.060
    1RG35    N9   13  -0.104  -0.008  -0.090
    1RG35    C8   14   0.079  -0.027   0.005
    1RG35    H8   15   0.118  -0.057   0.018
    1RG35    N7   16   0.004   0.045   0.064
    1RG35    C5   17  -0.148   0.161   0.132
    1RG35    C6   18  -0.167   0.057  -0.064
    1RG35    O6   19   0.121  -0.054   0.026
    1RG35    N1   20  -0.048  -0.121  -0.215
    1RG35    H1   21   0.152  -0.048   0.044
    1RG35    C2   22  -0.058  -0.061  -0.077
    1RG35    N2   23   0.127   0.004   0.075
    1RG35   H21   24   0.055  -0.097  -0.083
    1RG35   H22   25  -0.034   0.106   0.115
    1RG35    N3   26  -0.045   0.087   0.067
    1RG35    C4   27  -0.128   0.161   0.129
    1RG35   C3'   28   0.108  -0.093   0.038
    1RG35   H3'   29   0.097  -0.050  -0.075
    1RG35   C2'   30  -0.062  -0.015  -0.183
    1RG35  H2'1   31   0.025   0.008   0.026
    1RG35   O2'   32  -0.175   0.012  -0.077
    1RG35  HO'2   33   0.070  -0.005   0.149
    1RG35   O3'   34  -0.068   0.064   0.208
    1RG35   H3T   35   0.017  -0.011  -0.068
    1RG35   O3P   36   0.035  -0.009   0.012
   0.00000   0.00000   0.00000
