Gromacs Runs On Most of All Computer Systems in water t=   0.00000 step= 97
   36
    1RG35     P    1  -0.002  -0.001  -0.002
    1RG35   O1P    2   0.005  -0.001   0.002
    1RG35   O2P    3   0.004  -0.002  -0.003
    1RG35   O5'    4   0.011  -0.004  -0.003
    1RG35   C5'    5  -0.003   0.024   0.008
    1RG35  H5'1    6   0.008  -0.014   0.014
    1RG35  H5'2    7   0.001  -0.008  -0.013
    1RG35   C4'    8  -0.000  -0.001  -0.000
    1RG35   H4'    9   0.005  -0.001   0.002
    1RG35   O4'   10  -0.003  -0.002   0.007
    1RG35   C1'   11   0.012   0.000   0.007
    1RG35   H1'   12  -0.002   0.003   0.001
    1RG35    N9   13  -0.077   0.007  -0.050
    1RG35    C8   14   0.687  -0.311   0.109
    1RG35    H8   15  -0.567   0.267  -0.075
    1RG35    N7   16   0.010   0.021   0.038
    1RG35    C5   17  -0.045   0.010  -0.022
    1RG35    C6   18  -0.000   0.003   0.008
    1RG35    O6   19  -0.001  -0.005  -0.006
    1RG35    N1   20   0.007  -0.017  -0.019
    1RG35    H1   21  -0.029   0.015   0.003
    1RG35    C2   22  -0.004   0.006   0.005
    1RG35    N2   23  -0.007  -0.021  -0.026
    1RG35   H21   24  -0.014   0.010   0.006
    1RG35   H22   25  -0.002   0.016   0.018
    1RG35    N3   26  -0.020   0.003  -0.010
    1RG35    C4   27   0.006  -0.001   0.006
    1RG35   C3'   28   0.002  -0.001   0.001
    1RG35   H3'   29   0.002  -0.001   0.001
    1RG35   C2'   30   0.003   0.006  -0.004
    1RG35  H2'1   31   0.003  -0.005   0.001
    1RG35   O2'   32   0.002   0.001   0.005
    1RG35  HO'2   33   0.003   0.000  -0.001
    1RG35   O3'   34   0.013  -0.000   0.003
    1RG35   H3T   35  -0.004  -0.002  -0.002
    1RG35   O3P   36   0.004  -0.004   0.002
   0.00000   0.00000   0.00000
