Gromacs Runs On Most of All Computer Systems in water t=   0.00000 step= 81
   36
    1RG35     P    1   0.023   0.008   0.008
    1RG35   O1P    2  -0.008  -0.001  -0.013
    1RG35   O2P    3  -0.010   0.007  -0.005
    1RG35   O5'    4  -0.043   0.003   0.002
    1RG35   C5'    5   0.090   0.013   0.008
    1RG35  H5'1    6  -0.020  -0.015   0.003
    1RG35  H5'2    7   0.010   0.023   0.028
    1RG35   C4'    8  -0.221   0.052  -0.491
    1RG35   H4'    9   0.042  -0.014   0.043
    1RG35   O4'   10   0.152   0.191   0.288
    1RG35   C1'   11  -0.069  -0.255  -0.245
    1RG35   H1'   12  -0.024   0.027   0.028
    1RG35    N9   13   0.064   0.054   0.112
    1RG35    C8   14  -0.021   0.119   0.155
    1RG35    H8   15  -0.070   0.021  -0.031
    1RG35    N7   16   0.149  -0.139  -0.087
    1RG35    C5   17  -0.079  -0.030  -0.108
    1RG35    C6   18  -0.019   0.032   0.027
    1RG35    O6   19  -0.005  -0.005  -0.019
    1RG35    N1   20   0.050   0.024   0.075
    1RG35    H1   21   0.000  -0.008  -0.013
    1RG35    C2   22  -0.108   0.012  -0.067
    1RG35    N2   23  -0.029  -0.000  -0.005
    1RG35   H21   24   0.045  -0.036  -0.017
    1RG35   H22   25   0.007   0.030   0.044
    1RG35    N3   26   0.098  -0.046   0.015
    1RG35    C4   27  -0.094   0.067   0.025
    1RG35   C3'   28   0.053  -0.168   0.381
    1RG35   H3'   29  -0.019   0.022  -0.033
    1RG35   C2'   30   0.049   0.024   0.064
    1RG35  H2'1   31  -0.002   0.009  -0.016
    1RG35   O2'   32  -0.010   0.001   0.006
    1RG35  HO'2   33   0.013  -0.003   0.000
    1RG35   O3'   34   0.073  -0.018  -0.166
    1RG35   H3T   35  -0.058  -0.001   0.007
    1RG35   O3P   36  -0.010  -0.000  -0.003
   0.00000   0.00000   0.00000
