Gromacs Runs On Most of All Computer Systems in water t=   0.00001 step= 49
   36
    1RG35     P    1   0.023  -0.010  -0.023
    1RG35   O1P    2  -0.053  -0.123  -0.009
    1RG35   O2P    3   0.107   0.023   0.018
    1RG35   O5'    4  -0.049   0.172   0.111
    1RG35   C5'    5   0.002   0.272   0.081
    1RG35  H5'1    6  -0.071  -0.032  -0.281
    1RG35  H5'2    7   0.137  -0.082   0.263
    1RG35   C4'    8   0.166  -0.021  -0.159
    1RG35   H4'    9   0.158  -0.175  -0.022
    1RG35   O4'   10  -0.095   0.060  -0.169
    1RG35   C1'   11  -0.045  -0.000  -0.045
    1RG35   H1'   12  -0.038   0.056   0.022
    1RG35    N9   13   0.006   0.057  -0.078
    1RG35    C8   14  -0.047  -0.099   0.025
    1RG35    H8   15   0.029   0.072   0.032
    1RG35    N7   16   0.014  -0.065   0.011
    1RG35    C5   17   0.077   0.080  -0.030
    1RG35    C6   18   0.003  -0.022  -0.016
    1RG35    O6   19   0.007  -0.029  -0.041
    1RG35    N1   20  -0.061  -0.077   0.063
    1RG35    H1   21  -0.016   0.022  -0.009
    1RG35    C2   22   0.070   0.159  -0.077
    1RG35    N2   23   0.000  -0.064   0.028
    1RG35   H21   24   0.027  -0.008  -0.019
    1RG35   H22   25  -0.036   0.021  -0.035
    1RG35    N3   26  -0.033  -0.050   0.157
    1RG35    C4   27   0.016   0.020   0.045
    1RG35   C3'   28  -0.254   0.009   0.074
    1RG35   H3'   29  -0.221   0.154  -0.005
    1RG35   C2'   30  -0.012  -0.247  -0.049
    1RG35  H2'1   31   0.125  -0.212  -0.017
    1RG35   O2'   32   0.097   0.194  -0.020
    1RG35  HO'2   33  -0.034  -0.006   0.058
    1RG35   O3'   34   0.007  -0.010   0.169
    1RG35   H3T   35   0.058   0.013   0.017
    1RG35   O3P   36  -0.067  -0.051  -0.070
   0.00000   0.00000   0.00000
