Gromacs Runs On Most of All Computer Systems in water t=   0.00009 step= 20
   36
    1RG35     P    1  -0.044  -0.033   0.021
    1RG35   O1P    2  -0.055  -0.001   0.019
    1RG35   O2P    3   0.000   0.019   0.019
    1RG35   O5'    4   0.013  -0.092   0.049
    1RG35   C5'    5   0.010  -0.074   0.003
    1RG35  H5'1    6   0.044  -0.073  -0.008
    1RG35  H5'2    7  -0.006  -0.117   0.024
    1RG35   C4'    8  -0.001  -0.028  -0.017
    1RG35   H4'    9   0.013  -0.049   0.030
    1RG35   O4'   10  -0.024  -0.034  -0.011
    1RG35   C1'   11   0.044  -0.067   0.016
    1RG35   H1'   12   0.025  -0.138   0.120
    1RG35    N9   13  -0.051  -0.019  -0.016
    1RG35    C8   14  -0.045  -0.005  -0.028
    1RG35    H8   15  -0.037   0.004  -0.061
    1RG35    N7   16  -0.022  -0.002  -0.016
    1RG35    C5   17  -0.033   0.015   0.018
    1RG35    C6   18   0.003   0.046   0.075
    1RG35    O6   19   0.077   0.026   0.107
    1RG35    N1   20  -0.040   0.102   0.104
    1RG35    H1   21   0.010   0.146   0.168
    1RG35    C2   22  -0.078   0.094   0.077
    1RG35    N2   23  -0.044  -0.004  -0.025
    1RG35   H21   24  -0.172  -0.062  -0.214
    1RG35   H22   25   0.144  -0.081   0.001
    1RG35    N3   26  -0.082   0.090   0.035
    1RG35    C4   27  -0.055   0.023   0.005
    1RG35   C3'   28   0.110   0.043   0.008
    1RG35   H3'   29   0.176   0.167   0.034
    1RG35   C2'   30   0.175  -0.043  -0.012
    1RG35  H2'1   31   0.302  -0.008   0.040
    1RG35   O2'   32  -0.061  -0.064  -0.316
    1RG35  HO'2   33  -0.408   0.218  -0.232
    1RG35   O3'   34   0.124   0.098  -0.009
    1RG35   H3T   35   0.135  -0.033  -0.014
    1RG35   O3P   36  -0.147  -0.064   0.006
   0.00000   0.00000   0.00000
