Gromacs Runs On Most of All Computer Systems in water t=   0.00000 step= 72
   36
    1RG35     P    1   0.073   0.036  -0.002
    1RG35   O1P    2  -0.013  -0.009  -0.031
    1RG35   O2P    3  -0.050   0.015   0.018
    1RG35   O5'    4   0.102  -0.069  -0.049
    1RG35   C5'    5  -0.125   0.021   0.018
    1RG35  H5'1    6   0.006   0.073  -0.071
    1RG35  H5'2    7   0.024   0.019   0.070
    1RG35   C4'    8   0.011  -0.264   0.244
    1RG35   H4'    9   0.024   0.031  -0.027
    1RG35   O4'   10   0.015   0.085  -0.155
    1RG35   C1'   11  -0.059  -0.016  -0.158
    1RG35   H1'   12  -0.064   0.029   0.001
    1RG35    N9   13  -0.071  -0.122  -0.229
    1RG35    C8   14   0.040  -0.028  -0.023
    1RG35    H8   15   0.080  -0.041   0.007
    1RG35    N7   16  -0.012   0.116   0.148
    1RG35    C5   17  -0.107   0.081   0.038
    1RG35    C6   18  -0.113   0.042  -0.026
    1RG35    O6   19   0.034  -0.046  -0.052
    1RG35    N1   20   0.043  -0.001   0.039
    1RG35    H1   21   0.036  -0.027  -0.017
    1RG35    C2   22   0.079   0.011   0.073
    1RG35    N2   23  -0.032   0.004  -0.020
    1RG35   H21   24  -0.038   0.037   0.030
    1RG35   H22   25   0.004  -0.041  -0.039
    1RG35    N3   26   0.027   0.004   0.033
    1RG35    C4   27   0.008  -0.022  -0.032
    1RG35   C3'   28   0.021   0.131   0.296
    1RG35   H3'   29  -0.145   0.048   0.013
    1RG35   C2'   30   0.304   0.030   0.314
    1RG35  H2'1   31  -0.019  -0.072  -0.053
    1RG35   O2'   32  -0.174   0.028  -0.031
    1RG35  HO'2   33   0.077  -0.010   0.029
    1RG35   O3'   34   0.104  -0.059  -0.404
    1RG35   H3T   35  -0.078   0.003   0.039
    1RG35   O3P   36  -0.012  -0.018   0.007
   0.00000   0.00000   0.00000
