Gromacs Runs On Most of All Computer Systems in water t=   0.00032 step= 9
   36
    1RG35     P    1   0.028   0.139   0.050
    1RG35   O1P    2   0.251  -0.158   0.049
    1RG35   O2P    3  -0.020   0.347  -0.302
    1RG35   O5'    4   0.086   0.031   0.107
    1RG35   C5'    5   0.028  -0.003  -0.038
    1RG35  H5'1    6   0.056  -0.091  -0.145
    1RG35  H5'2    7  -0.064   0.113  -0.082
    1RG35   C4'    8   0.049  -0.035  -0.042
    1RG35   H4'    9   0.018  -0.018  -0.116
    1RG35   O4'   10   0.113  -0.103  -0.037
    1RG35   C1'   11   0.020  -0.043  -0.006
    1RG35   H1'   12   0.038   0.042  -0.019
    1RG35    N9   13  -0.037  -0.094   0.021
    1RG35    C8   14   0.015  -0.020  -0.039
    1RG35    H8   15   0.052   0.039  -0.096
    1RG35    N7   16   0.034  -0.001  -0.050
    1RG35    C5   17  -0.011  -0.073   0.010
    1RG35    C6   18   0.020  -0.031   0.004
    1RG35    O6   19   0.106   0.072  -0.055
    1RG35    N1   20  -0.029  -0.081   0.058
    1RG35    H1   21   0.007  -0.017   0.032
    1RG35    C2   22  -0.078  -0.122   0.089
    1RG35    N2   23  -0.044   0.018   0.028
    1RG35   H21   24   0.055   0.210  -0.088
    1RG35   H22   25  -0.075   0.076  -0.017
    1RG35    N3   26  -0.109  -0.170   0.105
    1RG35    C4   27  -0.070  -0.143   0.061
    1RG35   C3'   28  -0.007  -0.009   0.021
    1RG35   H3'   29  -0.007  -0.042   0.061
    1RG35   C2'   30  -0.013  -0.011   0.018
    1RG35  H2'1   31  -0.016  -0.011   0.046
    1RG35   O2'   32  -0.044  -0.011  -0.023
    1RG35  HO'2   33  -0.117  -0.140  -0.003
    1RG35   O3'   34  -0.022   0.047   0.013
    1RG35   H3T   35  -0.020   0.011   0.018
    1RG35   O3P   36  -0.193   0.281   0.366
   0.00000   0.00000   0.00000
