Gromacs Runs On Most of All Computer Systems in water t=   0.00000 step= 70
   36
    1RG35     P    1  -0.024  -0.014  -0.003
    1RG35   O1P    2   0.002   0.001   0.021
    1RG35   O2P    3   0.051  -0.011  -0.025
    1RG35   O5'    4  -0.141   0.103   0.059
    1RG35   C5'    5   0.022  -0.075  -0.027
    1RG35  H5'1    6   0.021  -0.069   0.081
    1RG35  H5'2    7  -0.016  -0.037  -0.108
    1RG35   C4'    8   0.106   0.130   0.016
    1RG35   H4'    9  -0.007  -0.047  -0.013
    1RG35   O4'   10   0.075   0.131   0.036
    1RG35   C1'   11  -0.091  -0.089  -0.133
    1RG35   H1'   12  -0.078   0.036   0.022
    1RG35    N9   13   0.099  -0.175  -0.170
    1RG35    C8   14  -0.007   0.019   0.025
    1RG35    H8   15  -0.001  -0.010  -0.021
    1RG35    N7   16  -0.000   0.099   0.142
    1RG35    C5   17  -0.002  -0.046  -0.071
    1RG35    C6   18  -0.094   0.021  -0.078
    1RG35    O6   19   0.021   0.107   0.201
    1RG35    N1   20  -0.099  -0.150  -0.283
    1RG35    H1   21   0.134  -0.046   0.025
    1RG35    C2   22  -0.197   0.034  -0.059
    1RG35    N2   23   0.113  -0.014   0.070
    1RG35   H21   24   0.099  -0.109  -0.079
    1RG35   H22   25  -0.032   0.107   0.113
    1RG35    N3   26  -0.097   0.222   0.221
    1RG35    C4   27   0.113  -0.116  -0.072
    1RG35   C3'   28   0.077   0.163  -0.011
    1RG35   H3'   29  -0.006  -0.033  -0.004
    1RG35   C2'   30   0.008  -0.061   0.096
    1RG35  H2'1   31   0.017  -0.069  -0.026
    1RG35   O2'   32   0.063   0.024   0.346
    1RG35  HO'2   33  -0.103   0.000  -0.285
    1RG35   O3'   34  -0.010  -0.027   0.026
    1RG35   H3T   35  -0.016  -0.000  -0.020
    1RG35   O3P   36  -0.003   0.001  -0.011
   0.00000   0.00000   0.00000
