Gromacs Runs On Most of All Computer Systems in water t=   0.00000 step= 89
   36
    1RG35     P    1  -0.007   0.003  -0.004
    1RG35   O1P    2   0.000   0.001   0.003
    1RG35   O2P    3   0.001  -0.001   0.000
    1RG35   O5'    4   0.009  -0.001  -0.002
    1RG35   C5'    5  -0.023  -0.002   0.005
    1RG35  H5'1    6   0.004  -0.002   0.004
    1RG35  H5'2    7   0.000  -0.001  -0.007
    1RG35   C4'    8   0.012   0.013   0.011
    1RG35   H4'    9  -0.002  -0.003  -0.002
    1RG35   O4'   10  -0.016  -0.032  -0.022
    1RG35   C1'   11  -0.001   0.155   0.195
    1RG35   H1'   12  -0.030  -0.000  -0.013
    1RG35    N9   13   0.240  -0.377  -0.337
    1RG35    C8   14   0.001   0.163   0.232
    1RG35    H8   15  -0.056   0.007  -0.034
    1RG35    N7   16   0.101  -0.108  -0.075
    1RG35    C5   17  -0.099   0.044  -0.005
    1RG35    C6   18   0.078  -0.260  -0.351
    1RG35    O6   19  -0.030   0.134   0.191
    1RG35    N1   20   0.058   0.036   0.101
    1RG35    H1   21  -0.028   0.010  -0.007
    1RG35    C2   22  -0.017   0.020   0.010
    1RG35    N2   23   0.020  -0.003   0.006
    1RG35   H21   24  -0.016   0.012   0.005
    1RG35   H22   25  -0.001  -0.010  -0.013
    1RG35    N3   26   0.104  -0.079  -0.027
    1RG35    C4   27  -0.295   0.289   0.179
    1RG35   C3'   28   0.010   0.005   0.012
    1RG35   H3'   29  -0.003  -0.001  -0.001
    1RG35   C2'   30  -0.006  -0.008  -0.069
    1RG35  H2'1   31   0.003  -0.004   0.010
    1RG35   O2'   32  -0.009   0.003   0.006
    1RG35  HO'2   33  -0.001  -0.000  -0.000
    1RG35   O3'   34  -0.004   0.000  -0.003
    1RG35   H3T   35   0.001   0.000  -0.001
    1RG35   O3P   36   0.001  -0.003   0.002
   0.00000   0.00000   0.00000
