Gromacs Runs On Most of All Computer Systems in water t=   0.00001 step= 60
   36
    1RG35     P    1  -0.024  -0.088   0.154
    1RG35   O1P    2  -0.029   0.202   0.258
    1RG35   O2P    3  -0.096   0.206  -0.293
    1RG35   O5'    4  -0.064  -0.059  -0.146
    1RG35   C5'    5   0.010  -0.014   0.013
    1RG35  H5'1    6   0.019  -0.012   0.002
    1RG35  H5'2    7  -0.033   0.023   0.006
    1RG35   C4'    8   0.046   0.019  -0.003
    1RG35   H4'    9   0.006  -0.036  -0.015
    1RG35   O4'   10   0.088   0.194  -0.059
    1RG35   C1'   11   0.005   0.121   0.060
    1RG35   H1'   12  -0.030  -0.049  -0.051
    1RG35    N9   13  -0.177  -0.194   0.252
    1RG35    C8   14   0.145   0.115  -0.098
    1RG35    H8   15   0.055  -0.062   0.040
    1RG35    N7   16  -0.089  -0.109  -0.042
    1RG35    C5   17  -0.057   0.022  -0.044
    1RG35    C6   18  -0.093  -0.161   0.116
    1RG35    O6   19   0.045   0.071  -0.044
    1RG35    N1   20   0.069   0.005   0.002
    1RG35    H1   21   0.043  -0.046  -0.027
    1RG35    C2   22   0.038   0.056   0.004
    1RG35    N2   23   0.051  -0.000   0.010
    1RG35   H21   24   0.025  -0.047  -0.036
    1RG35   H22   25  -0.038   0.030  -0.003
    1RG35    N3   26  -0.131  -0.115   0.114
    1RG35    C4   27   0.072   0.320  -0.196
    1RG35   C3'   28  -0.030  -0.013   0.012
    1RG35   H3'   29  -0.020   0.020  -0.002
    1RG35   C2'   30   0.006  -0.069   0.040
    1RG35  H2'1   31   0.030  -0.068  -0.009
    1RG35   O2'   32   0.004   0.030  -0.005
    1RG35  HO'2   33  -0.003  -0.001  -0.017
    1RG35   O3'   34  -0.008   0.004   0.017
    1RG35   H3T   35  -0.002   0.001  -0.007
    1RG35   O3P   36   0.169  -0.296  -0.002
   0.00000   0.00000   0.00000
