Gromacs Runs On Most of All Computer Systems in water t=   0.00000 step= 74
   36
    1RG35     P    1  -0.264  -0.142  -0.017
    1RG35   O1P    2   0.047   0.031   0.087
    1RG35   O2P    3   0.118  -0.037  -0.049
    1RG35   O5'    4  -0.089   0.116   0.060
    1RG35   C5'    5   0.318   0.045  -0.079
    1RG35  H5'1    6  -0.028  -0.056   0.056
    1RG35  H5'2    7  -0.066  -0.043  -0.073
    1RG35   C4'    8   0.056   0.193   0.087
    1RG35   H4'    9  -0.095   0.008   0.027
    1RG35   O4'   10   0.044   0.110  -0.214
    1RG35   C1'   11  -0.059  -0.214   0.204
    1RG35   H1'   12  -0.005   0.022  -0.023
    1RG35    N9   13  -0.083  -0.005  -0.169
    1RG35    C8   14   0.000  -0.027  -0.013
    1RG35    H8   15   0.045  -0.010   0.010
    1RG35    N7   16   0.121   0.032   0.143
    1RG35    C5   17  -0.109   0.018  -0.065
    1RG35    C6   18  -0.162   0.051  -0.048
    1RG35    O6   19   0.037  -0.009   0.019
    1RG35    N1   20   0.027  -0.019   0.001
    1RG35    H1   21   0.054  -0.032  -0.003
    1RG35    C2   22   0.113   0.015   0.103
    1RG35    N2   23  -0.040  -0.001  -0.028
    1RG35   H21   24  -0.045   0.046   0.037
    1RG35   H22   25   0.005  -0.048  -0.051
    1RG35    N3   26   0.084   0.021   0.087
    1RG35    C4   27  -0.041  -0.056  -0.089
    1RG35   C3'   28  -0.089  -0.320   0.056
    1RG35   H3'   29   0.042   0.036  -0.019
    1RG35   C2'   30  -0.151   0.065   0.221
    1RG35  H2'1   31  -0.006   0.123  -0.037
    1RG35   O2'   32   0.181  -0.039  -0.248
    1RG35  HO'2   33   0.019   0.004   0.091
    1RG35   O3'   34   0.010   0.026  -0.034
    1RG35   H3T   35  -0.011   0.003   0.010
    1RG35   O3P   36   0.020   0.090  -0.043
   0.00000   0.00000   0.00000
