Gromacs Runs On Most of All Computer Systems in water t=   0.00005 step= 25
   36
    1RG35     P    1  -0.130  -0.024   0.009
    1RG35   O1P    2  -0.174  -0.050   0.019
    1RG35   O2P    3  -0.208  -0.081  -0.014
    1RG35   O5'    4  -0.040   0.019   0.035
    1RG35   C5'    5   0.105   0.167   0.003
    1RG35  H5'1    6   0.342   0.292   0.039
    1RG35  H5'2    7   0.214   0.223  -0.029
    1RG35   C4'    8   0.138   0.074  -0.036
    1RG35   H4'    9   0.165   0.170  -0.084
    1RG35   O4'   10   0.072  -0.037   0.000
    1RG35   C1'   11   0.081  -0.083   0.045
    1RG35   H1'   12   0.056  -0.172   0.181
    1RG35    N9   13  -0.043  -0.054  -0.001
    1RG35    C8   14  -0.087   0.039   0.001
    1RG35    H8   15  -0.072   0.121   0.081
    1RG35    N7   16  -0.096   0.058  -0.049
    1RG35    C5   17  -0.061  -0.017  -0.069
    1RG35    C6   18   0.005  -0.016  -0.009
    1RG35    O6   19   0.074  -0.046   0.020
    1RG35    N1   20   0.018   0.023   0.021
    1RG35    H1   21   0.065   0.031   0.135
    1RG35    C2   22  -0.003   0.043  -0.023
    1RG35    N2   23  -0.003   0.015  -0.009
    1RG35   H21   24  -0.021  -0.018  -0.006
    1RG35   H22   25   0.016  -0.017   0.013
    1RG35    N3   26  -0.054   0.003  -0.067
    1RG35    C4   27  -0.054  -0.034  -0.069
    1RG35   C3'   28   0.032  -0.055  -0.081
    1RG35   H3'   29  -0.034  -0.201  -0.081
    1RG35   C2'   30   0.043  -0.091   0.024
    1RG35  H2'1   31  -0.060  -0.119   0.180
    1RG35   O2'   32   0.036   0.072  -0.051
    1RG35  HO'2   33   0.063  -0.050  -0.061
    1RG35   O3'   34  -0.084  -0.239  -0.064
    1RG35   H3T   35  -0.117   0.080  -0.018
    1RG35   O3P   36  -0.187  -0.025   0.015
   0.00000   0.00000   0.00000
