Gromacs Runs On Most of All Computer Systems in water t=   0.00000 step= 75
   36
    1RG35     P    1   0.279   0.139   0.019
    1RG35   O1P    2  -0.051  -0.031  -0.087
    1RG35   O2P    3  -0.112   0.042   0.044
    1RG35   O5'    4   0.006  -0.090  -0.042
    1RG35   C5'    5  -0.249  -0.047   0.060
    1RG35  H5'1    6   0.027   0.013  -0.009
    1RG35  H5'2    7   0.042   0.024   0.015
    1RG35   C4'    8  -0.045  -0.003  -0.182
    1RG35   H4'    9   0.055  -0.012  -0.001
    1RG35   O4'   10   0.138   0.161   0.134
    1RG35   C1'   11  -0.074  -0.032   0.179
    1RG35   H1'   12  -0.060   0.013  -0.007
    1RG35    N9   13   0.237  -0.162  -0.074
    1RG35    C8   14  -0.072  -0.066  -0.121
    1RG35    H8   15  -0.064   0.049  -0.000
    1RG35    N7   16   0.176  -0.033   0.088
    1RG35    C5   17  -0.139   0.175   0.136
    1RG35    C6   18  -0.348   0.158  -0.055
    1RG35    O6   19   0.100  -0.093  -0.066
    1RG35    N1   20   0.067  -0.027   0.031
    1RG35    H1   21   0.110  -0.071  -0.032
    1RG35    C2   22   0.052   0.075   0.140
    1RG35    N2   23  -0.002   0.006  -0.006
    1RG35   H21   24  -0.019   0.024   0.018
    1RG35   H22   25  -0.007  -0.045  -0.054
    1RG35    N3   26  -0.163   0.017  -0.099
    1RG35    C4   27   0.128  -0.092  -0.035
    1RG35   C3'   28  -0.038  -0.020  -0.188
    1RG35   H3'   29   0.048  -0.015   0.010
    1RG35   C2'   30  -0.110   0.004   0.086
    1RG35  H2'1   31   0.000   0.041  -0.012
    1RG35   O2'   32   0.101  -0.024  -0.129
    1RG35  HO'2   33   0.008  -0.001   0.050
    1RG35   O3'   34  -0.036   0.011   0.156
    1RG35   H3T   35   0.042  -0.003  -0.003
    1RG35   O3P   36  -0.026  -0.091   0.038
   0.00000   0.00000   0.00000
