Gromacs Runs On Most of All Computer Systems in water t=   0.00016 step= 14
   36
    1RG35     P    1   0.080   0.047   0.005
    1RG35   O1P    2   0.127   0.085  -0.006
    1RG35   O2P    3   0.110   0.097  -0.017
    1RG35   O5'    4   0.115  -0.050   0.072
    1RG35   C5'    5   0.089  -0.066   0.013
    1RG35  H5'1    6   0.175  -0.027   0.024
    1RG35  H5'2    7   0.064  -0.106   0.031
    1RG35   C4'    8  -0.004   0.014  -0.047
    1RG35   H4'    9   0.056   0.058   0.019
    1RG35   O4'   10  -0.141   0.098  -0.036
    1RG35   C1'   11  -0.131   0.085  -0.031
    1RG35   H1'   12  -0.143   0.039   0.019
    1RG35    N9   13  -0.081   0.077   0.010
    1RG35    C8   14  -0.082   0.041   0.025
    1RG35    H8   15  -0.087   0.033   0.005
    1RG35    N7   16  -0.066   0.012   0.074
    1RG35    C5   17  -0.067   0.029   0.103
    1RG35    C6   18  -0.052   0.045   0.112
    1RG35    O6   19  -0.037   0.052   0.116
    1RG35    N1   20  -0.036   0.067   0.086
    1RG35    H1   21   0.009   0.151   0.037
    1RG35    C2   22  -0.048  -0.018   0.121
    1RG35    N2   23   0.029  -0.123   0.003
    1RG35   H21   24   0.024   0.027  -0.302
    1RG35   H22   25   0.162  -0.279   0.100
    1RG35    N3   26  -0.071  -0.022   0.130
    1RG35    C4   27  -0.077   0.027   0.101
    1RG35   C3'   28  -0.057  -0.030  -0.106
    1RG35   H3'   29  -0.048  -0.020  -0.094
    1RG35   C2'   30  -0.031  -0.042  -0.117
    1RG35  H2'1   31   0.030  -0.029  -0.280
    1RG35   O2'   32   0.090  -0.225   0.066
    1RG35  HO'2   33   0.359  -0.017  -0.028
    1RG35   O3'   34  -0.115  -0.063  -0.104
    1RG35   H3T   35  -0.123   0.009  -0.097
    1RG35   O3P   36  -0.019   0.025  -0.006
   0.00000   0.00000   0.00000
