Gromacs Runs On Most of All Computer Systems in water t=   0.00002 step= 44
   36
    1RG35     P    1  -0.022   0.002  -0.020
    1RG35   O1P    2   0.012   0.004  -0.030
    1RG35   O2P    3   0.022   0.038  -0.000
    1RG35   O5'    4  -0.057  -0.037   0.014
    1RG35   C5'    5  -0.038  -0.032   0.050
    1RG35  H5'1    6   0.014  -0.051   0.012
    1RG35  H5'2    7   0.037   0.042   0.007
    1RG35   C4'    8  -0.126   0.041   0.022
    1RG35   H4'    9  -0.111   0.153  -0.058
    1RG35   O4'   10  -0.218   0.178  -0.000
    1RG35   C1'   11   0.105  -0.018   0.005
    1RG35   H1'   12   0.139   0.118  -0.132
    1RG35    N9   13  -0.094  -0.227   0.149
    1RG35    C8   14  -0.200  -0.339   0.233
    1RG35    H8   15   0.104   0.198  -0.182
    1RG35    N7   16  -0.054  -0.048   0.023
    1RG35    C5   17   0.096   0.218  -0.149
    1RG35    C6   18   0.073   0.172  -0.064
    1RG35    O6   19  -0.035  -0.065   0.105
    1RG35    N1   20  -0.051  -0.056   0.073
    1RG35    H1   21  -0.020   0.035  -0.008
    1RG35    C2   22  -0.077  -0.173   0.127
    1RG35    N2   23   0.064   0.109  -0.105
    1RG35   H21   24   0.010  -0.033   0.025
    1RG35   H22   25  -0.031  -0.042   0.026
    1RG35    N3   26   0.036   0.010  -0.031
    1RG35    C4   27   0.068   0.097  -0.085
    1RG35   C3'   28   0.062  -0.055  -0.058
    1RG35   H3'   29   0.057  -0.146   0.038
    1RG35   C2'   30   0.109  -0.129  -0.003
    1RG35  H2'1   31   0.021  -0.158  -0.054
    1RG35   O2'   32   0.123   0.102  -0.003
    1RG35  HO'2   33  -0.069   0.004   0.085
    1RG35   O3'   34   0.011   0.042  -0.069
    1RG35   H3T   35  -0.020   0.006   0.057
    1RG35   O3P   36   0.059   0.039   0.000
   0.00000   0.00000   0.00000
