Gromacs Runs On Most of All Computer Systems in water t=   0.00000 step= 80
   36
    1RG35     P    1   0.036   0.016   0.009
    1RG35   O1P    2  -0.005  -0.002  -0.006
    1RG35   O2P    3  -0.004   0.004   0.002
    1RG35   O5'    4  -0.094  -0.000   0.012
    1RG35   C5'    5   0.182   0.049  -0.031
    1RG35  H5'1    6  -0.021  -0.003  -0.003
    1RG35  H5'2    7  -0.018  -0.002   0.011
    1RG35   C4'    8  -0.080  -0.065  -0.058
    1RG35   H4'    9  -0.005   0.010   0.013
    1RG35   O4'   10   0.072   0.088   0.068
    1RG35   C1'   11  -0.059  -0.140  -0.082
    1RG35   H1'   12  -0.032   0.024  -0.006
    1RG35    N9   13   0.078  -0.003   0.043
    1RG35    C8   14   0.008   0.033   0.057
    1RG35    H8   15  -0.022   0.000  -0.017
    1RG35    N7   16  -0.101  -0.013  -0.098
    1RG35    C5   17   0.149  -0.030   0.078
    1RG35    C6   18   0.046  -0.069  -0.072
    1RG35    O6   19  -0.004   0.051   0.079
    1RG35    N1   20  -0.145  -0.080  -0.233
    1RG35    H1   21  -0.009   0.037   0.049
    1RG35    C2   22   0.351  -0.052   0.193
    1RG35    N2   23   0.054  -0.007   0.000
    1RG35   H21   24  -0.136   0.109   0.062
    1RG35   H22   25  -0.013  -0.094  -0.113
    1RG35    N3   26  -0.207   0.086  -0.044
    1RG35    C4   27  -0.050   0.069   0.058
    1RG35   C3'   28  -0.225  -0.224  -0.236
    1RG35   H3'   29  -0.011   0.029   0.035
    1RG35   C2'   30   0.441   0.141   0.045
    1RG35  H2'1   31  -0.046   0.009  -0.006
    1RG35   O2'   32  -0.180   0.012   0.101
    1RG35  HO'2   33   0.021  -0.005  -0.031
    1RG35   O3'   34  -0.020   0.021   0.094
    1RG35   H3T   35   0.054   0.004   0.026
    1RG35   O3P   36  -0.004  -0.007   0.001
   0.00000   0.00000   0.00000
