Gromacs Runs On Most of All Computer Systems in water t=   0.00000 step= 79
   36
    1RG35     P    1  -0.035  -0.008  -0.012
    1RG35   O1P    2   0.003   0.004   0.010
    1RG35   O2P    3   0.009  -0.005  -0.009
    1RG35   O5'    4   0.044   0.004  -0.008
    1RG35   C5'    5  -0.065  -0.017   0.017
    1RG35  H5'1    6   0.006  -0.005   0.003
    1RG35  H5'2    7   0.009   0.003  -0.002
    1RG35   C4'    8  -0.006   0.045  -0.066
    1RG35   H4'    9   0.009  -0.012   0.000
    1RG35   O4'   10  -0.029  -0.035   0.042
    1RG35   C1'   11   0.035   0.050  -0.207
    1RG35   H1'   12   0.016  -0.013   0.038
    1RG35    N9   13  -0.004   0.023   0.049
    1RG35    C8   14   0.020   0.017   0.036
    1RG35    H8   15  -0.003  -0.004  -0.012
    1RG35    N7   16  -0.154   0.010  -0.107
    1RG35    C5   17   0.212  -0.043   0.103
    1RG35    C6   18  -0.009  -0.089  -0.152
    1RG35    O6   19   0.001   0.072   0.116
    1RG35    N1   20  -0.125  -0.079  -0.211
    1RG35    H1   21  -0.001   0.024   0.038
    1RG35    C2   22   0.288   0.024   0.251
    1RG35    N2   23   0.032  -0.001   0.004
    1RG35   H21   24  -0.104   0.086   0.055
    1RG35   H22   25  -0.014  -0.092  -0.107
    1RG35    N3   26  -0.200   0.022  -0.118
    1RG35    C4   27   0.044   0.055   0.106
    1RG35   C3'   28   0.214   0.171   0.244
    1RG35   H3'   29   0.019  -0.022  -0.033
    1RG35   C2'   30  -0.434  -0.141   0.172
    1RG35  H2'1   31   0.046  -0.005  -0.016
    1RG35   O2'   32   0.201  -0.018  -0.149
    1RG35  HO'2   33  -0.004   0.003   0.041
    1RG35   O3'   34   0.043  -0.025  -0.092
    1RG35   H3T   35  -0.065  -0.002  -0.023
    1RG35   O3P   36   0.000   0.004  -0.004
   0.00000   0.00000   0.00000
