Gromacs Runs On Most of All Computer Systems in water t=   0.00002 step= 43
   36
    1RG35     P    1  -0.002   0.003  -0.002
    1RG35   O1P    2  -0.007   0.008  -0.006
    1RG35   O2P    3   0.003   0.016  -0.000
    1RG35   O5'    4  -0.009  -0.000   0.018
    1RG35   C5'    5  -0.008   0.002   0.003
    1RG35  H5'1    6  -0.031  -0.006   0.014
    1RG35  H5'2    7   0.030   0.018  -0.013
    1RG35   C4'    8  -0.015   0.001  -0.019
    1RG35   H4'    9  -0.018   0.018  -0.044
    1RG35   O4'   10  -0.101   0.072  -0.021
    1RG35   C1'   11   0.017  -0.004  -0.032
    1RG35   H1'   12   0.035   0.082   0.046
    1RG35    N9   13   0.028  -0.035  -0.056
    1RG35    C8   14   0.211  -0.102  -0.042
    1RG35    H8   15   0.249  -0.104   0.115
    1RG35    N7   16   0.089  -0.056  -0.129
    1RG35    C5   17  -0.103  -0.046  -0.040
    1RG35    C6   18  -0.129   0.052   0.047
    1RG35    O6   19   0.024   0.082   0.121
    1RG35    N1   20  -0.244   0.192   0.016
    1RG35    H1   21  -0.187   0.226   0.220
    1RG35    C2   22  -0.104   0.072  -0.088
    1RG35    N2   23   0.028  -0.220  -0.116
    1RG35   H21   24   0.440   0.032   0.272
    1RG35   H22   25   0.027  -0.155  -0.202
    1RG35    N3   26  -0.172   0.005  -0.113
    1RG35    C4   27  -0.114  -0.061  -0.080
    1RG35   C3'   28   0.025  -0.000  -0.007
    1RG35   H3'   29   0.031  -0.013   0.032
    1RG35   C2'   30   0.017   0.001  -0.005
    1RG35  H2'1   31  -0.048  -0.014   0.052
    1RG35   O2'   32   0.016  -0.066   0.015
    1RG35  HO'2   33  -0.016   0.011   0.026
    1RG35   O3'   34   0.024  -0.006  -0.001
    1RG35   H3T   35   0.015   0.006   0.031
    1RG35   O3P   36  -0.001  -0.010  -0.011
   0.00000   0.00000   0.00000
