Gromacs Runs On Most of All Computer Systems in water t=   0.00005 step= 26
   36
    1RG35     P    1  -0.073   0.008   0.019
    1RG35   O1P    2  -0.050   0.015   0.016
    1RG35   O2P    3  -0.184  -0.087   0.004
    1RG35   O5'    4  -0.028   0.051   0.040
    1RG35   C5'    5   0.026   0.083  -0.019
    1RG35  H5'1    6   0.063   0.142   0.030
    1RG35  H5'2    7  -0.043   0.030   0.015
    1RG35   C4'    8   0.167  -0.052  -0.091
    1RG35   H4'    9   0.265  -0.034   0.069
    1RG35   O4'   10  -0.069   0.030  -0.047
    1RG35   C1'   11  -0.105   0.058   0.042
    1RG35   H1'   12  -0.101   0.112   0.207
    1RG35    N9   13  -0.065   0.005   0.038
    1RG35    C8   14  -0.018  -0.008   0.005
    1RG35    H8   15  -0.006  -0.009  -0.085
    1RG35    N7   16   0.028  -0.011   0.034
    1RG35    C5   17   0.034   0.004   0.022
    1RG35    C6   18   0.052   0.005  -0.005
    1RG35    O6   19   0.047  -0.040   0.036
    1RG35    N1   20   0.081   0.017  -0.076
    1RG35    H1   21   0.012  -0.101  -0.046
    1RG35    C2   22   0.043  -0.023  -0.057
    1RG35    N2   23  -0.003  -0.058  -0.004
    1RG35   H21   24   0.062  -0.006   0.049
    1RG35   H22   25  -0.079   0.013  -0.056
    1RG35    N3   26   0.011  -0.051  -0.002
    1RG35    C4   27  -0.016  -0.002   0.030
    1RG35   C3'   28   0.071  -0.032  -0.011
    1RG35   H3'   29   0.074  -0.252   0.261
    1RG35   C2'   30  -0.011   0.003  -0.005
    1RG35  H2'1   31  -0.098  -0.029  -0.323
    1RG35   O2'   32  -0.026  -0.153   0.055
    1RG35  HO'2   33  -0.129   0.068   0.080
    1RG35   O3'   34   0.052   0.491  -0.106
    1RG35   H3T   35   0.087  -0.180  -0.106
    1RG35   O3P   36  -0.071  -0.009  -0.014
   0.00000   0.00000   0.00000
