Gromacs Runs On Most of All Computer Systems in water t=   0.00003 step= 35
   36
    1RG35     P    1   0.087  -0.126  -0.056
    1RG35   O1P    2  -0.060  -0.154  -0.039
    1RG35   O2P    3   0.501   0.219   0.013
    1RG35   O5'    4   0.016  -0.117  -0.020
    1RG35   C5'    5  -0.030   0.067   0.046
    1RG35  H5'1    6  -0.020   0.214   0.180
    1RG35  H5'2    7  -0.077   0.298  -0.036
    1RG35   C4'    8  -0.062  -0.001   0.020
    1RG35   H4'    9  -0.230  -0.272  -0.010
    1RG35   O4'   10  -0.042   0.068  -0.004
    1RG35   C1'   11   0.011   0.039  -0.001
    1RG35   H1'   12  -0.012  -0.036   0.152
    1RG35    N9   13   0.031   0.070  -0.032
    1RG35    C8   14   0.005   0.018   0.001
    1RG35    H8   15   0.005   0.019   0.006
    1RG35    N7   16  -0.041  -0.068   0.053
    1RG35    C5   17   0.011   0.006  -0.015
    1RG35    C6   18   0.030   0.025  -0.036
    1RG35    O6   19  -0.006  -0.022  -0.016
    1RG35    N1   20   0.056   0.061  -0.049
    1RG35    H1   21   0.040  -0.008   0.044
    1RG35    C2   22  -0.023  -0.047   0.021
    1RG35    N2   23  -0.037  -0.066   0.039
    1RG35   H21   24   0.002   0.017  -0.028
    1RG35   H22   25   0.007   0.050  -0.064
    1RG35    N3   26  -0.022  -0.044   0.016
    1RG35    C4   27   0.007   0.017  -0.017
    1RG35   C3'   28  -0.005  -0.009   0.003
    1RG35   H3'   29  -0.151  -0.303  -0.033
    1RG35   C2'   30   0.017   0.052  -0.015
    1RG35  H2'1   31   0.099   0.075  -0.003
    1RG35   O2'   32   0.008   0.059  -0.055
    1RG35  HO'2   33   0.024  -0.024  -0.082
    1RG35   O3'   34   0.011   0.125  -0.000
    1RG35   H3T   35   0.002  -0.013   0.070
    1RG35   O3P   36  -0.152  -0.187  -0.052
   0.00000   0.00000   0.00000
