Gromacs Runs On Most of All Computer Systems in water t=   0.00001 step= 59
   36
    1RG35     P    1   0.093  -0.141   0.127
    1RG35   O1P    2  -0.141   0.350   0.240
    1RG35   O2P    3   0.028   0.048  -0.431
    1RG35   O5'    4  -0.052   0.054  -0.131
    1RG35   C5'    5  -0.018   0.038   0.074
    1RG35  H5'1    6   0.036  -0.033  -0.039
    1RG35  H5'2    7   0.012   0.044   0.083
    1RG35   C4'    8  -0.035  -0.012  -0.066
    1RG35   H4'    9   0.034   0.021   0.025
    1RG35   O4'   10  -0.090  -0.185  -0.038
    1RG35   C1'   11  -0.017  -0.092  -0.001
    1RG35   H1'   12   0.015   0.054   0.011
    1RG35    N9   13   0.166   0.195  -0.171
    1RG35    C8   14  -0.083  -0.111   0.127
    1RG35    H8   15   0.005   0.014  -0.055
    1RG35    N7   16   0.019   0.098   0.019
    1RG35    C5   17  -0.008  -0.003   0.010
    1RG35    C6   18   0.048   0.141  -0.080
    1RG35    O6   19  -0.011  -0.052   0.069
    1RG35    N1   20  -0.057  -0.017   0.003
    1RG35    H1   21  -0.021   0.037   0.032
    1RG35    C2   22   0.003  -0.050  -0.020
    1RG35    N2   23  -0.024   0.017   0.012
    1RG35   H21   24  -0.031   0.027  -0.000
    1RG35   H22   25   0.026   0.003   0.016
    1RG35    N3   26   0.117   0.046  -0.120
    1RG35    C4   27  -0.067  -0.251   0.142
    1RG35   C3'   28   0.005   0.052  -0.001
    1RG35   H3'   29  -0.023  -0.016   0.008
    1RG35   C2'   30   0.018   0.038   0.009
    1RG35  H2'1   31  -0.039   0.024  -0.014
    1RG35   O2'   32   0.007  -0.008  -0.007
    1RG35  HO'2   33  -0.009   0.001  -0.009
    1RG35   O3'   34  -0.013  -0.014   0.015
    1RG35   H3T   35  -0.005  -0.003  -0.005
    1RG35   O3P   36   0.113  -0.315   0.167
   0.00000   0.00000   0.00000
