Gromacs Runs On Most of All Computer Systems in water t=   0.00000 step= 76
   36
    1RG35     P    1  -0.218  -0.117  -0.018
    1RG35   O1P    2   0.038   0.024   0.072
    1RG35   O2P    3   0.079  -0.026  -0.030
    1RG35   O5'    4   0.025   0.064   0.025
    1RG35   C5'    5   0.165   0.040  -0.034
    1RG35  H5'1    6  -0.021   0.000  -0.004
    1RG35  H5'2    7  -0.018  -0.006   0.007
    1RG35   C4'    8  -0.022  -0.057   0.065
    1RG35   H4'    9  -0.022   0.011   0.001
    1RG35   O4'   10  -0.139  -0.227  -0.026
    1RG35   C1'   11   0.066   0.279  -0.075
    1RG35   H1'   12   0.007  -0.021   0.010
    1RG35    N9   13   0.184   0.025   0.254
    1RG35    C8   14  -0.093   0.056  -0.024
    1RG35    H8   15  -0.150   0.066  -0.009
    1RG35    N7   16   0.335  -0.198  -0.014
    1RG35    C5   17  -0.110   0.011  -0.067
    1RG35    C6   18  -0.356   0.137  -0.087
    1RG35    O6   19   0.078  -0.017   0.048
    1RG35    N1   20   0.046  -0.038  -0.002
    1RG35    H1   21   0.111  -0.068  -0.018
    1RG35    C2   22   0.090   0.087   0.178
    1RG35    N2   23  -0.021  -0.002  -0.023
    1RG35   H21   24  -0.028   0.037   0.031
    1RG35   H22   25  -0.004  -0.054  -0.068
    1RG35    N3   26  -0.077   0.006  -0.043
    1RG35    C4   27   0.052  -0.078  -0.077
    1RG35   C3'   28   0.045   0.078   0.118
    1RG35   H3'   29  -0.040  -0.000  -0.003
    1RG35   C2'   30   0.111  -0.029  -0.231
    1RG35  H2'1   31  -0.000  -0.070   0.042
    1RG35   O2'   32  -0.109   0.022   0.154
    1RG35  HO'2   33  -0.022   0.004  -0.043
    1RG35   O3'   34   0.010  -0.009  -0.079
    1RG35   H3T   35  -0.014   0.002  -0.001
    1RG35   O3P   36   0.023   0.069  -0.030
   0.00000   0.00000   0.00000
