Gromacs Runs On Most of All Computer Systems in water t=   0.00004 step= 32
   36
    1RG35     P    1  -0.025  -0.012   0.007
    1RG35   O1P    2  -0.057  -0.033   0.012
    1RG35   O2P    3  -0.011   0.005  -0.002
    1RG35   O5'    4  -0.001   0.002   0.014
    1RG35   C5'    5   0.014   0.058  -0.022
    1RG35  H5'1    6   0.245   0.164  -0.004
    1RG35  H5'2    7   0.037   0.066  -0.025
    1RG35   C4'    8   0.004  -0.027  -0.052
    1RG35   H4'    9  -0.109  -0.281  -0.002
    1RG35   O4'   10   0.011  -0.041  -0.060
    1RG35   C1'   11  -0.023  -0.008  -0.037
    1RG35   H1'   12  -0.027  -0.064  -0.224
    1RG35    N9   13   0.038  -0.016  -0.011
    1RG35    C8   14   0.045  -0.010   0.013
    1RG35    H8   15   0.050   0.028   0.125
    1RG35    N7   16   0.013   0.008  -0.035
    1RG35    C5   17   0.007  -0.015  -0.036
    1RG35    C6   18  -0.006  -0.033  -0.028
    1RG35    O6   19   0.016  -0.013  -0.061
    1RG35    N1   20  -0.036  -0.029   0.032
    1RG35    H1   21   0.017   0.051   0.020
    1RG35    C2   22  -0.008   0.026   0.014
    1RG35    N2   23   0.039   0.097  -0.039
    1RG35   H21   24  -0.045  -0.012  -0.029
    1RG35   H22   25   0.076  -0.021   0.060
    1RG35    N3   26  -0.008   0.011   0.006
    1RG35    C4   27   0.014  -0.021  -0.016
    1RG35   C3'   28   0.115  -0.012  -0.059
    1RG35   H3'   29   0.123   0.162  -0.252
    1RG35   C2'   30  -0.030   0.019   0.021
    1RG35  H2'1   31  -0.091  -0.006  -0.316
    1RG35   O2'   32  -0.050  -0.164   0.225
    1RG35  HO'2   33  -0.265   0.112   0.370
    1RG35   O3'   34   0.040  -0.042   0.022
    1RG35   H3T   35  -0.048   0.067   0.358
    1RG35   O3P   36  -0.061  -0.017   0.009
   0.00000   0.00000   0.00000
