Gromacs Runs On Most of All Computer Systems in water t=   0.00004 step= 30
   36
    1RG35     P    1   0.008   0.015  -0.004
    1RG35   O1P    2   0.037   0.007  -0.008
    1RG35   O2P    3  -0.062  -0.042  -0.021
    1RG35   O5'    4  -0.008   0.028  -0.002
    1RG35   C5'    5  -0.019   0.007  -0.073
    1RG35  H5'1    6   0.029   0.065  -0.023
    1RG35  H5'2    7  -0.194  -0.148   0.013
    1RG35   C4'    8   0.048  -0.013  -0.090
    1RG35   H4'    9   0.089   0.178  -0.209
    1RG35   O4'   10  -0.126   0.083  -0.087
    1RG35   C1'   11  -0.097   0.075  -0.037
    1RG35   H1'   12  -0.121  -0.048  -0.073
    1RG35    N9   13  -0.044   0.025   0.011
    1RG35    C8   14  -0.036   0.016   0.011
    1RG35    H8   15  -0.038   0.010  -0.002
    1RG35    N7   16   0.000   0.033   0.012
    1RG35    C5   17  -0.005   0.004   0.019
    1RG35    C6   18   0.017  -0.004   0.021
    1RG35    O6   19   0.073  -0.023   0.052
    1RG35    N1   20   0.024  -0.006  -0.020
    1RG35    H1   21   0.000  -0.044  -0.018
    1RG35    C2   22   0.011  -0.017  -0.031
    1RG35    N2   23   0.019   0.015  -0.062
    1RG35   H21   24   0.029  -0.031   0.035
    1RG35   H22   25  -0.074  -0.009  -0.032
    1RG35    N3   26  -0.014  -0.047   0.006
    1RG35    C4   27  -0.036  -0.015   0.032
    1RG35   C3'   28   0.013   0.008   0.099
    1RG35   H3'   29  -0.164  -0.370   0.083
    1RG35   C2'   30   0.003   0.161  -0.008
    1RG35  H2'1   31   0.365   0.261  -0.079
    1RG35   O2'   32  -0.040  -0.054   0.016
    1RG35  HO'2   33  -0.083   0.076   0.042
    1RG35   O3'   34   0.167  -0.350   0.200
    1RG35   H3T   35   0.154   0.122   0.219
    1RG35   O3P   36   0.073   0.034   0.006
   0.00000   0.00000   0.00000
