Gromacs Runs On Most of All Computer Systems in water t=   0.00000 step= 92
   36
    1RG35     P    1   0.013  -0.004   0.004
    1RG35   O1P    2  -0.001  -0.001  -0.009
    1RG35   O2P    3  -0.005   0.007   0.003
    1RG35   O5'    4  -0.006   0.002   0.004
    1RG35   C5'    5   0.005  -0.017  -0.005
    1RG35  H5'1    6  -0.004   0.007  -0.006
    1RG35  H5'2    7   0.002   0.003   0.011
    1RG35   C4'    8   0.006   0.004  -0.002
    1RG35   H4'    9  -0.002  -0.002   0.001
    1RG35   O4'   10  -0.000  -0.000   0.003
    1RG35   C1'   11  -0.006  -0.005  -0.016
    1RG35   H1'   12  -0.005   0.002   0.003
    1RG35    N9   13   0.044   0.026   0.069
    1RG35    C8   14   0.006  -0.017  -0.022
    1RG35    H8   15  -0.003  -0.000  -0.003
    1RG35    N7   16  -0.041  -0.002  -0.033
    1RG35    C5   17   0.041   0.124   0.210
    1RG35    C6   18  -0.000  -0.105  -0.172
    1RG35    O6   19  -0.003   0.043   0.069
    1RG35    N1   20   0.024   0.000   0.022
    1RG35    H1   21  -0.047   0.035   0.015
    1RG35    C2   22   0.267  -0.078   0.075
    1RG35    N2   23  -0.588   0.071  -0.228
    1RG35   H21   24   0.341  -0.253  -0.128
    1RG35   H22   25   0.067   0.202   0.271
    1RG35    N3   26  -0.009   0.058   0.068
    1RG35    C4   27  -0.099  -0.095  -0.207
    1RG35   C3'   28  -0.005  -0.005  -0.004
    1RG35   H3'   29   0.001   0.001   0.000
    1RG35   C2'   30   0.008   0.003  -0.003
    1RG35  H2'1   31  -0.000  -0.002   0.001
    1RG35   O2'   32  -0.002  -0.000   0.001
    1RG35  HO'2   33   0.001   0.000   0.001
    1RG35   O3'   34   0.039   0.003   0.014
    1RG35   H3T   35  -0.036  -0.002  -0.009
    1RG35   O3P   36  -0.001   0.001   0.000
   0.00000   0.00000   0.00000
