Gromacs Runs On Most of All Computer Systems in water t=   0.00002 step= 47
   36
    1RG35     P    1  -0.014  -0.038  -0.006
    1RG35   O1P    2   0.071  -0.044  -0.009
    1RG35   O2P    3   0.144   0.088   0.025
    1RG35   O5'    4  -0.176   0.113   0.002
    1RG35   C5'    5  -0.099   0.265   0.023
    1RG35  H5'1    6  -0.006  -0.015  -0.368
    1RG35  H5'2    7   0.087  -0.231   0.257
    1RG35   C4'    8  -0.008   0.156   0.118
    1RG35   H4'    9  -0.113   0.069   0.017
    1RG35   O4'   10   0.164  -0.051   0.158
    1RG35   C1'   11  -0.066   0.032   0.051
    1RG35   H1'   12  -0.084  -0.095  -0.076
    1RG35    N9   13  -0.099   0.032   0.039
    1RG35    C8   14   0.032   0.041   0.039
    1RG35    H8   15   0.033  -0.037  -0.050
    1RG35    N7   16   0.078   0.001   0.125
    1RG35    C5   17   0.039   0.042   0.008
    1RG35    C6   18   0.049   0.030   0.028
    1RG35    O6   19  -0.071   0.072   0.060
    1RG35    N1   20   0.065  -0.104  -0.058
    1RG35    H1   21   0.115  -0.068  -0.030
    1RG35    C2   22  -0.098  -0.049  -0.110
    1RG35    N2   23  -0.098   0.021   0.020
    1RG35   H21   24  -0.017   0.090   0.092
    1RG35   H22   25   0.202  -0.060   0.051
    1RG35    N3   26  -0.189  -0.058  -0.200
    1RG35    C4   27  -0.126   0.045  -0.084
    1RG35   C3'   28   0.159   0.019  -0.076
    1RG35   H3'   29   0.116  -0.157   0.022
    1RG35   C2'   30   0.037   0.060   0.027
    1RG35  H2'1   31  -0.073   0.031   0.055
    1RG35   O2'   32   0.008  -0.132  -0.003
    1RG35  HO'2   33   0.007   0.005  -0.021
    1RG35   O3'   34   0.020   0.002  -0.117
    1RG35   H3T   35  -0.026   0.002   0.028
    1RG35   O3P   36  -0.060  -0.077  -0.039
   0.00000   0.00000   0.00000
