Gromacs Runs On Most of All Computer Systems in water t=   0.00014 step= 16
   36
    1RG35     P    1  -0.070  -0.115  -0.010
    1RG35   O1P    2  -0.088  -0.194  -0.000
    1RG35   O2P    3  -0.077  -0.090  -0.053
    1RG35   O5'    4  -0.062  -0.070  -0.043
    1RG35   C5'    5  -0.030  -0.046  -0.009
    1RG35  H5'1    6  -0.091  -0.094  -0.037
    1RG35  H5'2    7  -0.044  -0.032  -0.013
    1RG35   C4'    8   0.062  -0.086  -0.007
    1RG35   H4'    9  -0.021  -0.133  -0.112
    1RG35   O4'   10   0.264  -0.069  -0.045
    1RG35   C1'   11   0.089   0.081  -0.024
    1RG35   H1'   12   0.136   0.297  -0.063
    1RG35    N9   13   0.023   0.070   0.007
    1RG35    C8   14  -0.029   0.049   0.070
    1RG35    H8   15  -0.066  -0.004   0.169
    1RG35    N7   16  -0.027   0.082   0.039
    1RG35    C5   17   0.012   0.122  -0.018
    1RG35    C6   18  -0.021   0.069   0.011
    1RG35    O6   19  -0.102  -0.052   0.087
    1RG35    N1   20   0.011   0.103  -0.025
    1RG35    H1   21  -0.139  -0.200   0.168
    1RG35    C2   22   0.038   0.110  -0.037
    1RG35    N2   23   0.001   0.023   0.019
    1RG35   H21   24   0.132   0.304  -0.193
    1RG35   H22   25  -0.150  -0.263   0.267
    1RG35    N3   26   0.037   0.098  -0.025
    1RG35    C4   27   0.041   0.119  -0.031
    1RG35   C3'   28   0.064  -0.072   0.015
    1RG35   H3'   29   0.054  -0.111   0.036
    1RG35   C2'   30   0.018   0.010  -0.033
    1RG35  H2'1   31  -0.050  -0.009  -0.074
    1RG35   O2'   32   0.024   0.053  -0.046
    1RG35  HO'2   33   0.025   0.011  -0.045
    1RG35   O3'   34   0.056  -0.035   0.011
    1RG35   H3T   35   0.054   0.157  -0.007
    1RG35   O3P   36  -0.071  -0.083   0.051
   0.00000   0.00000   0.00000
