Gromacs Runs On Most of All Computer Systems in water t=   0.00003 step= 37
   36
    1RG35     P    1  -0.047   0.072   0.030
    1RG35   O1P    2   0.016   0.090   0.023
    1RG35   O2P    3  -0.204  -0.067   0.016
    1RG35   O5'    4  -0.036   0.041  -0.005
    1RG35   C5'    5  -0.013  -0.033  -0.014
    1RG35  H5'1    6   0.143  -0.058  -0.096
    1RG35  H5'2    7   0.189  -0.051  -0.034
    1RG35   C4'    8  -0.100  -0.011   0.026
    1RG35   H4'    9  -0.166  -0.168   0.068
    1RG35   O4'   10  -0.074  -0.043   0.020
    1RG35   C1'   11  -0.100   0.002   0.009
    1RG35   H1'   12  -0.074   0.159   0.146
    1RG35    N9   13  -0.025  -0.154   0.120
    1RG35    C8   14   0.104  -0.102   0.072
    1RG35    H8   15   0.174   0.030   0.145
    1RG35    N7   16   0.118   0.041  -0.086
    1RG35    C5   17   0.043  -0.069  -0.053
    1RG35    C6   18  -0.029  -0.117  -0.122
    1RG35    O6   19  -0.188  -0.056  -0.256
    1RG35    N1   20  -0.034  -0.099   0.041
    1RG35    H1   21   0.151   0.097   0.199
    1RG35    C2   22   0.006   0.060  -0.007
    1RG35    N2   23  -0.006   0.040   0.066
    1RG35   H21   24  -0.070   0.027  -0.041
    1RG35   H22   25   0.144  -0.013   0.106
    1RG35    N3   26   0.043   0.090  -0.047
    1RG35    C4   27   0.035  -0.040  -0.016
    1RG35   C3'   28  -0.066   0.025   0.027
    1RG35   H3'   29  -0.210  -0.197  -0.092
    1RG35   C2'   30  -0.040   0.084  -0.035
    1RG35  H2'1   31   0.082   0.118  -0.045
    1RG35   O2'   32  -0.032   0.054  -0.129
    1RG35  HO'2   33   0.092  -0.034  -0.226
    1RG35   O3'   34   0.034   0.177   0.041
    1RG35   H3T   35   0.030  -0.013   0.116
    1RG35   O3P   36   0.110   0.117   0.034
   0.00000   0.00000   0.00000
