Gromacs Runs On Most of All Computer Systems in water t=   0.00002 step= 42
   36
    1RG35     P    1  -0.001   0.003  -0.020
    1RG35   O1P    2  -0.048  -0.011  -0.018
    1RG35   O2P    3   0.034   0.028  -0.003
    1RG35   O5'    4  -0.024  -0.015   0.009
    1RG35   C5'    5  -0.011  -0.019   0.079
    1RG35  H5'1    6  -0.013  -0.106  -0.018
    1RG35  H5'2    7   0.062   0.041   0.047
    1RG35   C4'    8  -0.076   0.040  -0.011
    1RG35   H4'    9  -0.148   0.054  -0.153
    1RG35   O4'   10  -0.230   0.331  -0.047
    1RG35   C1'   11   0.141   0.078  -0.004
    1RG35   H1'   12   0.143   0.073  -0.092
    1RG35    N9   13  -0.016  -0.053   0.074
    1RG35    C8   14  -0.031   0.057  -0.007
    1RG35    H8   15  -0.116  -0.097  -0.021
    1RG35    N7   16   0.110   0.275  -0.148
    1RG35    C5   17  -0.084  -0.169   0.133
    1RG35    C6   18  -0.054  -0.149   0.087
    1RG35    O6   19   0.023   0.056  -0.053
    1RG35    N1   20   0.058  -0.040  -0.008
    1RG35    H1   21   0.061  -0.042  -0.023
    1RG35    C2   22   0.165   0.244  -0.177
    1RG35    N2   23  -0.115  -0.190   0.219
    1RG35   H21   24  -0.080   0.044  -0.106
    1RG35   H22   25  -0.001   0.092  -0.016
    1RG35    N3   26   0.068   0.058  -0.019
    1RG35    C4   27  -0.083  -0.196   0.163
    1RG35   C3'   28   0.094  -0.053  -0.065
    1RG35   H3'   29   0.108  -0.129   0.056
    1RG35   C2'   30   0.086  -0.077   0.013
    1RG35  H2'1   31  -0.061  -0.120   0.065
    1RG35   O2'   32   0.077  -0.053   0.015
    1RG35  HO'2   33  -0.070   0.020   0.089
    1RG35   O3'   34   0.014   0.007  -0.065
    1RG35   H3T   35  -0.014   0.009   0.046
    1RG35   O3P   36   0.033   0.012  -0.019
   0.00000   0.00000   0.00000
