Gromacs Runs On Most of All Computer Systems in water t=   0.00004 step= 28
   36
    1RG35     P    1  -0.008   0.003   0.011
    1RG35   O1P    2  -0.002   0.010   0.010
    1RG35   O2P    3  -0.036  -0.012  -0.004
    1RG35   O5'    4   0.007  -0.002   0.009
    1RG35   C5'    5  -0.006  -0.009  -0.039
    1RG35  H5'1    6   0.067   0.039  -0.015
    1RG35  H5'2    7  -0.083  -0.084   0.002
    1RG35   C4'    8   0.011  -0.018  -0.069
    1RG35   H4'    9  -0.021  -0.083  -0.061
    1RG35   O4'   10  -0.016  -0.015  -0.032
    1RG35   C1'   11  -0.052   0.046   0.111
    1RG35   H1'   12  -0.033   0.220   0.508
    1RG35    N9   13  -0.022   0.068   0.038
    1RG35    C8   14   0.066  -0.036  -0.037
    1RG35    H8   15   0.023  -0.218  -0.288
    1RG35    N7   16   0.143  -0.044   0.057
    1RG35    C5   17   0.088   0.050   0.103
    1RG35    C6   18  -0.008   0.003   0.068
    1RG35    O6   19  -0.097   0.114  -0.004
    1RG35    N1   20  -0.060  -0.172   0.066
    1RG35    H1   21  -0.005   0.029  -0.202
    1RG35    C2   22  -0.001  -0.086   0.013
    1RG35    N2   23  -0.029  -0.105   0.021
    1RG35   H21   24   0.076   0.061  -0.030
    1RG35   H22   25  -0.111   0.000  -0.054
    1RG35    N3   26   0.135   0.134  -0.068
    1RG35    C4   27   0.084   0.164   0.017
    1RG35   C3'   28   0.093  -0.021  -0.106
    1RG35   H3'   29   0.077   0.038  -0.221
    1RG35   C2'   30   0.063  -0.000   0.040
    1RG35  H2'1   31   0.038  -0.006   0.055
    1RG35   O2'   32   0.015   0.093   0.001
    1RG35  HO'2   33  -0.120  -0.002   0.050
    1RG35   O3'   34  -0.095  -0.216  -0.069
    1RG35   H3T   35  -0.163   0.056   0.112
    1RG35   O3P   36  -0.019  -0.001   0.007
   0.00000   0.00000   0.00000
