Gromacs Runs On Most of All Computer Systems in water t=   0.00000 step= 84
   36
    1RG35     P    1  -0.011   0.006  -0.013
    1RG35   O1P    2   0.006  -0.002   0.005
    1RG35   O2P    3   0.004  -0.005   0.002
    1RG35   O5'    4   0.028  -0.002  -0.002
    1RG35   C5'    5  -0.057  -0.011   0.009
    1RG35  H5'1    6   0.010  -0.006   0.008
    1RG35  H5'2    7   0.005  -0.004  -0.012
    1RG35   C4'    8   0.047   0.074   0.006
    1RG35   H4'    9  -0.000  -0.007  -0.001
    1RG35   O4'   10   0.001   0.009   0.002
    1RG35   C1'   11   0.004  -0.085  -0.065
    1RG35   H1'   12   0.019   0.002  -0.003
    1RG35    N9   13  -0.232   0.149   0.023
    1RG35    C8   14   0.028  -0.042  -0.036
    1RG35    H8   15   0.047  -0.015   0.017
    1RG35    N7   16  -0.108   0.050  -0.014
    1RG35    C5   17   0.172  -0.093   0.013
    1RG35    C6   18  -0.209  -0.084  -0.318
    1RG35    O6   19   0.017   0.101   0.185
    1RG35    N1   20   0.054   0.002   0.063
    1RG35    H1   21   0.086  -0.079  -0.055
    1RG35    C2   22  -0.317   0.370   0.256
    1RG35    N2   23  -0.068   0.024   0.001
    1RG35   H21   24   0.119  -0.083  -0.040
    1RG35   H22   25  -0.012   0.016   0.009
    1RG35    N3   26   0.146  -0.281  -0.256
    1RG35    C4   27   0.212   0.019   0.182
    1RG35   C3'   28  -0.075  -0.096  -0.065
    1RG35   H3'   29  -0.003   0.013   0.014
    1RG35   C2'   30   0.128   0.044   0.032
    1RG35  H2'1   31  -0.018   0.011  -0.003
    1RG35   O2'   32  -0.048   0.003   0.024
    1RG35  HO'2   33   0.007  -0.001  -0.006
    1RG35   O3'   34  -0.018   0.008   0.019
    1RG35   H3T   35   0.030   0.001   0.013
    1RG35   O3P   36   0.005  -0.006   0.005
   0.00000   0.00000   0.00000
