Gromacs Runs On Most of All Computer Systems in water t=   0.00000 step= 87
   36
    1RG35     P    1  -0.002   0.020   0.003
    1RG35   O1P    2  -0.000  -0.003  -0.003
    1RG35   O2P    3   0.005  -0.006  -0.004
    1RG35   O5'    4  -0.015  -0.002   0.003
    1RG35   C5'    5   0.028   0.003  -0.006
    1RG35  H5'1    6  -0.004   0.003  -0.001
    1RG35  H5'2    7  -0.004   0.000   0.003
    1RG35   C4'    8  -0.009  -0.028   0.014
    1RG35   H4'    9  -0.003   0.002   0.001
    1RG35   O4'   10  -0.004  -0.003  -0.011
    1RG35   C1'   11   0.017   0.056   0.132
    1RG35   H1'   12   0.011  -0.011  -0.015
    1RG35    N9   13  -0.283  -0.063  -0.309
    1RG35    C8   14   0.054   0.325   0.503
    1RG35    H8   15   0.002  -0.041  -0.056
    1RG35    N7   16  -0.017  -0.222  -0.331
    1RG35    C5   17   0.136   0.051   0.174
    1RG35    C6   18  -0.106   0.184   0.207
    1RG35    O6   19   0.033  -0.099  -0.134
    1RG35    N1   20  -0.051  -0.035  -0.092
    1RG35    H1   21   0.045  -0.019   0.005
    1RG35    C2   22  -0.025   0.052   0.054
    1RG35    N2   23  -0.049   0.008  -0.014
    1RG35   H21   24   0.041  -0.028  -0.011
    1RG35   H22   25   0.006   0.014   0.020
    1RG35    N3   26  -0.006  -0.008  -0.016
    1RG35    C4   27   0.198  -0.164  -0.079
    1RG35   C3'   28   0.006   0.020  -0.008
    1RG35   H3'   29   0.001  -0.002   0.002
    1RG35   C2'   30  -0.002  -0.000  -0.053
    1RG35  H2'1   31   0.001   0.001   0.008
    1RG35   O2'   32  -0.010   0.002   0.012
    1RG35  HO'2   33   0.001  -0.001  -0.002
    1RG35   O3'   34   0.006  -0.000   0.006
    1RG35   H3T   35  -0.004  -0.001  -0.002
    1RG35   O3P   36  -0.000  -0.006   0.002
   0.00000   0.00000   0.00000
