Gromacs Runs On Most of All Computer Systems in water t=   0.00001 step= 62
   36
    1RG35     P    1   0.014   0.024  -0.004
    1RG35   O1P    2   0.001  -0.028   0.041
    1RG35   O2P    3   0.031  -0.044   0.004
    1RG35   O5'    4  -0.032   0.016   0.012
    1RG35   C5'    5  -0.040  -0.032   0.029
    1RG35  H5'1    6   0.013  -0.025   0.016
    1RG35  H5'2    7   0.020   0.030  -0.008
    1RG35   C4'    8  -0.083  -0.000  -0.092
    1RG35   H4'    9   0.004   0.029   0.050
    1RG35   O4'   10   0.015  -0.060  -0.147
    1RG35   C1'   11   0.009   0.050   0.165
    1RG35   H1'   12   0.001  -0.013  -0.063
    1RG35    N9   13   0.092   0.134   0.106
    1RG35    C8   14   0.074  -0.128  -0.045
    1RG35    H8   15   0.095  -0.021   0.036
    1RG35    N7   16  -0.252  -0.077  -0.345
    1RG35    C5   17  -0.175   0.077   0.022
    1RG35    C6   18  -0.017   0.061   0.006
    1RG35    O6   19   0.080  -0.019   0.074
    1RG35    N1   20   0.135  -0.159  -0.089
    1RG35    H1   21   0.231  -0.144  -0.049
    1RG35    C2   22  -0.160   0.017  -0.090
    1RG35    N2   23  -0.243   0.001  -0.161
    1RG35   H21   24  -0.021   0.159   0.175
    1RG35   H22   25   0.145  -0.159  -0.105
    1RG35    N3   26   0.087   0.180   0.259
    1RG35    C4   27  -0.002   0.110   0.233
    1RG35   C3'   28   0.052   0.032   0.015
    1RG35   H3'   29   0.011  -0.032  -0.030
    1RG35   C2'   30   0.040  -0.012   0.161
    1RG35  H2'1   31   0.003  -0.031  -0.059
    1RG35   O2'   32  -0.049   0.024   0.013
    1RG35  HO'2   33   0.010  -0.007  -0.087
    1RG35   O3'   34  -0.041  -0.015   0.034
    1RG35   H3T   35  -0.023   0.000  -0.031
    1RG35   O3P   36  -0.023   0.063  -0.044
   0.00000   0.00000   0.00000
