Gromacs Runs On Most of All Computer Systems in water t=   0.00000 step= 83
   36
    1RG35     P    1  -0.098  -0.033  -0.015
    1RG35   O1P    2   0.019   0.005   0.022
    1RG35   O2P    3   0.023  -0.017  -0.008
    1RG35   O5'    4   0.236  -0.003  -0.042
    1RG35   C5'    5  -0.489  -0.117   0.092
    1RG35  H5'1    6   0.054  -0.033   0.025
    1RG35  H5'2    7   0.036  -0.012  -0.051
    1RG35   C4'    8   0.291   0.528  -0.032
    1RG35   H4'    9  -0.003  -0.046  -0.009
    1RG35   O4'   10  -0.106  -0.166  -0.023
    1RG35   C1'   11   0.019   0.102  -0.176
    1RG35   H1'   12  -0.008   0.001   0.012
    1RG35    N9   13   0.029  -0.020   0.018
    1RG35    C8   14  -0.005   0.053   0.068
    1RG35    H8   15  -0.021   0.000  -0.012
    1RG35    N7   16   0.027  -0.045  -0.039
    1RG35    C5   17  -0.001  -0.006  -0.010
    1RG35    C6   18  -0.012   0.033   0.048
    1RG35    O6   19   0.004  -0.021  -0.027
    1RG35    N1   20   0.002   0.008   0.014
    1RG35    H1   21  -0.009   0.007   0.008
    1RG35    C2   22   0.069  -0.083  -0.059
    1RG35    N2   23   0.012  -0.006  -0.002
    1RG35   H21   24  -0.019   0.014   0.007
    1RG35   H22   25  -0.002  -0.001  -0.004
    1RG35    N3   26  -0.059   0.065   0.041
    1RG35    C4   27  -0.011  -0.003  -0.013
    1RG35   C3'   28  -0.118  -0.317   0.063
    1RG35   H3'   29   0.007   0.024  -0.009
    1RG35   C2'   30   0.156   0.050   0.132
    1RG35  H2'1   31  -0.009   0.005  -0.005
    1RG35   O2'   32  -0.039  -0.000   0.005
    1RG35  HO'2   33   0.005   0.001  -0.004
    1RG35   O3'   34   0.003   0.021  -0.018
    1RG35   H3T   35   0.000   0.001   0.007
    1RG35   O3P   36   0.018   0.009  -0.002
   0.00000   0.00000   0.00000
