Gromacs Runs On Most of All Computer Systems in water t=   0.00000 step= 103
   36
    1RG35     P    1  -0.087   0.087  -0.074
    1RG35   O1P    2  -0.088   0.102  -0.096
    1RG35   O2P    3  -0.073   0.118  -0.098
    1RG35   O5'    4  -0.055   0.077  -0.011
    1RG35   C5'    5  -0.052   0.059   0.020
    1RG35  H5'1    6  -0.084   0.031   0.015
    1RG35  H5'2    7  -0.038   0.082   0.005
    1RG35   C4'    8  -0.022   0.049   0.077
    1RG35   H4'    9  -0.020   0.037   0.098
    1RG35   O4'   10  -0.043   0.015   0.097
    1RG35   C1'   11  -0.006   0.026   0.133
    1RG35   H1'   12  -0.007   0.001   0.169
    1RG35    N9   13  -0.014   0.030   0.116
    1RG35    C8   14  -0.024   0.056   0.066
    1RG35    H8   15  -0.025   0.074   0.035
    1RG35    N7   16  -0.029   0.052   0.064
    1RG35    C5   17  -0.023   0.022   0.116
    1RG35    C6   18  -0.025   0.004   0.139
    1RG35    O6   19  -0.033   0.014   0.114
    1RG35    N1   20  -0.017  -0.024   0.193
    1RG35    H1   21  -0.018  -0.038   0.211
    1RG35    C2   22  -0.008  -0.037   0.224
    1RG35    N2   23  -0.001  -0.065   0.276
    1RG35   H21   24  -0.001  -0.078   0.295
    1RG35   H22   25   0.006  -0.073   0.296
    1RG35    N3   26  -0.007  -0.019   0.200
    1RG35    C4   27  -0.014   0.009   0.147
    1RG35   C3'   28   0.024   0.091   0.081
    1RG35   H3'   29   0.022   0.113   0.050
    1RG35   C2'   30   0.039   0.073   0.133
    1RG35  H2'1   31   0.062   0.092   0.138
    1RG35   O2'   32   0.061   0.064   0.177
    1RG35  HO'2   33   0.090   0.094   0.177
    1RG35   O3'   34   0.055   0.119   0.088
    1RG35   H3T   35   0.084   0.147   0.090
    1RG35   O3P   36  -0.137   0.039  -0.076
   0.00000   0.00000   0.00000
