Gromacs Runs On Most of All Computer Systems in water t=   0.00000 step= 91
   36
    1RG35     P    1  -0.004   0.007   0.001
    1RG35   O1P    2   0.004  -0.001   0.001
    1RG35   O2P    3   0.007  -0.008  -0.006
    1RG35   O5'    4   0.005  -0.003  -0.002
    1RG35   C5'    5   0.001  -0.000   0.001
    1RG35  H5'1    6   0.003   0.001   0.002
    1RG35  H5'2    7   0.003   0.001   0.002
    1RG35   C4'    8  -0.005   0.002  -0.002
    1RG35   H4'    9   0.006   0.001   0.002
    1RG35   O4'   10   0.005   0.007   0.009
    1RG35   C1'   11  -0.005  -0.044  -0.063
    1RG35   H1'   12   0.002   0.003   0.005
    1RG35    N9   13  -0.041   0.121   0.136
    1RG35    C8   14   0.035   0.001   0.029
    1RG35    H8   15  -0.009   0.002  -0.004
    1RG35    N7   16  -0.029  -0.060  -0.109
    1RG35    C5   17   0.015   0.294   0.438
    1RG35    C6   18   0.020  -0.202  -0.291
    1RG35    O6   19  -0.005   0.068   0.104
    1RG35    N1   20   0.053   0.045   0.110
    1RG35    H1   21  -0.019  -0.002  -0.014
    1RG35    C2   22  -0.158   0.002  -0.104
    1RG35    N2   23   0.259  -0.025   0.110
    1RG35   H21   24  -0.159   0.113   0.055
    1RG35   H22   25  -0.032  -0.085  -0.114
    1RG35    N3   26   0.127   0.033   0.142
    1RG35    C4   27  -0.103  -0.268  -0.452
    1RG35   C3'   28   0.006  -0.004  -0.001
    1RG35   H3'   29   0.001  -0.000   0.000
    1RG35   C2'   30   0.004  -0.000   0.019
    1RG35  H2'1   31   0.001   0.002  -0.003
    1RG35   O2'   32   0.004   0.001   0.002
    1RG35  HO'2   33   0.003   0.000   0.000
    1RG35   O3'   34  -0.007  -0.002  -0.004
    1RG35   H3T   35   0.014  -0.000   0.003
    1RG35   O3P   36   0.001  -0.004  -0.000
   0.00000   0.00000   0.00000
