Gromacs Runs On Most of All Computer Systems in water t=   0.00001 step= 51
   36
    1RG35     P    1  -0.108  -0.036  -0.046
    1RG35   O1P    2  -0.144  -0.006  -0.088
    1RG35   O2P    3   0.031   0.212  -0.109
    1RG35   O5'    4  -0.167  -0.318   0.483
    1RG35   C5'    5  -0.143  -0.001  -0.062
    1RG35  H5'1    6  -0.123   0.095   0.034
    1RG35  H5'2    7   0.230  -0.025  -0.093
    1RG35   C4'    8  -0.116   0.018  -0.131
    1RG35   H4'    9   0.080   0.074   0.174
    1RG35   O4'   10   0.086  -0.094  -0.264
    1RG35   C1'   11   0.020  -0.017  -0.062
    1RG35   H1'   12   0.016  -0.016   0.032
    1RG35    N9   13  -0.048  -0.016   0.002
    1RG35    C8   14   0.007   0.130  -0.029
    1RG35    H8   15  -0.066  -0.017  -0.011
    1RG35    N7   16   0.050   0.013   0.138
    1RG35    C5   17   0.066   0.001   0.055
    1RG35    C6   18   0.035  -0.023  -0.062
    1RG35    O6   19   0.002  -0.070  -0.084
    1RG35    N1   20  -0.024  -0.003  -0.020
    1RG35    H1   21  -0.018   0.002  -0.009
    1RG35    C2   22  -0.073  -0.001   0.015
    1RG35    N2   23  -0.036  -0.004  -0.022
    1RG35   H21   24   0.014   0.025   0.037
    1RG35   H22   25   0.020  -0.024  -0.018
    1RG35    N3   26  -0.030   0.072   0.019
    1RG35    C4   27  -0.016   0.012   0.047
    1RG35   C3'   28   0.002   0.050  -0.037
    1RG35   H3'   29  -0.001  -0.031   0.052
    1RG35   C2'   30   0.043   0.014  -0.038
    1RG35  H2'1   31  -0.056  -0.012   0.029
    1RG35   O2'   32   0.060  -0.051  -0.009
    1RG35  HO'2   33  -0.021   0.013   0.045
    1RG35   O3'   34   0.041  -0.044  -0.002
    1RG35   H3T   35   0.029   0.011   0.054
    1RG35   O3P   36   0.359   0.067  -0.021
   0.00000   0.00000   0.00000
