Gromacs Runs On Most of All Computer Systems in water t=   0.00012 step= 17
   36
    1RG35     P    1   0.013  -0.006   0.024
    1RG35   O1P    2   0.093   0.083   0.002
    1RG35   O2P    3   0.062   0.059   0.004
    1RG35   O5'    4   0.063  -0.115   0.169
    1RG35   C5'    5   0.035  -0.059   0.021
    1RG35  H5'1    6   0.224   0.030   0.045
    1RG35  H5'2    7  -0.041  -0.157   0.072
    1RG35   C4'    8  -0.097   0.067  -0.133
    1RG35   H4'    9  -0.149   0.157  -0.321
    1RG35   O4'   10  -0.004  -0.103  -0.095
    1RG35   C1'   11  -0.043  -0.073   0.036
    1RG35   H1'   12  -0.045  -0.080   0.041
    1RG35    N9   13  -0.032  -0.058   0.015
    1RG35    C8   14   0.005  -0.002  -0.043
    1RG35    H8   15  -0.001  -0.014  -0.062
    1RG35    N7   16   0.041   0.056  -0.083
    1RG35    C5   17   0.043   0.064  -0.076
    1RG35    C6   18   0.018   0.011  -0.039
    1RG35    O6   19  -0.058  -0.129   0.043
    1RG35    N1   20   0.051   0.076  -0.069
    1RG35    H1   21  -0.062  -0.156   0.079
    1RG35    C2   22   0.076   0.136  -0.103
    1RG35    N2   23   0.027   0.037  -0.016
    1RG35   H21   24   0.040   0.055  -0.024
    1RG35   H22   25  -0.046  -0.115   0.115
    1RG35    N3   26   0.043   0.090  -0.069
    1RG35    C4   27   0.034   0.061  -0.065
    1RG35   C3'   28  -0.108   0.144  -0.013
    1RG35   H3'   29  -0.121   0.135  -0.039
    1RG35   C2'   30  -0.044   0.042   0.101
    1RG35  H2'1   31   0.072   0.078   0.216
    1RG35   O2'   32  -0.004   0.030   0.174
    1RG35  HO'2   33   0.012  -0.059   0.176
    1RG35   O3'   34   0.010   0.176  -0.025
    1RG35   H3T   35   0.039  -0.393  -0.030
    1RG35   O3P   36  -0.148  -0.066  -0.029
   0.00000   0.00000   0.00000
