Gromacs Runs On Most of All Computer Systems in water t=   0.00009 step= 21
   36
    1RG35     P    1  -0.166  -0.086   0.040
    1RG35   O1P    2  -0.310  -0.071   0.061
    1RG35   O2P    3   0.015   0.089   0.076
    1RG35   O5'    4   0.006  -0.242  -0.007
    1RG35   C5'    5   0.081  -0.150  -0.036
    1RG35  H5'1    6   0.186  -0.151  -0.077
    1RG35  H5'2    7   0.156  -0.181  -0.033
    1RG35   C4'    8  -0.006   0.057   0.021
    1RG35   H4'    9   0.122   0.179   0.132
    1RG35   O4'   10  -0.077   0.178  -0.006
    1RG35   C1'   11   0.022   0.127  -0.076
    1RG35   H1'   12   0.019   0.096  -0.143
    1RG35    N9   13   0.075   0.069  -0.037
    1RG35    C8   14   0.061  -0.039   0.026
    1RG35    H8   15   0.064  -0.055   0.026
    1RG35    N7   16   0.014  -0.124   0.088
    1RG35    C5   17   0.012  -0.086   0.050
    1RG35    C6   18   0.014  -0.056  -0.001
    1RG35    O6   19   0.054   0.040  -0.060
    1RG35    N1   20  -0.018  -0.100   0.006
    1RG35    H1   21   0.022  -0.003  -0.078
    1RG35    C2   22  -0.031  -0.093   0.007
    1RG35    N2   23  -0.019   0.017  -0.038
    1RG35   H21   24   0.005   0.024   0.010
    1RG35   H22   25  -0.067   0.065  -0.069
    1RG35    N3   26   0.007  -0.045  -0.004
    1RG35    C4   27   0.019  -0.036   0.017
    1RG35   C3'   28   0.023   0.087   0.023
    1RG35   H3'   29   0.022   0.080   0.028
    1RG35   C2'   30   0.001   0.177  -0.052
    1RG35  H2'1   31  -0.020   0.172  -0.047
    1RG35   O2'   32   0.053   0.212  -0.007
    1RG35  HO'2   33   0.082  -0.113  -0.015
    1RG35   O3'   34   0.001   0.081   0.040
    1RG35   H3T   35  -0.011   0.015   0.099
    1RG35   O3P   36  -0.414  -0.133   0.038
   0.00000   0.00000   0.00000
