Gromacs Runs On Most of All Computer Systems in water t=   0.00000 step= 0
   36
    1RG35     P    1   0.280   0.319   0.063
    1RG35   O1P    2   0.301   0.335   0.207
    1RG35   O2P    3   0.375   0.230  -0.003
    1RG35   O5'    4   0.146   0.238   0.052
    1RG35   C5'    5   0.023   0.293   0.092
    1RG35  H5'1    6  -0.006   0.371   0.023
    1RG35  H5'2    7   0.033   0.337   0.190
    1RG35   C4'    8  -0.089   0.190   0.099
    1RG35   H4'    9  -0.175   0.237   0.146
    1RG35   O4'   10  -0.129   0.142  -0.029
    1RG35   C1'   11  -0.202   0.022  -0.008
    1RG35   H1'   12  -0.309   0.045  -0.012
    1RG35    N9   13  -0.172  -0.076  -0.115
    1RG35    C8   14  -0.251  -0.107  -0.221
    1RG35    H8   15  -0.348  -0.063  -0.235
    1RG35    N7   16  -0.200  -0.194  -0.303
    1RG35    C5   17  -0.075  -0.223  -0.248
    1RG35    C6   18   0.031  -0.309  -0.293
    1RG35    O6   19   0.040  -0.376  -0.394
    1RG35    N1   20   0.137  -0.312  -0.208
    1RG35    H1   21   0.216  -0.367  -0.233
    1RG35    C2   22   0.144  -0.238  -0.096
    1RG35    N2   23   0.255  -0.243  -0.032
    1RG35   H21   24   0.329  -0.302  -0.064
    1RG35   H22   25   0.267  -0.181   0.045
    1RG35    N3   26   0.053  -0.153  -0.054
    1RG35    C4   27  -0.057  -0.151  -0.133
    1RG35   C3'   28  -0.056   0.063   0.178
    1RG35   H3'   29   0.038   0.021   0.142
    1RG35   C2'   30  -0.172  -0.026   0.135
    1RG35  H2'1   31  -0.143  -0.131   0.137
    1RG35   O2'   32  -0.284  -0.003   0.218
    1RG35  HO'2   33  -0.250  -0.002   0.305
    1RG35   O3'   34  -0.050   0.083   0.318
    1RG35   H3T   35   0.042   0.088   0.340
    1RG35   O3P   36   0.256   0.443  -0.009
   0.00000   0.00000   0.00000
