Gromacs Runs On Most of All Computer Systems in water t=   0.00003 step= 39
   36
    1RG35     P    1  -0.038   0.068  -0.000
    1RG35   O1P    2  -0.008   0.060  -0.005
    1RG35   O2P    3  -0.175  -0.044  -0.021
    1RG35   O5'    4  -0.031   0.027  -0.009
    1RG35   C5'    5   0.003  -0.051   0.032
    1RG35  H5'1    6   0.176  -0.135  -0.120
    1RG35  H5'2    7   0.204  -0.060   0.005
    1RG35   C4'    8  -0.100   0.005   0.032
    1RG35   H4'    9  -0.301  -0.208  -0.117
    1RG35   O4'   10  -0.053   0.195   0.003
    1RG35   C1'   11   0.149   0.082  -0.004
    1RG35   H1'   12   0.108  -0.083   0.201
    1RG35    N9   13   0.155   0.291  -0.206
    1RG35    C8   14   0.044   0.121  -0.096
    1RG35    H8   15  -0.070  -0.093  -0.003
    1RG35    N7   16  -0.087  -0.134   0.084
    1RG35    C5   17  -0.019  -0.002  -0.007
    1RG35    C6   18   0.016   0.033   0.011
    1RG35    O6   19   0.137  -0.007   0.068
    1RG35    N1   20   0.001   0.084  -0.046
    1RG35    H1   21  -0.132  -0.074  -0.102
    1RG35    C2   22  -0.040  -0.035   0.039
    1RG35    N2   23   0.091   0.224  -0.149
    1RG35   H21   24  -0.045  -0.061   0.065
    1RG35   H22   25   0.032  -0.052   0.082
    1RG35    N3   26  -0.121  -0.170   0.125
    1RG35    C4   27  -0.027  -0.015  -0.003
    1RG35   C3'   28  -0.015  -0.025   0.006
    1RG35   H3'   29  -0.041  -0.145   0.079
    1RG35   C2'   30   0.048  -0.015   0.009
    1RG35  H2'1   31   0.023  -0.022   0.015
    1RG35   O2'   32   0.048   0.081   0.027
    1RG35  HO'2   33  -0.042   0.007   0.073
    1RG35   O3'   34  -0.023   0.048  -0.022
    1RG35   H3T   35  -0.008  -0.026  -0.075
    1RG35   O3P   36   0.144   0.130   0.029
   0.00000   0.00000   0.00000
