Gromacs Runs On Most of All Computer Systems in water t=   0.00002 step= 46
   36
    1RG35     P    1  -0.008  -0.013   0.011
    1RG35   O1P    2   0.024   0.018   0.010
    1RG35   O2P    3   0.028   0.009   0.016
    1RG35   O5'    4  -0.052   0.025  -0.057
    1RG35   C5'    5  -0.034   0.045  -0.007
    1RG35  H5'1    6   0.032   0.011  -0.089
    1RG35  H5'2    7  -0.045  -0.062   0.051
    1RG35   C4'    8  -0.022   0.035   0.097
    1RG35   H4'    9  -0.078   0.092  -0.053
    1RG35   O4'   10   0.079  -0.073   0.168
    1RG35   C1'   11  -0.076   0.026   0.118
    1RG35   H1'   12  -0.081  -0.032  -0.142
    1RG35    N9   13   0.038   0.090   0.146
    1RG35    C8   14  -0.004   0.149   0.067
    1RG35    H8   15  -0.098  -0.072  -0.138
    1RG35    N7   16  -0.048   0.048   0.151
    1RG35    C5   17   0.040   0.008   0.003
    1RG35    C6   18  -0.039  -0.129  -0.247
    1RG35    O6   19   0.276  -0.330  -0.293
    1RG35    N1   20  -0.216   0.068  -0.004
    1RG35    H1   21  -0.132   0.163   0.127
    1RG35    C2   22  -0.009   0.095   0.021
    1RG35    N2   23   0.056  -0.082  -0.063
    1RG35   H21   24   0.154  -0.038   0.039
    1RG35   H22   25  -0.097  -0.016  -0.095
    1RG35    N3   26   0.128   0.085   0.263
    1RG35    C4   27   0.093   0.049   0.172
    1RG35   C3'   28   0.087  -0.051  -0.053
    1RG35   H3'   29   0.074  -0.092  -0.055
    1RG35   C2'   30   0.031  -0.049   0.040
    1RG35  H2'1   31   0.055  -0.047  -0.040
    1RG35   O2'   32   0.014   0.061  -0.024
    1RG35  HO'2   33  -0.023  -0.009  -0.045
    1RG35   O3'   34  -0.044   0.046  -0.095
    1RG35   H3T   35  -0.071  -0.009  -0.015
    1RG35   O3P   36  -0.030  -0.018   0.014
   0.00000   0.00000   0.00000
