Gromacs Runs On Most of All Computer Systems in water t=   0.00002 step= 45
   36
    1RG35     P    1   0.010  -0.008   0.004
    1RG35   O1P    2  -0.033  -0.031   0.017
    1RG35   O2P    3   0.003  -0.018  -0.006
    1RG35   O5'    4   0.036   0.040   0.013
    1RG35   C5'    5   0.047   0.062   0.030
    1RG35  H5'1    6  -0.064  -0.070  -0.084
    1RG35  H5'2    7   0.040  -0.048   0.088
    1RG35   C4'    8   0.127   0.016  -0.100
    1RG35   H4'    9   0.030  -0.241  -0.018
    1RG35   O4'   10   0.050   0.271  -0.181
    1RG35   C1'   11   0.189   0.152  -0.034
    1RG35   H1'   12   0.108  -0.199   0.143
    1RG35    N9   13  -0.006  -0.095   0.126
    1RG35    C8   14  -0.106  -0.130   0.132
    1RG35    H8   15  -0.001   0.046  -0.152
    1RG35    N7   16  -0.036   0.054  -0.010
    1RG35    C5   17   0.016   0.057  -0.057
    1RG35    C6   18   0.004   0.021  -0.095
    1RG35    O6   19   0.072  -0.117  -0.042
    1RG35    N1   20  -0.080  -0.000   0.021
    1RG35    H1   21  -0.049   0.054   0.017
    1RG35    C2   22  -0.021  -0.016   0.038
    1RG35    N2   23   0.024   0.017  -0.042
    1RG35   H21   24   0.011  -0.020  -0.008
    1RG35   H22   25  -0.064   0.000  -0.017
    1RG35    N3   26   0.085   0.062   0.053
    1RG35    C4   27   0.050   0.007   0.031
    1RG35   C3'   28   0.011   0.087   0.021
    1RG35   H3'   29   0.004   0.076   0.014
    1RG35   C2'   30  -0.110   0.244   0.033
    1RG35  H2'1   31  -0.256   0.210   0.165
    1RG35   O2'   32  -0.208  -0.385   0.019
    1RG35  HO'2   33   0.123   0.008  -0.121
    1RG35   O3'   34   0.011  -0.080   0.037
    1RG35   H3T   35   0.030   0.002  -0.022
    1RG35   O3P   36  -0.045  -0.023  -0.010
   0.00000   0.00000   0.00000
