Gromacs Runs On Most of All Computer Systems in water
11558
    1RG35     P    1   2.201   2.398   4.361 -0.2032 -0.1257  0.0539
    1RG35   O1P    2   2.308   2.452   4.446  0.3131  0.3878 -0.1315
    1RG35   O2P    3   2.189   2.250   4.369 -0.2486 -0.3267 -0.4390
    1RG35   O5'    4   2.068   2.449   4.426 -0.0383  0.6566 -0.3939
    1RG35   C5'    5   2.035   2.588   4.428  0.0771 -0.1221 -0.3781
    1RG35  H5'1    6   2.004   2.621   4.329  1.6264 -0.1044 -0.8819
    1RG35  H5'2    7   2.124   2.645   4.458 -0.5288  0.9159 -0.5245
    1RG35   C4'    8   1.922   2.624   4.521 -0.4465  0.3760  0.4530
    1RG35   H4'    9   1.927   2.733   4.527 -0.7482  0.5012 -1.3122
    1RG35   O4'   10   1.797   2.564   4.479 -0.1421  0.0191 -0.3791
    1RG35   C1'   11   1.705   2.563   4.593  0.0741 -0.0678  0.1063
    1RG35   H1'   12   1.631   2.642   4.586  0.4837  0.2857 -0.2742
    1RG35    N9   13   1.626   2.439   4.613  0.3948  0.0150 -0.6922
    1RG35    C8   14   1.493   2.423   4.602 -0.4988  0.0646 -0.1240
    1RG35    H8   15   1.430   2.505   4.573 -2.3599 -1.3472 -0.1784
    1RG35    N7   16   1.443   2.308   4.640  0.5365  0.3841  0.1065
    1RG35    C5   17   1.556   2.238   4.680 -0.6597 -0.4410  0.0296
    1RG35    C6   18   1.574   2.103   4.731 -0.3705 -0.2875 -0.0417
    1RG35    O6   19   1.493   2.011   4.747 -0.2374 -0.0456 -0.5967
    1RG35    N1   20   1.706   2.072   4.761 -0.3991 -0.7691 -0.3031
    1RG35    H1   21   1.740   1.977   4.755  0.1074 -0.5072 -1.6936
    1RG35    C2   22   1.800   2.163   4.755 -0.1857  0.7844 -0.3995
    1RG35    N2   23   1.918   2.118   4.797 -0.2222 -0.1016 -0.4075
    1RG35   H21   24   1.925   2.020   4.819  1.6705  0.2967  0.9439
    1RG35   H22   25   1.999   2.178   4.785  0.1633 -0.4162  0.5353
    1RG35    N3   26   1.797   2.284   4.693 -0.0389 -0.7812 -0.5383
    1RG35    C4   27   1.669   2.319   4.663 -0.4659 -0.7945 -0.5588
    1RG35   C3'   28   1.931   2.578   4.667  0.1481  0.1323  0.1307
    1RG35   H3'   29   1.963   2.473   4.667  0.8013  0.3185  1.6942
    1RG35   C2'   30   1.794   2.607   4.711 -0.3824  1.0169 -0.3430
    1RG35  H2'1   31   1.775   2.556   4.806  1.4051  1.5885  0.3567
    1RG35   O2'   32   1.776   2.746   4.734  0.3313  0.0172  0.0922
    1RG35  HO'2   33   1.854   2.764   4.787  0.3435 -0.7589  0.3525
    1RG35   O3'   34   2.024   2.659   4.735  0.2217 -0.7047 -0.1889
    1RG35   H3T   35   2.099   2.602   4.752  0.8359  0.2479  0.3651
    1RG35   O3P   36   2.192   2.447   4.221  0.1839 -0.2492  0.0895
    1SOL     OW   37   2.335   1.621   0.535  0.3699 -0.0756  0.1730
    1SOL    HW2   38   2.373   1.533   0.542 -1.1001 -0.6172  1.9108
    1SOL    HW3   39   2.269   1.624   0.605 -0.9552  1.7361 -1.1001
    1SOL    MW4   40   2.331   1.610   0.545  0.0014  0.0920  0.2342
    1SOL     OW   41   4.289   3.614   0.732 -0.1517 -0.2657  0.2695
    1SOL    HW2   42   4.272   3.708   0.741 -1.3179 -0.3360 -0.9938
    1SOL    HW3   43   4.211   3.572   0.769  0.0842 -0.7208  0.2490
    1SOL    MW4   44   4.276   3.621   0.738 -0.2742 -0.3350  0.1001
    1SOL     OW   45   2.698   0.235   0.494 -0.4476  0.5666  0.1847
    1SOL    HW2   46   2.704   0.188   0.577 -0.6072  0.2722  0.0273
    1SOL    HW3   47   2.789   0.239   0.463 -0.4682  0.1150  0.0598
    1SOL    MW4   48   2.711   0.229   0.501 -0.4714  0.4681  0.1474
    1SOL     OW   49   2.457   2.634   0.342 -0.0899 -0.3974  0.3622
    1SOL    HW2   50   2.386   2.630   0.278  0.2322  1.5871 -0.1725
    1SOL    HW3   51   2.523   2.572   0.310  0.3716  1.0713 -1.6322
    1SOL    MW4   52   2.456   2.626   0.329  0.0134  0.0584  0.0285
    1SOL     OW   53   0.179   3.547   0.471  0.5827 -0.0520 -0.0683
    1SOL    HW2   54   0.270   3.541   0.443  0.5855 -2.1339  0.2587
    1SOL    HW3   55   0.184   3.554   0.567  0.4062 -0.0832 -0.0568
    1SOL    MW4   56   0.192   3.547   0.480  0.5598 -0.3307 -0.0237
    1SOL     OW   57   0.029   2.449   0.819 -0.1219  0.1968  0.0258
    1SOL    HW2   58   0.033   2.444   0.723  3.2979  0.8736  0.0775
    1SOL    HW3   59   0.027   2.543   0.838  0.1309  0.0766  0.6464
    1SOL    MW4   60   0.029   2.461   0.809  0.3629  0.2704  0.1144
    1SOL     OW   61   1.359   0.174   0.358 -0.3200  0.1082  0.3131
    1SOL    HW2   62   1.361   0.190   0.452 -0.4174 -1.5362  0.6062
    1SOL    HW3   63   1.423   0.235   0.322  0.5452 -0.0433  1.5629
    1SOL    MW4   64   1.368   0.184   0.366 -0.2187 -0.1287  0.5167
    1SOL     OW   65   4.217   0.352   0.487  0.0355  0.0788  0.0681
    1SOL    HW2   66   4.204   0.298   0.565  1.3736 -1.6306 -0.8593
    1SOL    HW3   67   4.168   0.306   0.419  0.8867  0.2244 -0.6466
    1SOL    MW4   68   4.209   0.339   0.488  0.3247 -0.1275 -0.1485
    1SOL     OW   69   2.742   1.589   0.418  0.1072  0.2653 -0.2759
    1SOL    HW2   70   2.682   1.647   0.371  1.2731  0.1100 -1.9904
    1SOL    HW3   71   2.711   1.501   0.397 -0.7219  0.2193  1.0769
    1SOL    MW4   72   2.730   1.585   0.409  0.1516  0.2387 -0.3236
    1SOL     OW   73   2.153   0.122   0.713 -0.1268  0.0252 -0.1985
    1SOL    HW2   74   2.237   0.106   0.755  0.3724  2.0768 -0.3555
    1SOL    HW3   75   2.166   0.098   0.621 -0.3133 -1.5456  0.1778
    1SOL    MW4   76   2.166   0.117   0.706 -0.0856  0.0886 -0.1696
    1SOL     OW   77   4.220   1.329   0.763  0.2530  0.1249 -0.4228
    1SOL    HW2   78   4.151   1.275   0.800  0.2596  1.2767  1.3367
    1SOL    HW3   79   4.201   1.333   0.670 -0.7196 -1.4809 -0.3027
    1SOL    MW4   80   4.209   1.323   0.756  0.1254  0.0650 -0.1748
    1SOL     OW   81   0.481   2.509   0.793 -0.0528 -0.2110  0.3466
    1SOL    HW2   82   0.470   2.516   0.699 -0.9247  1.3516  0.5370
    1SOL    HW3   83   0.405   2.460   0.823  0.4432 -1.0781  0.1966
    1SOL    MW4   84   0.470   2.504   0.785 -0.1024 -0.1197  0.3520
    1SOL     OW   85   4.086   0.925   0.488  0.2549  0.1256  0.4714
    1SOL    HW2   86   4.089   0.924   0.583  0.4098 -0.2358  0.4612
    1SOL    HW3   87   4.095   0.834   0.462 -2.9913 -0.2123  0.2280
    1SOL    MW4   88   4.087   0.913   0.497 -0.1526  0.0333  0.4380
    1SOL     OW   89   4.048   1.946   0.777  0.1000  0.0889 -0.2432
    1SOL    HW2   90   4.038   1.857   0.744  1.6363  0.0985 -0.7550
    1SOL    HW3   91   4.060   1.935   0.872  0.4014 -0.2528 -0.3219
    1SOL    MW4   92   4.048   1.933   0.785  0.3424  0.0452 -0.3210
    1SOL     OW   93   3.983   3.200   0.496 -0.7977  0.1058 -0.4672
    1SOL    HW2   94   4.059   3.176   0.443  1.0204  1.7605  1.3148
    1SOL    HW3   95   3.943   3.272   0.447 -0.3500  0.2226 -0.6739
    1SOL    MW4   96   3.988   3.206   0.483 -0.4985  0.3397 -0.2594
    1SOL     OW   97   0.927   0.698   0.382  0.0373  0.1058  0.4008
    1SOL    HW2   98   0.841   0.659   0.392  0.3089 -0.3228  1.1489
    1SOL    HW3   99   0.985   0.624   0.363  0.0496  0.5378 -1.2880
    1SOL    MW4  100   0.924   0.683   0.381  0.0747  0.1062  0.2767
    1SOL     OW  101   3.041   0.042   0.292  0.0064 -0.6336 -0.4708
    1SOL    HW2  102   3.013   0.088   0.371  1.4830  0.2597 -0.4515
    1SOL    HW3  103   2.998   0.089   0.220  0.2577 -0.2035 -0.3404
    1SOL    MW4  104   3.032   0.054   0.293  0.2344 -0.4590 -0.4510
    1SOL     OW  105   1.847   0.545   0.343  0.2112  0.2475  0.9276
    1SOL    HW2  106   1.832   0.614   0.408  0.0903  0.1548  0.9998
    1SOL    HW3  107   1.940   0.525   0.350  0.1830  0.1840  1.1286
    1SOL    MW4  108   1.857   0.551   0.353  0.1916  0.2269  0.9636
    1SOL     OW  109   2.632   2.417   0.283 -0.1366  0.2361 -0.6115
    1SOL    HW2  110   2.595   2.333   0.256 -0.3302  0.5049 -1.1951
    1SOL    HW3  111   2.703   2.394   0.343  0.1356 -0.3605 -1.1556
    1SOL    MW4  112   2.636   2.403   0.287 -0.1259  0.1931 -0.7603
    1SOL     OW  113   0.199   0.604   0.737  0.3348 -0.3759 -0.6859
    1SOL    HW2  114   0.208   0.687   0.783 -0.5068 -1.9647  2.4629
    1SOL    HW3  115   0.269   0.606   0.671  1.9557  1.7438  1.0162
    1SOL    MW4  116   0.210   0.615   0.734  0.4376 -0.3059 -0.0459
    1SOL     OW  117   2.821   2.295   0.459  0.3625  0.0211  0.0851
    1SOL    HW2  118   2.815   2.294   0.555  0.7581 -0.0856  0.1123
    1SOL    HW3  119   2.843   2.204   0.436 -0.7753 -0.1874 -0.1821
    1SOL    MW4  120   2.823   2.283   0.469  0.2646 -0.0207  0.0534
    1SOL     OW  121   0.553   0.288   0.465 -0.4050  0.1977  0.0111
    1SOL    HW2  122   0.586   0.377   0.473  2.0799 -0.6110 -0.8106
    1SOL    HW3  123   0.507   0.272   0.548 -0.5613  2.0964  0.3067
    1SOL    MW4  124   0.551   0.298   0.477 -0.0978  0.3415 -0.0583
    1SOL     OW  125   4.009   1.161   0.843 -0.2499  0.2249 -0.3390
    1SOL    HW2  126   4.008   1.178   0.938 -0.8198 -0.7657 -0.1579
    1SOL    HW3  127   3.927   1.199   0.812 -0.2842  0.1336 -0.3595
    1SOL    MW4  128   3.998   1.169   0.852 -0.3293  0.0821 -0.3178
    1SOL     OW  129   0.437   3.978   0.710  0.1374 -0.1660 -0.1342
    1SOL    HW2  130   0.428   3.965   0.616  0.0692  1.1798 -0.3237
    1SOL    HW3  131   0.437   4.073   0.722 -0.4157 -0.3236  1.2814
    1SOL    MW4  132   0.436   3.989   0.699  0.0554 -0.0091  0.0275
    1SOL     OW  133   0.097   0.014   0.852 -0.0334 -0.3822  0.7761
    1SOL    HW2  134   0.005   0.038   0.856  0.1019  0.1785  0.5755
    1SOL    HW3  135   0.126   0.044   0.766  0.1836 -1.1037  0.5973
    1SOL    MW4  136   0.089   0.021   0.841  0.0131 -0.4033  0.7260
    1SOL     OW  137   4.323   1.571   0.358  0.0890 -0.1283 -0.8503
    1SOL    HW2  138   4.395   1.616   0.403 -1.0052  0.0651  0.7158
    1SOL    HW3  139   4.336   1.594   0.266  0.1119  2.6500 -0.1956
    1SOL    MW4  140   4.335   1.580   0.352 -0.0520  0.2637 -0.5573
    1SOL     OW  141   2.057   2.322   0.768 -0.0546 -0.1922  0.0279
    1SOL    HW2  142   2.066   2.314   0.863 -1.4994 -1.4101  0.0967
    1SOL    HW3  143   1.975   2.371   0.756  0.9980  1.4573 -0.5934
    1SOL    MW4  144   2.047   2.327   0.779 -0.1063 -0.1352 -0.0450
    1SOL     OW  145   4.214   4.361   0.533  0.0060  0.0338  0.2470
    1SOL    HW2  146   4.225   4.377   0.627 -0.2152  0.5637  0.1842
    1SOL    HW3  147   4.299   4.330   0.503  0.1116 -0.0170  0.5956
    1SOL    MW4  148   4.226   4.359   0.541 -0.0091  0.0968  0.2847
    1SOL     OW  149   0.865   4.156   0.467 -0.3426 -0.0091 -0.5372
    1SOL    HW2  150   0.802   4.228   0.463 -0.1423  0.2261  0.4634
    1SOL    HW3  151   0.848   4.114   0.551  1.5036  0.6702  0.2132
    1SOL    MW4  152   0.854   4.160   0.477 -0.0726  0.1116 -0.3062
    1SOL     OW  153   1.592   2.315   0.777  0.4920 -0.3090  0.0019
    1SOL    HW2  154   1.509   2.361   0.769  0.8736  0.3161 -0.3923
    1SOL    HW3  155   1.572   2.225   0.752 -0.1509 -0.2542  0.3039
    1SOL    MW4  156   1.579   2.309   0.773  0.4575 -0.2193 -0.0103
    1SOL     OW  157   2.050   3.058   0.823  0.3966 -0.1021  0.0327
    1SOL    HW2  158   2.023   2.983   0.769  1.4164 -0.7516  0.4018
    1SOL    HW3  159   1.999   3.132   0.790 -0.2365 -0.8575 -0.6852
    1SOL    MW4  160   2.040   3.058   0.811  0.4475 -0.2873 -0.0133
    1SOL     OW  161   2.798   2.659   0.243  0.2916 -0.1855  0.0133
    1SOL    HW2  162   2.868   2.607   0.284  0.0890 -0.1825  0.3598
    1SOL    HW3  163   2.732   2.594   0.219  0.6885 -0.2686 -0.8900
    1SOL    MW4  164   2.799   2.643   0.245  0.3171 -0.1957 -0.0602
    1SOL     OW  165   0.226   0.069   0.603 -0.0862 -0.1547 -0.0324
    1SOL    HW2  166   0.237   0.011   0.528  0.3441  1.2098 -1.0433
    1SOL    HW3  167   0.154   0.128   0.578  1.0770  1.3102 -0.0205
    1SOL    MW4  168   0.218   0.069   0.590  0.1240  0.2186 -0.1642
    1SOL     OW  169   1.774   3.060   0.340 -0.2702 -0.3600 -0.2213
    1SOL    HW2  170   1.705   3.103   0.289 -0.7099 -0.0926  0.5950
    1SOL    HW3  171   1.739   2.973   0.360 -1.3309  0.5774  2.1377
    1SOL    MW4  172   1.761   3.054   0.336 -0.4680 -0.2010  0.1976
    1SOL     OW  173   3.050   4.388   0.455 -0.4520 -0.2029 -0.5105
    1SOL    HW2  174   3.031   4.434   0.373 -3.3447 -1.4165 -0.5787
    1SOL    HW3  175   2.994   4.430   0.520  0.1869 -0.6959  0.3706
    1SOL    MW4  176   3.040   4.399   0.453 -0.7493 -0.4277 -0.4032
    1SOL     OW  177   0.476   1.130   0.419  0.4834 -0.4084 -0.0106
    1SOL    HW2  178   0.487   1.220   0.388 -0.1793 -0.4236 -0.3114
    1SOL    HW3  179   0.449   1.139   0.511 -0.7369 -0.2537 -0.3714
    1SOL    MW4  180   0.474   1.143   0.427  0.2350 -0.3901 -0.0979
    1SOL     OW  181   3.346   0.768   0.834  0.4094 -0.0731  0.3143
    1SOL    HW2  182   3.360   0.678   0.804 -0.0172  0.4053 -1.3775
    1SOL    HW3  183   3.432   0.809   0.825  0.3322  0.0094 -0.0648
    1SOL    MW4  184   3.359   0.761   0.829  0.3428  0.0009  0.0411
    1SOL     OW  185   1.867   3.232   0.709  0.2583  0.1038 -0.2363
    1SOL    HW2  186   1.876   3.248   0.616 -0.7051  0.3182 -0.3019
    1SOL    HW3  187   1.777   3.201   0.720  0.0121  1.1049  0.7438
    1SOL    MW4  188   1.856   3.230   0.698  0.0986  0.2642 -0.1156
    1SOL     OW  189   2.048   2.786   0.676 -0.3045  0.3680 -0.3837
    1SOL    HW2  190   2.044   2.762   0.583 -0.8410  0.8787 -0.4933
    1SOL    HW3  191   2.125   2.740   0.709 -0.9253 -0.9552 -0.7475
    1SOL    MW4  192   2.058   2.777   0.668 -0.4570  0.2608 -0.4462
    1SOL     OW  193   1.978   2.023   0.435 -0.3006  0.1955 -0.0871
    1SOL    HW2  194   2.051   2.077   0.403 -0.7687  0.3903 -0.8295
    1SOL    HW3  195   1.979   2.035   0.529  1.9925 -1.4718  0.1794
    1SOL    MW4  196   1.988   2.031   0.443 -0.0597  0.0012 -0.1498
    1SOL     OW  197   3.594   1.927   0.840 -0.2817 -0.1167  0.7568
    1SOL    HW2  198   3.660   1.975   0.791  0.1571 -0.8711  0.6008
    1SOL    HW3  199   3.603   1.837   0.810 -1.2678 -0.2516  0.8574
    1SOL    MW4  200   3.604   1.921   0.830 -0.3536 -0.2341  0.7495
    1SOL     OW  201   0.234   2.858   0.737 -0.5704  0.1309  0.4087
    1SOL    HW2  202   0.312   2.814   0.771 -0.3401  0.1983 -0.0338
    1SOL    HW3  203   0.248   2.950   0.759  0.6127  0.5011 -1.8156
    1SOL    MW4  204   0.246   2.864   0.745 -0.3840  0.1884  0.0568
    1SOL     OW  205   1.373   4.033   0.466  0.0091  0.3101 -0.1403
    1SOL    HW2  206   1.299   4.093   0.461  0.3130  0.6717 -0.2571
    1SOL    HW3  207   1.373   4.003   0.557  0.3245  1.0780  0.1157
    1SOL    MW4  208   1.364   4.037   0.478  0.0907  0.4592 -0.1220
    1SOL     OW  209   4.299   2.858   0.473  0.2241  0.3905  0.1429
    1SOL    HW2  210   4.391   2.831   0.473 -0.0106 -0.4809  1.2248
    1SOL    HW3  211   4.272   2.850   0.564 -1.6129 -1.8436 -0.5375
    1SOL    MW4  212   4.307   2.853   0.485 -0.0491 -0.0191  0.1959
    1SOL     OW  213   2.453   2.018   0.741  0.4771 -0.2553 -0.3564
    1SOL    HW2  214   2.488   2.026   0.653 -0.5096  1.3505 -0.6066
    1SOL    HW3  215   2.480   2.098   0.786  1.2891 -1.2182  0.9333
    1SOL    MW4  216   2.461   2.029   0.735  0.4542 -0.1705 -0.2193
    1SOL     OW  217   2.880   3.114   0.872 -0.1083  0.2386  0.1030
    1SOL    HW2  218   2.822   3.132   0.798 -0.4137  0.5432  0.4134
    1SOL    HW3  219   2.918   3.028   0.853 -1.6342 -0.5469  0.5120
    1SOL    MW4  220   2.877   3.105   0.860 -0.3498  0.1752  0.1979
    1SOL     OW  221   0.861   4.284   0.839  0.1148 -0.4212 -0.0601
    1SOL    HW2  222   0.857   4.193   0.810 -0.3409 -0.5899  0.5174
    1SOL    HW3  223   0.936   4.321   0.792 -0.2434 -0.8509 -0.9759
    1SOL    MW4  224   0.870   4.277   0.829  0.0074 -0.5002 -0.1047
    1SOL     OW  225   2.918   1.194   0.453 -0.0179  0.0659  0.1526
    1SOL    HW2  226   3.006   1.198   0.417 -0.5230  1.4508 -1.0148
    1SOL    HW3  227   2.927   1.224   0.543  0.5872  0.9805 -0.2076
    1SOL    MW4  228   2.930   1.199   0.460 -0.0048  0.3692 -0.0490
    1SOL     OW  229   1.259   3.437   0.427  0.6147 -0.3307 -0.4365
    1SOL    HW2  230   1.321   3.494   0.382  2.1929 -0.6397  1.2983
    1SOL    HW3  231   1.230   3.488   0.503 -0.5102 -0.5771 -0.6825
    1SOL    MW4  232   1.263   3.451   0.431  0.6745 -0.4041 -0.2401
    1SOL     OW  233   2.046   0.169   0.427 -0.0415  0.7307  0.0353
    1SOL    HW2  234   2.060   0.263   0.430 -0.8174  0.7985  1.5264
    1SOL    HW3  235   2.117   0.136   0.370  1.2428  1.9975  0.8721
    1SOL    MW4  236   2.057   0.177   0.420  0.0255  0.9068  0.3425
    1SOL     OW  237   0.480   4.223   0.298  0.4246 -0.3581 -0.3360
    1SOL    HW2  238   0.407   4.272   0.337  0.1225 -1.8519  1.0518
    1SOL    HW3  239   0.559   4.267   0.329  0.1378  0.0855 -0.2398
    1SOL    MW4  240   0.481   4.235   0.307  0.3469 -0.4969 -0.1402
    1SOL     OW  241   0.461   2.499   0.530  0.2355 -0.1962  0.0584
    1SOL    HW2  242   0.393   2.544   0.481  0.4655 -0.0197 -0.0976
    1SOL    HW3  243   0.459   2.409   0.496 -0.8460 -0.5505  1.0180
    1SOL    MW4  244   0.452   2.493   0.519  0.1232 -0.2196  0.1644
    1SOL     OW  245   1.273   0.949   0.510  0.2244 -0.3300  0.0921
    1SOL    HW2  246   1.178   0.952   0.497  0.1405  0.3659  0.8109
    1SOL    HW3  247   1.283   0.931   0.604  0.8037 -1.0387 -0.1057
    1SOL    MW4  248   1.262   0.947   0.521  0.2897 -0.3316  0.1608
    1SOL     OW  249   0.211   3.838   0.808  0.1566  0.4709 -0.2260
    1SOL    HW2  250   0.218   3.844   0.904  1.6457 -0.6690 -0.2532
    1SOL    HW3  251   0.292   3.876   0.775  0.6004 -1.0928 -0.9696
    1SOL    MW4  252   0.223   3.844   0.817  0.4117  0.1144 -0.3277
    1SOL     OW  253   2.338   0.898   0.520  0.3259  0.2936  0.4063
    1SOL    HW2  254   2.286   0.856   0.452  0.2464 -0.7158  1.0829
    1SOL    HW3  255   2.426   0.903   0.483  0.5652 -1.4103  0.6963
    1SOL    MW4  256   2.343   0.893   0.506  0.3469 -0.0643  0.5339
    1SOL     OW  257   0.496   1.009   0.922 -0.1467 -0.5421 -0.0808
    1SOL    HW2  258   0.559   0.953   0.876 -0.9428 -1.1532 -0.4375
    1SOL    HW3  259   0.411   0.967   0.907 -0.5680 -0.0469  0.8868
    1SOL    MW4  260   0.493   0.996   0.914 -0.3073 -0.5573 -0.0002
    1SOL     OW  261   2.979   4.122   0.427  0.0712 -0.0038  0.2055
    1SOL    HW2  262   2.990   4.213   0.455 -1.3322  0.2614 -0.0273
    1SOL    HW3  263   2.884   4.112   0.418  0.2653 -1.2634 -0.5152
    1SOL    MW4  264   2.968   4.133   0.429 -0.0882 -0.1354  0.0797
    1SOL     OW  265   1.254   1.386   0.426  0.0477  0.0495  0.0041
    1SOL    HW2  266   1.182   1.332   0.459  0.2591  0.6264  1.4639
    1SOL    HW3  267   1.332   1.332   0.438  0.3718  0.9572  2.2588
    1SOL    MW4  268   1.255   1.372   0.432  0.1184  0.2455  0.4942
    1SOL     OW  269   1.355   3.249   0.717  1.0730 -0.2164  0.1659
    1SOL    HW2  270   1.385   3.227   0.629  1.7130  0.2697  0.2547
    1SOL    HW3  271   1.276   3.196   0.730  0.4111  0.4253 -1.0733
    1SOL    MW4  272   1.348   3.239   0.707  1.0701 -0.0675  0.0141
    1SOL     OW  273   0.017   0.649   0.514 -0.1618 -0.5574 -0.3197
    1SOL    HW2  274   0.062   0.625   0.595  0.3416  2.1362  0.2673
    1SOL    HW3  275   0.071   0.614   0.444  0.2009 -1.5989  0.4670
    1SOL    MW4  276   0.030   0.642   0.516 -0.0476 -0.3394 -0.1384
    1SOL     OW  277   2.373   0.168   0.434  0.1642  0.3454 -0.0391
    1SOL    HW2  278   2.469   0.163   0.432  0.1725 -0.1234  1.1207
    1SOL    HW3  279   2.355   0.243   0.491 -0.1534 -0.1117  0.4717
    1SOL    MW4  280   2.384   0.177   0.442  0.1235  0.2232  0.1813
    1SOL     OW  281   1.109   3.104   0.826 -0.1189 -0.1561 -0.2119
    1SOL    HW2  282   1.029   3.149   0.801  0.4047  0.5394 -0.6443
    1SOL    HW3  283   1.097   3.015   0.793 -0.4519  0.1088 -0.8148
    1SOL    MW4  284   1.097   3.098   0.818 -0.0938 -0.0293 -0.3485
    1SOL     OW  285   1.944   2.597   0.048  0.4821  0.1942 -0.1695
    1SOL    HW2  286   1.926   2.523   0.106  0.6404  0.3326  0.0601
    1SOL    HW3  287   1.905   2.573  -0.036 -0.9550  0.5823  0.3789
    1SOL    MW4  288   1.936   2.584   0.045  0.3135  0.2635 -0.0669
    1SOL     OW  289   2.179   1.632   0.296 -0.1066  0.3572 -0.2966
    1SOL    HW2  290   2.096   1.679   0.304 -0.5749 -0.2644 -1.3803
    1SOL    HW3  291   2.220   1.640   0.382 -0.3744  2.3764 -0.3245
    1SOL    MW4  292   2.174   1.639   0.308 -0.2038  0.5416 -0.4432
    1SOL     OW  293   0.689   3.115   0.882  0.1830  0.2238  0.1758
    1SOL    HW2  294   0.607   3.155   0.852  0.9598  1.9426  0.2927
    1SOL    HW3  295   0.679   3.107   0.976  0.8482  2.1341  0.4318
    1SOL    MW4  296   0.677   3.120   0.890  0.3732  0.7026  0.2251
    1SOL     OW  297   0.809   3.919   0.315 -0.2026  0.0323 -0.5023
    1SOL    HW2  298   0.828   4.000   0.364 -0.9268 -0.4968  0.6814
    1SOL    HW3  299   0.893   3.874   0.310  0.2645  0.9738 -1.3989
    1SOL    MW4  300   0.822   3.924   0.321 -0.2366  0.0868 -0.4644
    1SOL     OW  301   0.963   3.476   0.357  0.2151  0.5651 -0.2604
    1SOL    HW2  302   0.963   3.570   0.375  2.1649  0.3275  1.1338
    1SOL    HW3  303   1.056   3.453   0.346 -0.3259 -0.9428 -2.0117
    1SOL    MW4  304   0.976   3.485   0.358  0.4010  0.3347 -0.3075
    1SOL     OW  305   1.789   0.888   0.729  0.1183 -0.2134 -0.2010
    1SOL    HW2  306   1.780   0.974   0.771 -0.2638 -1.2635  1.9448
    1SOL    HW3  307   1.880   0.864   0.746 -0.0206 -0.6153 -0.0292
    1SOL    MW4  308   1.800   0.896   0.737  0.0495 -0.4050  0.1047
    1SOL     OW  309   4.478   3.983   0.711 -0.1276 -0.7588 -0.0388
    1SOL    HW2  310   4.400   3.946   0.754  0.5573 -0.5763  1.4046
    1SOL    HW3  311   4.549   3.923   0.736  0.0891 -1.3004 -1.8951
    1SOL    MW4  312   4.477   3.970   0.720 -0.0091 -0.8063 -0.0933
    1SOL     OW  313   3.363   4.647   0.803  0.3028 -0.4802 -0.2117
    1SOL    HW2  314   3.374   4.673   0.895  0.4054  1.5874 -0.7709
    1SOL    HW3  315   3.439   4.685   0.759 -0.5713 -0.0844 -1.4089
    1SOL    MW4  316   3.375   4.656   0.810  0.2010 -0.1551 -0.4435
    1SOL     OW  317   0.026   2.404   0.543 -0.1973  0.2157  0.0241
    1SOL    HW2  318  -0.054   2.395   0.492 -0.8352  0.2420  1.0037
    1SOL    HW3  319   0.073   2.322   0.528  0.1816  0.7120 -1.5391
    1SOL    MW4  320   0.021   2.392   0.535 -0.2314  0.2847 -0.0530
    1SOL     OW  321   0.674   2.115   0.501 -0.1859 -0.3495 -0.5944
    1SOL    HW2  322   0.600   2.148   0.451  0.2919  0.5651 -0.7152
    1SOL    HW3  323   0.683   2.023   0.475 -0.4828 -0.1169 -1.5190
    1SOL    MW4  324   0.666   2.107   0.491 -0.1620 -0.1979 -0.7324
    1SOL     OW  325   2.415   4.441   0.740  0.4883  0.1434  0.2238
    1SOL    HW2  326   2.359   4.385   0.794  0.2724 -0.0392 -0.1901
    1SOL    HW3  327   2.424   4.394   0.658  0.6414  0.5236  0.0207
    1SOL    MW4  328   2.409   4.428   0.737  0.4799  0.1693  0.1423
    1SOL     OW  329   3.319   3.017   0.363 -0.1291  0.5776  0.1965
    1SOL    HW2  330   3.355   3.037   0.277  1.1371 -0.2204  0.5304
    1SOL    HW3  331   3.310   2.922   0.364 -1.3891  0.6835  0.4713
    1SOL    MW4  332   3.322   3.007   0.352 -0.1280  0.4864  0.2768
    1SOL     OW  333   2.658   3.836   0.501 -0.5027 -0.1274 -0.0929
    1SOL    HW2  334   2.653   3.857   0.594 -3.4640  1.9927 -0.6700
    1SOL    HW3  335   2.603   3.758   0.491 -0.0757 -0.4352 -0.0493
    1SOL    MW4  336   2.650   3.828   0.512 -0.8373  0.1118 -0.1633
    1SOL     OW  337   4.481   1.253   0.808  0.1203  0.1361 -0.2472
    1SOL    HW2  338   4.487   1.242   0.902  0.0284  1.6868 -0.0410
    1SOL    HW3  339   4.388   1.270   0.791 -0.0983 -1.5702 -0.7878
    1SOL    MW4  340   4.470   1.254   0.818  0.0792  0.1155 -0.2913
    1SOL     OW  341   1.997   1.221   0.499 -0.5015  0.0560 -0.1554
    1SOL    HW2  342   1.944   1.290   0.460  1.5336  1.2878 -0.8431
    1SOL    HW3  343   1.961   1.140   0.463 -0.9582  0.9469 -1.7830
    1SOL    MW4  344   1.985   1.220   0.489 -0.2933  0.3359 -0.4609
    1SOL     OW  345   2.221   2.588   0.176 -0.0645 -0.3696 -0.1606
    1SOL    HW2  346   2.166   2.632   0.111  0.8509 -0.3521 -0.9288
    1SOL    HW3  347   2.181   2.502   0.188 -0.7442 -0.0505 -0.0790
    1SOL    MW4  348   2.208   2.583   0.169 -0.0334 -0.3252 -0.2512
    1SOL     OW  349   0.552   3.304   0.435  0.0775 -0.0128 -0.2827
    1SOL    HW2  350   0.527   3.395   0.425 -0.6554 -0.2055 -0.2346
    1SOL    HW3  351   0.526   3.263   0.352  1.3447  0.0340 -0.7063
    1SOL    MW4  352   0.545   3.310   0.422  0.1480 -0.0322 -0.3323
    1SOL     OW  353   0.488   3.124   0.234  0.0291  0.4696  0.3712
    1SOL    HW2  354   0.463   3.115   0.142  1.6449 -0.1584 -0.0153
    1SOL    HW3  355   0.413   3.090   0.283 -0.7681  0.6561 -0.7102
    1SOL    MW4  356   0.474   3.118   0.229  0.1371  0.4113  0.1775
    1SOL     OW  357   2.528   2.795   0.710  0.2184 -0.1377 -0.0349
    1SOL    HW2  358   2.528   2.884   0.746 -0.9643 -0.2161  0.1874
    1SOL    HW3  359   2.596   2.750   0.759  0.0996  0.3623  0.6024
    1SOL    MW4  360   2.537   2.801   0.721  0.0467 -0.0818  0.0785
    1SOL     OW  361   3.923   3.715   0.447 -0.0211  0.6600 -0.0443
    1SOL    HW2  362   4.014   3.733   0.424  0.2126 -0.1126  0.2510
    1SOL    HW3  363   3.874   3.790   0.414  0.8029  1.3766  0.3747
    1SOL    MW4  364   3.928   3.727   0.439  0.1183  0.6526  0.0499
    1SOL     OW  365   3.354   3.123   0.851 -0.4941 -0.1209 -0.7183
    1SOL    HW2  366   3.269   3.158   0.823  0.2012  2.4959  0.3198
    1SOL    HW3  367   3.351   3.125   0.947  0.9307  0.4991 -0.6687
    1SOL    MW4  368   3.342   3.127   0.860 -0.2146  0.3061 -0.5748
    1SOL     OW  369   2.227   1.147   0.150 -0.3195 -0.0495  0.0492
    1SOL    HW2  370   2.252   1.160   0.242  0.7475  2.5217 -0.5508
    1SOL    HW3  371   2.170   1.220   0.130  0.6343  0.2319 -1.7432
    1SOL    MW4  372   2.223   1.158   0.160 -0.0527  0.3269 -0.2664
    1SOL     OW  373   4.268   2.108   0.727  0.3323 -0.1105 -0.2043
    1SOL    HW2  374   4.343   2.060   0.763  0.8079  1.0442  0.3446
    1SOL    HW3  375   4.194   2.047   0.737  1.4083 -1.7585 -1.9056
    1SOL    MW4  376   4.268   2.093   0.733  0.5364 -0.1755 -0.3564
    1SOL     OW  377   0.361   0.220   0.281  0.0933 -0.5282 -0.7612
    1SOL    HW2  378   0.393   0.196   0.194  2.0378 -1.2396  0.1155
    1SOL    HW3  379   0.440   0.228   0.334 -1.0982 -0.6073  1.0702
    1SOL    MW4  380   0.375   0.218   0.276  0.1926 -0.6325 -0.4039
    1SOL     OW  381   4.275   3.109   0.877 -0.1699  0.3623 -0.1837
    1SOL    HW2  382   4.194   3.146   0.843 -0.6832 -1.2729 -0.8101
    1SOL    HW3  383   4.344   3.152   0.827 -0.6725  1.3669 -0.0245
    1SOL    MW4  384   4.274   3.119   0.866 -0.3042  0.2792 -0.2453
    1SOL     OW  385   0.222   2.074   0.784  0.3944  0.6883 -0.0233
    1SOL    HW2  386   0.297   2.015   0.792 -0.4877 -0.4973 -0.3674
    1SOL    HW3  387   0.248   2.152   0.833  1.9915  0.4350 -0.4362
    1SOL    MW4  388   0.235   2.076   0.792  0.4887  0.4985 -0.1231
    1SOL     OW  389   4.469   4.265   0.838 -0.4086 -0.1214  0.5092
    1SOL    HW2  390   4.484   4.248   0.931 -0.6526 -0.1041  0.5533
    1SOL    HW3  391   4.484   4.181   0.796  0.4925  0.0546  0.4634
    1SOL    MW4  392   4.473   4.252   0.845 -0.3219 -0.0963  0.5090
    1SOL     OW  393   2.023   2.704   0.411 -0.0256  0.1363 -0.0694
    1SOL    HW2  394   2.071   2.646   0.351  1.5903 -1.1395  2.4098
    1SOL    HW3  395   1.939   2.660   0.424  0.4557 -0.6791  0.3010
    1SOL    MW4  396   2.018   2.690   0.405  0.2511 -0.1397  0.3065
    1SOL     OW  397   2.940   2.004   0.717  0.2982  0.1058 -0.3446
    1SOL    HW2  398   3.022   1.974   0.755  1.3034  0.7634 -1.9646
    1SOL    HW3  399   2.873   1.947   0.756  1.6087 -1.0429  0.2634
    1SOL    MW4  400   2.942   1.993   0.727  0.6037  0.0411 -0.4781
    1SOL     OW  401   1.729   0.101   0.707  0.4933  0.1224 -0.1774
    1SOL    HW2  402   1.651   0.057   0.740 -0.2268  2.9126  1.9846
    1SOL    HW3  403   1.801   0.042   0.729 -0.6231 -0.7805  1.1362
    1SOL    MW4  404   1.728   0.087   0.714  0.2509  0.3714  0.2812
    1SOL     OW  405   2.286   4.575   0.394 -0.3066  0.1617 -0.3294
    1SOL    HW2  406   2.312   4.666   0.410  0.9021 -0.1424 -0.5319
    1SOL    HW3  407   2.363   4.523   0.418 -1.0961 -0.8357  0.0930
    1SOL    MW4  408   2.300   4.580   0.399 -0.2511 -0.0100 -0.3003
    1SOL     OW  409   1.569   2.054   0.728  0.3286  0.3110  0.0123
    1SOL    HW2  410   1.565   2.052   0.633 -0.3618 -0.0417  0.0479
    1SOL    HW3  411   1.484   2.020   0.757  1.5671 -2.3516  0.7433
    1SOL    MW4  412   1.557   2.049   0.720  0.4009 -0.0868  0.1134
    1SOL     OW  413   1.542   0.881   0.150  0.0960  0.1099  0.2632
    1SOL    HW2  414   1.629   0.840   0.149  0.0233 -0.0653  0.7811
    1SOL    HW3  415   1.501   0.851   0.069  0.9762  1.2084 -0.6131
    1SOL    MW4  416   1.548   0.872   0.139  0.2025  0.2318  0.2159
    1SOL     OW  417   1.637   3.718   0.465 -0.3247 -0.1633 -0.0834
    1SOL    HW2  418   1.664   3.810   0.470  1.1515 -0.6461  1.0544
    1SOL    HW3  419   1.718   3.671   0.447 -1.1834 -1.1986 -1.3507
    1SOL    MW4  420   1.651   3.724   0.463 -0.2433 -0.3633 -0.1005
    1SOL     OW  421   0.358   3.740   0.142 -0.3048  0.3271 -0.0276
    1SOL    HW2  422   0.400   3.826   0.143 -1.7976  1.0690 -0.1715
    1SOL    HW3  423   0.377   3.705   0.055  0.2506  0.5432  0.0055
    1SOL    MW4  424   0.366   3.747   0.131 -0.4285  0.4537 -0.0422
    1SOL     OW  425   1.078   1.565   0.889 -0.3487  0.1288  0.0289
    1SOL    HW2  426   1.089   1.479   0.849 -0.6526  0.0543  0.0981
    1SOL    HW3  427   1.151   1.617   0.857 -0.0756 -0.2048  0.1167
    1SOL    MW4  428   1.089   1.561   0.879 -0.3527  0.0750  0.0496
    1SOL     OW  429   1.308   0.141   0.667 -0.0971  0.3107 -0.3204
    1SOL    HW2  430   1.381   0.088   0.699 -0.4618 -0.4677 -0.7522
    1SOL    HW3  431   1.303   0.215   0.727 -1.1210 -1.3984  1.7820
    1SOL    MW4  432   1.317   0.144   0.679 -0.2804 -0.0175 -0.1000
    1SOL     OW  433   4.024   1.968   0.409  0.1403  0.5021 -0.1701
    1SOL    HW2  434   4.115   1.991   0.424  0.1039  0.3561  0.3004
    1SOL    HW3  435   4.024   1.872   0.403 -0.0321  0.4731  0.2266
    1SOL    MW4  436   4.036   1.958   0.411  0.1130  0.4790 -0.0557
    1SOL     OW  437   1.791   0.756   0.165  0.0600 -0.0291  0.6512
    1SOL    HW2  438   1.804   0.680   0.222 -0.4044 -0.5726  0.0429
    1SOL    HW3  439   1.878   0.794   0.154  0.3648 -0.7406  0.5938
    1SOL    MW4  440   1.804   0.751   0.171  0.0389 -0.1947  0.5634
    1SOL     OW  441   0.855   4.021   0.715  0.0436 -0.0695  0.3491
    1SOL    HW2  442   0.782   3.979   0.760 -0.3308 -0.1843 -0.3695
    1SOL    HW3  443   0.929   3.962   0.728 -0.0199 -0.0148  0.9684
    1SOL    MW4  444   0.855   4.008   0.723 -0.0141 -0.0772  0.3360
    1SOL     OW  445   4.027   2.749   0.826 -0.0694  0.0458  0.1403
    1SOL    HW2  446   4.036   2.655   0.813  0.3289  0.0079  0.6368
    1SOL    HW3  447   4.115   2.784   0.807 -0.6000  0.4969 -1.5145
    1SOL    MW4  448   4.040   2.741   0.822 -0.0873  0.1001 -0.0125
    1SOL     OW  449   4.197   3.769   0.394 -0.1754  0.4164  0.2695
    1SOL    HW2  450   4.257   3.694   0.393 -1.6281 -0.7735  1.1521
    1SOL    HW3  451   4.250   3.841   0.429  1.1962 -0.2188 -0.4731
    1SOL    MW4  452   4.212   3.769   0.399 -0.1860  0.1755  0.2880
    1SOL     OW  453   0.746   1.140   0.353 -0.3871  0.2276 -0.1552
    1SOL    HW2  454   0.663   1.110   0.389 -0.5112 -0.9570 -1.3735
    1SOL    HW3  455   0.731   1.146   0.258  1.0838 -0.5891 -0.4563
    1SOL    MW4  456   0.733   1.137   0.345 -0.2094 -0.0365 -0.3557
    1SOL     OW  457   2.693   0.892   0.689  0.1396  0.0713  0.2909
    1SOL    HW2  458   2.686   0.973   0.739 -1.1659 -0.4184  0.9393
    1SOL    HW3  459   2.764   0.843   0.730  0.8186  0.8063  0.0012
    1SOL    MW4  460   2.701   0.896   0.701  0.0570  0.1037  0.3382
    1SOL     OW  461   1.769   1.926   0.846 -0.5990  0.1570 -0.2532
    1SOL    HW2  462   1.702   1.980   0.803  0.6082  1.1807 -0.8826
    1SOL    HW3  463   1.770   1.844   0.796 -1.2163  0.2308 -0.3885
    1SOL    MW4  464   1.760   1.922   0.834 -0.5212  0.3018 -0.3541
    1SOL     OW  465   1.745   0.147   0.443 -0.1986  0.0594  0.1827
    1SOL    HW2  466   1.728   0.133   0.536 -0.0820  0.0792  0.2074
    1SOL    HW3  467   1.840   0.158   0.438 -0.1035 -0.8940 -0.0620
    1SOL    MW4  468   1.756   0.147   0.455 -0.1707 -0.0638  0.1537
    1SOL     OW  469   0.930   3.526   0.797  0.1100  0.2404 -0.3065
    1SOL    HW2  470   0.920   3.433   0.778 -1.2143  0.8863 -2.9119
    1SOL    HW3  471   0.847   3.565   0.772 -0.1487  1.8655  2.7711
    1SOL    MW4  472   0.918   3.519   0.791 -0.0988  0.5403 -0.2442
    1SOL     OW  473   1.970   1.257   0.764  0.3665  0.3858 -0.3256
    1SOL    HW2  474   1.991   1.252   0.671  0.3838  2.1648 -0.4370
    1SOL    HW3  475   2.040   1.208   0.807  1.1431  0.7428 -1.1602
    1SOL    MW4  476   1.982   1.250   0.758  0.4714  0.6677 -0.4504
    1SOL     OW  477   4.417   3.256   0.491 -0.3986 -0.7635  0.1044
    1SOL    HW2  478   4.345   3.208   0.451 -2.3019  0.8605  1.4572
    1SOL    HW3  479   4.388   3.347   0.491  0.9166 -0.3054  2.2118
    1SOL    MW4  480   4.403   3.262   0.486 -0.4764 -0.4888  0.5609
    1SOL     OW  481   0.469   1.700   0.721  0.3575  0.0400 -0.0885
    1SOL    HW2  482   0.534   1.653   0.774 -0.5038 -1.4000 -0.2761
    1SOL    HW3  483   0.470   1.789   0.756  1.2131 -0.3980  1.0456
    1SOL    MW4  484   0.477   1.706   0.733  0.3568 -0.2078  0.0364
    1SOL     OW  485   0.562   4.598   0.394 -0.0119 -0.2588  0.3129
    1SOL    HW2  486   0.589   4.514   0.430  0.9208  0.3560  1.0571
    1SOL    HW3  487   0.638   4.654   0.403 -0.6354  0.6788 -0.1657
    1SOL    MW4  488   0.576   4.594   0.400  0.0288 -0.0544  0.3479
    1SOL     OW  489   1.336   2.475   0.735  0.1139  0.1837  0.8969
    1SOL    HW2  490   1.330   2.483   0.639  0.0214  0.2755  0.9094
    1SOL    HW3  491   1.363   2.562   0.764  1.0779 -0.1076  0.8802
    1SOL    MW4  492   1.339   2.488   0.726  0.2290  0.1576  0.8964
    1SOL     OW  493   1.646   2.823   0.434 -0.2104  0.2023 -0.0105
    1SOL    HW2  494   1.569   2.835   0.378  0.5455 -1.9206 -1.5331
    1SOL    HW3  495   1.615   2.846   0.522 -1.9725  1.5219 -0.9385
    1SOL    MW4  496   1.632   2.828   0.438 -0.3433  0.0963 -0.3338
    1SOL     OW  497   3.439   0.466   0.494  0.0876 -0.4040  0.3514
    1SOL    HW2  498   3.405   0.389   0.447  0.5193  0.1642 -0.9213
    1SOL    HW3  499   3.409   0.540   0.442  1.1434  0.2059  0.6021
    1SOL    MW4  500   3.431   0.465   0.481  0.2837 -0.2486  0.2165
    1SOL     OW  501   2.897   4.406   0.719 -0.4473 -0.0729  0.4889
    1SOL    HW2  502   2.895   4.493   0.759 -1.6141 -0.2503  0.8427
    1SOL    HW3  503   2.810   4.369   0.738  0.4602 -1.7858  1.3706
    1SOL    MW4  504   2.885   4.413   0.727 -0.4811 -0.3219  0.6519
    1SOL     OW  505   0.051   1.971   0.445 -0.3300 -0.2478 -0.2591
    1SOL    HW2  506  -0.038   2.005   0.448 -0.7025 -1.2670  0.5176
    1SOL    HW3  507   0.041   1.876   0.452  0.8894 -0.2880  1.2991
    1SOL    MW4  508   0.038   1.963   0.446 -0.2183 -0.3877  0.0490
    1SOL     OW  509   1.544   1.289   0.742 -0.2955 -0.0227  0.0789
    1SOL    HW2  510   1.522   1.270   0.651  0.3287 -1.4362  0.2223
    1SOL    HW3  511   1.473   1.250   0.793 -1.0785  1.4784  0.1728
    1SOL    MW4  512   1.531   1.282   0.736 -0.3165 -0.0111  0.1102
    1SOL     OW  513   1.346   3.506   0.830  0.4044  0.0482  0.0028
    1SOL    HW2  514   1.423   3.544   0.788  0.6562 -0.9156 -0.4329
    1SOL    HW3  515   1.344   3.415   0.799 -0.1606 -0.3043  1.0409
    1SOL    MW4  516   1.356   3.499   0.820  0.3631 -0.1254  0.0823
    1SOL     OW  517   3.785   2.317   0.883  0.4607  0.3851 -0.1115
    1SOL    HW2  518   3.712   2.357   0.836  0.9917  1.0722 -0.3633
    1SOL    HW3  519   3.788   2.227   0.849  0.8057  0.8609 -1.3813
    1SOL    MW4  520   3.776   2.310   0.872  0.5760  0.5383 -0.3123
    1SOL     OW  521   1.954   4.645   0.857  0.4555 -0.4040 -0.1691
    1SOL    HW2  522   2.017   4.706   0.820  0.0465  0.4185  0.4760
    1SOL    HW3  523   1.971   4.562   0.811  2.4845 -0.3971  0.5224
    1SOL    MW4  524   1.964   4.642   0.846  0.6692 -0.2947  0.0072
    1SOL     OW  525   2.918   0.528   0.476 -0.7138 -0.2894 -0.7237
    1SOL    HW2  526   2.940   0.621   0.482  0.7412 -0.6345 -0.5590
    1SOL    HW3  527   2.900   0.502   0.566 -0.8152 -0.2414 -0.7300
    1SOL    MW4  528   2.918   0.537   0.489 -0.5350 -0.3285 -0.7028
    1SOL     OW  529   1.073   0.196   0.416 -0.0203 -0.0778 -0.0847
    1SOL    HW2  530   1.102   0.285   0.440  0.1109  0.2189 -1.3103
    1SOL    HW3  531   1.153   0.153   0.384 -0.4670  0.0133 -1.3517
    1SOL    MW4  532   1.088   0.202   0.415 -0.0620 -0.0267 -0.4136
    1SOL     OW  533   0.686   2.121   0.771 -0.0330 -0.0435 -0.1917
    1SOL    HW2  534   0.673   2.120   0.676 -1.2730 -0.0959 -0.0312
    1SOL    HW3  535   0.712   2.211   0.791  0.6985 -0.1522 -0.6309
    1SOL    MW4  536   0.688   2.133   0.761 -0.1001 -0.0646 -0.2285
    1SOL     OW  537   2.469   2.192   0.300 -0.0234 -0.5686 -0.1168
    1SOL    HW2  538   2.513   2.148   0.372 -0.2069 -0.4851  0.0456
    1SOL    HW3  539   2.432   2.271   0.338  0.0426 -0.4287 -0.3429
    1SOL    MW4  540   2.470   2.196   0.314 -0.0389 -0.5391 -0.1252
    1SOL     OW  541   2.533   1.762   0.364  0.1082  0.0916 -0.1584
    1SOL    HW2  542   2.475   1.726   0.431 -0.0397  0.8454  0.1168
    1SOL    HW3  543   2.474   1.788   0.293  0.4009 -2.3520 -1.3622
    1SOL    MW4  544   2.518   1.761   0.364  0.1273 -0.1314 -0.2810
    1SOL     OW  545   3.852   4.393   0.460  0.0179  0.9789 -0.4302
    1SOL    HW2  546   3.918   4.463   0.457 -0.3387  1.3803  0.8176
    1SOL    HW3  547   3.771   4.435   0.433 -0.3282  1.1960  0.9666
    1SOL    MW4  548   3.850   4.408   0.456 -0.0751  1.0605 -0.0813
    1SOL     OW  549   2.151   2.337   0.260  0.1563  0.1093 -0.0716
    1SOL    HW2  550   2.204   2.352   0.338  0.3129 -2.3624  0.3347
    1SOL    HW3  551   2.150   2.242   0.249 -2.2113  0.2393 -1.4479
    1SOL    MW4  552   2.158   2.327   0.268 -0.1354 -0.1998 -0.1996
    1SOL     OW  553   2.492   0.671   0.220 -0.4290  0.0028 -0.1245
    1SOL    HW2  554   2.510   0.762   0.243  0.0465 -0.2455  0.4990
    1SOL    HW3  555   2.550   0.620   0.277 -0.6127 -0.6845 -0.5461
    1SOL    MW4  556   2.502   0.676   0.231 -0.3905 -0.1206 -0.0979
    1SOL     OW  557   4.258   4.421   0.788 -0.0097  0.3137  0.5586
    1SOL    HW2  558   4.338   4.370   0.801 -0.0837 -0.0552 -0.4525
    1SOL    HW3  559   4.288   4.512   0.790  0.3741  0.1894  0.6019
    1SOL    MW4  560   4.273   4.426   0.790  0.0315  0.2489  0.4309
    1SOL     OW  561   1.554   0.749   0.842 -0.0895 -0.2394 -0.4903
    1SOL    HW2  562   1.638   0.784   0.811  0.1345  0.9071  1.2695
    1SOL    HW3  563   1.488   0.808   0.804 -0.0698 -0.9063 -1.5592
    1SOL    MW4  564   1.556   0.762   0.833 -0.0575 -0.1761 -0.3992
    1SOL     OW  565   0.655   3.872   0.843  0.3483  0.0620 -0.3273
    1SOL    HW2  566   0.585   3.909   0.791  1.7630  0.7119 -1.8021
    1SOL    HW3  567   0.681   3.793   0.796  1.0388  0.1709 -0.1407
    1SOL    MW4  568   0.650   3.866   0.830  0.6260  0.1621 -0.4973
    1SOL     OW  569   1.002   3.738   0.418 -0.2526 -0.0491  0.4564
    1SOL    HW2  570   1.010   3.709   0.509  0.5624 -1.2684  0.0040
    1SOL    HW3  571   1.086   3.778   0.398  0.7547 -2.6193 -0.7227
    1SOL    MW4  572   1.014   3.739   0.427 -0.0123 -0.5488  0.2412
    1SOL     OW  573   0.903   1.706   0.734  0.2290 -0.2158  0.4731
    1SOL    HW2  574   0.910   1.793   0.772  0.1990  0.3989 -0.9337
    1SOL    HW3  575   0.962   1.652   0.788 -0.3252  0.5008  1.8090
    1SOL    MW4  576   0.912   1.710   0.746  0.1519 -0.0401  0.4638
    1SOL     OW  577   0.519   1.397   0.343  0.2472 -0.0949 -0.4343
    1SOL    HW2  578   0.442   1.441   0.377  0.8666  0.9618 -0.3864
    1SOL    HW3  579   0.587   1.464   0.342  1.3554 -1.1801  0.1586
    1SOL    MW4  580   0.518   1.412   0.347  0.4752 -0.0988 -0.3498
    1SOL     OW  581   0.645   4.658   0.798 -0.1959  0.1546 -0.3017
    1SOL    HW2  582   0.637   4.654   0.894  0.2158  0.7567 -0.2384
    1SOL    HW3  583   0.643   4.567   0.770  0.2678 -0.0555  0.3286
    1SOL    MW4  584   0.643   4.646   0.807 -0.0803  0.2060 -0.2102
    1SOL     OW  585   0.223   3.577   0.757  0.1549 -0.0035  0.2265
    1SOL    HW2  586   0.221   3.673   0.763  1.4534  0.1567 -1.6019
    1SOL    HW3  587   0.308   3.552   0.793  0.5544 -0.3406 -0.9498
    1SOL    MW4  588   0.234   3.586   0.763  0.3790 -0.0269 -0.1699
    1SOL     OW  589   0.204   3.246   0.407  0.2924 -0.0146 -0.2476
    1SOL    HW2  590   0.109   3.247   0.409  0.2514 -0.1483 -1.7032
    1SOL    HW3  591   0.230   3.331   0.441 -0.2704 -0.8893  2.5472
    1SOL    MW4  592   0.195   3.257   0.412  0.2127 -0.1476 -0.0709
    1SOL     OW  593   2.550   0.939   0.318 -0.4207 -0.3631  0.5515
    1SOL    HW2  594   2.642   0.935   0.347 -0.1667 -1.9560 -0.4020
    1SOL    HW3  595   2.550   1.005   0.248  0.3172 -1.4413 -0.4926
    1SOL    MW4  596   2.562   0.947   0.313 -0.2899 -0.7156  0.2880
    1SOL     OW  597   3.851   3.444   0.464  0.5286 -0.2400 -0.1468
    1SOL    HW2  598   3.843   3.444   0.560 -0.5460 -0.5682 -0.2264
    1SOL    HW3  599   3.873   3.535   0.442 -1.5338  0.3827  0.2521
    1SOL    MW4  600   3.853   3.456   0.474  0.1147 -0.2010 -0.1047
    1SOL     OW  601   2.701   1.888   0.796  0.0225  0.4699 -0.3346
    1SOL    HW2  602   2.612   1.915   0.771  0.2900 -0.1327 -1.9701
    1SOL    HW3  603   2.710   1.917   0.887 -1.9116  0.3751 -0.1021
    1SOL    MW4  604   2.690   1.896   0.805 -0.1974  0.3780 -0.5198
    1SOL     OW  605   1.308   4.231   0.823  0.2521 -0.1902  0.2023
    1SOL    HW2  606   1.232   4.287   0.808 -0.3227 -0.7357  1.0374
    1SOL    HW3  607   1.382   4.282   0.791 -0.6503 -0.3773 -2.2913
    1SOL    MW4  608   1.307   4.245   0.816  0.0572 -0.2866 -0.0165
    1SOL     OW  609   2.282   3.479   0.325 -0.6177  0.6914 -0.0548
    1SOL    HW2  610   2.260   3.398   0.371 -0.4531  0.6571 -0.0388
    1SOL    HW3  611   2.280   3.455   0.232 -1.7110  0.9403 -0.1030
    1SOL    MW4  612   2.279   3.465   0.319 -0.7403  0.7198 -0.0591
    1SOL     OW  613   2.932   0.004   0.811 -0.0432  0.5026  0.2749
    1SOL    HW2  614   3.009   0.032   0.761 -0.2280 -0.9886 -0.8996
    1SOL    HW3  615   2.861   0.058   0.778  0.4298  1.6929  1.1671
    1SOL    MW4  616   2.933   0.015   0.800 -0.0052  0.4630  0.2376
    1SOL     OW  617   2.537   3.580   0.422 -0.1130 -0.1070  0.1944
    1SOL    HW2  618   2.461   3.548   0.374  0.5278  0.4319 -1.1973
    1SOL    HW3  619   2.610   3.528   0.388  0.4391  0.7002  0.1562
    1SOL    MW4  620   2.537   3.569   0.411  0.0446  0.0706  0.0058
    1SOL     OW  621   2.490   3.828   0.793  0.0058  0.2362  0.0938
    1SOL    HW2  622   2.413   3.873   0.760 -0.7207  0.2117  1.7139
    1SOL    HW3  623   2.483   3.739   0.759  0.1266  0.6501 -1.0205
    1SOL    MW4  624   2.479   3.822   0.784 -0.0739  0.2875  0.1605
    1SOL     OW  625   2.741   2.941   0.336 -0.1773  0.5176  0.1900
    1SOL    HW2  626   2.650   2.933   0.366 -0.0368 -0.3048  0.4024
    1SOL    HW3  627   2.757   2.860   0.288  0.4120  0.7115  0.0690
    1SOL    MW4  628   2.731   2.929   0.334 -0.0811  0.4346  0.2020
    1SOL     OW  629   0.800   1.353   0.521  0.4110 -0.1482 -0.3525
    1SOL    HW2  630   0.760   1.302   0.450 -0.6811 -0.1946  0.2746
    1SOL    HW3  631   0.774   1.443   0.503  0.4255 -0.1146 -0.2014
    1SOL    MW4  632   0.791   1.358   0.509  0.2688 -0.1500 -0.2498
    1SOL     OW  633   4.059   1.672   0.428 -0.1833  0.0068  0.0988
    1SOL    HW2  634   4.136   1.625   0.397 -0.4753 -0.6903  0.4119
    1SOL    HW3  635   4.072   1.682   0.522  0.5724  1.8834 -0.1802
    1SOL    MW4  636   4.071   1.667   0.436 -0.1221  0.1624  0.1034
    1SOL     OW  637   4.234   2.648   0.290  0.3426  0.2169 -0.0008
    1SOL    HW2  638   4.233   2.725   0.347  1.2675 -0.5171  1.0357
    1SOL    HW3  639   4.149   2.650   0.246  0.2561  1.6816  0.2177
    1SOL    MW4  640   4.223   2.658   0.292  0.4530  0.3135  0.1647
    1SOL     OW  641   3.770   1.270   0.756 -0.0275  0.4032  0.1906
    1SOL    HW2  642   3.691   1.257   0.808  0.0541 -0.6958  0.0562
    1SOL    HW3  643   3.745   1.245   0.667  0.6175 -0.4772  0.2493
    1SOL    MW4  644   3.756   1.265   0.751  0.0684  0.1421  0.1806
    1SOL     OW  645   2.693   0.126   0.755  0.2130 -0.2627 -0.3512
    1SOL    HW2  646   2.675   0.203   0.809  1.0833 -1.0860  1.1618
    1SOL    HW3  647   2.610   0.078   0.754  0.3284 -0.4950  0.6954
    1SOL    MW4  648   2.680   0.129   0.762  0.3428 -0.4020 -0.0134
    1SOL     OW  649   3.721   0.770   0.393 -0.5474 -0.0336 -0.0045
    1SOL    HW2  650   3.641   0.792   0.441 -0.2982  0.2243  0.2919
    1SOL    HW3  651   3.776   0.847   0.402 -0.3335 -0.1468 -0.3555
    1SOL    MW4  652   3.718   0.783   0.400 -0.4861 -0.0145 -0.0117
    1SOL     OW  653   1.343   1.961   0.845 -0.4231  0.1392 -0.4052
    1SOL    HW2  654   1.326   1.873   0.812  0.6137  0.1887 -1.1195
    1SOL    HW3  655   1.358   1.950   0.939  0.4866 -0.5713 -0.6252
    1SOL    MW4  656   1.343   1.948   0.853 -0.1664  0.0521 -0.5285
    1SOL     OW  657   0.472   1.953   0.846  0.2385 -0.5990  0.4884
    1SOL    HW2  658   0.543   2.012   0.819  0.4778 -1.3153 -0.5079
    1SOL    HW3  659   0.470   1.959   0.941 -0.2581  1.6067  0.3569
    1SOL    MW4  660   0.481   1.961   0.855  0.2045 -0.4025  0.3396
    1SOL     OW  661   0.527   3.965   0.191  0.0857  0.1436 -0.4231
    1SOL    HW2  662   0.516   4.058   0.210 -1.0447 -0.4009  1.8366
    1SOL    HW3  663   0.622   3.952   0.189  0.2573  1.2438 -0.1824
    1SOL    MW4  664   0.538   3.976   0.193 -0.0408  0.2170 -0.0932
    1SOL     OW  665   0.880   3.255   0.751 -0.6131  0.2493 -0.3162
    1SOL    HW2  666   0.856   3.241   0.659 -0.8124 -1.6474 -0.0016
    1SOL    HW3  667   0.811   3.211   0.801  1.0615 -1.3501  0.6682
    1SOL    MW4  668   0.868   3.247   0.745 -0.4185 -0.2122 -0.1448
    1SOL     OW  669   1.699   3.444   0.100  0.4466  0.0827  0.0686
    1SOL    HW2  670   1.759   3.465   0.029 -0.5374  1.3773 -0.3898
    1SOL    HW3  671   1.740   3.481   0.178  0.1392  1.1621 -0.2784
    1SOL    MW4  672   1.712   3.451   0.101  0.2762  0.3955 -0.0376
    1SOL     OW  673   2.900   3.907   0.861  0.1104  0.5506  0.0567
    1SOL    HW2  674   2.828   3.963   0.832  0.0283  1.0013  1.0883
    1SOL    HW3  675   2.886   3.897   0.955  0.6824 -0.4089  0.0528
    1SOL    MW4  676   2.888   3.913   0.870  0.1748  0.4833  0.1923
    1SOL     OW  677   0.952   0.960   0.475  0.1505  0.1646 -0.1442
    1SOL    HW2  678   0.892   1.006   0.416  0.1393 -0.3431 -0.5278
    1SOL    HW3  679   0.939   0.867   0.455 -2.6200 -0.2871  3.2568
    1SOL    MW4  680   0.943   0.954   0.464 -0.2165  0.0381  0.2539
    1SOL     OW  681   1.569   3.600   0.714  0.0395 -0.4992 -0.1982
    1SOL    HW2  682   1.652   3.575   0.753 -0.4958 -1.2124  0.5043
    1SOL    HW3  683   1.592   3.636   0.628  1.2823  1.8237  1.0803
    1SOL    MW4  684   1.583   3.601   0.708  0.1328 -0.2871  0.0632
    1SOL     OW  685   2.452   4.325   0.488  0.0462  0.0515 -0.1476
    1SOL    HW2  686   2.523   4.261   0.476  0.8684  0.9484 -0.1120
    1SOL    HW3  687   2.373   4.271   0.495  0.6799 -0.9488 -0.4748
    1SOL    MW4  688   2.451   4.309   0.487  0.2382  0.0381 -0.1860
    1SOL     OW  689   0.210   0.421   0.424 -0.1208  0.0317 -0.1275
    1SOL    HW2  690   0.153   0.371   0.483 -0.4483  1.9110  1.1807
    1SOL    HW3  691   0.262   0.354   0.380  0.6345 -1.3992  2.8148
    1SOL    MW4  692   0.209   0.405   0.426 -0.0643  0.0908  0.4333
    1SOL     OW  693   4.046   4.577   0.427  0.0860  0.5417 -0.4708
    1SOL    HW2  694   4.086   4.617   0.350 -0.0361  1.3177 -0.1370
    1SOL    HW3  695   4.105   4.505   0.449 -0.3345 -0.2149 -1.7910
    1SOL    MW4  696   4.059   4.573   0.420  0.0148  0.5436 -0.6009
    1SOL     OW  697   2.525   2.252   0.846  0.1828 -0.1236  0.0735
    1SOL    HW2  698   2.609   2.257   0.800 -0.2104  0.3310 -0.6083
    1SOL    HW3  699   2.467   2.309   0.795 -0.6730 -0.8404  0.2467
    1SOL    MW4  700   2.529   2.260   0.833  0.0181 -0.1581  0.0064
    1SOL     OW  701   4.360   3.537   0.490  0.3816  0.1196 -0.0589
    1SOL    HW2  702   4.322   3.569   0.572  1.2468  1.1631 -0.0654
    1SOL    HW3  703   4.454   3.555   0.498  0.7349 -1.4891 -0.4893
    1SOL    MW4  704   4.367   3.544   0.502  0.5422  0.0448 -0.1165
    1SOL     OW  705   3.151   1.894   0.853  0.2376 -0.6320  0.4659
    1SOL    HW2  706   3.160   1.912   0.946 -2.2765 -1.3814  0.8809
    1SOL    HW3  707   3.224   1.940   0.812  2.8541 -2.3240  3.0327
    1SOL    MW4  708   3.162   1.902   0.860  0.2511 -0.9540  0.8593
    1SOL     OW  709   2.637   3.321   0.303 -0.4024 -0.0258  0.0847
    1SOL    HW2  710   2.580   3.252   0.270 -1.1565  0.3409  0.5986
    1SOL    HW3  711   2.703   3.276   0.355 -0.6469 -0.3955  0.0711
    1SOL    MW4  712   2.639   3.306   0.306 -0.5341 -0.0257  0.1507
    1SOL     OW  713   1.133   4.014   0.151  0.1050 -0.3581 -0.3325
    1SOL    HW2  714   1.184   3.947   0.196  0.8171 -1.0560 -2.1591
    1SOL    HW3  715   1.058   3.966   0.115 -1.0994  0.4088  1.0874
    1SOL    MW4  716   1.130   3.999   0.152  0.0401 -0.3490 -0.3862
    1SOL     OW  717   3.202   2.754   0.877 -0.2698 -0.2039  0.0422
    1SOL    HW2  718   3.197   2.669   0.832  0.8256 -0.1085 -0.2867
    1SOL    HW3  719   3.257   2.808   0.821 -1.9106  1.1195 -0.3211
    1SOL    MW4  720   3.209   2.750   0.864 -0.3419 -0.0165 -0.0492
    1SOL     OW  721   2.646   0.374   0.874 -0.0407  0.5278  0.0135
    1SOL    HW2  722   2.659   0.390   0.967  0.8291  1.4325 -0.2533
    1SOL    HW3  723   2.724   0.412   0.832  0.3644 -1.3165 -0.9421
    1SOL    MW4  724   2.658   0.381   0.881  0.1276  0.4039 -0.1477
    1SOL     OW  725   3.205   2.525   0.736 -0.2485 -0.1176 -0.0483
    1SOL    HW2  726   3.262   2.463   0.781 -1.6307 -1.1688  0.3053
    1SOL    HW3  727   3.117   2.489   0.747 -0.7054 -0.0307 -3.0159
    1SOL    MW4  728   3.201   2.512   0.743 -0.4911 -0.2451 -0.3932
    1SOL     OW  729   1.570   2.972   0.048 -0.7404  0.0811 -0.2025
    1SOL    HW2  730   1.579   3.028  -0.029  1.4894 -1.2852 -0.9754
    1SOL    HW3  731   1.651   2.921   0.051 -0.2438  0.9008  3.7041
    1SOL    MW4  732   1.582   2.973   0.038 -0.3808  0.0088  0.2109
    1SOL     OW  733   0.647   3.757   0.479  0.0740 -0.4057 -0.1624
    1SOL    HW2  734   0.569   3.811   0.468  0.5297 -0.1769 -2.6178
    1SOL    HW3  735   0.717   3.807   0.435  1.1822 -1.5046  0.3225
    1SOL    MW4  736   0.646   3.771   0.472  0.2803 -0.5205 -0.4224
    1SOL     OW  737   1.815   2.723   0.799 -0.1434  0.4331  0.1075
    1SOL    HW2  738   1.747   2.775   0.756 -0.1435  1.5667  1.4550
    1SOL    HW3  739   1.897   2.750   0.757 -0.1919  1.1945  0.5074
    1SOL    MW4  740   1.817   2.733   0.787 -0.1498  0.6828  0.3380
    1SOL     OW  741   2.500   3.574   0.692 -0.2125 -0.3403  0.2553
    1SOL    HW2  742   2.518   3.563   0.598 -0.7137  0.0182  0.1151
    1SOL    HW3  743   2.575   3.535   0.735  0.1424 -0.2861 -0.3037
    1SOL    MW4  744   2.512   3.568   0.685 -0.2320 -0.2859  0.1630
    1SOL     OW  745   2.710   3.207   0.667 -0.1006 -0.3002 -0.3053
    1SOL    HW2  746   2.761   3.209   0.586 -0.1151  0.7769 -0.2992
    1SOL    HW3  747   2.709   3.298   0.696  1.4435 -0.9518  1.8878
    1SOL    MW4  748   2.716   3.220   0.660  0.1011 -0.2441 -0.0151
    1SOL     OW  749   2.646   4.303   0.813  0.2259 -0.2440 -0.0659
    1SOL    HW2  750   2.667   4.304   0.906  1.2073  2.0444 -0.2959
    1SOL    HW3  751   2.570   4.360   0.804  0.7856  0.4002 -0.8158
    1SOL    MW4  752   2.639   4.310   0.824  0.4294  0.1431 -0.1951
    1SOL     OW  753   0.425   3.923   0.447 -0.1928 -0.0293  0.3805
    1SOL    HW2  754   0.472   3.941   0.365 -0.8152  0.6404  0.1571
    1SOL    HW3  755   0.337   3.898   0.418 -0.7881  1.4401  0.8850
    1SOL    MW4  756   0.420   3.922   0.432 -0.3534  0.2530  0.4176
    1SOL     OW  757   1.541   4.368   0.763  0.2548  0.1254 -0.6993
    1SOL    HW2  758   1.573   4.378   0.674  0.7235 -0.2820 -0.5795
    1SOL    HW3  759   1.608   4.315   0.807 -0.0291  0.2254 -0.1410
    1SOL    MW4  760   1.554   4.362   0.757  0.2792  0.0849 -0.6098
    1SOL     OW  761   0.986   1.766   0.463 -0.1849 -0.1781  0.5916
    1SOL    HW2  762   1.009   1.859   0.459 -1.0480  0.0113 -0.2486
    1SOL    HW3  763   0.973   1.748   0.556 -0.0373  0.5504  0.7589
    1SOL    MW4  764   0.987   1.776   0.474 -0.2793 -0.0571  0.5029
    1SOL     OW  765   2.295   3.052   0.280  0.0680 -0.2912 -0.2334
    1SOL    HW2  766   2.335   2.993   0.345 -1.1976 -0.5772  0.3085
    1SOL    HW3  767   2.211   3.011   0.260 -1.1414  1.7131  0.6952
    1SOL    MW4  768   2.290   3.039   0.286 -0.2587 -0.0644 -0.0394
    1SOL     OW  769   0.760   3.032   0.337  0.1595  0.0565 -0.2186
    1SOL    HW2  770   0.793   3.110   0.381 -0.2913 -0.6064  1.3183
    1SOL    HW3  771   0.688   3.063   0.283  0.5067  0.8204 -0.2518
    1SOL    MW4  772   0.755   3.046   0.335  0.1458  0.0699 -0.0202
    1SOL     OW  773   2.014   2.956   0.272  0.1863  0.3812 -0.2215
    1SOL    HW2  774   2.017   2.876   0.324  1.3269  1.3810  1.3070
    1SOL    HW3  775   1.942   3.007   0.310 -0.7562 -0.0442 -1.4052
    1SOL    MW4  776   2.005   2.953   0.284  0.2122  0.4568 -0.1760
    1SOL     OW  777   3.561   3.133   0.507 -0.3473  0.5368  0.0969
    1SOL    HW2  778   3.549   3.221   0.470 -0.0240  0.4933 -0.1127
    1SOL    HW3  779   3.473   3.096   0.508 -0.2973  0.3491 -1.1040
    1SOL    MW4  780   3.548   3.140   0.502 -0.2978  0.5062 -0.0892
    1SOL     OW  781   1.388   4.569   0.314  0.2142 -0.1490  0.3167
    1SOL    HW2  782   1.411   4.555   0.222 -0.7073 -0.3406  0.1135
    1SOL    HW3  783   1.382   4.664   0.323 -0.1245 -0.1476  0.0739
    1SOL    MW4  784   1.391   4.580   0.303  0.0479 -0.1745  0.2578
    1SOL     OW  785   0.839   3.252   0.489 -0.1096 -0.0857 -0.1837
    1SOL    HW2  786   0.885   3.326   0.449 -1.3236  0.0724 -1.3386
    1SOL    HW3  787   0.746   3.270   0.472 -0.4294 -1.7607 -0.2542
    1SOL    MW4  788   0.833   3.264   0.482 -0.3119 -0.2859 -0.3453
    1SOL     OW  789   4.181   0.231   0.721 -0.6263  0.3527 -0.0496
    1SOL    HW2  790   4.103   0.182   0.695 -0.7824  0.0362  0.9639
    1SOL    HW3  791   4.148   0.300   0.779 -0.3150  1.1533 -0.8198
    1SOL    MW4  792   4.167   0.234   0.726 -0.6061  0.4166 -0.0175
    1SOL     OW  793   0.299   0.888   0.419 -0.1922 -0.3427 -0.3470
    1SOL    HW2  794   0.210   0.921   0.425  0.3746  1.4530 -1.3551
    1SOL    HW3  795   0.354   0.967   0.417  1.1853 -1.2772 -2.9648
    1SOL    MW4  796   0.295   0.903   0.419  0.0643 -0.2291 -0.8254
    1SOL     OW  797   2.104   0.480   0.454 -0.1962  0.1703 -0.5558
    1SOL    HW2  798   2.198   0.478   0.471 -0.1905  0.3822 -0.5641
    1SOL    HW3  799   2.064   0.494   0.540 -0.2139  0.2131 -0.5708
    1SOL    MW4  800   2.111   0.482   0.468 -0.1976  0.2039 -0.5588
    1SOL     OW  801   0.660   0.562   0.480  0.0851 -0.6553  0.1151
    1SOL    HW2  802   0.672   0.545   0.573  1.2943  1.2859  0.3435
    1SOL    HW3  803   0.567   0.582   0.471 -0.5651 -3.3565  0.4572
    1SOL    MW4  804   0.649   0.562   0.491  0.1588 -0.7555  0.1904
    1SOL     OW  805   2.177   0.346   0.866  0.1518 -0.1713  0.4951
    1SOL    HW2  806   2.176   0.271   0.806 -0.1795 -0.6190  1.0407
    1SOL    HW3  807   2.117   0.409   0.827  0.5852 -0.1059 -0.0715
    1SOL    MW4  808   2.169   0.344   0.853  0.1655 -0.2218  0.4923
    1SOL     OW  809   3.358   4.383   0.744  0.1725 -0.0231  0.0496
    1SOL    HW2  810   3.367   4.475   0.770  0.8911  0.2091 -0.9873
    1SOL    HW3  811   3.284   4.351   0.796 -0.3859  1.2655  0.0888
    1SOL    MW4  812   3.349   4.391   0.755  0.1934  0.1774 -0.0821
    1SOL     OW  813   3.584   4.252   0.819  0.0453 -0.4196 -0.0241
    1SOL    HW2  814   3.502   4.299   0.803  1.5353  1.6205 -1.8675
    1SOL    HW3  815   3.572   4.168   0.774 -1.0814 -0.1990 -0.1583
    1SOL    MW4  816   3.572   4.247   0.811  0.0935 -0.1216 -0.2850
    1SOL     OW  817   0.682   4.363   0.479  0.4133  0.0583  0.0709
    1SOL    HW2  818   0.669   4.383   0.572 -0.0425  0.5471 -0.0903
    1SOL    HW3  819   0.751   4.424   0.452  0.1559  0.3007 -0.0411
    1SOL    MW4  820   0.690   4.374   0.488  0.3192  0.1550  0.0348
    1SOL     OW  821   2.328   2.410   0.445  0.2953 -0.1285 -0.2627
    1SOL    HW2  822   2.364   2.493   0.414 -0.7762  0.3194 -0.2982
    1SOL    HW3  823   2.322   2.420   0.540 -0.4105  0.0666 -0.3252
    1SOL    MW4  824   2.332   2.422   0.453  0.0608 -0.0436 -0.2756
    1SOL     OW  825   3.398   0.507   0.769  0.1134  0.3732  0.3832
    1SOL    HW2  826   3.420   0.476   0.681 -2.2014 -1.9097  0.5546
    1SOL    HW3  827   3.472   0.479   0.823  0.1081 -0.9753 -0.2817
    1SOL    MW4  828   3.411   0.499   0.764 -0.1929 -0.1060  0.3181
    1SOL     OW  829   0.728   2.608   0.541  0.3652 -0.1103 -0.1883
    1SOL    HW2  830   0.731   2.701   0.520 -0.7334  0.4699  2.0341
    1SOL    HW3  831   0.635   2.585   0.536  0.6897 -1.2147 -1.2184
    1SOL    MW4  832   0.716   2.617   0.538  0.2630 -0.1795 -0.0310
    1SOL     OW  833   0.239   4.345   0.438  0.0507 -0.3367  0.4258
    1SOL    HW2  834   0.218   4.370   0.528  0.0958  0.0876  0.3183
    1SOL    HW3  835   0.229   4.426   0.388  1.4717 -0.2358  0.2883
    1SOL    MW4  836   0.235   4.359   0.443  0.2441 -0.2670  0.3935
    1SOL     OW  837   0.379   0.628   0.507  0.8598  0.4080  0.0459
    1SOL    HW2  838   0.354   0.713   0.471 -0.2069 -0.4555 -1.3096
    1SOL    HW3  839   0.312   0.568   0.476  1.6959 -0.9664  0.8438
    1SOL    MW4  840   0.367   0.631   0.498  0.8294  0.1128 -0.0277
    1SOL     OW  841   2.019   3.634   0.697 -0.1750  0.1913  0.0428
    1SOL    HW2  842   2.088   3.572   0.720 -0.0261 -0.0333 -1.0048
    1SOL    HW3  843   1.940   3.599   0.739  0.2178  0.1496  0.7679
    1SOL    MW4  844   2.018   3.621   0.706 -0.1035  0.1559  0.0002
    1SOL     OW  845   4.065   0.415   0.874 -0.1473 -0.1273 -0.0838
    1SOL    HW2  846   4.128   0.485   0.855  0.2195 -0.2313  0.7157
    1SOL    HW3  847   3.982   0.448   0.841  0.0492  0.6385  0.1776
    1SOL    MW4  848   4.063   0.429   0.867 -0.0725 -0.0400  0.0560
    1SOL     OW  849   2.974   1.741   0.438 -0.2220 -0.1267  0.5954
    1SOL    HW2  850   3.024   1.731   0.357  1.6795 -1.2334  1.8548
    1SOL    HW3  851   2.909   1.671   0.435  0.0747 -0.3867  0.1799
    1SOL    MW4  852   2.972   1.731   0.427  0.0679 -0.3070  0.7067
    1SOL     OW  853   1.194   2.928   0.423  0.0155  0.3114  0.3099
    1SOL    HW2  854   1.258   2.900   0.358 -0.4068  2.5511 -1.1086
    1SOL    HW3  855   1.226   3.012   0.455 -1.0872  0.4186  1.1877
    1SOL    MW4  856   1.207   2.935   0.419 -0.1857  0.6208  0.2385
    1SOL     OW  857   1.018   2.569   0.476  0.5035 -0.5929 -0.5965
    1SOL    HW2  858   0.955   2.512   0.432 -0.0454 -0.6628  0.2739
    1SOL    HW3  859   0.991   2.657   0.451  0.2671 -0.6379 -0.5023
    1SOL    MW4  860   1.006   2.573   0.467  0.3999 -0.6080 -0.4693
    1SOL     OW  861   2.053   4.426   0.469 -0.0481 -0.2163  0.1501
    1SOL    HW2  862   1.969   4.464   0.441  0.3636 -0.2029 -1.0845
    1SOL    HW3  863   2.119   4.484   0.431  0.5520 -1.1187 -0.1998
    1SOL    MW4  864   2.050   4.439   0.460  0.0851 -0.3338 -0.0589
    1SOL     OW  865   3.446   1.156   0.493 -0.4084  0.5981  0.2411
    1SOL    HW2  866   3.528   1.200   0.469 -0.6808  1.1166  0.2496
    1SOL    HW3  867   3.402   1.218   0.551  0.0179 -0.4216  1.6960
    1SOL    MW4  868   3.451   1.170   0.498 -0.3881  0.5319  0.4342
    1SOL     OW  869   0.756   2.393   0.815  0.0291  0.7500  0.2235
    1SOL    HW2  870   0.769   2.398   0.909  0.2549  2.0046  0.1324
    1SOL    HW3  871   0.668   2.430   0.801 -0.3667 -0.2421  0.0228
    1SOL    MW4  872   0.746   2.398   0.825  0.0067  0.7846  0.1850
    1SOL     OW  873   4.427   3.958   0.448 -0.1818  0.0779 -0.5386
    1SOL    HW2  874   4.508   3.930   0.406  0.5813  3.8665 -1.7125
    1SOL    HW3  875   4.448   3.960   0.542  0.2220 -1.5161 -0.5697
    1SOL    MW4  876   4.440   3.954   0.455 -0.0277  0.3674 -0.6976
    1SOL     OW  877   3.415   2.862   0.735  0.1504 -0.0493  0.2318
    1SOL    HW2  878   3.422   2.939   0.791 -0.1798 -0.9591  1.5388
    1SOL    HW3  879   3.478   2.800   0.772  0.6549 -0.2925 -1.0127
    1SOL    MW4  880   3.424   2.864   0.747  0.1733 -0.2012  0.2400
    1SOL     OW  881   0.468   2.779   0.864  0.5461 -0.2427  0.0589
    1SOL    HW2  882   0.538   2.832   0.826 -0.1294  0.6720  0.0687
    1SOL    HW3  883   0.473   2.696   0.818  0.4116  0.4917 -1.3017
    1SOL    MW4  884   0.478   2.775   0.853  0.4392 -0.0250 -0.1193
    1SOL     OW  885   2.971   0.224   0.499  0.1199  0.1992  0.5530
    1SOL    HW2  886   2.991   0.313   0.469 -0.4499 -0.1865 -1.0206
    1SOL    HW3  887   3.022   0.214   0.579  3.6572  0.4141 -1.5532
    1SOL    MW4  888   2.980   0.235   0.505  0.5116  0.1767  0.0675
    1SOL     OW  889   2.282   4.015   0.722 -0.1777  0.3880 -0.0557
    1SOL    HW2  890   2.268   4.044   0.632 -0.6676 -2.5048 -0.9620
    1SOL    HW3  891   2.196   3.990   0.753  0.1093  0.6613  0.9955
    1SOL    MW4  892   2.269   4.016   0.714 -0.2046  0.0424 -0.0365
    1SOL     OW  893   1.313   3.970   0.754 -0.1065  0.2932  0.8052
    1SOL    HW2  894   1.224   3.936   0.746 -0.1702  0.7066 -0.5262
    1SOL    HW3  895   1.302   4.060   0.785 -0.2495  0.7484 -0.5024
    1SOL    MW4  896   1.300   3.978   0.757 -0.1340  0.4077  0.4570
    1SOL     OW  897   3.867   1.041   0.372 -0.1763 -0.3303  0.6632
    1SOL    HW2  898   3.946   1.006   0.413  0.3295 -0.2444 -0.2102
    1SOL    HW3  899   3.892   1.054   0.281 -1.7250 -1.8862 -0.0076
    1SOL    MW4  900   3.881   1.038   0.365 -0.3140 -0.5243  0.4595
    1SOL     OW  901   4.468   1.966   0.858  0.1155 -0.3019 -0.5139
    1SOL    HW2  902   4.553   1.999   0.831 -0.3941  0.1313 -1.5894
    1SOL    HW3  903   4.468   1.874   0.831 -0.1814 -0.0146 -1.5023
    1SOL    MW4  904   4.479   1.958   0.851  0.0086 -0.2069 -0.7862
    1SOL     OW  905   0.027   0.985   0.766 -0.0491 -0.5641 -0.3519
    1SOL    HW2  906   0.005   1.078   0.773 -0.7002 -0.5340 -2.5056
    1SOL    HW3  907  -0.045   0.940   0.809 -0.0960 -0.1086  0.0513
    1SOL    MW4  908   0.015   0.992   0.773 -0.1412 -0.5001 -0.5829
    1SOL     OW  909   3.072   3.060   0.509 -0.2749 -0.0243 -0.5468
    1SOL    HW2  910   3.148   3.055   0.452 -0.5892 -1.0105 -0.9067
    1SOL    HW3  911   3.043   2.969   0.519 -0.5925  0.1885  0.6916
    1SOL    MW4  912   3.078   3.047   0.503 -0.3583 -0.1264 -0.4308
    1SOL     OW  913   1.882   2.401   0.233 -0.2354  0.1203 -0.8702
    1SOL    HW2  914   1.966   2.369   0.265 -0.7639 -0.7912 -0.3651
    1SOL    HW3  915   1.848   2.453   0.306 -1.7062 -2.4360  0.3304
    1SOL    MW4  916   1.888   2.404   0.247 -0.4991 -0.3376 -0.6451
    1SOL     OW  917   3.147   1.158   0.826 -0.1273 -0.1198  0.4367
    1SOL    HW2  918   3.222   1.215   0.811  0.6464 -1.1881  0.1954
    1SOL    HW3  919   3.138   1.155   0.921 -0.5718  0.9129  0.4304
    1SOL    MW4  920   3.156   1.165   0.837 -0.0837 -0.1246  0.4040
    1SOL     OW  921   2.843   3.181   0.428  0.1218  0.2291 -0.0510
    1SOL    HW2  922   2.800   3.104   0.391 -0.3914  0.2191  0.5501
    1SOL    HW3  923   2.933   3.153   0.445  0.0749 -0.0784 -0.3170
    1SOL    MW4  924   2.849   3.167   0.426  0.0479  0.1872 -0.0068
    1SOL     OW  925   1.366   0.915   0.762  0.0435  0.0155  0.1954
    1SOL    HW2  926   1.357   1.001   0.805 -0.3591  0.5477 -0.9412
    1SOL    HW3  927   1.286   0.868   0.784 -1.5975  1.4301 -2.4825
    1SOL    MW4  928   1.354   0.920   0.771 -0.2261  0.2723 -0.3078
    1SOL     OW  929   3.713   0.515   0.519 -0.1848 -0.5181  0.1516
    1SOL    HW2  930   3.621   0.488   0.517 -0.0390 -1.2141  1.7027
    1SOL    HW3  931   3.716   0.596   0.469 -1.8462  0.0792  1.0028
    1SOL    MW4  932   3.701   0.522   0.512 -0.3846 -0.5311  0.4685
    1SOL     OW  933   4.010   2.483   0.792  0.2011 -0.0852 -0.0913
    1SOL    HW2  934   4.087   2.438   0.827 -0.0778 -0.2240  0.3436
    1SOL    HW3  935   3.936   2.428   0.816 -0.0018 -0.1719 -0.8853
    1SOL    MW4  936   4.011   2.470   0.800  0.1373 -0.1149 -0.1387
    1SOL     OW  937   1.739   1.616   0.463  0.1372  0.3085 -0.4897
    1SOL    HW2  938   1.813   1.670   0.435  0.2176 -0.0763 -1.0353
    1SOL    HW3  939   1.728   1.637   0.556 -0.3196  1.8314 -0.8664
    1SOL    MW4  940   1.747   1.626   0.472  0.0875  0.4586 -0.6114
    1SOL     OW  941   1.499   0.797   0.413 -0.0627 -0.3616  0.7781
    1SOL    HW2  942   1.425   0.847   0.447  0.4287 -0.0726  1.4363
    1SOL    HW3  943   1.503   0.819   0.321 -0.0324  0.5793  1.0046
    1SOL    MW4  944   1.490   0.806   0.406  0.0061 -0.1993  0.8948
    1SOL     OW  945   1.771   0.762   0.494 -0.1272 -0.4884 -0.0245
    1SOL    HW2  946   1.683   0.783   0.461 -0.1209  0.8091  0.7623
    1SOL    HW3  947   1.779   0.813   0.574  0.9703 -1.3977  0.4472
    1SOL    MW4  948   1.760   0.771   0.500  0.0184 -0.4371  0.1415
    1SOL     OW  949   4.076   0.903   0.767 -0.0737 -0.0603  0.1076
    1SOL    HW2  950   4.054   0.991   0.795 -0.4865 -0.7558  2.0558
    1SOL    HW3  951   4.150   0.877   0.822  0.6669 -0.5951 -1.0985
    1SOL    MW4  952   4.083   0.911   0.778 -0.0300 -0.2225  0.2055
    1SOL     OW  953   0.729   1.598   0.410  0.1614 -0.6140 -0.7619
    1SOL    HW2  954   0.821   1.620   0.398  0.1192  0.2103  0.3812
    1SOL    HW3  955   0.688   1.679   0.441 -0.8041 -1.1843 -0.5086
    1SOL    MW4  956   0.735   1.611   0.412  0.0284 -0.5805 -0.5777
    1SOL     OW  957   0.458   3.575   0.366 -0.1469 -0.1672  0.1429
    1SOL    HW2  958   0.433   3.622   0.287 -0.7092  0.7860  0.8716
    1SOL    HW3  959   0.520   3.633   0.410  1.9434 -1.6874 -0.7040
    1SOL    MW4  960   0.463   3.589   0.362  0.0547 -0.2422  0.1273
    1SOL     OW  961   1.836   2.851   0.076  0.7833  0.3744 -0.2101
    1SOL    HW2  962   1.862   2.760   0.063  0.5761  0.1463  0.9757
    1SOL    HW3  963   1.906   2.890   0.128 -0.3792  0.1914  1.5511
    1SOL    MW4  964   1.849   2.844   0.081  0.6026  0.3202  0.1787
    1SOL     OW  965   1.309   2.187   0.367  0.0232 -0.0989 -0.5077
    1SOL    HW2  966   1.309   2.171   0.273 -0.8274  1.2936 -0.7678
    1SOL    HW3  967   1.385   2.140   0.400  0.3038 -0.6259 -1.8889
    1SOL    MW4  968   1.319   2.179   0.359 -0.0519  0.0155 -0.7242
    1SOL     OW  969   3.281   0.728   0.341 -0.0247  0.1585  0.0634
    1SOL    HW2  970   3.202   0.757   0.387 -0.6903 -1.2385 -0.2000
    1SOL    HW3  971   3.268   0.758   0.251  1.1478  2.6388  0.6886
    1SOL    MW4  972   3.269   0.736   0.335  0.0422  0.3014  0.1111
    1SOL     OW  973   1.745   1.873   0.189  0.3726 -0.4441  0.6204
    1SOL    HW2  974   1.760   1.967   0.194  1.4801 -0.5891  0.2025
    1SOL    HW3  975   1.667   1.857   0.243 -1.8107  1.1654 -1.9225
    1SOL    MW4  976   1.737   1.883   0.197  0.2307 -0.2509  0.2297
    1SOL     OW  977   4.273   2.109   0.444  0.1519 -0.7739 -0.5218
    1SOL    HW2  978   4.275   2.114   0.540 -2.0800 -0.4955 -0.4505
    1SOL    HW3  979   4.264   2.200   0.416 -0.5835 -0.9623 -0.9216
    1SOL    MW4  980   4.272   2.122   0.453 -0.2394 -0.7620 -0.5651
    1SOL     OW  981   3.786   2.982   0.482  0.1543  0.1113 -0.0204
    1SOL    HW2  982   3.845   3.058   0.478  1.1049 -0.6702 -1.0764
    1SOL    HW3  983   3.699   3.020   0.491  0.9112  1.2646  3.0287
    1SOL    MW4  984   3.782   2.997   0.483  0.3798  0.1605  0.2426
    1SOL     OW  985   1.383   2.750   0.802  0.3875  0.0102 -0.2114
    1SOL    HW2  986   1.384   2.751   0.898 -0.4459 -0.3471 -0.1954
    1SOL    HW3  987   1.303   2.796   0.778 -0.7603 -2.1423 -0.6655
    1SOL    MW4  988   1.373   2.756   0.812  0.1261 -0.3209 -0.2692
    1SOL     OW  989   3.565   0.125   0.441 -0.4778 -0.0091 -0.1472
    1SOL    HW2  990   3.472   0.143   0.425 -0.9108 -0.8703  1.3780
    1SOL    HW3  991   3.574   0.127   0.536  1.2274  0.7950 -0.3100
    1SOL    MW4  992   3.554   0.128   0.451 -0.3102 -0.0166  0.0326
    1SOL     OW  993   4.066   3.502   0.840  0.0148 -0.5753  0.3081
    1SOL    HW2  994   4.066   3.411   0.811  1.2701 -1.0701  1.7797
    1SOL    HW3  995   4.057   3.496   0.935 -1.1585  0.8902  0.2904
    1SOL    MW4  996   4.065   3.489   0.849  0.0253 -0.4473  0.5000
    1SOL     OW  997   0.424   0.444   0.824 -0.0629 -0.4128 -0.5201
    1SOL    HW2  998   0.353   0.500   0.793  0.7034  0.9108  0.0476
    1SOL    HW3  999   0.408   0.359   0.783 -1.1871  0.2505 -1.4874
    1SOL    MW4 1000   0.413   0.440   0.815 -0.1101 -0.1507 -0.5727
    1SOL     OW 1001   2.209   4.188   0.513  0.1140  0.0002 -0.6124
    1SOL    HW2 1002   2.166   4.262   0.470 -0.6500 -1.0657 -1.6951
    1SOL    HW3 1003   2.152   4.113   0.497  1.5074 -1.0959 -0.6063
    1SOL    MW4 1004   2.196   4.188   0.505  0.1972 -0.2847 -0.7545
    1SOL     OW 1005   0.007   0.397   0.826 -0.0856 -0.6740  0.4185
    1SOL    HW2 1006   0.081   0.457   0.831 -1.5737  1.2623  0.3633
    1SOL    HW3 1007  -0.003   0.362   0.914  0.3347 -0.2012  0.6563
    1SOL    MW4 1008   0.015   0.401   0.838 -0.2265 -0.3562  0.4426
    1SOL     OW 1009   1.937   1.756   0.329 -0.1896  0.0165  0.0566
    1SOL    HW2 1010   1.948   1.848   0.352 -0.5275 -0.1514  0.9259
    1SOL    HW3 1011   1.858   1.754   0.276 -0.5547  0.1388  0.5944
    1SOL    MW4 1012   1.928   1.768   0.325 -0.2823  0.0105  0.2423
    1SOL     OW 1013   0.252   0.861   0.854 -0.3974 -0.0109  0.0849
    1SOL    HW2 1014   0.216   0.834   0.939 -0.9439  1.0251  0.1939
    1SOL    HW3 1015   0.180   0.909   0.812  0.6457  1.5452  0.0323
    1SOL    MW4 1016   0.237   0.864   0.860 -0.3318  0.3311  0.0923
    1SOL     OW 1017   0.009   0.951   0.481  0.3200  0.2425  0.1788
    1SOL    HW2 1018   0.005   0.856   0.494 -0.5901  0.2803  0.2270
    1SOL    HW3 1019   0.016   0.987   0.569  2.5655  0.1472  0.0567
    1SOL    MW4 1020   0.009   0.943   0.494  0.4962  0.2348  0.1690
    1SOL     OW 1021   0.032   1.689   0.501 -0.2824 -0.2234  0.3805
    1SOL    HW2 1022   0.011   1.683   0.594  0.2658  0.9381  0.5973
    1SOL    HW3 1023   0.108   1.631   0.489 -2.0963 -2.5900  0.0660
    1SOL    MW4 1024   0.040   1.681   0.511 -0.4494 -0.3823  0.3676
    1SOL     OW 1025   0.218   1.349   0.683  0.0305 -0.3515  0.5720
    1SOL    HW2 1026   0.275   1.272   0.676  0.6879  0.1044  0.8438
    1SOL    HW3 1027   0.134   1.314   0.713 -0.6351 -1.3770 -2.2946
    1SOL    MW4 1028   0.214   1.334   0.686  0.0294 -0.4268  0.2297
    1SOL     OW 1029   0.254   1.592   0.860  0.3674  0.6177 -0.5392
    1SOL    HW2 1030   0.259   1.505   0.821  0.0126  0.1291  0.4851
    1SOL    HW3 1031   0.312   1.646   0.806  2.6128 -0.8412  0.3328
    1SOL    MW4 1032   0.262   1.588   0.848  0.6169  0.3606 -0.2889
    1SOL     OW 1033   1.126   2.852   0.715  0.6025  0.4522 -0.2660
    1SOL    HW2 1034   1.055   2.790   0.732  0.0123  1.3515  0.6440
    1SOL    HW3 1035   1.127   2.862   0.620 -0.7854  0.7598 -0.2633
    1SOL    MW4 1036   1.116   2.845   0.705  0.3415  0.6113 -0.1456
    1SOL     OW 1037   3.835   2.691   0.386  0.4813 -0.6773  0.2507
    1SOL    HW2 1038   3.813   2.782   0.407  1.2437 -0.7764  1.5016
    1SOL    HW3 1039   3.758   2.641   0.415  0.0066 -0.4233 -0.5568
    1SOL    MW4 1040   3.822   2.697   0.393  0.5190 -0.6568  0.3092
    1SOL     OW 1041   1.082   2.389   0.816 -0.4771 -0.1773 -0.4783
    1SOL    HW2 1042   1.089   2.294   0.805 -2.4659 -0.6273  1.7725
    1SOL    HW3 1043   1.170   2.422   0.798  0.0411 -2.3514 -2.1011
    1SOL    MW4 1044   1.095   2.381   0.812 -0.6711 -0.5236 -0.3954
    1SOL     OW 1045   0.207   2.567   0.409 -0.7802  0.1730 -0.0938
    1SOL    HW2 1046   0.166   2.504   0.467 -0.0102 -1.6568 -1.4602
    1SOL    HW3 1047   0.140   2.589   0.345 -0.7303 -0.0546 -0.2234
    1SOL    MW4 1048   0.193   2.562   0.408 -0.6720 -0.0985 -0.2912
    1SOL     OW 1049   4.262   2.351   0.846  0.2445  0.3085  0.2591
    1SOL    HW2 1050   4.274   2.261   0.817  0.3160 -0.1434  1.6646
    1SOL    HW3 1051   4.350   2.389   0.846  0.2147  0.3731 -0.3162
    1SOL    MW4 1052   4.276   2.344   0.842  0.2499  0.2570  0.3686
    1SOL     OW 1053   0.279   1.556   0.489  0.0297 -0.7591  0.1950
    1SOL    HW2 1054   0.318   1.619   0.549 -0.5901  0.1584 -0.3516
    1SOL    HW3 1055   0.266   1.477   0.542 -0.3637 -0.0162  1.2131
    1SOL    MW4 1056   0.283   1.554   0.504 -0.1040 -0.5400  0.2573
    1SOL     OW 1057   4.056   1.680   0.715 -0.1615 -0.4748 -0.1524
    1SOL    HW2 1058   3.982   1.627   0.745  0.2870 -0.4343  1.0215
    1SOL    HW3 1059   4.132   1.646   0.763  0.6985 -0.8641 -1.7173
    1SOL    MW4 1060   4.056   1.668   0.725  0.0110 -0.5208 -0.2040
    1SOL     OW 1061   0.250   3.101   0.843  0.2325  0.2540  0.1290
    1SOL    HW2 1062   0.235   3.095   0.938 -0.0543 -0.7829  0.0154
    1SOL    HW3 1063   0.166   3.130   0.808  0.2973  0.4945  0.1656
    1SOL    MW4 1064   0.237   3.104   0.851  0.2032  0.1490  0.1189
    1SOL     OW 1065   1.662   1.113   0.298 -0.5037 -0.5628  0.4537
    1SOL    HW2 1066   1.631   1.054   0.230  1.3720  1.0020 -1.8609
    1SOL    HW3 1067   1.748   1.079   0.323  0.6603  1.1860 -1.0056
    1SOL    MW4 1068   1.669   1.101   0.293 -0.1026 -0.1255 -0.0442
    1SOL     OW 1069   0.017   2.620   0.206 -0.0965 -0.0361  0.1205
    1SOL    HW2 1070  -0.069   2.643   0.241 -0.1932 -0.1168 -0.0597
    1SOL    HW3 1071  -0.002   2.559   0.134  0.1819 -1.0688  0.9101
    1SOL    MW4 1072   0.003   2.615   0.201 -0.0726 -0.1831  0.2009
    1SOL     OW 1073   0.001   3.212   0.751 -0.1496  0.2762  0.0404
    1SOL    HW2 1074  -0.018   3.240   0.661 -0.3582  0.5018  0.1529
    1SOL    HW3 1075  -0.002   3.293   0.802 -0.4481  0.0895  0.3197
    1SOL    MW4 1076  -0.002   3.226   0.746 -0.2160  0.2816  0.0921
    1SOL     OW 1077   0.469   3.511   0.848 -0.3336 -0.1647 -0.0928
    1SOL    HW2 1078   0.474   3.486   0.940 -0.7946  0.2510  0.0500
    1SOL    HW3 1079   0.485   3.430   0.799 -0.6241 -0.4916  0.3543
    1SOL    MW4 1080   0.471   3.497   0.854 -0.4327 -0.1531 -0.0150
    1SOL     OW 1081   0.280   2.992   0.367  0.1402 -0.0915  0.2339
    1SOL    HW2 1082   0.214   2.937   0.409  0.2530 -0.2256  0.2373
    1SOL    HW3 1083   0.257   3.081   0.392 -1.2052  0.0322 -1.3896
    1SOL    MW4 1084   0.269   2.996   0.376 -0.0224 -0.0927  0.0202
    1SOL     OW 1085   0.427   1.166   0.676 -0.4215 -0.1208 -0.4688
    1SOL    HW2 1086   0.419   1.089   0.733  0.5012 -0.7016 -1.1154
    1SOL    HW3 1087   0.503   1.213   0.710 -0.8281  0.3814 -0.2384
    1SOL    MW4 1088   0.436   1.162   0.688 -0.3534 -0.1312 -0.5237
    1SOL     OW 1089   0.445   0.202   0.719  0.2312 -0.1028  0.0986
    1SOL    HW2 1090   0.368   0.148   0.703  0.9128 -0.9539 -0.3415
    1SOL    HW3 1091   0.515   0.140   0.736  1.0833  0.6403 -0.6370
    1SOL    MW4 1092   0.444   0.187   0.719  0.4335 -0.1171 -0.0565
    1SOL     OW 1093   0.437   0.376   1.105  0.3578 -0.3933 -0.1634
    1SOL    HW2 1094   0.433   0.389   1.010 -0.5144 -0.2349 -0.1095
    1SOL    HW3 1095   0.360   0.421   1.139  1.6822  1.1685  0.8185
    1SOL    MW4 1096   0.426   0.383   1.097  0.4174 -0.1663 -0.0268
    1SOL     OW 1097   1.985   2.062   0.702  0.2634 -0.0959  0.1281
    1SOL    HW2 1098   2.020   2.146   0.732 -0.4843  0.5560 -0.8160
    1SOL    HW3 1099   1.913   2.043   0.762  0.5636 -0.1757  0.4690
    1SOL    MW4 1100   1.980   2.070   0.714  0.2043 -0.0207  0.0485
    1SOL     OW 1101   3.348   1.327   0.701  0.2361 -0.2638 -0.1918
    1SOL    HW2 1102   3.407   1.274   0.754  0.0463  0.2319  0.5202
    1SOL    HW3 1103   3.357   1.416   0.735 -1.0558 -0.2076  0.0603
    1SOL    MW4 1104   3.357   1.332   0.713  0.0405 -0.1910 -0.0646
    1SOL     OW 1105   3.623   1.663   0.698  0.0460  0.2754  0.4339
    1SOL    HW2 1106   3.536   1.630   0.718 -0.2388  0.8026  0.0903
    1SOL    HW3 1107   3.626   1.665   0.602  0.5127  0.0559  0.4434
    1SOL    MW4 1108   3.612   1.659   0.688  0.0701  0.3159  0.3899
    1SOL     OW 1109   0.862   0.156   0.769  0.5325 -0.2731 -0.3004
    1SOL    HW2 1110   0.843   0.165   0.676  0.1760 -0.8845 -0.2928
    1SOL    HW3 1111   0.790   0.101   0.803  0.4438  0.2668  0.4038
    1SOL    MW4 1112   0.850   0.150   0.762  0.4737 -0.2825 -0.2065
    1SOL     OW 1113   0.686   2.872   0.734  0.6447  0.0360 -0.2723
    1SOL    HW2 1114   0.707   2.960   0.765 -1.4270  0.5969 -0.3660
    1SOL    HW3 1115   0.629   2.886   0.659  0.5694 -1.3909 -0.4972
    1SOL    MW4 1116   0.681   2.885   0.728  0.3614 -0.0782 -0.3142
    1SOL     OW 1117   1.644   0.371   0.314  0.5636 -0.2371  0.3043
    1SOL    HW2 1118   1.721   0.426   0.328  0.5468  0.0517 -0.6888
    1SOL    HW3 1119   1.659   0.294   0.368  1.7537 -0.3807 -0.2128
    1SOL    MW4 1120   1.656   0.368   0.323  0.7184 -0.2180  0.1050
    1SOL     OW 1121   0.468   3.245   0.745 -0.2534  0.5134  0.1626
    1SOL    HW2 1122   0.455   3.243   0.650 -1.0902  0.2553  0.2800
    1SOL    HW3 1123   0.383   3.220   0.782  0.9035 -2.4451  0.9389
    1SOL    MW4 1124   0.455   3.242   0.737 -0.2111  0.0889  0.2804
    1SOL     OW 1125   0.664   1.308   0.749  0.5870  0.3303  0.1474
    1SOL    HW2 1126   0.710   1.312   0.665  0.2297 -0.5132 -0.0916
    1SOL    HW3 1127   0.666   1.398   0.782  0.1985  0.7852 -1.0486
    1SOL    MW4 1128   0.670   1.320   0.742  0.4886  0.2791 -0.0419
    1SOL     OW 1129   2.892   1.550   0.863 -0.8124 -0.2020 -0.3952
    1SOL    HW2 1130   2.812   1.580   0.820 -0.4059  1.1939 -0.2115
    1SOL    HW3 1131   2.962   1.574   0.802 -0.2615  1.4868  0.8606
    1SOL    MW4 1132   2.891   1.557   0.849 -0.6859  0.2050 -0.2052
    1SOL     OW 1133   0.009   1.697   0.783  0.4703  0.0249 -0.3867
    1SOL    HW2 1134  -0.059   1.646   0.827  0.0784  0.0677 -0.9297
    1SOL    HW3 1135   0.091   1.658   0.811  0.2809  0.8198  1.3459
    1SOL    MW4 1136   0.011   1.685   0.793  0.3934  0.1354 -0.2297
    1SOL     OW 1137   1.237   3.838   0.330 -0.4437 -0.2706 -0.0943
    1SOL    HW2 1138   1.303   3.771   0.312 -0.3843  0.0648 -1.2188
    1SOL    HW3 1139   1.280   3.899   0.389  0.7944  0.7426 -1.9838
    1SOL    MW4 1140   1.252   3.837   0.335 -0.2724 -0.0925 -0.4919
    1SOL     OW 1141   0.903   2.299   0.530 -0.0574  0.0157 -0.6770
    1SOL    HW2 1142   0.968   2.231   0.511  0.1095  0.2991 -1.1276
    1SOL    HW3 1143   0.822   2.251   0.544  0.0057 -0.2573 -1.2505
    1SOL    MW4 1144   0.901   2.283   0.530 -0.0271  0.0174 -0.8122
    1SOL     OW 1145   3.294   0.201   0.422  0.6431  0.0652 -0.4120
    1SOL    HW2 1146   3.252   0.192   0.508  1.6473 -0.0154  0.0838
    1SOL    HW3 1147   3.236   0.154   0.362 -0.2202  0.3774  0.1741
    1SOL    MW4 1148   3.281   0.193   0.425  0.6616  0.0957 -0.2693
    1SOL     OW 1149   0.518   2.890   0.498  0.1746 -0.5190 -0.0289
    1SOL    HW2 1150   0.570   2.908   0.420  2.2169 -3.2161  0.6462
    1SOL    HW3 1151   0.429   2.917   0.474  1.2615  1.1857 -2.3244
    1SOL    MW4 1152   0.513   2.896   0.485  0.5875 -0.6499 -0.2427
    1SOL     OW 1153   0.210   2.195   0.523  0.3807 -0.3492 -0.4067
    1SOL    HW2 1154   0.210   2.171   0.616 -0.5974 -0.8058 -0.5149
    1SOL    HW3 1155   0.151   2.132   0.482  0.1320  0.3784 -1.1894
    1SOL    MW4 1156   0.202   2.184   0.530  0.2189 -0.3133 -0.5242
    1SOL     OW 1157   3.332   3.880   0.830 -0.1660 -0.0519 -0.0832
    1SOL    HW2 1158   3.333   3.791   0.795 -1.0556 -0.5427  1.1308
    1SOL    HW3 1159   3.346   3.870   0.924 -0.3692  1.0838  0.0805
    1SOL    MW4 1160   3.334   3.867   0.838 -0.3104  0.0331  0.0986
    1SOL     OW 1161   3.563   2.414   0.726 -0.3611 -0.7778 -0.0058
    1SOL    HW2 1162   3.563   2.499   0.769 -0.8775 -0.4121 -0.7174
    1SOL    HW3 1163   3.481   2.373   0.753 -1.1666 -0.1322 -1.4392
    1SOL    MW4 1164   3.552   2.420   0.735 -0.5352 -0.6442 -0.2888
    1SOL     OW 1165   4.469   3.470   0.890 -0.0503  0.3860  0.2126
    1SOL    HW2 1166   4.557   3.502   0.868 -0.1238  1.0560  0.8681
    1SOL    HW3 1167   4.410   3.527   0.840 -0.1037 -0.2221 -0.4186
    1SOL    MW4 1168   4.473   3.482   0.881 -0.0668  0.3943  0.2158
    1SOL     OW 1169   0.701   3.634   0.731 -0.2360  0.4853  0.4656
    1SOL    HW2 1170   0.630   3.584   0.771 -0.5598  1.4798  1.1223
    1SOL    HW3 1171   0.669   3.654   0.643 -0.1703 -0.3256  0.2548
    1SOL    MW4 1172   0.687   3.630   0.724 -0.2700  0.5097  0.5243
    1SOL     OW 1173   1.763   3.965   0.467  0.0523  0.1745  0.1264
    1SOL    HW2 1174   1.721   4.048   0.444  1.8333  0.9024 -0.5975
    1SOL    HW3 1175   1.778   3.970   0.561 -1.1956  0.0322  0.3371
    1SOL    MW4 1176   1.760   3.976   0.476  0.1227  0.2518  0.0587
    1SOL     OW 1177   0.292   4.616   0.351 -0.4049  0.5205  0.1719
    1SOL    HW2 1178   0.384   4.597   0.370 -0.9154 -0.1759  2.0342
    1SOL    HW3 1179   0.292   4.706   0.320  0.7779  0.8751  1.1655
    1SOL    MW4 1180   0.304   4.625   0.349 -0.3162  0.4754  0.5487
    1SOL     OW 1181   0.371   4.270   0.806  0.3140 -0.5681  0.3051
    1SOL    HW2 1182   0.370   4.273   0.902 -0.6073 -0.3347  0.2997
    1SOL    HW3 1183   0.297   4.326   0.780 -0.4562 -1.9204 -0.4885
    1SOL    MW4 1184   0.361   4.278   0.815  0.0908 -0.7162  0.1996
    1SOL     OW 1185   0.624   4.391   0.740  0.4009  0.5537  0.6396
    1SOL    HW2 1186   0.683   4.330   0.782  1.0288  0.3125 -0.5638
    1SOL    HW3 1187   0.537   4.367   0.772  0.7521 -0.2907  0.9678
    1SOL    MW4 1188   0.620   4.380   0.749  0.5301  0.4106  0.5240
    1SOL     OW 1189   2.521   1.183   0.176  0.5645 -0.3045  0.0638
    1SOL    HW2 1190   2.432   1.153   0.155 -0.3528  1.3644  1.4380
    1SOL    HW3 1191   2.536   1.255   0.115  0.8418 -0.3576  0.0701
    1SOL    MW4 1192   2.511   1.189   0.165  0.4802 -0.0914  0.2459
    1SOL     OW 1193   1.754   1.135   0.862 -0.5771  0.1444  0.1878
    1SOL    HW2 1194   1.679   1.181   0.824  0.2632  2.0158  0.7390
    1SOL    HW3 1195   1.830   1.179   0.823  0.2472 -0.4000  1.1825
    1SOL    MW4 1196   1.754   1.147   0.852 -0.3575  0.3194  0.3917
    1SOL     OW 1197   1.462   0.496   0.479 -0.0671 -0.0824 -0.0353
    1SOL    HW2 1198   1.472   0.590   0.460 -1.8011  0.1764  0.3023
    1SOL    HW3 1199   1.518   0.453   0.414  2.1878  1.2552  0.9748
    1SOL    MW4 1200   1.471   0.503   0.468  0.0015  0.1281  0.1425
    1SOL     OW 1201   1.152   0.780   0.852 -0.1172 -0.1249  0.6179
    1SOL    HW2 1202   1.152   0.772   0.947  0.3170 -1.3277  0.5301
    1SOL    HW3 1203   1.140   0.690   0.820 -1.3600  0.3993 -0.4562
    1SOL    MW4 1204   1.150   0.767   0.860 -0.2239 -0.2143  0.4646
    1SOL     OW 1205   3.822   0.519   0.794 -0.0527  0.1870 -0.1284
    1SOL    HW2 1206   3.809   0.515   0.699  3.3212  0.9443 -0.6746
    1SOL    HW3 1207   3.816   0.612   0.815  0.1379  0.1150  0.2552
    1SOL    MW4 1208   3.819   0.531   0.784  0.4177  0.2775 -0.1499
    1SOL     OW 1209   2.054   0.908   0.184  0.2923  0.0631  0.3863
    1SOL    HW2 1210   2.118   0.839   0.198 -1.1509 -0.8789  2.5940
    1SOL    HW3 1211   2.106   0.988   0.175  1.8013 -0.8049  1.2850
    1SOL    MW4 1212   2.069   0.910   0.184  0.3011 -0.1757  0.7961
    1SOL     OW 1213   1.053   1.231   0.541  0.2720 -1.0409  0.0360
    1SOL    HW2 1214   0.968   1.274   0.535  0.6184 -0.2896  0.4134
    1SOL    HW3 1215   1.043   1.149   0.492 -1.0806 -1.6164  1.2517
    1SOL    MW4 1216   1.041   1.226   0.534  0.1391 -1.0177  0.2462
    1SOL     OW 1217   0.684   0.823   0.849  0.1631  0.1536 -0.0410
    1SOL    HW2 1218   0.767   0.841   0.806  0.5613 -0.4231  0.4760
    1SOL    HW3 1219   0.665   0.732   0.828 -0.2452  0.2274  0.0014
    1SOL    MW4 1220   0.693   0.813   0.841  0.1618  0.0872  0.0328
    1SOL     OW 1221   0.686   1.582   0.852  0.5112  0.3378 -0.2183
    1SOL    HW2 1222   0.760   1.616   0.803  1.3181 -1.6109 -0.4094
    1SOL    HW3 1223   0.711   1.591   0.944  1.3785 -1.0637 -0.2916
    1SOL    MW4 1224   0.699   1.587   0.858  0.7321 -0.1043 -0.2533
    1SOL     OW 1225   3.816   2.081   0.741 -0.2635  0.6909  0.3145
    1SOL    HW2 1226   3.825   2.100   0.648  0.3998  1.4671  0.5361
    1SOL    HW3 1227   3.892   2.027   0.763 -0.4722  0.4240  0.3857
    1SOL    MW4 1228   3.827   2.077   0.732 -0.2036  0.7579  0.3531
    1SOL     OW 1229   1.290   2.471   0.457 -0.2338 -1.0317  0.1621
    1SOL    HW2 1230   1.282   2.385   0.416 -2.2163 -0.6662 -0.2429
    1SOL    HW3 1231   1.206   2.514   0.440  0.7215  0.9716  0.3836
    1SOL    MW4 1232   1.278   2.465   0.449 -0.3694 -0.7193  0.1379
    1SOL     OW 1233   2.891   0.481   0.763 -0.4260 -0.2705 -0.0858
    1SOL    HW2 1234   2.899   0.572   0.791  0.1889 -0.0733 -0.8970
    1SOL    HW3 1235   2.967   0.437   0.801 -0.9414 -0.5294  0.6439
    1SOL    MW4 1236   2.902   0.487   0.771 -0.4129 -0.2787 -0.0965
    1SOL     OW 1237   3.180   3.794   0.333  0.0723  0.3230 -0.3793
    1SOL    HW2 1238   3.246   3.727   0.352 -0.0175  0.1167 -0.7830
    1SOL    HW3 1239   3.096   3.749   0.350  0.0090  0.3012 -0.7480
    1SOL    MW4 1240   3.177   3.779   0.338  0.0522  0.2930 -0.4812
    1SOL     OW 1241   0.157   4.422   0.699  0.0449 -0.0308  0.1515
    1SOL    HW2 1242   0.145   4.509   0.738  0.3663 -0.3610  0.9810
    1SOL    HW3 1243   0.092   4.367   0.743  0.9734 -0.5938  0.8292
    1SOL    MW4 1244   0.147   4.426   0.710  0.2098 -0.1493  0.3503
    1SOL     OW 1245   1.261   1.684   0.477 -0.0681  0.4393 -0.1075
    1SOL    HW2 1246   1.252   1.594   0.445 -1.4984  0.7439 -0.6121
    1SOL    HW3 1247   1.176   1.723   0.460  0.9455  2.2796 -1.0702
    1SOL    MW4 1248   1.249   1.677   0.470 -0.1230  0.7224 -0.3012
    1SOL     OW 1249   0.822   0.130   0.488  0.1942 -0.2811 -0.5839
    1SOL    HW2 1250   0.908   0.146   0.450  0.0031  1.2360 -0.4080
    1SOL    HW3 1251   0.767   0.203   0.457 -0.0324  0.8520  2.2861
    1SOL    MW4 1252   0.826   0.142   0.479  0.1391  0.0686 -0.1821
    1SOL     OW 1253   0.447   2.225   0.372 -0.0720 -0.2871 -0.1527
    1SOL    HW2 1254   0.420   2.258   0.287  0.6427  0.6485 -0.0182
    1SOL    HW3 1255   0.365   2.200   0.415 -0.5280  0.4008 -0.6240
    1SOL    MW4 1256   0.432   2.226   0.367 -0.0379 -0.0730 -0.1972
    1SOL     OW 1257   1.416   2.836   0.265  0.5552  0.0581  0.1572
    1SOL    HW2 1258   1.440   2.888   0.188 -1.1157 -2.0650 -1.8750
    1SOL    HW3 1259   1.437   2.746   0.240 -1.9062 -0.8899  1.3942
    1SOL    MW4 1260   1.422   2.831   0.252  0.0099 -0.3469  0.0522
    1SOL     OW 1261   2.457   1.365   0.559 -0.3262  0.2797 -0.1195
    1SOL    HW2 1262   2.396   1.308   0.512  0.3084  0.3430 -1.0400
    1SOL    HW3 1263   2.539   1.357   0.510  0.4014  0.2040  1.0921
    1SOL    MW4 1264   2.460   1.356   0.547 -0.1464  0.2780 -0.0812
    1SOL     OW 1265   2.680   4.114   0.455 -0.1989 -0.1342  0.2986
    1SOL    HW2 1266   2.649   4.025   0.442  0.2178 -0.1324 -0.7983
    1SOL    HW3 1267   2.711   4.117   0.545 -1.3159 -0.7595  0.6997
    1SOL    MW4 1268   2.680   4.103   0.465 -0.2911 -0.2165  0.2068
    1SOL     OW 1269   3.377   3.618   0.743 -0.0847 -0.0251 -0.0043
    1SOL    HW2 1270   3.438   3.576   0.804 -0.5337  0.9592  1.1432
    1SOL    HW3 1271   3.295   3.569   0.753 -0.2190  0.2662  0.3522
    1SOL    MW4 1272   3.374   3.606   0.752 -0.1616  0.1431  0.1941
    1SOL     OW 1273   4.199   1.340   0.484 -0.3850  0.4655  0.3084
    1SOL    HW2 1274   4.228   1.263   0.435 -0.1900  0.1901  0.8507
    1SOL    HW3 1275   4.262   1.408   0.461  1.0575 -0.2779  1.9040
    1SOL    MW4 1276   4.211   1.338   0.474 -0.1688  0.3312  0.5905
    1SOL     OW 1277   1.101   4.405   0.734  0.0979  0.2367  0.3349
    1SOL    HW2 1278   1.121   4.397   0.641  0.7819  0.8230  0.4272
    1SOL    HW3 1279   1.107   4.499   0.752  0.2616  0.0974  1.0303
    1SOL    MW4 1280   1.105   4.417   0.724  0.2097  0.2952  0.4388
    1SOL     OW 1281   1.813   2.450   0.694 -0.7097  0.3048  0.3194
    1SOL    HW2 1282   1.815   2.534   0.739 -0.5084 -0.0698  1.0103
    1SOL    HW3 1283   1.739   2.404   0.732  0.4749 -0.6736  1.4826
    1SOL    MW4 1284   1.804   2.455   0.705 -0.5268  0.1264  0.5640
    1SOL     OW 1285   1.503   4.651   0.798 -0.3640  0.7547 -0.3622
    1SOL    HW2 1286   1.498   4.655   0.893  1.8491  1.9764 -0.2586
    1SOL    HW3 1287   1.506   4.558   0.778 -2.9692  0.4369  0.6052
    1SOL    MW4 1288   1.503   4.639   0.808 -0.4157  0.8740 -0.2208
    1SOL     OW 1289   1.094   0.011   0.821  0.7322 -0.0543  0.0984
    1SOL    HW2 1290   1.161   0.059   0.772  0.3270  1.6472  1.1580
    1SOL    HW3 1291   1.011   0.048   0.791  0.3328 -1.2538 -0.2748
    1SOL    MW4 1292   1.092   0.022   0.811  0.6261  0.0120  0.1889
    1SOL     OW 1293   1.299   0.352   0.844 -0.3371  0.1849 -0.3996
    1SOL    HW2 1294   1.298   0.350   0.940  1.7174 -0.3070 -0.3616
    1SOL    HW3 1295   1.385   0.387   0.822  0.2161 -2.1351 -2.0736
    1SOL    MW4 1296   1.310   0.356   0.854  0.0070 -0.1861 -0.6155
    1SOL     OW 1297   1.530   0.479   0.762  0.4135  0.2194  0.1082
    1SOL    HW2 1298   1.497   0.472   0.673  0.0198  0.0419  0.2699
    1SOL    HW3 1299   1.543   0.573   0.775 -0.7544  0.3562  0.3146
    1SOL    MW4 1300   1.528   0.490   0.752  0.2074  0.2140  0.1568
    1SOL     OW 1301   3.170   1.084   0.379  0.3665 -0.0532 -0.2167
    1SOL    HW2 1302   3.263   1.104   0.392  0.0914  1.4177 -0.4456
    1SOL    HW3 1303   3.155   1.004   0.429  1.4223  0.5141  1.0101
    1SOL    MW4 1304   3.180   1.076   0.387  0.4694  0.2158 -0.0850
    1SOL     OW 1305   0.923   0.928   0.741 -0.7022 -0.2900  0.1288
    1SOL    HW2 1306   0.937   0.937   0.646  1.9365  1.2904  0.6199
    1SOL    HW3 1307   0.992   0.868   0.769 -1.0992 -0.2700  1.1668
    1SOL    MW4 1308   0.934   0.921   0.732 -0.4064 -0.0789  0.3305
    1SOL     OW 1309   1.328   1.151   0.883 -0.1821  0.2152  0.2115
    1SOL    HW2 1310   1.315   1.132   0.976 -0.6027 -2.2881 -0.3323
    1SOL    HW3 1311   1.246   1.192   0.856 -0.4374  0.0432  0.7156
    1SOL    MW4 1312   1.315   1.154   0.892 -0.2714 -0.1378  0.2063
    1SOL     OW 1313   3.353   2.071   0.726 -0.5532 -0.3568  0.8718
    1SOL    HW2 1314   3.363   2.117   0.643 -2.4332 -1.7556 -0.1659
    1SOL    HW3 1315   3.438   2.031   0.741  0.0034  0.4504 -0.0315
    1SOL    MW4 1316   3.366   2.072   0.717 -0.7277 -0.4346  0.6157
    1SOL     OW 1317   0.176   3.811   0.365  0.3155 -0.3161 -0.1101
    1SOL    HW2 1318   0.155   3.721   0.389  0.0089 -0.2704 -0.2047
    1SOL    HW3 1319   0.166   3.813   0.270  0.6249 -0.2622 -0.1411
    1SOL    MW4 1320   0.172   3.800   0.356  0.3158 -0.3028 -0.1267
    1SOL     OW 1321   3.943   1.421   0.476  0.6800 -0.0036 -0.1343
    1SOL    HW2 1322   3.958   1.510   0.443  1.1139 -0.1207 -0.2523
    1SOL    HW3 1323   4.030   1.381   0.477  0.3839 -0.6505 -0.7053
    1SOL    MW4 1324   3.956   1.428   0.472  0.6981 -0.1044 -0.2252
    1SOL     OW 1325   1.823   1.358   0.313  0.2075  0.0002 -0.1672
    1SOL    HW2 1326   1.762   1.426   0.340 -0.8307 -0.2824 -1.7473
    1SOL    HW3 1327   1.767   1.283   0.292  1.1805 -0.6121 -0.5912
    1SOL    MW4 1328   1.808   1.357   0.314  0.1990 -0.1178 -0.4316
    1SOL     OW 1329   3.611   2.256   0.332 -0.0240 -0.4048 -0.0684
    1SOL    HW2 1330   3.669   2.236   0.406 -1.3926 -0.3386  1.0301
    1SOL    HW3 1331   3.663   2.234   0.255  0.6746 -2.4777  0.9552
    1SOL    MW4 1332   3.626   2.251   0.332 -0.1123 -0.6692  0.2116
    1SOL     OW 1333   3.522   3.936   0.421 -0.1328  0.3049  0.9193
    1SOL    HW2 1334   3.526   3.954   0.515 -0.9875 -0.6824  1.1481
    1SOL    HW3 1335   3.613   3.945   0.392  0.1173  0.7822  1.7990
    1SOL    MW4 1336   3.535   3.940   0.430 -0.2127  0.2377  1.0655
    1SOL     OW 1337   1.141   3.601   0.652 -0.0146  0.1385  0.1935
    1SOL    HW2 1338   1.222   3.572   0.693  0.1856 -0.2647 -0.4774
    1SOL    HW3 1339   1.073   3.543   0.688  0.1865 -0.3276 -0.1731
    1SOL    MW4 1340   1.143   3.590   0.662  0.0385  0.0238  0.0566
    1SOL     OW 1341   0.906   2.688   0.819  0.4599  0.2292 -0.4056
    1SOL    HW2 1342   0.898   2.689   0.915 -0.1537 -1.6939 -0.4198
    1SOL    HW3 1343   0.836   2.745   0.789  0.7968  1.0273  0.2968
    1SOL    MW4 1344   0.896   2.695   0.828  0.4234  0.0808 -0.3148
    1SOL     OW 1345   1.596   2.877   0.692 -0.2823  0.3592 -0.2106
    1SOL    HW2 1346   1.614   2.959   0.737 -1.4250  0.1567  0.6167
    1SOL    HW3 1347   1.522   2.839   0.739 -1.0911 -0.1528 -1.8643
    1SOL    MW4 1348   1.589   2.883   0.704 -0.5397  0.2649 -0.3197
    1SOL     OW 1349   3.335   4.384   0.473  0.2666  0.5252 -0.1845
    1SOL    HW2 1350   3.239   4.379   0.467  0.3197  1.1460 -1.5131
    1SOL    HW3 1351   3.352   4.393   0.567 -1.0447  1.6499 -0.0419
    1SOL    MW4 1352   3.324   4.384   0.485  0.1006  0.7558 -0.3410
    1SOL     OW 1353   3.796   3.970   0.376  0.4870  0.0328 -0.1909
    1SOL    HW2 1354   3.832   4.051   0.412  0.6589  0.1779 -0.6798
    1SOL    HW3 1355   3.831   3.965   0.287 -0.4449  0.0149 -0.5700
    1SOL    MW4 1356   3.805   3.980   0.369  0.3867  0.0496 -0.3054
    1SOL     OW 1357   1.055   3.854   0.808 -0.3434  0.1353  0.1153
    1SOL    HW2 1358   1.058   3.760   0.790 -0.7202  0.2749 -0.6997
    1SOL    HW3 1359   1.051   3.860   0.903  1.0644 -0.6488  0.2557
    1SOL    MW4 1360   1.055   3.842   0.818 -0.2074  0.0503  0.0263
    1SOL     OW 1361   4.056   4.232   0.841 -0.3069  0.2990 -0.0253
    1SOL    HW2 1362   3.988   4.296   0.819  1.2684  1.2204 -2.4253
    1SOL    HW3 1363   4.138   4.280   0.830  0.8714 -1.8572 -0.8528
    1SOL    MW4 1364   4.057   4.247   0.837  0.0563  0.1364 -0.4511
    1SOL     OW 1365   2.267   3.187   0.691 -0.3645  0.4490  0.5138
    1SOL    HW2 1366   2.200   3.148   0.747  0.3965  1.7938  2.4228
    1SOL    HW3 1367   2.348   3.140   0.713 -0.2040  0.5114  0.0570
    1SOL    MW4 1368   2.269   3.176   0.701 -0.2427  0.6349  0.7054
    1SOL     OW 1369   2.180   1.658   0.761  0.2617 -0.4181 -0.0917
    1SOL    HW2 1370   2.258   1.637   0.811  1.3544 -3.2180 -2.7655
    1SOL    HW3 1371   2.173   1.753   0.765  2.4628 -0.3145  2.1303
    1SOL    MW4 1372   2.189   1.668   0.768  0.6962 -0.7739 -0.1513
    1SOL     OW 1373   2.041   4.390   0.757 -0.1815 -0.0680 -0.5969
    1SOL    HW2 1374   2.041   4.392   0.661 -2.1870 -1.2026 -0.6640
    1SOL    HW3 1375   1.960   4.343   0.779 -0.3543  1.2365  1.6643
    1SOL    MW4 1376   2.030   4.384   0.747 -0.4690 -0.0458 -0.3074
    1SOL     OW 1377   2.056   3.950   0.451 -0.2338  0.0048  0.0468
    1SOL    HW2 1378   1.964   3.953   0.425 -0.1248 -0.4578 -0.4067
    1SOL    HW3 1379   2.079   3.857   0.447  0.2689  0.1250  0.1001
    1SOL    MW4 1380   2.047   3.938   0.447 -0.1533 -0.0405 -0.0061
    1SOL     OW 1381   2.415   0.042   0.797  0.4239 -0.6586 -0.2001
    1SOL    HW2 1382   2.444   0.036   0.887  1.8254  0.4497 -0.5690
    1SOL    HW3 1383   2.413  -0.049   0.766  4.7586 -0.7040 -0.5623
    1SOL    MW4 1384   2.418   0.029   0.805  1.1809 -0.5184 -0.2965
    1SOL     OW 1385   1.922   3.288   0.427  0.1775 -0.4419 -0.4261
    1SOL    HW2 1386   2.016   3.270   0.427  0.1291 -0.7285 -0.0480
    1SOL    HW3 1387   1.882   3.207   0.395  0.1033 -0.0176 -1.4255
    1SOL    MW4 1388   1.929   3.275   0.423  0.1613 -0.4239 -0.5081
    1SOL     OW 1389   1.771   0.360   0.827 -0.0349 -0.0476  0.3075
    1SOL    HW2 1390   1.693   0.406   0.794 -1.2890 -2.1399  0.2830
    1SOL    HW3 1391   1.775   0.279   0.776  2.8896  0.5736 -0.5232
    1SOL    MW4 1392   1.761   0.356   0.816  0.1854 -0.2417  0.1947
    1SOL     OW 1393   3.601   4.520   0.432  0.3933 -0.2019  0.4274
    1SOL    HW2 1394   3.517   4.476   0.417  0.8390 -1.0351  0.3496
    1SOL    HW3 1395   3.577   4.610   0.454 -0.4972 -0.2723 -0.2011
    1SOL    MW4 1396   3.587   4.526   0.433  0.3345 -0.3214  0.3342
    1SOL     OW 1397   3.292   4.119   0.452 -0.1508 -0.2365 -0.0662
    1SOL    HW2 1398   3.314   4.212   0.461 -0.9073 -0.2561  2.5376
    1SOL    HW3 1399   3.373   4.077   0.424  0.3082  1.1397 -0.8537
    1SOL    MW4 1400   3.305   4.126   0.450 -0.1900 -0.0572  0.1734
    1SOL     OW 1401   1.615   3.157   0.801  0.0587  0.1106 -0.1285
    1SOL    HW2 1402   1.621   3.140   0.895 -0.5681  0.7325  0.0243
    1SOL    HW3 1403   1.535   3.208   0.790 -0.0854 -0.2946 -1.0516
    1SOL    MW4 1404   1.606   3.161   0.812 -0.0430  0.1390 -0.2301
    1SOL     OW 1405   3.413   3.673   0.475 -0.1197  0.5003  0.2687
    1SOL    HW2 1406   3.414   3.663   0.570  1.8197 -1.7844  0.0550
    1SOL    HW3 1407   3.459   3.756   0.459  2.0039 -0.4594  1.2230
    1SOL    MW4 1408   3.420   3.683   0.486  0.4163  0.0720  0.3664
    1SOL     OW 1409   1.563   3.204   0.229 -0.0019 -0.0870  0.2438
    1SOL    HW2 1410   1.544   3.145   0.156  0.0525  0.7774 -0.4764
    1SOL    HW3 1411   1.590   3.286   0.188 -0.5233  0.5950  1.2224
    1SOL    MW4 1412   1.564   3.207   0.214 -0.0635  0.1171  0.2779
    1SOL     OW 1413   2.411   1.523   0.864 -0.2602  0.0639  0.1983
    1SOL    HW2 1414   2.406   1.429   0.844  1.8172 -0.6993  2.9588
    1SOL    HW3 1415   2.486   1.553   0.812 -0.7055  0.1489 -0.4080
    1SOL    MW4 1416   2.420   1.515   0.854 -0.0453 -0.0256  0.4826
    1SOL     OW 1417   3.995   3.989   0.729 -0.1065  0.1224 -0.0687
    1SOL    HW2 1418   3.996   4.029   0.641  1.3899 -0.0507 -0.1422
    1SOL    HW3 1419   4.014   4.061   0.788  2.2149 -0.3490 -0.1711
    1SOL    MW4 1420   3.998   4.004   0.725  0.3972  0.0377 -0.0919
    1SOL     OW 1421   1.497   2.559   0.279 -0.1081  0.0875  0.3728
    1SOL    HW2 1422   1.420   2.548   0.334 -0.1252  0.3005  0.3901
    1SOL    HW3 1423   1.571   2.536   0.335 -0.0435  1.3204  0.7925
    1SOL    MW4 1424   1.496   2.554   0.293 -0.1017  0.2785  0.4305
    1SOL     OW 1425   3.716   1.250   0.488 -0.0876  0.3718 -0.3712
    1SOL    HW2 1426   3.776   1.324   0.476 -0.4044  0.7004  0.0937
    1SOL    HW3 1427   3.763   1.176   0.448  0.2431  0.8081 -0.8085
    1SOL    MW4 1428   3.730   1.250   0.481 -0.0858  0.4727 -0.3676
    1SOL     OW 1429   1.548   2.046   0.450  0.4521 -0.4049  0.3429
    1SOL    HW2 1430   1.615   2.085   0.394 -0.5789  0.1679 -0.5041
    1SOL    HW3 1431   1.550   1.952   0.428  0.1920 -0.2155 -0.5123
    1SOL    MW4 1432   1.557   2.038   0.440  0.2817 -0.3045  0.1183
    1SOL     OW 1433   3.523   1.179   0.873  0.5296  0.5233  0.1775
    1SOL    HW2 1434   3.531   1.087   0.848 -2.5558  0.3711 -0.4514
    1SOL    HW3 1435   3.543   1.181   0.967  2.0954 -0.5353 -0.1298
    1SOL    MW4 1436   3.527   1.168   0.882  0.3293  0.3636  0.0540
    1SOL     OW 1437   1.154   4.189   0.377 -0.1841 -0.0126 -0.4944
    1SOL    HW2 1438   1.066   4.182   0.414 -0.5453 -1.1801 -1.5251
    1SOL    HW3 1439   1.146   4.152   0.289  0.9598  1.4806 -1.2442
    1SOL    MW4 1440   1.142   4.183   0.370 -0.0807  0.0300 -0.7294
    1SOL     OW 1441   1.112   2.121   0.789  0.3232 -0.2348 -0.3194
    1SOL    HW2 1442   1.044   2.061   0.820 -0.0064  0.7162  0.8507
    1SOL    HW3 1443   1.195   2.076   0.808  0.0941 -0.0904  1.0682
    1SOL    MW4 1444   1.114   2.107   0.796  0.2495 -0.0904  0.0180
    1SOL     OW 1445   3.481   0.855   0.525  0.0975  0.0114 -0.2569
    1SOL    HW2 1446   3.480   0.945   0.493 -0.7440 -0.0689 -0.4844
    1SOL    HW3 1447   3.412   0.811   0.474 -0.6831 -0.3275  1.0671
    1SOL    MW4 1448   3.472   0.861   0.514 -0.1166 -0.0439 -0.1122
    1SOL     OW 1449   2.965   2.805   0.499 -0.0661  0.4966 -0.3434
    1SOL    HW2 1450   2.888   2.841   0.456  0.3765  0.3115 -1.3206
    1SOL    HW3 1451   2.966   2.713   0.474  1.2082  0.7994 -1.4608
    1SOL    MW4 1452   2.955   2.798   0.490  0.1605  0.5126 -0.6197
    1SOL     OW 1453   1.795   3.484   0.794 -0.2848  0.2766 -0.2401
    1SOL    HW2 1454   1.797   3.477   0.890 -1.9859  0.5121 -0.1803
    1SOL    HW3 1455   1.828   3.400   0.763 -0.0643  0.0641  0.5555
    1SOL    MW4 1456   1.800   3.472   0.803 -0.4802  0.2797 -0.1273
    1SOL     OW 1457   0.103   2.804   0.496 -0.5414  0.1211 -0.4407
    1SOL    HW2 1458   0.148   2.813   0.580 -0.6121 -1.4449 -0.2154
    1SOL    HW3 1459   0.138   2.723   0.459  0.1422  1.2504 -2.3294
    1SOL    MW4 1460   0.114   2.795   0.502 -0.4605  0.0634 -0.6602
    1SOL     OW 1461   2.090   1.401   0.136  0.1586 -0.7148  0.6495
    1SOL    HW2 1462   2.127   1.482   0.171 -0.1908 -0.1001 -0.3775
    1SOL    HW3 1463   2.002   1.396   0.173 -0.9699  0.9894 -1.7051
    1SOL    MW4 1464   2.083   1.411   0.146 -0.0362 -0.4090  0.2034
    1SOL     OW 1465   0.884   0.424   0.866  0.0656 -0.4839 -0.1986
    1SOL    HW2 1466   0.887   0.331   0.841 -0.2397 -0.9049  1.2802
    1SOL    HW3 1467   0.881   0.423   0.961 -0.0535  1.0563 -0.1753
    1SOL    MW4 1468   0.884   0.411   0.875  0.0096 -0.3362 -0.0004
    1SOL     OW 1469   4.460   4.239   0.497 -0.1322 -0.6023  0.8186
    1SOL    HW2 1470   4.554   4.249   0.478 -0.4578 -0.5136 -0.8553
    1SOL    HW3 1471   4.442   4.147   0.480 -0.2823 -0.7072  1.5221
    1SOL    MW4 1472   4.470   4.228   0.492 -0.1945 -0.6042  0.6906
    1SOL     OW 1473   1.814   4.549   0.346 -0.4616 -0.2270 -0.3267
    1SOL    HW2 1474   1.797   4.637   0.377  2.1288  0.8299 -1.7276
    1SOL    HW3 1475   1.787   4.550   0.254  0.7211 -0.4742 -0.6958
    1SOL    MW4 1476   1.808   4.560   0.338  0.0361 -0.1202 -0.5602
    1SOL     OW 1477   0.325   1.901   0.464  0.7499 -0.2558  0.2813
    1SOL    HW2 1478   0.329   1.812   0.429  1.2020 -0.5410  1.0537
    1SOL    HW3 1479   0.231   1.921   0.466  0.6492 -0.6896  0.0330
    1SOL    MW4 1480   0.313   1.892   0.460  0.7963 -0.3507  0.3504
    1SOL     OW 1481   2.197   0.400   1.139 -0.4229  0.4261  0.1953
    1SOL    HW2 1482   2.196   0.378   1.046 -0.1342  1.4193 -0.0439
    1SOL    HW3 1483   2.109   0.432   1.157 -0.8255 -0.8407  0.5313
    1SOL    MW4 1484   2.185   0.401   1.130 -0.4380  0.3900  0.2081
    1SOL     OW 1485   4.270   0.578   0.791 -0.0961  0.5693  0.1140
    1SOL    HW2 1486   4.236   0.609   0.707  0.2543 -0.4446 -0.4017
    1SOL    HW3 1487   4.341   0.519   0.769 -0.3599 -0.1441  1.1167
    1SOL    MW4 1488   4.275   0.574   0.777 -0.0844  0.3414  0.1782
    1SOL     OW 1489   2.643   0.504   0.406  0.1544  0.3603 -0.1704
    1SOL    HW2 1490   2.735   0.529   0.414  0.3425 -0.1696 -0.6263
    1SOL    HW3 1491   2.637   0.419   0.450 -0.3286  0.8563  0.7334
    1SOL    MW4 1492   2.655   0.496   0.413  0.1156  0.3558 -0.1113
    1SOL     OW 1493   2.675   1.314   0.387  0.2563 -0.4973  0.3240
    1SOL    HW2 1494   2.643   1.262   0.313  1.3791  0.6962 -1.0448
    1SOL    HW3 1495   2.758   1.273   0.410  1.2362  0.7881 -0.8848
    1SOL    MW4 1496   2.682   1.302   0.380  0.5338 -0.1701 -0.0162
    1SOL     OW 1497   2.446   1.250   0.816 -0.3131 -0.1276  0.0506
    1SOL    HW2 1498   2.449   1.274   0.723  0.4047  0.8191  0.3073
    1SOL    HW3 1499   2.369   1.193   0.824 -1.7559  1.6411 -0.7154
    1SOL    MW4 1500   2.436   1.246   0.805 -0.4084  0.2306 -0.0166
    1SOL     OW 1501   2.200   1.120   0.852  0.7992  0.4482  0.3249
    1SOL    HW2 1502   2.214   1.029   0.827 -0.0604  0.4506 -0.2004
    1SOL    HW3 1503   2.205   1.120   0.948 -1.0025 -0.4869  0.4407
    1SOL    MW4 1504   2.202   1.108   0.862  0.4480  0.3252  0.2708
    1SOL     OW 1505   1.518   1.557   0.830 -0.4135  0.0200  0.3568
    1SOL    HW2 1506   1.561   1.539   0.913  0.1139 -0.9938 -0.1235
    1SOL    HW3 1507   1.510   1.471   0.787 -1.0000  0.4752 -0.4808
    1SOL    MW4 1508   1.523   1.543   0.835 -0.4214 -0.0538  0.1829
    1SOL     OW 1509   3.114   0.893   0.745 -0.1712  0.2462  0.1191
    1SOL    HW2 1510   3.190   0.848   0.783 -0.3687  0.3675  0.6636
    1SOL    HW3 1511   3.127   0.985   0.765 -1.1925  0.1086  1.5255
    1SOL    MW4 1512   3.126   0.899   0.753 -0.3319  0.2441  0.3765
    1SOL     OW 1513   1.156   0.466   0.467 -0.0671 -0.0466  0.5583
    1SOL    HW2 1514   1.132   0.478   0.559 -0.9773 -0.1717  0.3412
    1SOL    HW3 1515   1.251   0.472   0.466 -0.0216 -0.5233  1.5820
    1SOL    MW4 1516   1.165   0.468   0.479 -0.1812 -0.1260  0.6647
    1SOL     OW 1517   2.205   1.938   0.819  0.9514  0.0351  0.0889
    1SOL    HW2 1518   2.145   1.996   0.772  0.3946 -1.3792 -0.9557
    1SOL    HW3 1519   2.292   1.975   0.801  0.6500  0.2203 -1.0323
    1SOL    MW4 1520   2.209   1.951   0.810  0.8383 -0.1271 -0.1968
    1SOL     OW 1521   2.067   3.673   0.426 -0.1148 -0.1306 -0.5004
    1SOL    HW2 1522   2.061   3.670   0.521 -0.5518 -0.4641 -0.5369
    1SOL    HW3 1523   2.141   3.616   0.404 -0.8895 -1.1644 -0.4471
    1SOL    MW4 1524   2.076   3.665   0.435 -0.2749 -0.3111 -0.4982
    1SOL     OW 1525   3.407   2.739   0.438  0.1928 -0.3096  0.2926
    1SOL    HW2 1526   3.420   2.771   0.528 -0.0733 -1.3968  0.7340
    1SOL    HW3 1527   3.484   2.684   0.422  1.7307  2.1875 -1.2323
    1SOL    MW4 1528   3.419   2.736   0.448  0.3605 -0.1237  0.1497
    1SOL     OW 1529   2.321   2.412   0.724  0.0659 -0.0071  0.1441
    1SOL    HW2 1530   2.238   2.367   0.739 -0.0773  0.3599  0.4676
    1SOL    HW3 1531   2.305   2.502   0.752  0.2958  0.2924 -0.6923
    1SOL    MW4 1532   2.308   2.418   0.730  0.0772  0.0808  0.0764
    1SOL     OW 1533   2.279   2.661   0.792  0.2247  0.1970  0.3786
    1SOL    HW2 1534   2.271   2.664   0.888  1.4087  0.5226  0.4799
    1SOL    HW3 1535   2.351   2.722   0.773 -1.0635  1.3529 -0.8616
    1SOL    MW4 1536   2.287   2.670   0.802  0.2110  0.3927  0.2283
    1SOL     OW 1537   1.597   4.177   0.379 -0.1272 -0.0997  0.4774
    1SOL    HW2 1538   1.580   4.260   0.424 -0.2256  0.5561 -0.7412
    1SOL    HW3 1539   1.520   4.124   0.396 -0.9449  0.7968 -0.3883
    1SOL    MW4 1540   1.585   4.181   0.388 -0.2480  0.1049  0.2024
    1SOL     OW 1541   1.784   4.259   0.828 -0.1248  0.2276 -0.3616
    1SOL    HW2 1542   1.780   4.259   0.924  0.4547  1.3214 -0.3311
    1SOL    HW3 1543   1.759   4.170   0.803  2.0724 -0.7798  0.8930
    1SOL    MW4 1544   1.780   4.247   0.837  0.2418  0.2384 -0.1920
    1SOL     OW 1545   2.188   3.232   0.440  0.2544 -0.2739 -0.2041
    1SOL    HW2 1546   2.237   3.165   0.392 -0.3872 -1.0921  0.2657
    1SOL    HW3 1547   2.206   3.213   0.532 -0.0103  0.1520 -0.0618
    1SOL    MW4 1548   2.197   3.221   0.446  0.1352 -0.3257 -0.1233
    1SOL     OW 1549   2.981   2.531   0.409  0.0899  0.0653 -0.1846
    1SOL    HW2 1550   2.935   2.448   0.417  0.0067  0.0032 -1.2699
    1SOL    HW3 1551   3.073   2.507   0.401  0.1154  0.1011  0.0014
    1SOL    MW4 1552   2.987   2.517   0.409  0.0823  0.0620 -0.3033
    1SOL     OW 1553   1.424   3.621   0.310 -0.0293  0.1827 -0.2987
    1SOL    HW2 1554   1.483   3.592   0.240  0.4805  1.0284 -0.2307
    1SOL    HW3 1555   1.483   3.656   0.378 -0.6101  1.2098 -0.3053
    1SOL    MW4 1556   1.440   3.622   0.310 -0.0386  0.4296 -0.2906
    1SOL     OW 1557   1.773   3.982   0.751  0.0156 -0.1135  0.6096
    1SOL    HW2 1558   1.858   3.950   0.783  0.1001  0.8901  1.4183
    1SOL    HW3 1559   1.712   3.912   0.774  0.5714 -0.7253  0.2635
    1SOL    MW4 1560   1.776   3.969   0.758  0.1000 -0.0618  0.6706
    1SOL     OW 1561   3.116   3.978   0.700  0.3709  0.1858  0.6520
    1SOL    HW2 1562   3.048   3.943   0.759  0.7922 -0.0367  1.0085
    1SOL    HW3 1563   3.197   3.939   0.732  0.7065  0.6932  0.4094
    1SOL    MW4 1564   3.118   3.968   0.712  0.4709  0.2236  0.6670
    1SOL     OW 1565   2.224   2.070   0.271 -0.3166  0.2176 -0.3176
    1SOL    HW2 1566   2.315   2.100   0.266  0.4694 -1.8404  1.0057
    1SOL    HW3 1567   2.227   1.979   0.241 -1.7102 -0.2595  0.9376
    1SOL    MW4 1568   2.236   2.062   0.266 -0.3967 -0.1168  0.0226
    1SOL     OW 1569   2.257   1.169   0.432  0.0211  0.6398 -0.0596
    1SOL    HW2 1570   2.165   1.184   0.456 -0.1833 -0.0787 -0.3822
    1SOL    HW3 1571   2.274   1.079   0.459  0.6412  0.7836  0.0198
    1SOL    MW4 1572   2.247   1.159   0.438  0.0758  0.5640 -0.0917
    1SOL     OW 1573   2.879   0.758   0.824 -0.2227  0.3113  0.4352
    1SOL    HW2 1574   2.865   0.766   0.918  1.2329 -0.7597  0.7600
    1SOL    HW3 1575   2.960   0.807   0.808 -0.3013  0.2300 -0.2195
    1SOL    MW4 1576   2.888   0.766   0.834 -0.0410  0.1593  0.3916
    1SOL     OW 1577   2.938   3.789   0.482  0.4722  0.1246 -0.3626
    1SOL    HW2 1578   2.846   3.804   0.457  0.1793 -1.7373 -0.4382
    1SOL    HW3 1579   2.933   3.744   0.567  1.3687  1.4898  0.4462
    1SOL    MW4 1580   2.925   3.785   0.490  0.5519  0.0594 -0.2658
    1SOL     OW 1581   2.509   0.736   0.849 -0.0007  0.2499  0.4039
    1SOL    HW2 1582   2.556   0.784   0.781  3.0667 -0.4355  1.9432
    1SOL    HW3 1583   2.484   0.654   0.808 -0.3486  0.8616 -0.6149
    1SOL    MW4 1584   2.512   0.732   0.835  0.3581  0.2402  0.4726
    1SOL     OW 1585   1.894   0.986   0.371  0.4174  0.2004  0.2041
    1SOL    HW2 1586   1.846   0.905   0.386 -0.8921  0.7416 -1.0039
    1SOL    HW3 1587   1.954   0.965   0.299  0.3770  0.1852  0.1748
    1SOL    MW4 1588   1.896   0.972   0.363  0.2393  0.2698  0.0409
    1SOL     OW 1589   3.060   0.804   0.486 -0.5564  0.4741  0.0762
    1SOL    HW2 1590   2.975   0.842   0.465 -0.7048 -0.1187 -0.4017
    1SOL    HW3 1591   3.075   0.826   0.578 -0.3716  2.2076 -0.3503
    1SOL    MW4 1592   3.051   0.812   0.495 -0.5517  0.6245 -0.0431
    1SOL     OW 1593   0.931   2.839   0.455 -0.2962 -0.1511  0.4385
    1SOL    HW2 1594   0.869   2.901   0.415 -0.3087 -0.8106 -0.5833
    1SOL    HW3 1595   1.016   2.862   0.417 -0.4229 -1.2414 -0.5523
    1SOL    MW4 1596   0.934   2.850   0.445 -0.3145 -0.3819  0.1729
    1SOL     OW 1597   3.266   2.468   0.470 -0.0705 -0.0890 -0.2169
    1SOL    HW2 1598   3.241   2.487   0.560  2.4922 -1.2459  0.7869
    1SOL    HW3 1599   3.315   2.545   0.442  0.3624 -0.3290 -0.1242
    1SOL    MW4 1600   3.270   2.481   0.478  0.3245 -0.2735 -0.0722
    1SOL     OW 1601   2.672   1.631   0.720  0.2082 -0.0671  0.1710
    1SOL    HW2 1602   2.703   1.636   0.629  0.6448 -0.5182  0.2883
    1SOL    HW3 1603   2.678   1.721   0.752  1.1381 -0.0918  0.0986
    1SOL    MW4 1604   2.677   1.643   0.712  0.3886 -0.1301  0.1769
    1SOL     OW 1605   3.107   1.673   0.701  0.2405 -0.7057 -0.1460
    1SOL    HW2 1606   3.086   1.719   0.620  0.7863 -1.9810 -1.0153
    1SOL    HW3 1607   3.117   1.743   0.766  1.3686  0.4255 -1.5058
    1SOL    MW4 1608   3.105   1.688   0.699  0.4613 -0.7248 -0.4401
    1SOL     OW 1609   0.036   0.268   0.572  0.3781  0.5654 -0.5132
    1SOL    HW2 1610  -0.043   0.273   0.518 -0.0763 -1.0341 -0.0006
    1SOL    HW3 1611   0.013   0.313   0.653 -0.3345 -0.7121  0.0113
    1SOL    MW4 1612   0.023   0.275   0.575  0.2246  0.1858 -0.3763
    1SOL     OW 1613   1.777   2.573   0.437 -0.4739 -0.9500 -0.4767
    1SOL    HW2 1614   1.777   2.534   0.524  1.0430 -0.2466 -0.1340
    1SOL    HW3 1615   1.717   2.647   0.443  0.3733 -0.3012  0.2819
    1SOL    MW4 1616   1.769   2.578   0.449 -0.1619 -0.7715 -0.3314
    1SOL     OW 1617   2.698   1.121   0.855  0.6925 -0.2641 -0.1042
    1SOL    HW2 1618   2.757   1.191   0.826 -0.8105  0.2268 -2.1477
    1SOL    HW3 1619   2.614   1.165   0.870  0.4683 -1.1733  1.3833
    1SOL    MW4 1620   2.695   1.136   0.853  0.4647 -0.3194 -0.1776
    1SOL     OW 1621   2.804   2.233   0.737 -0.2974 -0.0111  0.1426
    1SOL    HW2 1622   2.856   2.296   0.787  0.8697  0.1100 -1.1943
    1SOL    HW3 1623   2.856   2.153   0.738 -2.1408 -1.2778  2.5314
    1SOL    MW4 1624   2.818   2.231   0.744 -0.3865 -0.1621  0.2814
    1SOL     OW 1625   2.927   2.476   0.803 -0.2191  0.6181 -0.0378
    1SOL    HW2 1626   2.932   2.457   0.897  1.5492  2.0497  0.1854
    1SOL    HW3 1627   2.866   2.549   0.796 -0.5448  0.3479 -0.0367
    1SOL    MW4 1628   2.920   2.483   0.815 -0.0288  0.7715 -0.0082
    1SOL     OW 1629   2.751   2.694   0.836 -0.7131 -0.2210 -0.3168
    1SOL    HW2 1630   2.824   2.753   0.824  0.0671 -0.7163  1.7373
    1SOL    HW3 1631   2.734   2.695   0.930 -3.1442 -0.3610 -0.7099
    1SOL    MW4 1632   2.758   2.702   0.847 -0.9310 -0.3047 -0.0976
    1SOL     OW 1633   1.095   1.293   0.812 -0.2804 -0.3737  0.1763
    1SOL    HW2 1634   1.013   1.275   0.858  0.0065  2.7245  2.1099
    1SOL    HW3 1635   1.076   1.274   0.720 -2.7845 -0.9240  0.7572
    1SOL    MW4 1636   1.082   1.288   0.806 -0.5730 -0.0376  0.5081
    1SOL     OW 1637   1.467   1.175   0.487 -0.4544  0.2177 -0.2250
    1SOL    HW2 1638   1.522   1.135   0.420 -0.3280 -1.2596  0.7297
    1SOL    HW3 1639   1.400   1.109   0.505 -0.4762  0.5930  1.1225
    1SOL    MW4 1640   1.465   1.161   0.480 -0.4407  0.0724  0.0787
    1SOL     OW 1641   2.486   3.055   0.791 -0.6050 -0.0903 -0.0364
    1SOL    HW2 1642   2.556   3.111   0.756 -0.1499 -0.1491  0.7662
    1SOL    HW3 1643   2.499   3.057   0.886 -1.1246 -0.8586  0.0528
    1SOL    MW4 1644   2.497   3.063   0.799 -0.6137 -0.1996  0.0813
    1SOL     OW 1645   2.716   3.459   0.797  0.1276  0.1786  0.1762
    1SOL    HW2 1646   2.791   3.513   0.773 -0.5419  1.3846  0.7381
    1SOL    HW3 1647   2.713   3.463   0.893 -0.9435  0.5399  0.1338
    1SOL    MW4 1648   2.725   3.466   0.807 -0.1018  0.3855  0.2448
    1SOL     OW 1649   2.915   3.636   0.727 -0.2405 -0.3335  0.2820
    1SOL    HW2 1650   2.981   3.582   0.769  0.3362  0.5195  0.4948
    1SOL    HW3 1651   2.919   3.720   0.774  0.6801  0.7698 -1.6959
    1SOL    MW4 1652   2.924   3.640   0.739 -0.0429 -0.0756  0.0491
    1SOL     OW 1653   2.495   2.888   0.442  0.5024  0.3642  0.4414
    1SOL    HW2 1654   2.500   2.866   0.536 -1.7855 -1.2146  0.2424
    1SOL    HW3 1655   2.495   2.803   0.398  2.4206  1.1097 -1.0874
    1SOL    MW4 1656   2.496   2.874   0.449  0.4537  0.2546  0.2134
    1SOL     OW 1657   1.582   4.442   0.494  0.1143 -0.0950 -0.0501
    1SOL    HW2 1658   1.662   4.471   0.449 -0.4834  0.2616 -0.8946
    1SOL    HW3 1659   1.511   4.481   0.443 -0.6039 -0.6131  0.5591
    1SOL    MW4 1660   1.584   4.451   0.481 -0.0594 -0.1163 -0.0811
    1SOL     OW 1661   2.678   4.030   0.741  0.0950  0.4521  0.0126
    1SOL    HW2 1662   2.661   4.122   0.762 -0.1102  0.6701 -1.0790
    1SOL    HW3 1663   2.600   3.984   0.770 -0.0445  0.6994  0.0338
    1SOL    MW4 1664   2.665   4.036   0.748  0.0496  0.5136 -0.1286
    1SOL     OW 1665   2.893   1.279   0.755  0.3551 -0.2988 -0.2239
    1SOL    HW2 1666   2.912   1.367   0.789 -0.5437 -0.3902  0.5554
    1SOL    HW3 1667   2.976   1.232   0.762  0.5796  0.1732  0.3464
    1SOL    MW4 1668   2.907   1.285   0.761  0.2661 -0.2487 -0.0458
    1SOL     OW 1669   1.996   0.485   0.736  0.6185  0.1616  0.5336
    1SOL    HW2 1670   1.920   0.440   0.774  0.7260 -0.6504 -0.1819
    1SOL    HW3 1671   1.988   0.576   0.766 -0.1651 -0.1134  1.1682
    1SOL    MW4 1672   1.985   0.491   0.745  0.5292  0.0182  0.5229
    1SOL     OW 1673   2.364   0.434   0.514 -0.2897  0.5260 -0.3862
    1SOL    HW2 1674   2.444   0.461   0.468 -0.0026 -0.3160 -0.3910
    1SOL    HW3 1675   2.378   0.463   0.604  0.6001 -0.7948 -0.0910
    1SOL    MW4 1676   2.377   0.442   0.520 -0.1345  0.2407 -0.3479
    1SOL     OW 1677   1.074   2.061   0.505  0.4742  0.1611 -0.0244
    1SOL    HW2 1678   1.140   2.101   0.448 -0.1093  0.7110 -0.3314
    1SOL    HW3 1679   1.109   2.069   0.593  0.6064  0.8727 -0.1406
    1SOL    MW4 1680   1.087   2.067   0.509  0.4147  0.3278 -0.0802
    1SOL     OW 1681   3.143   0.391   0.848  0.4422  0.0085  0.0173
    1SOL    HW2 1682   3.152   0.388   0.943  1.2806  0.8163 -0.0285
    1SOL    HW3 1683   3.221   0.438   0.818  0.0509 -0.0040 -1.0491
    1SOL    MW4 1684   3.155   0.397   0.857  0.5012  0.1134 -0.1295
    1SOL     OW 1685   2.570   2.020   0.495 -0.8142 -0.1525 -0.2384
    1SOL    HW2 1686   2.665   2.029   0.489 -0.8087 -0.4493 -0.6788
    1SOL    HW3 1687   2.551   1.941   0.444 -1.5409  1.1857 -2.0853
    1SOL    MW4 1688   2.580   2.011   0.487 -0.9091 -0.0153 -0.5402
    1SOL     OW 1689   2.398   0.483   0.781  0.4596  0.4298 -0.1820
    1SOL    HW2 1690   2.320   0.442   0.820 -0.4697  2.5039  0.1981
    1SOL    HW3 1691   2.472   0.434   0.817 -0.6484 -1.4794 -0.4371
    1SOL    MW4 1692   2.397   0.471   0.790  0.1907  0.4515 -0.1655
    1SOL     OW 1693   3.836   4.354   0.738 -0.0895  0.3598  0.4005
    1SOL    HW2 1694   3.753   4.310   0.758  0.3802 -1.0736 -0.6820
    1SOL    HW3 1695   3.839   4.355   0.642  1.3607  0.0130  0.4380
    1SOL    MW4 1696   3.825   4.349   0.728  0.1638  0.1249  0.2626
    1SOL     OW 1697   3.376   1.586   0.767  0.1700  0.1695 -0.2301
    1SOL    HW2 1698   3.290   1.613   0.735  0.0801 -0.6836 -0.7125
    1SOL    HW3 1699   3.365   1.579   0.862 -0.4093 -0.3591 -0.3343
    1SOL    MW4 1700   3.364   1.588   0.775  0.0820 -0.0128 -0.3075
    1SOL     OW 1701   2.273   0.855   0.782  0.4656 -0.3605  0.1217
    1SOL    HW2 1702   2.278   0.871   0.688  1.1733  0.4104  0.2841
    1SOL    HW3 1703   2.360   0.824   0.806  0.0290 -1.4050  0.3709
    1SOL    MW4 1704   2.285   0.853   0.773  0.5012 -0.3965  0.1760
    1SOL     OW 1705   3.582   0.909   0.776  0.0913 -0.1138  0.0639
    1SOL    HW2 1706   3.572   0.882   0.685 -0.2913 -1.9061  0.6200
    1SOL    HW3 1707   3.661   0.864   0.806 -0.0803  0.0502  0.7772
    1SOL    MW4 1708   3.591   0.900   0.768  0.0184 -0.3287  0.2313
    1SOL     OW 1709   3.591   2.512   0.472  0.0318 -0.0103  0.0954
    1SOL    HW2 1710   3.586   2.485   0.564 -0.8889 -0.1211  0.0174
    1SOL    HW3 1711   3.593   2.430   0.423  0.7115  0.0479  0.0237
    1SOL    MW4 1712   3.590   2.498   0.477 -0.0002 -0.0174  0.0756
    1SOL     OW 1713   1.559   3.839   0.851  0.1827 -0.1481  0.4372
    1SOL    HW2 1714   1.470   3.870   0.833  0.0322 -0.2173  1.0467
    1SOL    HW3 1715   1.564   3.754   0.807  0.2341  0.2418 -0.3165
    1SOL    MW4 1716   1.548   3.832   0.843  0.1696 -0.1059  0.4181
    1SOL     OW 1717   3.809   0.267   0.416  0.1744  0.3080  0.0853
    1SOL    HW2 1718   3.789   0.357   0.442 -1.3312 -0.4751  1.8164
    1SOL    HW3 1719   3.723   0.226   0.407  0.8547 -1.0022 -0.4818
    1SOL    MW4 1720   3.795   0.274   0.418  0.0653  0.0319  0.2389
    1SOL     OW 1721   3.974   2.643   0.159  0.1684  0.1946 -0.1729
    1SOL    HW2 1722   3.907   2.605   0.102 -0.3808 -0.5287  0.9448
    1SOL    HW3 1723   3.930   2.657   0.243  1.5627 -0.7860  0.7368
    1SOL    MW4 1724   3.959   2.640   0.163  0.2799 -0.0300  0.0946
    1SOL     OW 1725   2.981   2.865   0.778 -0.1117 -0.1053  0.0663
    1SOL    HW2 1726   3.051   2.809   0.810  0.1027  0.4249  0.5274
    1SOL    HW3 1727   2.973   2.843   0.685  0.1425 -0.7108  0.1863
    1SOL    MW4 1728   2.989   2.854   0.770 -0.0498 -0.1152  0.1429
    1SOL     OW 1729   1.736   1.685   0.739 -0.1138  0.4372  0.0076
    1SOL    HW2 1730   1.664   1.633   0.775  0.5805 -1.7682 -1.6198
    1SOL    HW3 1731   1.814   1.633   0.757  0.9721  2.3568  0.9240
    1SOL    MW4 1732   1.737   1.671   0.746  0.1212  0.3996 -0.0861
    1SOL     OW 1733   1.354   3.178   0.452 -0.0646 -0.0407  0.0471
    1SOL    HW2 1734   1.431   3.188   0.395  0.8393  0.3265  1.3021
    1SOL    HW3 1735   1.311   3.263   0.448  1.2498  0.7341  1.6559
    1SOL    MW4 1736   1.359   3.191   0.444  0.2282  0.1099  0.4249
    1SOL     OW 1737   3.115   3.203   0.769 -0.3192 -0.0490  0.2840
    1SOL    HW2 1738   3.037   3.165   0.810 -1.1283  1.5307  0.2320
    1SOL    HW3 1739   3.106   3.182   0.676 -1.2360  1.0512  0.1150
    1SOL    MW4 1740   3.104   3.195   0.762 -0.5469  0.3045  0.2549
    1SOL     OW 1741   3.136   3.484   0.830  0.4788  0.3882  0.1430
    1SOL    HW2 1742   3.136   3.390   0.815 -1.0653  0.3966 -0.0471
    1SOL    HW3 1743   3.138   3.493   0.926 -0.3606  0.1293  0.1927
    1SOL    MW4 1744   3.136   3.473   0.841  0.1643  0.3550  0.1245
    1SOL     OW 1745   3.564   3.395   0.432 -0.0120  0.3983  0.3724
    1SOL    HW2 1746   3.659   3.404   0.425  0.0322 -0.5425 -0.3346
    1SOL    HW3 1747   3.532   3.485   0.437  0.8947  0.7306  0.2936
    1SOL    MW4 1748   3.572   3.408   0.431  0.1135  0.3181  0.2687
    1SOL     OW 1749   3.562   3.969   0.702 -0.2809 -0.5117  0.2566
    1SOL    HW2 1750   3.482   3.942   0.746  0.6643 -0.3071  2.1610
    1SOL    HW3 1751   3.631   3.919   0.745  0.5873 -1.0993 -1.7255
    1SOL    MW4 1752   3.561   3.958   0.713 -0.0417 -0.5620  0.2464
    1SOL     OW 1753   4.229   0.626   0.518 -0.1649  0.1710 -0.1423
    1SOL    HW2 1754   4.323   0.635   0.502  0.3571 -0.9848  2.0252
    1SOL    HW3 1755   4.210   0.534   0.501 -0.1154 -0.4736  2.9931
    1SOL    MW4 1756   4.239   0.615   0.514 -0.0896 -0.0666  0.5572
    1SOL     OW 1757   3.131   4.250   0.833 -0.0111 -0.4225 -0.1031
    1SOL    HW2 1758   3.060   4.296   0.788  1.5583  1.4303 -0.7628
    1SOL    HW3 1759   3.132   4.163   0.794 -1.9780 -0.5137 -0.0025
    1SOL    MW4 1760   3.122   4.245   0.822 -0.0634 -0.1903 -0.1768
    1SOL     OW 1761   2.798   0.933   0.450  0.2164 -0.1046  0.0075
    1SOL    HW2 1762   2.755   0.914   0.533 -0.2361  1.0171  0.0502
    1SOL    HW3 1763   2.830   1.023   0.460 -1.1333  0.5727 -1.5593
    1SOL    MW4 1764   2.797   0.943   0.462 -0.0215  0.1327 -0.1936
    1SOL     OW 1765   1.946   1.530   0.851 -0.0116 -0.0092 -0.3588
    1SOL    HW2 1766   1.961   1.441   0.818 -1.3766  0.5406 -2.6257
    1SOL    HW3 1767   2.021   1.581   0.819 -0.0749 -0.0047 -0.5025
    1SOL    MW4 1768   1.958   1.525   0.842 -0.2000  0.0639 -0.6769
    1SOL     OW 1769   3.154   0.146   0.699 -0.1094 -0.2462 -0.4918
    1SOL    HW2 1770   3.168   0.222   0.755  1.3873  0.6981 -2.1233
    1SOL    HW3 1771   3.221   0.083   0.726 -0.1823 -0.2774 -0.3828
    1SOL    MW4 1772   3.164   0.147   0.710  0.0784 -0.1258 -0.6927
    1SOL     OW 1773   3.612   0.350   0.898 -0.3819 -0.1394  0.1681
    1SOL    HW2 1774   3.681   0.414   0.878 -0.6917 -0.0468 -0.6251
    1SOL    HW3 1775   3.609   0.348   0.994 -0.6460  1.3331  0.2047
    1SOL    MW4 1776   3.621   0.358   0.908 -0.4575  0.0671  0.0682
    1SOL     OW 1777   0.666   0.563   0.780 -0.0805 -0.0572 -0.3313
    1SOL    HW2 1778   0.581   0.526   0.804  0.1617 -0.3007  0.1623
    1SOL    HW3 1779   0.729   0.512   0.831  0.2958  0.7034 -0.0241
    1SOL    MW4 1780   0.663   0.551   0.790  0.0011  0.0110 -0.2255
    1SOL     OW 1781   3.823   0.780   0.851 -0.2470 -0.8436 -0.2221
    1SOL    HW2 1782   3.835   0.781   0.946  0.2365 -0.8710 -0.2815
    1SOL    HW3 1783   3.906   0.812   0.816 -1.5079  2.2328 -0.5379
    1SOL    MW4 1784   3.835   0.784   0.859 -0.3495 -0.4413 -0.2716
    1SOL     OW 1785   1.522   1.780   0.384  0.2934 -0.0206 -0.0897
    1SOL    HW2 1786   1.440   1.755   0.427  0.6938  0.2217  0.8320
    1SOL    HW3 1787   1.584   1.711   0.409  0.4183 -0.0941 -0.6141
    1SOL    MW4 1788   1.519   1.768   0.393  0.3626  0.0017 -0.0373
    1SOL     OW 1789   3.830   1.540   0.821  0.1250  0.6646  0.2281
    1SOL    HW2 1790   3.807   1.450   0.797  0.2211  0.2171  1.7528
    1SOL    HW3 1791   3.760   1.593   0.784 -1.9213 -0.3951  2.4043
    1SOL    MW4 1792   3.818   1.535   0.813 -0.1323  0.4659  0.7164
    1SOL     OW 1793   2.831   2.007   0.442  0.1415 -0.1369 -0.3562
    1SOL    HW2 1794   2.862   1.931   0.392  0.6273  0.3670 -0.8300
    1SOL    HW3 1795   2.884   2.008   0.522  0.0498 -0.3692 -0.2939
    1SOL    MW4 1796   2.842   1.997   0.446  0.1934 -0.1013 -0.4105
    1SOL     OW 1797   4.280   2.862   0.770 -0.0927 -0.3135  0.3332
    1SOL    HW2 1798   4.339   2.817   0.831 -1.0372 -1.4005  0.4495
    1SOL    HW3 1799   4.274   2.951   0.805  1.5400 -0.1658  0.2794
    1SOL    MW4 1800   4.287   2.868   0.783 -0.0029 -0.4375  0.3414
    1SOL     OW 1801   1.100   0.531   0.751 -0.1560 -0.1066 -0.0369
    1SOL    HW2 1802   1.168   0.479   0.794 -0.4032 -1.0709 -0.7876
    1SOL    HW3 1803   1.019   0.502   0.793 -0.0183  1.8089  1.6092
    1SOL    MW4 1804   1.098   0.520   0.762 -0.1702  0.0189  0.0812
    1SOL     OW 1805   3.980   2.391   0.528  0.0710 -0.4102 -0.0072
    1SOL    HW2 1806   3.945   2.476   0.503 -0.4308 -0.7483 -0.4745
    1SOL    HW3 1807   4.014   2.404   0.616  0.5224  0.4204 -0.3003
    1SOL    MW4 1808   3.980   2.404   0.536  0.0641 -0.3455 -0.1074
    1SOL     OW 1809   3.352   2.314   0.853  0.0328 -0.2907 -0.3071
    1SOL    HW2 1810   3.341   2.309   0.948  0.0294 -0.6383 -0.3268
    1SOL    HW3 1811   3.355   2.223   0.824  4.5994 -0.3149 -0.1220
    1SOL    MW4 1812   3.351   2.301   0.861  0.6351 -0.3397 -0.2853
    1SOL     OW 1813   3.826   2.321   1.163 -0.0152  0.1273  0.0759
    1SOL    HW2 1814   3.893   2.390   1.165 -0.8607  0.9805 -0.5087
    1SOL    HW3 1815   3.792   2.324   1.073 -1.3809  0.2418  0.5888
    1SOL    MW4 1816   3.830   2.331   1.151 -0.3071  0.2551  0.0664
    1SOL     OW 1817   1.746   2.133   0.286 -0.0975  0.4053  0.0707
    1SOL    HW2 1818   1.781   2.219   0.264  0.8954 -0.0127 -0.0179
    1SOL    HW3 1819   1.816   2.090   0.336 -1.2456  0.2969  1.6290
    1SOL    MW4 1820   1.760   2.139   0.290 -0.1179  0.3359  0.2646
    1SOL     OW 1821   3.588   2.673   0.853  0.1707  0.0241 -0.0315
    1SOL    HW2 1822   3.614   2.686   0.944 -0.2352 -1.9122  0.3731
    1SOL    HW3 1823   3.655   2.719   0.802 -0.5258  2.5688  1.2774
    1SOL    MW4 1824   3.600   2.681   0.858  0.0250  0.1044  0.1946
    1SOL     OW 1825   1.840   3.532   0.339 -0.5944 -0.1548 -0.6040
    1SOL    HW2 1826   1.870   3.445   0.366 -2.2775 -0.7689 -0.6768
    1SOL    HW3 1827   1.920   3.586   0.338  0.7865 -2.1553 -2.4501
    1SOL    MW4 1828   1.855   3.528   0.342 -0.6342 -0.5000 -0.8572
    1SOL     OW 1829   3.846   3.079   0.857  0.3023  0.0262 -0.1763
    1SOL    HW2 1830   3.767   3.121   0.823  0.0848  0.2381  0.5817
    1SOL    HW3 1831   3.853   2.997   0.807 -0.3485  0.0501 -0.3119
    1SOL    MW4 1832   3.837   3.073   0.846  0.1879  0.0575 -0.0942
    1SOL     OW 1833   4.241   2.383   0.423 -0.3844 -0.1093 -0.2708
    1SOL    HW2 1834   4.168   2.385   0.485  0.2954 -0.7046  0.5679
    1SOL    HW3 1835   4.238   2.468   0.380 -1.8399 -0.2967 -0.5719
    1SOL    MW4 1836   4.231   2.394   0.426 -0.4864 -0.2127 -0.1999
    1SOL     OW 1837   3.609   3.220   0.774 -0.0424 -0.2203 -0.2065
    1SOL    HW2 1838   3.609   3.193   0.683  0.8776 -0.3027 -0.1937
    1SOL    HW3 1839   3.522   3.198   0.807 -0.9443  1.3088 -1.5026
    1SOL    MW4 1840   3.598   3.214   0.767 -0.0401 -0.0293 -0.3759
    1SOL     OW 1841   4.012   4.151   0.487 -0.2509  0.2495  1.0667
    1SOL    HW2 1842   4.103   4.174   0.501 -0.2089  0.5875  0.2478
    1SOL    HW3 1843   3.967   4.235   0.479  0.0415  0.1170 -2.8545
    1SOL    MW4 1844   4.018   4.165   0.488 -0.2065  0.2766  0.4413
    1SOL     OW 1845   3.840   3.603   0.699 -0.0487  0.2082 -0.0384
    1SOL    HW2 1846   3.925   3.569   0.728 -0.3602  0.0720  0.7124
    1SOL    HW3 1847   3.862   3.660   0.625  0.7478  0.5228  0.4290
    1SOL    MW4 1848   3.854   3.606   0.693  0.0157  0.2317  0.1223
    1SOL     OW 1849   0.589   1.831   0.491 -0.1265 -0.2009  0.0294
    1SOL    HW2 1850   0.512   1.887   0.484 -1.4662 -2.0896 -1.0643
    1SOL    HW3 1851   0.570   1.774   0.566 -0.1071 -1.0928 -0.6314
    1SOL    MW4 1852   0.576   1.831   0.500 -0.3008 -0.5677 -0.2021
    1SOL     OW 1853   2.254   3.452   0.768 -0.5018 -0.1828 -0.0609
    1SOL    HW2 1854   2.250   3.362   0.735 -0.7038  0.6421 -2.3412
    1SOL    HW3 1855   2.338   3.485   0.736 -1.2933  1.0572 -0.8699
    1SOL    MW4 1856   2.265   3.444   0.760 -0.6330  0.0896 -0.4684
    1SOL     OW 1857   1.174   4.464   0.448  0.1251 -0.0587  0.4543
    1SOL    HW2 1858   1.253   4.507   0.415  1.0824 -0.8393  1.6875
    1SOL    HW3 1859   1.180   4.375   0.412 -0.3819 -0.0132  0.2585
    1SOL    MW4 1860   1.185   4.458   0.439  0.1845 -0.1554  0.5912
    1SOL     OW 1861   4.304   0.023   0.872  0.0196 -0.0194 -0.2421
    1SOL    HW2 1862   4.288   0.022   0.966  0.7654  0.4701 -0.1014
    1SOL    HW3 1863   4.270   0.107   0.842  2.4776  1.1553  0.1094
    1SOL    MW4 1864   4.298   0.034   0.880  0.4425  0.1998 -0.1771
    1SOL     OW 1865   3.585   0.130   0.722  0.1853 -0.0788 -0.0967
    1SOL    HW2 1866   3.595   0.210   0.774 -0.9851 -0.2961  0.4638
    1SOL    HW3 1867   3.658   0.074   0.750  0.5003  0.4409  0.1278
    1SOL    MW4 1868   3.596   0.133   0.732  0.0725 -0.0389  0.0069
    1SOL     OW 1869   4.054   0.206   0.305  0.7105  0.3925  0.0213
    1SOL    HW2 1870   3.968   0.229   0.341  0.1650 -0.9186 -0.4128
    1SOL    HW3 1871   4.040   0.202   0.211  1.2121  0.0408 -0.0383
    1SOL    MW4 1872   4.041   0.208   0.298  0.7048  0.1731 -0.0439
    1SOL     OW 1873   0.016   2.726   0.861 -0.5633 -0.0951 -0.1688
    1SOL    HW2 1874   0.030   2.733   0.956 -0.9980  0.4011 -0.1427
    1SOL    HW3 1875   0.093   2.770   0.823 -0.3910 -0.2895 -0.0472
    1SOL    MW4 1876   0.028   2.733   0.869 -0.5979 -0.0551 -0.1493
    1SOL     OW 1877   4.328   0.833   0.903 -0.0341 -0.0719  0.0967
    1SOL    HW2 1878   4.303   0.823   0.995  2.0360  0.2865  0.7308
    1SOL    HW3 1879   4.343   0.744   0.872  0.7149 -0.1065  0.5436
    1SOL    MW4 1880   4.327   0.820   0.911  0.3376 -0.0292  0.2393
    1SOL     OW 1881   4.209   3.100   0.330 -0.2410 -0.0133  0.5197
    1SOL    HW2 1882   4.206   3.090   0.234 -1.0780 -1.3911  0.6694
    1SOL    HW3 1883   4.226   3.011   0.362  0.9571  0.6007  1.6180
    1SOL    MW4 1884   4.211   3.087   0.321 -0.1931 -0.1142  0.6843
    1SOL     OW 1885   1.295   1.709   0.760  0.5288 -0.5712  0.1488
    1SOL    HW2 1886   1.370   1.652   0.774  0.9561 -0.3132 -1.0339
    1SOL    HW3 1887   1.284   1.711   0.665  0.3154  1.0555  0.1992
    1SOL    MW4 1888   1.303   1.702   0.749  0.5571 -0.3225 -0.0006
    1SOL     OW 1889   2.262   4.241   0.865 -0.0378  0.3258  0.2628
    1SOL    HW2 1890   2.177   4.273   0.832 -0.8225 -1.4925  0.4757
    1SOL    HW3 1891   2.277   4.160   0.816  1.8142  0.8671 -0.0915
    1SOL    MW4 1892   2.252   4.235   0.854  0.1030  0.1578  0.2442
    1SOL     OW 1893   4.270   1.582   0.872 -0.0976 -0.0808 -0.1719
    1SOL    HW2 1894   4.253   1.496   0.834 -0.3540 -0.3563  0.5629
    1SOL    HW3 1895   4.265   1.568   0.967 -0.3156  0.7801 -0.0543
    1SOL    MW4 1896   4.267   1.569   0.880 -0.1602 -0.0036 -0.0594
    1SOL     OW 1897   0.861   1.160   0.890 -0.2102 -0.6859  0.3796
    1SOL    HW2 1898   0.785   1.191   0.841  0.6754  0.9030  0.0073
    1SOL    HW3 1899   0.887   1.079   0.846  0.1742  0.3724 -1.3831
    1SOL    MW4 1900   0.854   1.153   0.878 -0.0426 -0.3368  0.0979
    1SOL     OW 1901   0.883   4.529   0.422  0.2470 -0.0428  0.1337
    1SOL    HW2 1902   0.973   4.495   0.416  0.3325  0.3448 -0.9422
    1SOL    HW3 1903   0.892   4.613   0.466  0.3107 -0.3699  0.7524
    1SOL    MW4 1904   0.896   4.535   0.427  0.2667 -0.0343  0.0734
    1SOL     OW 1905   4.046   3.231   0.766 -0.6342 -0.0959  0.0276
    1SOL    HW2 1906   3.975   3.178   0.801 -1.1096 -0.4870 -1.4632
    1SOL    HW3 1907   4.030   3.233   0.671  1.8852 -0.9832 -0.4560
    1SOL    MW4 1908   4.035   3.224   0.758 -0.3643 -0.2644 -0.2329
    1SOL     OW 1909   0.204   2.340   1.154  0.0779 -0.3779  0.2735
    1SOL    HW2 1910   0.128   2.395   1.172  0.2819  0.4011 -1.1431
    1SOL    HW3 1911   0.279   2.393   1.181  0.1576 -0.8450  0.9704
    1SOL    MW4 1912   0.204   2.354   1.160  0.1154 -0.3369  0.1785
    1SOL     OW 1913   2.051   3.901   0.814  0.0388  0.3187 -0.0243
    1SOL    HW2 1914   2.039   3.882   0.907  0.9610 -1.0443 -0.1718
    1SOL    HW3 1915   2.041   3.816   0.771  1.5485  0.6168 -0.9842
    1SOL    MW4 1916   2.048   3.887   0.821  0.3598  0.1779 -0.1704
    1SOL     OW 1917   3.784   2.824   0.715 -0.2366 -0.8025 -0.4438
    1SOL    HW2 1918   3.873   2.791   0.728  0.5313  1.4204  0.2502
    1SOL    HW3 1919   3.789   2.874   0.634 -1.1520 -1.6393 -1.0190
    1SOL    MW4 1920   3.797   2.827   0.706 -0.2561 -0.6194 -0.4281
    1SOL     OW 1921   0.901   1.950   0.860  0.2046 -0.0522 -0.1571
    1SOL    HW2 1922   0.842   2.021   0.834 -1.3766 -1.3074 -0.0643
    1SOL    HW3 1923   0.893   1.947   0.955  2.2125  1.2801  0.0887
    1SOL    MW4 1924   0.892   1.959   0.869  0.2609 -0.0420 -0.1125
    1SOL     OW 1925   2.207   0.715   0.291  0.0598 -0.4765 -0.1256
    1SOL    HW2 1926   2.299   0.703   0.268  0.5387  0.6268  1.1579
    1SOL    HW3 1927   2.178   0.627   0.317  0.3733 -1.0925 -1.7589
    1SOL    MW4 1928   2.215   0.702   0.292  0.1643 -0.4122 -0.1717
    1SOL     OW 1929   3.834   2.150   0.468 -0.5935 -0.0774  0.2219
    1SOL    HW2 1930   3.894   2.080   0.439 -0.1288 -0.2014  1.4750
    1SOL    HW3 1931   3.888   2.229   0.466 -1.0888  0.2437 -1.0812
    1SOL    MW4 1932   3.849   2.151   0.464 -0.5975 -0.0515  0.2153
    1SOL     OW 1933   3.603   3.502   0.857  0.0785  0.1250  0.4811
    1SOL    HW2 1934   3.681   3.532   0.809 -0.2203 -0.4410 -0.3791
    1SOL    HW3 1935   3.594   3.410   0.832 -0.4254 -0.0145  1.1756
    1SOL    MW4 1936   3.612   3.494   0.847 -0.0272  0.0319  0.4593
    1SOL     OW 1937   4.234   3.875   0.805  0.6328 -0.1008  0.0195
    1SOL    HW2 1938   4.145   3.894   0.775  0.7931  0.5326 -0.0530
    1SOL    HW3 1939   4.225   3.859   0.899  0.2607 -1.2274 -0.1942
    1SOL    MW4 1940   4.221   3.875   0.813  0.6046 -0.1662 -0.0182
    1SOL     OW 1941   4.286   1.094   0.383 -0.2068 -0.0379  0.1068
    1SOL    HW2 1942   4.220   1.046   0.431  1.3631 -1.1868  1.1753
    1SOL    HW3 1943   4.370   1.059   0.414  0.9392  1.9921 -0.5291
    1SOL    MW4 1944   4.289   1.083   0.393  0.1512  0.0783  0.1639
    1SOL     OW 1945   3.769   3.843   0.827  0.4331  0.1873 -0.0652
    1SOL    HW2 1946   3.847   3.891   0.798  0.4113  1.5797  2.0662
    1SOL    HW3 1947   3.786   3.752   0.802  2.5811  0.5234  0.0813
    1SOL    MW4 1948   3.782   3.837   0.820  0.7136  0.4151  0.2353
    1SOL     OW 1949   3.949   0.107   0.628  0.0535  0.3961 -0.5206
    1SOL    HW2 1950   3.994   0.042   0.574 -1.3012 -1.2411  0.2739
    1SOL    HW3 1951   3.894   0.155   0.567  0.9906  0.7241 -1.1036
    1SOL    MW4 1952   3.948   0.104   0.613 -0.0014  0.2234 -0.4928
    1SOL     OW 1953   3.799   4.618   0.821  0.4763 -0.2821  0.3903
    1SOL    HW2 1954   3.810   4.526   0.798 -0.6457 -0.0423 -1.2335
    1SOL    HW3 1955   3.860   4.665   0.764  0.5474  0.0310  0.7211
    1SOL    MW4 1956   3.808   4.612   0.810  0.3376 -0.2093  0.2198
    1SOL     OW 1957   0.233   4.601   1.085 -0.0929 -0.7804  0.4415
    1SOL    HW2 1958   0.290   4.670   1.121  0.3931 -1.5097  1.0930
    1SOL    HW3 1959   0.217   4.628   0.995 -0.4488  0.5266  0.8857
    1SOL    MW4 1960   0.239   4.613   1.078 -0.0758 -0.7042  0.5862
    1SOL     OW 1961   0.025   0.095   1.215  0.1033 -0.3639 -0.2093
    1SOL    HW2 1962  -0.057   0.056   1.182 -0.0738 -0.2818  0.1325
    1SOL    HW3 1963   0.094   0.038   1.182 -0.1648 -1.0296  0.3637
    1SOL    MW4 1964   0.023   0.082   1.207  0.0443 -0.4409 -0.0885
    1SOL     OW 1965   4.479   0.357   1.107  0.4400  0.0778  0.1332
    1SOL    HW2 1966   4.410   0.402   1.157  0.7652  1.0176 -0.2499
    1SOL    HW3 1967   4.481   0.269   1.143  0.7194  0.7650  1.8156
    1SOL    MW4 1968   4.470   0.351   1.118  0.5198  0.2925  0.3047
    1SOL     OW 1969   0.201   0.523   1.199 -0.8469 -0.4519 -0.0385
    1SOL    HW2 1970   0.187   0.614   1.176  0.1464 -0.4576 -0.6818
    1SOL    HW3 1971   0.124   0.477   1.166 -1.6641  0.2410  0.8772
    1SOL    MW4 1972   0.189   0.529   1.192 -0.8237 -0.3613 -0.0026
    1SOL     OW 1973   0.193   0.786   1.113 -0.3443  0.2557  0.1707
    1SOL    HW2 1974   0.277   0.806   1.154 -0.0588 -0.2540 -0.1559
    1SOL    HW3 1975   0.130   0.844   1.157  0.2909  1.1390 -0.0679
    1SOL    MW4 1976   0.195   0.797   1.124 -0.2228  0.3049  0.0961
    1SOL     OW 1977   4.481   0.935   1.225 -0.2373 -0.2710 -0.0630
    1SOL    HW2 1978   4.484   0.952   1.320  0.4210 -2.5369  0.3439
    1SOL    HW3 1979   4.480   1.023   1.186 -0.4844  0.7058  2.0332
    1SOL    MW4 1980   4.482   0.949   1.233 -0.1831 -0.4410  0.2671
    1SOL     OW 1981   4.460   1.186   1.089  0.3774  0.2076  0.2131
    1SOL    HW2 1982   4.386   1.232   1.128 -0.1723  0.3978 -1.0120
    1SOL    HW3 1983   4.538   1.226   1.128 -0.1073  1.9004 -0.5208
    1SOL    MW4 1984   4.461   1.197   1.099  0.2408  0.4560 -0.0455
    1SOL     OW 1985   0.193   1.303   1.192 -0.4560  0.2876  0.3609
    1SOL    HW2 1986   0.196   1.308   1.287  0.5208  0.1435  0.3478
    1SOL    HW3 1987   0.270   1.251   1.168 -0.4077  0.7498 -0.5348
    1SOL    MW4 1988   0.204   1.296   1.201 -0.3207  0.3296  0.2410
    1SOL     OW 1989   0.232   1.575   1.133 -0.4187 -0.2753  0.6562
    1SOL    HW2 1990   0.237   1.480   1.142  0.0650 -0.2542  0.6492
    1SOL    HW3 1991   0.241   1.590   1.038  0.6138 -0.1646  0.7653
    1SOL    MW4 1992   0.234   1.564   1.121 -0.2187 -0.2580  0.6697
    1SOL     OW 1993   0.007   1.692   1.236  0.0517 -0.3847  0.0150
    1SOL    HW2 1994  -0.014   1.775   1.192  2.7080  0.8234  0.9524
    1SOL    HW3 1995   0.096   1.671   1.208  0.8376 -0.9152  2.7545
    1SOL    MW4 1996   0.016   1.700   1.227  0.5058 -0.2953  0.5003
    1SOL     OW 1997   4.460   1.932   1.120  0.1101  0.3586  0.1348
    1SOL    HW2 1998   4.386   1.984   1.152 -0.8150  0.3162 -1.8407
    1SOL    HW3 1999   4.452   1.937   1.025  2.0266 -0.5670 -0.0807
    1SOL    MW4 2000   4.449   1.940   1.112  0.2408  0.2308 -0.1543
    1SOL     OW 2001   0.222   2.062   1.234 -0.0362  0.4238 -0.0787
    1SOL    HW2 2002   0.219   2.156   1.213  0.5281  0.2814 -0.8201
    1SOL    HW3 2003   0.141   2.027   1.198  0.1663  0.4761 -0.6013
    1SOL    MW4 2004   0.211   2.070   1.226  0.0650  0.4117 -0.2453
    1SOL     OW 2005   0.259   2.329   0.886 -0.0702 -0.5900  0.6864
    1SOL    HW2 2006   0.171   2.360   0.862 -0.1237 -0.5759  0.8995
    1SOL    HW3 2007   0.260   2.332   0.981  0.2014 -0.4868  0.6791
    1SOL    MW4 2008   0.247   2.333   0.895 -0.0414 -0.5744  0.7135
    1SOL     OW 2009   4.474   2.475   1.256 -0.4506 -0.1805 -0.6510
    1SOL    HW2 2010   4.466   2.473   1.351  0.4038  1.0913 -0.5406
    1SOL    HW3 2011   4.399   2.423   1.225 -0.7665 -0.5576  0.7005
    1SOL    MW4 2012   4.463   2.468   1.264 -0.3796 -0.0625 -0.4582
    1SOL     OW 2013   4.487   2.728   1.145 -0.3489 -0.2972 -0.0088
    1SOL    HW2 2014   4.412   2.771   1.186 -0.5310 -0.2031 -0.4435
    1SOL    HW3 2015   4.487   2.640   1.183 -0.1260  0.0005  0.6877
    1SOL    MW4 2016   4.477   2.722   1.156 -0.3436 -0.2456  0.0259
    1SOL     OW 2017   0.232   2.852   1.242  0.2495  0.2445 -0.1730
    1SOL    HW2 2018   0.202   2.872   1.330  0.1130 -1.0572  0.0927
    1SOL    HW3 2019   0.164   2.795   1.206  0.8010 -0.0546 -0.7588
    1SOL    MW4 2020   0.219   2.847   1.249  0.3043  0.0331 -0.2152
    1SOL     OW 2021   0.203   3.103   1.138 -0.3820  0.0072 -0.0397
    1SOL    HW2 2022   0.283   3.151   1.157 -1.0055  1.7519 -1.6560
    1SOL    HW3 2023   0.222   3.013   1.164  1.9655  0.4748 -0.0359
    1SOL    MW4 2024   0.216   3.098   1.144 -0.1546  0.2992 -0.2524
    1SOL     OW 2025   4.476   3.221   1.273  0.2927 -0.2137 -0.0513
    1SOL    HW2 2026   4.397   3.187   1.230  0.4441 -0.3521 -0.2273
    1SOL    HW3 2027   4.547   3.167   1.236  0.2679 -1.2901  1.4290
    1SOL    MW4 2028   4.475   3.209   1.262  0.3094 -0.3743  0.1209
    1SOL     OW 2029   4.486   3.498   1.164  0.2415 -0.0139  0.3949
    1SOL    HW2 2030   4.463   3.411   1.199 -0.0184  0.0914  0.4849
    1SOL    HW3 2031   4.491   3.485   1.069 -1.7199  0.3163  0.2355
    1SOL    MW4 2032   4.484   3.485   1.156 -0.0520  0.0436  0.3858
    1SOL     OW 2033   0.251   3.619   1.197  0.5378  0.3594  0.4379
    1SOL    HW2 2034   0.266   3.635   1.291 -0.8490 -0.3378  0.7881
    1SOL    HW3 2035   0.162   3.583   1.193  1.4812 -1.9090 -0.8821
    1SOL    MW4 2036   0.241   3.616   1.209  0.4793 -0.0317  0.3099
    1SOL     OW 2037   0.234   3.867   1.084 -0.5822  0.0470  0.4199
    1SOL    HW2 2038   0.148   3.900   1.110 -1.2170 -0.2601 -1.1774
    1SOL    HW3 2039   0.240   3.781   1.127 -1.7124 -0.5664 -0.5973
    1SOL    MW4 2040   0.223   3.860   1.093 -0.8151 -0.0749  0.0749
    1SOL     OW 2041   0.012   3.999   1.169 -0.0268 -0.2593 -0.2278
    1SOL    HW2 2042   0.003   3.985   1.263 -2.0349  2.5005  0.0512
    1SOL    HW3 2043  -0.066   3.960   1.131 -0.4366  0.7839 -0.4781
    1SOL    MW4 2044   0.001   3.992   1.177 -0.3457  0.2425 -0.2240
    1SOL     OW 2045   4.482   4.259   1.111 -0.0105 -0.2818 -0.2820
    1SOL    HW2 2046   4.559   4.297   1.154 -0.4671 -0.5298  0.7588
    1SOL    HW3 2047   4.482   4.168   1.138 -0.1412 -0.5112 -1.0511
    1SOL    MW4 2048   4.492   4.252   1.120 -0.0882 -0.3452 -0.2460
    1SOL     OW 2049   0.216   4.368   1.231  0.0725 -0.2250  0.2654
    1SOL    HW2 2050   0.213   4.375   1.326  0.4640  0.3957  0.2376
    1SOL    HW3 2051   0.223   4.459   1.201 -0.8783 -0.3656 -0.3846
    1SOL    MW4 2052   0.217   4.381   1.239 -0.0013 -0.1616  0.1758
    1SOL     OW 2053   0.637   0.014   1.081 -0.0864 -0.2761 -0.3118
    1SOL    HW2 2054   0.711   0.056   1.126  0.1762  1.6168 -2.4254
    1SOL    HW3 2055   0.630  -0.072   1.122  1.0665  0.8240  2.3374
    1SOL    MW4 2056   0.646   0.008   1.092  0.1003  0.1188 -0.2410
    1SOL     OW 2057   0.422   0.107   1.186  0.1464 -0.0258  0.0962
    1SOL    HW2 2058   0.419   0.195   1.147 -0.8797 -0.0518  0.0868
    1SOL    HW3 2059   0.503   0.069   1.153 -1.1083 -0.3649 -2.7603
    1SOL    MW4 2060   0.432   0.114   1.176 -0.1545 -0.0739 -0.2818
    1SOL     OW 2061   2.346   1.820   0.165  0.0858  0.1282 -0.3127
    1SOL    HW2 2062   2.366   1.818   0.071 -2.5381  0.3738 -0.9129
    1SOL    HW3 2063   2.290   1.743   0.180  0.3383  0.1862  1.0266
    1SOL    MW4 2064   2.341   1.809   0.155 -0.2270  0.1681 -0.2152
    1SOL     OW 2065   0.647   0.510   1.243 -0.1641 -0.3650 -0.4485
    1SOL    HW2 2066   0.660   0.600   1.212 -0.1158 -0.8351 -1.8002
    1SOL    HW3 2067   0.576   0.476   1.188 -0.8825 -0.8298  0.7398
    1SOL    MW4 2068   0.639   0.518   1.232 -0.2525 -0.4883 -0.4699
    1SOL     OW 2069   0.656   0.755   1.138  0.0413 -0.0747  0.2645
    1SOL    HW2 2070   0.568   0.785   1.161 -0.2749 -1.0096  0.2789
    1SOL    HW3 2071   0.671   0.792   1.051 -0.6968 -0.5957 -0.0935
    1SOL    MW4 2072   0.646   0.764   1.130 -0.0978 -0.2668  0.2192
    1SOL     OW 2073   0.425   0.888   1.216 -0.0787  0.3858 -0.1612
    1SOL    HW2 2074   0.430   0.882   1.311  1.9995 -0.5409 -0.2946
    1SOL    HW3 2075   0.413   0.981   1.198 -1.3086  0.4692  1.0251
    1SOL    MW4 2076   0.424   0.899   1.226  0.0332  0.2745 -0.0223
    1SOL     OW 2077   0.437   1.181   1.118  0.3251 -0.0303 -0.3029
    1SOL    HW2 2078   0.517   1.224   1.148  0.7764 -1.8426  1.1990
    1SOL    HW3 2079   0.464   1.134   1.039  0.3205  0.7358 -0.7678
    1SOL    MW4 2080   0.451   1.180   1.112  0.3840 -0.1683 -0.1661
    1SOL     OW 2081   0.667   1.303   1.214  0.0115  0.5712  0.0177
    1SOL    HW2 2082   0.749   1.258   1.192  0.2688  1.3794 -0.6832
    1SOL    HW3 2083   0.682   1.394   1.189 -1.1222  0.7143 -0.1510
    1SOL    MW4 2084   0.680   1.309   1.208 -0.1041  0.6968 -0.0970
    1SOL     OW 2085   0.718   1.572   1.122 -0.0384  0.1808 -1.0554
    1SOL    HW2 2086   0.785   1.624   1.166 -0.0526 -0.7970  0.1251
    1SOL    HW3 2087   0.635   1.603   1.160 -0.0269 -0.9036 -0.1221
    1SOL    MW4 2088   0.716   1.583   1.133 -0.0388 -0.0913 -0.7766
    1SOL     OW 2089   0.485   1.676   1.255 -0.3305 -0.0976  0.1729
    1SOL    HW2 2090   0.486   1.686   1.350 -0.6755 -0.0780  0.1726
    1SOL    HW3 2091   0.410   1.620   1.237 -0.0888 -0.3483 -0.0641
    1SOL    MW4 2092   0.475   1.670   1.265 -0.3441 -0.1279  0.1416
    1SOL     OW 2093   0.471   1.932   1.139  0.5591  0.2255 -0.1202
    1SOL    HW2 2094   0.474   1.841   1.167  0.4785 -0.1248 -1.2262
    1SOL    HW3 2095   0.385   1.963   1.168  0.8696  0.1638  0.8784
    1SOL    MW4 2096   0.460   1.924   1.147  0.5894  0.1711 -0.1345
    1SOL     OW 2097   0.661   2.123   1.240  0.3815  0.3240  0.3004
    1SOL    HW2 2098   0.675   2.118   1.335 -0.0076  0.8070  0.3816
    1SOL    HW3 2099   0.602   2.050   1.221  1.6935 -0.7344  0.1931
    1SOL    MW4 2100   0.655   2.112   1.250  0.5032  0.2482  0.2970
    1SOL     OW 2101   0.677   2.362   1.114 -0.2515 -0.2199 -0.0407
    1SOL    HW2 2102   0.596   2.399   1.149 -0.0432 -0.9314  1.2388
    1SOL    HW3 2103   0.671   2.269   1.135  0.5835 -0.3995 -0.5826
    1SOL    MW4 2104   0.665   2.354   1.121 -0.1138 -0.3374  0.0566
    1SOL     OW 2105   0.455   2.479   1.213  0.2536  0.3206  0.4246
    1SOL    HW2 2106   0.446   2.492   1.307  0.6629  0.6252  0.4279
    1SOL    HW3 2107   0.473   2.567   1.179  0.3224  0.1782  0.0938
    1SOL    MW4 2108   0.456   2.492   1.221  0.3167  0.3424  0.3815
    1SOL     OW 2109   0.462   2.746   1.149  0.2393 -0.0775  0.2393
    1SOL    HW2 2110   0.376   2.770   1.184  0.4426  0.2783  0.5037
    1SOL    HW3 2111   0.458   2.771   1.057 -0.2969 -1.0123  0.0026
    1SOL    MW4 2112   0.450   2.753   1.141  0.1954 -0.1535  0.2429
    1SOL     OW 2113   0.691   2.857   1.234  0.0963 -0.2183 -0.1848
    1SOL    HW2 2114   0.683   2.854   1.329  0.7376 -2.0809 -0.1848
    1SOL    HW3 2115   0.604   2.834   1.203 -0.1116  0.3822 -0.0721
    1SOL    MW4 2116   0.678   2.854   1.243  0.1535 -0.3848 -0.1700
    1SOL     OW 2117   0.659   3.122   1.172 -0.3808  0.0950  0.6047
    1SOL    HW2 2118   0.741   3.167   1.191  0.3672 -0.4387 -1.2895
    1SOL    HW3 2119   0.667   3.037   1.214  0.2663 -0.1648 -0.0452
    1SOL    MW4 2120   0.671   3.117   1.180 -0.1968 -0.0095  0.2689
    1SOL     OW 2121   0.424   3.254   1.252  0.2781 -0.0829  0.0758
    1SOL    HW2 2122   0.435   3.347   1.234 -0.6473  0.2366  1.0738
    1SOL    HW3 2123   0.503   3.213   1.217  0.4502  1.0054 -0.8537
    1SOL    MW4 2124   0.436   3.261   1.245  0.1787  0.1030  0.0848
    1SOL     OW 2125   0.487   3.504   1.119 -0.2259 -0.0736  0.3351
    1SOL    HW2 2126   0.563   3.560   1.137 -0.4464  0.6662 -1.0402
    1SOL    HW3 2127   0.412   3.556   1.148 -0.1796 -1.1346  2.4782
    1SOL    MW4 2128   0.487   3.518   1.125 -0.2489 -0.1159  0.4364
    1SOL     OW 2129   0.708   3.630   1.185  0.3156  0.6741  0.1978
    1SOL    HW2 2130   0.677   3.632   1.276  2.2076  1.0164  0.8701
    1SOL    HW3 2131   0.693   3.718   1.152 -0.9604  0.3757 -0.0393
    1SOL    MW4 2132   0.702   3.642   1.193  0.3970  0.6800  0.2552
    1SOL     OW 2133   0.673   3.894   1.117  0.1286  0.6126 -0.3339
    1SOL    HW2 2134   0.591   3.933   1.145 -0.0598  1.1253 -1.5594
    1SOL    HW3 2135   0.664   3.884   1.022  1.2316  0.0820 -0.3965
    1SOL    MW4 2136   0.661   3.898   1.108  0.2493  0.6101 -0.5038
    1SOL     OW 2137   0.441   4.030   1.198  0.1348 -0.0894  0.4877
    1SOL    HW2 2138   0.426   4.120   1.169 -0.4996 -0.2175  0.4123
    1SOL    HW3 2139   0.370   3.979   1.157  0.3691 -0.5888  0.6929
    1SOL    MW4 2140   0.430   4.035   1.189  0.0820 -0.1726  0.5049
    1SOL     OW 2141   0.418   4.283   1.087  0.1036 -0.3292  0.4737
    1SOL    HW2 2142   0.494   4.338   1.107 -0.6613  1.6939 -1.9318
    1SOL    HW3 2143   0.349   4.315   1.146 -0.0050  0.4938 -0.1018
    1SOL    MW4 2144   0.419   4.294   1.098 -0.0116  0.0463  0.0805
    1SOL     OW 2145   0.636   4.436   1.196  0.3931 -0.3446  0.1474
    1SOL    HW2 2146   0.633   4.426   1.292 -1.0821 -1.4037  0.0078
    1SOL    HW3 2147   0.713   4.385   1.169  0.2267 -0.8874  0.6804
    1SOL    MW4 2148   0.646   4.428   1.205  0.1765 -0.5560  0.1993
    1SOL     OW 2149   1.112   0.000   1.115 -0.0029 -0.3737  0.1913
    1SOL    HW2 2150   1.113  -0.091   1.145  1.1934 -0.4564 -0.0789
    1SOL    HW3 2151   1.096  -0.006   1.021  0.5691 -0.3373  0.0885
    1SOL    MW4 2152   1.110  -0.013   1.106  0.2304 -0.3798  0.1420
    1SOL     OW 2153   0.879   0.122   1.216  0.2158  0.0263 -0.4404
    1SOL    HW2 2154   0.903   0.110   1.308 -0.3286 -0.9002 -0.4248
    1SOL    HW3 2155   0.953   0.085   1.168 -0.4125 -1.2986 -0.3849
    1SOL    MW4 2156   0.892   0.116   1.222  0.0611 -0.2707 -0.4308
    1SOL     OW 2157   0.874   0.394   1.152  0.1771  0.3783  0.3233
    1SOL    HW2 2158   0.874   0.299   1.167 -0.4818 -0.1986 -2.8877
    1SOL    HW3 2159   0.797   0.425   1.200  0.1354 -0.7870  1.0361
    1SOL    MW4 2160   0.864   0.386   1.160  0.0847  0.1484 -0.0063
    1SOL     OW 2161   1.115   0.486   1.252  0.0203 -0.1838  0.1509
    1SOL    HW2 2162   1.101   0.500   1.345 -0.0956  1.2821 -0.0703
    1SOL    HW3 2163   1.028   0.464   1.218  0.0797 -0.8037  0.4033
    1SOL    MW4 2164   1.102   0.485   1.259  0.0128 -0.0722  0.1550
    1SOL     OW 2165   1.127   0.748   1.129  0.0070 -0.7977 -0.1576
    1SOL    HW2 2166   1.050   0.796   1.161 -2.0083 -2.9369 -1.7029
    1SOL    HW3 2167   1.131   0.670   1.184 -0.9716 -2.3892 -2.3039
    1SOL    MW4 2168   1.117   0.744   1.141 -0.3880 -1.2899 -0.6448
    1SOL     OW 2169   0.895   0.864   1.244 -0.1388  0.1794  0.1533
    1SOL    HW2 2170   0.877   0.957   1.230  0.7726  0.3606  0.1177
    1SOL    HW3 2171   0.811   0.821   1.233 -0.7428  1.1081  1.1077
    1SOL    MW4 2172   0.882   0.871   1.241 -0.0982  0.3257  0.2745
    1SOL     OW 2173   0.870   1.128   1.170 -0.3576  0.1129  0.2031
    1SOL    HW2 2174   0.950   1.179   1.180  0.3551 -1.0158  0.3067
    1SOL    HW3 2175   0.849   1.133   1.077  0.5019 -0.5847 -0.0312
    1SOL    MW4 2176   0.878   1.135   1.159 -0.1502 -0.1280  0.1860
    1SOL     OW 2177   1.109   1.272   1.230 -0.3406  0.0013 -0.1748
    1SOL    HW2 2178   1.119   1.296   1.322  1.8033 -0.0618 -0.3567
    1SOL    HW3 2179   1.190   1.226   1.209 -0.5916  0.4695 -2.2366
    1SOL    MW4 2180   1.121   1.269   1.240 -0.0908  0.0547 -0.4708
    1SOL     OW 2181   1.104   1.542   1.167 -0.3164 -0.6766 -0.7029
    1SOL    HW2 2182   1.118   1.450   1.187  0.0548 -0.3549  0.5537
    1SOL    HW3 2183   1.101   1.546   1.071  1.5715 -1.7178 -0.8130
    1SOL    MW4 2184   1.105   1.531   1.157 -0.0184 -0.7715 -0.5516
    1SOL     OW 2185   0.905   1.698   1.270 -0.0879  0.1241  0.3950
    1SOL    HW2 2186   0.902   1.784   1.229  0.7628  0.0352  0.1313
    1SOL    HW3 2187   0.990   1.662   1.245 -0.2144 -0.5781  0.9366
    1SOL    MW4 2188   0.916   1.704   1.262  0.0076  0.0199  0.4317
    1SOL     OW 2189   0.870   1.956   1.160  0.6428  0.2919 -0.0438
    1SOL    HW2 2190   0.944   2.014   1.178 -0.4567  1.2101  1.8184
    1SOL    HW3 2191   0.793   2.012   1.173 -0.3854 -0.5927 -2.0842
    1SOL    MW4 2192   0.869   1.971   1.164  0.3621  0.2962 -0.0672
    1SOL     OW 2193   1.116   2.089   1.210  0.4986  0.3315  0.2502
    1SOL    HW2 2194   1.121   2.102   1.305 -1.1190 -0.0264  0.3979
    1SOL    HW3 2195   1.100   2.177   1.174  0.0285  0.2990  0.3881
    1SOL    MW4 2196   1.115   2.102   1.218  0.2232  0.2801  0.2879
    1SOL     OW 2197   1.131   2.349   1.107  0.2293 -0.0097 -0.2939
    1SOL    HW2 2198   1.199   2.409   1.139 -0.0773  1.2566 -1.9254
    1SOL    HW3 2199   1.123   2.370   1.014  0.0264 -2.5410 -0.8896
    1SOL    MW4 2200   1.139   2.360   1.099  0.1620 -0.1764 -0.5878
    1SOL     OW 2201   0.902   2.452   1.245 -0.1845 -0.3493  0.1445
    1SOL    HW2 2202   0.969   2.401   1.199 -0.2607  0.9361 -1.4275
    1SOL    HW3 2203   0.819   2.415   1.215 -0.2142 -0.8880  0.8720
    1SOL    MW4 2204   0.900   2.440   1.235 -0.1985 -0.2508  0.0329
    1SOL     OW 2205   0.899   2.688   1.091  0.1350 -0.4580 -0.1523
    1SOL    HW2 2206   0.910   2.600   1.127 -1.2130 -0.5343  0.0754
    1SOL    HW3 2207   0.826   2.726   1.140  1.9358  1.5094  1.0917
    1SOL    MW4 2208   0.891   2.681   1.102  0.1947 -0.2086  0.0418
    1SOL     OW 2209   1.118   2.854   1.180  0.1204  0.0046 -0.3639
    1SOL    HW2 2210   1.119   2.854   1.275  1.2409 -2.6402 -0.3087
    1SOL    HW3 2211   1.049   2.792   1.157  0.8039 -0.4566 -1.2341
    1SOL    MW4 2212   1.109   2.845   1.189  0.3585 -0.4053 -0.4714
    1SOL     OW 2213   1.117   3.121   1.117 -0.1928  0.1051  0.1362
    1SOL    HW2 2214   1.104   3.032   1.151 -1.5705  0.1947 -0.1159
    1SOL    HW3 2215   1.097   3.114   1.024  0.2929  0.5600 -0.0033
    1SOL    MW4 2216   1.113   3.108   1.110 -0.3104  0.1771  0.0846
    1SOL     OW 2217   0.911   3.277   1.223 -0.1421 -0.5835 -0.5244
    1SOL    HW2 2218   0.906   3.359   1.172 -1.3409 -0.9670 -1.0479
    1SOL    HW3 2219   0.975   3.224   1.176 -1.2234 -0.9223 -1.6383
    1SOL    MW4 2220   0.919   3.281   1.210 -0.4430 -0.6788 -0.7404
    1SOL     OW 2221   0.941   3.519   1.072 -0.6816 -0.4176 -0.1635
    1SOL    HW2 2222   0.868   3.575   1.099  1.3443  1.9178  0.6754
    1SOL    HW3 2223   0.931   3.511   0.977 -0.8263  1.7048 -0.3539
    1SOL    MW4 2224   0.930   3.526   1.063 -0.4334  0.1705 -0.0781
    1SOL     OW 2225   1.141   3.659   1.202 -0.2115 -0.1942  0.3258
    1SOL    HW2 2226   1.221   3.615   1.174  0.0455 -0.3395  1.2683
    1SOL    HW3 2227   1.070   3.604   1.169  0.0804 -0.2510 -0.2122
    1SOL    MW4 2228   1.142   3.646   1.194 -0.1390 -0.2208  0.3792
    1SOL     OW 2229   1.064   3.889   1.079 -0.0726  0.0420 -0.1069
    1SOL    HW2 2230   1.001   3.931   1.138  0.3358 -1.2742  1.2983
    1SOL    HW3 2231   1.097   3.815   1.129  1.1501 -0.4180 -1.5806
    1SOL    MW4 2232   1.060   3.885   1.093  0.1426 -0.1922 -0.1160
    1SOL     OW 2233   0.875   4.041   1.223  0.1185  0.0293  0.4407
    1SOL    HW2 2234   0.887   4.031   1.318  0.0999  1.6453  0.6294
    1SOL    HW3 2235   0.804   3.981   1.202 -0.6220  0.4582  1.6464
    1SOL    MW4 2236   0.868   4.032   1.233  0.0184  0.2990  0.6247
    1SOL     OW 2237   0.867   4.286   1.110 -0.2074 -0.2841  0.1450
    1SOL    HW2 2238   0.868   4.195   1.141 -0.8391 -0.5640 -0.6530
    1SOL    HW3 2239   0.858   4.279   1.015  1.5652  0.5783 -0.1054
    1SOL    MW4 2240   0.866   4.273   1.102 -0.0569 -0.2074  0.0067
    1SOL     OW 2241   1.090   4.410   1.195 -0.2146  0.0278  0.1312
    1SOL    HW2 2242   1.097   4.404   1.290  0.3373 -1.4565  0.0057
    1SOL    HW3 2243   1.007   4.367   1.174 -0.9653  1.4864  0.0365
    1SOL    MW4 2244   1.080   4.404   1.205 -0.2409  0.0248  0.1023
    1SOL     OW 2245   1.535   4.637   1.096  0.1914 -0.2499 -0.0849
    1SOL    HW2 2246   1.609   4.670   1.147 -0.6665 -1.0133  1.7173
    1SOL    HW3 2247   1.536   4.542   1.112 -0.4238 -0.4325 -1.0746
    1SOL    MW4 2248   1.545   4.629   1.105 -0.0030 -0.3748  0.0224
    1SOL     OW 2249   1.336   0.103   1.236 -0.0441  0.4582 -0.2039
    1SOL    HW2 2250   1.404   0.080   1.173 -1.7762  0.2578 -2.0594
    1SOL    HW3 2251   1.255   0.066   1.199 -1.1596  0.6304  1.9691
    1SOL    MW4 2252   1.334   0.095   1.222 -0.4197  0.4545 -0.1620
    1SOL     OW 2253   1.308   0.355   1.126 -0.2114 -0.1598  0.2951
    1SOL    HW2 2254   1.321   0.274   1.175 -1.3189 -0.9822 -0.7567
    1SOL    HW3 2255   1.233   0.397   1.169 -1.6065 -1.2021 -1.0802
    1SOL    MW4 2256   1.300   0.350   1.138 -0.5417 -0.4058 -0.0252
    1SOL     OW 2257   1.544   0.467   1.213 -0.0931 -0.0561  0.2341
    1SOL    HW2 2258   1.555   0.556   1.181 -0.0441  0.2424  1.0703
    1SOL    HW3 2259   1.462   0.437   1.174  0.8968 -0.3729 -1.6787
    1SOL    MW4 2260   1.535   0.475   1.204  0.0439 -0.0585  0.0921
    1SOL     OW 2261   1.568   0.725   1.116 -0.1445  0.0641 -0.5428
    1SOL    HW2 2262   1.644   0.771   1.151 -0.5311  0.4122 -0.1554
    1SOL    HW3 2263   1.576   0.733   1.021  0.1284  0.3759 -0.4934
    1SOL    MW4 2264   1.579   0.732   1.108 -0.1595  0.1512 -0.4852
    1SOL     OW 2265   1.362   0.853   1.249  0.0091 -0.2581  0.1136
    1SOL    HW2 2266   1.429   0.810   1.196  0.2414 -0.5987  0.6859
    1SOL    HW3 2267   1.280   0.832   1.204  0.1715 -0.8645  0.0984
    1SOL    MW4 2268   1.360   0.845   1.236  0.0612 -0.3830  0.1872
    1SOL     OW 2269   1.329   1.122   1.155  0.0306  0.2865  0.6704
    1SOL    HW2 2270   1.345   1.038   1.198 -1.2195 -0.0654  0.4658
    1SOL    HW3 2271   1.403   1.177   1.181  0.0975 -0.4206  2.0057
    1SOL    MW4 2272   1.341   1.118   1.164 -0.1254  0.1469  0.8197
    1SOL     OW 2273   1.545   1.292   1.231 -0.6038  0.1189 -0.2803
    1SOL    HW2 2274   1.620   1.249   1.189 -0.4065  0.3347 -0.1505
    1SOL    HW3 2275   1.565   1.288   1.324 -0.5951  0.4694 -0.2660
    1SOL    MW4 2276   1.558   1.286   1.237 -0.5766  0.1936 -0.2612
    1SOL     OW 2277   1.573   1.541   1.125  0.1324  0.2254 -0.3566
    1SOL    HW2 2278   1.653   1.569   1.170  0.0489 -0.2355  0.0771
    1SOL    HW3 2279   1.556   1.454   1.159 -1.4630  0.9522  0.7508
    1SOL    MW4 2280   1.582   1.534   1.135 -0.0892  0.2605 -0.1533
    1SOL     OW 2281   1.344   1.682   1.227  0.2849 -0.5271 -0.1260
    1SOL    HW2 2282   1.417   1.626   1.199  0.1825 -1.8940  2.1902
    1SOL    HW3 2283   1.266   1.635   1.200  0.2260 -0.6736  0.2934
    1SOL    MW4 2284   1.344   1.669   1.220  0.2636 -0.7267  0.2348
    1SOL     OW 2285   1.342   1.949   1.126 -0.0653  0.5384  0.5042
    1SOL    HW2 2286   1.323   1.860   1.157 -0.6502 -0.0341 -1.4710
    1SOL    HW3 2287   1.275   2.003   1.168 -2.4744 -0.6113 -1.7509
    1SOL    MW4 2288   1.331   1.944   1.136 -0.4604  0.3111 -0.0540
    1SOL     OW 2289   1.586   2.072   1.192  0.3272  0.1949  0.0308
    1SOL    HW2 2290   1.584   2.160   1.156 -0.8192  0.6212  1.0989
    1SOL    HW3 2291   1.495   2.042   1.188  0.6653 -0.8438 -0.0985
    1SOL    MW4 2292   1.574   2.080   1.187  0.2205  0.1142  0.1547
    1SOL     OW 2293   1.628   2.331   1.051  0.3114  0.2848  0.2166
    1SOL    HW2 2294   1.565   2.389   1.094  0.3053 -0.5702  1.3953
    1SOL    HW3 2295   1.599   2.328   0.960 -1.1576  0.1732  0.6715
    1SOL    MW4 2296   1.616   2.338   1.045  0.1167  0.1571  0.4323
    1SOL     OW 2297   1.411   2.489   1.167  0.5590  0.0471 -0.2936
    1SOL    HW2 2298   1.410   2.504   1.262  1.5617  0.9810 -0.4169
    1SOL    HW3 2299   1.390   2.575   1.129 -0.9641 -0.5872 -0.9011
    1SOL    MW4 2300   1.408   2.503   1.175  0.4903  0.0865 -0.3901
    1SOL     OW 2301   1.358   2.756   1.089  0.5450  0.0547 -0.0864
    1SOL    HW2 2302   1.437   2.792   1.131  0.9953 -2.1107  1.0093
    1SOL    HW3 2303   1.286   2.800   1.134  1.0881  1.5670 -0.6353
    1SOL    MW4 2304   1.359   2.767   1.101  0.6759 -0.0315 -0.0142
    1SOL     OW 2305   1.590   2.855   1.202 -0.3668  0.5431 -0.2983
    1SOL    HW2 2306   1.667   2.813   1.163 -0.0213  0.7201  0.2018
    1SOL    HW3 2307   1.585   2.940   1.160 -1.5054 -0.2728 -1.8778
    1SOL    MW4 2308   1.600   2.860   1.191 -0.4715  0.4590 -0.4406
    1SOL     OW 2309   1.571   3.104   1.067  0.1326  0.6688  0.5031
    1SOL    HW2 2310   1.643   3.141   1.119 -0.1209  1.0360  0.6001
    1SOL    HW3 2311   1.493   3.150   1.100 -0.4366 -1.2014  1.8616
    1SOL    MW4 2312   1.570   3.115   1.078  0.0240  0.4704  0.6951
    1SOL     OW 2313   1.367   3.256   1.197  0.1867 -0.5038 -0.0801
    1SOL    HW2 2314   1.357   3.244   1.291  0.8407 -1.6091 -0.1365
    1SOL    HW3 2315   1.288   3.217   1.159 -0.9770  1.6132  0.0891
    1SOL    MW4 2316   1.355   3.249   1.204  0.1194 -0.3705 -0.0653
    1SOL     OW 2317   1.351   3.509   1.129 -0.0049 -0.2768  0.0350
    1SOL    HW2 2318   1.361   3.419   1.159  0.0011 -0.1061  0.5392
    1SOL    HW3 2319   1.328   3.500   1.036 -1.3913 -0.8276  0.4279
    1SOL    MW4 2320   1.349   3.496   1.120 -0.1868 -0.3266  0.1534
    1SOL     OW 2321   1.604   3.625   1.214 -0.1079  0.4154 -0.6390
    1SOL    HW2 2322   1.590   3.717   1.189 -0.1532  0.8092  0.7705
    1SOL    HW3 2323   1.520   3.583   1.196  0.1762  0.4493 -2.1052
    1SOL    MW4 2324   1.591   3.632   1.208 -0.0763  0.4716 -0.6464
    1SOL     OW 2325   1.545   3.897   1.136 -0.1174 -0.0870 -0.5346
    1SOL    HW2 2326   1.453   3.922   1.146 -0.0843  0.1186 -0.7398
    1SOL    HW3 2327   1.559   3.893   1.042  0.4467  1.2726 -0.5313
    1SOL    MW4 2328   1.534   3.900   1.125 -0.0384  0.1194 -0.5612
    1SOL     OW 2329   1.299   4.000   1.201 -0.0392  0.0416  0.6155
    1SOL    HW2 2330   1.314   4.094   1.190  0.3459 -0.0406  0.4276
    1SOL    HW3 2331   1.214   3.985   1.161  0.2647  0.1726 -0.0871
    1SOL    MW4 2332   1.290   4.011   1.194  0.0517  0.0477  0.4979
    1SOL     OW 2333   1.326   4.264   1.102  0.0785  0.2190 -0.2836
    1SOL    HW2 2334   1.251   4.317   1.131 -0.5815  0.3409 -2.1096
    1SOL    HW3 2335   1.314   4.257   1.007  2.0267 -0.3490 -0.4994
    1SOL    MW4 2336   1.314   4.270   1.093  0.2483  0.1602 -0.5530
    1SOL     OW 2337   1.558   4.378   1.202 -0.0129  0.1685 -0.1166
    1SOL    HW2 2338   1.558   4.377   1.297 -0.0829  0.0236 -0.1186
    1SOL    HW3 2339   1.475   4.338   1.177 -0.2630  0.7544 -0.2307
    1SOL    MW4 2340   1.547   4.373   1.211 -0.0552  0.2270 -0.1321
    1SOL     OW 2341   2.003   4.623   1.123  0.0685  0.0726  0.0268
    1SOL    HW2 2342   1.988   4.528   1.130  1.5956 -0.2167 -0.4014
    1SOL    HW3 2343   2.001   4.641   1.029  2.1224  0.0484 -0.0331
    1SOL    MW4 2344   2.001   4.613   1.112  0.5410  0.0310 -0.0377
    1SOL     OW 2345   1.771   0.088   1.230  0.2413 -0.2612  0.3091
    1SOL    HW2 2346   1.779   0.166   1.175 -0.1918 -1.6471 -1.7989
    1SOL    HW3 2347   1.849   0.036   1.210 -0.8114 -1.6147 -0.3910
    1SOL    MW4 2348   1.782   0.091   1.220  0.0452 -0.6226 -0.0614
    1SOL     OW 2349   1.759   0.328   1.112 -0.3239  0.0454  0.1710
    1SOL    HW2 2350   1.670   0.356   1.133 -0.3656  0.3196 -0.3652
    1SOL    HW3 2351   1.765   0.339   1.017  0.5377  0.7522  0.3099
    1SOL    MW4 2352   1.748   0.333   1.102 -0.2158  0.1749  0.1184
    1SOL     OW 2353   1.979   0.747   1.096 -0.6800  0.6855 -0.3995
    1SOL    HW2 2354   2.066   0.771   1.126 -0.3771 -0.6828 -0.1844
    1SOL    HW3 2355   1.964   0.659   1.131 -1.1238 -0.1327 -2.5532
    1SOL    MW4 2356   1.988   0.739   1.105 -0.6986  0.3970 -0.6553
    1SOL     OW 2357   2.019   0.737   0.833  0.0213  0.3790 -0.0288
    1SOL    HW2 2358   2.111   0.762   0.823  0.4228 -1.2563 -0.6033
    1SOL    HW3 2359   2.005   0.736   0.927  0.5834  0.6593  0.0627
    1SOL    MW4 2360   2.029   0.740   0.844  0.1485  0.2002 -0.0925
    1SOL     OW 2361   1.771   0.881   1.204  0.6130  0.9241  0.2176
    1SOL    HW2 2362   1.778   0.849   1.294 -0.1641 -0.3534 -0.1691
    1SOL    HW3 2363   1.850   0.850   1.161 -0.2496 -0.7224 -0.2197
    1SOL    MW4 2364   1.782   0.873   1.211  0.3966  0.5383  0.1088
    1SOL     OW 2365   1.749   1.156   1.132 -0.1547 -0.4993 -0.0801
    1SOL    HW2 2366   1.749   1.063   1.152 -0.5939 -0.6046 -0.5440
    1SOL    HW3 2367   1.747   1.160   1.036  1.8707 -0.0024 -0.1140
    1SOL    MW4 2368   1.748   1.144   1.122  0.0546 -0.4476 -0.1459
    1SOL     OW 2369   1.983   1.280   1.225 -0.3373  0.3974 -0.2104
    1SOL    HW2 2370   2.046   1.221   1.186 -0.2797 -0.6065  1.3397
    1SOL    HW3 2371   1.898   1.237   1.211 -0.4518  0.7009 -0.4399
    1SOL    MW4 2372   1.980   1.266   1.218 -0.3448  0.3051 -0.0362
    1SOL     OW 2373   2.018   1.521   1.120 -0.0749  0.2027 -0.2371
    1SOL    HW2 2374   2.010   1.432   1.153 -2.7040  0.7267  0.6783
    1SOL    HW3 2375   1.987   1.515   1.029  0.8807 -0.0196 -0.5546
    1SOL    MW4 2376   2.013   1.508   1.112 -0.2959  0.2425 -0.1582
    1SOL     OW 2377   1.809   1.646   1.239  0.1761 -0.3265  0.1775
    1SOL    HW2 2378   1.809   1.730   1.194 -0.3174 -0.2963  0.2331
    1SOL    HW3 2379   1.885   1.600   1.203  0.2577  0.0133 -0.0893
    1SOL    MW4 2380   1.819   1.651   1.229  0.1218 -0.2775  0.1496
    1SOL     OW 2381   1.802   1.927   1.118  0.8270  0.5902 -0.4164
    1SOL    HW2 2382   1.729   1.982   1.146  0.6061  0.5900 -0.9848
    1SOL    HW3 2383   1.793   1.922   1.023  1.7512  0.8500 -0.5236
    1SOL    MW4 2384   1.791   1.934   1.109  0.9197  0.6244 -0.5056
    1SOL     OW 2385   2.028   2.062   1.211  0.0683  0.6264  0.2974
    1SOL    HW2 2386   2.003   2.069   1.303 -0.2710  1.3460  0.1614
    1SOL    HW3 2387   1.954   2.016   1.170  0.5975 -0.4382  0.5289
    1SOL    MW4 2388   2.015   2.057   1.217  0.0935  0.5808  0.3101
    1SOL     OW 2389   2.048   2.293   1.058 -0.5621 -0.2504  0.2901
    1SOL    HW2 2390   2.128   2.328   1.098 -1.2408 -0.0159  1.4605
    1SOL    HW3 2391   2.031   2.212   1.105 -0.3645 -0.9144 -0.7669
    1SOL    MW4 2392   2.056   2.287   1.070 -0.6256 -0.3071  0.3049
    1SOL     OW 2393   1.845   2.435   1.166  0.1788  0.0155 -0.0524
    1SOL    HW2 2394   1.919   2.392   1.124  0.7145 -0.5471  1.4305
    1SOL    HW3 2395   1.768   2.401   1.121  0.7824  0.0424 -1.1101
    1SOL    MW4 2396   1.845   2.425   1.155  0.3290 -0.0556  0.0036
    1SOL     OW 2397   1.828   2.704   1.090 -0.0323  0.2711 -0.5671
    1SOL    HW2 2398   1.833   2.610   1.110 -0.1750  0.3631 -0.0899
    1SOL    HW3 2399   1.823   2.707   0.994 -0.6429 -0.2439 -0.5609
    1SOL    MW4 2400   1.828   2.692   1.080 -0.1317  0.2153 -0.5033
    1SOL     OW 2401   2.050   2.835   1.178  0.3585 -0.1140  0.4104
    1SOL    HW2 2402   2.051   2.923   1.141  2.2762 -0.3834 -0.2626
    1SOL    HW3 2403   1.974   2.793   1.138  0.5997  0.6033 -0.8276
    1SOL    MW4 2404   2.040   2.841   1.168  0.6430 -0.0551  0.1583
    1SOL     OW 2405   2.051   3.105   1.097  0.0045 -0.3935 -0.1075
    1SOL    HW2 2406   1.967   3.142   1.123  0.2724 -0.9792  1.6473
    1SOL    HW3 2407   2.040   3.084   1.004 -1.1218  1.3191 -0.3878
    1SOL    MW4 2408   2.038   3.107   1.088 -0.1085 -0.2449  0.0871
    1SOL     OW 2409   1.804   3.204   1.167  0.0216  0.3542 -0.1670
    1SOL    HW2 2410   1.807   3.224   1.261 -0.0352  1.5761 -0.4152
    1SOL    HW3 2411   1.789   3.289   1.125 -0.4905 -0.2669 -1.2523
    1SOL    MW4 2412   1.802   3.218   1.174 -0.0534  0.4334 -0.3430
    1SOL     OW 2413   1.816   3.476   1.087  0.2297 -0.4566  0.0599
    1SOL    HW2 2414   1.891   3.532   1.106  0.4688 -0.8869  0.3804
    1SOL    HW3 2415   1.740   3.528   1.115  0.5765 -1.0771  2.2409
    1SOL    MW4 2416   1.816   3.490   1.093  0.3071 -0.5951  0.3899
    1SOL     OW 2417   2.038   3.632   1.160  0.0180 -0.0698  0.0833
    1SOL    HW2 2418   2.033   3.630   1.256  1.7484  1.7159  0.2462
    1SOL    HW3 2419   2.117   3.581   1.139 -1.0928 -1.5729 -0.4802
    1SOL    MW4 2420   2.048   3.625   1.170  0.0997 -0.0324  0.0304
    1SOL     OW 2421   2.032   3.902   1.102 -0.3170  0.2041 -0.6211
    1SOL    HW2 2422   1.950   3.932   1.142  0.4292  0.7183  0.5220
    1SOL    HW3 2423   2.038   3.810   1.127 -0.2642  0.3106 -0.2418
    1SOL    MW4 2424   2.022   3.894   1.110 -0.2117  0.2859 -0.4203
    1SOL     OW 2425   1.805   3.972   1.234 -0.1811  0.0834  0.0331
    1SOL    HW2 2426   1.808   3.976   1.329  0.1490  0.5155  0.0062
    1SOL    HW3 2427   1.713   3.957   1.212 -0.7192  2.8834  0.2952
    1SOL    MW4 2428   1.794   3.971   1.243 -0.2085  0.5102  0.0640
    1SOL     OW 2429   1.784   4.224   1.104 -0.1848  0.0550  0.3773
    1SOL    HW2 2430   1.795   4.138   1.145  2.0920  0.8997  1.6581
    1SOL    HW3 2431   1.706   4.261   1.146 -1.4368 -1.5396 -0.5033
    1SOL    MW4 2432   1.775   4.218   1.115 -0.0496 -0.0439  0.4300
    1SOL     OW 2433   1.995   4.367   1.188 -0.2705 -0.3810  0.1010
    1SOL    HW2 2434   1.991   4.365   1.284 -1.4370 -0.3850  0.0544
    1SOL    HW3 2435   1.910   4.333   1.159  0.2777 -0.9008 -0.9442
    1SOL    MW4 2436   1.983   4.362   1.197 -0.3521 -0.4501 -0.0432
    1SOL     OW 2437   2.459   0.045   1.072 -0.3278 -0.1341  0.0629
    1SOL    HW2 2438   2.542   0.068   1.114 -0.0082 -1.4844  0.2078
    1SOL    HW3 2439   2.392   0.090   1.123  0.1609 -0.6975  1.2087
    1SOL    MW4 2440   2.461   0.054   1.084 -0.2208 -0.3866  0.2333
    1SOL     OW 2441   2.225   0.126   1.217  0.1774 -0.1673 -0.4236
    1SOL    HW2 2442   2.215   0.217   1.189 -0.8337 -0.0624  0.2428
    1SOL    HW3 2443   2.155   0.079   1.171  0.2343 -0.4806 -0.1947
    1SOL    MW4 2444   2.214   0.131   1.207  0.0513 -0.1948 -0.3054
    1SOL     OW 2445   1.959   0.503   1.217 -0.4284  0.2090 -0.1639
    1SOL    HW2 2446   1.945   0.503   1.312  0.2991  0.8682 -0.0413
    1SOL    HW3 2447   1.888   0.450   1.182 -0.9873  0.3578  0.7130
    1SOL    MW4 2448   1.948   0.496   1.225 -0.4060  0.3156 -0.0321
    1SOL     OW 2449   2.441   0.471   1.209  0.2715  0.4775  0.0295
    1SOL    HW2 2450   2.443   0.484   1.303  0.1934 -0.4833  0.1670
    1SOL    HW3 2451   2.348   0.456   1.188  0.2498  0.9610 -0.2411
    1SOL    MW4 2452   2.429   0.471   1.218  0.2584  0.4145  0.0119
    1SOL     OW 2453   2.509   0.727   1.151 -0.0750 -0.3762 -0.3578
    1SOL    HW2 2454   2.483   0.636   1.169  2.2318 -0.9494  0.3326
    1SOL    HW3 2455   2.533   0.727   1.059 -0.9164 -0.2446 -0.5802
    1SOL    MW4 2456   2.509   0.715   1.142  0.1183 -0.4345 -0.2961
    1SOL     OW 2457   2.249   0.845   1.181  0.6656  0.3093 -0.3071
    1SOL    HW2 2458   2.250   0.846   1.276 -0.6272 -1.0214 -0.2571
    1SOL    HW3 2459   2.336   0.813   1.156  0.7686 -0.0030  0.4520
    1SOL    MW4 2460   2.260   0.841   1.190  0.5088  0.0924 -0.2003
    1SOL     OW 2461   2.220   1.114   1.145  0.1119 -0.2837  0.0218
    1SOL    HW2 2462   2.304   1.153   1.169 -0.0871 -0.5319  1.1458
    1SOL    HW3 2463   2.232   1.020   1.161 -0.3764 -0.3194  0.1832
    1SOL    MW4 2464   2.232   1.107   1.150  0.0212 -0.3213  0.1916
    1SOL     OW 2465   2.460   1.217   1.196  0.1153  0.2929 -0.1845
    1SOL    HW2 2466   2.550   1.191   1.177  0.0597 -0.3027  0.3630
    1SOL    HW3 2467   2.454   1.307   1.164  0.4737 -0.1672 -1.5565
    1SOL    MW4 2468   2.471   1.226   1.189  0.1552  0.1537 -0.2933
    1SOL     OW 2469   2.439   1.486   1.123  0.3517 -0.2095 -0.1092
    1SOL    HW2 2470   2.376   1.533   1.178  0.9545 -0.2696  0.6484
    1SOL    HW3 2471   2.416   1.510   1.034 -1.0968 -0.6682  0.1331
    1SOL    MW4 2472   2.428   1.495   1.119  0.2403 -0.2780  0.0226
    1SOL     OW 2473   2.235   1.664   1.246 -0.1801  0.1883 -0.0003
    1SOL    HW2 2474   2.252   1.741   1.193 -1.0327 -0.6921 -1.6028
    1SOL    HW3 2475   2.160   1.621   1.203 -0.1772 -1.1350  1.2641
    1SOL    MW4 2476   2.227   1.668   1.233 -0.2923 -0.1025 -0.0451
    1SOL     OW 2477   2.232   1.893   1.109  0.7606 -0.2545  0.2678
    1SOL    HW2 2478   2.169   1.960   1.138 -0.9117 -2.0700  0.9239
    1SOL    HW3 2479   2.226   1.895   1.014 -1.0441 -1.0709  0.3364
    1SOL    MW4 2480   2.223   1.902   1.100  0.3018 -0.6018  0.3635
    1SOL     OW 2481   2.492   2.027   1.204 -0.0136  0.0842 -0.2685
    1SOL    HW2 2482   2.558   1.990   1.146  0.2553 -0.7607  0.5664
    1SOL    HW3 2483   2.411   1.982   1.180 -0.2493  0.9617 -1.1420
    1SOL    MW4 2484   2.490   2.016   1.194 -0.0093  0.0882 -0.2736
    1SOL     OW 2485   2.507   2.274   1.134  0.1210 -0.0938 -0.6785
    1SOL    HW2 2486   2.507   2.183   1.163  0.2798  0.2352  0.3725
    1SOL    HW3 2487   2.516   2.269   1.039  0.2262 -1.1703 -0.6159
    1SOL    MW4 2488   2.508   2.261   1.125  0.1559 -0.1926 -0.5317
    1SOL     OW 2489   2.257   2.414   1.174  0.2841  0.2146 -0.5163
    1SOL    HW2 2490   2.261   2.427   1.269 -0.7039  0.2977 -0.4826
    1SOL    HW3 2491   2.336   2.363   1.154 -0.1174 -0.8302  0.5170
    1SOL    MW4 2492   2.268   2.409   1.184  0.1006  0.0873 -0.3757
    1SOL     OW 2493   2.261   2.681   1.078 -0.0213 -0.0273 -0.0809
    1SOL    HW2 2494   2.249   2.587   1.085  0.1121 -0.0439 -0.0905
    1SOL    HW3 2495   2.185   2.718   1.123 -0.6910 -0.1418 -1.0951
    1SOL    MW4 2496   2.249   2.674   1.085 -0.0920 -0.0446 -0.2159
    1SOL     OW 2497   2.470   2.796   1.197 -0.5460  0.3358 -0.0834
    1SOL    HW2 2498   2.470   2.801   1.292 -0.4741  1.1560 -0.1193
    1SOL    HW3 2499   2.386   2.755   1.175 -0.1854 -0.6572  0.3613
    1SOL    MW4 2500   2.459   2.792   1.206 -0.4890  0.3128 -0.0294
    1SOL     OW 2501   2.500   3.049   1.073 -0.1613 -0.0078 -0.2920
    1SOL    HW2 2502   2.421   3.095   1.102 -0.0463 -0.1758  0.2995
    1SOL    HW3 2503   2.494   2.962   1.114 -0.3124 -0.4849 -1.2944
    1SOL    MW4 2504   2.488   3.043   1.082 -0.1657 -0.0932 -0.3462
    1SOL     OW 2505   2.306   3.223   1.168 -0.3414 -0.0600 -0.4367
    1SOL    HW2 2506   2.291   3.310   1.129 -1.4742  0.0659  0.2408
    1SOL    HW3 2507   2.226   3.174   1.147  0.5110 -1.1070 -1.2511
    1SOL    MW4 2508   2.293   3.228   1.160 -0.3786 -0.1817 -0.4547
    1SOL     OW 2509   2.258   3.464   1.043 -0.7697  0.3234 -0.6004
    1SOL    HW2 2510   2.342   3.504   1.065 -0.6893  0.7046 -1.5655
    1SOL    HW3 2511   2.262   3.451   0.948 -1.3737 -0.6504 -0.4968
    1SOL    MW4 2512   2.269   3.467   1.033 -0.8385  0.2451 -0.7139
    1SOL     OW 2513   2.452   3.601   1.189 -0.0517  0.0496  0.1212
    1SOL    HW2 2514   2.441   3.621   1.282  0.9506 -0.3573  0.3324
    1SOL    HW3 2515   2.462   3.687   1.147 -0.6968  0.2439  0.3517
    1SOL    MW4 2516   2.452   3.615   1.195 -0.0045  0.0215  0.1794
    1SOL     OW 2517   2.463   3.851   1.072  0.0784 -0.0240  0.3502
    1SOL    HW2 2518   2.381   3.897   1.091 -0.2222 -0.2904 -0.2925
    1SOL    HW3 2519   2.471   3.854   0.977  1.9446  1.9496  0.5294
    1SOL    MW4 2520   2.453   3.857   1.062  0.2847  0.2012  0.2890
    1SOL     OW 2521   2.269   4.035   1.170 -0.3394  0.4307 -0.0015
    1SOL    HW2 2522   2.262   4.129   1.156 -1.8042  0.2102 -0.8020
    1SOL    HW3 2523   2.184   4.000   1.144  0.7607 -1.3201 -1.4038
    1SOL    MW4 2524   2.257   4.043   1.165 -0.3874  0.1707 -0.2921
    1SOL     OW 2525   2.250   4.313   1.117  0.2952  0.1317  0.2214
    1SOL    HW2 2526   2.161   4.343   1.135  0.4534  1.1774 -0.6596
    1SOL    HW3 2527   2.247   4.280   1.027  0.5982 -0.6463  0.4899
    1SOL    MW4 2528   2.238   4.313   1.108  0.3557  0.1674  0.1407
    1SOL     OW 2529   2.490   4.438   1.176 -0.0521  0.8148  0.4036
    1SOL    HW2 2530   2.406   4.395   1.160  1.1465 -0.4587 -2.8197
    1SOL    HW3 2531   2.473   4.531   1.162 -0.7292  0.4638 -1.2128
    1SOL    MW4 2532   2.476   4.444   1.172  0.0169  0.6008 -0.2350
    1SOL     OW 2533   2.910   4.651   1.100 -0.0079 -0.2019  0.3212
    1SOL    HW2 2534   2.903   4.556   1.114 -1.7178 -0.1602 -0.1414
    1SOL    HW3 2535   2.907   4.662   1.005 -0.6892  0.3701  0.4026
    1SOL    MW4 2536   2.909   4.640   1.089 -0.3233 -0.1206  0.2710
    1SOL     OW 2537   2.693   0.114   1.195 -0.2769 -0.0934  0.4567
    1SOL    HW2 2538   2.684   0.082   1.285 -1.5541 -0.3698  0.2336
    1SOL    HW3 2539   2.771   0.070   1.162  0.5659  0.4879  1.6312
    1SOL    MW4 2540   2.702   0.104   1.203 -0.3343 -0.0532  0.5822
    1SOL     OW 2541   2.682   0.395   1.138  0.3944  0.1955 -0.2821
    1SOL    HW2 2542   2.679   0.301   1.159  2.0598  0.0625 -0.5795
    1SOL    HW3 2543   2.596   0.428   1.164 -0.0107 -1.3129  0.3448
    1SOL    MW4 2544   2.671   0.387   1.144  0.5605 -0.0211 -0.2387
    1SOL     OW 2545   2.928   0.499   1.198  0.1450 -0.3405 -0.2473
    1SOL    HW2 2546   2.922   0.586   1.159  0.1280 -0.7648 -1.1960
    1SOL    HW3 2547   2.844   0.458   1.178  1.3534 -1.7482 -2.6269
    1SOL    MW4 2548   2.916   0.505   1.190  0.3023 -0.5822 -0.6864
    1SOL     OW 2549   2.871   0.778   1.093 -0.0411 -1.1530  0.6092
    1SOL    HW2 2550   2.954   0.810   1.126 -0.8396  0.1050  1.4520
    1SOL    HW3 2551   2.807   0.806   1.159 -1.2488 -1.2853 -0.4915
    1SOL    MW4 2552   2.873   0.786   1.106 -0.3057 -1.0045  0.5751
    1SOL     OW 2553   2.688   0.888   1.276  0.5335 -0.0930  0.0709
    1SOL    HW2 2554   2.679   0.971   1.231  0.4924 -0.2964 -0.2992
    1SOL    HW3 2555   2.628   0.829   1.231  2.2092 -0.9259 -1.1343
    1SOL    MW4 2556   2.679   0.891   1.264  0.7491 -0.2297 -0.1371
    1SOL     OW 2557   2.727   1.119   1.126  0.2981  0.0962 -0.3641
    1SOL    HW2 2558   2.720   1.118   1.031  1.2478 -1.2006 -0.4400
    1SOL    HW3 2559   2.799   1.178   1.145  0.4682 -0.0710 -0.4846
    1SOL    MW4 2560   2.735   1.126   1.116  0.4456 -0.0970 -0.3899
    1SOL     OW 2561   2.932   1.300   1.156 -0.0440  0.1346  0.3770
    1SOL    HW2 2562   2.925   1.293   1.251  0.3970  1.1104  0.4863
    1SOL    HW3 2563   2.923   1.394   1.138  0.2208 -0.0076 -0.5097
    1SOL    MW4 2564   2.930   1.312   1.166  0.0491  0.2446  0.2743
    1SOL     OW 2565   2.905   1.566   1.137  0.1029  0.4862 -0.0171
    1SOL    HW2 2566   2.991   1.596   1.164  0.1453  0.2227  0.1406
    1SOL    HW3 2567   2.905   1.575   1.041 -0.8715  3.6189  0.2067
    1SOL    MW4 2568   2.916   1.571   1.128 -0.0200  0.8649  0.0333
    1SOL     OW 2569   2.653   1.678   1.181 -0.2031 -0.0372 -0.2377
    1SOL    HW2 2570   2.730   1.622   1.181 -0.2214 -0.2030  3.2576
    1SOL    HW3 2571   2.580   1.619   1.164  0.2949 -0.1083 -2.1806
    1SOL    MW4 2572   2.653   1.663   1.179 -0.1402 -0.0683 -0.0330
    1SOL     OW 2573   2.695   1.937   1.057  0.0998 -0.2766  0.3779
    1SOL    HW2 2574   2.767   1.980   1.102  1.2117  0.6495 -2.1894
    1SOL    HW3 2575   2.699   1.846   1.086  1.9231 -0.0956  0.7250
    1SOL    MW4 2576   2.705   1.931   1.067  0.4869 -0.1305  0.0851
    1SOL     OW 2577   2.904   2.081   1.159 -0.2664 -0.0104 -0.1419
    1SOL    HW2 2578   2.886   2.098   1.251 -1.2784 -0.5989 -0.2283
    1SOL    HW3 2579   2.924   2.167   1.122 -0.2508  0.2744  0.5346
    1SOL    MW4 2580   2.904   2.095   1.166 -0.3979 -0.0505 -0.0640
    1SOL     OW 2581   2.930   2.347   1.061 -0.0265 -0.2314  0.0868
    1SOL    HW2 2582   3.018   2.364   1.095 -0.1977  0.7673  0.0327
    1SOL    HW3 2583   2.871   2.383   1.127 -0.3597  2.0212 -1.4081
    1SOL    MW4 2584   2.934   2.354   1.075 -0.0930  0.1974 -0.1178
    1SOL     OW 2585   2.719   2.441   1.212 -0.3128 -0.0635 -0.0814
    1SOL    HW2 2586   2.715   2.437   1.307  0.7606  0.2196 -0.0113
    1SOL    HW3 2587   2.641   2.394   1.182 -0.6679 -0.1298  0.9316
    1SOL    MW4 2588   2.708   2.434   1.221 -0.2179 -0.0346  0.0615
    1SOL     OW 2589   2.719   2.709   1.105 -0.3735  0.1030  0.3902
    1SOL    HW2 2590   2.730   2.617   1.132 -1.1679 -0.2973 -0.5996
    1SOL    HW3 2591   2.628   2.729   1.128 -0.5164  0.3062 -0.3341
    1SOL    MW4 2592   2.708   2.699   1.112 -0.4969  0.0772  0.1638
    1SOL     OW 2593   2.925   2.818   1.250 -0.4238  0.0803 -0.4799
    1SOL    HW2 2594   2.908   2.839   1.342 -0.2914  0.8734 -0.6285
    1SOL    HW3 2595   2.843   2.780   1.219  0.1276 -1.9428  0.4454
    1SOL    MW4 2596   2.912   2.816   1.258 -0.3335 -0.0820 -0.3774
    1SOL     OW 2597   2.906   3.090   1.159 -0.2590 -0.1625 -0.0292
    1SOL    HW2 2598   2.915   2.997   1.179  2.2282  0.1118  0.3565
    1SOL    HW3 2599   2.903   3.093   1.063  0.8415 -0.5955 -0.0949
    1SOL    MW4 2600   2.907   3.078   1.149  0.2143 -0.1833  0.0131
    1SOL     OW 2601   2.666   3.226   1.207  0.0245 -0.4032  0.3565
    1SOL    HW2 2602   2.732   3.159   1.193  1.5518  1.7727 -3.7727
    1SOL    HW3 2603   2.587   3.191   1.168 -0.3422 -1.4623  1.9804
    1SOL    MW4 2604   2.664   3.213   1.200  0.1774 -0.2561  0.0259
    1SOL     OW 2605   2.687   3.470   1.071  0.1377  0.0038 -0.2753
    1SOL    HW2 2606   2.685   3.383   1.110 -0.4461 -0.3000 -0.9862
    1SOL    HW3 2607   2.612   3.516   1.110 -0.9335 -0.5627 -1.6380
    1SOL    MW4 2608   2.677   3.465   1.081 -0.0806 -0.1111 -0.5488
    1SOL     OW 2609   2.916   3.595   1.180 -0.2442  0.7452 -0.1223
    1SOL    HW2 2610   2.995   3.544   1.159 -0.9641 -0.7598  0.7041
    1SOL    HW3 2611   2.844   3.538   1.153 -1.0879  0.6837  2.1693
    1SOL    MW4 2612   2.917   3.581   1.174 -0.4501  0.5383  0.2892
    1SOL     OW 2613   2.872   3.874   1.129 -0.2647  0.2356  0.2705
    1SOL    HW2 2614   2.948   3.918   1.166  0.5664  0.5001 -1.6773
    1SOL    HW3 2615   2.885   3.781   1.148  1.4483  0.0783 -1.5674
    1SOL    MW4 2616   2.883   3.868   1.136  0.0710  0.2496 -0.2291
    1SOL     OW 2617   2.644   4.011   1.210 -0.2141  0.4054 -0.6521
    1SOL    HW2 2618   2.728   3.965   1.203 -0.3684  0.0856 -0.3984
    1SOL    HW3 2619   2.582   3.955   1.162 -0.4540  0.2244 -0.1271
    1SOL    MW4 2620   2.647   3.997   1.203 -0.2663  0.3393 -0.5494
    1SOL     OW 2621   2.668   4.252   1.073 -0.5653 -0.6776  0.0363
    1SOL    HW2 2622   2.648   4.167   1.113 -0.7823 -0.4552  0.3972
    1SOL    HW3 2623   2.600   4.310   1.105 -0.3703 -0.3470 -0.1504
    1SOL    MW4 2624   2.657   4.248   1.082 -0.5682 -0.6051  0.0594
    1SOL     OW 2625   2.887   4.370   1.210 -0.0496  0.5699  1.0332
    1SOL    HW2 2626   2.966   4.328   1.176  0.0059  0.6569  1.0540
    1SOL    HW3 2627   2.814   4.322   1.170 -0.0055 -0.4121  2.0854
    1SOL    MW4 2628   2.888   4.358   1.201 -0.0365  0.4516  1.1748
    1SOL     OW 2629   3.354   0.017   1.086  0.5055  0.2322 -0.2265
    1SOL    HW2 2630   3.426   0.063   1.129  0.6751  0.4793 -0.7737
    1SOL    HW3 2631   3.278   0.035   1.141  0.5599  1.2143 -0.4743
    1SOL    MW4 2632   3.354   0.025   1.099  0.5352  0.3948 -0.3313
    1SOL     OW 2633   3.128   0.118   1.227 -0.1973  0.4035  0.1053
    1SOL    HW2 2634   3.135   0.119   1.322 -0.6313  0.4482  0.1362
    1SOL    HW3 2635   3.050   0.066   1.209  1.0200 -1.3305 -0.2841
    1SOL    MW4 2636   3.119   0.111   1.237 -0.0942  0.1806  0.0579
    1SOL     OW 2637   3.184   0.369   1.128  0.3957  0.0059  0.4999
    1SOL    HW2 2638   3.161   0.280   1.152 -1.3344  0.2840 -0.0902
    1SOL    HW3 2639   3.121   0.424   1.175  0.6257  0.8564 -0.1712
    1SOL    MW4 2640   3.173   0.365   1.138  0.1979  0.1548  0.3334
    1SOL     OW 2641   3.399   0.525   1.239  0.1199 -0.3105  0.0113
    1SOL    HW2 2642   3.371   0.604   1.193 -0.6225 -0.5639  0.0177
    1SOL    HW3 2643   3.342   0.456   1.203  0.6302 -0.7994  0.1467
    1SOL    MW4 2644   3.388   0.526   1.228  0.0892 -0.4084  0.0300
    1SOL     OW 2645   3.358   0.761   1.104 -0.6603  0.0334  0.6375
    1SOL    HW2 2646   3.345   0.755   1.009 -0.9608 -2.8560  0.8093
    1SOL    HW3 2647   3.277   0.798   1.138 -0.6035  0.9490 -0.2260
    1SOL    MW4 2648   3.346   0.765   1.096 -0.6924 -0.2270  0.5463
    1SOL     OW 2649   3.111   0.882   1.186 -0.6844 -0.3871  0.1976
    1SOL    HW2 2650   3.102   0.896   1.281  0.9224 -0.4240  0.3810
    1SOL    HW3 2651   3.123   0.970   1.150 -1.3116 -0.3724  0.0324
    1SOL    MW4 2652   3.111   0.895   1.194 -0.5550 -0.3901  0.1999
    1SOL     OW 2653   3.147   1.143   1.095 -0.2429  0.3125 -0.1404
    1SOL    HW2 2654   3.220   1.203   1.113  0.5236 -0.3502 -0.9628
    1SOL    HW3 2655   3.069   1.193   1.116  0.4030  1.4879 -0.5061
    1SOL    MW4 2656   3.147   1.157   1.100 -0.0565  0.3802 -0.2972
    1SOL     OW 2657   3.349   1.310   1.186 -0.3515 -0.3652  0.2180
    1SOL    HW2 2658   3.354   1.317   1.282  1.9974  1.3471 -0.0006
    1SOL    HW3 2659   3.345   1.401   1.156 -1.2867 -0.9102 -1.3148
    1SOL    MW4 2660   3.349   1.323   1.195 -0.1650 -0.2111 -0.0130
    1SOL     OW 2661   3.345   1.566   1.037 -0.1588 -0.1062 -0.4433
    1SOL    HW2 2662   3.418   1.606   1.084 -0.4274 -0.4131  0.2252
    1SOL    HW3 2663   3.266   1.601   1.079 -0.4222  0.8703 -1.6885
    1SOL    MW4 2664   3.344   1.576   1.048 -0.2289 -0.0179 -0.5193
    1SOL     OW 2665   3.146   1.653   1.211 -0.3154  0.0658 -0.1515
    1SOL    HW2 2666   3.131   1.662   1.305  0.4796 -0.4853  0.0388
    1SOL    HW3 2667   3.158   1.743   1.180  1.4906  0.1253  0.6480
    1SOL    MW4 2668   3.146   1.666   1.219  0.0277  0.0010 -0.0209
    1SOL     OW 2669   3.162   1.905   1.126 -0.0075  0.0659  0.6293
    1SOL    HW2 2670   3.232   1.962   1.159  0.0251  1.2479 -1.4248
    1SOL    HW3 2671   3.081   1.950   1.152 -0.0116 -0.4686  1.5715
    1SOL    MW4 2672   3.160   1.919   1.134 -0.0038  0.1513  0.4827
    1SOL     OW 2673   3.380   2.044   1.250 -0.5952  0.0112 -0.2751
    1SOL    HW2 2674   3.446   1.999   1.197 -3.6247 -1.8112 -2.6425
    1SOL    HW3 2675   3.380   2.133   1.217  0.9463  0.1473  0.0382
    1SOL    MW4 2676   3.389   2.050   1.239 -0.7915 -0.2110 -0.5461
    1SOL     OW 2677   3.361   2.308   1.130 -0.1804 -0.2239  0.3071
    1SOL    HW2 2678   3.437   2.361   1.156 -0.0522 -0.1517 -0.2093
    1SOL    HW3 2679   3.287   2.349   1.174 -0.0944  0.4416 -0.1561
    1SOL    MW4 2680   3.361   2.320   1.139 -0.1521 -0.1264  0.1779
    1SOL     OW 2681   3.138   2.430   1.227 -0.9582 -0.4126 -0.6718
    1SOL    HW2 2682   3.144   2.429   1.322 -0.1525 -0.5943 -0.7152
    1SOL    HW3 2683   3.147   2.522   1.203 -0.0813 -0.4850 -0.6286
    1SOL    MW4 2684   3.140   2.442   1.236 -0.7362 -0.4461 -0.6717
    1SOL     OW 2685   3.170   2.692   1.162 -0.0020 -0.2133  0.1642
    1SOL    HW2 2686   3.094   2.738   1.198  0.0080  0.0473 -0.1456
    1SOL    HW3 2687   3.181   2.729   1.074  0.7697  0.0792  0.3838
    1SOL    MW4 2688   3.161   2.703   1.155  0.1011 -0.1404  0.1523
    1SOL     OW 2689   3.392   2.855   1.217  0.0098 -0.5762  0.3257
    1SOL    HW2 2690   3.381   2.941   1.176 -0.0521  0.3878  2.3092
    1SOL    HW3 2691   3.312   2.808   1.196 -0.0897 -0.0406 -0.5283
    1SOL    MW4 2692   3.380   2.860   1.209 -0.0114 -0.3784  0.4748
    1SOL     OW 2693   3.365   3.126   1.123  0.6221  0.1592 -0.1240
    1SOL    HW2 2694   3.449   3.167   1.141  0.3708  0.9797 -0.8069
    1SOL    HW3 2695   3.304   3.169   1.183  0.0121  2.0746 -2.0468
    1SOL    MW4 2696   3.368   3.137   1.133  0.5083  0.5200 -0.4679
    1SOL     OW 2697   3.141   3.230   1.258  0.6095 -0.3187  0.1418
    1SOL    HW2 2698   3.127   3.226   1.353 -1.1435  0.8846 -0.0460
    1SOL    HW3 2699   3.068   3.180   1.221 -0.5674  1.9136 -0.6715
    1SOL    MW4 2700   3.130   3.223   1.266  0.2227  0.1347  0.0098
    1SOL     OW 2701   3.158   3.486   1.118 -0.0853 -0.1424  0.1847
    1SOL    HW2 2702   3.230   3.546   1.138 -1.6279  1.1478  2.0863
    1SOL    HW3 2703   3.185   3.403   1.157  1.5038 -0.3823 -1.3659
    1SOL    MW4 2704   3.171   3.483   1.126 -0.0792 -0.0038  0.2309
    1SOL     OW 2705   3.395   3.634   1.216 -0.0667  0.0904  0.3565
    1SOL    HW2 2706   3.387   3.620   1.310 -0.2366 -1.9980  0.0579
    1SOL    HW3 2707   3.481   3.598   1.194  0.5535  1.7792 -0.0957
    1SOL    MW4 2708   3.406   3.627   1.225 -0.0072  0.0377  0.2576
    1SOL     OW 2709   3.350   3.900   1.110 -0.2060  0.0966 -0.4309
    1SOL    HW2 2710   3.353   3.819   1.160  1.1406  0.8912  0.8051
    1SOL    HW3 2711   3.269   3.943   1.139  0.1342  0.1594  0.4384
    1SOL    MW4 2712   3.340   3.895   1.120  0.0165  0.2096 -0.1532
    1SOL     OW 2713   3.096   4.008   1.238 -0.0436 -0.1927 -0.4363
    1SOL    HW2 2714   3.119   4.004   1.331  0.2678 -1.4264 -0.5572
    1SOL    HW3 2715   3.098   4.102   1.217 -1.1212  0.1677  1.0375
    1SOL    MW4 2716   3.100   4.020   1.248 -0.1445 -0.3080 -0.2577
    1SOL     OW 2717   3.142   4.271   1.121  0.6270 -0.1897  0.4697
    1SOL    HW2 2718   3.218   4.328   1.134  1.4515 -1.1759  0.0704
    1SOL    HW3 2719   3.130   4.267   1.027 -0.6743  0.9210  0.5818
    1SOL    MW4 2720   3.151   4.278   1.111  0.5641 -0.1731  0.4318
    1SOL     OW 2721   3.364   4.429   1.187  0.2718  0.5841 -0.0197
    1SOL    HW2 2722   3.442   4.388   1.151 -0.8495  0.3021 -2.1728
    1SOL    HW3 2723   3.367   4.519   1.154 -0.3663  0.5395 -0.2031
    1SOL    MW4 2724   3.375   4.435   1.178  0.0396  0.5407 -0.3281
    1SOL     OW 2725   3.823   0.010   1.085 -0.4634  0.0696 -0.2405
    1SOL    HW2 2726   3.824  -0.069   1.139  0.3005  0.2964  0.0875
    1SOL    HW3 2727   3.806  -0.022   0.996 -0.2426 -0.4569 -0.0974
    1SOL    MW4 2728   3.821  -0.005   1.080 -0.3335  0.0300 -0.1783
    1SOL     OW 2729   3.582   0.112   1.203  0.0206  0.0584  0.1384
    1SOL    HW2 2730   3.589   0.204   1.178 -1.2467  0.1524  0.1240
    1SOL    HW3 2731   3.662   0.072   1.169  0.8727  1.2777  0.6802
    1SOL    MW4 2732   3.593   0.118   1.195 -0.0343  0.2316  0.2079
    1SOL     OW 2733   3.621   0.387   1.168 -0.1204 -0.3536  0.0599
    1SOL    HW2 2734   3.701   0.434   1.193  0.8565 -1.0147 -1.7030
    1SOL    HW3 2735   3.550   0.443   1.200  1.0351  1.3802 -0.2997
    1SOL    MW4 2736   3.622   0.401   1.175  0.1607 -0.2120 -0.2202
    1SOL     OW 2737   3.848   0.536   1.232 -0.0113  0.2193 -0.2986
    1SOL    HW2 2738   3.927   0.494   1.199 -0.3560 -0.2434 -0.5256
    1SOL    HW3 2739   3.856   0.627   1.203 -0.6596 -0.3414 -2.2816
    1SOL    MW4 2740   3.859   0.543   1.224 -0.1423  0.0842 -0.5902
    1SOL     OW 2741   3.820   0.787   1.137  0.5097 -0.1340  0.0280
    1SOL    HW2 2742   3.891   0.844   1.166  1.0500 -0.7338 -0.1003
    1SOL    HW3 2743   3.740   0.830   1.168  0.9589  0.2762  0.6262
    1SOL    MW4 2744   3.819   0.800   1.145  0.6404 -0.1591  0.0900
    1SOL     OW 2745   3.587   0.910   1.198 -0.2272 -0.5262 -0.0785
    1SOL    HW2 2746   3.571   1.001   1.173  0.4068 -0.2945  0.3475
    1SOL    HW3 2747   3.512   0.863   1.164 -1.1974  0.3529  0.7743
    1SOL    MW4 2748   3.575   0.916   1.190 -0.2718 -0.3796  0.0904
    1SOL     OW 2749   3.586   1.184   1.135  0.0650  0.7068 -0.2442
    1SOL    HW2 2750   3.660   1.238   1.161  0.3624  0.4005 -0.4590
    1SOL    HW3 2751   3.509   1.239   1.154  0.3282  0.9047  0.2552
    1SOL    MW4 2752   3.585   1.199   1.141  0.1388  0.6925 -0.2068
    1SOL     OW 2753   3.789   1.324   1.226  0.1797 -0.0052  0.4644
    1SOL    HW2 2754   3.774   1.335   1.320 -2.9025  0.0266  0.0323
    1SOL    HW3 2755   3.777   1.412   1.190 -3.1786 -0.7597 -0.4433
    1SOL    MW4 2756   3.785   1.337   1.234 -0.6700 -0.1006  0.2875
    1SOL     OW 2757   3.797   1.562   1.101 -0.2343 -0.3265 -0.6464
    1SOL    HW2 2758   3.864   1.619   1.139 -0.0347 -1.2805  0.4496
    1SOL    HW3 2759   3.819   1.558   1.008  0.9819 -0.2940 -0.3705
    1SOL    MW4 2760   3.809   1.569   1.093 -0.0474 -0.4482 -0.4653
    1SOL     OW 2761   3.551   1.671   1.185  0.1526  0.5987 -0.0933
    1SOL    HW2 2762   3.574   1.763   1.173 -0.7738  0.9094  0.4273
    1SOL    HW3 2763   3.630   1.623   1.160  1.6368  1.6602  2.3197
    1SOL    MW4 2764   3.565   1.677   1.180  0.2263  0.7797  0.2937
    1SOL     OW 2765   3.585   1.926   1.118 -0.8527  0.7521  0.4700
    1SOL    HW2 2766   3.652   1.982   1.157  0.4979 -0.8829  0.5862
    1SOL    HW3 2767   3.600   1.933   1.023 -0.1460  0.0013  0.5107
    1SOL    MW4 2768   3.596   1.934   1.110 -0.5815  0.4374  0.4907
    1SOL     OW 2769   4.042   1.962   1.044  0.3885 -0.3123 -0.0253
    1SOL    HW2 2770   3.966   2.015   1.068 -0.3326 -1.0864 -0.5575
    1SOL    HW3 2771   4.038   1.887   1.104  0.9087 -0.1857  0.1608
    1SOL    MW4 2772   4.031   1.959   1.055  0.3619 -0.3977 -0.0709
    1SOL     OW 2773   3.809   2.048   1.201 -0.1935  0.4824  0.1137
    1SOL    HW2 2774   3.817   2.142   1.185 -0.2739  0.3251 -0.8986
    1SOL    HW3 2775   3.821   2.038   1.295 -0.2138  1.5107  0.2262
    1SOL    MW4 2776   3.811   2.059   1.211 -0.2072  0.5972 -0.0050
    1SOL     OW 2777   3.579   2.417   1.225 -0.0675 -0.3572 -0.0190
    1SOL    HW2 2778   3.568   2.426   1.319 -0.2174 -1.3588  0.0665
    1SOL    HW3 2779   3.665   2.378   1.214  0.2874  0.4965 -0.3438
    1SOL    MW4 2780   3.589   2.413   1.236 -0.0403 -0.3767 -0.0505
    1SOL     OW 2781   3.612   2.700   1.145  0.2707  0.4833 -0.3265
    1SOL    HW2 2782   3.602   2.607   1.163 -1.7245  0.5711 -0.8294
    1SOL    HW3 2783   3.530   2.739   1.175  0.9831  2.0400 -0.3547
    1SOL    MW4 2784   3.600   2.693   1.151  0.1013  0.7002 -0.3965
    1SOL     OW 2785   3.832   2.829   1.248 -0.2169  0.1107 -0.2339
    1SOL    HW2 2786   3.836   2.812   1.342 -2.1418  0.6788 -0.0171
    1SOL    HW3 2787   3.755   2.780   1.218  1.0213 -0.9615 -1.7284
    1SOL    MW4 2788   3.822   2.820   1.257 -0.3076  0.0441 -0.4025
    1SOL     OW 2789   3.803   3.087   1.151 -0.3091 -0.1958  0.3827
    1SOL    HW2 2790   3.809   2.996   1.180  1.2076 -0.4092 -0.5302
    1SOL    HW3 2791   3.820   3.084   1.057 -0.1535  1.0317  0.3543
    1SOL    MW4 2792   3.806   3.075   1.143 -0.0885 -0.0622  0.2584
    1SOL     OW 2793   3.583   3.228   1.268 -0.1434 -0.0665 -0.0689
    1SOL    HW2 2794   3.605   3.315   1.234 -2.8369  0.0907 -1.5777
    1SOL    HW3 2795   3.658   3.173   1.243  1.1161  1.5829 -0.0100
    1SOL    MW4 2796   3.596   3.232   1.260 -0.3326  0.1721 -0.2601
    1SOL     OW 2797   3.629   3.489   1.148 -0.1509 -0.0598 -0.0295
    1SOL    HW2 2798   3.695   3.554   1.172  1.1022 -0.7470 -1.5536
    1SOL    HW3 2799   3.637   3.480   1.053 -2.9994  0.4420 -0.3564
    1SOL    MW4 2800   3.638   3.496   1.139 -0.3614 -0.0844 -0.2737
    1SOL     OW 2801   3.852   3.647   1.257 -0.0023 -0.0813 -0.2729
    1SOL    HW2 2802   3.839   3.641   1.352 -0.7873  0.4427 -0.3338
    1SOL    HW3 2803   3.801   3.724   1.231 -0.1086 -0.4474 -1.1755
    1SOL    MW4 2804   3.843   3.656   1.266 -0.1197 -0.0606 -0.4001
    1SOL     OW 2805   3.754   3.870   1.117  0.8168 -0.0393  0.0875
    1SOL    HW2 2806   3.700   3.945   1.145  0.9451  0.0973 -0.0262
    1SOL    HW3 2807   3.739   3.866   1.022  0.8792 -0.1026  0.0811
    1SOL    MW4 2808   3.745   3.880   1.108  0.8419 -0.0296  0.0716
    1SOL     OW 2809   3.561   4.060   1.206  0.0436  0.0027  0.0484
    1SOL    HW2 2810   3.570   4.032   1.297  2.2342 -0.2571 -0.2164
    1SOL    HW3 2811   3.489   4.006   1.172  1.8924 -2.8742  0.5054
    1SOL    MW4 2812   3.552   4.049   1.214  0.5767 -0.4106  0.0739
    1SOL     OW 2813   3.592   4.297   1.096  0.2017 -0.1682  0.3841
    1SOL    HW2 2814   3.585   4.212   1.139  2.7759 -0.3817  0.4458
    1SOL    HW3 2815   3.580   4.278   1.003  0.5925 -0.5798  0.4163
    1SOL    MW4 2816   3.590   4.284   1.090  0.5927 -0.2508  0.3965
    1SOL     OW 2817   3.833   4.420   1.190  0.0565 -0.1503  0.4257
    1SOL    HW2 2818   3.815   4.428   1.284 -1.4666  1.6348  0.0042
    1SOL    HW3 2819   3.754   4.379   1.154 -0.6948  2.0608 -0.5233
    1SOL    MW4 2820   3.820   4.416   1.198 -0.2437  0.3772  0.2449
    1SOL     OW 2821   4.265   4.656   1.145  0.6305  0.0620 -0.2038
    1SOL    HW2 2822   4.263   4.566   1.178  0.9950  0.3813  0.7164
    1SOL    HW3 2823   4.180   4.692   1.169  0.3739 -0.1258 -0.8323
    1SOL    MW4 2824   4.254   4.649   1.153  0.6452  0.0796 -0.1653
    1SOL     OW 2825   4.038   0.125   1.208  0.1183  0.0399  0.1920
    1SOL    HW2 2826   4.020   0.144   1.300  0.5865 -1.0658  0.5256
    1SOL    HW3 2827   3.960   0.080   1.176  0.0452  0.2227  0.1129
    1SOL    MW4 2828   4.026   0.121   1.216  0.1702 -0.0819  0.2257
    1SOL     OW 2829   4.063   0.391   1.144  1.1883 -0.2231 -0.0791
    1SOL    HW2 2830   4.053   0.300   1.175 -0.3522  0.1324  0.5121
    1SOL    HW3 2831   4.068   0.383   1.049  0.3303 -0.8806 -0.0795
    1SOL    MW4 2832   4.062   0.378   1.136  0.8721 -0.2629 -0.0013
    1SOL     OW 2833   4.302   0.537   1.231 -0.0956 -0.2901  0.4434
    1SOL    HW2 2834   4.290   0.524   1.325  3.0020 -1.9110  0.6847
    1SOL    HW3 2835   4.224   0.497   1.192 -0.8962 -0.5719  2.2567
    1SOL    MW4 2836   4.290   0.530   1.238  0.2074 -0.5412  0.7144
    1SOL     OW 2837   4.257   0.792   1.151 -0.0648  0.1942  0.2522
    1SOL    HW2 2838   4.279   0.707   1.189  0.9808 -0.3188 -1.4326
    1SOL    HW3 2839   4.337   0.844   1.159 -0.2910  0.5798  0.0675
    1SOL    MW4 2840   4.270   0.788   1.157  0.0439  0.1774  0.0055
    1SOL     OW 2841   4.025   0.935   1.233 -0.0585 -0.0864  0.2831
    1SOL    HW2 2842   4.006   0.921   1.325  0.6247  1.0729  0.6160
    1SOL    HW3 2843   4.103   0.882   1.216  1.0579  1.3007  0.9157
    1SOL    MW4 2844   4.033   0.927   1.243  0.1793  0.2496  0.4106
    1SOL     OW 2845   4.013   1.195   1.121 -0.2987 -0.0710 -0.3217
    1SOL    HW2 2846   4.015   1.102   1.145 -0.6299  0.0509  0.1691
    1SOL    HW3 2847   3.927   1.226   1.151  0.7179  0.9621  1.6160
    1SOL    MW4 2848   4.002   1.187   1.128 -0.2079  0.0814 -0.0013
    1SOL     OW 2849   4.246   1.310   1.206  0.1473 -0.2455  0.6027
    1SOL    HW2 2850   4.251   1.305   1.302 -0.6717  1.7859  0.7795
    1SOL    HW3 2851   4.168   1.260   1.184  0.5409 -1.0204  0.9690
    1SOL    MW4 2852   4.236   1.303   1.216  0.0916 -0.0798  0.6742
    1SOL     OW 2853   4.252   1.574   1.133  0.3966 -0.3462 -0.2819
    1SOL    HW2 2854   4.235   1.483   1.157 -2.3994  0.4181  0.8165
    1SOL    HW3 2855   4.331   1.598   1.183 -0.5248 -1.2938  1.6821
    1SOL    MW4 2856   4.261   1.565   1.143 -0.0935 -0.3703  0.1221
    1SOL     OW 2857   4.022   1.712   1.175  0.4917  0.6087 -0.7075
    1SOL    HW2 2858   4.040   1.708   1.269 -0.7319 -0.2408 -0.5008
    1SOL    HW3 2859   4.098   1.671   1.134  0.5043 -0.0581 -0.0217
    1SOL    MW4 2860   4.035   1.707   1.182  0.3319  0.4086 -0.5897
    1SOL     OW 2861   3.375   2.227   0.506 -0.4380 -0.5077  0.4557
    1SOL    HW2 2862   3.340   2.316   0.507  2.5185  0.7225  1.6857
    1SOL    HW3 2863   3.431   2.225   0.429  0.8443 -0.7298  1.3832
    1SOL    MW4 2864   3.378   2.238   0.496  0.1211 -0.3748  0.7403
    1SOL     OW 2865   4.252   2.079   1.210 -0.0249  0.6189  0.0046
    1SOL    HW2 2866   4.252   2.173   1.188 -0.4167  0.5866 -0.1382
    1SOL    HW3 2867   4.197   2.039   1.143  0.7999  0.1715 -0.4134
    1SOL    MW4 2868   4.245   2.087   1.198  0.0319  0.5555 -0.0694
    1SOL     OW 2869   4.264   2.349   1.122 -0.0144  0.0177  0.3040
    1SOL    HW2 2870   4.190   2.407   1.137 -0.2520 -0.3196  0.4440
    1SOL    HW3 2871   4.266   2.336   1.027 -1.8064 -2.1320  0.5052
    1SOL    MW4 2872   4.255   2.355   1.111 -0.2823 -0.3107  0.3490
    1SOL     OW 2873   4.034   2.487   1.207 -0.0802  0.2389 -0.1423
    1SOL    HW2 2874   4.051   2.512   1.298 -2.0100 -0.3499  0.4069
    1SOL    HW3 2875   4.005   2.568   1.165  0.6370  0.4734 -0.1846
    1SOL    MW4 2876   4.032   2.501   1.214 -0.2403  0.1922 -0.0753
    1SOL     OW 2877   4.050   2.757   1.085  0.1670  0.5522  0.0683
    1SOL    HW2 2878   3.969   2.788   1.125  0.2086  1.3759 -0.4882
    1SOL    HW3 2879   4.038   2.770   0.991 -0.1144 -1.8474 -0.2540
    1SOL    MW4 2880   4.038   2.763   1.078  0.1359  0.3443 -0.0476
    1SOL     OW 2881   4.258   2.853   1.241 -0.3842 -0.2903 -0.1361
    1SOL    HW2 2882   4.247   2.945   1.214 -2.5165 -0.6761 -0.6766
    1SOL    HW3 2883   4.184   2.808   1.202  0.7911 -2.3136 -0.0618
    1SOL    MW4 2884   4.247   2.859   1.232 -0.5107 -0.6082 -0.1976
    1SOL     OW 2885   4.249   3.107   1.159  0.0079  0.0798 -0.1520
    1SOL    HW2 2886   4.169   3.157   1.174 -1.1002 -1.2120 -1.5209
    1SOL    HW3 2887   4.258   3.106   1.064  0.2831 -1.8658 -0.1186
    1SOL    MW4 2888   4.240   3.114   1.148 -0.1020 -0.3474 -0.3282
    1SOL     OW 2889   4.023   3.235   1.236  0.0039  0.0254 -0.2991
    1SOL    HW2 2890   4.029   3.217   1.330  0.1683 -0.1886 -0.3482
    1SOL    HW3 2891   3.943   3.189   1.208  0.3453 -0.5161 -0.3970
    1SOL    MW4 2892   4.013   3.226   1.245  0.0701 -0.0744 -0.3185
    1SOL     OW 2893   4.045   3.498   1.133  0.0288  0.0905  0.2133
    1SOL    HW2 2894   4.051   3.415   1.181 -0.8882 -0.1681 -0.1070
    1SOL    HW3 2895   3.970   3.543   1.171 -1.0626 -0.3606 -1.3281
    1SOL    MW4 2896   4.036   3.493   1.144 -0.2365 -0.0031 -0.0324
    1SOL     OW 2897   4.252   3.646   1.234 -0.1990  0.2434 -0.4754
    1SOL    HW2 2898   4.177   3.599   1.196  0.4067 -0.3744 -0.9083
    1SOL    HW3 2899   4.328   3.594   1.209  0.4727  1.4135 -0.8870
    1SOL    MW4 2900   4.252   3.633   1.226 -0.0300  0.3161 -0.5867
    1SOL     OW 2901   4.257   3.863   1.095 -0.3324  0.4693  0.4632
    1SOL    HW2 2902   4.180   3.911   1.126 -0.4989  0.0714  0.6829
    1SOL    HW3 2903   4.262   3.787   1.153 -1.3809 -0.9558 -1.2356
    1SOL    MW4 2904   4.247   3.859   1.107 -0.4930  0.2286  0.2680
    1SOL     OW 2905   4.027   3.978   1.201  0.1654 -0.0332 -0.1496
    1SOL    HW2 2906   4.033   4.072   1.185  0.0900  0.1658  0.9634
    1SOL    HW3 2907   3.942   3.953   1.165  1.0902 -0.0913 -2.4121
    1SOL    MW4 2908   4.017   3.987   1.194  0.2775 -0.0143 -0.3014
    1SOL     OW 2909   4.041   4.252   1.138 -0.0200 -0.2907  0.1187
    1SOL    HW2 2910   3.972   4.314   1.157  1.3632  1.0829  0.7476
    1SOL    HW3 2911   4.049   4.253   1.043 -0.7788 -0.3829  0.0500
    1SOL    MW4 2912   4.033   4.260   1.128  0.0625 -0.1216  0.1925
    1SOL     OW 2913   4.263   4.383   1.249 -0.2239 -0.3442 -0.2636
    1SOL    HW2 2914   4.183   4.349   1.210 -0.0163 -1.2476  0.1074
    1SOL    HW3 2915   4.334   4.338   1.203  0.0486 -0.4000  0.2024
    1SOL    MW4 2916   4.262   4.373   1.238 -0.1607 -0.4706 -0.1531
    1SOL     OW 2917   0.215   4.638   1.618 -1.0234  0.0549 -0.1106
    1SOL    HW2 2918   0.300   4.667   1.584 -0.8930  0.7564  0.7791
    1SOL    HW3 2919   0.151   4.691   1.570 -0.9580 -0.5606 -0.8668
    1SOL    MW4 2920   0.218   4.649   1.608 -0.9975  0.0663 -0.0931
    1SOL     OW 2921   0.000   0.101   1.490 -0.2487  0.2782  0.0221
    1SOL    HW2 2922  -0.093   0.089   1.507 -0.1256  0.7846  1.0990
    1SOL    HW3 2923   0.008   0.096   1.395 -1.0550 -1.9829  0.0447
    1SOL    MW4 2924  -0.011   0.099   1.480 -0.3388  0.0467  0.1671
    1SOL     OW 2925   4.488   0.363   1.597  0.2247  0.5451  0.0161
    1SOL    HW2 2926   4.480   0.361   1.692  2.1793  1.9913  0.2363
    1SOL    HW3 2927   4.504   0.272   1.572  0.4113  0.2702  1.1267
    1SOL    MW4 2928   4.489   0.350   1.606  0.5074  0.6996  0.1916
    1SOL     OW 2929   0.216   0.541   1.475 -0.0812 -0.4894  0.2374
    1SOL    HW2 2930   0.148   0.480   1.503 -0.1688 -0.4673  0.0772
    1SOL    HW3 2931   0.222   0.529   1.380  2.1069 -2.4744  0.5999
    1SOL    MW4 2932   0.207   0.532   1.466  0.1959 -0.7484  0.2640
    1SOL     OW 2933   0.179   0.784   1.612 -0.1642  0.0971 -0.1407
    1SOL    HW2 2934   0.196   0.700   1.571  1.3814  0.2028  0.2593
    1SOL    HW3 2935   0.256   0.837   1.592  0.1629  0.4747  1.9988
    1SOL    MW4 2936   0.191   0.780   1.604  0.0829  0.1608  0.1943
    1SOL     OW 2937   4.461   0.920   1.507 -0.3580  0.1012  0.3780
    1SOL    HW2 2938   4.468   1.006   1.548 -0.1678 -0.2136  1.0167
    1SOL    HW3 2939   4.520   0.864   1.558 -0.4962 -0.4123 -0.0173
    1SOL    MW4 2940   4.470   0.924   1.519 -0.3510 -0.0081  0.4102
    1SOL     OW 2941   4.441   1.203   1.572  0.5520 -0.5017 -0.0690
    1SOL    HW2 2942   4.443   1.212   1.667 -0.4782 -0.0906 -0.0840
    1SOL    HW3 2943   4.525   1.237   1.542  0.8867 -0.6550  0.6912
    1SOL    MW4 2944   4.452   1.208   1.580  0.4601 -0.4677  0.0292
    1SOL     OW 2945   0.199   1.289   1.463  0.2438 -0.4674 -0.4025
    1SOL    HW2 2946   0.281   1.252   1.495  0.3960 -0.1424 -0.4171
    1SOL    HW3 2947   0.197   1.378   1.498  0.1617 -0.2879 -0.8560
    1SOL    MW4 2948   0.210   1.295   1.472  0.2531 -0.4010 -0.4642
    1SOL     OW 2949   0.213   1.535   1.598  0.0954 -0.1555  0.2994
    1SOL    HW2 2950   0.208   1.534   1.694 -0.6659  0.4280  0.2757
    1SOL    HW3 2951   0.130   1.576   1.571 -0.4397 -1.8491 -0.6756
    1SOL    MW4 2952   0.201   1.541   1.607 -0.0757 -0.3018  0.1677
    1SOL     OW 2953   4.483   1.667   1.509  0.4670  0.1903 -0.2057
    1SOL    HW2 2954   4.502   1.751   1.551  0.2792 -0.3845  1.0812
    1SOL    HW3 2955   4.497   1.682   1.416  2.8299  0.9985  0.2411
    1SOL    MW4 2956   4.487   1.680   1.503  0.7544  0.2211  0.0230
    1SOL     OW 2957   0.003   1.913   1.641 -0.0137  0.2425  0.3270
    1SOL    HW2 2958  -0.003   1.936   1.733  1.3590  1.7890  0.0489
    1SOL    HW3 2959  -0.068   1.961   1.599  0.0760  0.4359  0.4004
    1SOL    MW4 2960  -0.007   1.922   1.648  0.1793  0.4721  0.3000
    1SOL     OW 2961   0.208   2.056   1.510  0.0639  0.1051  0.2417
    1SOL    HW2 2962   0.150   1.992   1.550  0.3747 -0.0749  0.4137
    1SOL    HW3 2963   0.199   2.043   1.416  1.0358 -1.0260  0.2943
    1SOL    MW4 2964   0.199   2.046   1.503  0.2331 -0.0679  0.2714
    1SOL     OW 2965   0.215   2.313   1.580  0.1357  0.6732  0.3175
    1SOL    HW2 2966   0.203   2.311   1.675  1.2821  0.0653  0.4494
    1SOL    HW3 2967   0.220   2.221   1.554 -2.0755  0.7878 -0.5872
    1SOL    MW4 2968   0.214   2.301   1.589 -0.0048  0.6080  0.2154
    1SOL     OW 2969   4.456   2.449   1.529  0.0105  0.3832 -0.0301
    1SOL    HW2 2970   4.382   2.390   1.541 -0.1728  0.6223  0.0286
    1SOL    HW3 2971   4.533   2.397   1.553 -0.0840 -0.0420 -0.6420
    1SOL    MW4 2972   4.457   2.434   1.534 -0.0257  0.3586 -0.1030
    1SOL     OW 2973   4.431   2.709   1.646 -0.5051  0.0502  0.1413
    1SOL    HW2 2974   4.372   2.756   1.587 -0.0325  0.0263 -0.3492
    1SOL    HW3 2975   4.437   2.621   1.609  2.1018  0.8390 -1.4642
    1SOL    MW4 2976   4.424   2.704   1.633 -0.0997  0.1512 -0.1352
    1SOL     OW 2977   0.163   2.871   1.530 -0.1332 -0.0904 -0.6478
    1SOL    HW2 2978   0.248   2.837   1.556  0.5765  1.8023 -0.4383
    1SOL    HW3 2979   0.100   2.817   1.578  1.0096 -0.1316  0.8287
    1SOL    MW4 2980   0.166   2.859   1.540  0.1113  0.1538 -0.4255
    1SOL     OW 2981   0.192   3.119   1.645 -0.2794 -0.1705 -0.3689
    1SOL    HW2 2982   0.116   3.173   1.623 -0.5238 -0.1736  0.4491
    1SOL    HW3 2983   0.174   3.035   1.605 -0.0387  0.2619 -1.3930
    1SOL    MW4 2984   0.180   3.115   1.637 -0.2799 -0.1140 -0.3961
    1SOL     OW 2985   4.464   3.255   1.541 -0.0993  0.1853  0.0377
    1SOL    HW2 2986   4.484   3.349   1.548 -1.9611  0.6336 -0.3352
    1SOL    HW3 2987   4.482   3.234   1.449  4.1580 -0.8163  0.9512
    1SOL    MW4 2988   4.469   3.265   1.530  0.2170  0.1123  0.1090
    1SOL     OW 2989   0.016   3.522   1.577  0.3630 -0.0586  0.4983
    1SOL    HW2 2990   0.012   3.544   1.671  0.5473 -0.8526  0.6929
    1SOL    HW3 2991  -0.073   3.538   1.545  0.2140 -0.1151  0.8792
    1SOL    MW4 2992   0.004   3.527   1.585  0.3676 -0.1707  0.5742
    1SOL     OW 2993   0.245   3.632   1.474 -0.0347 -0.2545  0.7153
    1SOL    HW2 2994   0.237   3.721   1.508 -0.2141 -0.3180  0.8423
    1SOL    HW3 2995   0.167   3.587   1.507  0.0685 -0.4651  0.6719
    1SOL    MW4 2996   0.234   3.638   1.483 -0.0447 -0.2911  0.7263
    1SOL     OW 2997   0.204   3.890   1.592 -0.6703  0.3258  0.1764
    1SOL    HW2 2998   0.234   3.895   1.683  0.3037 -1.4678 -0.0222
    1SOL    HW3 2999   0.267   3.942   1.543  0.5196 -1.1020  0.1526
    1SOL    MW4 3000   0.216   3.897   1.598 -0.3848 -0.0989  0.1471
    1SOL     OW 3001   4.458   4.014   1.461  0.0204  0.1574 -0.0646
    1SOL    HW2 3002   4.439   4.103   1.490  1.6751  1.1456 -1.8485
    1SOL    HW3 3003   4.532   3.986   1.514  0.5754  0.4994 -0.6488
    1SOL    MW4 3004   4.465   4.022   1.472  0.3119  0.3324 -0.3771
    1SOL     OW 3005   4.477   4.252   1.597  0.1365 -0.3342 -0.0871
    1SOL    HW2 3006   4.487   4.240   1.691 -0.6126 -1.9024 -0.1946
    1SOL    HW3 3007   4.407   4.316   1.587  0.2491 -0.1343  0.4219
    1SOL    MW4 3008   4.469   4.259   1.608  0.0525 -0.5150 -0.0341
    1SOL     OW 3009   0.198   4.393   1.489 -0.3454 -0.2774  0.4796
    1SOL    HW2 3010   0.134   4.332   1.524 -0.7171 -0.2421 -0.1269
    1SOL    HW3 3011   0.182   4.474   1.538  0.3937 -0.7618  1.5405
    1SOL    MW4 3012   0.187   4.396   1.500 -0.2969 -0.3376  0.5394
    1SOL     OW 3013   0.652   4.643   1.604  0.2411 -0.3150 -0.4133
    1SOL    HW2 3014   0.731   4.683   1.569 -0.1573  0.6567 -0.2278
    1SOL    HW3 3015   0.581   4.685   1.555 -0.1249 -1.6777 -1.0597
    1SOL    MW4 3016   0.653   4.654   1.593  0.1402 -0.3666 -0.4741
    1SOL     OW 3017   0.442   0.106   1.474  0.0221  0.3566  0.5117
    1SOL    HW2 3018   0.446   0.198   1.498  0.2167  0.5323 -0.1930
    1SOL    HW3 3019   0.426   0.106   1.380  1.8606 -0.3053  0.1619
    1SOL    MW4 3020   0.441   0.118   1.465  0.2903  0.2924  0.3726
    1SOL     OW 3021   0.424   0.382   1.571 -0.7108  0.1979 -0.2615
    1SOL    HW2 3022   0.508   0.428   1.566 -0.6549  0.2162  0.8836
    1SOL    HW3 3023   0.360   0.447   1.539 -0.4875  0.7032  0.3047
    1SOL    MW4 3024   0.426   0.397   1.566 -0.6740  0.2670 -0.0359
    1SOL     OW 3025   0.673   0.507   1.523 -0.3288 -0.2529  0.3324
    1SOL    HW2 3026   0.668   0.592   1.566  0.1373  0.2798 -0.6443
    1SOL    HW3 3027   0.669   0.527   1.430  0.3157 -1.2584  0.0779
    1SOL    MW4 3028   0.672   0.521   1.516 -0.1822 -0.3153  0.1699
    1SOL     OW 3029   0.639   0.766   1.619 -0.1021  0.1719 -0.1952
    1SOL    HW2 3030   0.643   0.777   1.714  0.9316 -0.9979 -0.0895
    1SOL    HW3 3031   0.719   0.805   1.586 -0.4546  0.5675 -0.5861
    1SOL    MW4 3032   0.650   0.772   1.628 -0.0123  0.0697 -0.2328
    1SOL     OW 3033   0.435   0.901   1.494  0.1325 -0.5156  0.2543
    1SOL    HW2 3034   0.408   0.989   1.523 -1.4744 -1.0189  0.3475
    1SOL    HW3 3035   0.511   0.880   1.547 -0.8056 -0.0747  1.7916
    1SOL    MW4 3036   0.441   0.910   1.504 -0.2033 -0.5238  0.4693
    1SOL     OW 3037   0.412   1.165   1.584 -0.2577 -0.1929 -0.7947
    1SOL    HW2 3038   0.491   1.214   1.561 -0.3501 -0.0829 -0.8775
    1SOL    HW3 3039   0.417   1.155   1.679  1.6654 -3.3032 -1.1698
    1SOL    MW4 3040   0.423   1.170   1.593 -0.0162 -0.5888 -0.8552
    1SOL     OW 3041   0.653   1.274   1.488 -0.0053  0.3612  0.0969
    1SOL    HW2 3042   0.687   1.354   1.529  2.2826 -0.9453  0.8496
    1SOL    HW3 3043   0.668   1.287   1.395  1.8786  0.1324  0.3566
    1SOL    MW4 3044   0.660   1.287   1.481  0.5451  0.1584  0.2304
    1SOL     OW 3045   0.668   1.551   1.579  0.4236  0.0694  0.0468
    1SOL    HW2 3046   0.729   1.624   1.571 -0.1918  0.6217  0.3581
    1SOL    HW3 3047   0.583   1.587   1.554  0.2505 -0.7370 -0.5575
    1SOL    MW4 3048   0.665   1.565   1.575  0.3196  0.0360  0.0082
    1SOL     OW 3049   0.434   1.694   1.528 -0.0651 -0.3703 -0.1192
    1SOL    HW2 3050   0.439   1.789   1.541  1.1263 -0.2890 -1.0457
    1SOL    HW3 3051   0.359   1.666   1.580  0.0545  0.9712  0.7899
    1SOL    MW4 3052   0.425   1.703   1.536  0.1078 -0.1825 -0.1216
    1SOL     OW 3053   0.448   1.977   1.597 -0.0874  0.0075 -0.4365
    1SOL    HW2 3054   0.431   1.962   1.690  0.7685  0.1798 -0.2499
    1SOL    HW3 3055   0.366   2.016   1.564 -0.4902 -0.3165  0.1785
    1SOL    MW4 3056   0.435   1.980   1.605 -0.0276 -0.0125 -0.3307
    1SOL     OW 3057   0.672   2.111   1.527 -0.3677  0.0414 -0.3820
    1SOL    HW2 3058   0.751   2.062   1.550 -0.4755 -0.0516 -0.2121
    1SOL    HW3 3059   0.600   2.054   1.553 -0.4953  0.5801  0.4431
    1SOL    MW4 3060   0.673   2.097   1.533 -0.3987  0.1001 -0.2507
    1SOL     OW 3061   0.651   2.377   1.609  0.2068 -0.1108 -0.0797
    1SOL    HW2 3062   0.583   2.423   1.559 -0.3223 -1.2452 -0.4278
    1SOL    HW3 3063   0.642   2.285   1.583  0.8177 -0.5156  1.0890
    1SOL    MW4 3064   0.641   2.371   1.599  0.2176 -0.3140  0.0285
    1SOL     OW 3065   0.400   2.502   1.506  0.2764  0.2721 -0.3596
    1SOL    HW2 3066   0.385   2.578   1.563 -1.8019  0.1606 -0.7070
    1SOL    HW3 3067   0.337   2.437   1.537  1.9035 -1.2407 -0.2022
    1SOL    MW4 3068   0.390   2.504   1.518  0.2169  0.0579 -0.3847
    1SOL     OW 3069   0.408   2.743   1.646  0.4044  0.0551  0.4424
    1SOL    HW2 3070   0.441   2.733   1.735  0.7018  1.3729  0.4932
    1SOL    HW3 3071   0.480   2.783   1.598  0.2224 -0.6001 -0.3766
    1SOL    MW4 3072   0.422   2.747   1.652  0.4196  0.1423  0.3409
    1SOL     OW 3073   0.639   2.845   1.505 -0.2018  0.0418 -0.1246
    1SOL    HW2 3074   0.641   2.940   1.514  0.4062 -0.0821  1.1942
    1SOL    HW3 3075   0.720   2.815   1.547 -1.4104 -1.1981  1.4233
    1SOL    MW4 3076   0.650   2.853   1.512 -0.2810 -0.1378  0.2538
    1SOL     OW 3077   0.675   3.111   1.598 -0.0339  0.5760  0.2605
    1SOL    HW2 3078   0.757   3.131   1.552  0.0611 -0.7726 -0.1650
    1SOL    HW3 3079   0.614   3.178   1.566  0.3531  0.3685 -0.9630
    1SOL    MW4 3080   0.678   3.123   1.588  0.0296  0.3705  0.0429
    1SOL     OW 3081   0.415   3.231   1.522  0.3334  0.2180  0.1230
    1SOL    HW2 3082   0.338   3.180   1.548  0.6039  0.7372  2.0466
    1SOL    HW3 3083   0.415   3.228   1.427  0.7502 -3.9694  0.1619
    1SOL    MW4 3084   0.405   3.224   1.513  0.4241 -0.2658  0.3818
    1SOL     OW 3085   0.466   3.497   1.615 -0.1204 -0.2756 -0.6209
    1SOL    HW2 3086   0.453   3.407   1.584  0.0616 -0.0707 -1.3023
    1SOL    HW3 3087   0.389   3.544   1.585  0.2251  0.0048 -1.0751
    1SOL    MW4 3088   0.454   3.491   1.607 -0.0508 -0.2112 -0.7708
    1SOL     OW 3089   0.655   3.615   1.454 -0.5226  0.4453 -0.6421
    1SOL    HW2 3090   0.730   3.563   1.483 -0.3961  0.8369 -0.2628
    1SOL    HW3 3091   0.579   3.572   1.495 -0.4999  0.1154 -0.9385
    1SOL    MW4 3092   0.655   3.602   1.463 -0.5029  0.4537 -0.6312
    1SOL     OW 3093   0.654   3.872   1.555  0.0068 -0.1392  0.1282
    1SOL    HW2 3094   0.740   3.900   1.525 -0.3395  0.3853 -0.4027
    1SOL    HW3 3095   0.645   3.782   1.523 -0.0587  0.1629 -0.7023
    1SOL    MW4 3096   0.664   3.864   1.547 -0.0474 -0.0300 -0.0514
    1SOL     OW 3097   0.433   4.034   1.480 -0.1545 -0.6312  0.2156
    1SOL    HW2 3098   0.512   3.989   1.511  0.7986  1.1993  0.4938
    1SOL    HW3 3099   0.443   4.035   1.385 -0.9755 -2.4245  0.0937
    1SOL    MW4 3100   0.445   4.028   1.471 -0.1371 -0.6261  0.2363
    1SOL     OW 3101   0.423   4.287   1.583 -0.1663  0.2552 -0.2171
    1SOL    HW2 3102   0.419   4.209   1.529  0.5118  0.5610 -0.7117
    1SOL    HW3 3103   0.347   4.338   1.558 -0.2173  0.0869 -0.4005
    1SOL    MW4 3104   0.412   4.284   1.573 -0.0835  0.2732 -0.3064
    1SOL     OW 3105   0.635   4.406   1.472 -0.0170 -0.2774  0.4050
    1SOL    HW2 3106   0.556   4.363   1.503  0.8903 -0.9729  1.7659
    1SOL    HW3 3107   0.650   4.478   1.533  0.3861 -0.1280  0.1401
    1SOL    MW4 3108   0.627   4.410   1.484  0.1559 -0.3495  0.5496
    1SOL     OW 3109   1.073   4.600   1.589  0.3002  0.0876 -0.0230
    1SOL    HW2 3110   1.072   4.623   1.682  1.0747 -0.0488  0.0249
    1SOL    HW3 3111   1.149   4.646   1.554 -0.0284  0.1935 -0.6045
    1SOL    MW4 3112   1.083   4.609   1.597  0.3591  0.0839 -0.0936
    1SOL     OW 3113   0.884   0.096   1.500 -0.2253  0.0923  0.1500
    1SOL    HW2 3114   0.888   0.163   1.568  0.3084 -0.2570  0.4707
    1SOL    HW3 3115   0.955   0.036   1.522  1.0492  0.8830 -1.6744
    1SOL    MW4 3116   0.894   0.097   1.512  0.0132  0.1505 -0.0483
    1SOL     OW 3117   0.862   0.333   1.662  0.2740  0.0936 -0.1213
    1SOL    HW2 3118   0.861   0.346   1.757  1.2046 -0.4643 -0.0263
    1SOL    HW3 3119   0.785   0.380   1.630  0.7806  1.5266  0.7394
    1SOL    MW4 3120   0.852   0.341   1.670  0.4637  0.2090  0.0046
    1SOL     OW 3121   1.082   0.497   1.515  0.2070 -0.0596 -0.0074
    1SOL    HW2 3122   1.090   0.589   1.539  1.5302 -0.3149  0.5585
    1SOL    HW3 3123   0.991   0.475   1.533  0.1967  0.8182  0.9988
    1SOL    MW4 3124   1.071   0.506   1.520  0.3803  0.0225  0.2000
    1SOL     OW 3125   1.118   0.747   1.617 -0.6029  0.0534  0.0803
    1SOL    HW2 3126   1.117   0.755   1.712 -0.1559  0.1264  0.0816
    1SOL    HW3 3127   1.172   0.820   1.587 -1.2784  0.4113 -0.2752
    1SOL    MW4 3128   1.125   0.757   1.625 -0.6329  0.1103  0.0336
    1SOL     OW 3129   0.873   0.883   1.526 -0.0731  0.1701 -0.3386
    1SOL    HW2 3130   0.949   0.839   1.564 -0.3244  0.0212 -0.0131
    1SOL    HW3 3131   0.882   0.869   1.432  0.2258  0.0287 -0.2898
    1SOL    MW4 3132   0.885   0.876   1.519 -0.0668  0.1317 -0.2892
    1SOL     OW 3133   0.895   1.148   1.584  0.3810  0.4217  0.0080
    1SOL    HW2 3134   0.895   1.056   1.558 -0.0352  0.1892  0.8202
    1SOL    HW3 3135   0.820   1.186   1.539  0.9043  0.5047 -0.8036
    1SOL    MW4 3136   0.886   1.141   1.575  0.3951  0.4021  0.0080
    1SOL     OW 3137   1.106   1.322   1.508  0.9570 -0.3854 -0.6230
    1SOL    HW2 3138   1.187   1.288   1.546  0.6806  0.8660  1.1730
    1SOL    HW3 3139   1.038   1.263   1.540  0.7390  0.6030  0.8203
    1SOL    MW4 3140   1.108   1.310   1.518  0.8917 -0.0898 -0.1957
    1SOL     OW 3141   1.135   1.583   1.608  0.3045  0.0343  0.0794
    1SOL    HW2 3142   1.222   1.615   1.585  0.7711 -0.0017  1.7397
    1SOL    HW3 3143   1.131   1.496   1.568  1.0536  0.0149  0.0338
    1SOL    MW4 3144   1.146   1.576   1.600  0.4648  0.0272  0.2924
    1SOL     OW 3145   0.891   1.715   1.530 -0.9088 -0.1803  0.1066
    1SOL    HW2 3146   0.959   1.656   1.564  0.1058  0.7595 -0.2478
    1SOL    HW3 3147   0.900   1.708   1.435  0.4323  1.8815  0.0470
    1SOL    MW4 3148   0.901   1.706   1.522 -0.5981  0.2158  0.0520
    1SOL     OW 3149   0.904   1.973   1.613 -0.2131  0.2160 -0.4278
    1SOL    HW2 3150   0.984   2.005   1.571 -0.6633  1.3920 -0.4014
    1SOL    HW3 3151   0.897   1.882   1.585  1.6262 -0.1653  0.3100
    1SOL    MW4 3152   0.914   1.965   1.604 -0.0299  0.3209 -0.3270
    1SOL     OW 3153   1.118   2.071   1.479 -0.0283  0.8109 -0.3090
    1SOL    HW2 3154   1.194   2.022   1.510 -0.5871 -0.4323 -0.9028
    1SOL    HW3 3155   1.127   2.157   1.521  1.2307  0.3894  0.3172
    1SOL    MW4 3156   1.129   2.076   1.489  0.0641  0.5913 -0.3046
    1SOL     OW 3157   1.125   2.324   1.575 -0.2439 -0.4054  0.2938
    1SOL    HW2 3158   1.199   2.371   1.536 -0.3858 -0.7413 -0.3899
    1SOL    HW3 3159   1.048   2.377   1.551 -0.5011 -1.4252 -1.2254
    1SOL    MW4 3160   1.124   2.337   1.566 -0.2966 -0.5844  0.0032
    1SOL     OW 3161   0.909   2.499   1.523  0.2447 -0.0647  0.1334
    1SOL    HW2 3162   0.907   2.482   1.429  0.2939  1.1037 -0.0796
    1SOL    HW3 3163   0.820   2.478   1.552 -0.3158  1.3909 -0.5009
    1SOL    MW4 3164   0.897   2.494   1.514  0.1773  0.2816  0.0216
    1SOL     OW 3165   0.893   2.775   1.575  0.2776 -0.0230  0.7870
    1SOL    HW2 3166   0.909   2.769   1.669  2.6252  0.0247  0.4302
    1SOL    HW3 3167   0.909   2.686   1.543 -0.5656 -0.0494  0.4357
    1SOL    MW4 3168   0.897   2.763   1.583  0.4761 -0.0200  0.6936
    1SOL     OW 3169   1.118   2.860   1.447 -0.2471 -0.2456  0.0087
    1SOL    HW2 3170   1.139   2.950   1.473  0.2627 -0.6609  1.0755
    1SOL    HW3 3171   1.043   2.836   1.502  0.2463 -0.8085  0.4480
    1SOL    MW4 3172   1.111   2.868   1.458 -0.1147 -0.3748  0.2073
    1SOL     OW 3173   1.148   3.105   1.577 -0.1952  0.3554  0.1945
    1SOL    HW2 3174   1.143   3.114   1.672  0.8936 -0.3447  0.3200
    1SOL    HW3 3175   1.225   3.155   1.551 -1.5922  2.1785 -0.5537
    1SOL    MW4 3176   1.157   3.112   1.586 -0.2359  0.5033  0.1123
    1SOL     OW 3177   0.911   3.202   1.507  0.3736 -0.1294  0.0566
    1SOL    HW2 3178   0.993   3.168   1.543 -0.0366 -2.3423 -0.9817
    1SOL    HW3 3179   0.929   3.211   1.413  0.2938  2.1098  0.2292
    1SOL    MW4 3180   0.925   3.199   1.499  0.3089 -0.1261 -0.0577
    1SOL     OW 3181   0.885   3.482   1.554  0.0138  0.0165  0.0128
    1SOL    HW2 3182   0.965   3.532   1.538  1.3676 -1.9073  0.5837
    1SOL    HW3 3183   0.908   3.392   1.531 -1.7501 -0.6841  0.9260
    1SOL    MW4 3184   0.899   3.476   1.549 -0.0404 -0.3297  0.2085
    1SOL     OW 3185   1.104   3.641   1.484 -0.6849 -0.2979 -0.5197
    1SOL    HW2 3186   1.175   3.588   1.520 -0.3034  2.1639  2.4998
    1SOL    HW3 3187   1.121   3.643   1.390  2.8879 -0.2615  0.0587
    1SOL    MW4 3188   1.115   3.634   1.476 -0.1632  0.0319 -0.0449
    1SOL     OW 3189   1.129   3.900   1.578 -0.0460  0.1781  0.3086
    1SOL    HW2 3190   1.218   3.923   1.550  0.1144 -0.5969  0.1821
    1SOL    HW3 3191   1.117   3.811   1.547 -1.9637  1.2938 -2.3474
    1SOL    MW4 3192   1.139   3.891   1.570 -0.2778  0.2229 -0.0585
    1SOL     OW 3193   0.884   3.999   1.499  0.1940 -0.3555  0.2896
    1SOL    HW2 3194   0.884   4.091   1.526  1.1396 -0.3969  0.4766
    1SOL    HW3 3195   0.969   3.966   1.529 -0.9878 -1.8363  2.0809
    1SOL    MW4 3196   0.895   4.006   1.507  0.1629 -0.5565  0.5506
    1SOL     OW 3197   0.861   4.266   1.563  0.2631  0.3936 -0.3495
    1SOL    HW2 3198   0.883   4.312   1.643 -1.0771 -0.2640  0.4217
    1SOL    HW3 3199   0.784   4.313   1.529 -0.9027 -1.0330  0.2658
    1SOL    MW4 3200   0.854   4.278   1.569 -0.0676  0.1187 -0.1667
    1SOL     OW 3201   1.115   4.350   1.477 -0.1753  0.7467 -0.5566
    1SOL    HW2 3202   1.031   4.308   1.497  0.4235 -0.5445 -0.6771
    1SOL    HW3 3203   1.109   4.437   1.516 -0.8590 -0.0104  1.0378
    1SOL    MW4 3204   1.103   4.356   1.484 -0.1867  0.4768 -0.3623
    1SOL     OW 3205   1.554   4.646   1.604 -0.2062 -0.1788 -0.5219
    1SOL    HW2 3206   1.541   4.653   1.698  0.6594  1.3185 -0.4948
    1SOL    HW3 3207   1.482   4.697   1.566  1.7306  2.6231 -0.5421
    1SOL    MW4 3208   1.542   4.654   1.611  0.1636  0.3891 -0.5209
    1SOL     OW 3209   1.289   0.075   1.512  0.1964  0.6167 -0.2563
    1SOL    HW2 3210   1.292   0.167   1.538 -0.7038  1.0484 -1.6334
    1SOL    HW3 3211   1.306   0.076   1.418  0.1723 -0.6173 -0.2811
    1SOL    MW4 3212   1.291   0.087   1.503  0.0744  0.5108 -0.4413
    1SOL     OW 3213   1.304   0.335   1.606 -0.0011 -0.2571  0.0355
    1SOL    HW2 3214   1.373   0.374   1.552  0.0207  0.2606  0.4219
    1SOL    HW3 3215   1.224   0.379   1.578 -0.0571 -0.3152  0.1035
    1SOL    MW4 3216   1.303   0.346   1.595 -0.0057 -0.1965  0.0955
    1SOL     OW 3217   1.507   0.489   1.491 -0.1043  0.1841  0.5141
    1SOL    HW2 3218   1.582   0.443   1.529 -0.3605 -0.2630  0.4809
    1SOL    HW3 3219   1.521   0.483   1.397 -0.1393  0.1737  0.5097
    1SOL    MW4 3220   1.519   0.482   1.484 -0.1426  0.1237  0.5091
    1SOL     OW 3221   1.525   0.749   1.584 -0.5655  0.0363 -0.4679
    1SOL    HW2 3222   1.534   0.735   1.679 -0.0417 -1.7053 -0.7453
    1SOL    HW3 3223   1.493   0.665   1.551  1.6914 -0.2316 -2.1444
    1SOL    MW4 3224   1.522   0.736   1.592 -0.1986 -0.2289 -0.7256
    1SOL     OW 3225   1.314   0.926   1.516  0.1021  0.2711  0.3470
    1SOL    HW2 3226   1.378   0.871   1.561  0.3799  0.7992  0.6043
    1SOL    HW3 3227   1.316   0.896   1.425  1.5271  1.0335  0.1234
    1SOL    MW4 3228   1.322   0.915   1.510  0.3269  0.4413  0.3514
    1SOL     OW 3229   1.334   1.173   1.606  0.0692 -0.4328 -0.4587
    1SOL    HW2 3230   1.341   1.162   1.700  0.3708 -0.5600 -0.4964
    1SOL    HW3 3231   1.321   1.085   1.572  0.6420 -0.4657 -0.5955
    1SOL    MW4 3232   1.333   1.160   1.614  0.1844 -0.4539 -0.4817
    1SOL     OW 3233   1.574   1.292   1.495 -0.0048 -0.2927  0.2197
    1SOL    HW2 3234   1.499   1.247   1.533  0.5256 -1.7151 -0.3687
    1SOL    HW3 3235   1.651   1.250   1.534  0.4992  0.4300  0.0263
    1SOL    MW4 3236   1.575   1.280   1.505  0.1316 -0.3850  0.1165
    1SOL     OW 3237   1.568   1.537   1.629 -0.1391 -0.0991  0.2440
    1SOL    HW2 3238   1.574   1.518   1.723  0.5968 -1.3008 -0.0350
    1SOL    HW3 3239   1.560   1.451   1.588 -1.5382  0.4846 -0.7287
    1SOL    MW4 3240   1.568   1.523   1.636 -0.2265 -0.1806  0.0787
    1SOL     OW 3241   1.379   1.700   1.524  0.1385  0.0535 -0.3397
    1SOL    HW2 3242   1.446   1.643   1.560 -0.0694  0.7194  1.1227
    1SOL    HW3 3243   1.384   1.687   1.429  3.1720  1.0652 -0.3486
    1SOL    MW4 3244   1.388   1.691   1.516  0.5114  0.2749 -0.1479
    1SOL     OW 3245   1.369   1.974   1.574  0.2842  0.1320  0.0335
    1SOL    HW2 3246   1.394   1.979   1.666  0.1101  1.5482  0.0149
    1SOL    HW3 3247   1.374   1.880   1.553  1.1419 -0.1094  1.2405
    1SOL    MW4 3248   1.373   1.962   1.583  0.3743  0.2869  0.1901
    1SOL     OW 3249   1.609   2.091   1.477 -0.2729 -0.6034  0.2059
    1SOL    HW2 3250   1.517   2.069   1.490 -0.8939  0.6300 -1.7894
    1SOL    HW3 3251   1.622   2.086   1.382  1.8574 -1.2923  0.5005
    1SOL    MW4 3252   1.599   2.088   1.466 -0.0737 -0.5314 -0.0185
    1SOL     OW 3253   1.582   2.342   1.550 -0.0324 -0.3775  0.0914
    1SOL    HW2 3254   1.662   2.393   1.537  0.9226 -1.1373  2.8335
    1SOL    HW3 3255   1.604   2.254   1.520 -0.1390 -0.3661 -0.0216
    1SOL    MW4 3256   1.595   2.337   1.544  0.0795 -0.4761  0.4383
    1SOL     OW 3257   1.354   2.486   1.450  0.0111 -0.6369 -0.5192
    1SOL    HW2 3258   1.349   2.567   1.501  1.9195 -0.4580 -0.6049
    1SOL    HW3 3259   1.431   2.441   1.483 -0.5939 -2.0562 -1.0223
    1SOL    MW4 3260   1.363   2.491   1.461  0.1830 -0.8006 -0.5969
    1SOL     OW 3261   1.330   2.726   1.583 -0.2148  0.4001 -0.5805
    1SOL    HW2 3262   1.416   2.759   1.556  0.5893 -2.3616 -1.4962
    1SOL    HW3 3263   1.268   2.772   1.526  0.8863  0.2885 -1.8844
    1SOL    MW4 3264   1.333   2.737   1.572  0.0366  0.0212 -0.8732
    1SOL     OW 3265   1.586   2.859   1.488  0.0467  0.2163 -0.0824
    1SOL    HW2 3266   1.670   2.819   1.510 -0.5372 -1.6656 -1.1494
    1SOL    HW3 3267   1.574   2.840   1.395  0.2373  3.8286 -0.8994
    1SOL    MW4 3268   1.595   2.851   1.479 -0.0054  0.4447 -0.3309
    1SOL     OW 3269   1.572   3.126   1.571  0.0353 -0.0324 -0.1545
    1SOL    HW2 3270   1.652   3.165   1.535  0.7631 -1.6761 -0.3868
    1SOL    HW3 3271   1.579   3.033   1.547 -1.2784 -0.4382  1.0283
    1SOL    MW4 3272   1.584   3.119   1.563 -0.0420 -0.3028 -0.0291
    1SOL     OW 3273   1.362   3.252   1.478 -0.1905 -0.1536 -0.1729
    1SOL    HW2 3274   1.358   3.337   1.523  1.1178 -0.4119  0.4877
    1SOL    HW3 3275   1.441   3.211   1.513 -0.0757 -1.0863 -1.4810
    1SOL    MW4 3276   1.372   3.258   1.489 -0.0027 -0.3104 -0.2584
    1SOL     OW 3277   1.338   3.503   1.611  0.2893  0.2627 -0.2314
    1SOL    HW2 3278   1.344   3.514   1.705 -1.7229 -0.6579  0.0269
    1SOL    HW3 3279   1.418   3.543   1.577  0.9344  0.7809  1.8348
    1SOL    MW4 3280   1.349   3.510   1.619  0.1090  0.2093  0.0752
    1SOL     OW 3281   1.558   3.609   1.488  0.1034 -0.6000  0.1890
    1SOL    HW2 3282   1.581   3.697   1.520  1.4657 -1.4455  1.6166
    1SOL    HW3 3283   1.570   3.615   1.393  0.5385  0.6631  0.3032
    1SOL    MW4 3284   1.563   3.622   1.480  0.3405 -0.5448  0.3924
    1SOL     OW 3285   1.588   3.850   1.630 -0.1877  0.6158 -0.2792
    1SOL    HW2 3286   1.586   3.842   1.725  1.2319 -0.0327 -0.2893
    1SOL    HW3 3287   1.512   3.904   1.609 -1.7707 -1.0328  1.0385
    1SOL    MW4 3288   1.578   3.856   1.640 -0.2092  0.3126 -0.1068
    1SOL     OW 3289   1.380   3.991   1.502  0.1241 -0.1697 -0.1852
    1SOL    HW2 3290   1.362   4.076   1.543 -0.3171 -0.3192 -0.0654
    1SOL    HW3 3291   1.361   4.004   1.410 -1.9544 -0.6978  0.1390
    1SOL    MW4 3292   1.375   4.004   1.496 -0.2085 -0.2589 -0.1265
    1SOL     OW 3293   1.326   4.236   1.628  0.3969 -0.3721 -0.6194
    1SOL    HW2 3294   1.389   4.280   1.572 -1.3495  2.0101 -0.7830
    1SOL    HW3 3295   1.240   4.266   1.597 -0.6989 -1.0335  1.6264
    1SOL    MW4 3296   1.323   4.246   1.617  0.0218 -0.1450 -0.3448
    1SOL     OW 3297   1.518   4.369   1.498  0.2795 -0.7315 -0.6183
    1SOL    HW2 3298   1.591   4.321   1.538  0.6518  0.1157 -0.2717
    1SOL    HW3 3299   1.521   4.456   1.539 -1.2824 -0.8741 -0.1804
    1SOL    MW4 3300   1.528   4.374   1.509  0.1224 -0.6385 -0.5147
    1SOL     OW 3301   1.980   4.622   1.584  0.3782 -0.0586  0.2599
    1SOL    HW2 3302   1.986   4.607   1.678 -1.7777 -2.4523  0.0710
    1SOL    HW3 3303   1.902   4.677   1.574  0.6474  0.2526 -0.1152
    1SOL    MW4 3304   1.971   4.627   1.595  0.1292 -0.3338  0.1855
    1SOL     OW 3305   1.762   0.118   1.511 -0.1546  0.2458 -0.1131
    1SOL    HW2 3306   1.686   0.065   1.534  1.2695 -1.4740  0.7191
    1SOL    HW3 3307   1.767   0.112   1.415 -1.0316  0.3405 -0.1713
    1SOL    MW4 3308   1.753   0.110   1.501 -0.0824  0.0314 -0.0108
    1SOL     OW 3309   1.726   0.378   1.607 -0.1852 -0.4433  0.6324
    1SOL    HW2 3310   1.799   0.423   1.564 -0.7497 -0.4003 -0.2830
    1SOL    HW3 3311   1.739   0.286   1.587 -0.0992 -0.4932  0.9091
    1SOL    MW4 3312   1.737   0.372   1.599 -0.2483 -0.4442  0.5481
    1SOL     OW 3313   1.966   0.487   1.508  0.0690  0.0571 -0.0208
    1SOL    HW2 3314   2.046   0.435   1.515 -0.3723 -0.7340 -0.6741
    1SOL    HW3 3315   1.990   0.574   1.539  1.3510  0.0018 -0.8217
    1SOL    MW4 3316   1.980   0.491   1.513  0.1799 -0.0546 -0.2126
    1SOL     OW 3317   2.011   0.741   1.591 -0.1295 -0.1125  0.1767
    1SOL    HW2 3318   2.020   0.744   1.686 -0.6466  0.0271  0.2214
    1SOL    HW3 3319   1.928   0.787   1.573 -0.6230 -1.1708 -0.2603
    1SOL    MW4 3320   2.001   0.748   1.601 -0.2627 -0.2337  0.1249
    1SOL     OW 3321   1.764   0.865   1.501 -0.3624  0.0032  0.0197
    1SOL    HW2 3322   1.763   0.955   1.533 -1.7070  0.4633 -1.2813
    1SOL    HW3 3323   1.676   0.832   1.521 -0.2765 -0.6221 -0.6330
    1SOL    MW4 3324   1.752   0.872   1.508 -0.5286 -0.0186 -0.2382
    1SOL     OW 3325   1.772   1.126   1.602 -0.1506 -0.4745  0.4118
    1SOL    HW2 3326   1.854   1.169   1.578  0.4280 -1.6774  0.1516
    1SOL    HW3 3327   1.767   1.134   1.697  0.0145  0.0425  0.3759
    1SOL    MW4 3328   1.782   1.133   1.611 -0.0525 -0.5649  0.3728
    1SOL     OW 3329   1.988   1.272   1.517 -0.4932  0.1929 -0.1609
    1SOL    HW2 3330   2.009   1.364   1.533 -0.1595 -0.0543  0.8620
    1SOL    HW3 3331   1.988   1.264   1.422 -0.7204  1.2969 -0.2697
    1SOL    MW4 3332   1.990   1.283   1.507 -0.4791  0.3059 -0.0403
    1SOL     OW 3333   2.028   1.535   1.571  0.3636  0.1860  0.8795
    1SOL    HW2 3334   2.104   1.592   1.560  0.0548  0.2981 -0.7640
    1SOL    HW3 3335   1.952   1.592   1.554 -0.0201 -0.3329  0.8441
    1SOL    MW4 3336   2.028   1.550   1.567  0.2725  0.1324  0.6579
    1SOL     OW 3337   1.789   1.681   1.555 -0.3988  0.1858 -0.1594
    1SOL    HW2 3338   1.704   1.645   1.583 -0.0444  0.3519  1.1585
    1SOL    HW3 3339   1.789   1.669   1.460 -1.7204 -0.2103 -0.1315
    1SOL    MW4 3340   1.778   1.675   1.547 -0.5265  0.1556  0.0181
    1SOL     OW 3341   1.764   1.934   1.656 -0.2436 -0.1873  0.4042
    1SOL    HW2 3342   1.773   1.846   1.619 -0.0917  0.8809 -2.1772
    1SOL    HW3 3343   1.715   1.983   1.591  0.4618  1.9022  1.3916
    1SOL    MW4 3344   1.759   1.929   1.643 -0.1303  0.2292  0.1938
    1SOL     OW 3345   1.974   2.063   1.505  0.0304 -0.3106  0.1145
    1SOL    HW2 3346   2.058   2.023   1.525 -0.0238 -0.4071  0.1537
    1SOL    HW3 3347   1.914   2.025   1.570 -0.1595 -0.6662 -0.2682
    1SOL    MW4 3348   1.977   2.053   1.516 -0.0019 -0.3703  0.0694
    1SOL     OW 3349   2.040   2.323   1.565 -0.1671 -0.2356 -0.3821
    1SOL    HW2 3350   2.018   2.335   1.658  1.7900 -0.9755  0.1913
    1SOL    HW3 3351   2.025   2.230   1.549  1.0903 -0.4531 -0.3587
    1SOL    MW4 3352   2.035   2.312   1.575  0.2568 -0.3622 -0.3034
    1SOL     OW 3353   1.835   2.461   1.457 -0.6557  0.0750  0.1263
    1SOL    HW2 3354   1.904   2.400   1.483 -0.4458  0.6868  1.0322
    1SOL    HW3 3355   1.841   2.465   1.362  1.7115  1.4379  0.2972
    1SOL    MW4 3356   1.845   2.453   1.448 -0.3158  0.3357  0.2685
    1SOL     OW 3357   1.821   2.731   1.571 -0.0346  0.3767  0.3100
    1SOL    HW2 3358   1.903   2.775   1.551  0.6854 -0.0744  2.1188
    1SOL    HW3 3359   1.833   2.641   1.539 -0.1124  0.5157 -0.1080
    1SOL    MW4 3360   1.833   2.725   1.564  0.0501  0.3357  0.4935
    1SOL     OW 3361   2.040   2.840   1.448 -0.3655  0.5575 -0.3640
    1SOL    HW2 3362   2.046   2.934   1.460 -0.6448  0.5835 -0.4377
    1SOL    HW3 3363   2.041   2.828   1.353 -0.9015  0.5243 -0.3693
    1SOL    MW4 3364   2.041   2.851   1.437 -0.4733  0.5565 -0.3744
    1SOL     OW 3365   2.024   3.085   1.544 -0.2773  0.2664 -0.0208
    1SOL    HW2 3366   2.036   3.110   1.636 -0.9675 -1.2657  0.4943
    1SOL    HW3 3367   2.092   3.134   1.498 -0.1098  1.2856  1.2571
    1SOL    MW4 3368   2.035   3.095   1.550 -0.3462  0.1988  0.2158
    1SOL     OW 3369   1.787   3.215   1.463 -0.2447 -0.0346 -0.6446
    1SOL    HW2 3370   1.792   3.308   1.487 -0.7966  0.3237 -1.8789
    1SOL    HW3 3371   1.858   3.174   1.513 -0.6908  0.8567  0.7580
    1SOL    MW4 3372   1.797   3.222   1.473 -0.3765  0.1304 -0.6224
    1SOL     OW 3373   1.791   3.477   1.556 -0.7618  0.5639 -0.1985
    1SOL    HW2 3374   1.804   3.499   1.649  0.5779 -0.4524 -0.1277
    1SOL    HW3 3375   1.711   3.522   1.532 -0.9821  1.0641  1.3953
    1SOL    MW4 3376   1.782   3.486   1.565 -0.6140  0.4957  0.0211
    1SOL     OW 3377   2.006   3.591   1.433 -0.1385 -0.1595 -0.2162
    1SOL    HW2 3378   2.081   3.554   1.480  0.3697  0.9042 -0.1628
    1SOL    HW3 3379   1.930   3.551   1.475  0.3319  0.2637  1.0712
    1SOL    MW4 3380   2.006   3.581   1.445 -0.0095  0.0365 -0.0393
    1SOL     OW 3381   2.043   3.844   1.586 -0.5349  0.2914  0.0373
    1SOL    HW2 3382   2.103   3.893   1.530 -0.2440  0.3744  0.4196
    1SOL    HW3 3383   2.031   3.761   1.540  1.6096 -0.6123  1.0213
    1SOL    MW4 3384   2.050   3.840   1.572 -0.2134  0.1831  0.2176
    1SOL     OW 3385   1.803   3.972   1.533  0.3094 -0.0629 -0.1919
    1SOL    HW2 3386   1.881   3.918   1.550  0.5590  0.3550 -0.0047
    1SOL    HW3 3387   1.731   3.921   1.568  0.2535 -1.3435 -2.0857
    1SOL    MW4 3388   1.804   3.958   1.540  0.3349 -0.1769 -0.4171
    1SOL     OW 3389   1.760   4.236   1.614  0.1792  0.1087  0.2539
    1SOL    HW2 3390   1.829   4.287   1.572 -0.1669  0.0372 -0.4011
    1SOL    HW3 3391   1.778   4.145   1.589 -0.9542  0.2353 -1.0736
    1SOL    MW4 3392   1.771   4.231   1.605 -0.0160  0.1159 -0.0076
    1SOL     OW 3393   1.971   4.380   1.462 -0.1652 -0.4035  0.2691
    1SOL    HW2 3394   2.051   4.337   1.493  0.1646  0.3353  0.4574
    1SOL    HW3 3395   1.983   4.472   1.487 -1.4201 -0.4347  0.9941
    1SOL    MW4 3396   1.983   4.386   1.469 -0.2874 -0.3104  0.3896
    1SOL     OW 3397   2.459   4.626   1.591 -0.4962  0.1367 -0.2357
    1SOL    HW2 3398   2.474   4.646   1.683  0.9822  0.8642 -0.6213
    1SOL    HW3 3399   2.377   4.671   1.570 -0.3251  0.7928  0.4647
    1SOL    MW4 3400   2.450   4.635   1.600 -0.2782  0.3190 -0.1943
    1SOL     OW 3401   2.213   0.059   1.504 -0.4519  0.3114  0.0169
    1SOL    HW2 3402   2.126   0.023   1.520 -0.1535 -0.4067  0.0553
    1SOL    HW3 3403   2.214   0.078   1.410  0.2518 -2.1852 -0.5238
    1SOL    MW4 3404   2.202   0.056   1.493 -0.3195 -0.1127 -0.0496
    1SOL     OW 3405   2.198   0.347   1.555 -0.0921 -0.5792 -0.3190
    1SOL    HW2 3406   2.189   0.355   1.650  0.6247 -0.5150 -0.2575
    1SOL    HW3 3407   2.221   0.256   1.540 -1.6442 -0.9469 -0.5427
    1SOL    MW4 3408   2.200   0.336   1.566 -0.2024 -0.6192 -0.3403
    1SOL     OW 3409   2.443   0.508   1.473 -0.0315 -0.1760  0.1783
    1SOL    HW2 3410   2.516   0.456   1.508 -0.7656 -1.1356  0.3161
    1SOL    HW3 3411   2.365   0.459   1.499 -0.7845  1.4960  1.0913
    1SOL    MW4 3412   2.442   0.494   1.481 -0.2277 -0.0819  0.3171
    1SOL     OW 3413   2.432   0.758   1.583  0.0141 -0.2624  0.2102
    1SOL    HW2 3414   2.359   0.804   1.542  0.3478 -0.2880 -0.4277
    1SOL    HW3 3415   2.429   0.670   1.545  0.2460 -0.3284  0.3423
    1SOL    MW4 3416   2.422   0.752   1.572  0.0887 -0.2745  0.1434
    1SOL     OW 3417   2.223   0.890   1.455  0.0258 -0.1309  0.4515
    1SOL    HW2 3418   2.231   0.975   1.497  0.4164  0.2314 -0.3526
    1SOL    HW3 3419   2.158   0.843   1.508 -1.4703  1.2703 -0.0941
    1SOL    MW4 3420   2.215   0.895   1.468 -0.1202  0.1017  0.2735
    1SOL     OW 3421   2.217   1.135   1.593  0.0435  0.4968  0.2948
    1SOL    HW2 3422   2.216   1.136   1.689 -0.2215 -2.1914  0.3480
    1SOL    HW3 3423   2.134   1.176   1.568 -0.4524  0.0812  1.2460
    1SOL    MW4 3424   2.206   1.141   1.602 -0.0570  0.0873  0.4274
    1SOL     OW 3425   2.439   1.273   1.495  0.4338  0.5815 -0.5922
    1SOL    HW2 3426   2.370   1.230   1.545  1.9045  0.0107  0.9962
    1SOL    HW3 3427   2.421   1.249   1.404 -1.0613 -0.0910 -0.1421
    1SOL    MW4 3428   2.427   1.264   1.489  0.4303  0.4174 -0.3233
    1SOL     OW 3429   2.466   1.540   1.571 -0.2811  0.1951 -0.3838
    1SOL    HW2 3430   2.536   1.584   1.523  0.5925 -0.8413 -0.0724
    1SOL    HW3 3431   2.461   1.453   1.532 -2.6595  0.8376 -1.6589
    1SOL    MW4 3432   2.475   1.535   1.559 -0.4797  0.1432 -0.5111
    1SOL     OW 3433   2.248   1.673   1.509 -0.4152 -0.0503 -0.1821
    1SOL    HW2 3434   2.323   1.624   1.542 -1.3777 -1.0514  0.5548
    1SOL    HW3 3435   2.247   1.657   1.415 -0.5521 -1.2240  0.0162
    1SOL    MW4 3436   2.258   1.665   1.501 -0.5603 -0.3374 -0.0587
    1SOL     OW 3437   2.204   1.941   1.569  0.4786 -0.2986 -0.2151
    1SOL    HW2 3438   2.229   1.940   1.661  1.4951  0.0989 -0.4753
    1SOL    HW3 3439   2.226   1.854   1.536  0.2134 -0.4051 -0.1163
    1SOL    MW4 3440   2.210   1.930   1.577  0.5779 -0.2602 -0.2364
    1SOL     OW 3441   2.436   2.100   1.497  0.2989 -0.0158 -0.0746
    1SOL    HW2 3442   2.363   2.044   1.523  0.4902  0.3216  1.2048
    1SOL    HW3 3443   2.439   2.092   1.401 -1.7930  0.4356 -0.2058
    1SOL    MW4 3444   2.427   2.092   1.488  0.0484  0.0885  0.0770
    1SOL     OW 3445   2.457   2.345   1.624 -0.1490  0.2212  0.6013
    1SOL    HW2 3446   2.449   2.346   1.719  0.5562 -1.4720  0.7132
    1SOL    HW3 3447   2.438   2.254   1.600 -0.4373  0.6643 -0.8771
    1SOL    MW4 3448   2.454   2.333   1.633 -0.0939  0.0560  0.4210
    1SOL     OW 3449   2.258   2.439   1.448  0.4317  0.3860 -0.8498
    1SOL    HW2 3450   2.327   2.401   1.502 -0.1346 -0.0948 -0.4545
    1SOL    HW3 3451   2.177   2.418   1.494  0.0769  1.7090 -0.8654
    1SOL    MW4 3452   2.256   2.431   1.461  0.3104  0.4971 -0.7995
    1SOL     OW 3453   2.232   2.707   1.584  0.1503 -0.1615 -0.5138
    1SOL    HW2 3454   2.243   2.625   1.535  0.0235 -0.5385  0.0862
    1SOL    HW3 3455   2.170   2.758   1.532  0.2253 -0.4502 -0.8876
    1SOL    MW4 3456   2.225   2.703   1.571  0.1433 -0.2496 -0.4840
    1SOL     OW 3457   2.470   2.824   1.496 -0.4405 -0.5290  0.1435
    1SOL    HW2 3458   2.477   2.910   1.536 -0.5300 -0.6204  0.3591
    1SOL    HW3 3459   2.389   2.788   1.532 -1.0454 -0.2149 -0.8911
    1SOL    MW4 3460   2.460   2.830   1.506 -0.5317 -0.4992  0.0354
    1SOL     OW 3461   2.423   3.105   1.591 -0.0094 -0.1317  0.3505
    1SOL    HW2 3462   2.501   3.151   1.560 -0.4009 -0.0999 -0.6080
    1SOL    HW3 3463   2.350   3.151   1.550 -0.6175  0.5000  2.0594
    1SOL    MW4 3464   2.424   3.117   1.582 -0.1411 -0.0441  0.4494
    1SOL     OW 3465   2.231   3.257   1.437  0.6205 -0.0340 -0.2432
    1SOL    HW2 3466   2.226   3.343   1.477  1.5372 -0.3037  0.4678
    1SOL    HW3 3467   2.251   3.274   1.345  0.9717  0.5077 -0.0685
    1SOL    MW4 3468   2.233   3.270   1.430  0.7880  0.0019 -0.1264
    1SOL     OW 3469   2.226   3.493   1.564 -0.1443 -0.5429 -0.0066
    1SOL    HW2 3470   2.235   3.485   1.659 -1.1366  0.6722  0.2036
    1SOL    HW3 3471   2.302   3.545   1.537 -0.4394  0.0406  0.2724
    1SOL    MW4 3472   2.237   3.499   1.573 -0.3140 -0.3057  0.0579
    1SOL     OW 3473   2.418   3.656   1.459 -0.5848 -0.0909 -0.3020
    1SOL    HW2 3474   2.497   3.617   1.497 -0.4376 -1.4673 -1.9633
    1SOL    HW3 3475   2.412   3.742   1.500  1.6001 -0.0777  0.0729
    1SOL    MW4 3476   2.428   3.662   1.470 -0.2773 -0.2706 -0.4716
    1SOL     OW 3477   2.473   3.913   1.570  0.7833 -0.0641  0.2952
    1SOL    HW2 3478   2.476   3.917   1.666 -0.1736 -0.7444  0.3545
    1SOL    HW3 3479   2.548   3.965   1.542  0.7105  0.6526  1.4044
    1SOL    MW4 3480   2.484   3.920   1.579  0.6473 -0.0594  0.4493
    1SOL     OW 3481   2.223   4.006   1.444  0.1264 -0.0782 -0.0392
    1SOL    HW2 3482   2.307   3.973   1.475 -0.3768 -0.1526  1.2912
    1SOL    HW3 3483   2.236   4.022   1.350  1.5578 -0.2602  0.1177
    1SOL    MW4 3484   2.236   4.004   1.436  0.2489 -0.1125  0.1570
    1SOL     OW 3485   2.218   4.277   1.563 -0.0827 -0.2826 -0.1781
    1SOL    HW2 3486   2.293   4.311   1.513  0.6340  0.7611  1.5681
    1SOL    HW3 3487   2.230   4.182   1.563  0.8088 -0.1770 -0.5818
    1SOL    MW4 3488   2.229   4.269   1.556  0.1297 -0.1307 -0.0010
    1SOL     OW 3489   2.449   4.381   1.450 -0.4584 -0.2194 -0.0547
    1SOL    HW2 3490   2.448   4.466   1.494  0.0814 -0.5848  0.6836
    1SOL    HW3 3491   2.469   4.401   1.358 -0.7754  0.4862  0.0319
    1SOL    MW4 3492   2.452   4.395   1.444 -0.4289 -0.1750  0.0541
    1SOL     OW 3493   2.874   4.630   1.567 -0.1906  0.1077  0.2283
    1SOL    HW2 3494   2.885   4.643   1.661  0.3402  1.4103 -0.0006
    1SOL    HW3 3495   2.800   4.685   1.543  0.2728  0.5124 -0.2826
    1SOL    MW4 3496   2.866   4.639   1.576 -0.0598  0.3333  0.1308
    1SOL     OW 3497   2.645   0.090   1.462  0.0651 -0.0943  0.3134
    1SOL    HW2 3498   2.663   0.177   1.497 -0.5775 -0.4107  1.4269
    1SOL    HW3 3499   2.575   0.055   1.517  0.3154 -1.3137 -0.1227
    1SOL    MW4 3500   2.638   0.097   1.474  0.0136 -0.2969  0.4028
    1SOL     OW 3501   2.678   0.345   1.564  0.2598  0.1704 -0.4412
    1SOL    HW2 3502   2.683   0.365   1.658  1.1082  0.6261 -0.5761
    1SOL    HW3 3503   2.753   0.391   1.526 -0.3465  0.3772 -1.4139
    1SOL    MW4 3504   2.688   0.354   1.572  0.2918  0.2578 -0.5873
    1SOL     OW 3505   2.925   0.494   1.488  0.2280 -0.1830 -0.1619
    1SOL    HW2 3506   2.919   0.587   1.510  1.4883 -0.1810  0.2014
    1SOL    HW3 3507   2.936   0.493   1.393  0.5620  0.0647 -0.1292
    1SOL    MW4 3508   2.926   0.506   1.478  0.4382 -0.1501 -0.1098
    1SOL     OW 3509   2.910   0.760   1.577  0.4024 -0.2867  0.1684
    1SOL    HW2 3510   2.932   0.777   1.669  0.2149 -0.0100  0.1635
    1SOL    HW3 3511   2.824   0.801   1.565  0.7166  0.2295 -0.3069
    1SOL    MW4 3512   2.902   0.767   1.588  0.4189 -0.1821  0.1051
    1SOL     OW 3513   2.676   0.888   1.534  0.0198 -0.3084 -0.1365
    1SOL    HW2 3514   2.594   0.847   1.560 -0.6311  0.7978 -0.3987
    1SOL    HW3 3515   2.686   0.865   1.442  0.1125 -0.6196 -0.0490
    1SOL    MW4 3516   2.666   0.880   1.526 -0.0539 -0.2035 -0.1595
    1SOL     OW 3517   2.694   1.158   1.593  0.1959  0.0385  0.3798
    1SOL    HW2 3518   2.673   1.065   1.589  0.2718  0.0001  0.8787
    1SOL    HW3 3519   2.612   1.203   1.575 -0.3918 -0.1022  2.5531
    1SOL    MW4 3520   2.681   1.152   1.590  0.1283  0.0149  0.7323
    1SOL     OW 3521   2.904   1.229   1.442 -0.6495 -0.1082  0.1433
    1SOL    HW2 3522   2.977   1.222   1.503  0.9088 -0.5168 -1.7327
    1SOL    HW3 3523   2.831   1.185   1.487  0.8961 -1.8289  1.0300
    1SOL    MW4 3524   2.904   1.222   1.456 -0.2401 -0.3892  0.0128
    1SOL     OW 3525   2.852   1.493   1.572 -0.4498  0.3080  0.3275
    1SOL    HW2 3526   2.796   1.559   1.529 -0.2456  0.9713  1.0787
    1SOL    HW3 3527   2.844   1.416   1.516 -4.1823 -0.4746  1.7848
    1SOL    MW4 3528   2.843   1.492   1.559 -0.9155  0.2923  0.6188
    1SOL     OW 3529   2.685   1.681   1.451 -0.2068  0.0453 -0.0850
    1SOL    HW2 3530   2.666   1.771   1.478 -1.3851 -0.2982  0.2716
    1SOL    HW3 3531   2.686   1.684   1.356 -1.9761  0.1127 -0.1151
    1SOL    MW4 3532   2.683   1.693   1.442 -0.5956  0.0088 -0.0420
    1SOL     OW 3533   2.666   1.937   1.556 -0.1951  0.2067  0.1310
    1SOL    HW2 3534   2.673   1.914   1.649  0.5446  1.4790  0.3956
    1SOL    HW3 3535   2.585   1.988   1.550  0.5654  1.4595  0.3626
    1SOL    MW4 3536   2.656   1.940   1.568  0.0029  0.5399  0.1966
    1SOL     OW 3537   2.912   2.071   1.455  0.4306  0.3876  0.5201
    1SOL    HW2 3538   2.908   2.156   1.499  0.5723  1.2624 -1.1219
    1SOL    HW3 3539   2.831   2.027   1.480  1.1909  0.2461  2.8542
    1SOL    MW4 3540   2.901   2.076   1.464  0.5496  0.4842  0.6114
    1SOL     OW 3541   2.902   2.332   1.571  0.0960 -0.0618  0.3776
    1SOL    HW2 3542   2.897   2.335   1.667 -1.2306 -1.0399  0.3608
    1SOL    HW3 3543   2.819   2.370   1.542  0.8424  0.9811 -0.4060
    1SOL    MW4 3544   2.890   2.337   1.580  0.0196 -0.0532  0.2720
    1SOL     OW 3545   2.671   2.452   1.486 -0.3693  0.0589  0.1801
    1SOL    HW2 3546   2.689   2.532   1.536 -2.5210 -0.7218  2.2762
    1SOL    HW3 3547   2.598   2.411   1.531 -2.0836 -0.9893 -3.3242
    1SOL    MW4 3548   2.664   2.457   1.498 -0.8793 -0.1824 -0.0056
    1SOL     OW 3549   2.688   2.708   1.624  0.0489 -0.3225 -0.1629
    1SOL    HW2 3550   2.763   2.748   1.580  0.5166  1.1736  1.9364
    1SOL    HW3 3551   2.613   2.756   1.590  0.2466 -0.3292 -0.6154
    1SOL    MW4 3552   2.688   2.720   1.614  0.1366 -0.1259  0.0544
    1SOL     OW 3553   2.887   2.856   1.510  0.2683 -0.2419  0.0476
    1SOL    HW2 3554   2.974   2.829   1.539  0.3164  0.7293  0.8039
    1SOL    HW3 3555   2.871   2.940   1.553 -1.7373 -1.1842  1.2199
    1SOL    MW4 3556   2.896   2.864   1.519  0.0100 -0.2382  0.3021
    1SOL     OW 3557   2.852   3.123   1.585 -0.1890  0.0298 -0.0700
    1SOL    HW2 3558   2.850   3.116   1.681 -0.5308  0.4997 -0.0395
    1SOL    HW3 3559   2.936   3.164   1.566 -1.2022  2.3517  0.2092
    1SOL    MW4 3560   2.863   3.127   1.595 -0.3676  0.3982 -0.0292
    1SOL     OW 3561   2.637   3.252   1.469 -0.1619  0.5860 -0.0589
    1SOL    HW2 3562   2.719   3.208   1.489 -0.9413 -1.2390 -0.8031
    1SOL    HW3 3563   2.630   3.248   1.373 -1.9061 -0.7750  0.0885
    1SOL    MW4 3564   2.647   3.246   1.459 -0.4952  0.1657 -0.1376
    1SOL     OW 3565   2.657   3.515   1.540 -0.4524 -0.0830  0.1693
    1SOL    HW2 3566   2.680   3.517   1.633  0.1743 -0.0950  0.0188
    1SOL    HW3 3567   2.657   3.422   1.517  0.3541 -0.0362 -0.0660
    1SOL    MW4 3568   2.660   3.503   1.549 -0.2635 -0.0784  0.1185
    1SOL     OW 3569   2.919   3.576   1.474  0.5839 -0.5399  0.6210
    1SOL    HW2 3570   2.835   3.537   1.499 -0.2399  0.9246  0.1906
    1SOL    HW3 3571   2.914   3.585   1.379  1.2766 -0.5685  0.5858
    1SOL    MW4 3572   2.907   3.572   1.465  0.5667 -0.3505  0.5596
    1SOL     OW 3573   2.915   3.846   1.583  0.1799  0.0998 -0.1750
    1SOL    HW2 3574   2.857   3.904   1.534  1.0344 -0.5371 -1.9629
    1SOL    HW3 3575   2.904   3.760   1.542  1.1760 -0.3702  0.5205
    1SOL    MW4 3576   2.906   3.842   1.571  0.4241 -0.0463 -0.3190
    1SOL     OW 3577   2.717   4.033   1.492  0.5484 -0.1196  0.0582
    1SOL    HW2 3578   2.694   4.117   1.532  0.4185 -0.1047 -0.0507
    1SOL    HW3 3579   2.700   4.045   1.399  0.5717 -0.2532  0.0369
    1SOL    MW4 3580   2.712   4.045   1.485  0.5343 -0.1354  0.0411
    1SOL     OW 3581   2.648   4.273   1.598  0.4691  0.2828  0.0938
    1SOL    HW2 3582   2.726   4.306   1.554  0.7472  1.1056  1.1873
    1SOL    HW3 3583   2.575   4.300   1.542  0.8637  0.8033 -0.1704
    1SOL    MW4 3584   2.648   4.281   1.585  0.5579  0.4597  0.2033
    1SOL     OW 3585   2.873   4.365   1.487  0.2559  0.2181  0.2092
    1SOL    HW2 3586   2.889   4.458   1.501 -1.4753  0.5859 -0.1437
    1SOL    HW3 3587   2.867   4.356   1.391  2.5060 -0.6308  0.1160
    1SOL    MW4 3588   2.874   4.376   1.476  0.3242  0.1545  0.1503
    1SOL     OW 3589   3.356   4.649   1.603  0.1337  0.2355  0.0861
    1SOL    HW2 3590   3.430   4.694   1.561  0.9056 -0.4029  0.7342
    1SOL    HW3 3591   3.349   4.566   1.557 -2.3883  1.6791 -2.2549
    1SOL    MW4 3592   3.365   4.644   1.592 -0.0973  0.3419 -0.1373
    1SOL     OW 3593   3.126   0.094   1.503  0.4070 -0.0503  0.3909
    1SOL    HW2 3594   3.206   0.051   1.533  0.7742  0.4202  0.0826
    1SOL    HW3 3595   3.056   0.045   1.546  0.7971 -1.2417 -0.3193
    1SOL    MW4 3596   3.127   0.082   1.513  0.5069 -0.1454  0.2565
    1SOL     OW 3597   3.141   0.353   1.590  0.0246  0.3972  0.4198
    1SOL    HW2 3598   3.139   0.263   1.556 -0.2033  0.7309 -0.4510
    1SOL    HW3 3599   3.059   0.392   1.558 -0.1931  0.7125  1.3549
    1SOL    MW4 3600   3.130   0.346   1.581 -0.0341  0.4828  0.4282
    1SOL     OW 3601   3.371   0.503   1.542  0.4191 -0.1379 -0.2408
    1SOL    HW2 3602   3.288   0.461   1.563  0.1637  1.1869  1.5970
    1SOL    HW3 3603   3.370   0.512   1.447 -1.1608 -0.8906 -0.3222
    1SOL    MW4 3604   3.360   0.499   1.533  0.1769 -0.0624 -0.0091
    1SOL     OW 3605   3.363   0.790   1.596  0.0015 -0.1220  0.1415
    1SOL    HW2 3606   3.375   0.788   1.691 -1.8511  0.3438  0.3918
    1SOL    HW3 3607   3.370   0.698   1.569 -0.4657 -0.3630  0.8532
    1SOL    MW4 3608   3.366   0.777   1.605 -0.3047 -0.0924  0.2685
    1SOL     OW 3609   3.138   0.927   1.494  0.3189  0.7960  0.1307
    1SOL    HW2 3610   3.210   0.880   1.538  0.3674 -0.0115 -0.7810
    1SOL    HW3 3611   3.059   0.892   1.534  0.2907 -1.3191 -1.7138
    1SOL    MW4 3612   3.137   0.916   1.505  0.3216  0.4105 -0.2331
    1SOL     OW 3613   3.144   1.184   1.589 -0.2714  0.1140  0.2168
    1SOL    HW2 3614   3.131   1.168   1.682  2.8510 -1.0308  0.4948
    1SOL    HW3 3615   3.145   1.097   1.549  0.7241  0.4798 -0.5681
    1SOL    MW4 3616   3.142   1.171   1.596  0.2720  0.0111  0.1500
    1SOL     OW 3617   3.368   1.286   1.471  0.1138  0.1662 -0.3130
    1SOL    HW2 3618   3.442   1.240   1.512 -0.0491  1.1182  1.1002
    1SOL    HW3 3619   3.291   1.246   1.511 -0.0897  0.3130 -0.5603
    1SOL    MW4 3620   3.368   1.275   1.482  0.0653  0.3111 -0.1591
    1SOL     OW 3621   3.323   1.541   1.578 -0.1169  0.1295  0.5412
    1SOL    HW2 3622   3.332   1.545   1.673  0.9969 -2.1028  0.5689
    1SOL    HW3 3623   3.337   1.449   1.557 -2.1211  0.2732 -1.6261
    1SOL    MW4 3624   3.326   1.529   1.588 -0.2344 -0.1459  0.2588
    1SOL     OW 3625   3.096   1.646   1.502  0.1344 -0.5971  0.1340
    1SOL    HW2 3626   3.174   1.597   1.528  0.0516 -0.8617 -0.1170
    1SOL    HW3 3627   3.024   1.599   1.543  0.1771  0.1790  1.1419
    1SOL    MW4 3628   3.097   1.633   1.511  0.1292 -0.5295  0.2340
    1SOL     OW 3629   3.128   1.930   1.582 -0.6220 -0.4439  0.5007
    1SOL    HW2 3630   3.123   1.839   1.551 -0.2226 -0.0258 -0.8121
    1SOL    HW3 3631   3.061   1.976   1.531 -0.0538  0.2253  0.3656
    1SOL    MW4 3632   3.118   1.924   1.571 -0.4945 -0.3006  0.3096
    1SOL     OW 3633   3.367   2.054   1.530  0.0803  0.3390 -0.4539
    1SOL    HW2 3634   3.284   2.008   1.539  1.9951 -3.0976  0.6127
    1SOL    HW3 3635   3.370   2.082   1.438 -0.6170 -2.8671 -1.4948
    1SOL    MW4 3636   3.357   2.052   1.519  0.2406 -0.5372 -0.4505
    1SOL     OW 3637   3.357   2.323   1.630 -0.0088  0.3751 -0.4391
    1SOL    HW2 3638   3.426   2.367   1.580  0.1347 -1.2050 -1.6625
    1SOL    HW3 3639   3.377   2.230   1.623  0.1215  0.0916  2.7610
    1SOL    MW4 3640   3.368   2.316   1.622  0.0274  0.1292 -0.1785
    1SOL     OW 3641   3.132   2.471   1.503  0.2295  0.0161 -0.4354
    1SOL    HW2 3642   3.197   2.434   1.563 -0.6211  1.8792  1.7269
    1SOL    HW3 3643   3.051   2.424   1.524  0.0071  0.4230 -0.3789
    1SOL    MW4 3644   3.130   2.460   1.514  0.0880  0.3154 -0.1427
    1SOL     OW 3645   3.121   2.741   1.603  0.1636  0.4528 -0.3132
    1SOL    HW2 3646   3.190   2.789   1.559  1.3889 -0.7331  0.2853
    1SOL    HW3 3647   3.124   2.654   1.565 -0.2540  0.0688  0.5185
    1SOL    MW4 3648   3.130   2.736   1.592  0.2701  0.2453 -0.1246
    1SOL     OW 3649   3.368   2.845   1.500  0.1225  0.1430  0.6362
    1SOL    HW2 3650   3.352   2.936   1.524  1.0378  0.7061 -0.7975
    1SOL    HW3 3651   3.384   2.848   1.405  0.3219 -1.4797  0.6123
    1SOL    MW4 3652   3.368   2.858   1.490  0.2694  0.0031  0.4439
    1SOL     OW 3653   3.317   3.090   1.633 -0.9082  0.2133  0.3433
    1SOL    HW2 3654   3.334   3.068   1.725 -0.8670  0.0353  0.2926
    1SOL    HW3 3655   3.403   3.115   1.598 -1.1506  1.5915  0.7100
    1SOL    MW4 3656   3.331   3.090   1.641 -0.9348  0.3719  0.3849
    1SOL     OW 3657   3.114   3.229   1.533  0.1127  0.1443 -0.2836
    1SOL    HW2 3658   3.130   3.321   1.554 -0.9534  0.0032  1.2777
    1SOL    HW3 3659   3.186   3.183   1.575 -0.3772  0.1269  0.5645
    1SOL    MW4 3660   3.125   3.235   1.542 -0.0927  0.1235  0.0342
    1SOL     OW 3661   3.163   3.495   1.572  0.2481  0.2148 -0.3952
    1SOL    HW2 3662   3.157   3.497   1.667  1.3276  0.1137 -0.3172
    1SOL    HW3 3663   3.078   3.526   1.541 -0.8728 -1.7583  0.5895
    1SOL    MW4 3664   3.151   3.499   1.580  0.2429 -0.0589 -0.2549
    1SOL     OW 3665   3.385   3.610   1.476  0.5069  0.0996  0.5286
    1SOL    HW2 3666   3.450   3.560   1.525  1.3621  0.3785 -0.3025
    1SOL    HW3 3667   3.301   3.566   1.495  0.8152  0.2077  2.2201
    1SOL    MW4 3668   3.382   3.597   1.485  0.6604  0.1504  0.6421
    1SOL     OW 3669   3.375   3.834   1.610  0.0967 -0.1065  0.0842
    1SOL    HW2 3670   3.299   3.870   1.564 -0.4979 -0.8759  0.4572
    1SOL    HW3 3671   3.392   3.751   1.566 -0.3587 -0.7546  1.1380
    1SOL    MW4 3672   3.368   3.828   1.598 -0.0417 -0.2935  0.2725
    1SOL     OW 3673   3.158   3.987   1.509  0.2093 -0.1826 -0.1833
    1SOL    HW2 3674   3.133   4.080   1.516  0.0764 -0.1421 -1.1544
    1SOL    HW3 3675   3.086   3.940   1.550 -0.2957  0.0760 -0.7671
    1SOL    MW4 3676   3.145   3.993   1.515  0.1254 -0.1433 -0.3884
    1SOL     OW 3677   3.106   4.247   1.541  0.4428 -0.2876 -0.5057
    1SOL    HW2 3678   3.114   4.266   1.634  1.0751  1.3706 -0.8828
    1SOL    HW3 3679   3.015   4.267   1.520  0.0340 -1.6012 -0.0606
    1SOL    MW4 3680   3.095   4.252   1.550  0.4723 -0.2422 -0.4967
    1SOL     OW 3681   3.320   4.426   1.456 -0.3937  0.0228 -0.3596
    1SOL    HW2 3682   3.255   4.365   1.489 -0.0834 -0.1729 -0.1082
    1SOL    HW3 3683   3.315   4.417   1.360  0.1227 -0.8903 -0.3009
    1SOL    MW4 3684   3.311   4.417   1.447 -0.2847 -0.1230 -0.3188
    1SOL     OW 3685   3.799   0.016   1.575 -0.2271 -0.3336 -0.0811
    1SOL    HW2 3686   3.792   0.020   1.670  0.2789 -0.0199 -0.0514
    1SOL    HW3 3687   3.883   0.059   1.556 -1.2677  1.4488 -0.8139
    1SOL    MW4 3688   3.809   0.023   1.585 -0.2978 -0.0570 -0.1738
    1SOL     OW 3689   3.563   0.142   1.479  0.6338  0.0301 -0.1363
    1SOL    HW2 3690   3.640   0.107   1.522  0.8677 -0.6440 -1.0948
    1SOL    HW3 3691   3.581   0.134   1.385  0.0441  1.2701 -0.3737
    1SOL    MW4 3692   3.575   0.137   1.472  0.5870  0.1048 -0.2940
    1SOL     OW 3693   3.609   0.401   1.618  0.0419  0.0355 -0.0699
    1SOL    HW2 3694   3.607   0.322   1.564 -0.8948 -0.2558  0.3662
    1SOL    HW3 3695   3.526   0.445   1.598 -0.2808 -0.0348  1.0471
    1SOL    MW4 3696   3.598   0.396   1.608 -0.1242 -0.0122  0.1351
    1SOL     OW 3697   3.814   0.566   1.522 -0.2934 -0.3271  0.4694
    1SOL    HW2 3698   3.734   0.514   1.534 -0.9690  0.9402  1.4397
    1SOL    HW3 3699   3.830   0.562   1.427 -0.7861 -1.6183  0.4191
    1SOL    MW4 3700   3.806   0.558   1.511 -0.4475 -0.3303  0.5907
    1SOL     OW 3701   3.765   0.809   1.650  0.7445  0.5160 -0.0945
    1SOL    HW2 3702   3.697   0.830   1.586  0.5996  0.5523  0.0694
    1SOL    HW3 3703   3.800   0.725   1.622 -0.4214 -0.2436  0.6880
    1SOL    MW4 3704   3.760   0.801   1.638  0.5717  0.4206  0.0304
    1SOL     OW 3705   3.564   0.913   1.471  0.5292 -0.2585  0.3848
    1SOL    HW2 3706   3.486   0.864   1.495 -1.0142  2.0216  0.1160
    1SOL    HW3 3707   3.565   0.912   1.375  1.0801 -0.6294  0.3886
    1SOL    MW4 3708   3.554   0.906   1.462  0.3982 -0.0066  0.3498
    1SOL     OW 3709   3.566   1.161   1.600  0.6330  0.0321  0.4696
    1SOL    HW2 3710   3.642   1.213   1.575 -2.3401  2.8650 -3.2447
    1SOL    HW3 3711   3.576   1.079   1.551  0.5979  1.0032 -1.2135
    1SOL    MW4 3712   3.577   1.157   1.590  0.2358  0.5341 -0.2425
    1SOL     OW 3713   3.791   1.316   1.508 -0.0573  0.2993 -0.1190
    1SOL    HW2 3714   3.858   1.263   1.551 -0.1695  0.6260  0.4783
    1SOL    HW3 3715   3.812   1.406   1.535 -0.5993  0.4234 -0.1088
    1SOL    MW4 3716   3.802   1.321   1.518 -0.1435  0.3587 -0.0389
    1SOL     OW 3717   3.800   1.576   1.585 -0.3164  0.1575 -0.3624
    1SOL    HW2 3718   3.782   1.592   1.678 -1.5479  2.2287 -0.9120
    1SOL    HW3 3719   3.718   1.596   1.541  0.3500 -0.4852 -1.9290
    1SOL    MW4 3720   3.787   1.581   1.591 -0.3910  0.3459 -0.6415
    1SOL     OW 3721   3.546   1.657   1.475 -0.1263  0.0839  0.2465
    1SOL    HW2 3722   3.470   1.602   1.496 -0.5667  0.6142  0.0609
    1SOL    HW3 3723   3.540   1.671   1.381  1.1562 -1.2689 -0.0423
    1SOL    MW4 3724   3.535   1.651   1.466 -0.0153 -0.0246  0.1839
    1SOL     OW 3725   3.601   1.906   1.623  0.1936 -0.3564  0.5608
    1SOL    HW2 3726   3.602   1.815   1.593 -1.2355 -0.3346  0.3966
    1SOL    HW3 3727   3.514   1.939   1.598  1.5198  1.7659 -1.4783
    1SOL    MW4 3728   3.589   1.898   1.616  0.1802 -0.0734  0.2700
    1SOL     OW 3729   3.798   2.081   1.478 -0.1613  0.2691  0.1056
    1SOL    HW2 3730   3.794   2.167   1.520  0.6011 -0.3492  1.4733
    1SOL    HW3 3731   3.718   2.037   1.508  0.0222  0.0867  0.3253
    1SOL    MW4 3732   3.787   2.087   1.487 -0.0365  0.1636  0.3150
    1SOL     OW 3733   3.811   2.352   1.574  0.4505  0.0763  0.4208
    1SOL    HW2 3734   3.791   2.349   1.667 -0.1973 -1.2338  0.2431
    1SOL    HW3 3735   3.891   2.405   1.568 -0.2323  1.2628  1.5832
    1SOL    MW4 3736   3.819   2.359   1.585  0.2747  0.0598  0.5507
    1SOL     OW 3737   3.566   2.446   1.496 -0.2510 -0.1203  0.0830
    1SOL    HW2 3738   3.564   2.540   1.515  0.5034 -0.2177  0.6704
    1SOL    HW3 3739   3.655   2.419   1.519 -1.0328 -1.3548  1.7430
    1SOL    MW4 3740   3.577   2.455   1.502 -0.2546 -0.2959  0.3797
    1SOL     OW 3741   3.592   2.705   1.578  0.5032  0.2095 -0.2008
    1SOL    HW2 3742   3.591   2.680   1.670  0.9022 -0.1862 -0.2974
    1SOL    HW3 3743   3.515   2.759   1.566  0.5075  0.3464  0.3910
    1SOL    MW4 3744   3.582   2.709   1.589  0.5565  0.1750 -0.1354
    1SOL     OW 3745   3.849   2.810   1.518 -0.0654  0.2137  0.5730
    1SOL    HW2 3746   3.914   2.766   1.573 -0.9602 -1.6226  0.2128
    1SOL    HW3 3747   3.766   2.767   1.540 -0.7204  0.7034 -0.8727
    1SOL    MW4 3748   3.847   2.798   1.528 -0.2697  0.0362  0.3347
    1SOL     OW 3749   3.803   3.061   1.633  0.3136 -0.4044 -0.1162
    1SOL    HW2 3750   3.876   3.108   1.593  1.4481 -1.7215  0.4032
    1SOL    HW3 3751   3.810   2.972   1.600  0.5383 -1.2116  2.0336
    1SOL    MW4 3752   3.814   3.055   1.623  0.4928 -0.6847  0.2360
    1SOL     OW 3753   3.566   3.184   1.555 -0.3321 -0.2146  0.1636
    1SOL    HW2 3754   3.648   3.149   1.590  0.5357  1.2092 -0.3723
    1SOL    HW3 3755   3.585   3.197   1.462 -1.3775 -0.4555 -0.0824
    1SOL    MW4 3756   3.580   3.181   1.547 -0.3557 -0.0584  0.0606
    1SOL     OW 3757   3.589   3.463   1.632 -0.1339  0.4814 -0.0551
    1SOL    HW2 3758   3.669   3.500   1.595 -0.1128  1.5450  1.0204
    1SOL    HW3 3759   3.598   3.369   1.618  1.9302  0.4431  1.2353
    1SOL    MW4 3760   3.601   3.456   1.625  0.1411  0.6166  0.2570
    1SOL     OW 3761   3.807   3.605   1.524 -0.2572 -0.2316 -0.5101
    1SOL    HW2 3762   3.881   3.563   1.568  0.2857 -0.4611 -1.6192
    1SOL    HW3 3763   3.807   3.694   1.557  0.1410 -0.3998 -0.0439
    1SOL    MW4 3764   3.817   3.611   1.535 -0.1333 -0.2840 -0.5949
    1SOL     OW 3765   3.813   3.888   1.577 -0.4954  0.0375 -0.0945
    1SOL    HW2 3766   3.886   3.943   1.551  0.3987 -1.9068 -1.8237
    1SOL    HW3 3767   3.735   3.938   1.552  0.3021  0.4352 -1.8714
    1SOL    MW4 3768   3.812   3.901   1.570 -0.2723 -0.1667 -0.5572
    1SOL     OW 3769   3.581   4.011   1.486 -0.0571  0.0653 -0.4163
    1SOL    HW2 3770   3.560   4.104   1.497 -1.7696 -0.1819 -1.5019
    1SOL    HW3 3771   3.508   3.965   1.527  0.0393 -0.8050 -1.2177
    1SOL    MW4 3772   3.569   4.017   1.493 -0.2701 -0.0820 -0.6652
    1SOL     OW 3773   3.573   4.295   1.563  0.6489  0.1296  0.1992
    1SOL    HW2 3774   3.563   4.280   1.657  0.2958 -0.1835  0.1120
    1SOL    HW3 3775   3.494   4.343   1.538 -0.3320 -1.7344 -0.3601
    1SOL    MW4 3776   3.561   4.300   1.572  0.4730 -0.1578  0.1138
    1SOL     OW 3777   3.805   4.422   1.473  0.4039 -0.1443 -0.5228
    1SOL    HW2 3778   3.725   4.381   1.506  0.5511  0.4479  0.5926
    1SOL    HW3 3779   3.804   4.509   1.512  1.1507  0.1670 -1.2124
    1SOL    MW4 3780   3.794   4.428   1.483  0.5217 -0.0248 -0.4666
    1SOL     OW 3781   4.252   0.006   1.570  0.1278  0.0182  0.5692
    1SOL    HW2 3782   4.263   0.011   1.665 -1.4636  0.4300  0.7556
    1SOL    HW3 3783   4.234  -0.087   1.554  0.0349  0.0076  0.7233
    1SOL    MW4 3784   4.251  -0.006   1.581 -0.0939  0.0711  0.6142
    1SOL     OW 3785   4.028   0.153   1.494 -0.4954 -0.2018  0.1071
    1SOL    HW2 3786   4.033   0.239   1.535 -0.7048 -0.3082  0.3575
    1SOL    HW3 3787   4.107   0.108   1.523 -0.1999  0.0313 -0.3186
    1SOL    MW4 3788   4.039   0.158   1.503 -0.4840 -0.1851  0.0839
    1SOL     OW 3789   4.027   0.422   1.600 -0.7294 -0.2997 -0.2090
    1SOL    HW2 3790   4.012   0.425   1.695  0.1951 -2.1326  0.0165
    1SOL    HW3 3791   3.961   0.480   1.564 -0.2717  1.4518  1.6507
    1SOL    MW4 3792   4.016   0.430   1.608 -0.5469 -0.3104  0.0662
    1SOL     OW 3793   4.276   0.514   1.508  0.2021  0.3888 -0.0995
    1SOL    HW2 3794   4.193   0.474   1.534  0.3543 -0.2813 -0.6385
    1SOL    HW3 3795   4.343   0.463   1.553  0.3216  1.0231  0.4522
    1SOL    MW4 3796   4.274   0.502   1.517  0.2384  0.3841 -0.0979
    1SOL     OW 3797   4.236   0.781   1.578 -0.0863  0.1835  0.0528
    1SOL    HW2 3798   4.258   0.690   1.556  1.0462  0.4174  0.1518
    1SOL    HW3 3799   4.311   0.832   1.546 -1.1290  1.1910 -0.7996
    1SOL    MW4 3800   4.249   0.775   1.571 -0.0744  0.3473 -0.0466
    1SOL     OW 3801   3.994   0.901   1.502  0.0607  0.6613 -0.0653
    1SOL    HW2 3802   4.070   0.864   1.547 -0.3604 -2.0506 -1.4926
    1SOL    HW3 3803   3.919   0.874   1.555 -0.2357 -0.3060 -0.9790
    1SOL    MW4 3804   3.994   0.893   1.515 -0.0339  0.1758 -0.3742
    1SOL     OW 3805   3.985   1.166   1.623 -0.0141 -0.0913  0.1805
    1SOL    HW2 3806   3.994   1.154   1.718  2.0895  0.7941  0.1178
    1SOL    HW3 3807   3.980   1.077   1.588  1.0504 -0.4751  0.9777
    1SOL    MW4 3808   3.986   1.152   1.631  0.4039 -0.0250  0.2776
    1SOL     OW 3809   4.215   1.312   1.505 -0.2356  0.1546  0.4650
    1SOL    HW2 3810   4.151   1.257   1.548 -1.2859 -0.4918 -1.8591
    1SOL    HW3 3811   4.300   1.275   1.530 -0.7857  0.2626  2.5370
    1SOL    MW4 3812   4.218   1.300   1.514 -0.4468  0.0834  0.4318
    1SOL     OW 3813   4.225   1.582   1.579 -0.2652 -0.3250 -0.7434
    1SOL    HW2 3814   4.234   1.493   1.546 -0.6296 -0.7083  0.1610
    1SOL    HW3 3815   4.310   1.623   1.564  0.1356 -1.0629 -0.4885
    1SOL    MW4 3816   4.238   1.576   1.573 -0.2604 -0.4730 -0.5904
    1SOL     OW 3817   4.018   1.712   1.464  0.2642  0.2675  0.0782
    1SOL    HW2 3818   4.085   1.656   1.503  1.2465  0.9653 -0.5760
    1SOL    HW3 3819   3.936   1.678   1.498  0.9157 -0.9048  0.5162
    1SOL    MW4 3820   4.016   1.700   1.474  0.4797  0.2048  0.0497
    1SOL     OW 3821   4.035   1.962   1.577  0.3666  0.1998 -0.0193
    1SOL    HW2 3822   4.029   1.872   1.544 -0.7355  0.7014 -1.2191
    1SOL    HW3 3823   3.952   2.002   1.551 -0.1357  0.9056  2.5063
    1SOL    MW4 3824   4.023   1.955   1.569  0.1554  0.3592  0.1556
    1SOL     OW 3825   4.304   2.051   1.490  0.3070  0.4876  0.2473
    1SOL    HW2 3826   4.236   1.994   1.525  0.7617 -0.4924 -0.4576
    1SOL    HW3 3827   4.274   2.075   1.402 -0.4926  2.3739  1.0070
    1SOL    MW4 3828   4.291   2.047   1.483  0.2618  0.6073  0.2545
    1SOL     OW 3829   4.229   2.301   1.588 -0.1521  0.1672  0.1273
    1SOL    HW2 3830   4.231   2.308   1.683  1.9282  1.2800  0.0345
    1SOL    HW3 3831   4.250   2.209   1.570  0.1889  0.1258  0.7299
    1SOL    MW4 3832   4.232   2.289   1.598  0.1678  0.3088  0.1945
    1SOL     OW 3833   4.061   2.490   1.476 -0.1020  0.0463 -0.3324
    1SOL    HW2 3834   4.063   2.559   1.543  0.5805  0.6731 -0.9892
    1SOL    HW3 3835   4.120   2.422   1.509 -0.2112  0.1008 -0.0264
    1SOL    MW4 3836   4.069   2.490   1.489 -0.0267  0.1361 -0.3787
    1SOL     OW 3837   4.052   2.690   1.665  0.0148  0.2773 -0.1153
    1SOL    HW2 3838   4.064   2.709   1.758 -0.7198 -1.7383  0.4026
    1SOL    HW3 3839   4.112   2.750   1.621 -0.5311  2.1153  1.5823
    1SOL    MW4 3840   4.062   2.700   1.671 -0.1540  0.2542  0.1770
    1SOL     OW 3841   4.214   2.853   1.519 -0.4577  0.3142 -0.3156
    1SOL    HW2 3842   4.241   2.933   1.563  0.8355 -0.0014 -0.5131
    1SOL    HW3 3843   4.232   2.869   1.426  0.8915 -0.6220 -0.2264
    1SOL    MW4 3844   4.220   2.865   1.512 -0.1087  0.1493 -0.3300
    1SOL     OW 3845   4.264   3.092   1.622  0.1391 -0.4351  0.2063
    1SOL    HW2 3846   4.251   3.105   1.716  0.4534 -0.7982  0.3004
    1SOL    HW3 3847   4.342   3.144   1.601 -0.4709  0.3993 -0.0376
    1SOL    MW4 3848   4.272   3.101   1.631  0.1001 -0.3726  0.1866
    1SOL     OW 3849   4.008   3.214   1.514 -0.3065  0.0603 -0.0306
    1SOL    HW2 3850   4.024   3.303   1.546 -0.0539 -0.3498  0.9885
    1SOL    HW3 3851   4.090   3.168   1.530 -0.6044 -0.4994 -0.1129
    1SOL    MW4 3852   4.021   3.220   1.520 -0.3123 -0.0677  0.0929
    1SOL     OW 3853   4.034   3.463   1.631 -0.1369 -0.0653  0.9138
    1SOL    HW2 3854   4.047   3.465   1.726  1.6533  1.7420  0.6496
    1SOL    HW3 3855   4.109   3.510   1.596 -1.2516  0.0319 -1.3689
    1SOL    MW4 3856   4.045   3.469   1.639 -0.0472  0.1862  0.5776
    1SOL     OW 3857   4.253   3.615   1.504 -0.8955  0.2827  0.4752
    1SOL    HW2 3858   4.279   3.699   1.540  1.1631 -0.0263 -0.1849
    1SOL    HW3 3859   4.247   3.629   1.410 -2.0146  0.0612  0.5138
    1SOL    MW4 3860   4.256   3.628   1.496 -0.7725  0.2127  0.3932
    1SOL     OW 3861   4.265   3.884   1.590  0.1610  0.1392 -0.3903
    1SOL    HW2 3862   4.183   3.927   1.565 -0.0239  1.6104  2.4705
    1SOL    HW3 3863   4.333   3.941   1.554 -0.0975  2.4241  2.4866
    1SOL    MW4 3864   4.263   3.897   1.582  0.1025  0.6349  0.3667
    1SOL     OW 3865   4.047   4.013   1.473 -0.1375 -0.2810  0.0475
    1SOL    HW2 3866   4.033   4.107   1.487  1.0934 -0.3033  1.6236
    1SOL    HW3 3867   4.050   4.003   1.378  0.6309  1.4442 -0.1334
    1SOL    MW4 3868   4.046   4.024   1.462  0.1264 -0.0567  0.2315
    1SOL     OW 3869   4.028   4.267   1.562  0.5070 -0.1981 -0.3929
    1SOL    HW2 3870   4.020   4.249   1.656 -0.7577 -3.3361 -1.0215
    1SOL    HW3 3871   3.954   4.324   1.542  1.2610  1.1656  0.6562
    1SOL    MW4 3872   4.018   4.272   1.572  0.4396 -0.4311 -0.3375
    1SOL     OW 3873   4.255   4.409   1.520 -0.3861  0.1711 -0.7366
    1SOL    HW2 3874   4.175   4.358   1.534 -0.6485  0.5622 -0.8164
    1SOL    HW3 3875   4.275   4.398   1.427 -0.8324  0.7846 -0.9071
    1SOL    MW4 3876   4.247   4.400   1.510 -0.4792  0.3037 -0.7697
    1SOL     OW 3877   0.176   4.644   1.888  0.5646  0.0200 -0.4971
    1SOL    HW2 3878   0.264   4.672   1.914  1.1806  0.0142 -2.4740
    1SOL    HW3 3879   0.181   4.637   1.792 -1.3033 -0.9657 -0.5363
    1SOL    MW4 3880   0.188   4.647   1.879  0.3994 -0.1106 -0.7632
    1SOL     OW 3881   4.447   0.071   2.012  0.6247  0.2059 -0.0715
    1SOL    HW2 3882   4.430   0.148   1.958  1.4757 -0.6280 -1.5638
    1SOL    HW3 3883   4.521   0.028   1.969  0.4943 -1.1526  1.0464
    1SOL    MW4 3884   4.454   0.075   1.999  0.7200 -0.0834 -0.1210
    1SOL     OW 3885   4.429   0.337   1.877  0.3544 -0.2796 -0.3462
    1SOL    HW2 3886   4.368   0.409   1.890 -0.4544 -0.8556 -0.9202
    1SOL    HW3 3887   4.514   0.372   1.905  0.0779  1.0950 -1.1941
    1SOL    MW4 3888   4.432   0.351   1.882  0.2117 -0.1742 -0.5338
    1SOL     OW 3889   0.150   0.466   1.974 -0.2598  0.5378  0.4938
    1SOL    HW2 3890   0.234   0.427   1.948  0.3675  1.3482  1.2741
    1SOL    HW3 3891   0.158   0.558   1.948 -1.4764  0.3013 -0.7550
    1SOL    MW4 3892   0.162   0.473   1.967 -0.3375  0.6135  0.4320
    1SOL     OW 3893   0.185   0.733   1.884 -0.0235  0.0102  0.1071
    1SOL    HW2 3894   0.268   0.778   1.901 -0.0388 -0.2669  0.9561
    1SOL    HW3 3895   0.170   0.743   1.790  0.3690  1.0961  0.1586
    1SOL    MW4 3896   0.194   0.740   1.874  0.0262  0.1169  0.2259
    1SOL     OW 3897   4.486   0.929   1.994 -0.0560 -0.2435 -0.2295
    1SOL    HW2 3898   4.408   0.886   1.959  0.2695  1.5018 -3.2756
    1SOL    HW3 3899   4.559   0.875   1.963  0.1465  0.2355 -0.5831
    1SOL    MW4 3900   4.485   0.916   1.986  0.0138  0.0500 -0.6779
    1SOL     OW 3901   4.447   1.154   1.854  0.2685  0.1623  0.1127
    1SOL    HW2 3902   4.365   1.186   1.892 -0.4277 -0.8536 -0.5190
    1SOL    HW3 3903   4.464   1.071   1.900  2.0143  1.3432  1.6781
    1SOL    MW4 3904   4.439   1.147   1.865  0.4072  0.1842  0.2360
    1SOL     OW 3905   0.200   1.274   1.958 -0.0614  0.1455  0.4358
    1SOL    HW2 3906   0.175   1.360   1.924 -0.8164  0.4372  1.7028
    1SOL    HW3 3907   0.127   1.216   1.934  0.4960 -0.1771 -0.5125
    1SOL    MW4 3908   0.187   1.277   1.950 -0.0875  0.1415  0.4779
    1SOL     OW 3909   0.176   1.539   1.881  0.1618  0.1745 -0.0213
    1SOL    HW2 3910   0.249   1.580   1.928  0.2326 -1.5270  1.3831
    1SOL    HW3 3911   0.098   1.583   1.915  0.4940  1.9123 -1.4384
    1SOL    MW4 3912   0.175   1.550   1.892  0.2150  0.1792 -0.0230
    1SOL     OW 3913   4.416   1.673   1.937  0.4557  0.6848 -0.1115
    1SOL    HW2 3914   4.441   1.656   2.028  0.1575 -1.6425 -0.4354
    1SOL    HW3 3915   4.331   1.630   1.928  0.7877  0.3449 -1.6613
    1SOL    MW4 3916   4.408   1.665   1.948  0.4597  0.3328 -0.3586
    1SOL     OW 3917   4.444   1.938   1.910 -0.0263 -0.2110 -0.1867
    1SOL    HW2 3918   4.371   1.988   1.945  0.3894  0.0714  0.2889
    1SOL    HW3 3919   4.420   1.847   1.924  0.7628 -0.1065  2.1969
    1SOL    MW4 3920   4.431   1.933   1.917  0.1326 -0.1601  0.1906
    1SOL     OW 3921   0.189   2.048   2.002 -0.0816  0.7019 -0.2466
    1SOL    HW2 3922   0.174   2.130   1.955  1.2877 -0.5412 -2.9504
    1SOL    HW3 3923   0.112   1.995   1.982 -0.0509  0.5890 -0.0669
    1SOL    MW4 3924   0.177   2.052   1.993  0.1031  0.5231 -0.5796
    1SOL     OW 3925   0.195   2.307   1.871  0.0288  0.0413  0.2965
    1SOL    HW2 3926   0.266   2.351   1.918 -0.9523 -0.0461  1.8718
    1SOL    HW3 3927   0.118   2.360   1.888 -0.8475 -1.4066  0.8844
    1SOL    MW4 3928   0.195   2.319   1.879 -0.2163 -0.1614  0.5819
    1SOL     OW 3929   4.484   2.447   1.983  0.2213  0.0129 -0.4855
    1SOL    HW2 3930   4.469   2.429   2.076  1.2556  0.3721 -0.2387
    1SOL    HW3 3931   4.479   2.542   1.976  1.4410  0.0771 -0.5540
    1SOL    MW4 3932   4.481   2.457   1.994  0.5183  0.0687 -0.4618
    1SOL     OW 3933   0.013   2.720   1.911 -0.6232  0.5031 -0.0717
    1SOL    HW2 3934  -0.048   2.785   1.945 -1.4431 -0.2645 -0.0500
    1SOL    HW3 3935  -0.019   2.701   1.823  0.2290  0.8929 -0.4780
    1SOL    MW4 3936   0.001   2.726   1.904 -0.6189  0.4532 -0.1224
    1SOL     OW 3937   0.256   2.834   1.951 -0.5483 -0.1562 -0.4502
    1SOL    HW2 3938   0.247   2.924   1.921 -0.7959 -0.8119 -2.4017
    1SOL    HW3 3939   0.168   2.798   1.947 -0.8011  0.0443  2.1923
    1SOL    MW4 3940   0.243   2.841   1.947 -0.6143 -0.2162 -0.3591
    1SOL     OW 3941   0.205   3.104   1.908 -0.1551  0.6677 -0.4928
    1SOL    HW2 3942   0.289   3.141   1.936  0.9630 -0.1146 -2.7688
    1SOL    HW3 3943   0.205   3.112   1.813 -1.5019 -1.7633 -0.7482
    1SOL    MW4 3944   0.216   3.110   1.899 -0.1853  0.2437 -0.8267
    1SOL     OW 3945   4.480   3.261   1.986 -0.1277 -0.0304  0.7909
    1SOL    HW2 3946   4.396   3.225   1.957 -0.3758  1.2370 -0.0697
    1SOL    HW3 3947   4.545   3.206   1.942 -0.5084  0.7281 -0.7775
    1SOL    MW4 3948   4.478   3.249   1.976 -0.2108  0.2367  0.4704
    1SOL     OW 3949   4.489   3.519   1.856 -0.0133  0.3357  0.2142
    1SOL    HW2 3950   4.566   3.566   1.888  0.6167  0.2596 -1.1282
    1SOL    HW3 3951   4.490   3.436   1.904 -0.1649  0.9850  1.3549
    1SOL    MW4 3952   4.500   3.514   1.866  0.0496  0.4113  0.1875
    1SOL     OW 3953   0.223   3.652   1.948 -0.1715  0.3368  0.3823
    1SOL    HW2 3954   0.217   3.627   2.040  1.6964 -0.1046  0.4199
    1SOL    HW3 3955   0.310   3.622   1.921 -0.7664  0.2785 -1.5832
    1SOL    MW4 3956   0.234   3.645   1.956 -0.0035  0.2711  0.1279
    1SOL     OW 3957   0.253   3.901   1.864 -0.2148  0.3719  0.1547
    1SOL    HW2 3958   0.334   3.924   1.909  0.2672 -0.4636 -0.2705
    1SOL    HW3 3959   0.232   3.813   1.896 -1.3036  0.8303  0.7451
    1SOL    MW4 3960   0.261   3.892   1.874 -0.2949  0.3221  0.1764
    1SOL     OW 3961   0.016   3.985   1.971  0.0021 -0.1186 -0.1380
    1SOL    HW2 3962   0.019   4.076   1.940 -0.5496 -0.2983 -0.7400
    1SOL    HW3 3963   0.094   3.945   1.932 -0.3803 -0.1967 -0.8315
    1SOL    MW4 3964   0.027   3.992   1.962 -0.1212 -0.1528 -0.3089
    1SOL     OW 3965   4.464   4.255   1.871  0.1013  0.2912  0.5079
    1SOL    HW2 3966   4.380   4.298   1.886  0.4346  0.6861  1.2824
    1SOL    HW3 3967   4.527   4.310   1.918  0.8745  0.3324 -0.5792
    1SOL    MW4 3968   4.461   4.268   1.879  0.2470  0.3481  0.4668
    1SOL     OW 3969   0.200   4.367   1.974 -0.2821  0.1544  0.2790
    1SOL    HW2 3970   0.180   4.366   2.068 -2.9017  1.6075 -0.2055
    1SOL    HW3 3971   0.195   4.459   1.949  2.2169 -0.0232 -0.9508
    1SOL    MW4 3972   0.197   4.379   1.983 -0.2980  0.3233  0.0529
    1SOL     OW 3973   0.666   0.024   1.888 -0.4495 -0.2756 -0.1079
    1SOL    HW2 3974   0.672  -0.068   1.915 -0.2637 -0.1851  0.1623
    1SOL    HW3 3975   0.677   0.022   1.793  0.6046 -0.4338  0.0133
    1SOL    MW4 3976   0.668   0.012   1.879 -0.2859 -0.2845 -0.0563
    1SOL     OW 3977   0.426   0.107   1.981 -0.2520 -0.2056 -0.1149
    1SOL    HW2 3978   0.415   0.195   1.946 -0.6104 -0.2958 -0.2312
    1SOL    HW3 3979   0.513   0.079   1.950 -0.7588 -0.4628 -1.3278
    1SOL    MW4 3980   0.436   0.115   1.973 -0.3662 -0.2514 -0.2902
    1SOL     OW 3981   0.405   0.359   1.884 -0.7210  0.0194  0.1623
    1SOL    HW2 3982   0.490   0.399   1.903 -1.1033  0.7252  0.4225
    1SOL    HW3 3983   0.399   0.359   1.789 -0.0498 -0.8575  0.1116
    1SOL    MW4 3984   0.415   0.364   1.874 -0.6829 -0.0032  0.1898
    1SOL     OW 3985   0.613   0.520   1.982  0.3037 -0.0510 -0.3852
    1SOL    HW2 3986   0.599   0.511   2.077  1.7054  0.5636 -0.0957
    1SOL    HW3 3987   0.695   0.472   1.967  0.3203  0.2437 -1.2198
    1SOL    MW4 3988   0.622   0.512   1.993  0.4908  0.0689 -0.4572
    1SOL     OW 3989   0.643   0.767   1.885  0.2573  0.7806 -0.4109
    1SOL    HW2 3990   0.714   0.806   1.936  0.9189  0.1165 -0.8132
    1SOL    HW3 3991   0.639   0.676   1.915 -0.5082  0.8455 -0.3013
    1SOL    MW4 3992   0.652   0.760   1.895  0.2437  0.7016 -0.4495
    1SOL     OW 3993   0.418   0.867   1.968 -0.2302  0.2702 -0.1741
    1SOL    HW2 3994   0.414   0.866   2.064 -1.2345  2.7120 -0.1524
    1SOL    HW3 3995   0.505   0.833   1.947  0.3509  0.5973  1.6191
    1SOL    MW4 3996   0.429   0.862   1.978 -0.2860  0.6355  0.0653
    1SOL     OW 3997   0.409   1.126   1.853 -0.0462  0.3627 -0.1812
    1SOL    HW2 3998   0.331   1.169   1.889 -1.5671 -0.7798 -2.0246
    1SOL    HW3 3999   0.408   1.039   1.893  0.3924  0.3989 -0.0893
    1SOL    MW4 4000   0.398   1.120   1.863 -0.1890  0.2167 -0.4123
    1SOL     OW 4001   0.649   1.246   1.958  0.1381 -0.0460  0.2090
    1SOL    HW2 4002   0.649   1.235   2.053  0.8465 -1.8205  0.0062
    1SOL    HW3 4003   0.568   1.204   1.929  0.0832  0.2086 -0.0084
    1SOL    MW4 4004   0.638   1.239   1.967  0.2243 -0.2466  0.1534
    1SOL     OW 4005   0.653   1.528   1.855 -0.6786  0.3277 -0.0404
    1SOL    HW2 4006   0.651   1.437   1.885 -0.6598  0.6378  0.9133
    1SOL    HW3 4007   0.652   1.522   1.760 -0.2806 -0.6815  0.0169
    1SOL    MW4 4008   0.653   1.515   1.847 -0.6236  0.2354  0.0929
    1SOL     OW 4009   0.427   1.655   1.959 -0.2287 -0.4042 -0.0021
    1SOL    HW2 4010   0.444   1.655   2.053 -1.9235 -1.8783  0.3364
    1SOL    HW3 4011   0.510   1.630   1.919  0.6785  0.8900  1.0579
    1SOL    MW4 4012   0.440   1.651   1.966 -0.3326 -0.4281  0.1826
    1SOL     OW 4013   0.410   1.918   1.874 -0.1548 -0.2082 -0.2145
    1SOL    HW2 4014   0.403   1.829   1.907  0.4179 -0.2154 -0.0971
    1SOL    HW3 4015   0.346   1.968   1.925 -1.1230 -0.7324 -0.9254
    1SOL    MW4 4016   0.401   1.913   1.885 -0.2070 -0.2784 -0.2929
    1SOL     OW 4017   0.655   2.023   1.951  0.2961  0.0782 -0.0685
    1SOL    HW2 4018   0.639   2.046   2.042  0.1778  0.8604 -0.2856
    1SOL    HW3 4019   0.572   1.983   1.922  1.4550 -3.4696  1.1672
    1SOL    MW4 4020   0.642   2.021   1.959  0.4334 -0.2866  0.0658
    1SOL     OW 4021   0.694   2.303   1.886 -0.2921 -0.5001  0.2182
    1SOL    HW2 4022   0.688   2.208   1.901 -0.3098 -0.6621 -0.8058
    1SOL    HW3 4023   0.678   2.313   1.793 -0.5711  0.5449  0.3787
    1SOL    MW4 4024   0.691   2.291   1.876 -0.3313 -0.3836  0.1043
    1SOL     OW 4025   0.454   2.438   1.956 -0.2860  0.2032 -0.2717
    1SOL    HW2 4026   0.449   2.441   2.052  0.1936  0.7549 -0.2659
    1SOL    HW3 4027   0.540   2.400   1.938 -0.8359 -0.9636 -0.4753
    1SOL    MW4 4028   0.465   2.433   1.966 -0.2953  0.1218 -0.2977
    1SOL     OW 4029   0.496   2.695   1.916  0.6806  0.0228 -0.0413
    1SOL    HW2 4030   0.472   2.606   1.937 -0.5433  0.1149 -0.9926
    1SOL    HW3 4031   0.419   2.747   1.937  0.6707  0.5736 -1.3702
    1SOL    MW4 4032   0.483   2.690   1.921  0.5178  0.1075 -0.3421
    1SOL     OW 4033   0.730   2.843   1.982 -0.4440  0.0978 -0.0106
    1SOL    HW2 4034   0.734   2.846   2.077  0.6722  0.6599 -0.0663
    1SOL    HW3 4035   0.648   2.797   1.962 -0.5946 -0.1604  1.2116
    1SOL    MW4 4036   0.719   2.838   1.992 -0.3166  0.1378  0.1432
    1SOL     OW 4037   0.673   3.085   1.875 -0.3414  0.6739 -0.2900
    1SOL    HW2 4038   0.689   2.994   1.898 -0.6271  1.0409  1.3664
    1SOL    HW3 4039   0.674   3.086   1.779 -0.3170 -1.0537 -0.3103
    1SOL    MW4 4040   0.675   3.073   1.865 -0.3758  0.4945 -0.0740
    1SOL     OW 4041   0.437   3.205   2.011 -0.2208  0.0209  0.5655
    1SOL    HW2 4042   0.435   3.287   1.962  0.8722  1.0604  2.1994
    1SOL    HW3 4043   0.510   3.155   1.973 -0.6698 -0.0642 -0.2003
    1SOL    MW4 4044   0.446   3.209   2.000 -0.1359  0.1469  0.6801
    1SOL     OW 4045   0.467   3.491   1.887  0.0904  0.3195  0.1462
    1SOL    HW2 4046   0.552   3.524   1.914  0.0187  1.4240 -0.9378
    1SOL    HW3 4047   0.471   3.487   1.791 -0.6489 -0.7994  0.1419
    1SOL    MW4 4048   0.479   3.495   1.878 -0.0166  0.3176  0.0025
    1SOL     OW 4049   0.706   3.623   1.964  0.4425 -0.0433 -0.1878
    1SOL    HW2 4050   0.780   3.577   1.923 -1.1181 -0.3661 -2.7320
    1SOL    HW3 4051   0.696   3.703   1.912  0.2596  1.0238  1.4291
    1SOL    MW4 4052   0.715   3.628   1.952  0.2125  0.0553 -0.3102
    1SOL     OW 4053   0.705   3.878   1.848 -0.8222 -0.2482  0.1418
    1SOL    HW2 4054   0.774   3.944   1.855  0.4492 -1.3886 -1.3150
    1SOL    HW3 4055   0.684   3.874   1.754 -0.2928 -2.4768  0.0814
    1SOL    MW4 4056   0.711   3.886   1.836 -0.5847 -0.6926 -0.0584
    1SOL     OW 4057   0.488   4.003   1.964 -0.4066 -0.1790 -0.2974
    1SOL    HW2 4058   0.487   4.092   1.928 -1.3096  0.5534  1.4688
    1SOL    HW3 4059   0.566   3.963   1.925  1.2804  2.1117  0.5323
    1SOL    MW4 4060   0.498   4.010   1.954 -0.3031  0.2203  0.0449
    1SOL     OW 4061   0.431   4.271   1.868 -0.1236 -0.4100  0.6929
    1SOL    HW2 4062   0.350   4.308   1.904 -0.4216 -2.8564  2.6471
    1SOL    HW3 4063   0.417   4.273   1.773 -1.9850  0.2775  0.9443
    1SOL    MW4 4064   0.418   4.277   1.860 -0.4085 -0.6418  0.9840
    1SOL     OW 4065   0.666   4.412   1.949  0.0269 -0.1820 -0.1562
    1SOL    HW2 4066   0.742   4.382   1.900  0.4961 -1.4835  1.3413
    1SOL    HW3 4067   0.592   4.368   1.908  0.4508 -1.4905  0.4529
    1SOL    MW4 4068   0.666   4.402   1.937  0.1448 -0.5264  0.1216
    1SOL     OW 4069   1.080   4.640   1.871  0.6604 -0.3469  0.1197
    1SOL    HW2 4070   1.157   4.691   1.894 -0.2530  0.3586  1.6997
    1SOL    HW3 4071   1.102   4.550   1.895  0.7682 -0.0487  1.1526
    1SOL    MW4 4072   1.093   4.635   1.877  0.5542 -0.2146  0.4644
    1SOL     OW 4073   0.870   0.104   2.033 -0.7547 -0.4085  0.0650
    1SOL    HW2 4074   0.940   0.049   1.998  0.5332  0.7520  0.7407
    1SOL    HW3 4075   0.795   0.087   1.977 -0.1817 -2.3351 -0.1451
    1SOL    MW4 4076   0.870   0.095   2.021 -0.5091 -0.5096  0.1266
    1SOL     OW 4077   0.860   0.385   1.935 -0.0034  0.3119  0.4330
    1SOL    HW2 4078   0.940   0.435   1.955  0.5059 -0.3260  0.0174
    1SOL    HW3 4079   0.881   0.296   1.964 -0.5176  0.1162  0.1910
    1SOL    MW4 4080   0.874   0.380   1.942 -0.0041  0.2020  0.3463
    1SOL     OW 4081   1.110   0.530   1.977  0.6370  0.1358  0.1394
    1SOL    HW2 4082   1.188   0.494   1.936 -0.5111 -1.1265 -0.9550
    1SOL    HW3 4083   1.101   0.617   1.938  0.3005 -0.5438 -1.3156
    1SOL    MW4 4084   1.119   0.537   1.966  0.4410 -0.1204 -0.1971
    1SOL     OW 4085   1.083   0.795   1.896  0.3864  0.0909  0.4593
    1SOL    HW2 4086   1.166   0.837   1.921  0.9065 -1.1439  0.8743
    1SOL    HW3 4087   1.017   0.841   1.947  1.1628 -0.7740  2.3079
    1SOL    MW4 4088   1.085   0.806   1.906  0.5574 -0.1861  0.7579
    1SOL     OW 4089   0.854   0.896   2.015  0.1834 -0.4871  0.5351
    1SOL    HW2 4090   0.858   0.889   2.110 -1.0013  0.3431  0.6525
    1SOL    HW3 4091   0.867   0.989   1.997  1.4039 -0.7814 -0.1807
    1SOL    MW4 4092   0.856   0.908   2.025  0.1881 -0.4164  0.4561
    1SOL     OW 4093   0.895   1.159   1.867 -0.4554 -0.1370 -0.0898
    1SOL    HW2 4094   0.813   1.201   1.892 -1.0307 -1.5352  0.4480
    1SOL    HW3 4095   0.885   1.138   1.775 -0.1939  0.8436 -0.3409
    1SOL    MW4 4096   0.883   1.162   1.858 -0.4967 -0.1920 -0.0520
    1SOL     OW 4097   1.110   1.278   1.991  0.0333 -0.2181 -0.3675
    1SOL    HW2 4098   1.111   1.372   1.972  0.6945 -0.1576 -0.0227
    1SOL    HW3 4099   1.041   1.243   1.934 -0.0614  0.4404 -0.6588
    1SOL    MW4 4100   1.101   1.286   1.981  0.1080 -0.1230 -0.3604
    1SOL     OW 4101   1.131   1.569   1.883 -0.1833  0.2307 -0.0105
    1SOL    HW2 4102   1.041   1.599   1.900  0.0686  1.8713 -1.4141
    1SOL    HW3 4103   1.142   1.579   1.789  1.5539  0.2419  0.1766
    1SOL    MW4 4104   1.120   1.574   1.873  0.0792  0.4487 -0.1712
    1SOL     OW 4105   0.873   1.672   1.954  0.4500 -0.1747 -0.3364
    1SOL    HW2 4106   0.880   1.757   1.910  0.7999 -0.5813 -1.0825
    1SOL    HW3 4107   0.793   1.633   1.917  0.6632 -0.4531 -0.5084
    1SOL    MW4 4108   0.863   1.678   1.943  0.5243 -0.2650 -0.4575
    1SOL     OW 4109   0.908   1.939   1.890 -0.1205  0.2311 -0.1615
    1SOL    HW2 4110   0.825   1.981   1.915  0.0541  0.2436  0.4088
    1SOL    HW3 4111   0.918   1.959   1.797  0.3988  2.1925  0.3000
    1SOL    MW4 4112   0.898   1.947   1.881 -0.0290  0.4915 -0.0253
    1SOL     OW 4113   1.132   2.061   1.959  0.4120 -0.0140 -0.3694
    1SOL    HW2 4114   1.114   2.147   1.922  1.2184  0.3702  0.1183
    1SOL    HW3 4115   1.054   2.009   1.938 -0.0209  0.7889 -0.7800
    1SOL    MW4 4116   1.119   2.065   1.951  0.4611  0.1423 -0.3593
    1SOL     OW 4117   1.119   2.325   1.850 -0.0016 -0.2921  0.0328
    1SOL    HW2 4118   1.209   2.348   1.872 -0.1630  1.6323 -1.1807
    1SOL    HW3 4119   1.116   2.328   1.754 -1.2365 -0.8263  0.0414
    1SOL    MW4 4120   1.131   2.329   1.840 -0.1857 -0.1085 -0.1261
    1SOL     OW 4121   0.902   2.467   1.947 -0.0802  0.4786  0.1687
    1SOL    HW2 4122   0.971   2.418   1.902 -1.1240 -0.8382 -0.0362
    1SOL    HW3 4123   0.823   2.416   1.930 -0.7652  0.8991  2.0726
    1SOL    MW4 4124   0.901   2.454   1.939 -0.3083  0.3603  0.3927
    1SOL     OW 4125   0.948   2.724   1.847 -0.2731 -0.1181  0.6105
    1SOL    HW2 4126   0.938   2.629   1.859 -2.2531 -0.0516 -0.2859
    1SOL    HW3 4127   0.876   2.762   1.896  0.2257  0.9032  0.5553
    1SOL    MW4 4128   0.937   2.716   1.855 -0.4685  0.0253  0.4849
    1SOL     OW 4129   1.165   2.843   1.979 -0.0121 -0.0513 -0.3509
    1SOL    HW2 4130   1.155   2.832   2.074 -1.4027 -0.5409 -0.5367
    1SOL    HW3 4131   1.087   2.801   1.942  0.8492 -0.4560 -1.7499
    1SOL    MW4 4132   1.153   2.836   1.987 -0.0820 -0.1693 -0.5599
    1SOL     OW 4133   1.122   3.104   1.866 -0.2328  0.1602  0.3669
    1SOL    HW2 4134   1.051   3.158   1.900  0.4053  1.1967  0.0861
    1SOL    HW3 4135   1.125   3.027   1.924 -0.0036  1.2638  1.8377
    1SOL    MW4 4136   1.113   3.101   1.878 -0.1185  0.4427  0.5239
    1SOL     OW 4137   0.886   3.250   1.949 -0.2365  0.4556  0.4685
    1SOL    HW2 4138   0.874   3.256   2.043  0.4931  0.6286  0.5589
    1SOL    HW3 4139   0.809   3.204   1.917 -1.0853  1.4931  1.0047
    1SOL    MW4 4140   0.874   3.245   1.957 -0.2522  0.6151  0.5512
    1SOL     OW 4141   0.917   3.506   1.823 -0.4693 -0.0725  0.1703
    1SOL    HW2 4142   0.917   3.422   1.868  1.3847 -0.1766  0.0217
    1SOL    HW3 4143   0.895   3.486   1.732 -1.4396 -0.2058  0.4271
    1SOL    MW4 4144   0.914   3.493   1.817 -0.3527 -0.1042  0.1845
    1SOL     OW 4145   1.136   3.644   1.967  0.4051  0.2407 -0.2599
    1SOL    HW2 4146   1.118   3.632   2.060 -0.0265  1.4619 -0.1834
    1SOL    HW3 4147   1.054   3.620   1.924  0.4303  0.2043 -0.2879
    1SOL    MW4 4148   1.123   3.639   1.973  0.3514  0.3970 -0.2534
    1SOL     OW 4149   1.151   3.891   1.872  0.1987  0.1754 -0.0212
    1SOL    HW2 4150   1.149   3.803   1.909  0.9708 -0.4899 -1.5339
    1SOL    HW3 4151   1.140   3.879   1.778 -0.8700  1.7948 -0.1292
    1SOL    MW4 4152   1.150   3.878   1.865  0.1595  0.3014 -0.2350
    1SOL     OW 4153   0.908   4.052   1.920 -0.0813 -0.0983  0.2564
    1SOL    HW2 4154   0.890   4.038   2.013 -0.4902  0.6491  0.2888
    1SOL    HW3 4155   0.996   4.015   1.908 -0.4080 -1.0493  0.7327
    1SOL    MW4 4156   0.917   4.045   1.931 -0.1784 -0.1254  0.3235
    1SOL     OW 4157   0.892   4.316   1.826  0.0478 -0.0054 -0.1454
    1SOL    HW2 4158   0.969   4.333   1.880  0.3267  0.3950 -0.6588
    1SOL    HW3 4159   0.866   4.226   1.848 -0.3297  0.4210  1.2374
    1SOL    MW4 4160   0.899   4.306   1.836  0.0349  0.1040 -0.0308
    1SOL     OW 4161   1.130   4.348   1.968  0.4229 -0.0962 -0.3430
    1SOL    HW2 4162   1.126   4.375   2.060 -0.8563 -1.1231 -0.0916
    1SOL    HW3 4163   1.212   4.299   1.961  0.9130  0.6608  0.0597
    1SOL    MW4 4164   1.140   4.345   1.979  0.3188 -0.1316 -0.2568
    1SOL     OW 4165   1.528   4.626   1.879  0.1023 -0.2648 -0.0181
    1SOL    HW2 4166   1.603   4.670   1.917 -2.2449  1.2403  3.1531
    1SOL    HW3 4167   1.530   4.538   1.916  1.2716 -0.8229 -1.3713
    1SOL    MW4 4168   1.538   4.620   1.889 -0.0532 -0.1397  0.2217
    1SOL     OW 4169   1.302   0.110   1.955 -0.2513 -0.5233 -0.0846
    1SOL    HW2 4170   1.293   0.109   2.051  0.2095 -1.0792 -0.0473
    1SOL    HW3 4171   1.371   0.047   1.937  0.8937  0.8780 -0.6533
    1SOL    MW4 4172   1.310   0.102   1.966 -0.0393 -0.4118 -0.1547
    1SOL     OW 4173   1.323   0.365   1.886 -0.4243 -0.4021  0.0774
    1SOL    HW2 4174   1.303   0.275   1.913 -3.0403  0.4646  1.1179
    1SOL    HW3 4175   1.316   0.363   1.791  0.7469 -1.5585 -0.0086
    1SOL    MW4 4176   1.319   0.353   1.877 -0.6149 -0.4403  0.2034
    1SOL     OW 4177   1.549   0.517   1.985 -0.4278 -0.3960 -0.3021
    1SOL    HW2 4178   1.622   0.466   1.951  0.9349 -0.4360  2.5795
    1SOL    HW3 4179   1.471   0.472   1.952  0.8024 -1.3819 -1.9434
    1SOL    MW4 4180   1.548   0.505   1.976 -0.0856 -0.5313 -0.1383
    1SOL     OW 4181   1.548   0.750   1.857 -0.3107  0.1116 -0.5470
    1SOL    HW2 4182   1.633   0.784   1.885  0.0438 -1.1084 -0.1049
    1SOL    HW3 4183   1.542   0.663   1.898 -0.9505 -0.6064 -2.1098
    1SOL    MW4 4184   1.558   0.743   1.866 -0.3482 -0.1441 -0.6950
    1SOL     OW 4185   1.333   0.902   1.966 -0.5362 -0.5441 -0.2173
    1SOL    HW2 4186   1.349   0.916   2.059 -0.1766 -0.6716 -0.2591
    1SOL    HW3 4187   1.412   0.860   1.934 -0.0680  0.8349 -0.8961
    1SOL    MW4 4188   1.345   0.898   1.974 -0.4271 -0.3790 -0.3123
    1SOL     OW 4189   1.345   1.176   1.888 -0.8310  0.5227 -0.4759
    1SOL    HW2 4190   1.338   1.085   1.916  0.8753  0.5090 -0.0444
    1SOL    HW3 4191   1.263   1.216   1.916 -0.3388 -0.1648  2.0743
    1SOL    MW4 4192   1.334   1.170   1.896 -0.5410  0.4302 -0.0825
    1SOL     OW 4193   1.580   1.286   1.998  0.0454  0.0222  0.0648
    1SOL    HW2 4194   1.575   1.377   1.969  0.6756 -0.4362 -1.5880
    1SOL    HW3 4195   1.502   1.245   1.961 -0.5039  0.0010  1.2358
    1SOL    MW4 4196   1.569   1.292   1.989  0.0560 -0.0410  0.0013
    1SOL     OW 4197   1.577   1.526   1.917  0.2505  0.3715 -0.1098
    1SOL    HW2 4198   1.650   1.574   1.957 -1.0948  1.5642  0.9629
    1SOL    HW3 4199   1.499   1.572   1.947 -1.1863 -3.0771  1.7559
    1SOL    MW4 4200   1.576   1.539   1.926 -0.1167  0.0738  0.2779
    1SOL     OW 4201   1.354   1.694   1.965  0.4387 -0.2256  0.0503
    1SOL    HW2 4202   1.347   1.685   2.060  1.0681  1.5006  0.2867
    1SOL    HW3 4203   1.279   1.645   1.931  0.8206 -1.7649  1.3802
    1SOL    MW4 4204   1.343   1.686   1.973  0.5722 -0.2010  0.2570
    1SOL     OW 4205   1.353   1.959   1.854  0.1265 -0.1598  0.8017
    1SOL    HW2 4206   1.361   1.866   1.877 -0.6693 -0.4075  0.1018
    1SOL    HW3 4207   1.274   1.987   1.899 -0.2933 -0.1271  0.0539
    1SOL    MW4 4208   1.343   1.950   1.863 -0.0337 -0.1882  0.6107
    1SOL     OW 4209   1.567   2.080   1.995  0.5656  0.4639  0.2821
    1SOL    HW2 4210   1.577   2.163   1.949  0.6831  0.7161  0.7511
    1SOL    HW3 4211   1.496   2.035   1.950  0.7473  0.6604 -0.2058
    1SOL    MW4 4212   1.559   2.085   1.983  0.6050  0.5231  0.2795
    1SOL     OW 4213   1.573   2.312   1.832  0.2816  0.1088  0.2680
    1SOL    HW2 4214   1.652   2.353   1.868 -0.7445  1.5647  0.9246
    1SOL    HW3 4215   1.579   2.329   1.738  1.4274 -0.9930  0.1299
    1SOL    MW4 4216   1.584   2.320   1.824  0.2975  0.1557  0.3363
    1SOL     OW 4217   1.360   2.425   1.964 -0.0655 -0.1874  0.0910
    1SOL    HW2 4218   1.342   2.512   1.929  0.6827  0.6795  1.8131
    1SOL    HW3 4219   1.436   2.395   1.914  0.2502  0.5235  0.1402
    1SOL    MW4 4220   1.368   2.432   1.953  0.0750  0.0210  0.3247
    1SOL     OW 4221   1.368   2.688   1.847  0.4007 -0.2799 -0.4454
    1SOL    HW2 4222   1.299   2.739   1.890  0.0487 -0.9487 -0.2138
    1SOL    HW3 4223   1.348   2.694   1.754  0.7532  0.5689 -0.4772
    1SOL    MW4 4224   1.356   2.695   1.841  0.4008 -0.2561 -0.4191
    1SOL     OW 4225   1.591   2.855   1.947 -0.2841 -0.2411 -0.0911
    1SOL    HW2 4226   1.672   2.812   1.917 -0.3043 -0.2509 -0.1323
    1SOL    HW3 4227   1.521   2.797   1.917 -0.2996 -0.3089  0.0740
    1SOL    MW4 4228   1.592   2.841   1.939 -0.2887 -0.2513 -0.0749
    1SOL     OW 4229   1.548   3.129   1.843 -0.1508  0.5346 -0.4104
    1SOL    HW2 4230   1.539   3.044   1.885 -0.4935  1.3360  1.2285
    1SOL    HW3 4231   1.559   3.110   1.750 -0.3850 -1.2725 -0.0863
    1SOL    MW4 4232   1.548   3.116   1.837 -0.2270  0.4017 -0.1514
    1SOL     OW 4233   1.349   3.260   1.973  0.2361 -0.1595 -0.4799
    1SOL    HW2 4234   1.429   3.214   1.946  0.3778  0.2463 -0.7701
    1SOL    HW3 4235   1.278   3.207   1.938  0.4013 -0.1037 -0.9126
    1SOL    MW4 4236   1.350   3.247   1.965  0.2766 -0.0987 -0.5752
    1SOL     OW 4237   1.369   3.525   1.888 -0.1469 -0.3421  0.0019
    1SOL    HW2 4238   1.362   3.435   1.919 -1.6194 -0.3400 -0.3016
    1SOL    HW3 4239   1.285   3.565   1.909  0.5561  1.0182  0.2910
    1SOL    MW4 4240   1.357   3.518   1.895 -0.2484 -0.1626  0.0001
    1SOL     OW 4241   1.614   3.580   2.000 -0.1832  0.3941  0.0071
    1SOL    HW2 4242   1.602   3.569   2.094  0.9622  0.5003  0.1744
    1SOL    HW3 4243   1.530   3.555   1.962 -0.4351 -0.3247  1.0129
    1SOL    MW4 4244   1.601   3.575   2.007 -0.0654  0.3135  0.1616
    1SOL     OW 4245   1.601   3.846   1.903 -0.0629  0.3601  0.1953
    1SOL    HW2 4246   1.685   3.884   1.930  0.6411 -0.0264 -1.4082
    1SOL    HW3 4247   1.605   3.756   1.933 -0.3171  0.6171  1.0002
    1SOL    MW4 4248   1.613   3.839   1.910 -0.0035  0.3428  0.0900
    1SOL     OW 4249   1.385   4.001   1.982 -0.1867 -0.1046  0.1306
    1SOL    HW2 4250   1.460   3.955   1.943  0.2076  0.3818  0.3078
    1SOL    HW3 4251   1.309   3.955   1.948  0.2094 -1.2524  0.7340
    1SOL    MW4 4252   1.385   3.989   1.973 -0.0823 -0.1917  0.2337
    1SOL     OW 4253   1.376   4.263   1.904  0.2031 -0.1160  0.0637
    1SOL    HW2 4254   1.399   4.172   1.924  0.3505 -0.6942 -2.4995
    1SOL    HW3 4255   1.358   4.262   1.810 -1.6942  2.1357  0.3811
    1SOL    MW4 4256   1.377   4.251   1.894 -0.0277  0.1049 -0.2326
    1SOL     OW 4257   1.598   4.377   2.011  0.3450  0.3841  0.2917
    1SOL    HW2 4258   1.566   4.385   2.101  1.6632  1.1094  0.7089
    1SOL    HW3 4259   1.527   4.333   1.964 -0.6846  0.7223  1.5024
    1SOL    MW4 4260   1.584   4.373   2.017  0.3830  0.5245  0.5066
    1SOL     OW 4261   2.037   4.638   1.871 -0.0091  0.2277  0.1689
    1SOL    HW2 4262   2.116   4.683   1.899  0.5060 -1.0125  0.7090
    1SOL    HW3 4263   2.039   4.554   1.917 -1.2213 -0.1405 -0.4363
    1SOL    MW4 4264   2.048   4.633   1.881 -0.1009  0.0153  0.1603
    1SOL     OW 4265   1.760   0.099   1.965  0.3919  0.2656 -0.2159
    1SOL    HW2 4266   1.754   0.093   2.060 -0.4072  1.7777 -0.1523
    1SOL    HW3 4267   1.838   0.047   1.942 -1.1762 -2.6878  0.9325
    1SOL    MW4 4268   1.770   0.092   1.974  0.0795  0.0754 -0.0559
    1SOL     OW 4269   1.760   0.382   1.878 -0.1834 -0.0758  0.3746
    1SOL    HW2 4270   1.756   0.293   1.912 -1.2328 -0.2545 -0.1825
    1SOL    HW3 4271   1.740   0.372   1.785  0.2101  0.6852  0.2068
    1SOL    MW4 4272   1.757   0.369   1.870 -0.2700  0.0010  0.2788
    1SOL     OW 4273   2.010   0.495   1.970 -0.0638  0.3202  0.3024
    1SOL    HW2 4274   2.006   0.586   1.940 -0.2305  0.7207  1.5312
    1SOL    HW3 4275   1.927   0.457   1.941  0.5378  0.1904 -1.3325
    1SOL    MW4 4276   1.998   0.502   1.962 -0.0063  0.3558  0.2488
    1SOL     OW 4277   2.009   0.756   1.862  0.4588 -0.1298 -0.2816
    1SOL    HW2 4278   2.081   0.796   1.912 -0.6467  1.0603  0.3780
    1SOL    HW3 4279   1.937   0.818   1.870 -1.0488 -1.8933  0.0929
    1SOL    MW4 4280   2.009   0.769   1.870  0.1140 -0.2055 -0.1451
    1SOL     OW 4281   1.770   0.897   1.923 -0.2728  0.1207 -0.0610
    1SOL    HW2 4282   1.782   0.989   1.902  0.2906 -0.2874 -1.6655
    1SOL    HW3 4283   1.758   0.894   2.018  0.2819  1.7715  0.0647
    1SOL    MW4 4284   1.770   0.908   1.933 -0.1253  0.2847 -0.2561
    1SOL     OW 4285   1.771   1.161   1.871 -0.3292  0.1634 -0.1992
    1SOL    HW2 4286   1.706   1.198   1.931  2.1772  2.9475  0.9073
    1SOL    HW3 4287   1.847   1.218   1.879  1.2097 -1.2206 -3.7383
    1SOL    MW4 4288   1.772   1.173   1.880  0.2046  0.3481 -0.5202
    1SOL     OW 4289   2.015   1.284   1.976 -0.2315 -0.1307 -0.1716
    1SOL    HW2 4290   2.068   1.209   1.950 -2.1186 -1.5895  0.0383
    1SOL    HW3 4291   2.032   1.294   2.070 -0.1455 -0.4467 -0.1530
    1SOL    MW4 4292   2.024   1.276   1.985 -0.4690 -0.3648 -0.1415
    1SOL     OW 4293   2.015   1.540   1.859 -0.0551  0.4767  0.4041
    1SOL    HW2 4294   2.014   1.450   1.893  1.7491  0.5120  0.6432
    1SOL    HW3 4295   2.013   1.529   1.764 -0.8122  0.2182  0.4488
    1SOL    MW4 4296   2.015   1.527   1.851  0.0830  0.4473  0.4416
    1SOL     OW 4297   1.811   1.645   2.026  0.2826 -0.1526  0.2040
    1SOL    HW2 4298   1.794   1.734   1.993  1.9822  0.5946  1.2797
    1SOL    HW3 4299   1.885   1.614   1.974  0.7881 -0.2695  0.9869
    1SOL    MW4 4300   1.818   1.653   2.015  0.5736 -0.0694  0.4497
    1SOL     OW 4301   1.767   1.892   1.926 -0.1515  0.1097 -0.6246
    1SOL    HW2 4302   1.705   1.958   1.959  0.6426  0.9568 -0.7982
    1SOL    HW3 4303   1.764   1.903   1.831  0.3597  0.2440 -0.6270
    1SOL    MW4 4304   1.758   1.902   1.918  0.0207  0.2391 -0.6477
    1SOL     OW 4305   1.983   2.058   1.955  0.2461  0.0733 -0.1402
    1SOL    HW2 4306   2.063   2.019   1.919  0.8003  0.1537  0.9486
    1SOL    HW3 4307   1.921   1.985   1.960  1.5190 -0.9229  2.5749
    1SOL    MW4 4308   1.985   2.043   1.951  0.4870 -0.0477  0.3616
    1SOL     OW 4309   1.990   2.346   1.847 -0.2974  0.2244 -0.0787
    1SOL    HW2 4310   2.073   2.373   1.885 -0.8297 -0.2193  1.4418
    1SOL    HW3 4311   1.984   2.253   1.865 -0.7226  0.0699 -0.9768
    1SOL    MW4 4312   2.000   2.337   1.854 -0.4238  0.1454  0.0033
    1SOL     OW 4313   1.776   2.478   1.939  0.3540  0.3656 -0.2749
    1SOL    HW2 4314   1.767   2.466   2.034 -0.5149 -0.7402 -0.4991
    1SOL    HW3 4315   1.849   2.421   1.915  0.7595  0.8599 -0.2417
    1SOL    MW4 4316   1.784   2.469   1.949  0.2929  0.2851 -0.3000
    1SOL     OW 4317   1.826   2.733   1.855 -0.1207  0.0518 -0.0246
    1SOL    HW2 4318   1.805   2.648   1.892  1.7527 -0.8544 -0.9940
    1SOL    HW3 4319   1.817   2.722   1.761 -0.4716  1.1004 -0.1270
    1SOL    MW4 4320   1.822   2.720   1.848  0.0800  0.0706 -0.1661
    1SOL     OW 4321   2.017   2.890   1.957  0.1451 -0.7195  0.2750
    1SOL    HW2 4322   2.023   2.884   2.053  0.2898  0.6525  0.3592
    1SOL    HW3 4323   1.942   2.836   1.934  0.6295 -1.7569  1.0835
    1SOL    MW4 4324   2.008   2.882   1.967  0.2282 -0.6752  0.3928
    1SOL     OW 4325   2.071   3.135   1.821  0.0722 -0.0584 -0.1390
    1SOL    HW2 4326   1.995   3.179   1.860 -0.0999 -0.9165  0.5085
    1SOL    HW3 4327   2.056   3.042   1.838  0.9654 -0.2787 -0.5496
    1SOL    MW4 4328   2.059   3.129   1.829  0.1674 -0.2007 -0.1076
    1SOL     OW 4329   1.803   3.221   1.909 -0.2623 -0.5365 -0.2264
    1SOL    HW2 4330   1.791   3.226   2.003  1.5211 -3.1132  0.1864
    1SOL    HW3 4331   1.722   3.181   1.876 -0.1494 -1.3190  0.4360
    1SOL    MW4 4332   1.791   3.216   1.917 -0.0122 -0.9797 -0.0846
    1SOL     OW 4333   1.825   3.478   1.831 -0.2052  0.4391 -0.3048
    1SOL    HW2 4334   1.826   3.384   1.851  0.4607  0.2813 -1.0714
    1SOL    HW3 4335   1.763   3.514   1.894 -0.4242 -0.5062  0.0416
    1SOL    MW4 4336   1.817   3.470   1.842 -0.1462  0.2937 -0.3604
    1SOL     OW 4337   2.042   3.572   1.997 -0.0631 -0.0649 -0.2553
    1SOL    HW2 4338   2.054   3.663   1.971 -1.0478  0.1804  0.1498
    1SOL    HW3 4339   1.974   3.539   1.939 -0.7789 -0.1082  0.5897
    1SOL    MW4 4340   2.035   3.580   1.986 -0.2878 -0.0381 -0.0905
    1SOL     OW 4341   2.053   3.826   1.879  0.4385  0.2523  0.4242
    1SOL    HW2 4342   2.115   3.892   1.910 -0.1196  0.6642  0.6793
    1SOL    HW3 4343   2.041   3.845   1.786  1.0803 -0.1452  0.2564
    1SOL    MW4 4344   2.060   3.837   1.871  0.4492  0.2542  0.4356
    1SOL     OW 4345   1.833   3.999   1.975 -0.4506  0.2675  0.2594
    1SOL    HW2 4346   1.822   4.087   1.941  0.1101  0.1507 -0.2348
    1SOL    HW3 4347   1.915   3.968   1.937 -0.6500 -0.4731  0.4076
    1SOL    MW4 4348   1.842   4.006   1.965 -0.4029  0.1545  0.2137
    1SOL     OW 4349   1.810   4.276   1.882  0.3048 -0.0663  0.0195
    1SOL    HW2 4350   1.740   4.319   1.930 -0.5550 -0.8137 -0.5649
    1SOL    HW3 4351   1.779   4.272   1.792  0.7252 -1.1760 -0.0869
    1SOL    MW4 4352   1.797   4.281   1.877  0.2469 -0.3114 -0.0716
    1SOL     OW 4353   2.055   4.376   1.986 -0.7865 -0.0938  0.2775
    1SOL    HW2 4354   2.131   4.347   1.936 -1.0409  2.5302 -1.6956
    1SOL    HW3 4355   1.981   4.336   1.941 -0.7358 -1.2683  1.1982
    1SOL    MW4 4356   2.055   4.367   1.974 -0.8135  0.0973  0.1385
    1SOL     OW 4357   2.507   4.657   1.878 -0.2133 -0.1996 -0.1230
    1SOL    HW2 4358   2.582   4.698   1.922 -1.1676 -0.4217  1.7234
    1SOL    HW3 4359   2.507   4.566   1.910  0.8234 -1.2104 -2.8263
    1SOL    MW4 4360   2.517   4.650   1.888 -0.2027 -0.3619 -0.2362
    1SOL     OW 4361   2.260   0.098   1.983 -0.0854 -0.7327  0.1766
    1SOL    HW2 4362   2.264   0.100   2.079  0.5116  1.0537  0.1356
    1SOL    HW3 4363   2.344   0.062   1.956  0.9317  1.4928  0.2741
    1SOL    MW4 4364   2.272   0.094   1.992  0.1276 -0.2033  0.1842
    1SOL     OW 4365   2.219   0.353   1.844 -0.4100  0.0585  0.0603
    1SOL    HW2 4366   2.246   0.277   1.896 -1.5990 -0.1098  0.4273
    1SOL    HW3 4367   2.146   0.392   1.892  0.3229  1.5775 -0.0069
    1SOL    MW4 4368   2.213   0.348   1.857 -0.4702  0.2367  0.0998
    1SOL     OW 4369   2.456   0.486   1.957 -0.1042  0.0137  0.0544
    1SOL    HW2 4370   2.538   0.465   1.913 -0.1686  0.3489 -0.2173
    1SOL    HW3 4371   2.391   0.433   1.912 -0.1022  0.0463  0.0130
    1SOL    MW4 4372   2.458   0.476   1.946 -0.1125  0.0622  0.0131
    1SOL     OW 4373   2.464   0.752   1.869  0.2193  0.4160 -0.0162
    1SOL    HW2 4374   2.443   0.665   1.904 -0.2679  0.3651 -0.4520
    1SOL    HW3 4375   2.446   0.746   1.776 -0.0551  1.0696 -0.0033
    1SOL    MW4 4376   2.459   0.740   1.862  0.1187  0.4955 -0.0720
    1SOL     OW 4377   2.239   0.867   1.976  0.4555  0.3079 -0.2566
    1SOL    HW2 4378   2.248   0.867   2.071 -0.3554  0.0041 -0.1742
    1SOL    HW3 4379   2.326   0.846   1.943  0.7403  0.4265  0.4206
    1SOL    MW4 4380   2.252   0.864   1.984  0.3862  0.2835 -0.1564
    1SOL     OW 4381   2.206   1.110   1.874 -0.0135  0.3890  0.5255
    1SOL    HW2 4382   2.290   1.157   1.882 -0.4222  1.2399 -0.0778
    1SOL    HW3 4383   2.223   1.024   1.911  1.3592  0.2908 -0.2909
    1SOL    MW4 4384   2.220   1.105   1.880  0.1140  0.4883  0.3381
    1SOL     OW 4385   2.437   1.239   1.926 -0.0644 -0.4079  0.1349
    1SOL    HW2 4386   2.440   1.262   2.019 -0.5020  0.1765  0.0078
    1SOL    HW3 4387   2.431   1.323   1.880  1.0719 -0.6414 -0.4684
    1SOL    MW4 4388   2.437   1.253   1.932  0.0279 -0.3616  0.0385
    1SOL     OW 4389   2.419   1.494   1.844  0.0189  0.0545 -0.2750
    1SOL    HW2 4390   2.358   1.560   1.876  2.0079  1.6352  0.3943
    1SOL    HW3 4391   2.433   1.517   1.752  1.5679  1.3046  0.2414
    1SOL    MW4 4392   2.413   1.506   1.836  0.4857  0.4278 -0.1186
    1SOL     OW 4393   2.237   1.681   1.936  0.5190 -0.6663 -0.0160
    1SOL    HW2 4394   2.244   1.663   2.030 -0.4377 -1.4008 -0.0791
    1SOL    HW3 4395   2.164   1.626   1.906 -0.0933  0.6151 -0.9231
    1SOL    MW4 4396   2.228   1.671   1.944  0.3121 -0.5941 -0.1440
    1SOL     OW 4397   2.205   1.943   1.854  0.2945  0.3435 -0.1555
    1SOL    HW2 4398   2.291   1.969   1.886  1.4653 -0.6100 -2.4460
    1SOL    HW3 4399   2.203   1.848   1.865  0.2169  0.1617 -1.6848
    1SOL    MW4 4400   2.216   1.934   1.860  0.4389  0.1938 -0.6595
    1SOL     OW 4401   2.436   2.036   1.974 -0.7149  0.4936 -0.2383
    1SOL    HW2 4402   2.509   1.987   1.937  0.5782  0.7817  1.8392
    1SOL    HW3 4403   2.449   2.126   1.943 -0.9483  0.2988 -0.9233
    1SOL    MW4 4404   2.447   2.042   1.965 -0.5753  0.5059 -0.0545
    1SOL     OW 4405   2.460   2.301   1.903  0.3198 -0.2350 -0.0742
    1SOL    HW2 4406   2.535   2.355   1.928  0.6889 -1.0725  0.6624
    1SOL    HW3 4407   2.384   2.358   1.918  0.7388  0.2601  0.1895
    1SOL    MW4 4408   2.460   2.316   1.908  0.4239 -0.2801  0.0578
    1SOL     OW 4409   2.235   2.450   1.934 -0.1444  0.1374  0.3864
    1SOL    HW2 4410   2.235   2.461   2.029 -0.6650 -0.0500  0.4099
    1SOL    HW3 4411   2.246   2.539   1.899 -0.4631  0.2702  0.6184
    1SOL    MW4 4412   2.236   2.463   1.942 -0.2551  0.1307  0.4200
    1SOL     OW 4413   2.236   2.731   1.853 -0.0095 -0.4483 -0.1966
    1SOL    HW2 4414   2.153   2.772   1.877 -0.1723 -1.8018  1.6622
    1SOL    HW3 4415   2.228   2.714   1.760 -1.1736  0.8951 -0.3592
    1SOL    MW4 4416   2.224   2.734   1.844 -0.1843 -0.4497  0.0272
    1SOL     OW 4417   2.469   2.846   1.965 -0.1675 -0.0390 -0.6110
    1SOL    HW2 4418   2.470   2.934   1.928  0.8384 -0.6145 -1.9663
    1SOL    HW3 4419   2.386   2.808   1.937 -1.0406  0.8109  0.7883
    1SOL    MW4 4420   2.459   2.852   1.957 -0.1500 -0.0026 -0.6051
    1SOL     OW 4421   2.501   3.110   1.869  0.1917  0.0275 -0.2471
    1SOL    HW2 4422   2.427   3.146   1.918  1.9897  1.5405  1.3836
    1SOL    HW3 4423   2.474   3.117   1.777 -1.9880 -0.1450  0.3406
    1SOL    MW4 4424   2.487   3.115   1.863  0.1414  0.2046  0.0457
    1SOL     OW 4425   2.271   3.233   1.993  0.1205  0.4288  0.2804
    1SOL    HW2 4426   2.240   3.229   2.083  0.7933 -0.9819  0.4652
    1SOL    HW3 4427   2.198   3.200   1.941 -0.6556  2.2565  0.2081
    1SOL    MW4 4428   2.257   3.228   1.998  0.1068  0.4838  0.2954
    1SOL     OW 4429   2.259   3.472   1.852  0.2379  0.1341 -0.2277
    1SOL    HW2 4430   2.265   3.392   1.903  0.1728  0.5656  0.4688
    1SOL    HW3 4431   2.184   3.519   1.890  0.8493  0.9427 -0.0143
    1SOL    MW4 4432   2.250   3.468   1.864  0.3099  0.2978 -0.1076
    1SOL     OW 4433   2.467   3.628   1.957 -0.5894  0.2210 -0.3099
    1SOL    HW2 4434   2.468   3.617   2.053  2.8814  1.0009 -0.1611
    1SOL    HW3 4435   2.403   3.564   1.926 -0.4612 -1.3241  2.4192
    1SOL    MW4 4436   2.459   3.618   1.966 -0.1147  0.1202  0.0697
    1SOL     OW 4437   2.439   3.879   1.848  0.0725 -0.1042  0.2998
    1SOL    HW2 4438   2.370   3.920   1.901  0.1284 -0.6929  0.8420
    1SOL    HW3 4439   2.449   3.791   1.886 -0.2654 -0.7360 -1.0373
    1SOL    MW4 4440   2.431   3.873   1.860  0.0353 -0.2654  0.1949
    1SOL     OW 4441   2.223   4.008   1.973 -0.0586  0.1163  0.2508
    1SOL    HW2 4442   2.252   4.025   2.063  1.1214 -0.8017  0.0478
    1SOL    HW3 4443   2.213   4.095   1.935  0.0477  0.5001  1.0722
    1SOL    MW4 4444   2.225   4.022   1.980  0.1111  0.0458  0.3324
    1SOL     OW 4445   2.246   4.254   1.855  0.7913  0.1808  0.0639
    1SOL    HW2 4446   2.337   4.278   1.873  1.3239 -1.5385 -0.2747
    1SOL    HW3 4447   2.233   4.278   1.763  0.1568  2.6213  0.7571
    1SOL    MW4 4448   2.256   4.261   1.845  0.7777  0.2756  0.1106
    1SOL     OW 4449   2.471   4.382   1.967 -0.3738  0.0671  0.4794
    1SOL    HW2 4450   2.461   4.390   2.062 -0.4857  0.6873  0.4169
    1SOL    HW3 4451   2.559   4.344   1.956  0.3702  1.6593  0.7797
    1SOL    MW4 4452   2.482   4.378   1.978 -0.2906  0.3595  0.5108
    1SOL     OW 4453   2.925   4.639   1.860  0.6001  0.2069 -0.0064
    1SOL    HW2 4454   2.998   4.691   1.894  1.1320  0.4827 -1.5243
    1SOL    HW3 4455   2.937   4.553   1.900  1.4246  0.4153  0.2145
    1SOL    MW4 4456   2.936   4.635   1.870  0.7792  0.2704 -0.1775
    1SOL     OW 4457   2.724   0.131   1.982  0.0690 -0.6420  0.5783
    1SOL    HW2 4458   2.722   0.112   2.076 -0.8985 -0.8170  0.5251
    1SOL    HW3 4459   2.791   0.073   1.947  0.3621 -0.6454  1.1469
    1SOL    MW4 4460   2.733   0.121   1.990 -0.0200 -0.6655  0.6462
    1SOL     OW 4461   2.678   0.389   1.842 -0.1900 -0.1154 -0.2363
    1SOL    HW2 4462   2.750   0.445   1.869 -1.9363  1.3207  1.5142
    1SOL    HW3 4463   2.692   0.307   1.890 -0.8607  0.8903  1.6974
    1SOL    MW4 4464   2.690   0.385   1.852 -0.5085  0.2068  0.2499
    1SOL     OW 4465   2.906   0.525   1.940  0.3642  0.7725  0.2727
    1SOL    HW2 4466   2.985   0.473   1.921 -1.1530 -1.2795 -0.5880
    1SOL    HW3 4467   2.912   0.599   1.880  1.7991  0.7996  0.4276
    1SOL    MW4 4468   2.918   0.528   1.930  0.3533  0.5053  0.1796
    1SOL     OW 4469   2.928   0.802   1.856  0.0641  0.3865 -0.3838
    1SOL    HW2 4470   2.997   0.851   1.899  0.8583 -0.3910 -0.7345
    1SOL    HW3 4471   2.848   0.827   1.901  0.6692  0.7848  0.4835
    1SOL    MW4 4472   2.927   0.812   1.867  0.2487  0.3365 -0.3157
    1SOL     OW 4473   2.686   0.880   1.980  0.2274  0.1020 -0.0774
    1SOL    HW2 4474   2.683   0.965   1.938 -0.4149  0.2170  0.2120
    1SOL    HW3 4475   2.617   0.829   1.938  0.9376 -0.4487 -0.6119
    1SOL    MW4 4476   2.677   0.884   1.969  0.2363  0.0446 -0.1096
    1SOL     OW 4477   2.677   1.134   1.858 -0.4682 -0.2465  0.1672
    1SOL    HW2 4478   2.591   1.175   1.867 -0.8702 -0.9951 -0.2323
    1SOL    HW3 4479   2.700   1.146   1.765  0.6789  1.5494  0.6504
    1SOL    MW4 4480   2.669   1.141   1.847 -0.3698 -0.1082  0.1785
    1SOL     OW 4481   2.919   1.228   2.026 -0.5693 -0.0074  0.2183
    1SOL    HW2 4482   2.904   1.313   1.985 -2.0700  0.0608  0.8747
    1SOL    HW3 4483   2.848   1.173   1.993  0.3773 -0.9856 -0.1722
    1SOL    MW4 4484   2.908   1.232   2.016 -0.6423 -0.1273  0.2534
    1SOL     OW 4485   2.893   1.442   1.859  0.0127 -0.1481 -0.1911
    1SOL    HW2 4486   2.959   1.509   1.877 -0.2414 -0.2394  1.1579
    1SOL    HW3 4487   2.880   1.446   1.765  0.3881  1.3445 -0.1970
    1SOL    MW4 4488   2.900   1.452   1.849  0.0286  0.0368 -0.0139
    1SOL     OW 4489   2.657   1.632   1.913 -0.6325  0.2309  0.2315
    1SOL    HW2 4490   2.725   1.567   1.897 -2.4482 -1.2495 -1.7077
    1SOL    HW3 4491   2.575   1.586   1.895 -2.0956  2.3060  1.4040
    1SOL    MW4 4492   2.655   1.618   1.908 -1.0650  0.3095  0.1303
    1SOL     OW 4493   2.641   1.908   1.836 -0.0753  0.2480  0.1897
    1SOL    HW2 4494   2.712   1.955   1.880  0.1697  0.6092 -0.5765
    1SOL    HW3 4495   2.653   1.817   1.861  0.1425  0.4261  0.7556
    1SOL    MW4 4496   2.652   1.903   1.845 -0.0141  0.3191  0.1633
    1SOL     OW 4497   2.852   2.045   1.965 -0.0379  0.0931  0.4835
    1SOL    HW2 4498   2.877   2.057   2.056 -0.2530 -1.9011  0.8450
    1SOL    HW3 4499   2.926   1.998   1.926 -1.3426 -2.1071  0.5260
    1SOL    MW4 4500   2.865   2.040   1.972 -0.2384 -0.4604  0.5368
    1SOL     OW 4501   2.889   2.307   1.861  0.0737 -1.0398 -0.2427
    1SOL    HW2 4502   2.955   2.355   1.912 -1.7461 -0.0111  1.2120
    1SOL    HW3 4503   2.886   2.221   1.902 -1.6449 -0.0989  1.6969
    1SOL    MW4 4504   2.898   2.302   1.873 -0.3929 -0.7801  0.2050
    1SOL     OW 4505   2.669   2.461   1.983 -0.2768  0.5677  0.1063
    1SOL    HW2 4506   2.680   2.554   1.965  1.0811  0.4357  0.2676
    1SOL    HW3 4507   2.743   2.418   1.941 -0.0496 -0.2898  1.3248
    1SOL    MW4 4508   2.680   2.467   1.975 -0.0679  0.4368  0.2884
    1SOL     OW 4509   2.715   2.717   1.907  0.0650  0.5585 -0.2597
    1SOL    HW2 4510   2.633   2.763   1.925 -0.2450 -0.4106  0.8927
    1SOL    HW3 4511   2.715   2.703   1.812 -1.2452  0.3159 -0.2291
    1SOL    MW4 4512   2.704   2.721   1.896 -0.1485  0.3986 -0.1036
    1SOL     OW 4513   2.935   2.839   2.011 -0.0872  0.3795  0.6404
    1SOL    HW2 4514   2.944   2.923   1.967  0.0357  0.1997  0.3204
    1SOL    HW3 4515   2.859   2.797   1.971  0.3361 -0.0059  0.2276
    1SOL    MW4 4516   2.926   2.844   2.000 -0.0153  0.3047  0.5440
    1SOL     OW 4517   2.903   3.088   1.855  0.0057  0.1050 -0.7274
    1SOL    HW2 4518   2.984   3.130   1.881 -0.6195  1.4180 -0.8859
    1SOL    HW3 4519   2.834   3.135   1.901 -0.8488  0.4453 -2.3018
    1SOL    MW4 4520   2.905   3.100   1.864 -0.1898  0.3228 -0.9561
    1SOL     OW 4521   2.698   3.265   1.965  0.5241 -0.1570  0.3742
    1SOL    HW2 4522   2.690   3.345   1.914 -0.5414 -0.0675  0.6593
    1SOL    HW3 4523   2.626   3.210   1.933  1.8201 -1.3741 -0.4921
    1SOL    MW4 4524   2.687   3.268   1.954  0.5548 -0.3057  0.2975
    1SOL     OW 4525   2.682   3.512   1.836 -0.1275  0.3035  0.4449
    1SOL    HW2 4526   2.745   3.570   1.878 -0.4977  0.3789  0.8983
    1SOL    HW3 4527   2.597   3.538   1.873 -0.3751 -0.0655  0.1390
    1SOL    MW4 4528   2.679   3.523   1.847 -0.2091  0.2649  0.4642
    1SOL     OW 4529   2.905   3.611   1.960  0.0117 -0.3557  0.5420
    1SOL    HW2 4530   2.918   3.584   2.051  0.0773 -0.9098  0.3709
    1SOL    HW3 4531   2.977   3.570   1.912  0.0014 -0.0300  0.2445
    1SOL    MW4 4532   2.916   3.602   1.966  0.0188 -0.3858  0.4801
    1SOL     OW 4533   2.937   3.866   1.865  0.4138 -0.4591  0.2392
    1SOL    HW2 4534   2.910   3.783   1.904 -1.4478 -0.5634 -1.2163
    1SOL    HW3 4535   2.927   3.854   1.771  1.8637  0.8328 -0.1209
    1SOL    MW4 4536   2.932   3.854   1.858  0.3595 -0.3023 -0.0004
    1SOL     OW 4537   2.697   3.996   1.952 -0.1622 -0.2051 -0.6128
    1SOL    HW2 4538   2.776   3.955   1.916 -1.0436  0.2742 -3.2376
    1SOL    HW3 4539   2.625   3.948   1.912 -1.2004  1.1819 -0.4441
    1SOL    MW4 4540   2.698   3.984   1.942 -0.4156  0.0415 -0.9369
    1SOL     OW 4541   2.717   4.268   1.881  0.2467 -0.3541 -0.3041
    1SOL    HW2 4542   2.711   4.175   1.900 -2.0030  0.0819  1.3431
    1SOL    HW3 4543   2.684   4.277   1.792 -0.2311 -1.0561 -0.1994
    1SOL    MW4 4544   2.711   4.257   1.872 -0.1130 -0.3896 -0.0728
    1SOL     OW 4545   2.943   4.385   1.974  0.2040 -0.1736 -0.0632
    1SOL    HW2 4546   2.935   4.400   2.069 -0.0724  0.7516 -0.2249
    1SOL    HW3 4547   2.858   4.349   1.948 -0.0315  0.4076 -0.1070
    1SOL    MW4 4548   2.931   4.382   1.983  0.1366  0.0248 -0.0902
    1SOL     OW 4549   3.380   4.616   1.889 -0.2927  0.1823 -0.4872
    1SOL    HW2 4550   3.343   4.534   1.921  0.0365  0.5486  0.8630
    1SOL    HW3 4551   3.367   4.613   1.794  1.0494 -2.0728 -0.6331
    1SOL    MW4 4552   3.373   4.605   1.881 -0.0722 -0.0668 -0.3283
    1SOL     OW 4553   3.162   0.087   1.980  0.4662  0.0850 -0.0456
    1SOL    HW2 4554   3.172   0.100   2.074  0.0445  1.1534 -0.1366
    1SOL    HW3 4555   3.244   0.047   1.952  1.2799  1.3610  0.4949
    1SOL    MW4 4556   3.174   0.083   1.988  0.5178  0.3943  0.0136
    1SOL     OW 4557   3.131   0.357   1.880 -0.2751 -0.5044 -0.1948
    1SOL    HW2 4558   3.124   0.270   1.918 -0.4953 -0.7714 -0.8484
    1SOL    HW3 4559   3.141   0.342   1.786 -1.4392  0.2077 -0.4377
    1SOL    MW4 4560   3.132   0.344   1.873 -0.4578 -0.4457 -0.3130
    1SOL     OW 4561   3.337   0.478   2.016 -0.2097  0.2994 -0.1483
    1SOL    HW2 4562   3.416   0.449   1.971  0.3623 -0.1350  1.0926
    1SOL    HW3 4563   3.267   0.424   1.980  0.0935  0.5323 -1.0923
    1SOL    MW4 4564   3.338   0.467   2.005 -0.0939  0.2728 -0.1092
    1SOL     OW 4565   3.368   0.757   1.892  0.1048  0.1900  0.0431
    1SOL    HW2 4566   3.295   0.817   1.910  0.8720  0.9038  0.7729
    1SOL    HW3 4567   3.342   0.675   1.935 -0.4483  0.3172 -0.0436
    1SOL    MW4 4568   3.355   0.754   1.900  0.1333  0.3009  0.1279
    1SOL     OW 4569   3.152   0.913   1.990 -0.1516  0.2611  0.1096
    1SOL    HW2 4570   3.143   0.920   2.085  0.6735 -0.2029  0.2251
    1SOL    HW3 4571   3.151   1.003   1.959  0.1226  0.4342  0.6097
    1SOL    MW4 4572   3.151   0.926   1.998 -0.0069  0.2227  0.1909
    1SOL     OW 4573   3.159   1.152   1.880  0.0471 -0.1464 -0.1285
    1SOL    HW2 4574   3.241   1.197   1.902 -0.5050 -0.2474  2.2657
    1SOL    HW3 4575   3.091   1.202   1.924 -1.0103 -1.0025 -0.7661
    1SOL    MW4 4576   3.161   1.164   1.889 -0.1652 -0.2728  0.1032
    1SOL     OW 4577   3.377   1.293   1.973  0.0314  0.5808  0.0663
    1SOL    HW2 4578   3.372   1.309   2.067 -1.1127 -0.3224  0.1723
    1SOL    HW3 4579   3.366   1.379   1.933  0.0663  0.9031  0.7497
    1SOL    MW4 4580   3.375   1.307   1.980 -0.1152  0.5043  0.1705
    1SOL     OW 4581   3.327   1.564   1.854 -0.1693 -0.1194 -0.0068
    1SOL    HW2 4582   3.388   1.617   1.906  0.0208  0.3534 -0.6960
    1SOL    HW3 4583   3.241   1.581   1.892  0.0929 -0.5852  0.8086
    1SOL    MW4 4584   3.324   1.573   1.866 -0.1097 -0.1185  0.0098
    1SOL     OW 4585   3.085   1.632   1.944  0.5002  0.2747  0.0171
    1SOL    HW2 4586   3.088   1.636   2.040  0.5339  0.7962 -0.0041
    1SOL    HW3 4587   3.094   1.723   1.916  1.0193  0.0715 -0.4953
    1SOL    MW4 4588   3.087   1.644   1.953  0.5732  0.3167 -0.0533
    1SOL     OW 4589   3.091   1.916   1.850 -0.3467 -0.6486  0.0489
    1SOL    HW2 4590   3.165   1.954   1.896 -1.6233  0.3296  1.3395
    1SOL    HW3 4591   3.110   1.931   1.757  0.4730  0.7375  0.4291
    1SOL    MW4 4592   3.103   1.923   1.843 -0.4067 -0.3366  0.2692
    1SOL     OW 4593   3.316   2.036   1.962  0.2897  0.0329  0.0409
    1SOL    HW2 4594   3.404   2.004   1.941  0.1306  0.2757 -1.0107
    1SOL    HW3 4595   3.321   2.131   1.950 -0.3372 -0.0395 -0.8762
    1SOL    MW4 4596   3.329   2.044   1.958  0.1857  0.0553 -0.2189
    1SOL     OW 4597   3.327   2.317   1.910 -0.0830 -0.2442 -0.0921
    1SOL    HW2 4598   3.259   2.367   1.954 -1.3461 -1.7368 -0.3166
    1SOL    HW3 4599   3.320   2.341   1.817 -0.6009 -0.7157 -0.1788
    1SOL    MW4 4600   3.317   2.327   1.903 -0.3181 -0.5033 -0.1332
    1SOL     OW 4601   3.101   2.430   2.017 -0.4416  0.5701  0.1009
    1SOL    HW2 4602   3.115   2.442   2.111  3.1263 -0.2201 -0.2609
    1SOL    HW3 4603   3.124   2.514   1.978  2.0514 -0.2956 -0.3775
    1SOL    MW4 4604   3.106   2.442   2.024  0.3581  0.3517 -0.0100
    1SOL     OW 4605   3.139   2.710   1.880 -0.0159  0.2046 -0.1142
    1SOL    HW2 4606   3.068   2.764   1.914 -0.9180 -1.2440  0.3899
    1SOL    HW3 4607   3.130   2.715   1.785  0.9322  2.2311 -0.1069
    1SOL    MW4 4608   3.128   2.718   1.872 -0.0098  0.2809 -0.0467
    1SOL     OW 4609   3.363   2.805   1.997  0.1096  0.2290 -0.3308
    1SOL    HW2 4610   3.362   2.784   2.090 -0.2173 -1.8480 -0.7631
    1SOL    HW3 4611   3.277   2.777   1.965  0.9730 -1.0621 -1.6264
    1SOL    MW4 4612   3.352   2.798   2.005  0.1805 -0.2151 -0.5586
    1SOL     OW 4613   3.370   3.060   1.908  0.4880 -0.0882  0.2548
    1SOL    HW2 4614   3.445   3.111   1.937  1.4008 -0.9159 -0.6046
    1SOL    HW3 4615   3.386   2.971   1.941 -0.2746 -0.1879  0.3633
    1SOL    MW4 4616   3.382   3.055   1.916  0.5078 -0.2105  0.1557
    1SOL     OW 4617   3.145   3.214   1.949 -0.0865  0.5298  0.1043
    1SOL    HW2 4618   3.121   3.207   2.042 -1.4808  0.2116 -0.2674
    1SOL    HW3 4619   3.228   3.167   1.942 -0.7114 -0.7291  0.9208
    1SOL    MW4 4620   3.153   3.207   1.961 -0.3529  0.3219  0.1630
    1SOL     OW 4621   3.157   3.495   1.853 -0.1529  0.2137 -0.3242
    1SOL    HW2 4622   3.163   3.404   1.881  0.7115  0.3868  0.0586
    1SOL    HW3 4623   3.232   3.538   1.894  0.5186  0.6949 -2.0047
    1SOL    MW4 4624   3.168   3.489   1.862  0.0496  0.2999 -0.4954
    1SOL     OW 4625   3.371   3.606   1.995  0.2233 -0.2430 -0.2241
    1SOL    HW2 4626   3.439   3.548   1.961 -0.6961 -1.1091 -0.6092
    1SOL    HW3 4627   3.378   3.686   1.943 -0.2787 -1.0457 -1.5476
    1SOL    MW4 4628   3.381   3.609   1.984  0.0358 -0.4632 -0.4495
    1SOL     OW 4629   3.356   3.868   1.888  0.1625 -0.4728  0.0616
    1SOL    HW2 4630   3.288   3.933   1.907  0.7209  0.1516 -0.0501
    1SOL    HW3 4631   3.362   3.867   1.793  1.2285  0.4469  0.1061
    1SOL    MW4 4632   3.347   3.876   1.878  0.3769 -0.2689  0.0528
    1SOL     OW 4633   3.140   4.024   1.966 -0.5055  0.0130  0.6155
    1SOL    HW2 4634   3.143   4.019   2.062  0.1791 -1.9996  0.5050
    1SOL    HW3 4635   3.065   3.970   1.942  0.4044 -0.9518 -0.0718
    1SOL    MW4 4636   3.131   4.016   1.976 -0.2952 -0.3800  0.5102
    1SOL     OW 4637   3.126   4.251   1.816  0.3760  0.1771 -0.0679
    1SOL    HW2 4638   3.135   4.167   1.862  0.6455  0.8337  1.0975
    1SOL    HW3 4639   3.047   4.290   1.854  1.5210  1.4631  1.0580
    1SOL    MW4 4640   3.117   4.245   1.827  0.5624  0.4330  0.2344
    1SOL     OW 4641   3.326   4.363   1.968  0.0639 -0.4608  0.3834
    1SOL    HW2 4642   3.399   4.335   1.913 -0.0156 -0.0692  0.0749
    1SOL    HW3 4643   3.249   4.323   1.928 -0.0169 -0.0256  0.0974
    1SOL    MW4 4644   3.325   4.354   1.955  0.0427 -0.3514  0.3051
    1SOL     OW 4645   3.777   0.001   1.851 -0.3970 -0.0376 -0.6084
    1SOL    HW2 4646   3.773  -0.091   1.877 -1.4132  0.1680  0.0063
    1SOL    HW3 4647   3.700   0.040   1.892  1.3350  1.5996  1.2342
    1SOL    MW4 4648   3.766  -0.006   1.860 -0.3023  0.2055 -0.2842
    1SOL     OW 4649   3.565   0.122   1.990  0.2367 -0.4520  0.4790
    1SOL    HW2 4650   3.552   0.108   2.084 -1.8315 -1.8204  0.0293
    1SOL    HW3 4651   3.493   0.075   1.949 -0.5389  2.4782 -1.6853
    1SOL    MW4 4652   3.554   0.114   1.997 -0.1383 -0.2460  0.1341
    1SOL     OW 4653   3.568   0.377   1.905  0.8120  0.1153  0.5796
    1SOL    HW2 4654   3.556   0.285   1.929 -0.6068  0.4918  1.4150
    1SOL    HW3 4655   3.584   0.375   1.811 -1.1899 -0.8604  0.2246
    1SOL    MW4 4656   3.569   0.364   1.896  0.3607  0.0362  0.6430
    1SOL     OW 4657   3.788   0.508   2.010  0.2098 -0.5546 -0.2789
    1SOL    HW2 4658   3.791   0.594   1.968 -0.0717 -0.8682 -0.9645
    1SOL    HW3 4659   3.717   0.463   1.965 -0.4562 -0.7124  0.9283
    1SOL    MW4 4660   3.779   0.513   1.998  0.0849 -0.6167 -0.2098
    1SOL     OW 4661   3.784   0.755   1.929  0.1985 -0.1011  0.0535
    1SOL    HW2 4662   3.707   0.798   1.968  0.5099 -0.0869  0.6586
    1SOL    HW3 4663   3.771   0.765   1.835 -0.4431  0.0812  0.1547
    1SOL    MW4 4664   3.772   0.762   1.922  0.1547 -0.0752  0.1466
    1SOL     OW 4665   3.560   0.890   2.039  0.8536 -0.6536 -0.2641
    1SOL    HW2 4666   3.569   0.974   1.994  1.6922 -0.7797 -0.3346
    1SOL    HW3 4667   3.492   0.844   1.990  0.5905 -0.1320 -0.3961
    1SOL    MW4 4668   3.552   0.895   2.026  0.9294 -0.6014 -0.2909
    1SOL     OW 4669   3.574   1.124   1.881 -0.2813  0.6404  0.0744
    1SOL    HW2 4670   3.501   1.179   1.908 -1.7462 -0.1513 -2.1481
    1SOL    HW3 4671   3.582   1.140   1.787  1.5111 -0.3411  0.0414
    1SOL    MW4 4672   3.566   1.134   1.872 -0.2379  0.4065 -0.2232
    1SOL     OW 4673   3.789   1.287   1.978  0.3540  0.1350  0.3044
    1SOL    HW2 4674   3.780   1.288   2.074  1.7549 -0.8787  0.4453
    1SOL    HW3 4675   3.717   1.232   1.948 -0.1476  0.5300  0.7506
    1SOL    MW4 4676   3.778   1.280   1.987  0.4725  0.0535  0.3818
    1SOL     OW 4677   3.768   1.554   1.866 -0.4216 -0.4038  0.5097
    1SOL    HW2 4678   3.845   1.602   1.894 -0.7052 -0.4568  1.4127
    1SOL    HW3 4679   3.775   1.469   1.911 -0.5634 -0.7355 -0.0801
    1SOL    MW4 4680   3.779   1.549   1.876 -0.4778 -0.4547  0.5511
    1SOL     OW 4681   3.548   1.673   1.978  0.1845 -0.4192  0.1778
    1SOL    HW2 4682   3.557   1.762   1.943  1.6514 -0.8762 -0.6334
    1SOL    HW3 4683   3.630   1.630   1.955  0.4164 -1.3079  2.5336
    1SOL    MW4 4684   3.560   1.679   1.971  0.4086 -0.5968  0.3817
    1SOL     OW 4685   3.576   1.950   1.905  0.4087  0.5675 -0.3033
    1SOL    HW2 4686   3.649   1.998   1.945 -1.3582  3.2310 -0.1335
    1SOL    HW3 4687   3.600   1.943   1.812 -0.5169  4.3097 -0.9000
    1SOL    MW4 4688   3.589   1.956   1.898  0.0536  1.4127 -0.3595
    1SOL     OW 4689   3.812   2.073   1.998 -0.1686  0.4489  0.0211
    1SOL    HW2 4690   3.882   2.034   1.946 -0.3266 -0.8489  0.7690
    1SOL    HW3 4691   3.801   2.161   1.961  1.1802  0.3149 -0.7318
    1SOL    MW4 4692   3.820   2.080   1.986 -0.0117  0.2601  0.0205
    1SOL     OW 4693   3.765   2.338   1.862 -0.2320  0.1923 -0.0628
    1SOL    HW2 4694   3.844   2.374   1.904 -0.6081  1.1425 -0.1500
    1SOL    HW3 4695   3.693   2.366   1.918 -0.4106 -1.7650  0.7137
    1SOL    MW4 4696   3.766   2.347   1.875 -0.3052  0.0594  0.0283
    1SOL     OW 4697   3.555   2.422   2.013 -0.5084 -0.1886  0.3962
    1SOL    HW2 4698   3.564   2.497   1.955  0.4036 -0.1641  0.5510
    1SOL    HW3 4699   3.470   2.384   1.992 -0.9050  0.7918  0.2036
    1SOL    MW4 4700   3.545   2.427   2.003 -0.4406 -0.0558  0.3915
    1SOL     OW 4701   3.574   2.652   1.857  0.2457  0.3802 -0.1582
    1SOL    HW2 4702   3.647   2.700   1.894 -0.7487  0.8746  1.2107
    1SOL    HW3 4703   3.496   2.698   1.889 -0.6966 -1.3460  0.0987
    1SOL    MW4 4704   3.573   2.664   1.866 -0.0098  0.2177  0.0565
    1SOL     OW 4705   3.789   2.778   1.971  0.6002  0.4379  0.2151
    1SOL    HW2 4706   3.797   2.788   2.066 -1.4852  0.8071  0.3777
    1SOL    HW3 4707   3.795   2.867   1.936 -1.3051  0.5977  0.2471
    1SOL    MW4 4708   3.791   2.791   1.979  0.0739  0.5081  0.2407
    1SOL     OW 4709   3.815   3.029   1.908 -0.1057  0.1979 -0.2584
    1SOL    HW2 4710   3.731   3.057   1.944 -0.3738 -0.6250 -0.2322
    1SOL    HW3 4711   3.809   3.050   1.815 -0.4869 -0.2080 -0.3251
    1SOL    MW4 4712   3.803   3.035   1.900 -0.1915  0.0358 -0.2637
    1SOL     OW 4713   3.589   3.181   1.983 -0.0758  0.6108  0.1667
    1SOL    HW2 4714   3.612   3.181   2.076 -2.0268 -0.5468  0.6703
    1SOL    HW3 4715   3.577   3.274   1.961 -0.0432  0.8558  1.1784
    1SOL    MW4 4716   3.591   3.193   1.992 -0.3288  0.4904  0.3667
    1SOL     OW 4717   3.591   3.453   1.905  0.1453  0.5391 -0.2136
    1SOL    HW2 4718   3.657   3.510   1.943  3.1955 -2.8759 -0.0713
    1SOL    HW3 4719   3.595   3.470   1.811  0.7487  0.8196 -0.1366
    1SOL    MW4 4720   3.600   3.463   1.898  0.6273  0.1256 -0.1845
    1SOL     OW 4721   3.798   3.623   1.993  0.1912 -0.0233 -0.2028
    1SOL    HW2 4722   3.875   3.579   1.958  1.6029  0.0495  2.6128
    1SOL    HW3 4723   3.802   3.712   1.958  1.6498  0.1063  0.2951
    1SOL    MW4 4724   3.808   3.629   1.984  0.5701  0.0036  0.2344
    1SOL     OW 4725   3.816   3.878   1.872 -0.1565 -0.2529  0.3131
    1SOL    HW2 4726   3.738   3.929   1.893  0.0013 -0.2829  0.9716
    1SOL    HW3 4727   3.818   3.876   1.776 -1.4652 -1.0208  0.2911
    1SOL    MW4 4728   3.806   3.885   1.862 -0.3085 -0.3581  0.3970
    1SOL     OW 4729   3.590   4.011   1.944 -0.0619 -0.1059 -0.2116
    1SOL    HW2 4730   3.575   4.012   2.039 -0.4159 -0.1328 -0.2678
    1SOL    HW3 4731   3.524   3.951   1.910 -0.1370  0.1522 -0.5128
    1SOL    MW4 4732   3.580   4.003   1.952 -0.1187 -0.0753 -0.2587
    1SOL     OW 4733   3.554   4.262   1.826 -0.1079 -0.5358 -0.3541
    1SOL    HW2 4734   3.623   4.320   1.859 -2.3807  1.6939  0.6463
    1SOL    HW3 4735   3.573   4.176   1.864  0.8864  0.5573  1.6679
    1SOL    MW4 4736   3.565   4.258   1.835 -0.2763 -0.0973  0.0447
    1SOL     OW 4737   3.769   4.399   1.948 -0.0093 -0.0928  0.2948
    1SOL    HW2 4738   3.775   4.411   2.043  0.3423  0.8735  0.1495
    1SOL    HW3 4739   3.843   4.342   1.927 -0.0098 -0.1997  0.5830
    1SOL    MW4 4740   3.780   4.393   1.958  0.0372  0.0205  0.3135
    1SOL     OW 4741   4.227   4.645   1.868  0.1940  0.0262  0.3085
    1SOL    HW2 4742   4.150   4.688   1.906  0.6494 -0.0456  1.3276
    1SOL    HW3 4743   4.297   4.660   1.931  0.7180 -0.9627 -0.0220
    1SOL    MW4 4744   4.226   4.653   1.881  0.3228 -0.1140  0.3995
    1SOL     OW 4745   4.012   0.115   1.966 -0.0436  0.1032 -0.3069
    1SOL    HW2 4746   4.008   0.100   2.060 -0.8658 -0.5497 -0.4392
    1SOL    HW3 4747   3.930   0.080   1.932  0.7839 -0.8237 -1.4280
    1SOL    MW4 4748   4.001   0.108   1.974 -0.0434 -0.1053 -0.4723
    1SOL     OW 4749   4.016   0.386   1.905  0.2011  0.1640 -0.1287
    1SOL    HW2 4750   4.022   0.293   1.924  0.7174  0.5936  1.9476
    1SOL    HW3 4751   3.936   0.414   1.950  1.5084  1.2409  1.5728
    1SOL    MW4 4752   4.006   0.378   1.913  0.4416  0.3628  0.3698
    1SOL     OW 4753   4.251   0.528   1.926  0.4694 -0.2759 -0.3652
    1SOL    HW2 4754   4.261   0.514   2.021  1.2080  1.3795 -0.1786
    1SOL    HW3 4755   4.164   0.493   1.906  0.0712 -0.1355  1.0374
    1SOL    MW4 4756   4.241   0.522   1.936  0.5140 -0.0390 -0.1556
    1SOL     OW 4757   4.243   0.815   1.897 -0.1585 -0.1637  0.4096
    1SOL    HW2 4758   4.255   0.720   1.888  0.4427 -0.1369  0.8605
    1SOL    HW3 4759   4.232   0.846   1.807 -1.4184 -0.7910  0.3433
    1SOL    MW4 4760   4.243   0.806   1.884 -0.2456 -0.2430  0.4603
    1SOL     OW 4761   4.006   0.908   2.041 -0.2570  0.2676  0.1897
    1SOL    HW2 4762   4.083   0.880   1.992 -0.0276  0.4933  0.4220
    1SOL    HW3 4763   3.937   0.848   2.012 -0.1499  0.4540 -0.4831
    1SOL    MW4 4764   4.007   0.896   2.030 -0.2127  0.3219  0.1314
    1SOL     OW 4765   4.018   1.140   1.897  0.2948  0.4057 -0.3330
    1SOL    HW2 4766   4.020   1.058   1.946 -2.0059  0.4615 -0.0955
    1SOL    HW3 4767   3.945   1.188   1.935  0.8666  2.0534 -1.3006
    1SOL    MW4 4768   4.009   1.135   1.909  0.0663  0.6305 -0.4293
    1SOL     OW 4769   4.216   1.298   1.971 -0.0108 -0.2312  0.4666
    1SOL    HW2 4770   4.219   1.303   2.066 -0.7121  1.1880  0.4342
    1SOL    HW3 4771   4.136   1.250   1.951  0.3926 -0.9613  0.5973
    1SOL    MW4 4772   4.206   1.292   1.981 -0.0505 -0.1403  0.4797
    1SOL     OW 4773   4.180   1.549   1.879 -0.6364 -0.7088 -0.2388
    1SOL    HW2 4774   4.197   1.457   1.900  1.4624 -0.4746 -0.7471
    1SOL    HW3 4775   4.196   1.555   1.785 -0.4088  0.2551 -0.1396
    1SOL    MW4 4776   4.184   1.537   1.869 -0.3295 -0.5507 -0.2928
    1SOL     OW 4777   3.978   1.715   1.962  0.0797  0.1720  0.1062
    1SOL    HW2 4778   3.996   1.716   2.056  0.7520  1.3437 -0.0375
    1SOL    HW3 4779   4.051   1.666   1.924  2.0350  3.2717 -0.2604
    1SOL    MW4 4780   3.990   1.709   1.970  0.4265  0.7356  0.0389
    1SOL     OW 4781   4.026   1.962   1.862  0.4001  0.2843 -0.0834
    1SOL    HW2 4782   3.996   1.879   1.900  1.1611  0.7393  1.5708
    1SOL    HW3 4783   4.022   1.948   1.767  1.5674 -2.0258  0.1697
    1SOL    MW4 4784   4.022   1.949   1.855  0.6542  0.0396  0.1682
    1SOL     OW 4785   4.240   2.090   2.006 -0.2204  0.3492  0.7526
    1SOL    HW2 4786   4.227   2.085   2.100 -0.1886  0.0870  0.7463
    1SOL    HW3 4787   4.164   2.046   1.969 -0.4914  0.9200  0.6389
    1SOL    MW4 4788   4.228   2.083   2.013 -0.2518  0.3901  0.7367
    1SOL     OW 4789   4.257   2.331   1.880 -0.0256  0.1772 -0.0689
    1SOL    HW2 4790   4.252   2.245   1.923 -1.4869  0.3904  0.2078
    1SOL    HW3 4791   4.340   2.367   1.909  0.4004 -0.9586  0.1687
    1SOL    MW4 4792   4.267   2.324   1.889 -0.1626  0.0556 -0.0010
    1SOL     OW 4793   3.996   2.450   1.979  0.1627  0.5669  0.2375
    1SOL    HW2 4794   4.004   2.470   2.072 -0.4368  0.2801  0.3570
    1SOL    HW3 4795   4.068   2.390   1.961 -1.5419 -1.8711  1.2537
    1SOL    MW4 4796   4.006   2.445   1.989 -0.1416  0.2077  0.3874
    1SOL     OW 4797   4.066   2.741   1.942 -0.0080 -0.0734 -0.1417
    1SOL    HW2 4798   4.046   2.648   1.944 -1.8081  0.2864  0.2762
    1SOL    HW3 4799   3.983   2.783   1.967  0.9705  1.6005  0.3365
    1SOL    MW4 4800   4.052   2.735   1.945 -0.1163  0.1948 -0.0234
    1SOL     OW 4801   4.290   2.878   2.009  0.2226 -0.0416 -0.1510
    1SOL    HW2 4802   4.307   2.876   2.103 -0.5325  0.6872  0.0062
    1SOL    HW3 4803   4.204   2.836   2.000  0.4690 -0.4618 -0.5560
    1SOL    MW4 4804   4.281   2.872   2.020  0.1554 -0.0010 -0.1838
    1SOL     OW 4805   4.253   3.124   1.894 -0.2658 -0.0003 -0.2197
    1SOL    HW2 4806   4.166   3.149   1.926 -0.5778 -0.7168 -0.5050
    1SOL    HW3 4807   4.272   3.041   1.939 -0.3008 -0.5276 -1.1787
    1SOL    MW4 4808   4.244   3.116   1.904 -0.3114 -0.1645 -0.3839
    1SOL     OW 4809   4.022   3.223   1.995  0.2684  0.3174 -0.1978
    1SOL    HW2 4810   4.043   3.195   2.085  1.0261 -0.4288 -0.5920
    1SOL    HW3 4811   3.954   3.162   1.966  1.0204 -0.3490 -0.6097
    1SOL    MW4 4812   4.016   3.211   2.003  0.4673  0.1314 -0.3037
    1SOL     OW 4813   4.024   3.484   1.919 -0.6321 -0.1193  0.2692
    1SOL    HW2 4814   4.098   3.524   1.966 -0.4199  0.7786 -0.7984
    1SOL    HW3 4815   4.020   3.395   1.953  1.0291 -0.2271  0.2564
    1SOL    MW4 4816   4.033   3.478   1.930 -0.3848 -0.0150  0.1266
    1SOL     OW 4817   4.258   3.620   2.000 -0.1518 -0.0155 -0.3002
    1SOL    HW2 4818   4.254   3.701   1.950  1.2274 -0.0718 -0.5263
    1SOL    HW3 4819   4.332   3.572   1.963  1.3597  0.2670  2.2392
    1SOL    MW4 4820   4.267   3.624   1.989  0.2294  0.0143  0.0050
    1SOL     OW 4821   4.261   3.865   1.864  0.1492  0.3285 -0.2201
    1SOL    HW2 4822   4.347   3.903   1.886 -0.4836  1.1241  0.9249
    1SOL    HW3 4823   4.261   3.861   1.768  1.2899  0.7334 -0.2500
    1SOL    MW4 4824   4.273   3.870   1.854  0.2165  0.4869 -0.0728
    1SOL     OW 4825   4.046   4.002   1.957 -0.0585  0.0553  0.4969
    1SOL    HW2 4826   4.122   3.953   1.923 -0.0265  0.8621 -0.6291
    1SOL    HW3 4827   3.970   3.950   1.931  0.0217  0.1383  0.0922
    1SOL    MW4 4828   4.046   3.988   1.949 -0.0439  0.1726  0.2949
    1SOL     OW 4829   3.989   4.246   1.835 -0.3122 -0.5339 -0.0571
    1SOL    HW2 4830   4.073   4.285   1.861 -0.4661 -1.0203  1.2090
    1SOL    HW3 4831   3.998   4.154   1.861 -1.0210 -0.7130 -0.4571
    1SOL    MW4 4832   4.002   4.239   1.842 -0.4258 -0.6213  0.0572
    1SOL     OW 4833   4.219   4.378   1.930  0.1597 -0.0648 -0.5559
    1SOL    HW2 4834   4.208   4.364   2.024  0.9364 -1.1062 -0.6222
    1SOL    HW3 4835   4.235   4.472   1.922  0.8433 -0.0955  0.4247
    1SOL    MW4 4836   4.220   4.389   1.941  0.3529 -0.2060 -0.4354
    1SOL     OW 4837   0.223   4.607   2.340 -0.3296  0.3929  0.4143
    1SOL    HW2 4838   0.233   4.598   2.434  0.7942  0.3481  0.2979
    1SOL    HW3 4839   0.299   4.658   2.312 -1.1836  1.2645 -0.3362
    1SOL    MW4 4840   0.234   4.612   2.348 -0.2940  0.5021  0.2999
    1SOL     OW 4841   4.479   0.106   2.297 -0.4333 -0.1761 -0.0034
    1SOL    HW2 4842   4.553   0.048   2.317 -0.0187  0.1642 -0.5207
    1SOL    HW3 4843   4.462   0.093   2.204 -1.2849 -0.5372  0.2006
    1SOL    MW4 4844   4.487   0.097   2.288 -0.4916 -0.1788 -0.0448
    1SOL     OW 4845   4.406   0.357   2.363 -0.2789  0.0452 -0.3132
    1SOL    HW2 4846   4.485   0.400   2.328  0.5991  0.5204  2.0949
    1SOL    HW3 4847   4.414   0.266   2.335  1.4092 -0.0200  0.2635
    1SOL    MW4 4848   4.418   0.351   2.355  0.0596  0.0993  0.0808
    1SOL     OW 4849   0.148   0.486   2.259  0.3710 -0.2991  0.2199
    1SOL    HW2 4850   0.229   0.445   2.288  0.4413 -1.5104 -1.6106
    1SOL    HW3 4851   0.150   0.478   2.163 -0.9184  1.5308  0.0129
    1SOL    MW4 4852   0.159   0.479   2.250  0.2101 -0.2175 -0.0486
    1SOL     OW 4853   0.187   0.736   2.366  0.0878 -0.5036 -0.0055
    1SOL    HW2 4854   0.193   0.724   2.461  0.6802 -0.6462 -0.0622
    1SOL    HW3 4855   0.181   0.647   2.331  1.3125 -0.5051 -0.2030
    1SOL    MW4 4856   0.187   0.723   2.374  0.3275 -0.5227 -0.0389
    1SOL     OW 4857   4.460   0.902   2.306  0.6810  0.1284 -0.7833
    1SOL    HW2 4858   4.537   0.849   2.328  0.4469 -0.3222 -1.0372
    1SOL    HW3 4859   4.459   0.903   2.210  0.9511  0.9884 -0.7760
    1SOL    MW4 4860   4.470   0.895   2.296  0.6852  0.1824 -0.8161
    1SOL     OW 4861   4.489   1.168   2.361  0.5318 -0.3361 -0.2620
    1SOL    HW2 4862   4.506   1.180   2.454  0.3135 -0.5373 -0.1954
    1SOL    HW3 4863   4.476   1.073   2.351 -1.7378 -0.0504 -0.1103
    1SOL    MW4 4864   4.490   1.157   2.372  0.2036 -0.3250 -0.2332
    1SOL     OW 4865   0.218   1.253   2.238 -0.2569  0.4360  0.2245
    1SOL    HW2 4866   0.132   1.224   2.268 -0.3765  0.3771 -0.1672
    1SOL    HW3 4867   0.211   1.252   2.142 -0.5901  2.7566  0.2041
    1SOL    MW4 4868   0.206   1.249   2.229 -0.3166  0.7346  0.1702
    1SOL     OW 4869   0.227   1.516   2.330 -0.1294  0.0304 -0.4274
    1SOL    HW2 4870   0.220   1.519   2.426  0.0677 -0.3597 -0.3981
    1SOL    HW3 4871   0.214   1.423   2.308  1.6858 -0.1936 -0.6273
    1SOL    MW4 4872   0.224   1.504   2.340  0.1361 -0.0507 -0.4501
    1SOL     OW 4873   0.010   1.658   2.213 -0.2261 -0.0627 -0.2116
    1SOL    HW2 4874   0.008   1.745   2.252 -1.5766 -0.6463  1.0876
    1SOL    HW3 4875   0.086   1.615   2.253 -0.9878 -0.2970  1.0128
    1SOL    MW4 4876   0.020   1.664   2.223 -0.5048 -0.1707  0.1214
    1SOL     OW 4877   0.000   1.904   2.328 -0.0374  0.1922  0.0210
    1SOL    HW2 4878  -0.073   1.962   2.310 -0.6612 -0.7413 -0.5341
    1SOL    HW3 4879   0.078   1.960   2.324 -0.6720  1.0878  0.1143
    1SOL    MW4 4880   0.001   1.919   2.325 -0.2036  0.1873 -0.0401
    1SOL     OW 4881   0.225   2.078   2.274  0.1296  0.6405  0.1462
    1SOL    HW2 4882   0.305   2.030   2.297 -0.1948  0.3661  0.7008
    1SOL    HW3 4883   0.214   2.062   2.180  1.6224  2.0078 -0.2797
    1SOL    MW4 4884   0.234   2.070   2.265  0.2837  0.7846  0.1631
    1SOL     OW 4885   0.233   2.344   2.344 -0.3143  0.2409 -0.1196
    1SOL    HW2 4886   0.226   2.346   2.440 -2.0103  0.7479 -0.2457
    1SOL    HW3 4887   0.219   2.252   2.321 -1.4323  0.3699  0.0194
    1SOL    MW4 4888   0.230   2.332   2.354 -0.6856  0.3247 -0.1180
    1SOL     OW 4889   4.481   2.436   2.264  0.2506 -0.8078  0.1063
    1SOL    HW2 4890   4.480   2.529   2.287  0.4475 -0.7408 -0.1524
    1SOL    HW3 4891   4.570   2.407   2.281 -0.0345 -1.1627  1.0117
    1SOL    MW4 4892   4.493   2.444   2.269  0.2390 -0.8457  0.1917
    1SOL     OW 4893   0.017   2.702   2.351 -0.3162  0.8248  0.3765
    1SOL    HW2 4894   0.010   2.719   2.444 -0.3272  2.6083  0.0659
    1SOL    HW3 4895   0.091   2.756   2.321  1.1181 -1.4252 -0.2575
    1SOL    MW4 4896   0.026   2.712   2.359 -0.1283  0.7634  0.2520
    1SOL     OW 4897   0.233   2.860   2.238  0.2621  0.0148 -0.7164
    1SOL    HW2 4898   0.309   2.813   2.272  0.5901 -0.1233 -1.6401
    1SOL    HW3 4899   0.237   2.848   2.144 -0.8448  0.1054 -0.7812
    1SOL    MW4 4900   0.243   2.853   2.230  0.1594  0.0086 -0.8469
    1SOL     OW 4901   0.230   3.095   2.381 -0.5783  0.4521 -0.6377
    1SOL    HW2 4902   0.144   3.133   2.361 -1.9783 -1.4342  1.5457
    1SOL    HW3 4903   0.235   3.017   2.326 -0.8512 -0.1453  0.1674
    1SOL    MW4 4904   0.219   3.090   2.371 -0.7990  0.1242 -0.2432
    1SOL     OW 4905   4.483   3.219   2.278  0.0471  0.0446  0.4238
    1SOL    HW2 4906   4.487   3.304   2.322 -2.2861 -0.2093  1.2284
    1SOL    HW3 4907   4.471   3.240   2.186 -1.2009  0.6131  0.7031
    1SOL    MW4 4908   4.482   3.233   2.272 -0.4254  0.0863  0.5672
    1SOL     OW 4909   0.029   3.473   2.381  0.3451  0.0581  0.3343
    1SOL    HW2 4910   0.037   3.462   2.476 -0.0071  0.1563  0.3758
    1SOL    HW3 4911  -0.059   3.509   2.368  0.2985 -0.1868 -0.0511
    1SOL    MW4 4912   0.019   3.477   2.392  0.2918  0.0389  0.2890
    1SOL     OW 4913   0.219   3.605   2.231  0.2989 -0.3514  0.4678
    1SOL    HW2 4914   0.301   3.565   2.262  1.1354  1.5152  0.7696
    1SOL    HW3 4915   0.152   3.569   2.288  0.8211 -2.3180 -0.1182
    1SOL    MW4 4916   0.221   3.595   2.243  0.4781 -0.3645  0.4301
    1SOL     OW 4917   0.238   3.876   2.337 -0.0246 -0.1158  0.6286
    1SOL    HW2 4918   0.155   3.911   2.305  1.3406  0.6529 -2.1868
    1SOL    HW3 4919   0.240   3.785   2.306  0.3452 -0.0363  0.4192
    1SOL    MW4 4920   0.227   3.868   2.329  0.2043 -0.0041  0.2298
    1SOL     OW 4921   4.482   3.952   2.241 -0.8868 -0.4048  0.1762
    1SOL    HW2 4922   4.470   4.038   2.280  0.1630 -0.3814  0.4550
    1SOL    HW3 4923   4.491   3.969   2.148  0.5697 -0.0865  0.3625
    1SOL    MW4 4924   4.481   3.965   2.234 -0.5560 -0.3595  0.2375
    1SOL     OW 4925   4.463   4.206   2.355  0.4092  0.5417 -0.5865
    1SOL    HW2 4926   4.472   4.188   2.449  1.6701  1.7435 -0.4725
    1SOL    HW3 4927   4.541   4.255   2.332  0.4489 -0.3419 -2.4310
    1SOL    MW4 4928   4.474   4.210   2.364  0.5808  0.5836 -0.8149
    1SOL     OW 4929   0.196   4.343   2.251 -0.0156 -0.2416  0.1832
    1SOL    HW2 4930   0.286   4.312   2.263  0.6500  1.1708 -1.0800
    1SOL    HW3 4931   0.194   4.428   2.294 -0.7768 -0.3018  0.2700
    1SOL    MW4 4932   0.208   4.350   2.258 -0.0282 -0.0634  0.0279
    1SOL     OW 4933   0.640   4.647   2.350  0.2403  0.2117  0.0206
    1SOL    HW2 4934   0.627   4.625   2.442 -0.8382  0.4424 -0.0738
    1SOL    HW3 4935   0.730   4.679   2.346  1.0724 -1.9368  0.5778
    1SOL    MW4 4936   0.650   4.648   2.362  0.2078 -0.0415  0.0813
    1SOL     OW 4937   0.413   0.114   2.245  0.2023 -0.3674 -0.2193
    1SOL    HW2 4938   0.499   0.084   2.275  0.1093 -1.4610 -1.0143
    1SOL    HW3 4939   0.415   0.105   2.150 -0.3671  0.7725 -0.3537
    1SOL    MW4 4940   0.424   0.109   2.237  0.1149 -0.3613 -0.3421
    1SOL     OW 4941   0.366   0.352   2.370 -0.2366 -0.1452 -0.0176
    1SOL    HW2 4942   0.379   0.340   2.464  0.8518  0.4091 -0.0874
    1SOL    HW3 4943   0.389   0.267   2.332  2.3756  0.5155 -0.0429
    1SOL    MW4 4944   0.371   0.339   2.377  0.2517  0.0151 -0.0303
    1SOL     OW 4945   0.602   0.468   2.275  0.3449  0.0821  0.7450
    1SOL    HW2 4946   0.595   0.559   2.304  0.7080  0.2236  0.3857
    1SOL    HW3 4947   0.520   0.428   2.304 -0.3806  0.8436 -0.2205
    1SOL    MW4 4948   0.590   0.475   2.283  0.2971  0.2013  0.5703
    1SOL     OW 4949   0.630   0.712   2.379 -0.3012 -0.0472 -0.4840
    1SOL    HW2 4950   0.626   0.709   2.475 -0.3966 -0.0567 -0.4887
    1SOL    HW3 4951   0.551   0.758   2.352  0.8425  1.9554 -0.4577
    1SOL    MW4 4952   0.619   0.717   2.388 -0.1628  0.2158 -0.4811
    1SOL     OW 4953   0.422   0.857   2.263 -0.9185 -0.5889  0.0805
    1SOL    HW2 4954   0.431   0.947   2.294 -0.7180 -0.8887  0.8866
    1SOL    HW3 4955   0.339   0.827   2.300 -0.6114 -0.9950  0.4348
    1SOL    MW4 4956   0.412   0.865   2.272 -0.8516 -0.6821  0.2337
    1SOL     OW 4957   0.434   1.117   2.333 -0.6579  0.3481  0.0624
    1SOL    HW2 4958   0.441   1.124   2.428  0.2820  0.2955 -0.0032
    1SOL    HW3 4959   0.360   1.173   2.311  0.0632  1.5591  0.6666
    1SOL    MW4 4960   0.425   1.125   2.343 -0.4387  0.5010  0.1335
    1SOL     OW 4961   0.661   1.230   2.233  0.1915 -0.1428  0.3269
    1SOL    HW2 4962   0.653   1.322   2.258 -0.3044  0.2160 -1.0894
    1SOL    HW3 4963   0.575   1.192   2.255  0.5758 -0.4097  1.4152
    1SOL    MW4 4964   0.648   1.237   2.239  0.1768 -0.1307  0.2835
    1SOL     OW 4965   0.673   1.523   2.348  0.1735 -0.0009 -0.0126
    1SOL    HW2 4966   0.681   1.523   2.444  1.0086 -1.3838 -0.0655
    1SOL    HW3 4967   0.751   1.570   2.318  1.6097 -2.3121 -0.0871
    1SOL    MW4 4968   0.685   1.529   2.357  0.4732 -0.4882 -0.0293
    1SOL     OW 4969   0.455   1.656   2.245 -0.0854 -0.7102  0.1051
    1SOL    HW2 4970   0.530   1.611   2.284  0.8788  1.2434  0.5505
    1SOL    HW3 4971   0.379   1.602   2.269  0.8721 -1.2788  1.9104
    1SOL    MW4 4972   0.455   1.643   2.253  0.1682 -0.5273  0.4022
    1SOL     OW 4973   0.444   1.910   2.332  0.1099  0.2356 -0.1715
    1SOL    HW2 4974   0.518   1.956   2.293 -0.5161  0.4954 -1.0497
    1SOL    HW3 4975   0.447   1.822   2.295 -0.3708  0.4265 -0.6815
    1SOL    MW4 4976   0.454   1.904   2.322 -0.0362  0.2950 -0.3548
    1SOL     OW 4977   0.655   2.073   2.218  0.2477  0.1883 -0.0605
    1SOL    HW2 4978   0.739   2.032   2.239  0.9078  1.2483 -0.6037
    1SOL    HW3 4979   0.655   2.155   2.268 -0.6192  0.0264  0.2195
    1SOL    MW4 4980   0.666   2.079   2.228  0.2204  0.3066 -0.0954
    1SOL     OW 4981   0.665   2.317   2.346 -0.1709  0.4494  0.3678
    1SOL    HW2 4982   0.658   2.338   2.439 -1.3996 -0.4888  0.4900
    1SOL    HW3 4983   0.748   2.356   2.319  0.0807  0.9249  1.8007
    1SOL    MW4 4984   0.675   2.325   2.355 -0.2999  0.3884  0.5729
    1SOL     OW 4985   0.455   2.478   2.230 -0.0891  0.2732  0.1013
    1SOL    HW2 4986   0.542   2.454   2.262 -0.2668  0.7719  0.9737
    1SOL    HW3 4987   0.394   2.423   2.278 -0.2486 -0.2567 -0.6935
    1SOL    MW4 4988   0.459   2.468   2.240 -0.1336  0.2692  0.1116
    1SOL     OW 4989   0.429   2.715   2.364  0.3336 -0.1218  0.3778
    1SOL    HW2 4990   0.416   2.686   2.454 -0.3673 -0.0992  0.2920
    1SOL    HW3 4991   0.435   2.634   2.313 -0.4127 -0.1306  0.2975
    1SOL    MW4 4992   0.428   2.701   2.369  0.1426 -0.1199  0.3560
    1SOL     OW 4993   0.660   2.852   2.278  0.4560  0.2979  0.1871
    1SOL    HW2 4994   0.738   2.800   2.295  0.0675 -0.1037  0.7709
    1SOL    HW3 4995   0.587   2.797   2.307 -0.0581  0.5895 -0.5281
    1SOL    MW4 4996   0.661   2.838   2.284  0.3368  0.2835  0.1698
    1SOL     OW 4997   0.693   3.113   2.366  0.1027 -0.1342  0.2942
    1SOL    HW2 4998   0.613   3.160   2.343 -0.3604 -0.9468  0.2480
    1SOL    HW3 4999   0.681   3.025   2.331  0.7324 -0.4596  0.8700
    1SOL    MW4 5000   0.681   3.108   2.359  0.1248 -0.2844  0.3641
    1SOL     OW 5001   0.450   3.236   2.292  0.5892  0.2334  0.3462
    1SOL    HW2 5002   0.381   3.177   2.322 -0.8556  1.2406 -0.9282
    1SOL    HW3 5003   0.457   3.219   2.198  1.6061  0.6211  0.3481
    1SOL    MW4 5004   0.442   3.226   2.284  0.5327  0.4172  0.1783
    1SOL     OW 5005   0.430   3.496   2.361  0.3256 -0.3238 -0.2344
    1SOL    HW2 5006   0.522   3.518   2.344  0.6393 -0.8270  0.7637
    1SOL    HW3 5007   0.423   3.403   2.340 -0.1612 -0.0881 -1.1227
    1SOL    MW4 5008   0.441   3.487   2.356  0.3028 -0.3593 -0.2203
    1SOL     OW 5009   0.664   3.608   2.262  0.6268 -0.3354 -0.0470
    1SOL    HW2 5010   0.679   3.700   2.282  0.4574 -0.3968  0.3631
    1SOL    HW3 5011   0.672   3.602   2.166  0.8425  0.0644 -0.0527
    1SOL    MW4 5012   0.667   3.619   2.252  0.6329 -0.2909  0.0064
    1SOL     OW 5013   0.679   3.875   2.355 -0.0350  0.5182  0.4720
    1SOL    HW2 5014   0.662   3.884   2.449 -0.6928 -1.8205  0.6046
    1SOL    HW3 5015   0.602   3.914   2.314  0.2983  1.6370  0.9001
    1SOL    MW4 5016   0.666   3.881   2.362 -0.0778  0.3572  0.5460
    1SOL     OW 5017   0.465   4.005   2.246  0.2917  0.2969 -0.3102
    1SOL    HW2 5018   0.388   3.951   2.263  1.2822 -0.7296  1.0860
    1SOL    HW3 5019   0.463   4.021   2.152 -0.9162 -0.7994 -0.4824
    1SOL    MW4 5020   0.455   4.000   2.236  0.2630  0.0167 -0.1488
    1SOL     OW 5021   0.453   4.260   2.364  0.0202 -0.0044 -0.2310
    1SOL    HW2 5022   0.523   4.314   2.328 -0.7537  1.1957  0.0204
    1SOL    HW3 5023   0.464   4.175   2.323  0.5632  0.6841 -1.5311
    1SOL    MW4 5024   0.464   4.256   2.354 -0.0103  0.2451 -0.3693
    1SOL     OW 5025   0.662   4.398   2.225  0.4744  0.4975 -0.3591
    1SOL    HW2 5026   0.662   4.487   2.261 -1.6534  0.6757 -0.7451
    1SOL    HW3 5027   0.658   4.411   2.130  0.6721 -0.0048 -0.4362
    1SOL    MW4 5028   0.662   4.412   2.217  0.2198  0.4554 -0.4203
    1SOL     OW 5029   1.111   4.664   2.367 -0.1014  0.2746 -0.2781
    1SOL    HW2 5030   1.127   4.665   2.461  0.1957  1.7152 -0.3377
    1SOL    HW3 5031   1.026   4.706   2.356 -0.1812  0.0231 -0.6525
    1SOL    MW4 5032   1.102   4.669   2.378 -0.0727  0.4315 -0.3355
    1SOL     OW 5033   0.864   0.123   2.321 -0.4549 -0.5400 -0.0744
    1SOL    HW2 5034   0.846   0.216   2.337  0.5536 -0.3101 -0.2718
    1SOL    HW3 5035   0.866   0.115   2.225  0.4740 -0.5624 -0.0589
    1SOL    MW4 5036   0.862   0.134   2.310 -0.1992 -0.5126 -0.0982
    1SOL     OW 5037   0.830   0.386   2.393 -0.3614 -0.0238 -0.6749
    1SOL    HW2 5038   0.901   0.432   2.347 -0.3325  0.8726  0.2509
    1SOL    HW3 5039   0.750   0.426   2.360 -0.3669  0.1929 -0.3949
    1SOL    MW4 5040   0.829   0.397   2.383 -0.3583  0.1231 -0.5157
    1SOL     OW 5041   1.074   0.500   2.276 -0.8441 -0.5183 -0.1846
    1SOL    HW2 5042   1.153   0.460   2.315 -0.9453 -1.1219 -0.5899
    1SOL    HW3 5043   1.081   0.479   2.183 -0.4893  1.1205 -0.5361
    1SOL    MW4 5044   1.086   0.492   2.269 -0.8106 -0.3818 -0.2842
    1SOL     OW 5045   1.102   0.783   2.332  0.0327  0.3699  0.2053
    1SOL    HW2 5046   1.016   0.817   2.309  0.3758  0.4975 -0.9117
    1SOL    HW3 5047   1.101   0.692   2.301  0.3430  0.4097  0.0790
    1SOL    MW4 5048   1.090   0.775   2.325  0.1189  0.3920  0.0415
    1SOL     OW 5049   0.835   0.887   2.297 -0.0948  0.3249 -0.3498
    1SOL    HW2 5050   0.828   0.968   2.347  1.6539  0.3167 -0.0471
    1SOL    HW3 5051   0.768   0.830   2.334 -0.2045  1.0472  0.5920
    1SOL    MW4 5052   0.826   0.890   2.309  0.1215  0.4191 -0.1857
    1SOL     OW 5053   0.852   1.137   2.416  0.7540  0.5876  0.0832
    1SOL    HW2 5054   0.934   1.169   2.377  0.3739 -0.3006 -1.4677
    1SOL    HW3 5055   0.784   1.164   2.354  0.1692 -1.0352 -0.0058
    1SOL    MW4 5056   0.854   1.145   2.402  0.6268  0.2564 -0.1330
    1SOL     OW 5057   1.074   1.227   2.265  0.0709 -0.4531  0.2222
    1SOL    HW2 5058   1.162   1.207   2.295 -0.0511  1.3136  1.7963
    1SOL    HW3 5059   1.084   1.248   2.172  1.6930  2.1768  0.9592
    1SOL    MW4 5060   1.087   1.227   2.256  0.2688  0.1271  0.5271
    1SOL     OW 5061   1.112   1.513   2.328 -0.3655 -0.2590 -0.0192
    1SOL    HW2 5062   1.029   1.544   2.293 -0.4678  0.3455  0.7328
    1SOL    HW3 5063   1.111   1.418   2.314 -0.7879 -0.1364 -0.8171
    1SOL    MW4 5064   1.101   1.505   2.322 -0.4348 -0.1631 -0.0250
    1SOL     OW 5065   0.903   1.662   2.231 -0.2689 -0.1114  0.5776
    1SOL    HW2 5066   0.891   1.746   2.275 -0.3204 -0.5471  1.4009
    1SOL    HW3 5067   0.903   1.684   2.138 -2.3233  0.5604  0.6958
    1SOL    MW4 5068   0.901   1.676   2.225 -0.5468 -0.0802  0.7017
    1SOL     OW 5069   0.852   1.915   2.339 -0.3264  0.3418 -0.5038
    1SOL    HW2 5070   0.862   1.917   2.434 -0.2829  0.2011 -0.5056
    1SOL    HW3 5071   0.938   1.942   2.305  1.1702 -4.1803 -0.5723
    1SOL    MW4 5072   0.865   1.919   2.347 -0.1232 -0.2733 -0.5131
    1SOL     OW 5073   1.086   2.027   2.252  0.2531  0.2689 -0.3228
    1SOL    HW2 5074   1.174   2.012   2.285  0.6586 -0.3144 -1.6249
    1SOL    HW3 5075   1.096   2.025   2.156 -1.1608  0.2251 -0.4780
    1SOL    MW4 5076   1.099   2.025   2.243  0.1202  0.1860 -0.5150
    1SOL     OW 5077   1.084   2.294   2.379  0.1460 -0.0787  0.3709
    1SOL    HW2 5078   1.168   2.328   2.348  0.1756 -0.4493  0.0369
    1SOL    HW3 5079   1.073   2.211   2.331 -0.5103  0.0772  0.2519
    1SOL    MW4 5080   1.093   2.287   2.368  0.0633 -0.1068  0.3111
    1SOL     OW 5081   0.895   2.448   2.241 -0.4300 -0.0852  0.0784
    1SOL    HW2 5082   0.969   2.398   2.276 -0.9912 -0.4709  0.7336
    1SOL    HW3 5083   0.902   2.440   2.146  1.0594  0.8871  0.0936
    1SOL    MW4 5084   0.905   2.440   2.233 -0.3075 -0.0079  0.1669
    1SOL     OW 5085   0.891   2.693   2.332 -0.2559 -0.3927 -0.1296
    1SOL    HW2 5086   0.900   2.685   2.427 -0.5505  0.6527 -0.0084
    1SOL    HW3 5087   0.911   2.605   2.298  0.6700 -0.5604  0.8303
    1SOL    MW4 5088   0.895   2.680   2.340 -0.1726 -0.2768  0.0131
    1SOL     OW 5089   1.108   2.842   2.258 -0.1441  0.2660  0.3216
    1SOL    HW2 5090   1.172   2.788   2.303 -0.0051 -0.1523 -0.3739
    1SOL    HW3 5091   1.023   2.806   2.285 -0.0612 -0.0151  0.2080
    1SOL    MW4 5092   1.105   2.830   2.267 -0.1148  0.1736  0.2151
    1SOL     OW 5093   1.108   3.117   2.337  0.2880  0.0083  0.1182
    1SOL    HW2 5094   1.031   3.156   2.295  0.3466 -0.8999 -0.8733
    1SOL    HW3 5095   1.106   3.025   2.311  0.1347 -0.6797  2.4475
    1SOL    MW4 5096   1.098   3.110   2.328  0.2754 -0.2024  0.2947
    1SOL     OW 5097   0.891   3.228   2.226 -0.7252  0.3204  0.3948
    1SOL    HW2 5098   0.883   3.320   2.251 -0.3970  0.1457  1.1487
    1SOL    HW3 5099   0.827   3.182   2.280  1.1111 -0.2737  2.1370
    1SOL    MW4 5100   0.882   3.234   2.236 -0.4396  0.2191  0.7243
    1SOL     OW 5101   0.897   3.483   2.339 -0.3039  0.1231  0.4120
    1SOL    HW2 5102   0.908   3.466   2.433 -0.1538 -2.5261 -0.0563
    1SOL    HW3 5103   0.812   3.526   2.332 -0.2159  0.5515  1.7788
    1SOL    MW4 5104   0.887   3.486   2.351 -0.2725 -0.1700  0.5305
    1SOL     OW 5105   1.115   3.609   2.229  0.2644 -0.8559 -0.3973
    1SOL    HW2 5106   1.198   3.586   2.271  0.3991  0.5318  0.1396
    1SOL    HW3 5107   1.049   3.555   2.273  0.5569 -0.1811  0.8805
    1SOL    MW4 5108   1.117   3.599   2.240  0.3208 -0.5839 -0.1581
    1SOL     OW 5109   1.104   3.892   2.263 -0.1846  0.2166 -0.5062
    1SOL    HW2 5110   1.198   3.911   2.265  0.0022 -0.8009  1.5015
    1SOL    HW3 5111   1.099   3.797   2.254 -1.0280  0.2858 -0.8002
    1SOL    MW4 5112   1.116   3.882   2.262 -0.2712  0.0913 -0.2801
    1SOL     OW 5113   0.856   4.014   2.203 -0.3303  0.3190  0.2766
    1SOL    HW2 5114   0.947   3.994   2.222 -0.0992  0.0939 -0.9707
    1SOL    HW3 5115   0.806   3.958   2.262  0.3390 -0.9453 -0.3189
    1SOL    MW4 5116   0.861   4.004   2.213 -0.2115  0.1225  0.0336
    1SOL     OW 5117   0.865   4.270   2.334  0.1349  0.6450 -0.1639
    1SOL    HW2 5118   0.853   4.189   2.285 -0.9401 -0.2459  1.5409
    1SOL    HW3 5119   0.794   4.327   2.303  0.4127  0.6587 -0.7827
    1SOL    MW4 5120   0.854   4.267   2.323  0.0298  0.5293 -0.0205
    1SOL     OW 5121   1.108   4.400   2.247  0.2809 -0.0474  0.1196
    1SOL    HW2 5122   1.021   4.361   2.252  0.3904 -0.5892 -1.8686
    1SOL    HW3 5123   1.102   4.478   2.302 -1.2322 -0.4844  0.6071
    1SOL    MW4 5124   1.096   4.405   2.255  0.0957 -0.1769 -0.0784
    1SOL     OW 5125   1.516   4.652   2.356 -0.1593  0.3466  0.2910
    1SOL    HW2 5126   1.596   4.694   2.322  0.7750 -0.9603  0.8361
    1SOL    HW3 5127   1.445   4.705   2.320  0.9190  0.9718 -0.9891
    1SOL    MW4 5128   1.517   4.665   2.347  0.1062  0.2570  0.1941
    1SOL     OW 5129   1.298   0.162   2.242 -0.3439 -0.4233  0.0832
    1SOL    HW2 5130   1.330   0.232   2.299 -0.3961 -0.6451  0.3834
    1SOL    HW3 5131   1.234   0.115   2.294 -1.9504  0.6600 -0.8852
    1SOL    MW4 5132   1.294   0.165   2.256 -0.5628 -0.3096 -0.0050
    1SOL     OW 5133   1.340   0.405   2.366  0.7502  0.1569  0.3398
    1SOL    HW2 5134   1.352   0.392   2.460 -0.0725  0.1492  0.4440
    1SOL    HW3 5135   1.428   0.424   2.334  1.3187 -1.6002  0.8216
    1SOL    MW4 5136   1.353   0.406   2.374  0.7166 -0.0760  0.4170
    1SOL     OW 5137   1.578   0.486   2.262  0.4388  0.2854  0.0941
    1SOL    HW2 5138   1.662   0.448   2.288  0.8758  0.8593 -0.4679
    1SOL    HW3 5139   1.580   0.482   2.166 -0.4040 -0.1915  0.0921
    1SOL    MW4 5140   1.589   0.480   2.252  0.3853  0.2982  0.0193
    1SOL     OW 5141   1.553   0.750   2.320 -0.1412 -0.2450 -0.3114
    1SOL    HW2 5142   1.634   0.786   2.285  0.0166 -1.2656 -1.0263
    1SOL    HW3 5143   1.554   0.658   2.293 -0.7109 -0.6968  1.1530
    1SOL    MW4 5144   1.564   0.743   2.312 -0.1955 -0.4393 -0.2124
    1SOL     OW 5145   1.335   0.905   2.248 -0.0934  0.3281 -0.2734
    1SOL    HW2 5146   1.405   0.844   2.273 -0.0013  1.1385  1.5430
    1SOL    HW3 5147   1.255   0.866   2.283 -0.0006  1.3376  1.1263
    1SOL    MW4 5148   1.334   0.892   2.256 -0.0690  0.5682  0.1509
    1SOL     OW 5149   1.330   1.161   2.341 -0.4454 -0.2807  0.0280
    1SOL    HW2 5150   1.320   1.143   2.434  2.1467  0.2391  0.4399
    1SOL    HW3 5151   1.344   1.075   2.301 -1.5829 -0.5059  0.0846
    1SOL    MW4 5152   1.330   1.148   2.348 -0.2534 -0.2419  0.0896
    1SOL     OW 5153   1.573   1.303   2.276  0.2299  0.2035 -0.1194
    1SOL    HW2 5154   1.489   1.267   2.305  0.6863  0.2682  1.3398
    1SOL    HW3 5155   1.571   1.295   2.181 -1.2205 -0.2571 -0.0690
    1SOL    MW4 5156   1.561   1.297   2.267  0.0988  0.1513  0.0799
    1SOL     OW 5157   1.562   1.553   2.378 -0.1779  0.2430 -0.1552
    1SOL    HW2 5158   1.639   1.605   2.354  0.0097 -0.2488 -0.6270
    1SOL    HW3 5159   1.582   1.464   2.348 -0.6012 -0.0536  0.4211
    1SOL    MW4 5160   1.575   1.548   2.371 -0.2090  0.1390 -0.1416
    1SOL     OW 5161   1.342   1.680   2.268  0.0007  0.0975 -0.3871
    1SOL    HW2 5162   1.420   1.630   2.290  0.3088  1.5866  2.0596
    1SOL    HW3 5163   1.269   1.622   2.292  0.3501 -0.0074  0.4182
    1SOL    MW4 5164   1.342   1.665   2.274  0.0876  0.2801  0.0420
    1SOL     OW 5165   1.322   1.940   2.361  0.3077  0.3603 -0.2692
    1SOL    HW2 5166   1.389   1.998   2.323 -0.6190  0.6955 -1.4189
    1SOL    HW3 5167   1.332   1.857   2.314  0.3774  0.1961  0.0389
    1SOL    MW4 5168   1.332   1.937   2.350  0.1947  0.3830 -0.3803
    1SOL     OW 5169   1.568   2.064   2.263 -0.0011 -0.1800 -0.3343
    1SOL    HW2 5170   1.637   1.999   2.278  0.1750 -0.0234 -0.4569
    1SOL    HW3 5171   1.567   2.075   2.168 -0.7983 -0.8335 -0.4098
    1SOL    MW4 5172   1.577   2.056   2.252 -0.0831 -0.2456 -0.3603
    1SOL     OW 5173   1.559   2.343   2.330  0.6235  0.0707  0.0104
    1SOL    HW2 5174   1.546   2.339   2.425  2.2438  1.0660  0.3034
    1SOL    HW3 5175   1.562   2.251   2.303  0.0558 -0.2178  0.9037
    1SOL    MW4 5176   1.558   2.330   2.339  0.7625  0.1640  0.1667
    1SOL     OW 5177   1.312   2.434   2.232 -0.0634 -0.4293  0.5391
    1SOL    HW2 5178   1.400   2.408   2.259  0.3094 -1.5097 -1.6434
    1SOL    HW3 5179   1.313   2.430   2.137 -2.4835 -0.4941  0.4747
    1SOL    MW4 5180   1.324   2.430   2.223 -0.3335 -0.5803  0.2427
    1SOL     OW 5181   1.334   2.690   2.328 -0.0729 -0.1675  0.2604
    1SOL    HW2 5182   1.411   2.733   2.290  0.3913 -0.1474  1.2044
    1SOL    HW3 5183   1.332   2.604   2.286  0.0431  0.0975 -0.2993
    1SOL    MW4 5184   1.344   2.684   2.318  0.0037 -0.1299  0.3111
    1SOL     OW 5185   1.568   2.829   2.226  0.0359 -0.3918 -0.0398
    1SOL    HW2 5186   1.556   2.915   2.266  1.1297 -0.6529  0.8700
    1SOL    HW3 5187   1.590   2.847   2.135 -0.1169  0.2679  0.0509
    1SOL    MW4 5188   1.569   2.842   2.220  0.1602 -0.3390  0.0920
    1SOL     OW 5189   1.562   3.090   2.327 -0.0672  0.0592  0.4622
    1SOL    HW2 5190   1.574   3.102   2.421  1.7739  1.0101  0.1456
    1SOL    HW3 5191   1.490   3.149   2.305 -0.3152  0.0521  1.2304
    1SOL    MW4 5192   1.554   3.100   2.336  0.1428  0.1836  0.5219
    1SOL     OW 5193   1.342   3.242   2.242  0.1517  0.2935  0.2159
    1SOL    HW2 5194   1.261   3.197   2.265 -0.2737  1.6136  1.3768
    1SOL    HW3 5195   1.340   3.248   2.146 -0.6517 -0.5355  0.1822
    1SOL    MW4 5196   1.331   3.237   2.232 -0.0104  0.3583  0.3650
    1SOL     OW 5197   1.346   3.514   2.348  0.2540 -0.5337  0.0383
    1SOL    HW2 5198   1.333   3.500   2.442 -1.6092 -0.5374 -0.2075
    1SOL    HW3 5199   1.334   3.427   2.309 -0.8835 -0.2064 -0.3829
    1SOL    MW4 5200   1.343   3.500   2.355 -0.1420 -0.4911 -0.0498
    1SOL     OW 5201   1.590   3.591   2.276  0.1171 -0.0629  0.4631
    1SOL    HW2 5202   1.582   3.684   2.293 -0.9250  0.0372 -0.4933
    1SOL    HW3 5203   1.512   3.552   2.315  0.2162 -0.4441  0.2867
    1SOL    MW4 5204   1.579   3.598   2.283 -0.0074 -0.1001  0.3138
    1SOL     OW 5205   1.590   3.865   2.362  0.3334  0.5728 -0.0108
    1SOL    HW2 5206   1.592   3.836   2.453  0.7292 -1.9383 -0.7818
    1SOL    HW3 5207   1.681   3.884   2.341  0.6334 -1.5130 -0.6776
    1SOL    MW4 5208   1.602   3.864   2.371  0.4252 -0.0336 -0.2003
    1SOL     OW 5209   1.361   3.995   2.265 -0.1581  0.4767 -0.0281
    1SOL    HW2 5210   1.443   3.955   2.295  0.9092  1.2871 -1.7738
    1SOL    HW3 5211   1.371   4.002   2.170 -1.9982  1.1652 -0.1934
    1SOL    MW4 5212   1.373   3.991   2.256 -0.2600  0.6742 -0.2801
    1SOL     OW 5213   1.302   4.246   2.364 -0.4100  0.1015  0.1156
    1SOL    HW2 5214   1.303   4.152   2.343  0.2992 -0.1550  1.2454
    1SOL    HW3 5215   1.237   4.283   2.305  0.2402 -0.8922 -1.2573
    1SOL    MW4 5216   1.294   4.238   2.353 -0.2307 -0.0634  0.0837
    1SOL     OW 5217   1.533   4.391   2.281  0.1456 -0.1569 -0.0356
    1SOL    HW2 5218   1.451   4.351   2.311 -0.4957 -0.7249 -2.4655
    1SOL    HW3 5219   1.523   4.484   2.302  0.1478 -0.6713  2.3875
    1SOL    MW4 5220   1.521   4.398   2.288  0.0614 -0.2999 -0.0367
    1SOL     OW 5221   2.012   4.647   2.301 -0.3250  0.1945 -0.0273
    1SOL    HW2 5222   2.101   4.682   2.294  0.0596 -0.9830 -1.4707
    1SOL    HW3 5223   2.020   4.557   2.269 -2.1554  0.2798 -0.8014
    1SOL    MW4 5224   2.025   4.640   2.296 -0.5157  0.0501 -0.3200
    1SOL     OW 5225   1.760   0.082   2.250 -0.2356  0.1219  0.2126
    1SOL    HW2 5226   1.752   0.172   2.282 -0.7594  0.5474 -1.0925
    1SOL    HW3 5227   1.844   0.051   2.285  1.2871  2.0565 -1.5827
    1SOL    MW4 5228   1.770   0.090   2.259 -0.1038  0.4333 -0.1965
    1SOL     OW 5229   1.791   0.341   2.346  0.1580 -0.1846 -0.0867
    1SOL    HW2 5230   1.775   0.360   2.438  0.0033 -1.0417  0.0663
    1SOL    HW3 5231   1.869   0.392   2.324 -0.6905  1.2342  0.1018
    1SOL    MW4 5232   1.799   0.351   2.355  0.0256 -0.1105 -0.0412
    1SOL     OW 5233   2.004   0.519   2.262 -0.5810  0.0838  0.4765
    1SOL    HW2 5234   2.000   0.609   2.295  0.5484  0.6025 -0.7575
    1SOL    HW3 5235   2.005   0.528   2.167 -0.5564 -1.2409  0.3431
    1SOL    MW4 5236   2.004   0.532   2.254 -0.4287 -0.0225  0.2964
    1SOL     OW 5237   1.995   0.782   2.352 -0.0515 -0.4576  0.0560
    1SOL    HW2 5238   2.073   0.821   2.312 -1.0851  1.6465 -0.0310
    1SOL    HW3 5239   2.019   0.768   2.443 -0.1627  2.1048  0.5338
    1SOL    MW4 5240   2.008   0.786   2.359 -0.2027  0.1581  0.1080
    1SOL     OW 5241   1.776   0.892   2.215 -0.2441 -0.0238 -0.1675
    1SOL    HW2 5242   1.773   0.984   2.239  1.5291 -0.1838  0.6890
    1SOL    HW3 5243   1.853   0.857   2.259 -0.8390 -1.9053 -0.5442
    1SOL    MW4 5244   1.786   0.900   2.224 -0.0886 -0.2931 -0.1042
    1SOL     OW 5245   1.787   1.143   2.338  0.2606  0.2089 -0.1070
    1SOL    HW2 5246   1.861   1.199   2.314  1.0336 -0.8125 -0.1488
    1SOL    HW3 5247   1.710   1.198   2.325  0.9177  0.8179 -1.4819
    1SOL    MW4 5248   1.786   1.158   2.333  0.4493  0.1545 -0.2940
    1SOL     OW 5249   2.015   1.295   2.248  0.0452  0.2408  0.0601
    1SOL    HW2 5250   2.029   1.367   2.309 -0.0947 -0.5822  1.0793
    1SOL    HW3 5251   2.089   1.236   2.261 -1.2922 -1.2218  1.3150
    1SOL    MW4 5252   2.026   1.297   2.258 -0.1497 -0.0608  0.3603
    1SOL     OW 5253   2.047   1.551   2.423  0.0009  0.8008 -0.3446
    1SOL    HW2 5254   2.054   1.544   2.518 -0.5344 -0.2455 -0.3789
    1SOL    HW3 5255   1.957   1.580   2.408  0.6132  2.7439 -0.4610
    1SOL    MW4 5256   2.036   1.554   2.433  0.0112  0.9192 -0.3645
    1SOL     OW 5257   1.799   1.660   2.299  0.1402 -0.8906 -0.3921
    1SOL    HW2 5258   1.808   1.753   2.320  0.5835 -1.1404  0.5415
    1SOL    HW3 5259   1.811   1.655   2.204 -0.3219  0.0555 -0.5019
    1SOL    MW4 5260   1.802   1.671   2.289  0.1374 -0.7987 -0.2832
    1SOL     OW 5261   1.800   1.924   2.329  0.9780 -0.2865 -0.0593
    1SOL    HW2 5262   1.800   1.931   2.424 -1.2202  0.9286 -0.1191
    1SOL    HW3 5263   1.865   1.988   2.301  0.0891  0.8898  0.5420
    1SOL    MW4 5264   1.809   1.933   2.338  0.5708  0.0290  0.0122
    1SOL     OW 5265   2.001   2.108   2.254  0.0316  0.2053  0.0756
    1SOL    HW2 5266   2.068   2.045   2.278 -0.3035 -0.5567 -0.9109
    1SOL    HW3 5267   1.996   2.102   2.158 -0.2029  1.5244 -0.0061
    1SOL    MW4 5268   2.009   2.099   2.244 -0.0436  0.2789 -0.0653
    1SOL     OW 5269   2.009   2.386   2.330 -0.1396  0.4338  0.0172
    1SOL    HW2 5270   2.084   2.417   2.279 -0.3945  0.2961 -0.4373
    1SOL    HW3 5271   2.007   2.292   2.314 -0.6300  0.4918 -0.2585
    1SOL    MW4 5272   2.019   2.378   2.321 -0.2377  0.4234 -0.0789
    1SOL     OW 5273   1.770   2.451   2.217  0.0537  0.1297  0.7935
    1SOL    HW2 5274   1.850   2.435   2.267 -0.8825 -1.2715  1.9019
    1SOL    HW3 5275   1.704   2.397   2.260 -1.4768  1.2033 -0.1478
    1SOL    MW4 5276   1.772   2.442   2.229 -0.2718  0.0863  0.8154
    1SOL     OW 5277   1.787   2.709   2.320 -0.0726  0.0376 -0.2827
    1SOL    HW2 5278   1.794   2.624   2.276 -0.6904  0.0186 -0.3508
    1SOL    HW3 5279   1.706   2.747   2.286  0.3803  0.8099 -0.5264
    1SOL    MW4 5280   1.777   2.703   2.309 -0.0943  0.1371 -0.3238
    1SOL     OW 5281   2.001   2.836   2.224 -0.0377  0.1672  0.2282
    1SOL    HW2 5282   2.080   2.804   2.268 -0.2816 -0.4566  0.2145
    1SOL    HW3 5283   1.929   2.796   2.272 -0.3582  0.8829  0.3540
    1SOL    MW4 5284   2.002   2.826   2.236 -0.1123  0.1793  0.2432
    1SOL     OW 5285   1.969   3.099   2.342  0.1201  0.2268 -0.0414
    1SOL    HW2 5286   2.044   3.151   2.315  0.7848 -0.3172  0.7383
    1SOL    HW3 5287   1.987   3.011   2.307 -0.0541  0.0488  0.3095
    1SOL    MW4 5288   1.981   3.094   2.334  0.1848  0.1314  0.1078
    1SOL     OW 5289   1.772   3.212   2.195 -0.1313  0.0266  0.8552
    1SOL    HW2 5290   1.839   3.158   2.238 -0.1337 -1.9825 -1.5889
    1SOL    HW3 5291   1.689   3.171   2.221 -0.1753 -0.5400 -0.1471
    1SOL    MW4 5292   1.770   3.199   2.204 -0.1374 -0.3133  0.4003
    1SOL     OW 5293   1.813   3.453   2.342  0.6384  0.6289  0.1151
    1SOL    HW2 5294   1.800   3.370   2.296  0.9898  0.6391 -0.0052
    1SOL    HW3 5295   1.737   3.506   2.319  0.0429  0.0713  0.7831
    1SOL    MW4 5296   1.802   3.449   2.333  0.6062  0.5569  0.1869
    1SOL     OW 5297   2.007   3.641   2.272  0.2306  0.4663  0.3241
    1SOL    HW2 5298   1.938   3.578   2.295  1.0292 -0.1029  1.2448
    1SOL    HW3 5299   2.014   3.636   2.177 -0.0148 -0.5195  0.3527
    1SOL    MW4 5300   1.999   3.632   2.263  0.3036  0.2611  0.4492
    1SOL     OW 5301   2.044   3.891   2.368  0.1786  0.2308  0.4008
    1SOL    HW2 5302   2.029   3.888   2.463  2.1990 -0.4940  0.7051
    1SOL    HW3 5303   2.038   3.800   2.340  1.8041  0.1886  0.1880
    1SOL    MW4 5304   2.041   3.879   2.377  0.6597  0.1297  0.4127
    1SOL     OW 5305   1.824   3.997   2.259  0.1624 -0.0880 -0.5842
    1SOL    HW2 5306   1.901   3.960   2.301 -0.5628 -1.1385 -0.1542
    1SOL    HW3 5307   1.843   3.991   2.165  1.1944  0.9796 -0.4481
    1SOL    MW4 5308   1.836   3.991   2.252  0.2028 -0.0858 -0.5095
    1SOL     OW 5309   1.784   4.272   2.323  0.0409  0.1158 -0.1425
    1SOL    HW2 5310   1.783   4.183   2.290  0.2798  0.0856 -0.0687
    1SOL    HW3 5311   1.699   4.308   2.299 -0.2923 -0.3326  0.3842
    1SOL    MW4 5312   1.773   4.265   2.315  0.0285  0.0529 -0.0632
    1SOL     OW 5313   2.034   4.360   2.261 -0.1618  0.1695  0.1935
    1SOL    HW2 5314   1.943   4.339   2.278 -0.1238 -1.0036 -1.0649
    1SOL    HW3 5315   2.042   4.362   2.166  1.0681  0.5156  0.2924
    1SOL    MW4 5316   2.023   4.358   2.251  0.0052  0.0601  0.0405
    1SOL     OW 5317   2.485   4.638   2.331 -0.4589  0.2793 -0.5863
    1SOL    HW2 5318   2.574   4.663   2.306  0.2362  0.1350  1.5916
    1SOL    HW3 5319   2.476   4.548   2.301 -0.5615  0.8872 -2.4622
    1SOL    MW4 5320   2.495   4.630   2.324 -0.3808  0.3405 -0.5465
    1SOL     OW 5321   2.263   0.108   2.253  0.4445 -0.1366 -0.3107
    1SOL    HW2 5322   2.263   0.193   2.298  1.3344  0.3102 -1.1388
    1SOL    HW3 5323   2.344   0.066   2.280 -0.1853 -0.9098  0.4142
    1SOL    MW4 5324   2.274   0.114   2.263  0.4790 -0.1796 -0.3245
    1SOL     OW 5325   2.241   0.359   2.359 -0.7364  0.3219  0.4970
    1SOL    HW2 5326   2.158   0.398   2.334 -1.0998 -0.2883  0.7468
    1SOL    HW3 5327   2.307   0.415   2.318 -1.3039 -0.3440 -1.3633
    1SOL    MW4 5328   2.239   0.371   2.350 -0.8593  0.1535  0.2844
    1SOL     OW 5329   2.440   0.484   2.243 -0.1689 -0.5936 -0.3704
    1SOL    HW2 5330   2.521   0.441   2.270  0.6623  0.2275 -1.5005
    1SOL    HW3 5331   2.428   0.458   2.152  0.0009  1.0010 -0.8711
    1SOL    MW4 5332   2.450   0.475   2.235 -0.0367 -0.2749 -0.5856
    1SOL     OW 5333   2.431   0.732   2.360  0.6820  0.5078  0.0821
    1SOL    HW2 5334   2.506   0.783   2.331  1.6858 -0.1113  1.5891
    1SOL    HW3 5335   2.441   0.647   2.316  1.7881 -0.1595  1.5826
    1SOL    MW4 5336   2.442   0.727   2.350  0.9601  0.3380  0.4787
    1SOL     OW 5337   2.227   0.865   2.251 -0.0022  0.1212 -0.4080
    1SOL    HW2 5338   2.241   0.957   2.274 -0.4206  0.0059  0.3265
    1SOL    HW3 5339   2.296   0.818   2.297  1.7178  0.3058 -2.7443
    1SOL    MW4 5340   2.238   0.871   2.260  0.1698  0.1304 -0.6194
    1SOL     OW 5341   2.228   1.135   2.325 -0.4763 -0.1065  0.1442
    1SOL    HW2 5342   2.312   1.177   2.308 -0.1015 -0.5204  0.9271
    1SOL    HW3 5343   2.216   1.142   2.420 -1.8523  0.9372 -0.0908
    1SOL    MW4 5344   2.237   1.141   2.335 -0.6087 -0.0234  0.2162
    1SOL     OW 5345   2.446   1.281   2.242  0.2507  0.2280  0.2301
    1SOL    HW2 5346   2.519   1.235   2.281 -0.6326 -1.5576 -0.1545
    1SOL    HW3 5347   2.450   1.369   2.278  1.6270 -0.3226  1.4452
    1SOL    MW4 5348   2.456   1.286   2.252  0.3159 -0.0802  0.3397
    1SOL     OW 5349   2.455   1.553   2.329 -0.3015 -0.1532  0.6636
    1SOL    HW2 5350   2.470   1.578   2.420 -0.5731  0.6151  0.4999
    1SOL    HW3 5351   2.524   1.597   2.280 -0.8599  0.3941  0.3600
    1SOL    MW4 5352   2.466   1.562   2.335 -0.4108  0.0205  0.6022
    1SOL     OW 5353   2.211   1.631   2.216  0.2625 -0.0852  0.0035
    1SOL    HW2 5354   2.299   1.613   2.248  0.0427  0.3554  0.8786
    1SOL    HW3 5355   2.154   1.612   2.291 -0.3123  0.4172 -0.3019
    1SOL    MW4 5356   2.215   1.626   2.230  0.1576  0.0391  0.0784
    1SOL     OW 5357   2.198   1.906   2.306  0.0851 -0.1139 -0.2819
    1SOL    HW2 5358   2.289   1.937   2.303  0.1412 -0.1584  0.9039
    1SOL    HW3 5359   2.202   1.818   2.267  0.8586 -0.8402  1.3881
    1SOL    MW4 5360   2.211   1.898   2.300  0.1945 -0.2155  0.0949
    1SOL     OW 5361   2.440   2.024   2.254 -0.4518  0.1774 -0.5157
    1SOL    HW2 5362   2.527   1.995   2.282 -0.7493  1.0244  1.3758
    1SOL    HW3 5363   2.443   2.022   2.159  2.0816  1.4208 -0.5030
    1SOL    MW4 5364   2.452   2.020   2.245 -0.1571  0.4532 -0.2644
    1SOL     OW 5365   2.398   2.297   2.338 -0.0493 -0.2225 -0.2154
    1SOL    HW2 5366   2.471   2.349   2.305  0.2581 -0.2083  0.4933
    1SOL    HW3 5367   2.417   2.208   2.308 -0.0037 -0.1332 -0.4597
    1SOL    MW4 5368   2.410   2.292   2.329 -0.0029 -0.2089 -0.1543
    1SOL     OW 5369   2.228   2.464   2.194 -0.0354  0.2188  0.1273
    1SOL    HW2 5370   2.246   2.544   2.244  0.5352  0.0317  0.2227
    1SOL    HW3 5371   2.283   2.397   2.235 -0.8456 -0.3265  0.3350
    1SOL    MW4 5372   2.238   2.465   2.206 -0.0670  0.1223  0.1674
    1SOL     OW 5373   2.257   2.704   2.332  0.0514  0.3768 -0.1522
    1SOL    HW2 5374   2.247   2.686   2.425 -1.2487  0.9684 -0.1723
    1SOL    HW3 5375   2.338   2.756   2.326  0.2940  0.0832  0.6017
    1SOL    MW4 5376   2.266   2.708   2.343 -0.0882  0.4158 -0.0553
    1SOL     OW 5377   2.486   2.857   2.262  0.1668  0.1906  0.3163
    1SOL    HW2 5378   2.555   2.794   2.285  1.1982  1.2926  0.2981
    1SOL    HW3 5379   2.493   2.865   2.167 -0.5728 -0.3639  0.2176
    1SOL    MW4 5380   2.496   2.850   2.253  0.2053  0.2630  0.3009
    1SOL     OW 5381   2.448   3.111   2.365 -0.3102 -0.1501  0.0818
    1SOL    HW2 5382   2.531   3.159   2.353 -0.4632  0.2138  0.4638
    1SOL    HW3 5383   2.464   3.026   2.325  0.4930 -0.3386  0.7811
    1SOL    MW4 5384   2.461   3.106   2.358 -0.2246 -0.1266  0.2244
    1SOL     OW 5385   2.203   3.221   2.276  0.1702 -0.1274 -0.5533
    1SOL    HW2 5386   2.197   3.308   2.315  1.1705  0.4707 -1.7358
    1SOL    HW3 5387   2.266   3.175   2.331  0.9714  0.4568 -0.9779
    1SOL    MW4 5388   2.210   3.226   2.288  0.4079  0.0284 -0.7656
    1SOL     OW 5389   2.259   3.505   2.331  0.4437 -0.0815  0.0853
    1SOL    HW2 5390   2.253   3.500   2.427 -1.3592  0.9542  0.0423
    1SOL    HW3 5391   2.177   3.547   2.304  1.4137  0.6029 -1.8417
    1SOL    MW4 5392   2.247   3.510   2.340  0.3335  0.1457 -0.1748
    1SOL     OW 5393   2.494   3.634   2.225 -0.2143  0.0111 -0.5666
    1SOL    HW2 5394   2.492   3.720   2.268  1.4580 -1.0598  1.7586
    1SOL    HW3 5395   2.424   3.585   2.268 -0.0344 -0.3255 -0.6565
    1SOL    MW4 5396   2.485   3.639   2.236  0.0298 -0.1745 -0.2718
    1SOL     OW 5397   2.483   3.899   2.338  0.1115 -0.1918  0.0425
    1SOL    HW2 5398   2.475   3.892   2.434  0.5234 -0.1470  0.0831
    1SOL    HW3 5399   2.406   3.949   2.311 -0.7124 -1.3743  0.1957
    1SOL    MW4 5400   2.472   3.905   2.347  0.0570 -0.3419  0.0682
    1SOL     OW 5401   2.261   4.026   2.258  0.5465 -0.5457 -0.2563
    1SOL    HW2 5402   2.275   4.103   2.314 -1.4884  0.0111 -0.4942
    1SOL    HW3 5403   2.187   3.981   2.298 -0.3799 -0.6048 -1.9992
    1SOL    MW4 5404   2.253   4.030   2.271  0.1559 -0.4802 -0.5178
    1SOL     OW 5405   2.263   4.276   2.389  0.0499  0.2209 -0.3742
    1SOL    HW2 5406   2.245   4.275   2.483 -0.3165 -1.8860 -0.4328
    1SOL    HW3 5407   2.186   4.320   2.351  0.7042  2.0754  0.3699
    1SOL    MW4 5408   2.250   4.282   2.396  0.0880  0.1869 -0.2842
    1SOL     OW 5409   2.462   4.368   2.241 -0.0156  0.4874 -0.2617
    1SOL    HW2 5410   2.542   4.334   2.281  0.2224  0.5727 -0.6537
    1SOL    HW3 5411   2.391   4.335   2.296  0.2810  0.2936  0.0078
    1SOL    MW4 5412   2.463   4.359   2.253  0.0548  0.4730 -0.2780
    1SOL     OW 5413   2.944   0.012   2.381  0.0210 -0.0811 -0.0374
    1SOL    HW2 5414   3.012   0.049   2.325 -0.1470  1.1526  0.5508
    1SOL    HW3 5415   2.934  -0.078   2.351  0.2673  0.4226 -1.6667
    1SOL    MW4 5416   2.951   0.005   2.370  0.0312  0.1481 -0.1750
    1SOL     OW 5417   2.702   0.102   2.257  0.4032 -0.0114  0.1770
    1SOL    HW2 5418   2.686   0.194   2.278  0.9507 -0.0043  0.5499
    1SOL    HW3 5419   2.782   0.079   2.305  0.3143 -0.6578  0.0221
    1SOL    MW4 5420   2.710   0.111   2.266  0.4637 -0.0957  0.2055
    1SOL     OW 5421   2.669   0.363   2.353 -0.0584 -0.1182  0.0172
    1SOL    HW2 5422   2.695   0.355   2.445  1.3174  1.1069 -0.2393
    1SOL    HW3 5423   2.738   0.416   2.314 -0.5475 -0.7755 -1.7719
    1SOL    MW4 5424   2.682   0.369   2.360  0.0587 -0.0433 -0.2525
    1SOL     OW 5425   2.869   0.470   2.215 -0.0134 -0.3726  0.0771
    1SOL    HW2 5426   2.891   0.563   2.217  2.2741 -0.8922  0.4009
    1SOL    HW3 5427   2.866   0.448   2.122  0.3221 -0.1910  0.0245
    1SOL    MW4 5428   2.871   0.479   2.203  0.3328 -0.4172  0.1128
    1SOL     OW 5429   2.913   0.742   2.324 -0.2818 -0.0772  0.0203
    1SOL    HW2 5430   2.898   0.749   2.418 -0.8662  2.1054 -0.2039
    1SOL    HW3 5431   2.830   0.772   2.284 -0.2386 -1.4913 -1.1833
    1SOL    MW4 5432   2.900   0.747   2.331 -0.3533  0.0241 -0.1681
    1SOL     OW 5433   2.671   0.870   2.247  0.2053 -0.1787  0.1965
    1SOL    HW2 5434   2.671   0.963   2.273  0.4091 -0.2737  0.5393
    1SOL    HW3 5435   2.661   0.872   2.152  0.0716  0.1922  0.2152
    1SOL    MW4 5436   2.669   0.883   2.238  0.2146 -0.1423  0.2441
    1SOL     OW 5437   2.654   1.119   2.356  0.3843  0.1250 -0.5906
    1SOL    HW2 5438   2.645   1.113   2.451 -2.3986  2.3205 -0.6324
    1SOL    HW3 5439   2.738   1.162   2.343  0.3237  0.7440  0.9312
    1SOL    MW4 5440   2.664   1.124   2.367  0.0091  0.4963 -0.3953
    1SOL     OW 5441   2.909   1.234   2.295  0.4948  0.4919 -0.5098
    1SOL    HW2 5442   2.994   1.200   2.323  0.4465  0.1344 -0.7978
    1SOL    HW3 5443   2.909   1.225   2.200 -0.4309 -0.8652 -0.4094
    1SOL    MW4 5444   2.920   1.228   2.287  0.3664  0.2656 -0.5345
    1SOL     OW 5445   2.875   1.516   2.332  0.3481 -0.2318  0.1294
    1SOL    HW2 5446   2.893   1.519   2.426  0.6489 -2.1775  0.1395
    1SOL    HW3 5447   2.883   1.424   2.308 -0.0133  0.2011 -1.7581
    1SOL    MW4 5448   2.878   1.505   2.341  0.3402 -0.4313 -0.1183
    1SOL     OW 5449   2.671   1.669   2.207  0.5990 -0.3352 -0.2699
    1SOL    HW2 5450   2.732   1.609   2.250 -0.3941 -0.1163  1.5157
    1SOL    HW3 5451   2.682   1.652   2.114  0.7039 -2.9175  0.1750
    1SOL    MW4 5452   2.681   1.659   2.201  0.4821 -0.6471  0.0246
    1SOL     OW 5453   2.700   1.920   2.319  0.0211 -0.0705  0.1561
    1SOL    HW2 5454   2.701   1.921   2.414 -0.2174  0.1837  0.1543
    1SOL    HW3 5455   2.685   1.828   2.297 -0.8914  0.0281  0.3711
    1SOL    MW4 5456   2.698   1.908   2.328 -0.1309 -0.0238  0.1843
    1SOL     OW 5457   2.923   2.074   2.218 -0.1102 -0.6537 -0.8117
    1SOL    HW2 5458   2.998   2.024   2.252  0.5352  0.8812  0.0493
    1SOL    HW3 5459   2.847   2.021   2.242  0.5204 -0.9086  0.6911
    1SOL    MW4 5460   2.923   2.060   2.226  0.0582 -0.4847 -0.5000
    1SOL     OW 5461   2.849   2.328   2.359  0.1994 -0.1146 -0.1451
    1SOL    HW2 5462   2.864   2.316   2.452  0.8037  0.2821 -0.1936
    1SOL    HW3 5463   2.883   2.248   2.318  0.7627  0.1135 -0.1146
    1SOL    MW4 5464   2.855   2.316   2.366  0.3533 -0.0317 -0.1473
    1SOL     OW 5465   2.620   2.423   2.254  0.1911 -0.3055  0.0521
    1SOL    HW2 5466   2.700   2.386   2.291 -0.7095 -1.0595  1.2581
    1SOL    HW3 5467   2.632   2.414   2.159  0.1998 -3.2860  0.2869
    1SOL    MW4 5468   2.632   2.417   2.246  0.0732 -0.7982  0.2422
    1SOL     OW 5469   2.682   2.693   2.327  0.0077 -0.3280 -0.1884
    1SOL    HW2 5470   2.773   2.715   2.307 -0.2608  0.0378 -1.0415
    1SOL    HW3 5471   2.669   2.608   2.285  0.0440 -0.5291  0.2035
    1SOL    MW4 5472   2.693   2.685   2.319 -0.0229 -0.3061 -0.2491
    1SOL     OW 5473   2.930   2.810   2.284 -0.2007  0.1112  0.1051
    1SOL    HW2 5474   2.922   2.901   2.313  1.5485  0.8493 -1.5511
    1SOL    HW3 5475   2.942   2.817   2.189 -0.6824 -1.8914 -0.1138
    1SOL    MW4 5476   2.930   2.823   2.275 -0.0336 -0.0556 -0.1423
    1SOL     OW 5477   2.900   3.075   2.356 -0.0646  0.3160 -0.1332
    1SOL    HW2 5478   2.889   3.076   2.451  1.2824  0.7843  0.0269
    1SOL    HW3 5479   2.824   3.121   2.323 -1.0673 -0.7347  0.6586
    1SOL    MW4 5480   2.889   3.081   2.364 -0.0193  0.2391 -0.0076
    1SOL     OW 5481   2.691   3.217   2.272  0.1004  0.7137  0.2710
    1SOL    HW2 5482   2.712   3.304   2.307 -0.0675  1.4960 -1.5080
    1SOL    HW3 5483   2.680   3.231   2.178  0.8100 -1.3832 -0.1456
    1SOL    MW4 5484   2.692   3.231   2.264  0.1719  0.5405 -0.0186
    1SOL     OW 5485   2.703   3.483   2.337 -0.0740 -0.0357  0.1243
    1SOL    HW2 5486   2.781   3.518   2.293 -0.0408 -1.7701 -1.2455
    1SOL    HW3 5487   2.630   3.529   2.297  0.0501 -0.6097 -0.7687
    1SOL    MW4 5488   2.704   3.494   2.326 -0.0532 -0.3405 -0.1743
    1SOL     OW 5489   2.931   3.574   2.216  0.2412  0.0431  0.3921
    1SOL    HW2 5490   3.007   3.528   2.250 -0.9505 -2.1156  0.2552
    1SOL    HW3 5491   2.927   3.656   2.266  1.2966 -0.8895  2.0281
    1SOL    MW4 5492   2.940   3.579   2.227  0.2232 -0.3648  0.5901
    1SOL     OW 5493   2.917   3.829   2.316 -0.1937 -0.5081 -0.1203
    1SOL    HW2 5494   2.912   3.830   2.412  1.5984  1.8248 -0.0085
    1SOL    HW3 5495   2.841   3.879   2.287  0.3563  0.4987  0.1630
    1SOL    MW4 5496   2.906   3.836   2.325  0.1156 -0.0675 -0.0684
    1SOL     OW 5497   2.720   4.012   2.220 -0.4819 -0.3468  0.5321
    1SOL    HW2 5498   2.632   3.988   2.250 -0.5460 -0.3266  0.3610
    1SOL    HW3 5499   2.720   3.992   2.127 -0.0809 -0.9910  0.6658
    1SOL    MW4 5500   2.708   4.007   2.212 -0.4375 -0.4287  0.5271
    1SOL     OW 5501   2.701   4.311   2.353  0.1092  0.1962  0.1779
    1SOL    HW2 5502   2.718   4.291   2.445  1.1211 -0.8055 -0.2114
    1SOL    HW3 5503   2.698   4.225   2.310 -0.7524  0.6281 -0.6607
    1SOL    MW4 5504   2.703   4.297   2.359  0.1292  0.1206  0.0157
    1SOL     OW 5505   2.920   4.427   2.256 -0.7450 -0.1189  0.2309
    1SOL    HW2 5506   2.991   4.366   2.277 -0.5053 -0.3100 -1.1465
    1SOL    HW3 5507   2.842   4.385   2.292 -0.4548 -0.8481  0.0249
    1SOL    MW4 5508   2.919   4.413   2.264 -0.6750 -0.2403  0.0219
    1SOL     OW 5509   3.337   4.630   2.396 -0.6259  0.0556 -0.3290
    1SOL    HW2 5510   3.380   4.627   2.482 -0.7617 -0.5998 -0.2857
    1SOL    HW3 5511   3.397   4.680   2.341 -0.6120  0.6141  0.1907
    1SOL    MW4 5512   3.351   4.636   2.400 -0.6421  0.0429 -0.2546
    1SOL     OW 5513   3.170   0.127   2.259  0.5763 -0.6806  0.0236
    1SOL    HW2 5514   3.142   0.208   2.303  1.6268 -1.1672  1.6338
    1SOL    HW3 5515   3.217   0.078   2.327 -0.1406 -2.7031 -0.9124
    1SOL    MW4 5516   3.173   0.131   2.274  0.6204 -1.0116  0.1125
    1SOL     OW 5517   3.098   0.357   2.395  0.0241  0.0478  0.2920
    1SOL    HW2 5518   3.164   0.415   2.358  0.4114 -0.3077  0.4281
    1SOL    HW3 5519   3.018   0.380   2.348  0.5081 -0.3875 -0.7609
    1SOL    MW4 5520   3.096   0.367   2.384  0.1390 -0.0565  0.1712
    1SOL     OW 5521   3.285   0.516   2.285  0.0233  0.5463 -0.1866
    1SOL    HW2 5522   3.367   0.478   2.315  0.0896  0.3551 -0.6168
    1SOL    HW3 5523   3.289   0.511   2.190 -0.1904  1.1655 -0.2286
    1SOL    MW4 5524   3.296   0.510   2.277  0.0038  0.6028 -0.2489
    1SOL     OW 5525   3.328   0.773   2.349  0.0641 -0.2215  0.1395
    1SOL    HW2 5526   3.423   0.785   2.343 -0.0421  0.7847  0.3996
    1SOL    HW3 5527   3.314   0.681   2.328  1.0326 -0.1877 -0.6965
    1SOL    MW4 5528   3.339   0.762   2.345  0.1779 -0.0842  0.0637
    1SOL     OW 5529   3.113   0.906   2.273 -0.2327  0.4315 -0.0884
    1SOL    HW2 5530   3.188   0.868   2.319 -0.0845  0.9866  0.1346
    1SOL    HW3 5531   3.039   0.854   2.302  0.0844 -0.2081 -0.4127
    1SOL    MW4 5532   3.113   0.894   2.283 -0.1712  0.4203 -0.1016
    1SOL     OW 5533   3.153   1.155   2.399  0.4440  0.2547 -0.2433
    1SOL    HW2 5534   3.207   1.211   2.343 -1.4018  1.9846 -0.3660
    1SOL    HW3 5535   3.133   1.079   2.346  0.7304  0.7500 -1.0722
    1SOL    MW4 5536   3.158   1.153   2.385  0.2382  0.5484 -0.3691
    1SOL     OW 5537   3.360   1.288   2.255  0.0314  0.1299  0.2489
    1SOL    HW2 5538   3.434   1.232   2.281  1.5507  1.6453 -0.6846
    1SOL    HW3 5539   3.377   1.371   2.299 -1.9875 -0.0074  1.2931
    1SOL    MW4 5540   3.372   1.291   2.264 -0.0346  0.3117  0.2635
    1SOL     OW 5541   3.365   1.562   2.339 -0.1290 -0.4278  0.4730
    1SOL    HW2 5542   3.356   1.556   2.434 -0.1917  0.7482  0.5484
    1SOL    HW3 5543   3.275   1.571   2.306 -0.0337  0.2963  0.3957
    1SOL    MW4 5544   3.352   1.563   2.347 -0.1247 -0.1771  0.4728
    1SOL     OW 5545   3.110   1.640   2.232 -0.2219 -0.5842 -0.1618
    1SOL    HW2 5546   3.110   1.726   2.274  0.1430 -0.4546 -0.4190
    1SOL    HW3 5547   3.031   1.598   2.264 -0.6057 -0.0041 -0.3283
    1SOL    MW4 5548   3.099   1.646   2.241 -0.2244 -0.4907 -0.2179
    1SOL     OW 5549   3.112   1.904   2.342  0.0697 -0.2329 -0.2476
    1SOL    HW2 5550   3.115   1.920   2.437 -1.0774  1.0103 -0.4108
    1SOL    HW3 5551   3.199   1.929   2.311  0.1537  0.2326  0.3549
    1SOL    MW4 5552   3.124   1.909   2.351 -0.0706 -0.0075 -0.1898
    1SOL     OW 5553   3.351   2.042   2.258  0.3147  0.0772 -0.1361
    1SOL    HW2 5554   3.431   1.995   2.281 -0.1103  0.4770  2.3646
    1SOL    HW3 5555   3.342   2.031   2.164  1.2562 -3.2108  0.1021
    1SOL    MW4 5556   3.360   2.035   2.249  0.3829 -0.3042  0.2251
    1SOL     OW 5557   3.344   2.266   2.401  0.3557 -0.1304 -0.0699
    1SOL    HW2 5558   3.264   2.309   2.372  1.4768  1.4901 -0.8718
    1SOL    HW3 5559   3.350   2.187   2.347  0.7804  1.2329 -2.0567
    1SOL    MW4 5560   3.334   2.261   2.390  0.5598  0.2632 -0.4377
    1SOL     OW 5561   3.125   2.412   2.305  0.2081  0.0433  0.0210
    1SOL    HW2 5562   3.132   2.497   2.349 -0.2740  0.0541  0.0813
    1SOL    HW3 5563   3.045   2.373   2.341  0.7481 -0.6895  0.4262
    1SOL    MW4 5564   3.115   2.418   2.315  0.2155 -0.0522  0.0825
    1SOL     OW 5565   3.135   2.655   2.400 -0.1992 -0.1190  0.4539
    1SOL    HW2 5566   3.128   2.669   2.495 -1.5905  2.8093 -0.0025
    1SOL    HW3 5567   3.073   2.718   2.363  2.1356  0.5516 -2.4996
    1SOL    MW4 5568   3.126   2.665   2.408 -0.0746  0.3557  0.0038
    1SOL     OW 5569   3.375   2.809   2.305  0.0142  0.1284 -0.2367
    1SOL    HW2 5570   3.370   2.904   2.314  0.7360  0.2148 -0.7285
    1SOL    HW3 5571   3.293   2.777   2.343 -0.0680  0.9221  0.2557
    1SOL    MW4 5572   3.363   2.817   2.311  0.0987  0.2444 -0.2367
    1SOL     OW 5573   3.392   3.091   2.367 -0.2775  0.3432  0.8148
    1SOL    HW2 5574   3.464   3.135   2.322 -0.1871 -1.1394 -0.5438
    1SOL    HW3 5575   3.313   3.125   2.325 -0.2161 -0.6273 -0.0957
    1SOL    MW4 5576   3.391   3.102   2.355 -0.2575  0.0193  0.5155
    1SOL     OW 5577   3.146   3.189   2.253 -0.1173  0.2538 -0.2802
    1SOL    HW2 5578   3.137   3.276   2.292 -0.2011 -0.5108  1.4568
    1SOL    HW3 5579   3.078   3.137   2.296 -0.0113 -0.6818 -1.2416
    1SOL    MW4 5580   3.136   3.194   2.264 -0.1140  0.0296 -0.1779
    1SOL     OW 5581   3.115   3.445   2.370 -0.2651 -0.1276  0.5460
    1SOL    HW2 5582   3.098   3.463   2.462 -2.1497  2.2345 -0.1852
    1SOL    HW3 5583   3.188   3.503   2.347 -0.3222 -0.1278  0.3614
    1SOL    MW4 5584   3.122   3.455   2.379 -0.5212  0.1838  0.4251
    1SOL     OW 5585   3.347   3.579   2.267  0.0118 -0.3896 -0.0064
    1SOL    HW2 5586   3.423   3.533   2.303  0.5193  1.0153  0.7595
    1SOL    HW3 5587   3.361   3.578   2.172  1.1403  0.1179  0.1513
    1SOL    MW4 5588   3.359   3.572   2.259  0.2277 -0.1371  0.1156
    1SOL     OW 5589   3.346   3.876   2.363 -0.1350 -0.4454  0.0578
    1SOL    HW2 5590   3.415   3.914   2.309 -0.8387 -1.3751 -1.5318
    1SOL    HW3 5591   3.334   3.788   2.329 -2.3258 -0.1956  0.0863
    1SOL    MW4 5592   3.353   3.869   2.351 -0.5169 -0.5352 -0.1483
    1SOL     OW 5593   3.120   3.989   2.235 -0.4584  0.6721  0.4922
    1SOL    HW2 5594   3.193   3.954   2.286  0.5857 -0.2667 -1.6191
    1SOL    HW3 5595   3.045   3.937   2.262  0.3137 -0.5930  0.2721
    1SOL    MW4 5596   3.120   3.978   2.245 -0.2189  0.3812  0.1843
    1SOL     OW 5597   3.094   4.245   2.366  0.7858 -0.1065 -0.0594
    1SOL    HW2 5598   3.177   4.287   2.344  0.5054  0.2185 -0.5011
    1SOL    HW3 5599   3.096   4.163   2.316  0.9940 -0.2655  0.2061
    1SOL    MW4 5600   3.105   4.239   2.356  0.7765 -0.0844 -0.0830
    1SOL     OW 5601   3.341   4.382   2.275  0.2506 -0.3925 -0.4631
    1SOL    HW2 5602   3.364   4.470   2.306 -0.1794  0.0204 -1.2988
    1SOL    HW3 5603   3.324   4.393   2.182  0.6823 -1.4632 -0.6779
    1SOL    MW4 5604   3.342   4.395   2.267  0.2508 -0.4787 -0.6020
    1SOL     OW 5605   3.792   4.645   2.383 -0.0303  0.0575  0.1436
    1SOL    HW2 5606   3.806   4.641   2.478  0.6781 -2.6937 -0.0223
    1SOL    HW3 5607   3.872   4.685   2.349  0.2773 -0.1463  0.6177
    1SOL    MW4 5608   3.805   4.649   2.391  0.1037 -0.3324  0.1841
    1SOL     OW 5609   3.555   0.096   2.264  0.0675 -0.3011 -0.1687
    1SOL    HW2 5610   3.552   0.185   2.299  1.1352 -0.0372 -0.7357
    1SOL    HW3 5611   3.640   0.062   2.292  0.3175 -0.5969 -1.2675
    1SOL    MW4 5612   3.566   0.103   2.272  0.2413 -0.3053 -0.3884
    1SOL     OW 5613   3.509   0.367   2.356 -0.6535 -0.1150 -0.1678
    1SOL    HW2 5614   3.517   0.351   2.450 -0.9311  0.4438 -0.0452
    1SOL    HW3 5615   3.593   0.405   2.331  0.3504 -2.5955 -0.6414
    1SOL    MW4 5616   3.521   0.370   2.365 -0.5577 -0.3686 -0.2141
    1SOL     OW 5617   3.745   0.477   2.294  0.0738  0.2526  0.2221
    1SOL    HW2 5618   3.762   0.566   2.325 -0.1761  0.3213  0.1595
    1SOL    HW3 5619   3.749   0.483   2.199 -0.1342  0.2341  0.2119
    1SOL    MW4 5620   3.748   0.489   2.286  0.0131  0.2592  0.2124
    1SOL     OW 5621   3.822   0.730   2.398  0.2712  0.3370 -0.0607
    1SOL    HW2 5622   3.812   0.723   2.493  0.3959 -0.6206 -0.1063
    1SOL    HW3 5623   3.894   0.791   2.385 -0.1531  0.9412  0.4490
    1SOL    MW4 5624   3.830   0.737   2.409  0.2317  0.2904  0.0002
    1SOL     OW 5625   3.604   0.873   2.316  0.2348  0.0112  0.4265
    1SOL    HW2 5626   3.681   0.818   2.329  0.2205  0.5033  2.8847
    1SOL    HW3 5627   3.586   0.868   2.222  2.2539 -1.4392  0.0873
    1SOL    MW4 5628   3.612   0.865   2.305  0.4992 -0.1152  0.7060
    1SOL     OW 5629   3.560   1.161   2.371  0.1259 -0.6208  0.4193
    1SOL    HW2 5630   3.551   1.166   2.466  0.3317  0.3061  0.3881
    1SOL    HW3 5631   3.563   1.067   2.353 -2.0081 -0.8533  1.1240
    1SOL    MW4 5632   3.559   1.149   2.381 -0.1285 -0.5292  0.5085
    1SOL     OW 5633   3.773   1.308   2.255 -0.0214 -0.0547 -0.1779
    1SOL    HW2 5634   3.771   1.390   2.304 -1.0348 -0.0146 -0.2701
    1SOL    HW3 5635   3.704   1.254   2.294  1.4162 -1.3265  0.6578
    1SOL    MW4 5636   3.764   1.312   2.267  0.0346 -0.2171 -0.0801
    1SOL     OW 5637   3.828   1.574   2.375  0.2260  0.1472  0.5119
    1SOL    HW2 5638   3.812   1.597   2.466  0.4015  0.0902  0.5568
    1SOL    HW3 5639   3.748   1.601   2.329 -0.4510 -1.1567  0.9099
    1SOL    MW4 5640   3.815   1.581   2.381  0.1600 -0.0324  0.5703
    1SOL     OW 5641   3.599   1.668   2.255  0.2676  0.1322 -0.0372
    1SOL    HW2 5642   3.526   1.622   2.296  0.6951  0.5571  1.2248
    1SOL    HW3 5643   3.570   1.683   2.164 -0.8784 -0.4024  0.2302
    1SOL    MW4 5644   3.586   1.664   2.248  0.1729  0.1177  0.1645
    1SOL     OW 5645   3.570   1.917   2.358  0.3130  0.3367  0.0251
    1SOL    HW2 5646   3.639   1.978   2.333  0.1434  0.1729 -0.8365
    1SOL    HW3 5647   3.589   1.837   2.309  0.2879 -0.1610  0.8181
    1SOL    MW4 5648   3.582   1.914   2.349  0.2873  0.2494  0.0160
    1SOL     OW 5649   3.778   2.076   2.273  0.4163  0.2623  0.2233
    1SOL    HW2 5650   3.850   2.025   2.310  0.7902  0.3895 -0.3198
    1SOL    HW3 5651   3.795   2.077   2.179 -0.6155 -0.1941  0.0315
    1SOL    MW4 5652   3.790   2.070   2.265  0.3295  0.2191  0.1261
    1SOL     OW 5653   3.789   2.326   2.399 -0.1342  0.5327 -0.1476
    1SOL    HW2 5654   3.704   2.360   2.369 -1.2630 -0.8198  1.3813
    1SOL    HW3 5655   3.796   2.240   2.358  0.6570  0.7717 -0.5147
    1SOL    MW4 5656   3.779   2.319   2.390 -0.1788  0.3858  0.0057
    1SOL     OW 5657   3.539   2.424   2.295 -0.6883 -0.0637 -0.3088
    1SOL    HW2 5658   3.462   2.371   2.316 -0.4543 -0.5787 -0.7459
    1SOL    HW3 5659   3.560   2.403   2.204 -0.1081  0.1632 -0.2347
    1SOL    MW4 5660   3.532   2.414   2.286 -0.5808 -0.1016 -0.3564
    1SOL     OW 5661   3.617   2.680   2.358  0.0904 -0.2564 -0.0425
    1SOL    HW2 5662   3.611   2.587   2.334 -1.0343  0.0861 -1.0998
    1SOL    HW3 5663   3.534   2.718   2.330  1.1873  1.4215 -1.0996
    1SOL    MW4 5664   3.605   2.673   2.351  0.0868  0.0100 -0.3214
    1SOL     OW 5665   3.830   2.822   2.258  0.1942  0.2916 -0.1008
    1SOL    HW2 5666   3.823   2.902   2.311  0.8750 -0.3318  0.9529
    1SOL    HW3 5667   3.764   2.764   2.295 -0.0178  0.2159 -0.6008
    1SOL    MW4 5668   3.820   2.825   2.270  0.2563  0.1993 -0.0277
    1SOL     OW 5669   3.842   3.057   2.390 -0.3831 -0.1171 -0.1891
    1SOL    HW2 5670   3.820   3.099   2.473  0.3118  0.4980 -0.3114
    1SOL    HW3 5671   3.923   3.099   2.362  0.4263 -1.6769 -0.2387
    1SOL    MW4 5672   3.850   3.068   2.397 -0.1843 -0.2418 -0.2117
    1SOL     OW 5673   3.632   3.210   2.243 -0.0524  0.0443 -0.0340
    1SOL    HW2 5674   3.642   3.300   2.275  0.3373  0.4811 -1.3624
    1SOL    HW3 5675   3.709   3.164   2.275  0.3347  0.4810 -0.3349
    1SOL    MW4 5676   3.643   3.216   2.252  0.0501  0.1595 -0.2487
    1SOL     OW 5677   3.590   3.453   2.362 -0.3022  0.0099 -0.2468
    1SOL    HW2 5678   3.600   3.456   2.457 -0.4202  0.5217 -0.2509
    1SOL    HW3 5679   3.664   3.503   2.328 -0.6629  0.4446 -0.4015
    1SOL    MW4 5680   3.601   3.460   2.370 -0.3655  0.1347 -0.2677
    1SOL     OW 5681   3.804   3.582   2.270 -0.3305  0.6080 -0.5596
    1SOL    HW2 5682   3.794   3.675   2.290 -0.1958  0.6617 -0.7470
    1SOL    HW3 5683   3.801   3.578   2.174  0.2513  0.4805 -0.5684
    1SOL    MW4 5684   3.802   3.594   2.260 -0.2363  0.5984 -0.5856
    1SOL     OW 5685   3.774   3.858   2.344  0.0102 -0.2642 -0.2462
    1SOL    HW2 5686   3.760   3.859   2.439  0.0775 -1.0314 -0.2253
    1SOL    HW3 5687   3.854   3.909   2.331 -0.4825  0.6030  0.0214
    1SOL    MW4 5688   3.783   3.865   2.355 -0.0460 -0.2508 -0.2079
    1SOL     OW 5689   3.571   4.002   2.220  0.5314  0.1109 -0.0420
    1SOL    HW2 5690   3.565   4.082   2.273  0.6697  0.1375 -0.0662
    1SOL    HW3 5691   3.642   3.952   2.262 -0.8855 -0.9029  1.1926
    1SOL    MW4 5692   3.580   4.006   2.233  0.3629 -0.0196  0.1175
    1SOL     OW 5693   3.568   4.237   2.344 -0.1259  0.0143 -0.3976
    1SOL    HW2 5694   3.642   4.289   2.311 -1.0326  1.3742 -0.3442
    1SOL    HW3 5695   3.490   4.283   2.311 -0.9756 -0.3256  1.0954
    1SOL    MW4 5696   3.568   4.250   2.335 -0.3579  0.1483 -0.1938
    1SOL     OW 5697   3.771   4.406   2.236 -0.1007 -0.0983  0.0909
    1SOL    HW2 5698   3.853   4.357   2.246 -1.2860 -2.0729  0.5815
    1SOL    HW3 5699   3.783   4.484   2.290  1.0510 -0.9186  1.0736
    1SOL    MW4 5700   3.784   4.410   2.245 -0.1049 -0.4673  0.2851
    1SOL     OW 5701   4.242   4.612   2.329 -0.1267  0.1553  0.1583
    1SOL    HW2 5702   4.226   4.584   2.420 -2.1999  1.7270  0.3265
    1SOL    HW3 5703   4.320   4.668   2.335  0.2601 -0.4359  0.8167
    1SOL    MW4 5704   4.250   4.616   2.342 -0.3495  0.2842  0.2675
    1SOL     OW 5705   4.010   0.088   2.252 -0.1005  0.5038 -0.0440
    1SOL    HW2 5706   4.015   0.179   2.282  0.3477  0.9281 -1.4225
    1SOL    HW3 5707   4.093   0.049   2.280 -0.6141  0.2823  1.2525
    1SOL    MW4 5708   4.021   0.095   2.260 -0.1092  0.5306 -0.0546
    1SOL     OW 5709   4.022   0.358   2.347 -0.1724 -0.1118 -0.0316
    1SOL    HW2 5710   4.090   0.396   2.292 -0.7749  1.1527  0.0797
    1SOL    HW3 5711   3.941   0.401   2.318 -0.7834 -0.9070  0.4770
    1SOL    MW4 5712   4.020   0.369   2.336 -0.3324 -0.0499  0.0501
    1SOL     OW 5713   4.221   0.489   2.201  0.2791  0.6570  0.0607
    1SOL    HW2 5714   4.212   0.561   2.262  1.7687 -0.6281  1.8537
    1SOL    HW3 5715   4.286   0.431   2.241 -0.6892 -1.5547 -1.4303
    1SOL    MW4 5716   4.228   0.491   2.214  0.3481  0.1957  0.1006
    1SOL     OW 5717   4.253   0.737   2.374  0.2763  0.4189 -0.0932
    1SOL    HW2 5718   4.173   0.787   2.360  0.0802  0.0403 -0.3189
    1SOL    HW3 5719   4.324   0.800   2.359  0.0164  1.0184  1.0970
    1SOL    MW4 5720   4.252   0.752   2.370  0.2160  0.4480  0.0341
    1SOL     OW 5721   4.043   0.895   2.323 -0.1160  0.0203 -0.1740
    1SOL    HW2 5722   4.042   0.986   2.353 -1.7971 -0.4188  1.1446
    1SOL    HW3 5723   4.019   0.900   2.230 -0.0807  0.9287 -0.1370
    1SOL    MW4 5724   4.040   0.908   2.314 -0.3328  0.0821  0.0045
    1SOL     OW 5725   4.012   1.189   2.362  0.3290  0.4247  0.2241
    1SOL    HW2 5726   4.002   1.190   2.458  1.1709 -0.7833  0.3406
    1SOL    HW3 5727   3.947   1.251   2.331 -1.7673 -1.0703  1.4502
    1SOL    MW4 5728   4.002   1.197   2.371  0.1636  0.0679  0.4013
    1SOL     OW 5729   4.246   1.291   2.243 -0.0167  0.5436  0.2982
    1SOL    HW2 5730   4.176   1.256   2.299 -0.0613  0.7754  0.3891
    1SOL    HW3 5731   4.325   1.244   2.270 -0.2406 -0.1133 -0.1831
    1SOL    MW4 5732   4.247   1.280   2.254 -0.0520  0.4876  0.2465
    1SOL     OW 5733   4.282   1.562   2.354 -0.2474  0.0450 -0.0236
    1SOL    HW2 5734   4.269   1.475   2.318  1.3449 -0.4273  0.5054
    1SOL    HW3 5735   4.358   1.596   2.307 -0.1375  0.6824  0.6169
    1SOL    MW4 5736   4.290   1.555   2.343 -0.0229  0.0668  0.1311
    1SOL     OW 5737   4.042   1.680   2.229  0.0362  0.0248 -0.2955
    1SOL    HW2 5738   4.119   1.640   2.269  0.1322  0.3331 -0.1756
    1SOL    HW3 5739   3.968   1.645   2.279  0.2311  1.3312  0.9231
    1SOL    MW4 5740   4.042   1.670   2.241  0.0749  0.2378 -0.1187
    1SOL     OW 5741   4.006   1.934   2.332  0.1374  0.0101  0.2604
    1SOL    HW2 5742   4.004   1.915   2.426 -2.5670 -1.0008  0.0557
    1SOL    HW3 5743   4.015   1.848   2.290 -2.9363 -0.0102 -0.4705
    1SOL    MW4 5744   4.007   1.920   2.339 -0.6251 -0.1260  0.1371
    1SOL     OW 5745   4.268   2.065   2.290 -0.4275 -0.0470 -0.4068
    1SOL    HW2 5746   4.251   2.146   2.338 -0.3686 -0.2798  0.0121
    1SOL    HW3 5747   4.192   2.010   2.308 -0.5130 -0.0489 -0.7695
    1SOL    MW4 5748   4.256   2.069   2.299 -0.4311 -0.0782 -0.3994
    1SOL     OW 5749   4.232   2.334   2.381 -0.7078 -0.1197 -0.1351
    1SOL    HW2 5750   4.159   2.373   2.334 -0.2893  0.3789 -0.3882
    1SOL    HW3 5751   4.310   2.375   2.342 -0.2842 -0.8665 -0.0771
    1SOL    MW4 5752   4.233   2.345   2.370 -0.5960 -0.1523 -0.1609
    1SOL     OW 5753   4.017   2.456   2.260  0.2654 -0.2227 -0.1944
    1SOL    HW2 5754   4.013   2.541   2.303 -0.7554  0.7180 -2.0533
    1SOL    HW3 5755   3.940   2.409   2.292  0.1759  0.0107 -0.0694
    1SOL    MW4 5756   4.006   2.461   2.270  0.1187 -0.0679 -0.4232
    1SOL     OW 5757   4.059   2.704   2.385  0.0664  0.0974 -0.0479
    1SOL    HW2 5758   4.059   2.713   2.480  0.0528 -0.5052  0.0067
    1SOL    HW3 5759   3.992   2.766   2.355  0.6774  0.9256  0.2761
    1SOL    MW4 5760   4.050   2.714   2.394  0.1450  0.1271  0.0019
    1SOL     OW 5761   4.285   2.842   2.287  0.1308  0.0436 -0.0070
    1SOL    HW2 5762   4.210   2.790   2.317  0.0317 -0.2278 -0.7092
    1SOL    HW3 5763   4.362   2.789   2.311  0.0171 -0.5923 -1.0158
    1SOL    MW4 5764   4.285   2.828   2.294  0.1030 -0.0758 -0.2329
    1SOL     OW 5765   4.285   3.096   2.417  0.3294  0.3578  0.1377
    1SOL    HW2 5766   4.288   3.004   2.389  0.3890  0.9817 -1.9526
    1SOL    HW3 5767   4.348   3.141   2.361  0.1298  1.7285  0.9853
    1SOL    MW4 5768   4.294   3.090   2.406  0.3104  0.6211 -0.0262
    1SOL     OW 5769   4.073   3.188   2.261 -0.0504  0.5631  0.2117
    1SOL    HW2 5770   4.069   3.279   2.289 -0.8437 -0.0869  2.2850
    1SOL    HW3 5771   4.153   3.154   2.300  0.5244  0.4913 -0.9973
    1SOL    MW4 5772   4.083   3.195   2.270 -0.0792  0.4678  0.3257
    1SOL     OW 5773   4.049   3.449   2.363  0.3252 -0.0277  0.1409
    1SOL    HW2 5774   4.119   3.502   2.324  0.5205  0.3234  0.9632
    1SOL    HW3 5775   3.968   3.491   2.333  0.4787  0.7181  0.7560
    1SOL    MW4 5776   4.048   3.461   2.354  0.3715  0.1171  0.3309
    1SOL     OW 5777   4.279   3.587   2.272 -0.4453  0.0366 -0.2366
    1SOL    HW2 5778   4.257   3.675   2.302  1.0770  0.3484  0.0195
    1SOL    HW3 5779   4.289   3.595   2.177  1.5704  0.5751  0.0009
    1SOL    MW4 5780   4.278   3.599   2.263  0.0210  0.1488 -0.1712
    1SOL     OW 5781   4.226   3.852   2.338  0.5603 -0.9113  0.0420
    1SOL    HW2 5782   4.249   3.843   2.431 -0.0606  1.2994  0.4315
    1SOL    HW3 5783   4.298   3.902   2.300 -0.0615 -0.2370 -0.2669
    1SOL    MW4 5784   4.239   3.857   2.345  0.3963 -0.5310  0.0527
    1SOL     OW 5785   4.001   3.980   2.273  0.2394 -0.2195 -0.2047
    1SOL    HW2 5786   4.072   3.918   2.290 -0.0139 -0.4233  0.1315
    1SOL    HW3 5787   3.996   3.986   2.178 -0.1310 -1.1887 -0.2583
    1SOL    MW4 5788   4.010   3.973   2.263  0.1569 -0.3741 -0.1674
    1SOL     OW 5789   4.008   4.256   2.305 -0.1277 -0.3173  0.4046
    1SOL    HW2 5790   4.081   4.297   2.259  0.4839 -0.7437  0.9896
    1SOL    HW3 5791   4.021   4.162   2.292 -0.2353 -0.4165  1.0159
    1SOL    MW4 5792   4.019   4.249   2.297 -0.0610 -0.3872  0.5622
    1SOL     OW 5793   4.252   4.361   2.210  0.0709  0.2741 -0.7000
    1SOL    HW2 5794   4.247   4.443   2.258  0.3299  0.2718 -0.6670
    1SOL    HW3 5795   4.323   4.313   2.252  0.7321  0.5408 -1.4998
    1SOL    MW4 5796   4.261   4.365   2.222  0.1922  0.3090 -0.8011
    1SOL     OW 5797   0.205   4.598   2.633  0.2527  0.3784 -0.0210
    1SOL    HW2 5798   0.200   4.515   2.681 -0.3520 -1.4640 -3.1190
    1SOL    HW3 5799   0.127   4.645   2.659 -0.0976 -0.6091  0.7638
    1SOL    MW4 5800   0.194   4.593   2.643  0.1267  0.0048 -0.3262
    1SOL     OW 5801   4.476   0.080   2.714 -0.0823 -0.5270 -0.5144
    1SOL    HW2 5802   4.481   0.079   2.809  0.6421 -0.2760 -0.5538
    1SOL    HW3 5803   4.477   0.172   2.690  0.6702 -0.6156 -0.8201
    1SOL    MW4 5804   4.477   0.092   2.723  0.1125 -0.5056 -0.5600
    1SOL     OW 5805   4.461   0.351   2.637 -0.0426  0.2264 -0.1213
    1SOL    HW2 5806   4.543   0.393   2.664  0.1316 -0.2075  0.0407
    1SOL    HW3 5807   4.459   0.364   2.542  0.2390  0.2046 -0.1333
    1SOL    MW4 5808   4.472   0.358   2.628  0.0176  0.1663 -0.1011
    1SOL     OW 5809   0.203   0.518   2.704  0.3588 -0.8446 -0.1237
    1SOL    HW2 5810   0.219   0.517   2.799  1.3031 -0.0321 -0.2592
    1SOL    HW3 5811   0.272   0.463   2.668  0.1743 -0.9171 -0.3600
    1SOL    MW4 5812   0.214   0.511   2.712  0.4590 -0.7470 -0.1729
    1SOL     OW 5813   0.180   0.786   2.639  0.5634 -0.1774 -0.9450
    1SOL    HW2 5814   0.252   0.837   2.676  0.5041  0.4750 -1.7241
    1SOL    HW3 5815   0.192   0.698   2.676 -0.2551  0.7757  1.6206
    1SOL    MW4 5816   0.191   0.781   2.648  0.4476  0.0345 -0.7095
    1SOL     OW 5817   4.438   0.919   2.725  0.4615  0.0090  0.4702
    1SOL    HW2 5818   4.369   0.857   2.699  0.9404 -0.0985 -0.5617
    1SOL    HW3 5819   4.518   0.884   2.685  0.6326  1.6265 -0.6709
    1SOL    MW4 5820   4.439   0.906   2.716  0.5474  0.2083  0.1833
    1SOL     OW 5821   0.017   1.174   2.633  0.2389  0.2360 -0.3658
    1SOL    HW2 5822   0.101   1.191   2.675  0.4720  0.4356 -0.9112
    1SOL    HW3 5823   0.003   1.080   2.645  0.8500  0.0814 -0.8432
    1SOL    MW4 5824   0.026   1.164   2.640  0.3510  0.2420 -0.5007
    1SOL     OW 5825   0.259   1.298   2.731 -0.1125 -0.1063 -0.0877
    1SOL    HW2 5826   0.332   1.254   2.686  0.7027 -0.0509  1.1667
    1SOL    HW3 5827   0.251   1.382   2.686  1.5012  0.4567  0.6258
    1SOL    MW4 5828   0.268   1.303   2.719  0.2080 -0.0247  0.1719
    1SOL     OW 5829   0.245   1.553   2.622 -0.5989  0.3195  0.1190
    1SOL    HW2 5830   0.322   1.597   2.658 -0.5092 -0.6875  1.1940
    1SOL    HW3 5831   0.171   1.593   2.667 -0.5078 -0.7173  1.2019
    1SOL    MW4 5832   0.245   1.564   2.633 -0.5751  0.0499  0.4036
    1SOL     OW 5833   4.482   1.654   2.739  0.2066  0.1638 -0.0764
    1SOL    HW2 5834   4.499   1.657   2.833 -1.1227  1.0807  0.1666
    1SOL    HW3 5835   4.502   1.743   2.709 -0.7938  0.2923 -0.3786
    1SOL    MW4 5836   4.487   1.666   2.747 -0.1008  0.3017 -0.0842
    1SOL     OW 5837   4.481   1.916   2.628  0.6396 -0.1039  0.1793
    1SOL    HW2 5838   4.552   1.972   2.660  0.8690 -0.1598 -0.2172
    1SOL    HW3 5839   4.498   1.908   2.534  0.2249 -0.2892  0.1186
    1SOL    MW4 5840   4.493   1.922   2.620  0.6151 -0.1357  0.1190
    1SOL     OW 5841   0.198   2.057   2.729  0.1919  0.4809 -0.0034
    1SOL    HW2 5842   0.268   2.011   2.684 -0.2761 -0.5272  0.2958
    1SOL    HW3 5843   0.190   2.140   2.682  1.6148  0.6256 -0.0042
    1SOL    MW4 5844   0.206   2.062   2.717  0.3179  0.3672  0.0360
    1SOL     OW 5845   0.188   2.310   2.615 -0.2009  0.2028  0.0660
    1SOL    HW2 5846   0.258   2.341   2.671  0.1368  0.8024 -0.6801
    1SOL    HW3 5847   0.112   2.364   2.638 -0.3061 -0.1491  0.5593
    1SOL    MW4 5848   0.187   2.321   2.625 -0.1703  0.2353  0.0327
    1SOL     OW 5849   4.465   2.437   2.757  0.0466  0.2948 -0.2943
    1SOL    HW2 5850   4.473   2.431   2.852  1.2531  0.1334 -0.3974
    1SOL    HW3 5851   4.395   2.374   2.735 -1.9671  2.1295  0.6968
    1SOL    MW4 5852   4.457   2.428   2.766 -0.0601  0.5159 -0.1771
    1SOL     OW 5853   4.477   2.700   2.649  0.2772 -0.0540  0.0986
    1SOL    HW2 5854   4.410   2.761   2.680  0.3867  0.0747  0.0797
    1SOL    HW3 5855   4.459   2.619   2.697 -1.3132 -0.7292 -1.5395
    1SOL    MW4 5856   4.466   2.697   2.659  0.0820 -0.1264 -0.1202
    1SOL     OW 5857   0.229   2.817   2.754  0.0466 -0.0731  0.0282
    1SOL    HW2 5858   0.255   2.904   2.723 -1.0229 -0.5363 -2.2700
    1SOL    HW3 5859   0.157   2.792   2.697 -0.9651 -1.6578  1.9571
    1SOL    MW4 5860   0.223   2.825   2.742 -0.2280 -0.3433 -0.0207
    1SOL     OW 5861   0.246   3.064   2.653 -0.4882  0.2316  0.2106
    1SOL    HW2 5862   0.321   3.118   2.675 -2.0271  2.3387  0.4280
    1SOL    HW3 5863   0.234   3.076   2.559  0.5375 -1.5743 -0.1805
    1SOL    MW4 5864   0.254   3.072   2.644 -0.5560  0.2713  0.1876
    1SOL     OW 5865   0.039   3.185   2.801  0.2568 -0.2731 -0.3178
    1SOL    HW2 5866  -0.049   3.157   2.774  0.2914  0.7178 -1.5097
    1SOL    HW3 5867   0.098   3.131   2.748  0.3307  0.8987 -1.4743
    1SOL    MW4 5868   0.035   3.174   2.790  0.2712  0.0122 -0.6278
    1SOL     OW 5869   4.490   3.427   2.654 -0.0993  0.0470  0.3446
    1SOL    HW2 5870   4.550   3.489   2.696 -0.7476  1.0339 -0.1529
    1SOL    HW3 5871   4.516   3.342   2.688  1.6812  0.4336  0.0316
    1SOL    MW4 5872   4.502   3.424   2.664  0.0505  0.2279  0.2372
    1SOL     OW 5873   0.219   3.589   2.723 -0.1044  0.3852 -0.2777
    1SOL    HW2 5874   0.230   3.596   2.817 -1.9470 -0.9484  0.0747
    1SOL    HW3 5875   0.290   3.532   2.694 -0.5223 -0.5558  0.5452
    1SOL    MW4 5876   0.230   3.583   2.731 -0.4027  0.0851 -0.1228
    1SOL     OW 5877   0.220   3.853   2.613  0.1789  0.0801 -0.0584
    1SOL    HW2 5878   0.207   3.761   2.638  0.1512  0.0826 -0.0638
    1SOL    HW3 5879   0.217   3.853   2.517  0.5883  0.0271 -0.0702
    1SOL    MW4 5880   0.218   3.841   2.604  0.2293  0.0734 -0.0606
    1SOL     OW 5881   4.471   3.955   2.698  0.4126  0.5448  0.0018
    1SOL    HW2 5882   4.478   4.050   2.683 -0.1906  0.4069 -1.1997
    1SOL    HW3 5883   4.556   3.920   2.671  0.7409  0.7776  0.7268
    1SOL    MW4 5884   4.483   3.963   2.693  0.3767  0.5574 -0.0613
    1SOL     OW 5885   0.004   4.214   2.621 -0.3722  0.4265  0.1124
    1SOL    HW2 5886  -0.080   4.258   2.636 -0.1458  1.0182 -0.3336
    1SOL    HW3 5887   0.063   4.252   2.685 -0.4324  0.0236  0.4133
    1SOL    MW4 5888   0.001   4.225   2.632 -0.3502  0.4516  0.0935
    1SOL     OW 5889   0.184   4.368   2.782 -0.2207 -0.0175 -0.2963
    1SOL    HW2 5890   0.206   4.370   2.875  0.1724 -0.3892 -0.3786
    1SOL    HW3 5891   0.262   4.331   2.740 -0.7261 -0.6650 -0.6793
    1SOL    MW4 5892   0.197   4.363   2.789 -0.2355 -0.1516 -0.3576
    1SOL     OW 5893   0.673   4.628   2.628  0.3004 -0.3582 -0.2224
    1SOL    HW2 5894   0.741   4.687   2.661 -0.0835 -0.0784  0.0739
    1SOL    HW3 5895   0.591   4.675   2.642 -0.2624 -1.9536  2.3263
    1SOL    MW4 5896   0.671   4.642   2.634  0.1755 -0.5322  0.1531
    1SOL     OW 5897   0.425   0.072   2.703  0.5373  0.1710 -0.2288
    1SOL    HW2 5898   0.418   0.069   2.798  0.1747  0.9964 -0.2274
    1SOL    HW3 5899   0.344   0.032   2.672  0.5136  0.1957 -0.1983
    1SOL    MW4 5900   0.414   0.066   2.712  0.4863  0.2831 -0.2246
    1SOL     OW 5901   0.414   0.353   2.639 -0.0219 -0.2707  0.2270
    1SOL    HW2 5902   0.502   0.377   2.665  0.4799 -1.0464 -0.7354
    1SOL    HW3 5903   0.402   0.264   2.672 -0.8771  0.2614  1.3843
    1SOL    MW4 5904   0.424   0.344   2.647 -0.0685 -0.3029  0.2527
    1SOL     OW 5905   0.644   0.470   2.731  0.0836 -0.3820  0.4968
    1SOL    HW2 5906   0.639   0.482   2.825 -2.0766 -1.0539  0.4785
    1SOL    HW3 5907   0.733   0.438   2.716  0.5140 -0.0705  2.2601
    1SOL    MW4 5908   0.655   0.467   2.741 -0.1445 -0.4295  0.7269
    1SOL     OW 5909   0.638   0.725   2.653  0.1965 -0.0293  0.5147
    1SOL    HW2 5910   0.712   0.769   2.694  0.7623 -0.1071 -0.4054
    1SOL    HW3 5911   0.645   0.634   2.682  0.6014 -0.0891  0.2249
    1SOL    MW4 5912   0.648   0.719   2.662  0.3245 -0.0474  0.3550
    1SOL     OW 5913   0.417   0.918   2.708 -0.1969  0.0913 -0.0501
    1SOL    HW2 5914   0.430   0.930   2.802  1.0074 -0.3737 -0.1402
    1SOL    HW3 5915   0.480   0.850   2.684  1.0034  1.6931 -1.5835
    1SOL    MW4 5916   0.427   0.910   2.717  0.1204  0.2413 -0.2642
    1SOL     OW 5917   0.476   1.172   2.605 -0.1519 -0.5622 -0.1420
    1SOL    HW2 5918   0.558   1.199   2.647 -0.0299  1.4094 -1.5794
    1SOL    HW3 5919   0.459   1.085   2.640  1.3415 -0.0585  1.9323
    1SOL    MW4 5920   0.485   1.164   2.615  0.0612 -0.2356 -0.0579
    1SOL     OW 5921   0.664   1.286   2.775  0.1165  0.4612  0.6610
    1SOL    HW2 5922   0.661   1.298   2.870 -0.1696 -0.7901  0.8162
    1SOL    HW3 5923   0.732   1.221   2.760 -0.7558 -0.3426  0.1182
    1SOL    MW4 5924   0.672   1.279   2.785 -0.0363  0.1900  0.6099
    1SOL     OW 5925   0.697   1.507   2.616  0.1026 -0.1579  1.0351
    1SOL    HW2 5926   0.623   1.563   2.638  0.0006  0.4699 -0.7921
    1SOL    HW3 5927   0.689   1.432   2.674 -1.3223  0.4441  1.6295
    1SOL    MW4 5928   0.686   1.504   2.627 -0.0989  0.0044  0.8726
    1SOL     OW 5929   0.484   1.673   2.699  0.1171 -0.6973  0.3409
    1SOL    HW2 5930   0.507   1.694   2.790  1.0423 -2.2248  0.4829
    1SOL    HW3 5931   0.468   1.758   2.658  0.2890  0.0485  1.7699
    1SOL    MW4 5932   0.485   1.687   2.706  0.2618 -0.8006  0.5481
    1SOL     OW 5933   0.452   1.922   2.604 -0.0010  0.1744 -0.2271
    1SOL    HW2 5934   0.532   1.970   2.627 -0.5876  0.9490  0.1897
    1SOL    HW3 5935   0.453   1.918   2.508 -0.1771  1.4108 -0.2873
    1SOL    MW4 5936   0.463   1.927   2.594 -0.1016  0.4398 -0.1800
    1SOL     OW 5937   0.676   2.056   2.730  0.0190 -0.0255 -0.1518
    1SOL    HW2 5938   0.697   2.052   2.823  0.0366 -0.5963 -0.1773
    1SOL    HW3 5939   0.748   2.009   2.687  1.2355  2.2408 -0.6567
    1SOL    MW4 5940   0.689   2.049   2.736  0.1818  0.1984 -0.2217
    1SOL     OW 5941   0.651   2.320   2.636  0.1989 -0.6097  0.7569
    1SOL    HW2 5942   0.725   2.361   2.681  0.3656 -1.2002  1.0186
    1SOL    HW3 5943   0.663   2.226   2.649 -0.2273 -0.7451  0.2225
    1SOL    MW4 5944   0.662   2.313   2.643  0.1647 -0.7055  0.7207
    1SOL     OW 5945   0.415   2.410   2.743 -0.2995  0.0922 -0.2326
    1SOL    HW2 5946   0.422   2.502   2.716  1.5430  0.0284 -0.0497
    1SOL    HW3 5947   0.494   2.369   2.708  0.2148 -0.8394  1.8973
    1SOL    MW4 5948   0.427   2.417   2.735  0.0115 -0.0389  0.0725
    1SOL     OW 5949   0.430   2.658   2.633  0.1699 -0.2475 -0.0946
    1SOL    HW2 5950   0.511   2.694   2.668 -0.4206  0.8107  0.2105
    1SOL    HW3 5951   0.360   2.707   2.676 -0.6370 -1.0358 -0.4646
    1SOL    MW4 5952   0.431   2.669   2.643 -0.0145 -0.2120 -0.1035
    1SOL     OW 5953   0.652   2.788   2.729 -0.1777  0.3418 -0.1649
    1SOL    HW2 5954   0.678   2.803   2.820 -1.2125  0.0935  0.1812
    1SOL    HW3 5955   0.655   2.875   2.689 -0.4569  0.5743  0.3124
    1SOL    MW4 5956   0.656   2.802   2.736 -0.3511  0.3400 -0.0563
    1SOL     OW 5957   0.696   3.061   2.640 -0.0288 -0.5463  0.1533
    1SOL    HW2 5958   0.774   3.089   2.687  0.6338 -2.8681  0.4734
    1SOL    HW3 5959   0.714   3.081   2.548  0.1582  0.6536  0.4475
    1SOL    MW4 5960   0.708   3.067   2.634  0.0834 -0.6943  0.2344
    1SOL     OW 5961   0.473   3.193   2.724  0.0210 -0.7393 -0.3922
    1SOL    HW2 5962   0.482   3.195   2.820 -0.1766  1.3930 -0.3973
    1SOL    HW3 5963   0.547   3.141   2.694 -1.0194 -3.1178  1.0291
    1SOL    MW4 5964   0.484   3.186   2.733 -0.1423 -0.7718 -0.2053
    1SOL     OW 5965   0.444   3.463   2.628  0.0164 -0.4870 -0.1830
    1SOL    HW2 5966   0.450   3.369   2.644 -1.0331 -0.4082  0.6685
    1SOL    HW3 5967   0.426   3.470   2.534  1.3134 -1.0893 -0.4859
    1SOL    MW4 5968   0.443   3.452   2.618  0.0490 -0.5560 -0.1109
    1SOL     OW 5969   0.674   3.618   2.699  0.1581 -0.2369  0.6038
    1SOL    HW2 5970   0.665   3.612   2.794  0.0638 -0.3344  0.5886
    1SOL    HW3 5971   0.598   3.571   2.664  0.5051 -0.7114  0.4753
    1SOL    MW4 5972   0.663   3.611   2.707  0.1915 -0.3126  0.5848
    1SOL     OW 5973   0.666   3.891   2.642  0.3147  0.4955  0.5044
    1SOL    HW2 5974   0.579   3.914   2.674 -0.5480  0.7560 -1.8866
    1SOL    HW3 5975   0.675   3.798   2.660 -0.0656  0.6730  1.6264
    1SOL    MW4 5976   0.655   3.882   2.648  0.1507  0.5534  0.3371
    1SOL     OW 5977   0.433   3.985   2.750 -0.0807  0.2732  0.4244
    1SOL    HW2 5978   0.428   4.078   2.728 -0.2847 -0.1357 -1.3328
    1SOL    HW3 5979   0.365   3.944   2.697  0.6664 -1.0049  0.4367
    1SOL    MW4 5980   0.424   3.992   2.740 -0.0091  0.0505  0.1943
    1SOL     OW 5981   0.382   4.242   2.649 -0.6227  0.4859 -0.2906
    1SOL    HW2 5982   0.466   4.270   2.685  0.0326 -0.3855 -1.1077
    1SOL    HW3 5983   0.393   4.251   2.554 -1.1741 -0.3843 -0.4413
    1SOL    MW4 5984   0.394   4.247   2.641 -0.6090  0.2556 -0.4184
    1SOL     OW 5985   0.633   4.372   2.740  0.1948  0.1180 -0.3572
    1SOL    HW2 5986   0.722   4.345   2.718  0.1300  1.3201 -2.1832
    1SOL    HW3 5987   0.627   4.462   2.710 -1.1030  0.6305  1.3438
    1SOL    MW4 5988   0.644   4.380   2.734  0.0150  0.3448 -0.3734
    1SOL     OW 5989   1.138   4.621   2.633 -0.2991  0.0328 -0.5084
    1SOL    HW2 5990   1.207   4.663   2.684  0.2062 -0.2340 -0.9681
    1SOL    HW3 5991   1.140   4.529   2.660 -0.1810 -0.0631 -0.8439
    1SOL    MW4 5992   1.147   4.614   2.643 -0.2168 -0.0153 -0.6132
    1SOL     OW 5993   0.898   0.095   2.696  0.6383  0.3213 -0.2063
    1SOL    HW2 5994   0.892   0.100   2.792  1.3475 -0.1686 -0.1326
    1SOL    HW3 5995   0.980   0.049   2.680  0.0936 -0.3834 -1.0400
    1SOL    MW4 5996   0.908   0.089   2.707  0.6599  0.1637 -0.3066
    1SOL     OW 5997   0.898   0.372   2.651 -0.0554 -0.1682  0.0152
    1SOL    HW2 5998   0.899   0.282   2.684 -0.6476  0.1051  0.7991
    1SOL    HW3 5999   0.865   0.363   2.561 -1.4322 -0.6074  0.5414
    1SOL    MW4 6000   0.894   0.359   2.644 -0.3152 -0.1901  0.1881
    1SOL     OW 6001   1.138   0.506   2.720 -0.0963  0.3797 -0.0552
    1SOL    HW2 6002   1.137   0.584   2.664  0.3948 -0.0303 -0.6372
    1SOL    HW3 6003   1.052   0.466   2.706 -0.2894  0.7204  0.1234
    1SOL    MW4 6004   1.126   0.511   2.711 -0.0570  0.3706 -0.1085
    1SOL     OW 6005   1.092   0.767   2.612 -0.5853 -0.0026 -0.1285
    1SOL    HW2 6006   1.168   0.820   2.637 -0.8886  0.6899 -0.6375
    1SOL    HW3 6007   1.082   0.783   2.519 -1.5475  0.1549  0.0008
    1SOL    MW4 6008   1.101   0.776   2.603 -0.7522  0.1095 -0.1783
    1SOL     OW 6009   0.868   0.833   2.745  0.2770 -0.1958 -0.4459
    1SOL    HW2 6010   0.884   0.865   2.834 -0.5698 -0.6916 -0.0999
    1SOL    HW3 6011   0.954   0.807   2.713  0.6018  0.0477  0.2127
    1SOL    MW4 6012   0.881   0.834   2.753  0.2081 -0.2291 -0.3133
    1SOL     OW 6013   0.874   1.121   2.696 -0.0368 -0.0012  0.2661
    1SOL    HW2 6014   0.869   1.025   2.705  2.1717 -0.1836 -0.2310
    1SOL    HW3 6015   0.868   1.136   2.602  0.5818  0.2692  0.2664
    1SOL    MW4 6016   0.873   1.110   2.685  0.3363  0.0105  0.2007
    1SOL     OW 6017   1.117   1.229   2.766 -0.0748  0.1406 -0.0875
    1SOL    HW2 6018   1.124   1.317   2.731  1.7889 -0.2742 -0.8355
    1SOL    HW3 6019   1.029   1.199   2.740  0.1935  0.8871 -1.9228
    1SOL    MW4 6020   1.106   1.236   2.758  0.2065  0.1845 -0.4284
    1SOL     OW 6021   1.111   1.501   2.644  0.4439 -0.1880  0.4807
    1SOL    HW2 6022   1.047   1.558   2.687  0.7372  1.4663 -1.2180
    1SOL    HW3 6023   1.091   1.509   2.551  1.7147 -1.4055  0.0985
    1SOL    MW4 6024   1.100   1.510   2.638  0.6504 -0.1305  0.2065
    1SOL     OW 6025   0.897   1.650   2.736 -0.7449  0.2567  0.0381
    1SOL    HW2 6026   0.909   1.642   2.830  0.4255 -0.1173 -0.1332
    1SOL    HW3 6027   0.820   1.597   2.716 -0.7944  0.0713  0.7383
    1SOL    MW4 6028   0.889   1.642   2.746 -0.5969  0.1830  0.1080
    1SOL     OW 6029   0.895   1.908   2.619  0.0418  0.2378  0.2298
    1SOL    HW2 6030   0.957   1.960   2.670  0.7756 -0.1521 -0.2601
    1SOL    HW3 6031   0.900   1.820   2.656 -0.5080  0.2962  0.4466
    1SOL    MW4 6032   0.904   1.903   2.631  0.0661  0.1940  0.1936
    1SOL     OW 6033   1.097   2.042   2.768  0.1176  0.2087 -0.1712
    1SOL    HW2 6034   1.165   2.006   2.710  0.3773  1.9786 -1.0167
    1SOL    HW3 6035   1.090   2.134   2.742 -0.2719  0.8732  2.1482
    1SOL    MW4 6036   1.105   2.049   2.757  0.1005  0.5295  0.0231
    1SOL     OW 6037   1.098   2.297   2.653  0.9776 -0.1964  0.4176
    1SOL    HW2 6038   1.182   2.338   2.673  0.7799 -0.0204  0.8832
    1SOL    HW3 6039   1.096   2.291   2.557  1.3475  0.1577  0.3916
    1SOL    MW4 6040   1.109   2.301   2.643  1.0003 -0.1266  0.4756
    1SOL     OW 6041   0.883   2.435   2.751 -0.0874 -0.2759  0.0965
    1SOL    HW2 6042   0.878   2.516   2.699 -2.8503 -0.3828  0.1518
    1SOL    HW3 6043   0.957   2.387   2.713  0.3676  1.3980 -1.1969
    1SOL    MW4 6044   0.892   2.440   2.739 -0.3919 -0.0691 -0.0670
    1SOL     OW 6045   0.866   2.684   2.616  0.3293  0.3449  0.3760
    1SOL    HW2 6046   0.935   2.746   2.643  0.4699 -0.3904  1.7459
    1SOL    HW3 6047   0.788   2.715   2.661  0.6810 -1.2015  2.1058
    1SOL    MW4 6048   0.865   2.697   2.626  0.3943  0.0436  0.7846
    1SOL     OW 6049   1.083   2.832   2.698  0.0000  0.0000 -0.1746
    1SOL    HW2 6050   1.106   2.825   2.791  0.0000  0.0000 -0.1758
    1SOL    HW3 6051   1.159   2.795   2.652  0.0000  0.0000 -0.1793
    1SOL    MW4 6052   1.096   2.826   2.704  0.0000  0.0000 -0.1752
    1SOL     OW 6053   1.148   3.096   2.635  0.0000  0.0000  0.0891
    1SOL    HW2 6054   1.122   3.007   2.658  0.0000  0.0000  0.0882
    1SOL    HW3 6055   1.136   3.101   2.540  0.0000  0.0000  0.0891
    1SOL    MW4 6056   1.143   3.085   2.626  0.0000  0.0000  0.0892
    1SOL     OW 6057   0.919   3.208   2.750  0.0000  0.0000  0.0719
    1SOL    HW2 6058   0.903   3.287   2.698  0.0000  0.0000  0.0824
    1SOL    HW3 6059   1.006   3.179   2.722  0.0000  0.0000  0.0753
    1SOL    MW4 6060   0.928   3.215   2.739  0.0000  0.0000  0.0737
    1SOL     OW 6061   0.887   3.462   2.626  0.0000  0.0000  0.3642
    1SOL    HW2 6062   0.961   3.508   2.667  0.0000  0.0000  0.3586
    1SOL    HW3 6063   0.810   3.511   2.655  0.0000  0.0000  0.3782
    1SOL    MW4 6064   0.887   3.475   2.635  0.0000  0.0000  0.3655
    1SOL     OW 6065   1.102   3.599   2.719  0.0000  0.0000 -0.0983
    1SOL    HW2 6066   1.101   3.626   2.811  0.0000  0.0000 -0.0966
    1SOL    HW3 6067   1.100   3.681   2.669  0.0000  0.0000 -0.0929
    1SOL    MW4 6068   1.102   3.613   2.724  0.0000  0.0000 -0.0973
    1SOL     OW 6069   1.098   3.851   2.579  0.0000  0.0000  0.5375
    1SOL    HW2 6070   1.178   3.889   2.617  0.0000  0.0000  0.5451
    1SOL    HW3 6071   1.110   3.859   2.485  0.0000  0.0000  0.5388
    1SOL    MW4 6072   1.110   3.857   2.572  0.0000  0.0000  0.5386
    1SOL     OW 6073   0.893   4.008   2.718  0.0000  0.0000  0.1140
    1SOL    HW2 6074   0.957   3.963   2.663  0.0000  0.0000  0.1072
    1SOL    HW3 6075   0.809   3.969   2.691  0.0000  0.0000  0.1280
    1SOL    MW4 6076   0.890   3.997   2.707  0.0000  0.0000  0.1149
    1SOL     OW 6077   0.888   4.266   2.648  0.0000  0.0000 -0.3265
    1SOL    HW2 6078   0.892   4.173   2.672  0.0000  0.0000 -0.3230
    1SOL    HW3 6079   0.884   4.265   2.552  0.0000  0.0000 -0.3265
    1SOL    MW4 6080   0.888   4.254   2.638  0.0000  0.0000 -0.3259
    1SOL     OW 6081   1.144   4.351   2.738  0.0000  0.0000  0.5247
    1SOL    HW2 6082   1.137   4.378   2.830  0.0000  0.0000  0.5257
    1SOL    HW3 6083   1.055   4.327   2.713  0.0000  0.0000  0.5248
    1SOL    MW4 6084   1.131   4.351   2.747  0.0000  0.0000  0.5248
    1SOL     OW 6085   1.607   4.641   2.617  0.2557 -0.3861  0.2103
    1SOL    HW2 6086   1.624   4.550   2.640  0.2657 -0.4249  0.0527
    1SOL    HW3 6087   1.577   4.637   2.526  1.0253 -0.1562 -0.0549
    1SOL    MW4 6088   1.605   4.628   2.608  0.3586 -0.3610  0.1545
    1SOL     OW 6089   1.369   0.085   2.747  0.6402 -0.2630 -0.5328
    1SOL    HW2 6090   1.377   0.177   2.723  1.1947  0.0334  0.7501
    1SOL    HW3 6091   1.439   0.041   2.698  1.6987  0.3191  0.4342
    1SOL    MW4 6092   1.380   0.091   2.737  0.8531 -0.1471 -0.2358
    1SOL     OW 6093   1.375   0.347   2.658 -0.4586  0.0303  0.1432
    1SOL    HW2 6094   1.452   0.398   2.682 -0.6590 -0.2221  1.3529
    1SOL    HW3 6095   1.300   0.402   2.684 -0.7070  0.6512 -1.8146
    1SOL    MW4 6096   1.375   0.361   2.665 -0.5178  0.0789  0.0446
    1SOL     OW 6097   1.573   0.522   2.742  0.5849  0.1835 -0.2549
    1SOL    HW2 6098   1.649   0.473   2.710  0.8832  0.5583 -0.1366
    1SOL    HW3 6099   1.586   0.610   2.707  0.4707  0.3801  0.1921
    1SOL    MW4 6100   1.585   0.527   2.733  0.6090  0.2589 -0.1807
    1SOL     OW 6101   1.597   0.759   2.613 -0.4109 -0.0939  0.4282
    1SOL    HW2 6102   1.511   0.792   2.639 -0.9380 -1.2802  0.2274
    1SOL    HW3 6103   1.595   0.757   2.518  0.0789  0.4734  0.3997
    1SOL    MW4 6104   1.586   0.763   2.604 -0.4159 -0.1755  0.3979
    1SOL     OW 6105   1.333   0.886   2.714 -0.0604  0.0773 -0.4013
    1SOL    HW2 6106   1.349   0.886   2.808  0.1100 -0.7182 -0.4247
    1SOL    HW3 6107   1.326   0.979   2.690  0.2102  0.2886  0.3393
    1SOL    MW4 6108   1.334   0.898   2.723 -0.0021  0.0002 -0.3066
    1SOL     OW 6109   1.322   1.141   2.627 -0.1030 -0.2180 -0.7131
    1SOL    HW2 6110   1.397   1.196   2.650 -0.4835 -0.0070  0.0043
    1SOL    HW3 6111   1.249   1.176   2.677 -0.6867 -0.4407 -1.3935
    1SOL    MW4 6112   1.323   1.153   2.637 -0.2302 -0.2195 -0.7086
    1SOL     OW 6113   1.533   1.299   2.726  0.1220  0.0115 -0.0826
    1SOL    HW2 6114   1.532   1.305   2.821  1.0888  2.9140 -0.1758
    1SOL    HW3 6115   1.617   1.258   2.705  0.2201  0.0079  0.3241
    1SOL    MW4 6116   1.544   1.295   2.736  0.2624  0.3939 -0.0410
    1SOL     OW 6117   1.571   1.555   2.653  0.5981 -0.2203 -0.1233
    1SOL    HW2 6118   1.557   1.462   2.671  2.3782 -0.2996  0.9727
    1SOL    HW3 6119   1.581   1.560   2.558 -0.8192 -0.9417 -0.3380
    1SOL    MW4 6120   1.570   1.543   2.643  0.6460 -0.3259 -0.0072
    1SOL     OW 6121   1.312   1.666   2.733 -0.0098 -0.2019 -0.0573
    1SOL    HW2 6122   1.396   1.623   2.718 -0.2767 -1.0724  0.8680
    1SOL    HW3 6123   1.247   1.605   2.697 -0.2344  0.6435 -1.1212
    1SOL    MW4 6124   1.314   1.652   2.726 -0.0745 -0.2053 -0.0753
    1SOL     OW 6125   1.301   1.925   2.632  0.4185 -0.3716  0.2324
    1SOL    HW2 6126   1.304   1.832   2.657 -0.2548 -0.1944  1.0018
    1SOL    HW3 6127   1.329   1.926   2.541  1.4723 -1.2108  0.5306
    1SOL    MW4 6128   1.305   1.913   2.624  0.4686 -0.4591  0.3731
    1SOL     OW 6129   1.551   2.050   2.734  0.0132  0.3897 -0.1144
    1SOL    HW2 6130   1.611   2.006   2.675 -0.3069  0.6984 -0.6771
    1SOL    HW3 6131   1.466   2.009   2.717  0.3878 -1.3220  1.9899
    1SOL    MW4 6132   1.547   2.039   2.724  0.0205  0.2043  0.0894
    1SOL     OW 6133   1.560   2.299   2.610  0.0066  0.3741  0.0821
    1SOL    HW2 6134   1.645   2.342   2.624 -0.3124  0.9030  0.4087
    1SOL    HW3 6135   1.560   2.225   2.670  0.4750  0.0325 -0.3342
    1SOL    MW4 6136   1.571   2.295   2.619  0.0262  0.3989  0.0703
    1SOL     OW 6137   1.342   2.440   2.733  0.1564 -0.0769 -0.0158
    1SOL    HW2 6138   1.337   2.525   2.689 -1.0695  0.2624  0.7568
    1SOL    HW3 6139   1.409   2.392   2.684 -0.7611  0.5077 -1.9139
    1SOL    MW4 6140   1.350   2.445   2.721 -0.1262  0.0446 -0.1645
    1SOL     OW 6141   1.335   2.695   2.622 -0.0396  0.0351 -0.0208
    1SOL    HW2 6142   1.400   2.759   2.652  2.2177 -2.2618  0.1577
    1SOL    HW3 6143   1.347   2.691   2.527  1.0281 -1.3567  0.1589
    1SOL    MW4 6144   1.345   2.703   2.613  0.3992 -0.4513  0.0265
    1SOL     OW 6145   1.541   2.855   2.703  0.1924 -0.2765  0.2433
    1SOL    HW2 6146   1.542   2.863   2.798  0.9841 -0.1547  0.2317
    1SOL    HW3 6147   1.618   2.801   2.683 -0.6739 -1.3396 -0.2379
    1SOL    MW4 6148   1.552   2.849   2.713  0.1825 -0.4008  0.1781
    1SOL     OW 6149   1.602   3.106   2.606  0.3465  0.4204  0.0969
    1SOL    HW2 6150   1.680   3.141   2.649  0.8800  0.3618 -0.8246
    1SOL    HW3 6151   1.590   3.020   2.645 -0.5433  1.2979  1.8396
    1SOL    MW4 6152   1.611   3.100   2.617  0.2995  0.5286  0.2050
    1SOL     OW 6153   1.375   3.221   2.761  0.2216  0.1505 -0.1755
    1SOL    HW2 6154   1.448   3.192   2.706  0.3246  0.1023 -0.0136
    1SOL    HW3 6155   1.299   3.172   2.729  0.2785  0.1356 -0.2855
    1SOL    MW4 6156   1.374   3.211   2.749  0.2427  0.1423 -0.1686
    1SOL     OW 6157   1.321   3.454   2.634  0.2128 -0.1122 -0.1411
    1SOL    HW2 6158   1.333   3.371   2.680  0.1868 -0.5789 -0.9520
    1SOL    HW3 6159   1.249   3.498   2.679 -1.4742 -1.6657 -1.2671
    1SOL    MW4 6160   1.313   3.449   2.646 -0.0132 -0.3788 -0.3967
    1SOL     OW 6161   1.573   3.590   2.698 -0.1336 -0.2868  0.0211
    1SOL    HW2 6162   1.642   3.541   2.653  0.1808 -0.0729  0.2660
    1SOL    HW3 6163   1.491   3.547   2.671  0.1684 -1.2299  0.5819
    1SOL    MW4 6164   1.571   3.578   2.688 -0.0522 -0.3831  0.1276
    1SOL     OW 6165   1.596   3.847   2.633 -0.0947 -0.2049 -0.2579
    1SOL    HW2 6166   1.515   3.895   2.649 -0.4091 -0.6669 -0.4719
    1SOL    HW3 6167   1.583   3.762   2.675  0.2586 -0.3013 -0.3398
    1SOL    MW4 6168   1.584   3.842   2.641 -0.0895 -0.2787 -0.2971
    1SOL     OW 6169   1.342   3.962   2.705 -0.1960  0.3240  0.3971
    1SOL    HW2 6170   1.346   3.965   2.800  1.3492  0.0347  0.3600
    1SOL    HW3 6171   1.352   4.053   2.677  0.7291  0.2641  0.4944
    1SOL    MW4 6172   1.344   3.974   2.714  0.1301  0.2780  0.4048
    1SOL     OW 6173   1.386   4.233   2.628  0.0380 -0.1052 -0.1496
    1SOL    HW2 6174   1.313   4.278   2.671  0.1832 -1.1521  1.2638
    1SOL    HW3 6175   1.372   4.248   2.535 -1.2547  0.8058  0.1671
    1SOL    MW4 6176   1.374   4.241   2.622 -0.1134 -0.1235  0.0787
    1SOL     OW 6177   1.605   4.368   2.703  0.4954 -0.4616 -0.0845
    1SOL    HW2 6178   1.601   4.377   2.798  0.6414 -1.8651  0.0568
    1SOL    HW3 6179   1.525   4.321   2.680 -0.1704  0.9754 -0.8100
    1SOL    MW4 6180   1.594   4.363   2.713  0.4268 -0.4573 -0.1616
    1SOL     OW 6181   2.017   4.662   2.603  0.0800 -0.2395 -0.0370
    1SOL    HW2 6182   2.106   4.690   2.624  0.3562 -0.6480 -0.6584
    1SOL    HW3 6183   2.014   4.660   2.507 -0.8770  0.6648 -0.0458
    1SOL    MW4 6184   2.028   4.666   2.593 -0.0095 -0.1740 -0.1202
    1SOL     OW 6185   1.809   0.113   2.728  0.3052  0.6680  0.2167
    1SOL    HW2 6186   1.885   0.070   2.690  1.1048 -0.6648  3.1646
    1SOL    HW3 6187   1.734   0.061   2.699  0.8322  0.0581 -0.0430
    1SOL    MW4 6188   1.809   0.100   2.719  0.4801  0.4117  0.5713
    1SOL     OW 6189   1.765   0.374   2.635 -0.0173 -0.2630  0.0261
    1SOL    HW2 6190   1.845   0.417   2.667  1.4100 -2.1341 -0.8716
    1SOL    HW3 6191   1.781   0.281   2.651 -1.7740 -0.7006 -0.7318
    1SOL    MW4 6192   1.778   0.368   2.641 -0.0609 -0.5676 -0.1924
    1SOL     OW 6193   1.992   0.501   2.743 -0.1341  0.2170 -0.5906
    1SOL    HW2 6194   2.072   0.456   2.714 -0.0053  1.0607 -1.5646
    1SOL    HW3 6195   1.997   0.499   2.839  0.1828 -1.2843 -0.6134
    1SOL    MW4 6196   2.003   0.495   2.752 -0.0753  0.1302 -0.7222
    1SOL     OW 6197   2.014   0.768   2.645 -0.5005 -0.1215 -0.2142
    1SOL    HW2 6198   2.003   0.680   2.680 -0.4837 -0.3434 -0.7559
    1SOL    HW3 6199   1.931   0.812   2.662 -0.4055 -0.1448  0.3198
    1SOL    MW4 6200   2.002   0.763   2.651 -0.4854 -0.1540 -0.2151
    1SOL     OW 6201   1.797   0.919   2.704  0.3417 -0.7202 -0.3947
    1SOL    HW2 6202   1.792   0.998   2.651  0.1773  0.9837  2.0851
    1SOL    HW3 6203   1.723   0.866   2.675  0.2511  0.1811 -1.8483
    1SOL    MW4 6204   1.786   0.922   2.693  0.3079 -0.3765 -0.2594
    1SOL     OW 6205   1.760   1.190   2.607  0.0917 -0.1872  0.1777
    1SOL    HW2 6206   1.850   1.209   2.635 -0.0644 -0.9071  1.1907
    1SOL    HW3 6207   1.766   1.182   2.512  1.0023  0.2846  0.1825
    1SOL    MW4 6208   1.773   1.192   2.598  0.1912 -0.2199  0.3119
    1SOL     OW 6209   1.997   1.234   2.733  0.6149  0.2084 -0.2637
    1SOL    HW2 6210   2.009   1.233   2.828  2.3412  0.2945 -0.4639
    1SOL    HW3 6211   2.078   1.198   2.698 -0.5286 -1.0559 -1.6763
    1SOL    MW4 6212   2.009   1.229   2.741  0.6919  0.0530 -0.4764
    1SOL     OW 6213   2.043   1.510   2.726  0.3332  0.0510  0.2442
    1SOL    HW2 6214   1.966   1.564   2.741 -0.0741 -0.4580  0.0314
    1SOL    HW3 6215   2.009   1.420   2.727  0.9225 -0.1749  0.1489
    1SOL    MW4 6216   2.028   1.505   2.728  0.3572 -0.0460  0.2036
    1SOL     OW 6217   1.811   1.669   2.741 -0.1128 -0.0024  0.4650
    1SOL    HW2 6218   1.807   1.669   2.837  0.4775 -2.9761  0.5170
    1SOL    HW3 6219   1.737   1.616   2.714 -0.4120  1.0163 -0.7688
    1SOL    MW4 6220   1.801   1.662   2.750 -0.0744 -0.2605  0.3088
    1SOL     OW 6221   1.792   1.912   2.608  0.1157 -0.6996 -0.1153
    1SOL    HW2 6222   1.871   1.949   2.645 -0.5800 -0.5589  1.2513
    1SOL    HW3 6223   1.770   1.839   2.665 -0.1400 -1.4143 -1.1143
    1SOL    MW4 6224   1.799   1.908   2.620 -0.0099 -0.7753 -0.0665
    1SOL     OW 6225   2.038   2.043   2.698  0.0273 -0.4779 -0.1260
    1SOL    HW2 6226   2.034   2.049   2.794  1.6197 -1.6830  0.0468
    1SOL    HW3 6227   2.052   2.133   2.669 -1.8775  0.0955  0.6656
    1SOL    MW4 6228   2.040   2.056   2.707 -0.0136 -0.5610  0.0010
    1SOL     OW 6229   2.027   2.316   2.596 -0.3112  0.2874  0.6023
    1SOL    HW2 6230   2.101   2.364   2.634  0.1471  1.3728 -1.5647
    1SOL    HW3 6231   2.030   2.338   2.503 -1.4488 -2.2137 -0.0658
    1SOL    MW4 6232   2.037   2.326   2.589 -0.4008  0.1006  0.2279
    1SOL     OW 6233   1.790   2.424   2.701  0.2319  0.0259 -0.6624
    1SOL    HW2 6234   1.819   2.446   2.790 -0.9393 -0.2753 -0.1888
    1SOL    HW3 6235   1.868   2.387   2.659  0.6057 -0.5384  0.4918
    1SOL    MW4 6236   1.804   2.422   2.707  0.1267 -0.0885 -0.4475
    1SOL     OW 6237   1.763   2.696   2.627  0.3546  0.0260 -0.1215
    1SOL    HW2 6238   1.774   2.604   2.650 -0.7360  0.0295  0.4548
    1SOL    HW3 6239   1.765   2.697   2.532  1.8081 -0.3979 -0.1059
    1SOL    MW4 6240   1.764   2.684   2.618  0.4026 -0.0296 -0.0434
    1SOL     OW 6241   2.004   2.821   2.750  0.1097  0.0676  0.5087
    1SOL    HW2 6242   2.058   2.748   2.719 -0.7161 -0.1452 -0.4529
    1SOL    HW3 6243   1.914   2.793   2.733 -0.3275  0.2756  2.4145
    1SOL    MW4 6244   1.999   2.807   2.744 -0.0570  0.0668  0.6332
    1SOL     OW 6245   2.034   3.058   2.602 -0.2349 -0.0312 -0.2393
    1SOL    HW2 6246   2.032   2.970   2.641  1.1714 -0.2495 -0.6555
    1SOL    HW3 6247   2.008   3.045   2.511  0.8242 -0.1381 -0.5273
    1SOL    MW4 6248   2.030   3.045   2.595  0.0901 -0.0741 -0.3326
    1SOL     OW 6249   1.833   3.208   2.730  0.3849  0.2138 -0.3416
    1SOL    HW2 6250   1.830   3.303   2.723  0.1396  0.2389  0.0941
    1SOL    HW3 6251   1.913   3.183   2.684  0.8774  0.6960  0.2528
    1SOL    MW4 6252   1.843   3.217   2.723  0.4175  0.2806 -0.2055
    1SOL     OW 6253   1.822   3.465   2.622 -0.5437  0.0969 -0.2862
    1SOL    HW2 6254   1.900   3.517   2.638 -1.3756  0.7757  1.7952
    1SOL    HW3 6255   1.819   3.454   2.527  1.8660  0.3603 -0.4156
    1SOL    MW4 6256   1.832   3.471   2.612 -0.3356  0.2213 -0.0286
    1SOL     OW 6257   2.030   3.621   2.708  0.6036 -0.1054  0.1149
    1SOL    HW2 6258   2.019   3.608   2.802  2.2259  1.1802  0.5094
    1SOL    HW3 6259   2.104   3.565   2.684  1.3528  0.9393 -0.0402
    1SOL    MW4 6260   2.038   3.612   2.717  0.9167  0.2019  0.1466
    1SOL     OW 6261   2.032   3.901   2.646 -0.1103 -0.2732 -0.1446
    1SOL    HW2 6262   1.950   3.940   2.676  0.8069  1.0378  0.7659
    1SOL    HW3 6263   2.026   3.809   2.672 -1.9589 -0.5715 -1.5526
    1SOL    MW4 6264   2.021   3.894   2.654 -0.2329 -0.1395 -0.2103
    1SOL     OW 6265   1.802   4.004   2.753 -0.0945 -0.3322 -0.5409
    1SOL    HW2 6266   1.805   4.080   2.695  0.4197 -0.1758 -0.3141
    1SOL    HW3 6267   1.742   3.943   2.710  0.1505 -0.1481 -1.1541
    1SOL    MW4 6268   1.795   4.006   2.739  0.0057 -0.2871 -0.5918
    1SOL     OW 6269   1.814   4.242   2.601 -0.2267  0.0681  0.2789
    1SOL    HW2 6270   1.736   4.286   2.635 -1.1511 -0.3396 -1.2425
    1SOL    HW3 6271   1.807   4.252   2.506  0.2481 -2.1775 -0.0240
    1SOL    MW4 6272   1.803   4.249   2.593 -0.2859 -0.2818  0.0381
    1SOL     OW 6273   1.991   4.400   2.721 -0.0838  0.5608  0.0662
    1SOL    HW2 6274   1.934   4.342   2.670 -2.0924  1.8116  0.8524
    1SOL    HW3 6275   2.000   4.479   2.668 -0.2283  0.9220  0.5769
    1SOL    MW4 6276   1.985   4.402   2.707 -0.3680  0.7734  0.2375
    1SOL     OW 6277   2.454   4.640   2.615 -0.0812 -0.7139 -0.0014
    1SOL    HW2 6278   2.531   4.686   2.649 -1.1672  0.3942  1.0059
    1SOL    HW3 6279   2.464   4.643   2.520  0.3477  0.7611  0.0862
    1SOL    MW4 6280   2.466   4.646   2.607 -0.1678 -0.3729  0.1433
    1SOL     OW 6281   2.249   0.110   2.737 -0.1081  0.4958  0.2562
    1SOL    HW2 6282   2.323   0.068   2.693 -1.0773 -0.3501 -0.5835
    1SOL    HW3 6283   2.259   0.086   2.829 -0.2667 -1.0054 -0.1099
    1SOL    MW4 6284   2.260   0.102   2.743 -0.2570  0.1861  0.0973
    1SOL     OW 6285   2.205   0.371   2.631  0.1699 -0.2158 -0.0458
    1SOL    HW2 6286   2.202   0.358   2.536  0.6455  0.8679 -0.2154
    1SOL    HW3 6287   2.221   0.284   2.667 -0.6199 -0.7355 -0.9223
    1SOL    MW4 6288   2.206   0.358   2.623  0.1283 -0.1414 -0.1841
    1SOL     OW 6289   2.444   0.458   2.741  0.7063 -0.0844 -0.0423
    1SOL    HW2 6290   2.466   0.538   2.693  0.3845 -0.2107 -0.4007
    1SOL    HW3 6291   2.360   0.431   2.705 -0.5043  0.9065  1.9567
    1SOL    MW4 6292   2.436   0.465   2.730  0.5043  0.0297  0.1743
    1SOL     OW 6293   2.450   0.707   2.633 -0.5282 -0.2308 -0.2474
    1SOL    HW2 6294   2.391   0.779   2.655  0.5127  0.7299 -0.5666
    1SOL    HW3 6295   2.452   0.705   2.538  0.0814 -0.1425 -0.2396
    1SOL    MW4 6296   2.442   0.716   2.624 -0.3104 -0.0924 -0.2887
    1SOL     OW 6297   2.256   0.899   2.704 -0.2845  0.1267 -0.2068
    1SOL    HW2 6298   2.260   0.926   2.796  1.3858  3.5346 -1.1722
    1SOL    HW3 6299   2.167   0.867   2.692 -0.5038 -0.4354  2.6009
    1SOL    MW4 6300   2.245   0.899   2.714 -0.0932  0.5021  0.0362
    1SOL     OW 6301   2.201   1.145   2.592 -0.1267 -0.3588 -0.0603
    1SOL    HW2 6302   2.226   1.060   2.627 -0.3060 -0.1136  0.6746
    1SOL    HW3 6303   2.279   1.200   2.603 -0.3843 -0.1117  0.5107
    1SOL    MW4 6304   2.215   1.141   2.598 -0.1845 -0.2939  0.1121
    1SOL     OW 6305   2.421   1.269   2.672  0.4688 -0.0966  0.1914
    1SOL    HW2 6306   2.447   1.359   2.649 -0.1944  0.0198 -0.1384
    1SOL    HW3 6307   2.500   1.217   2.660  0.8176  0.4203  0.2204
    1SOL    MW4 6308   2.435   1.274   2.667  0.4272 -0.0130  0.1516
    1SOL     OW 6309   2.477   1.534   2.620  0.1061  0.1724 -0.2154
    1SOL    HW2 6310   2.411   1.562   2.683 -0.8956  0.9184 -1.5828
    1SOL    HW3 6311   2.560   1.563   2.658 -0.5475  1.2363  0.4355
    1SOL    MW4 6312   2.479   1.541   2.634 -0.1123  0.4113 -0.3099
    1SOL     OW 6313   2.281   1.637   2.785 -0.2517  0.8887 -0.0634
    1SOL    HW2 6314   2.271   1.714   2.729  0.1596  2.6023  2.1542
    1SOL    HW3 6315   2.197   1.592   2.781 -1.2043  2.6205  0.2964
    1SOL    MW4 6316   2.269   1.641   2.777 -0.3228  1.3433  0.2766
    1SOL     OW 6317   2.234   1.871   2.607 -0.2163 -0.3704 -0.0055
    1SOL    HW2 6318   2.169   1.928   2.648  0.1732  0.4730 -0.5303
    1SOL    HW3 6319   2.220   1.883   2.513  1.3456  0.6098 -0.1388
    1SOL    MW4 6320   2.224   1.880   2.600  0.0410 -0.1297 -0.0923
    1SOL     OW 6321   2.470   2.016   2.674 -0.2980 -0.3961 -0.0840
    1SOL    HW2 6322   2.459   2.109   2.655  0.1404 -0.3362 -0.0400
    1SOL    HW3 6323   2.389   1.976   2.643 -0.7001  0.0682  0.3639
    1SOL    MW4 6324   2.458   2.023   2.667 -0.2933 -0.3269 -0.0191
    1SOL     OW 6325   2.434   2.286   2.601  0.0767  0.0975 -0.2609
    1SOL    HW2 6326   2.504   2.348   2.619 -0.0828  0.4558 -0.8606
    1SOL    HW3 6327   2.423   2.289   2.506  0.8953 -1.7453 -0.4428
    1SOL    MW4 6328   2.442   2.295   2.591  0.1638 -0.0980 -0.3641
    1SOL     OW 6329   2.232   2.427   2.718 -0.1897 -0.7086  0.3420
    1SOL    HW2 6330   2.253   2.446   2.810  0.4232  0.6951 -0.0814
    1SOL    HW3 6331   2.312   2.386   2.684 -0.0467 -0.2829  0.1635
    1SOL    MW4 6332   2.246   2.424   2.726 -0.0899 -0.4671  0.2625
    1SOL     OW 6333   2.239   2.691   2.608 -0.2096 -0.2940  0.0982
    1SOL    HW2 6334   2.314   2.740   2.642 -0.0416 -0.0293 -0.6445
    1SOL    HW3 6335   2.245   2.605   2.651 -0.2529  0.1791  1.0570
    1SOL    MW4 6336   2.250   2.686   2.619 -0.1931 -0.1969  0.1264
    1SOL     OW 6337   2.456   2.832   2.724  0.4702  0.2089 -0.2131
    1SOL    HW2 6338   2.523   2.782   2.676  1.2108  0.6782  0.3198
    1SOL    HW3 6339   2.464   2.921   2.689 -0.5133  0.0786 -0.8088
    1SOL    MW4 6340   2.466   2.837   2.713  0.4385  0.2537 -0.2215
    1SOL     OW 6341   2.450   3.093   2.649  0.1804  0.2971  0.4629
    1SOL    HW2 6342   2.363   3.128   2.669  0.7366  1.1965  1.3280
    1SOL    HW3 6343   2.447   3.075   2.555 -1.2678 -0.6335  0.6569
    1SOL    MW4 6344   2.438   3.095   2.639  0.0627  0.2930  0.6027
    1SOL     OW 6345   2.201   3.221   2.739  0.1933  0.2700  0.3798
    1SOL    HW2 6346   2.207   3.208   2.834  0.6233  2.0010  0.6077
    1SOL    HW3 6347   2.143   3.151   2.709 -1.9691  1.1818  2.2841
    1SOL    MW4 6348   2.194   3.210   2.747 -0.0353  0.6189  0.6607
    1SOL     OW 6349   2.237   3.492   2.614  0.2189 -0.1706 -0.0774
    1SOL    HW2 6350   2.319   3.525   2.652 -0.4989  0.7848  0.6784
    1SOL    HW3 6351   2.235   3.400   2.639 -0.2899  0.4692  2.3426
    1SOL    MW4 6352   2.248   3.484   2.622  0.0570  0.0398  0.3417
    1SOL     OW 6353   2.473   3.648   2.712 -0.4707  0.2755 -0.0201
    1SOL    HW2 6354   2.482   3.643   2.807 -0.1338  1.2628  0.0129
    1SOL    HW3 6355   2.474   3.742   2.693 -1.9291  0.1385 -0.8665
    1SOL    MW4 6356   2.474   3.660   2.722 -0.6185  0.3877 -0.1273
    1SOL     OW 6357   2.486   3.924   2.611 -0.3266 -0.3238 -0.3875
    1SOL    HW2 6358   2.566   3.955   2.653  0.0766  0.2100 -1.5237
    1SOL    HW3 6359   2.417   3.978   2.649 -0.1159 -0.6037  0.4012
    1SOL    MW4 6360   2.487   3.936   2.621 -0.2458 -0.2904 -0.4332
    1SOL     OW 6361   2.253   4.018   2.753 -0.4099 -0.3776 -0.2315
    1SOL    HW2 6362   2.215   4.017   2.841 -1.2612 -0.2574 -0.5961
    1SOL    HW3 6363   2.191   3.971   2.699 -0.0800 -0.1047 -0.8535
    1SOL    MW4 6364   2.240   4.012   2.758 -0.4787 -0.3257 -0.3617
    1SOL     OW 6365   2.225   4.280   2.666 -0.2450 -0.2670  0.2628
    1SOL    HW2 6366   2.215   4.188   2.692 -0.8027 -0.2155  0.2507
    1SOL    HW3 6367   2.147   4.323   2.702  0.1977  0.2711  0.5796
    1SOL    MW4 6368   2.213   4.274   2.674 -0.2601 -0.1893  0.3033
    1SOL     OW 6369   2.457   4.353   2.755 -0.3718 -0.1511 -0.1383
    1SOL    HW2 6370   2.370   4.326   2.727 -0.9289  1.4588 -0.0253
    1SOL    HW3 6371   2.463   4.446   2.731  0.7092  0.1709  1.2484
    1SOL    MW4 6372   2.446   4.362   2.748 -0.3026  0.1040  0.0594
    1SOL     OW 6373   2.927   0.025   2.657  0.0540  0.0681 -0.0094
    1SOL    HW2 6374   3.012   0.055   2.689  0.0349 -2.0301  2.1670
    1SOL    HW3 6375   2.942   0.005   2.565  1.5278  1.1255 -0.0172
    1SOL    MW4 6376   2.940   0.026   2.649  0.2463 -0.0692  0.2768
    1SOL     OW 6377   2.677   0.099   2.726  0.1419  0.5778  0.0904
    1SOL    HW2 6378   2.680   0.102   2.822  0.9624  1.3409  0.0424
    1SOL    HW3 6379   2.767   0.080   2.700 -0.1088  0.2245 -0.5277
    1SOL    MW4 6380   2.689   0.097   2.736  0.2170  0.6319  0.0024
    1SOL     OW 6381   2.689   0.358   2.620  0.0257  0.3299 -0.2892
    1SOL    HW2 6382   2.688   0.267   2.651  0.8332 -0.0138 -1.2433
    1SOL    HW3 6383   2.606   0.394   2.650  0.5749 -0.1159  1.8904
    1SOL    MW4 6384   2.678   0.350   2.628  0.2048  0.2258 -0.1273
    1SOL     OW 6385   2.898   0.501   2.734  0.2673  0.2068 -0.5509
    1SOL    HW2 6386   2.901   0.584   2.688 -0.5884  0.2268 -0.5802
    1SOL    HW3 6387   2.829   0.451   2.690  0.7402 -0.5006 -0.5093
    1SOL    MW4 6388   2.890   0.505   2.722  0.2170  0.1162 -0.5493
    1SOL     OW 6389   2.878   0.737   2.594  0.3559  0.6048  0.3833
    1SOL    HW2 6390   2.955   0.780   2.631 -1.3074  1.5974  2.7985
    1SOL    HW3 6391   2.804   0.789   2.625 -1.3984 -1.3278 -0.4633
    1SOL    MW4 6392   2.878   0.749   2.603 -0.0951  0.4807  0.5903
    1SOL     OW 6393   2.654   0.867   2.716  0.3249 -0.1329 -0.1798
    1SOL    HW2 6394   2.667   0.867   2.811 -1.3337  3.5838  0.1318
    1SOL    HW3 6395   2.585   0.802   2.702  0.8362 -0.9808  1.1200
    1SOL    MW4 6396   2.646   0.859   2.727  0.1733  0.2456  0.0327
    1SOL     OW 6397   2.659   1.122   2.634  0.4531  0.0355 -0.1667
    1SOL    HW2 6398   2.739   1.159   2.672  2.2097 -1.6131 -2.1649
    1SOL    HW3 6399   2.656   1.032   2.667  1.1268 -0.8930 -2.5380
    1SOL    MW4 6400   2.669   1.115   2.643  0.7739 -0.3045 -0.7429
    1SOL     OW 6401   2.892   1.237   2.743  0.1687  0.2451  0.2187
    1SOL    HW2 6402   2.893   1.257   2.837  0.9373 -0.0439  0.2821
    1SOL    HW3 6403   2.973   1.188   2.729  0.4306  0.9280 -0.7323
    1SOL    MW4 6404   2.903   1.233   2.753  0.3047  0.2970  0.1013
    1SOL     OW 6405   2.921   1.489   2.607 -0.0854  0.6698  0.1518
    1SOL    HW2 6406   2.853   1.545   2.644 -0.0497  0.8173 -0.0070
    1SOL    HW3 6407   2.908   1.404   2.649 -1.1453  0.3521 -0.7860
    1SOL    MW4 6408   2.911   1.485   2.617 -0.2203  0.6473  0.0072
    1SOL     OW 6409   2.712   1.663   2.717 -0.3268  0.4780  0.3038
    1SOL    HW2 6410   2.702   1.693   2.808 -0.4033 -0.9735  0.7975
    1SOL    HW3 6411   2.710   1.743   2.665 -2.3063  1.1786  1.4011
    1SOL    MW4 6412   2.711   1.677   2.722 -0.5980  0.3790  0.5140
    1SOL     OW 6413   2.717   1.923   2.607 -0.0293 -0.6312 -0.1584
    1SOL    HW2 6414   2.787   1.967   2.656 -0.2496  0.8196 -1.1149
    1SOL    HW3 6415   2.638   1.972   2.628 -0.6806 -1.9191  0.4649
    1SOL    MW4 6416   2.716   1.935   2.616 -0.1445 -0.6096 -0.2022
    1SOL     OW 6417   2.932   2.059   2.730 -0.6840 -0.1461  0.0493
    1SOL    HW2 6418   3.004   2.013   2.689 -0.9445 -0.5918  0.0842
    1SOL    HW3 6419   2.948   2.152   2.712  0.3193 -0.1784  0.7367
    1SOL    MW4 6420   2.943   2.065   2.722 -0.5860 -0.2091  0.1447
    1SOL     OW 6421   2.903   2.321   2.649 -0.3281  0.0073  0.0741
    1SOL    HW2 6422   2.965   2.385   2.683 -0.4433 -0.3265  0.9345
    1SOL    HW3 6423   2.818   2.362   2.661 -0.2821  0.4026 -0.9670
    1SOL    MW4 6424   2.900   2.335   2.655 -0.3374  0.0155  0.0503
    1SOL     OW 6425   2.659   2.436   2.712  0.1513 -0.7348  0.4823
    1SOL    HW2 6426   2.678   2.449   2.805 -0.2836  0.6163  0.3977
    1SOL    HW3 6427   2.669   2.523   2.673 -1.4937 -0.9078 -0.3895
    1SOL    MW4 6428   2.663   2.449   2.719 -0.1230 -0.5794  0.3562
    1SOL     OW 6429   2.655   2.696   2.600  0.2702  1.0375 -0.0711
    1SOL    HW2 6430   2.733   2.740   2.636  0.3074  1.7286 -0.9896
    1SOL    HW3 6431   2.665   2.703   2.505 -0.9230  1.1417 -0.1960
    1SOL    MW4 6432   2.667   2.703   2.592  0.1175  1.1427 -0.2086
    1SOL     OW 6433   2.867   2.834   2.742 -0.1828 -0.2895 -0.2809
    1SOL    HW2 6434   2.941   2.788   2.702  1.8248  1.7473  0.9359
    1SOL    HW3 6435   2.881   2.823   2.836 -0.3022  1.8016 -0.0008
    1SOL    MW4 6436   2.879   2.827   2.749  0.0663  0.2551 -0.0832
    1SOL     OW 6437   2.908   3.091   2.644 -0.5031 -0.1762  0.0964
    1SOL    HW2 6438   2.824   3.134   2.663  0.2550  1.1646  0.4593
    1SOL    HW3 6439   2.897   3.002   2.677 -1.0926  0.5825  2.0444
    1SOL    MW4 6440   2.895   3.085   2.651 -0.4809  0.1011  0.4013
    1SOL     OW 6441   2.692   3.241   2.751  0.1359 -0.7521 -0.3007
    1SOL    HW2 6442   2.675   3.312   2.689  1.1040 -0.6511 -0.4582
    1SOL    HW3 6443   2.611   3.190   2.752 -0.4956  0.2273 -0.3550
    1SOL    MW4 6444   2.679   3.244   2.743  0.1802 -0.6094 -0.3288
    1SOL     OW 6445   2.647   3.455   2.600 -0.1670 -0.0194 -0.1520
    1SOL    HW2 6446   2.600   3.533   2.628 -0.0926 -0.1218  0.2635
    1SOL    HW3 6447   2.663   3.468   2.507 -0.4737  0.2964 -0.1590
    1SOL    MW4 6448   2.643   3.467   2.592 -0.1976  0.0088 -0.0982
    1SOL     OW 6449   2.869   3.578   2.753 -0.2606 -0.0833 -0.1172
    1SOL    HW2 6450   2.862   3.598   2.846 -0.0477 -0.1382 -0.0898
    1SOL    HW3 6451   2.790   3.529   2.732 -0.7671  0.7384 -0.1683
    1SOL    MW4 6452   2.858   3.574   2.762 -0.2992  0.0179 -0.1204
    1SOL     OW 6453   2.896   3.851   2.600  0.1085 -0.4084  0.1130
    1SOL    HW2 6454   2.969   3.902   2.635  0.2599 -0.4771 -0.1059
    1SOL    HW3 6455   2.898   3.769   2.651  0.3034 -0.4908 -0.0250
    1SOL    MW4 6456   2.906   3.847   2.611  0.1538 -0.4282  0.0656
    1SOL     OW 6457   2.727   4.019   2.752  0.0079  0.0651  0.0616
    1SOL    HW2 6458   2.717   4.108   2.721  0.9536  0.3426  0.5239
    1SOL    HW3 6459   2.779   3.975   2.684 -0.2384 -0.0610 -0.0449
    1SOL    MW4 6460   2.733   4.025   2.739  0.0999  0.0854  0.1087
    1SOL     OW 6461   2.704   4.277   2.642 -0.1754  0.2129  0.4608
    1SOL    HW2 6462   2.760   4.343   2.682  0.0153  0.5708 -0.3802
    1SOL    HW3 6463   2.616   4.297   2.674  0.0590  0.1649  1.1246
    1SOL    MW4 6464   2.699   4.288   2.651 -0.1192  0.2537  0.4375
    1SOL     OW 6465   2.924   4.418   2.737  0.0809 -0.2957  0.3363
    1SOL    HW2 6466   2.909   4.393   2.828 -1.7066 -0.1950  0.0805
    1SOL    HW3 6467   2.928   4.513   2.738 -0.9310 -0.2475  0.1733
    1SOL    MW4 6468   2.923   4.427   2.749 -0.2885 -0.2766  0.2813
    1SOL     OW 6469   3.407   4.646   2.668  0.2208 -0.2658 -0.1673
    1SOL    HW2 6470   3.378   4.556   2.679 -1.0758 -0.2495 -3.2052
    1SOL    HW3 6471   3.330   4.699   2.688 -0.3461 -0.0295 -2.8313
    1SOL    MW4 6472   3.393   4.642   2.672 -0.0250 -0.2327 -0.9196
    1SOL     OW 6473   3.172   0.104   2.753 -0.2816  0.2381  0.0685
    1SOL    HW2 6474   3.143   0.112   2.843 -1.0785  0.1102 -0.1738
    1SOL    HW3 6475   3.171   0.194   2.719 -1.6307  0.0984 -0.3106
    1SOL    MW4 6476   3.168   0.117   2.760 -0.5646  0.2028 -0.0134
    1SOL     OW 6477   3.130   0.360   2.657  0.1371  0.5041 -0.5056
    1SOL    HW2 6478   3.049   0.396   2.694  0.1060  1.1669 -1.1923
    1SOL    HW3 6479   3.119   0.372   2.562  0.9735  0.4547 -0.6060
    1SOL    MW4 6480   3.118   0.367   2.649  0.2432  0.5850 -0.6094
    1SOL     OW 6481   3.346   0.471   2.747 -0.2072 -0.3895  0.0719
    1SOL    HW2 6482   3.353   0.561   2.713  0.5861 -0.2605  0.5780
    1SOL    HW3 6483   3.259   0.442   2.719 -0.7452  0.7817  0.4914
    1SOL    MW4 6484   3.336   0.479   2.738 -0.1736 -0.2180  0.1941
    1SOL     OW 6485   3.341   0.734   2.637 -0.3745 -0.0072 -0.5483
    1SOL    HW2 6486   3.401   0.794   2.681 -0.2113 -0.4613 -0.1529
    1SOL    HW3 6487   3.351   0.755   2.544  1.9114 -1.4369 -0.6722
    1SOL    MW4 6488   3.351   0.745   2.630 -0.0515 -0.2556 -0.5124
    1SOL     OW 6489   3.111   0.845   2.706 -0.0578 -0.0908  0.6471
    1SOL    HW2 6490   3.130   0.851   2.799 -0.4760 -1.8176  0.8729
    1SOL    HW3 6491   3.186   0.799   2.669 -0.3780 -0.3505  0.3119
    1SOL    MW4 6492   3.123   0.839   2.713 -0.1552 -0.3530  0.6325
    1SOL     OW 6493   3.148   1.107   2.666  0.1972 -0.0442  0.3443
    1SOL    HW2 6494   3.134   1.013   2.670  1.2427 -0.2770 -1.2161
    1SOL    HW3 6495   3.147   1.129   2.573  0.9773  1.3248  0.6345
    1SOL    MW4 6496   3.146   1.098   2.655  0.4382  0.1056  0.1769
    1SOL     OW 6497   3.348   1.299   2.698  0.1884 -0.0383 -0.1737
    1SOL    HW2 6498   3.371   1.295   2.791 -0.2265 -0.6246 -0.0932
    1SOL    HW3 6499   3.281   1.232   2.687 -0.8125  1.0238 -0.6071
    1SOL    MW4 6500   3.342   1.289   2.709  0.0014  0.0244 -0.2203
    1SOL     OW 6501   3.357   1.555   2.605  0.3015  0.7478  0.6874
    1SOL    HW2 6502   3.273   1.597   2.626 -0.0852  0.1081  0.4151
    1SOL    HW3 6503   3.347   1.465   2.634  0.0003  0.0068 -1.6315
    1SOL    MW4 6504   3.345   1.549   2.612  0.2108  0.5656  0.3455
    1SOL     OW 6505   3.124   1.651   2.717  0.3881 -0.2879  0.2381
    1SOL    HW2 6506   3.047   1.597   2.698 -1.5561  2.2570  0.6207
    1SOL    HW3 6507   3.132   1.648   2.812 -0.3148  0.8283  0.3454
    1SOL    MW4 6508   3.115   1.643   2.727  0.0389  0.1953  0.3026
    1SOL     OW 6509   3.159   1.920   2.628 -0.1031  0.6190  0.0763
    1SOL    HW2 6510   3.238   1.944   2.677 -0.6726  1.8167  0.4384
    1SOL    HW3 6511   3.142   1.830   2.653  0.3471  0.8086  1.1058
    1SOL    MW4 6512   3.167   1.912   2.638 -0.1190  0.8019  0.2596
    1SOL     OW 6513   3.393   2.004   2.760  0.0939 -0.3403 -0.0549
    1SOL    HW2 6514   3.380   2.020   2.854  0.2906 -0.1038 -0.0690
    1SOL    HW3 6515   3.393   2.091   2.720  0.8443 -0.3861 -0.1669
    1SOL    MW4 6516   3.391   2.017   2.767  0.2189 -0.3150 -0.0713
    1SOL     OW 6517   3.376   2.278   2.675 -0.4228 -0.3101  0.0077
    1SOL    HW2 6518   3.440   2.347   2.688 -1.0712  0.2399  0.3507
    1SOL    HW3 6519   3.365   2.272   2.580  0.1883 -0.4611 -0.0536
    1SOL    MW4 6520   3.383   2.286   2.664 -0.4277 -0.2577  0.0446
    1SOL     OW 6521   3.146   2.426   2.738 -0.2997  0.0578  0.8213
    1SOL    HW2 6522   3.223   2.374   2.717 -0.2306  0.3170  0.4447
    1SOL    HW3 6523   3.132   2.410   2.832 -1.9040 -2.8230  0.1490
    1SOL    MW4 6524   3.154   2.417   2.748 -0.5023 -0.2880  0.6828
    1SOL     OW 6525   3.091   2.683   2.663  0.7167  0.2006 -0.3314
    1SOL    HW2 6526   3.172   2.734   2.674  0.5051  0.7981 -1.4564
    1SOL    HW3 6527   3.111   2.597   2.700  1.2121  0.9793  1.2231
    1SOL    MW4 6528   3.104   2.678   2.669  0.7544  0.3822 -0.2747
    1SOL     OW 6529   3.334   2.827   2.734  0.3043 -0.3080 -0.4609
    1SOL    HW2 6530   3.362   2.825   2.826  0.8101 -0.0035 -0.6071
    1SOL    HW3 6531   3.409   2.793   2.686 -0.2550 -1.2125 -0.6898
    1SOL    MW4 6532   3.348   2.822   2.740  0.2975 -0.3874 -0.5105
    1SOL     OW 6533   3.383   3.115   2.635 -0.3600 -0.2425  0.6924
    1SOL    HW2 6534   3.380   3.027   2.672  0.5541 -0.1620  0.9823
    1SOL    HW3 6535   3.391   3.102   2.541 -0.5615 -0.4707  0.7087
    1SOL    MW4 6536   3.384   3.102   2.627 -0.2658 -0.2623  0.7331
    1SOL     OW 6537   3.144   3.227   2.704  0.1848 -0.2199 -0.4184
    1SOL    HW2 6538   3.225   3.179   2.689 -0.2613 -0.9339 -0.5681
    1SOL    HW3 6539   3.074   3.166   2.680 -0.3921  0.5092 -0.6530
    1SOL    MW4 6540   3.145   3.213   2.699  0.0501 -0.2179 -0.4692
    1SOL     OW 6541   3.117   3.500   2.649 -0.4500  0.4871  0.0744
    1SOL    HW2 6542   3.120   3.407   2.673  0.1826  0.1072 -1.3832
    1SOL    HW3 6543   3.028   3.528   2.670  0.2879  0.4169  3.5607
    1SOL    MW4 6544   3.106   3.491   2.655 -0.2689  0.4280  0.3419
    1SOL     OW 6545   3.355   3.624   2.698  0.4587  0.5275 -0.1329
    1SOL    HW2 6546   3.367   3.622   2.793  1.7369  1.3050 -0.2775
    1SOL    HW3 6547   3.266   3.590   2.685  0.1601  0.6969  1.3568
    1SOL    MW4 6548   3.345   3.619   2.709  0.5882  0.6526  0.0443
    1SOL     OW 6549   3.357   3.888   2.632 -0.1442 -0.1066 -0.9570
    1SOL    HW2 6550   3.359   3.796   2.657 -0.0559 -0.1469 -1.1108
    1SOL    HW3 6551   3.372   3.888   2.537 -1.0365  0.0005 -1.1093
    1SOL    MW4 6552   3.359   3.876   2.622 -0.2503 -0.0980 -0.9975
    1SOL     OW 6553   3.112   3.983   2.715  0.0389  0.5534  0.1944
    1SOL    HW2 6554   3.112   4.078   2.707  1.2272  0.5624  0.2823
    1SOL    HW3 6555   3.192   3.954   2.673 -1.1545 -0.5645 -1.3892
    1SOL    MW4 6556   3.122   3.991   2.709  0.0379  0.4072 -0.0026
    1SOL     OW 6557   3.121   4.246   2.646 -0.5221 -0.1073 -0.5848
    1SOL    HW2 6558   3.042   4.298   2.660 -0.8425 -0.0384 -2.5346
    1SOL    HW3 6559   3.129   4.238   2.551  1.3492 -0.8380 -0.4035
    1SOL    MW4 6560   3.112   4.252   2.635 -0.3173 -0.1950 -0.8183
    1SOL     OW 6561   3.342   4.386   2.717 -0.2837  0.1994  0.4363
    1SOL    HW2 6562   3.351   4.386   2.812 -1.5633 -1.7179  0.5793
    1SOL    HW3 6563   3.264   4.333   2.700  0.0373  0.3574 -1.6912
    1SOL    MW4 6564   3.333   4.379   2.727 -0.4101 -0.0329  0.1743
    1SOL     OW 6565   3.790   4.645   2.661 -0.0120  0.4893  0.8909
    1SOL    HW2 6566   3.794   4.553   2.690 -1.2460 -0.1167 -0.7753
    1SOL    HW3 6567   3.736   4.688   2.726  0.3474 -0.0161  1.5403
    1SOL    MW4 6568   3.784   4.638   2.673 -0.1273  0.3428  0.7565
    1SOL     OW 6569   3.589   0.120   2.813  0.4655  0.1071  0.2333
    1SOL    HW2 6570   3.594   0.194   2.753  0.4101  0.4339  0.6316
    1SOL    HW3 6571   3.515   0.068   2.781 -0.5667  1.1049  0.9407
    1SOL    MW4 6572   3.580   0.123   2.801  0.3216  0.2819  0.3791
    1SOL     OW 6573   3.571   0.335   2.637 -0.3581  0.0571  0.1250
    1SOL    HW2 6574   3.647   0.382   2.672 -0.1718  0.3421 -0.6503
    1SOL    HW3 6575   3.496   0.374   2.681 -0.2828  1.7288 -1.1664
    1SOL    MW4 6576   3.572   0.347   2.647 -0.3235  0.3152 -0.1476
    1SOL     OW 6577   3.781   0.470   2.743  0.1275  0.0888 -0.1436
    1SOL    HW2 6578   3.793   0.467   2.838  0.7079  2.0839 -0.1194
    1SOL    HW3 6579   3.859   0.426   2.708  0.4679  0.3477  0.2826
    1SOL    MW4 6580   3.793   0.464   2.751  0.2489  0.3861 -0.0844
    1SOL     OW 6581   3.806   0.755   2.672  0.2070  0.1034  0.3722
    1SOL    HW2 6582   3.726   0.801   2.697 -0.8406 -1.7612  0.5298
    1SOL    HW3 6583   3.805   0.675   2.724  1.6916 -0.4012 -0.3345
    1SOL    MW4 6584   3.795   0.750   2.682  0.2646 -0.2092  0.2999
    1SOL     OW 6585   3.576   0.883   2.748 -0.5760  0.4266  0.4515
    1SOL    HW2 6586   3.602   0.893   2.840 -0.5216  0.8352  0.3921
    1SOL    HW3 6587   3.583   0.971   2.711 -0.6200  0.2677  0.0605
    1SOL    MW4 6588   3.580   0.896   2.755 -0.5748  0.4596  0.3920
    1SOL     OW 6589   3.567   1.136   2.645 -0.1997 -0.7839  0.2157
    1SOL    HW2 6590   3.644   1.186   2.672 -0.4431 -0.0277 -0.4551
    1SOL    HW3 6591   3.493   1.188   2.677 -0.4439 -1.0402  0.0629
    1SOL    MW4 6592   3.568   1.149   2.653 -0.2639 -0.7180  0.1070
    1SOL     OW 6593   3.782   1.260   2.751 -0.2367 -0.0963  0.1194
    1SOL    HW2 6594   3.860   1.227   2.707 -0.5613 -0.3940 -0.2357
    1SOL    HW3 6595   3.770   1.348   2.714  0.0636  0.0448  0.3502
    1SOL    MW4 6596   3.791   1.268   2.740 -0.2396 -0.1169  0.1032
    1SOL     OW 6597   3.784   1.535   2.650  0.2886 -0.0596 -0.0757
    1SOL    HW2 6598   3.868   1.575   2.670  0.3388 -0.1011 -0.1995
    1SOL    HW3 6599   3.723   1.572   2.714  0.6752 -1.0452  0.8765
    1SOL    MW4 6600   3.787   1.545   2.661  0.3459 -0.1951  0.0339
    1SOL     OW 6601   3.542   1.642   2.785 -0.2450 -0.0679 -0.3246
    1SOL    HW2 6602   3.544   1.732   2.751  0.1529 -0.3960 -1.1647
    1SOL    HW3 6603   3.479   1.597   2.730  0.3867 -0.5958 -0.6212
    1SOL    MW4 6604   3.534   1.648   2.773 -0.1094 -0.1808 -0.4745
    1SOL     OW 6605   3.597   1.874   2.639 -0.3242 -0.5448  0.0021
    1SOL    HW2 6606   3.530   1.925   2.684  0.6763  0.8914 -0.1046
    1SOL    HW3 6607   3.583   1.893   2.546  1.0468  0.8181  0.0543
    1SOL    MW4 6608   3.586   1.883   2.633 -0.0114 -0.1755 -0.0052
    1SOL     OW 6609   3.831   2.004   2.752 -0.1763 -0.3447  0.0962
    1SOL    HW2 6610   3.905   1.967   2.703 -0.2514 -0.3162 -0.0389
    1SOL    HW3 6611   3.755   1.954   2.723 -0.1492 -0.6367  0.5295
    1SOL    MW4 6612   3.831   1.993   2.741 -0.1822 -0.3796  0.1359
    1SOL     OW 6613   3.799   2.292   2.682 -0.4511 -0.3518 -0.4319
    1SOL    HW2 6614   3.820   2.201   2.700 -1.5888 -0.4807  0.2547
    1SOL    HW3 6615   3.812   2.302   2.588 -0.5553 -1.2782 -0.5464
    1SOL    MW4 6616   3.804   2.282   2.672 -0.6149 -0.4909 -0.3562
    1SOL     OW 6617   3.569   2.461   2.741  0.1450  0.0030  0.1805
    1SOL    HW2 6618   3.564   2.461   2.837 -1.4889  0.0376  0.1119
    1SOL    HW3 6619   3.644   2.405   2.721 -0.2240 -0.9797  1.4589
    1SOL    MW4 6620   3.578   2.453   2.751 -0.1192 -0.1221  0.3400
    1SOL     OW 6621   3.558   2.708   2.633  0.0729  0.1244  0.5652
    1SOL    HW2 6622   3.549   2.618   2.666  1.4520 -0.0010  0.6287
    1SOL    HW3 6623   3.576   2.697   2.540  0.9278  0.3083  0.7077
    1SOL    MW4 6624   3.559   2.694   2.625  0.3676  0.1321  0.5922
    1SOL     OW 6625   3.783   2.858   2.707 -0.3455 -0.3370  0.1499
    1SOL    HW2 6626   3.856   2.812   2.666 -1.0495 -0.4473 -1.0001
    1SOL    HW3 6627   3.707   2.803   2.690 -0.7128 -0.2281  1.3564
    1SOL    MW4 6628   3.783   2.845   2.700 -0.4869 -0.3369  0.1574
    1SOL     OW 6629   3.798   3.141   2.652 -0.3082 -0.0765 -0.0035
    1SOL    HW2 6630   3.710   3.165   2.681 -1.5224 -2.2599 -1.6719
    1SOL    HW3 6631   3.806   3.049   2.676  1.7391  0.2500  0.6071
    1SOL    MW4 6632   3.787   3.132   2.659 -0.1984 -0.3216 -0.1433
    1SOL     OW 6633   3.568   3.231   2.780 -0.1797 -0.1443 -0.1803
    1SOL    HW2 6634   3.588   3.317   2.744  2.3596 -0.7978 -0.4487
    1SOL    HW3 6635   3.497   3.197   2.726 -0.1300  1.1465 -1.0504
    1SOL    MW4 6636   3.561   3.238   2.768  0.1621 -0.0603 -0.3304
    1SOL     OW 6637   3.579   3.465   2.639  0.5458 -0.4659  0.1441
    1SOL    HW2 6638   3.650   3.519   2.673  1.1088 -0.8709 -0.3782
    1SOL    HW3 6639   3.499   3.515   2.658  0.9852  0.0904  0.5316
    1SOL    MW4 6640   3.577   3.479   2.646  0.6778 -0.4458  0.1264
    1SOL     OW 6641   3.789   3.619   2.751  0.1014 -0.3359  0.2097
    1SOL    HW2 6642   3.872   3.581   2.723  0.5799  0.6979  0.2043
    1SOL    HW3 6643   3.788   3.707   2.712 -1.1074 -0.4350  0.0024
    1SOL    MW4 6644   3.800   3.626   2.742  0.0048 -0.2127  0.1817
    1SOL     OW 6645   3.781   3.869   2.621 -0.2447  0.1667 -0.1692
    1SOL    HW2 6646   3.871   3.902   2.631 -0.7606  1.6995 -0.4793
    1SOL    HW3 6647   3.727   3.933   2.667 -1.1224 -1.0859  0.5438
    1SOL    MW4 6648   3.786   3.882   2.628 -0.4287  0.2036 -0.1163
    1SOL     OW 6649   3.599   4.026   2.757  0.0694 -0.0562  0.2970
    1SOL    HW2 6650   3.597   4.099   2.696  1.3937 -0.8410 -0.6984
    1SOL    HW3 6651   3.526   3.970   2.731 -0.5760  0.5959  0.6850
    1SOL    MW4 6652   3.589   4.028   2.746  0.1590 -0.0739  0.2170
    1SOL     OW 6653   3.599   4.282   2.615  0.0261 -0.2569 -0.2596
    1SOL    HW2 6654   3.512   4.314   2.641 -0.0353 -0.8069  0.2279
    1SOL    HW3 6655   3.591   4.265   2.521 -0.8388 -1.6637  0.0439
    1SOL    MW4 6656   3.586   4.284   2.606 -0.0961 -0.5150 -0.1552
    1SOL     OW 6657   3.833   4.369   2.744  0.4074 -0.4070  0.1055
    1SOL    HW2 6658   3.894   4.327   2.683 -0.1714 -0.0556 -0.7183
    1SOL    HW3 6659   3.746   4.340   2.716  0.0812  0.4248  0.2442
    1SOL    MW4 6660   3.830   4.359   2.733  0.2882 -0.2513  0.0150
    1SOL     OW 6661   4.246   4.585   2.597  0.0707 -0.5122 -0.3460
    1SOL    HW2 6662   4.174   4.639   2.627 -0.1408 -0.7503 -0.4265
    1SOL    HW3 6663   4.325   4.634   2.622 -0.1099 -0.5430  0.2754
    1SOL    MW4 6664   4.247   4.599   2.604  0.0186 -0.5474 -0.2747
    1SOL     OW 6665   4.045   0.086   2.701  0.6024  0.3127 -0.1172
    1SOL    HW2 6666   4.047   0.097   2.796  0.6615  1.6627 -0.2576
    1SOL    HW3 6667   3.962   0.041   2.683  1.3421 -1.4160  0.6955
    1SOL    MW4 6668   4.034   0.082   2.711  0.7076  0.2627 -0.0286
    1SOL     OW 6669   3.996   0.355   2.621 -0.5254 -0.0723 -0.9655
    1SOL    HW2 6670   4.005   0.264   2.647 -2.1017  0.2825  0.9313
    1SOL    HW3 6671   3.988   0.352   2.525 -1.5351 -2.0065 -0.8416
    1SOL    MW4 6672   3.996   0.343   2.612 -0.8667 -0.2807 -0.6986
    1SOL     OW 6673   4.234   0.483   2.723  0.3195  0.0426  0.4146
    1SOL    HW2 6674   4.164   0.431   2.683  0.7482 -0.8873  0.8543
    1SOL    HW3 6675   4.315   0.447   2.684  0.5843  0.7497  0.3100
    1SOL    MW4 6676   4.236   0.471   2.713  0.4106  0.0132  0.4590
    1SOL     OW 6677   4.243   0.744   2.650 -0.0506  0.0650  0.3492
    1SOL    HW2 6678   4.254   0.657   2.688  1.6677  0.3008  0.4442
    1SOL    HW3 6679   4.251   0.730   2.556  0.2764  0.1236  0.3676
    1SOL    MW4 6680   4.245   0.731   2.643  0.2193  0.1037  0.3638
    1SOL     OW 6681   4.028   0.910   2.749  0.0515 -0.2202 -0.3589
    1SOL    HW2 6682   4.101   0.866   2.705  0.0475  0.0733 -0.6698
    1SOL    HW3 6683   3.953   0.853   2.735  0.2687 -0.6230  0.1378
    1SOL    MW4 6684   4.028   0.897   2.741  0.0801 -0.2347 -0.3343
    1SOL     OW 6685   4.019   1.162   2.645 -0.1635  0.5761 -0.5806
    1SOL    HW2 6686   4.106   1.198   2.665 -0.1857 -0.0568  0.7487
    1SOL    HW3 6687   4.024   1.071   2.675 -0.9945  0.2718 -1.3511
    1SOL    MW4 6688   4.031   1.155   2.652 -0.2766  0.4524 -0.5069
    1SOL     OW 6689   4.277   1.291   2.693  0.4550 -0.0215  0.7948
    1SOL    HW2 6690   4.287   1.384   2.672  0.4753 -0.0297  0.7693
    1SOL    HW3 6691   4.362   1.252   2.675  1.2991  0.4658  3.4985
    1SOL    MW4 6692   4.289   1.298   2.688  0.5689  0.0416  1.1480
    1SOL     OW 6693   4.249   1.567   2.640 -0.6035  0.4853  0.1950
    1SOL    HW2 6694   4.327   1.607   2.677 -0.0531 -0.2765 -0.1436
    1SOL    HW3 6695   4.260   1.573   2.546 -0.9292  0.3176  0.1442
    1SOL    MW4 6696   4.260   1.573   2.633 -0.5746  0.3628  0.1433
    1SOL     OW 6697   4.013   1.658   2.760 -0.0399  0.3767 -0.2361
    1SOL    HW2 6698   4.022   1.670   2.854 -2.5457  0.8529 -0.0291
    1SOL    HW3 6699   4.091   1.608   2.735  0.1622 -0.6259  2.2276
    1SOL    MW4 6700   4.025   1.653   2.769 -0.3438  0.3073  0.1163
    1SOL     OW 6701   4.036   1.895   2.609 -0.1071 -0.1846  0.0873
    1SOL    HW2 6702   4.117   1.941   2.632 -0.5238  0.2563  0.6953
    1SOL    HW3 6703   4.033   1.821   2.670  0.5017 -0.9587 -0.8103
    1SOL    MW4 6704   4.046   1.892   2.620 -0.0820 -0.2285  0.0494
    1SOL     OW 6705   4.251   2.015   2.782 -0.0396 -0.4525  0.2073
    1SOL    HW2 6706   4.249   2.101   2.739  0.0456 -1.5794 -2.1742
    1SOL    HW3 6707   4.331   1.974   2.748 -0.2104 -1.5713  1.1452
    1SOL    MW4 6708   4.262   2.021   2.772 -0.0505 -0.7491  0.0167
    1SOL     OW 6709   4.251   2.265   2.682 -0.3345 -0.1751  0.2185
    1SOL    HW2 6710   4.184   2.317   2.727 -0.8932 -0.3572 -0.3953
    1SOL    HW3 6711   4.244   2.292   2.591  1.7922  1.2778  0.4484
    1SOL    MW4 6712   4.241   2.276   2.676 -0.1278 -0.0074  0.1678
    1SOL     OW 6713   4.031   2.441   2.752 -0.7413  0.0603  0.0388
    1SOL    HW2 6714   4.028   2.429   2.847 -0.2099 -0.3206  0.0105
    1SOL    HW3 6715   3.943   2.419   2.722 -1.3846  1.8115  0.6282
    1SOL    MW4 6716   4.019   2.436   2.760 -0.7558  0.2410  0.1125
    1SOL     OW 6717   4.028   2.715   2.667 -0.4266  0.1413 -0.2763
    1SOL    HW2 6718   4.105   2.760   2.702  0.5813 -0.2618 -1.9380
    1SOL    HW3 6719   4.044   2.622   2.684 -0.2049 -0.0051 -1.2620
    1SOL    MW4 6720   4.040   2.709   2.674 -0.2642  0.0689 -0.6256
    1SOL     OW 6721   4.256   2.855   2.759 -0.0324  0.5661  0.2432
    1SOL    HW2 6722   4.265   2.845   2.854  2.1444 -0.0220  0.0003
    1SOL    HW3 6723   4.263   2.950   2.745  2.5813  0.4361  0.4321
    1SOL    MW4 6724   4.258   2.866   2.770  0.5999  0.4714  0.2360
    1SOL     OW 6725   4.279   3.113   2.704 -0.0458 -0.0414 -0.0443
    1SOL    HW2 6726   4.200   3.164   2.719 -2.1692 -2.9066 -0.9104
    1SOL    HW3 6727   4.297   3.123   2.610  0.8839  0.9277  0.2267
    1SOL    MW4 6728   4.271   3.121   2.693 -0.2031 -0.2916 -0.1233
    1SOL     OW 6729   4.034   3.234   2.751 -0.0378  0.0961 -0.0754
    1SOL    HW2 6730   4.029   3.324   2.718 -0.0888 -0.1074 -0.6230
    1SOL    HW3 6731   3.967   3.187   2.703  0.1345 -0.2877  0.0601
    1SOL    MW4 6732   4.025   3.240   2.741 -0.0219  0.0186 -0.1299
    1SOL     OW 6733   4.040   3.486   2.635  0.3160  0.0678  0.2698
    1SOL    HW2 6734   4.128   3.517   2.658  0.4181  0.3219 -0.4238
    1SOL    HW3 6735   4.042   3.481   2.539 -0.7827  1.1294  0.1820
    1SOL    MW4 6736   4.052   3.489   2.625  0.1841  0.2413  0.1667
    1SOL     OW 6737   4.271   3.576   2.752  0.6690 -0.0351 -0.3150
    1SOL    HW2 6738   4.290   3.588   2.845  3.3297  0.3441 -0.8783
    1SOL    HW3 6739   4.333   3.510   2.723 -0.8595 -0.9381 -1.6282
    1SOL    MW4 6740   4.282   3.569   2.760  0.8183 -0.1042 -0.5627
    1SOL     OW 6741   4.250   3.823   2.609  0.1318  0.3189 -0.2441
    1SOL    HW2 6742   4.252   3.741   2.657  2.8289 -0.5549 -1.7226
    1SOL    HW3 6743   4.320   3.876   2.647  1.2024  0.2555 -2.0635
    1SOL    MW4 6744   4.260   3.819   2.620  0.6289  0.1955 -0.6793
    1SOL     OW 6745   4.025   3.971   2.676  0.1252 -0.2712  0.1205
    1SOL    HW2 6746   4.028   3.989   2.770 -0.0272 -1.4759  0.3691
    1SOL    HW3 6747   4.094   3.906   2.662 -0.4396 -0.7602 -0.4379
    1SOL    MW4 6748   4.034   3.965   2.687  0.0300 -0.4945  0.0794
    1SOL     OW 6749   4.035   4.242   2.578  0.0560 -0.5565 -0.3246
    1SOL    HW2 6750   4.037   4.151   2.609 -0.6592 -1.0320 -1.6416
    1SOL    HW3 6751   4.048   4.235   2.483  2.7542  0.9058 -0.1286
    1SOL    MW4 6752   4.037   4.229   2.570  0.3181 -0.4263 -0.4723
    1SOL     OW 6753   4.256   4.342   2.704 -0.0274  0.0890  0.1588
    1SOL    HW2 6754   4.174   4.313   2.663 -0.2600  0.8511  0.0893
    1SOL    HW3 6755   4.274   4.427   2.665  0.9146 -0.1633  0.0267
    1SOL    MW4 6756   4.247   4.349   2.693  0.0663  0.1564  0.1326
    1SOL     OW 6757   0.209   4.621   3.098 -0.4543 -0.6723  0.1440
    1SOL    HW2 6758   0.212   4.630   3.193  1.3199 -0.3436  0.0698
    1SOL    HW3 6759   0.129   4.668   3.072  0.2774  1.2370  1.2622
    1SOL    MW4 6760   0.199   4.628   3.107 -0.1237 -0.3767  0.2818
    1SOL     OW 6761   4.469   0.076   2.994 -0.2845  0.0964 -0.0056
    1SOL    HW2 6762   4.384   0.052   3.030  0.0135  1.5985  1.7634
    1SOL    HW3 6763   4.476   0.170   3.007  1.9731 -0.1218  0.6257
    1SOL    MW4 6764   4.459   0.085   3.000  0.0525  0.2658  0.3114
    1SOL     OW 6765   4.486   0.352   3.051 -0.3761  0.2644 -0.6123
    1SOL    HW2 6766   4.486   0.345   3.147 -0.3238  0.0265 -0.6301
    1SOL    HW3 6767   4.396   0.375   3.029 -0.7672 -1.2426 -0.6254
    1SOL    MW4 6768   4.474   0.354   3.061 -0.4210  0.0342 -0.6163
    1SOL     OW 6769   0.210   0.509   2.995 -0.4437  0.2148 -0.2240
    1SOL    HW2 6770   0.290   0.468   3.025 -0.1438  1.0227  0.0908
    1SOL    HW3 6771   0.140   0.453   3.029 -0.0491  0.0335  0.2932
    1SOL    MW4 6772   0.211   0.496   3.003 -0.3521  0.2975 -0.1140
    1SOL     OW 6773   0.223   0.773   3.075  0.5222  0.3627  0.6489
    1SOL    HW2 6774   0.219   0.756   3.170  0.5884  0.5266  0.6813
    1SOL    HW3 6775   0.213   0.687   3.035 -1.0986  0.4911  0.7738
    1SOL    MW4 6776   0.221   0.760   3.082  0.3171  0.4013  0.6695
    1SOL     OW 6777   4.456   0.895   3.014  0.1427  0.0275 -0.0251
    1SOL    HW2 6778   4.546   0.861   3.018  0.6709  1.4282  0.2482
    1SOL    HW3 6779   4.441   0.910   2.921  0.2942  0.0577 -0.0453
    1SOL    MW4 6780   4.466   0.893   3.002  0.2327  0.2163  0.0083
    1SOL     OW 6781   0.012   1.174   3.102 -0.1159  0.1394 -0.0485
    1SOL    HW2 6782  -0.046   1.236   3.058  1.0067 -0.7500 -2.8850
    1SOL    HW3 6783  -0.010   1.089   3.063  2.1396 -0.4074 -0.2081
    1SOL    MW4 6784   0.001   1.171   3.091  0.3300 -0.0499 -0.4437
    1SOL     OW 6785   0.245   1.321   3.015  0.6808 -0.2084  0.2080
    1SOL    HW2 6786   0.160   1.289   3.044 -0.8069  2.9948 -0.3283
    1SOL    HW3 6787   0.246   1.307   2.920  0.0157  1.2638 -0.0316
    1SOL    MW4 6788   0.234   1.315   3.006  0.3967  0.4083  0.1059
    1SOL     OW 6789   0.242   1.574   3.101 -0.0349  0.4767 -0.3088
    1SOL    HW2 6790   0.156   1.610   3.079 -0.6613 -0.5492  0.4560
    1SOL    HW3 6791   0.239   1.484   3.069  1.1296  0.7389 -1.1863
    1SOL    MW4 6792   0.230   1.567   3.093  0.0361  0.3759 -0.3238
    1SOL     OW 6793   4.472   1.633   3.034  0.0530 -0.0894 -0.0150
    1SOL    HW2 6794   4.390   1.602   3.071  1.2114 -1.0480  1.8142
    1SOL    HW3 6795   4.479   1.724   3.065 -0.0883 -0.1647  0.2414
    1SOL    MW4 6796   4.462   1.641   3.043  0.1869 -0.2258  0.2606
    1SOL     OW 6797   0.002   1.888   3.142  0.2680 -0.4203  0.0860
    1SOL    HW2 6798  -0.083   1.921   3.113  1.0847  1.9432  0.2617
    1SOL    HW3 6799   0.065   1.954   3.112  2.0356 -2.0466  0.0996
    1SOL    MW4 6800  -0.001   1.901   3.134  0.6090 -0.3229  0.1109
    1SOL     OW 6801   0.218   2.019   3.002  0.1460  0.0103 -0.5151
    1SOL    HW2 6802   0.223   2.103   3.047  0.5588  0.6109 -1.6798
    1SOL    HW3 6803   0.199   2.041   2.911 -0.7024 -1.2007 -0.6352
    1SOL    MW4 6804   0.216   2.033   2.996  0.0885 -0.0701 -0.6847
    1SOL     OW 6805   0.230   2.261   3.132 -0.2993  0.1504 -0.5727
    1SOL    HW2 6806   0.232   2.265   3.228 -2.1952 -1.1445 -0.4592
    1SOL    HW3 6807   0.306   2.314   3.105 -0.2242  1.2464  1.6046
    1SOL    MW4 6808   0.241   2.269   3.141 -0.5395  0.1240 -0.2706
    1SOL     OW 6809   0.000   2.377   3.019 -0.0293  0.4285  0.1516
    1SOL    HW2 6810   0.020   2.469   3.041  0.5115  0.6716 -1.3105
    1SOL    HW3 6811   0.076   2.329   3.050  1.3527  0.9375 -2.3004
    1SOL    MW4 6812   0.013   2.383   3.026  0.2244  0.5279 -0.3648
    1SOL     OW 6813   0.006   2.634   3.100 -0.1085  0.0905  0.4384
    1SOL    HW2 6814  -0.004   2.647   3.195 -0.5667 -0.9151  0.5355
    1SOL    HW3 6815   0.079   2.691   3.076  0.2935  0.0291  1.4725
    1SOL    MW4 6816   0.014   2.643   3.110 -0.1159 -0.0501  0.5877
    1SOL     OW 6817   0.213   2.820   3.037 -0.2965  0.1663 -0.4517
    1SOL    HW2 6818   0.291   2.779   3.075  0.3717  2.0922  0.3147
    1SOL    HW3 6819   0.224   2.810   2.942  0.2849 -0.6004 -0.3075
    1SOL    MW4 6820   0.225   2.813   3.029 -0.1316  0.3195 -0.3316
    1SOL     OW 6821   0.243   3.080   3.152 -0.0605 -0.3511 -0.0474
    1SOL    HW2 6822   0.159   3.122   3.134  0.1478  0.4071  0.7159
    1SOL    HW3 6823   0.235   2.993   3.114 -0.6201  0.2666 -1.3623
    1SOL    MW4 6824   0.231   3.074   3.145 -0.1069 -0.1698 -0.1202
    1SOL     OW 6825   0.013   3.187   3.079  0.1672 -0.2631 -0.0844
    1SOL    HW2 6826  -0.064   3.133   3.097  0.0855 -0.1713 -0.1604
    1SOL    HW3 6827   0.016   3.193   2.983 -0.9317  1.4639 -0.0277
    1SOL    MW4 6828   0.003   3.181   3.069  0.0114 -0.0229 -0.0868
    1SOL     OW 6829   0.014   3.453   3.133 -0.1998  0.2181 -0.1601
    1SOL    HW2 6830  -0.072   3.485   3.104 -0.7621 -0.2038  1.0019
    1SOL    HW3 6831   0.015   3.361   3.108 -1.6461 -0.7702  3.1675
    1SOL    MW4 6832   0.003   3.445   3.126 -0.4648  0.0319  0.4323
    1SOL     OW 6833   0.234   3.596   3.002 -0.5912 -0.3286  0.0258
    1SOL    HW2 6834   0.224   3.689   3.021 -1.3531 -0.3107 -0.4263
    1SOL    HW3 6835   0.164   3.554   3.052 -1.6579 -0.4282 -1.5167
    1SOL    MW4 6836   0.223   3.603   3.011 -0.8325 -0.3395 -0.2375
    1SOL     OW 6837   0.200   3.847   3.135 -0.3964  0.7052 -0.5250
    1SOL    HW2 6838   0.206   3.835   3.230  1.5223 -1.7572 -0.9091
    1SOL    HW3 6839   0.283   3.889   3.112 -0.7450  1.0381 -1.1627
    1SOL    MW4 6840   0.212   3.851   3.145 -0.1893  0.4241 -0.6599
    1SOL     OW 6841   0.023   4.001   2.998  0.5163 -0.2117 -0.3899
    1SOL    HW2 6842   0.093   3.951   3.042  0.0505 -0.3743  0.1790
    1SOL    HW3 6843   0.036   3.983   2.905 -0.5426 -2.6161 -0.1267
    1SOL    MW4 6844   0.034   3.992   2.992  0.3152 -0.5505 -0.2799
    1SOL     OW 6845   0.014   4.258   3.106 -0.3516  0.0912 -0.1367
    1SOL    HW2 6846   0.020   4.248   3.201  1.0486  1.1339 -0.0945
    1SOL    HW3 6847   0.015   4.169   3.073 -0.8813 -0.2844  0.8236
    1SOL    MW4 6848   0.015   4.245   3.115 -0.2367  0.1793 -0.0045
    1SOL     OW 6849   0.257   4.357   3.050  0.0015 -0.0686  0.0982
    1SOL    HW2 6850   0.167   4.337   3.075 -0.1119 -0.8609 -0.9072
    1SOL    HW3 6851   0.266   4.451   3.064 -0.9705  0.0111  0.2215
    1SOL    MW4 6852   0.247   4.367   3.055 -0.1417 -0.1626 -0.0181
    1SOL     OW 6853   0.682   4.642   3.067  0.1069 -0.0969  0.0446
    1SOL    HW2 6854   0.684   4.547   3.051 -0.6571  0.1019 -1.3677
    1SOL    HW3 6855   0.601   4.671   3.025  0.1907  1.1417  0.7329
    1SOL    MW4 6856   0.671   4.633   3.059  0.0172  0.0925 -0.0510
    1SOL     OW 6857   0.433   0.072   2.995 -0.2517  0.4789  0.0558
    1SOL    HW2 6858   0.438   0.158   3.036  0.6551  0.3859  0.1511
    1SOL    HW3 6859   0.353   0.032   3.031 -0.5182  1.1676  0.2217
    1SOL    MW4 6860   0.423   0.078   3.005 -0.1672  0.5575  0.0901
    1SOL     OW 6861   0.454   0.362   3.097  0.3875 -0.0065 -0.1398
    1SOL    HW2 6862   0.453   0.362   3.192  0.2099 -0.1545 -0.1409
    1SOL    HW3 6863   0.538   0.402   3.073 -0.1736  1.3225  0.0747
    1SOL    MW4 6864   0.465   0.368   3.106  0.2901  0.1493 -0.1116
    1SOL     OW 6865   0.677   0.515   3.013  0.1036 -0.3890 -0.3313
    1SOL    HW2 6866   0.756   0.472   3.044 -0.2554 -0.7983  0.0156
    1SOL    HW3 6867   0.685   0.605   3.042 -0.1497 -0.7286  0.7954
    1SOL    MW4 6868   0.688   0.521   3.021  0.0228 -0.4878 -0.1371
    1SOL     OW 6869   0.655   0.775   3.125 -0.5755  0.1219  0.3702
    1SOL    HW2 6870   0.666   0.753   3.218  0.0232 -3.8342 -0.5341
    1SOL    HW3 6871   0.739   0.815   3.100 -0.2859  0.0759  1.2456
    1SOL    MW4 6872   0.668   0.777   3.134 -0.4582 -0.4061  0.3664
    1SOL     OW 6873   0.452   0.922   2.995  0.0850 -0.2753  0.5623
    1SOL    HW2 6874   0.376   0.865   3.007 -0.2085 -0.1335 -0.6329
    1SOL    HW3 6875   0.524   0.872   3.034 -0.5075 -0.6538  1.2011
    1SOL    MW4 6876   0.452   0.908   3.002 -0.0319 -0.3065  0.4888
    1SOL     OW 6877   0.448   1.183   3.115 -0.0005  0.4357 -0.5724
    1SOL    HW2 6878   0.441   1.102   3.063  0.0134 -0.4071  0.7226
    1SOL    HW3 6879   0.373   1.235   3.088  0.3926  0.3119 -1.9595
    1SOL    MW4 6880   0.437   1.179   3.105  0.0531  0.3082 -0.5846
    1SOL     OW 6881   0.672   1.301   3.036 -0.0720  0.1530 -0.0522
    1SOL    HW2 6882   0.746   1.250   3.068 -0.5150 -0.4389  0.0492
    1SOL    HW3 6883   0.595   1.250   3.063 -0.4733  0.0162 -1.4379
    1SOL    MW4 6884   0.672   1.287   3.044 -0.1833  0.0569 -0.2217
    1SOL     OW 6885   0.692   1.558   3.089  0.2287 -0.3006  0.0219
    1SOL    HW2 6886   0.678   1.548   3.183 -0.7914  0.1111 -0.0739
    1SOL    HW3 6887   0.673   1.471   3.053  0.6727 -0.4719  0.2027
    1SOL    MW4 6888   0.688   1.545   3.097  0.1527 -0.2687  0.0329
    1SOL     OW 6889   0.465   1.672   2.984 -0.3971  0.0317 -0.1718
    1SOL    HW2 6890   0.540   1.631   3.026  0.9333  1.7438 -0.8085
    1SOL    HW3 6891   0.389   1.638   3.032  0.8532 -0.6945  1.3423
    1SOL    MW4 6892   0.465   1.662   2.996 -0.0566  0.1616 -0.0560
    1SOL     OW 6893   0.469   1.931   3.065 -0.1038 -0.3517 -0.3570
    1SOL    HW2 6894   0.494   1.845   3.030  0.0600  0.4499 -2.2653
    1SOL    HW3 6895   0.388   1.953   3.020 -0.0029  0.6253 -0.0769
    1SOL    MW4 6896   0.461   1.922   3.055 -0.0689 -0.1171 -0.5717
    1SOL     OW 6897   0.702   2.091   3.003  0.0097 -0.3812  0.0592
    1SOL    HW2 6898   0.768   2.029   3.035 -0.4292 -0.1121  1.4763
    1SOL    HW3 6899   0.619   2.056   3.034 -0.4939 -0.4778 -1.3518
    1SOL    MW4 6900   0.700   2.078   3.011 -0.1147 -0.3586  0.0603
    1SOL     OW 6901   0.680   2.344   3.115  0.2556 -0.0231 -0.1109
    1SOL    HW2 6902   0.699   2.335   3.208  0.4720  1.6520  0.0204
    1SOL    HW3 6903   0.689   2.255   3.080 -1.7408 -1.0058  1.7951
    1SOL    MW4 6904   0.684   2.331   3.122  0.0207  0.0682  0.1581
    1SOL     OW 6905   0.434   2.421   3.025  0.2615  0.1201 -0.4539
    1SOL    HW2 6906   0.522   2.392   3.049 -0.2056 -0.9099  0.0290
    1SOL    HW3 6907   0.423   2.392   2.935 -0.6020 -2.1878  0.3659
    1SOL    MW4 6908   0.444   2.413   3.016  0.0859 -0.3202 -0.2823
    1SOL     OW 6909   0.445   2.706   3.096 -0.2692  0.2891 -0.1430
    1SOL    HW2 6910   0.527   2.750   3.071  0.3575 -0.3803  0.6871
    1SOL    HW3 6911   0.462   2.613   3.081 -1.4012  0.2646 -1.3573
    1SOL    MW4 6912   0.458   2.700   3.091 -0.3358  0.1976 -0.1938
    1SOL     OW 6913   0.665   2.844   3.016  0.0257  0.3243  0.0900
    1SOL    HW2 6914   0.752   2.810   3.034 -1.0740 -1.2297  2.7604
    1SOL    HW3 6915   0.668   2.935   3.044  1.0187  0.5413 -0.6872
    1SOL    MW4 6916   0.677   2.851   3.022  0.0116  0.1481  0.3397
    1SOL     OW 6917   0.668   3.102   3.102  0.3849  0.0895  0.3133
    1SOL    HW2 6918   0.656   3.106   3.197  0.3195 -1.8785  0.4133
    1SOL    HW3 6919   0.586   3.135   3.065  0.1908  0.3090  0.9426
    1SOL    MW4 6920   0.656   3.107   3.110  0.3507 -0.1411  0.4096
    1SOL     OW 6921   0.432   3.215   3.009 -0.1794  0.0863 -0.4980
    1SOL    HW2 6922   0.444   3.300   3.051  1.2869 -0.4137  0.1299
    1SOL    HW3 6923   0.369   3.169   3.064  1.1985 -0.2969  0.7921
    1SOL    MW4 6924   0.425   3.220   3.022  0.1959 -0.0305 -0.2449
    1SOL     OW 6925   0.462   3.463   3.144 -0.5275 -0.2595  0.3179
    1SOL    HW2 6926   0.472   3.439   3.236 -1.1398 -0.4906  0.3267
    1SOL    HW3 6927   0.388   3.524   3.143 -0.6504 -0.4118 -0.0440
    1SOL    MW4 6928   0.454   3.468   3.156 -0.6245 -0.3099  0.2713
    1SOL     OW 6929   0.668   3.579   2.977 -0.1703  0.0137 -0.0478
    1SOL    HW2 6930   0.746   3.526   2.996 -0.0785 -0.3587 -1.4179
    1SOL    HW3 6931   0.602   3.548   3.039 -0.2585 -2.0426 -1.1159
    1SOL    MW4 6932   0.670   3.568   2.988 -0.1698 -0.3068 -0.3693
    1SOL     OW 6933   0.702   3.866   3.117  0.0294 -0.3173 -0.3131
    1SOL    HW2 6934   0.683   3.863   3.210 -1.4296 -1.0151 -0.6261
    1SOL    HW3 6935   0.697   3.775   3.088  0.6470 -0.1299 -1.0446
    1SOL    MW4 6936   0.699   3.854   3.125 -0.0816 -0.3846 -0.4511
    1SOL     OW 6937   0.439   3.964   3.037 -0.5121 -0.4062 -0.1597
    1SOL    HW2 6938   0.530   3.935   3.035  0.0205  1.1854  0.3151
    1SOL    HW3 6939   0.420   3.990   2.947 -0.4073 -0.4585 -0.1965
    1SOL    MW4 6940   0.448   3.964   3.025 -0.4280 -0.2031 -0.1020
    1SOL     OW 6941   0.462   4.207   3.150 -0.2772  0.1706 -0.4862
    1SOL    HW2 6942   0.441   4.121   3.115  0.6298  0.2737 -1.3023
    1SOL    HW3 6943   0.387   4.262   3.127 -1.1839 -0.5627  0.6681
    1SOL    MW4 6944   0.449   4.203   3.143 -0.2772  0.0868 -0.4416
    1SOL     OW 6945   0.672   4.383   3.026 -0.1007 -0.5404 -0.0167
    1SOL    HW2 6946   0.606   4.320   3.054 -0.9522  0.0758 -0.6188
    1SOL    HW3 6947   0.676   4.373   2.931  1.0726 -0.9570  0.0610
    1SOL    MW4 6948   0.664   4.373   3.017 -0.0583 -0.5145 -0.0858
    1SOL     OW 6949   1.126   4.629   3.106 -0.1146 -0.2986 -0.4052
    1SOL    HW2 6950   1.205   4.681   3.092 -0.5375 -0.0144 -1.8082
    1SOL    HW3 6951   1.055   4.682   3.071 -0.8023 -1.0190 -0.1406
    1SOL    MW4 6952   1.127   4.643   3.100 -0.2611 -0.3562 -0.5555
    1SOL     OW 6953   0.926   0.123   2.985 -0.2250  0.7784 -0.3745
    1SOL    HW2 6954   0.919   0.208   3.028  0.5696  0.6872 -0.0648
    1SOL    HW3 6955   0.839   0.084   2.996 -0.5041  1.4252 -0.2645
    1SOL    MW4 6956   0.913   0.129   2.992 -0.1569  0.8517 -0.3192
    1SOL     OW 6957   0.905   0.380   3.083  0.4052  0.6205 -0.2472
    1SOL    HW2 6958   0.900   0.375   3.179 -0.1602 -0.9995 -0.3481
    1SOL    HW3 6959   0.991   0.419   3.066  0.6287  0.6685  0.9034
    1SOL    MW4 6960   0.916   0.385   3.094  0.3601  0.4131 -0.1087
    1SOL     OW 6961   1.134   0.499   3.014 -0.5170 -0.0771  0.7513
    1SOL    HW2 6962   1.215   0.460   3.047 -0.5712  0.2432  1.2571
    1SOL    HW3 6963   1.144   0.495   2.919  0.3991  0.5858  0.8120
    1SOL    MW4 6964   1.146   0.493   3.006 -0.4033  0.0526  0.8261
    1SOL     OW 6965   1.095   0.741   3.113  0.3785  0.0170  0.2772
    1SOL    HW2 6966   1.103   0.732   3.208 -0.0351 -2.6519  0.1046
    1SOL    HW3 6967   1.107   0.652   3.080 -0.7022  0.7139 -2.0751
    1SOL    MW4 6968   1.098   0.728   3.121  0.1813 -0.2432 -0.0558
    1SOL     OW 6969   0.877   0.917   3.017  0.1740 -0.0980  0.3203
    1SOL    HW2 6970   0.907   0.996   3.063  0.3530 -0.3739  0.6756
    1SOL    HW3 6971   0.949   0.855   3.028 -1.0103 -1.1627  2.1617
    1SOL    MW4 6972   0.891   0.919   3.024  0.0413 -0.2748  0.6101
    1SOL     OW 6973   0.918   1.187   3.092  0.0873 -0.5196 -0.0554
    1SOL    HW2 6974   0.933   1.187   3.187  0.6595 -1.4097 -0.1321
    1SOL    HW3 6975   0.996   1.228   3.055 -1.4373  2.5878  0.0037
    1SOL    MW4 6976   0.930   1.192   3.100 -0.0384 -0.2270 -0.0577
    1SOL     OW 6977   1.168   1.312   3.013  0.3511 -0.0338  0.5117
    1SOL    HW2 6978   1.231   1.252   3.053  2.1117  0.7881 -0.9597
    1SOL    HW3 6979   1.167   1.287   2.920 -1.4734  0.0047  0.5053
    1SOL    MW4 6980   1.176   1.301   3.006  0.3426  0.0796  0.3169
    1SOL     OW 6981   1.163   1.541   3.154  0.2807  0.3645  0.8537
    1SOL    HW2 6982   1.238   1.593   3.127 -0.8795  1.4498 -0.3212
    1SOL    HW3 6983   1.164   1.465   3.096  0.2430  0.5681  0.5892
    1SOL    MW4 6984   1.173   1.538   3.143  0.1225  0.5345  0.6640
    1SOL     OW 6985   0.940   1.639   3.005 -0.3801 -0.2755 -0.1418
    1SOL    HW2 6986   1.015   1.617   3.060 -0.8926  0.1081  0.7261
    1SOL    HW3 6987   0.869   1.583   3.038 -0.4967 -0.5577 -0.8811
    1SOL    MW4 6988   0.940   1.629   3.017 -0.4631 -0.2621 -0.1249
    1SOL     OW 6989   0.871   1.894   3.082  0.3336 -0.7695  0.1202
    1SOL    HW2 6990   0.880   1.902   3.177  0.1395  0.1423  0.0653
    1SOL    HW3 6991   0.899   1.805   3.063  1.5788 -0.5678  0.8924
    1SOL    MW4 6992   0.876   1.883   3.092  0.4722 -0.6225  0.2146
    1SOL     OW 6993   1.094   2.053   3.047 -0.1657  0.5456  0.2013
    1SOL    HW2 6994   1.031   1.992   3.085 -0.0888  0.6805  0.5506
    1SOL    HW3 6995   1.079   2.048   2.953  0.4475 -0.6717  0.1698
    1SOL    MW4 6996   1.084   2.044   3.039 -0.0747  0.4032  0.2432
    1SOL     OW 6997   1.169   2.319   3.124 -0.1775 -0.4286 -0.1744
    1SOL    HW2 6998   1.093   2.374   3.105  0.6086  0.0557 -2.0564
    1SOL    HW3 6999   1.144   2.232   3.095  0.4826  0.0239 -2.2431
    1SOL    MW4 7000   1.156   2.315   3.118  0.0134 -0.3049 -0.6955
    1SOL     OW 7001   0.922   2.448   3.039  0.3954  0.5428  0.2388
    1SOL    HW2 7002   0.841   2.401   3.060  0.0551  0.8197 -0.4210
    1SOL    HW3 7003   0.929   2.442   2.943  1.8375 -0.5788  0.3951
    1SOL    MW4 7004   0.912   2.441   3.029  0.5407  0.4315  0.1721
    1SOL     OW 7005   0.888   2.713   3.102  0.7413 -0.1493  0.3351
    1SOL    HW2 7006   0.902   2.714   3.197 -1.3708 -1.1298  0.6991
    1SOL    HW3 7007   0.895   2.621   3.078 -1.5625 -0.2833  0.0407
    1SOL    MW4 7008   0.891   2.701   3.111  0.1587 -0.2964  0.3443
    1SOL     OW 7009   1.129   2.809   2.987  0.1892 -0.0791 -0.3409
    1SOL    HW2 7010   1.148   2.886   3.040  0.5224 -0.4035  0.0178
    1SOL    HW3 7011   1.043   2.779   3.018  0.3268 -0.1936 -0.0671
    1SOL    MW4 7012   1.120   2.815   2.998  0.2513 -0.1371 -0.2573
    1SOL     OW 7013   1.142   3.031   3.141 -0.1724 -0.1566  0.6935
    1SOL    HW2 7014   1.212   3.091   3.115 -1.4021  0.8913 -0.3460
    1SOL    HW3 7015   1.062   3.072   3.106 -1.0817 -2.2271  0.2676
    1SOL    MW4 7016   1.141   3.044   3.133 -0.4545 -0.2916  0.5002
    1SOL     OW 7017   0.924   3.185   3.036  0.0853  0.1545 -0.0601
    1SOL    HW2 7018   0.838   3.157   3.068  0.6367  0.0511  1.3687
    1SOL    HW3 7019   0.910   3.205   2.943 -1.1092 -1.4296 -0.2436
    1SOL    MW4 7020   0.911   3.184   3.028  0.0005 -0.0679  0.1044
    1SOL     OW 7021   0.902   3.451   3.104 -0.1741  0.1614 -0.1359
    1SOL    HW2 7022   0.985   3.490   3.075  0.4341 -0.5461  0.6344
    1SOL    HW3 7023   0.914   3.357   3.089 -0.5556 -0.0196  0.7029
    1SOL    MW4 7024   0.915   3.444   3.098 -0.1442  0.0443  0.0761
    1SOL     OW 7025   1.112   3.614   3.012 -0.0976  0.4642 -0.1610
    1SOL    HW2 7026   1.199   3.579   3.031 -0.3065  0.5082  0.8853
    1SOL    HW3 7027   1.118   3.707   3.035 -0.5111  0.4025  0.1859
    1SOL    MW4 7028   1.125   3.622   3.017 -0.1796  0.4621  0.0226
    1SOL     OW 7029   1.119   3.878   3.076  0.0571  0.2913  0.0001
    1SOL    HW2 7030   1.104   3.908   3.166  0.3403  2.8611 -0.7602
    1SOL    HW3 7031   1.043   3.909   3.027  1.1106  1.1370 -1.1309
    1SOL    MW4 7032   1.107   3.886   3.082  0.2335  0.7420 -0.2496
    1SOL     OW 7033   0.887   4.004   2.973  0.3194 -0.0392  0.2751
    1SOL    HW2 7034   0.816   3.953   3.014 -0.1633 -0.1395 -0.6704
    1SOL    HW3 7035   0.873   3.993   2.879  1.1623  0.5451  0.0777
    1SOL    MW4 7036   0.876   3.996   2.966  0.3670  0.0248  0.1245
    1SOL     OW 7037   0.910   4.252   3.113  0.1742 -0.0330 -0.0404
    1SOL    HW2 7038   0.898   4.175   3.059 -0.0974 -0.1615  0.1989
    1SOL    HW3 7039   0.827   4.300   3.105  0.2410  0.0929  0.0267
    1SOL    MW4 7040   0.897   4.249   3.105  0.1472 -0.0334  0.0000
    1SOL     OW 7041   1.121   4.373   3.010  0.3348  0.3518 -0.2338
    1SOL    HW2 7042   1.044   4.332   3.050  1.2946 -0.9093  0.3752
    1SOL    HW3 7043   1.128   4.458   3.053  0.2474 -0.2196  0.9510
    1SOL    MW4 7044   1.112   4.379   3.021  0.4499  0.1101  0.0029
    1SOL     OW 7045   1.604   4.652   3.115  0.0834 -0.0922  0.2083
    1SOL    HW2 7046   1.603   4.639   3.210 -0.6932 -1.5890  0.0006
    1SOL    HW3 7047   1.518   4.689   3.096  0.3055  0.3754  0.0942
    1SOL    MW4 7048   1.592   4.655   3.125  0.0104 -0.2280  0.1659
    1SOL     OW 7049   1.364   0.101   3.037  0.5463 -0.2878  0.5002
    1SOL    HW2 7050   1.386   0.192   3.057  0.2001 -0.6792  2.8079
    1SOL    HW3 7051   1.369   0.095   2.942  0.6333  2.1247  0.3347
    1SOL    MW4 7052   1.368   0.112   3.027  0.5122 -0.0211  0.7827
    1SOL     OW 7053   1.357   0.382   3.105  0.6045  0.2534 -0.4802
    1SOL    HW2 7054   1.368   0.379   3.200 -0.4247  2.2796 -0.2604
    1SOL    HW3 7055   1.430   0.435   3.074  1.5769 -1.3497 -0.9501
    1SOL    MW4 7056   1.368   0.389   3.114  0.5970  0.3092 -0.5131
    1SOL     OW 7057   1.584   0.555   3.047 -0.0568  0.0604  0.4992
    1SOL    HW2 7058   1.585   0.646   3.077  2.8344 -0.6721  2.8339
    1SOL    HW3 7059   1.588   0.562   2.952 -0.4762  2.3840  0.6121
    1SOL    MW4 7060   1.585   0.568   3.039  0.2694  0.2704  0.8221
    1SOL     OW 7061   1.605   0.809   3.140 -0.1131  0.0292 -0.1089
    1SOL    HW2 7062   1.585   0.799   3.233  0.3101 -0.7670 -0.1022
    1SOL    HW3 7063   1.521   0.833   3.101 -0.3484  0.1144  0.4376
    1SOL    MW4 7064   1.591   0.811   3.147 -0.0885 -0.0646 -0.0358
    1SOL     OW 7065   1.358   0.899   2.989  0.2087  0.2802  0.4118
    1SOL    HW2 7066   1.350   0.992   3.012  0.8892 -0.0320  1.9595
    1SOL    HW3 7067   1.279   0.858   3.024  0.3519  0.1081  0.5302
    1SOL    MW4 7068   1.347   0.906   2.996  0.3172  0.2163  0.6316
    1SOL     OW 7069   1.347   1.144   3.120  0.7989 -0.3707  0.4797
    1SOL    HW2 7070   1.361   1.148   3.214  1.4100 -0.0164  0.3761
    1SOL    HW3 7071   1.415   1.200   3.083  0.0288  0.1828 -0.1225
    1SOL    MW4 7072   1.358   1.152   3.127  0.7778 -0.2509  0.3862
    1SOL     OW 7073   1.549   1.299   3.007 -0.5401  0.4191  0.4148
    1SOL    HW2 7074   1.630   1.255   3.029  0.0297  0.9697 -0.5424
    1SOL    HW3 7075   1.550   1.380   3.057 -0.2961  0.6229  0.0828
    1SOL    MW4 7076   1.560   1.304   3.016 -0.4327  0.5186  0.2449
    1SOL     OW 7077   1.556   1.560   3.114 -0.0757 -0.2429 -0.4194
    1SOL    HW2 7078   1.639   1.603   3.094 -0.1560  0.1959  0.1679
    1SOL    HW3 7079   1.489   1.616   3.075 -0.2041  0.3896  0.6639
    1SOL    MW4 7080   1.558   1.573   3.106 -0.1034 -0.1016 -0.1993
    1SOL     OW 7081   1.352   1.704   3.004 -0.1262  0.3243 -0.1140
    1SOL    HW2 7082   1.350   1.799   3.019  0.7870  0.2913  0.2384
    1SOL    HW3 7083   1.326   1.694   2.913  0.8358  0.9868 -0.4677
    1SOL    MW4 7084   1.348   1.715   2.994  0.1211  0.4073 -0.1144
    1SOL     OW 7085   1.348   1.974   3.093  0.5022  0.1532 -0.8569
    1SOL    HW2 7086   1.343   1.953   3.186 -1.2535 -1.1679 -1.2236
    1SOL    HW3 7087   1.260   2.007   3.071  1.1279  1.1741 -1.8842
    1SOL    MW4 7088   1.336   1.976   3.102  0.3531  0.1135 -1.0409
    1SOL     OW 7089   1.593   2.091   3.019 -0.4366  0.3938 -0.3140
    1SOL    HW2 7090   1.512   2.051   3.052 -0.2340  0.8391  0.7576
    1SOL    HW3 7091   1.582   2.093   2.924 -2.2020  1.4989 -0.1200
    1SOL    MW4 7092   1.581   2.086   3.011 -0.6428  0.5984 -0.1471
    1SOL     OW 7093   1.605   2.349   3.096 -0.2932  0.0098 -0.6031
    1SOL    HW2 7094   1.523   2.384   3.060 -1.2568 -1.7625 -0.1964
    1SOL    HW3 7095   1.609   2.259   3.064  0.6954 -0.4233  0.6796
    1SOL    MW4 7096   1.594   2.342   3.087 -0.2898 -0.2813 -0.3803
    1SOL     OW 7097   1.383   2.460   3.002  0.1737 -0.4658 -0.0487
    1SOL    HW2 7098   1.308   2.415   3.042 -1.2281  0.9014 -1.0566
    1SOL    HW3 7099   1.356   2.474   2.911  1.1466  1.1286 -0.1137
    1SOL    MW4 7100   1.369   2.456   2.995  0.1169 -0.0751 -0.1905
    1SOL     OW 7101   1.374   2.714   3.095  0.1262 -0.4964 -0.4076
    1SOL    HW2 7102   1.376   2.626   3.057  1.8763  0.5156 -2.8920
    1SOL    HW3 7103   1.291   2.751   3.066 -0.4917 -1.2428  0.4137
    1SOL    MW4 7104   1.364   2.708   3.086  0.2756 -0.4611 -0.6270
    1SOL     OW 7105   1.594   2.839   2.985 -0.2892  0.6528 -0.0036
    1SOL    HW2 7106   1.674   2.797   3.016 -0.4300  0.8153  0.6019
    1SOL    HW3 7107   1.524   2.781   3.014 -0.4969  1.4138  1.0390
    1SOL    MW4 7108   1.595   2.826   2.993 -0.3352  0.7746  0.2136
    1SOL     OW 7109   1.591   3.068   3.145  0.0204  0.0119 -0.0848
    1SOL    HW2 7110   1.592   3.058   3.240 -0.6335  1.1384  0.0421
    1SOL    HW3 7111   1.597   2.978   3.112  1.0970 -0.3421  1.0054
    1SOL    MW4 7112   1.592   3.055   3.153  0.0763  0.1140  0.0761
    1SOL     OW 7113   1.368   3.172   3.034 -0.1993 -0.0276  0.1247
    1SOL    HW2 7114   1.446   3.131   3.070 -0.7809 -1.1854  0.0830
    1SOL    HW3 7115   1.381   3.169   2.939 -0.0472  0.2866  0.1337
    1SOL    MW4 7116   1.380   3.166   3.026 -0.2561 -0.1385  0.1204
    1SOL     OW 7117   1.334   3.464   3.087 -0.0042  0.1829  0.1278
    1SOL    HW2 7118   1.331   3.473   3.182 -2.2373 -1.5842  0.2791
    1SOL    HW3 7119   1.336   3.369   3.072 -0.2672  0.4260 -1.6060
    1SOL    MW4 7120   1.334   3.452   3.097 -0.3335 -0.0181 -0.0808
    1SOL     OW 7121   1.579   3.542   2.988  0.1154  0.1409  0.0080
    1SOL    HW2 7122   1.493   3.509   3.015  0.6703 -1.0169  0.3671
    1SOL    HW3 7123   1.576   3.538   2.892  0.3796 -1.4989  0.0552
    1SOL    MW4 7124   1.567   3.537   2.979  0.2233 -0.2282  0.0618
    1SOL     OW 7125   1.545   3.810   3.083 -0.2443 -0.1844  0.1631
    1SOL    HW2 7126   1.617   3.862   3.047 -1.3749  1.1084 -0.2725
    1SOL    HW3 7127   1.563   3.721   3.052 -0.1071  0.5439 -1.9875
    1SOL    MW4 7128   1.556   3.805   3.074 -0.3755  0.0823 -0.1779
    1SOL     OW 7129   1.370   4.002   2.994 -0.4106  0.1175 -0.2796
    1SOL    HW2 7130   1.425   3.930   3.025  0.2374  0.4746 -0.5953
    1SOL    HW3 7131   1.281   3.974   3.014 -0.0736 -0.1614  0.8797
    1SOL    MW4 7132   1.366   3.989   3.001 -0.2807  0.1276 -0.1681
    1SOL     OW 7133   1.380   4.254   3.091  0.1841  0.5842 -0.0069
    1SOL    HW2 7134   1.382   4.164   3.056 -0.4708  0.8407 -0.7114
    1SOL    HW3 7135   1.293   4.286   3.069  0.0387  1.0292  1.1917
    1SOL    MW4 7136   1.369   4.246   3.084  0.0786  0.6766  0.0582
    1SOL     OW 7137   1.584   4.406   2.969  0.0213 -0.6213 -0.1413
    1SOL    HW2 7138   1.527   4.354   3.025  1.0429 -0.4841  1.0366
    1SOL    HW3 7139   1.596   4.488   3.016  1.3433 -0.7208 -0.2818
    1SOL    MW4 7140   1.578   4.410   2.982  0.3306 -0.6161 -0.0043
    1SOL     OW 7141   2.005   0.006   3.112  0.0649  0.6651  0.0253
    1SOL    HW2 7142   2.002   0.005   3.208 -0.1547  2.0223  0.0390
    1SOL    HW3 7143   1.926   0.053   3.086 -0.9467 -1.4821 -0.8974
    1SOL    MW4 7144   1.994   0.012   3.121 -0.0975  0.5612 -0.0949
    1SOL     OW 7145   1.790   0.163   3.007 -0.0295 -0.2301  0.1629
    1SOL    HW2 7146   1.734   0.088   3.027  0.8034 -0.9696 -0.2319
    1SOL    HW3 7147   1.789   0.168   2.911  0.8349 -0.4465  0.1423
    1SOL    MW4 7148   1.782   0.154   2.997  0.1944 -0.3562  0.1080
    1SOL     OW 7149   1.785   0.401   3.130 -0.1952 -0.2765  0.0185
    1SOL    HW2 7150   1.781   0.315   3.087  0.1011  0.3415 -1.2592
    1SOL    HW3 7151   1.718   0.453   3.085  0.0608  0.3564  0.3693
    1SOL    MW4 7152   1.776   0.396   3.118 -0.1223 -0.1115 -0.1037
    1SOL     OW 7153   2.012   0.490   3.011  0.5625 -0.1966 -0.1154
    1SOL    HW2 7154   1.934   0.457   3.055 -0.4071  0.4778 -1.2960
    1SOL    HW3 7155   2.082   0.431   3.038  0.1213  0.5348  2.7759
    1SOL    MW4 7156   2.011   0.478   3.020  0.3762 -0.0111  0.1104
    1SOL     OW 7157   2.046   0.763   3.087  0.1036 -0.3980 -0.6412
    1SOL    HW2 7158   1.970   0.813   3.057  0.4328  0.0074 -0.8109
    1SOL    HW3 7159   2.030   0.674   3.057 -0.2622 -0.2930 -0.7551
    1SOL    MW4 7160   2.034   0.758   3.079  0.0985 -0.3306 -0.6785
    1SOL     OW 7161   1.820   0.918   2.970  0.4206 -0.2603 -0.2397
    1SOL    HW2 7162   1.737   0.873   2.988  0.3548 -0.5639 -1.2405
    1SOL    HW3 7163   1.816   0.938   2.876  0.3833  1.9971  0.2199
    1SOL    MW4 7164   1.809   0.914   2.960  0.4070 -0.0026 -0.3111
    1SOL     OW 7165   1.773   1.184   3.092 -0.7148  0.4185 -0.3692
    1SOL    HW2 7166   1.794   1.180   3.186 -0.1773  0.9703 -0.4664
    1SOL    HW3 7167   1.777   1.092   3.064  1.5359  0.4800 -0.3656
    1SOL    MW4 7168   1.777   1.171   3.101 -0.3470  0.4995 -0.3817
    1SOL     OW 7169   2.023   1.286   2.998 -0.9375 -0.1231 -0.6425
    1SOL    HW2 7170   2.105   1.242   3.022 -1.1201 -0.5848 -0.8542
    1SOL    HW3 7171   1.954   1.230   3.033 -1.1684  0.1958 -0.5787
    1SOL    MW4 7172   2.025   1.273   3.006 -0.9921 -0.1420 -0.6618
    1SOL     OW 7173   2.044   1.553   3.109 -0.1963  0.2798 -0.0176
    1SOL    HW2 7174   2.038   1.542   3.204 -0.2881 -1.0139 -0.1697
    1SOL    HW3 7175   2.031   1.465   3.073 -2.3018  1.0995 -1.3435
    1SOL    MW4 7176   2.042   1.540   3.117 -0.4861  0.2172 -0.2127
    1SOL     OW 7177   1.802   1.668   3.032 -0.5712 -0.5677 -0.1782
    1SOL    HW2 7178   1.801   1.760   3.058 -0.9582 -0.9202  1.1032
    1SOL    HW3 7179   1.888   1.636   3.059 -1.2223 -1.1034  1.3397
    1SOL    MW4 7180   1.813   1.676   3.039 -0.7081 -0.6849  0.1910
    1SOL     OW 7181   1.811   1.935   3.114  0.0519  0.2052 -0.0690
    1SOL    HW2 7182   1.888   1.967   3.067  1.0347  1.4185  2.2968
    1SOL    HW3 7183   1.739   1.987   3.079  0.7391  0.9994 -0.3352
    1SOL    MW4 7184   1.812   1.946   3.103  0.2722  0.4702  0.2079
    1SOL     OW 7185   2.049   2.042   2.973  0.1840 -0.4436 -0.6369
    1SOL    HW2 7186   2.125   2.006   3.017  1.0485  1.0339 -0.8628
    1SOL    HW3 7187   2.038   2.130   3.011 -0.4299 -0.0270 -1.7378
    1SOL    MW4 7188   2.057   2.049   2.984  0.2170 -0.1938 -0.8121
    1SOL     OW 7189   2.041   2.302   3.099  0.3967  0.2904  0.5749
    1SOL    HW2 7190   2.125   2.340   3.073  0.2280  1.3196  1.5252
    1SOL    HW3 7191   1.975   2.359   3.059  0.1396 -0.7488 -0.5110
    1SOL    MW4 7192   2.043   2.314   3.090  0.3405  0.2892  0.5569
    1SOL     OW 7193   1.841   2.449   2.969  0.1824 -0.1566  0.2369
    1SOL    HW2 7194   1.831   2.534   3.013  0.4422  0.0545 -0.1188
    1SOL    HW3 7195   1.763   2.400   2.996  0.3446 -0.0367  0.9543
    1SOL    MW4 7196   1.829   2.454   2.978  0.2382 -0.1128  0.2844
    1SOL     OW 7197   1.813   2.712   3.087  0.4806 -0.3509 -0.1984
    1SOL    HW2 7198   1.796   2.706   3.181 -0.4974 -0.5719 -0.3846
    1SOL    HW3 7199   1.902   2.745   3.081  0.6925 -0.7187  0.8099
    1SOL    MW4 7200   1.822   2.716   3.099  0.3796 -0.4284 -0.0901
    1SOL     OW 7201   2.070   2.800   3.062  0.1972  0.5155 -0.2500
    1SOL    HW2 7202   2.047   2.891   3.080  0.4081  0.5416 -0.1123
    1SOL    HW3 7203   2.057   2.790   2.967 -1.1195  0.3179 -0.0614
    1SOL    MW4 7204   2.065   2.811   3.051  0.0515  0.4930 -0.2069
    1SOL     OW 7205   2.031   3.069   3.115 -0.0669  0.1811  0.5724
    1SOL    HW2 7206   2.021   3.087   3.209 -0.2160  3.1417  0.0196
    1SOL    HW3 7207   1.957   3.114   3.074  0.9567  0.3390 -1.1267
    1SOL    MW4 7208   2.020   3.077   3.122  0.0486  0.5925  0.2754
    1SOL     OW 7209   1.822   3.200   3.018 -0.1637  0.4171  0.8218
    1SOL    HW2 7210   1.749   3.148   3.051  0.0478 -0.5309 -0.1723
    1SOL    HW3 7211   1.816   3.192   2.923  0.8756  0.8295  0.7141
    1SOL    MW4 7212   1.811   3.192   3.010  0.0012  0.3464  0.6764
    1SOL     OW 7213   1.812   3.463   3.119 -0.2238 -0.3041 -0.2301
    1SOL    HW2 7214   1.814   3.375   3.082 -1.1080 -0.6306  0.4826
    1SOL    HW3 7215   1.732   3.502   3.084 -0.4657 -0.2146  0.4025
    1SOL    MW4 7216   1.801   3.456   3.110 -0.3723 -0.3357 -0.0527
    1SOL     OW 7217   2.018   3.585   2.983 -0.6446  0.0534  0.1932
    1SOL    HW2 7218   2.002   3.673   3.018 -0.7155  0.1045  0.0329
    1SOL    HW3 7219   1.948   3.532   3.021  0.0254 -0.1644  1.1434
    1SOL    MW4 7220   2.006   3.589   2.993 -0.5658  0.0312  0.2973
    1SOL     OW 7221   2.019   3.856   3.073 -0.1270  0.2620 -0.1701
    1SOL    HW2 7222   2.021   3.835   3.166  1.2267  0.2474 -0.1873
    1SOL    HW3 7223   1.932   3.893   3.058 -0.4113  0.1040  1.0585
    1SOL    MW4 7224   2.008   3.858   3.083  0.0141  0.2391 -0.0105
    1SOL     OW 7225   1.765   3.968   3.024  0.5049  0.1059 -0.2941
    1SOL    HW2 7226   1.779   4.057   3.058 -1.3126  0.5818 -0.7027
    1SOL    HW3 7227   1.786   3.974   2.931 -0.4888  0.3658 -0.5173
    1SOL    MW4 7228   1.769   3.981   3.017  0.1339  0.2031 -0.3772
    1SOL     OW 7229   1.799   4.226   3.092 -0.2258  0.0187 -0.0620
    1SOL    HW2 7230   1.879   4.275   3.072  0.7467 -2.1681 -1.7904
    1SOL    HW3 7231   1.732   4.266   3.036  0.1325  0.5486 -0.1216
    1SOL    MW4 7232   1.801   4.238   3.082 -0.0502 -0.2003 -0.2980
    1SOL     OW 7233   2.012   4.388   3.017  0.2901 -0.1424 -0.0862
    1SOL    HW2 7234   1.987   4.474   3.051 -0.4913  0.1757 -1.4510
    1SOL    HW3 7235   2.001   4.396   2.922  1.0987 -1.4631 -0.2943
    1SOL    MW4 7236   2.008   4.401   3.009  0.2935 -0.2747 -0.2937
    1SOL     OW 7237   2.472   4.644   3.144 -0.6506  0.1797  0.1398
    1SOL    HW2 7238   2.491   4.559   3.105  0.3013  0.5484 -0.2184
    1SOL    HW3 7239   2.400   4.679   3.093 -0.2165  0.1306 -0.5027
    1SOL    MW4 7240   2.465   4.637   3.132 -0.4675  0.2217  0.0076
    1SOL     OW 7241   2.258   0.059   3.007  0.1021  0.2292  0.5661
    1SOL    HW2 7242   2.257   0.154   3.024 -0.6520  0.1146  1.1466
    1SOL    HW3 7243   2.169   0.030   3.027  0.3783 -0.6340  0.5396
    1SOL    MW4 7244   2.246   0.068   3.012  0.0391  0.1002  0.6390
    1SOL     OW 7245   2.204   0.327   3.078 -0.1535  0.4102 -0.2838
    1SOL    HW2 7246   2.186   0.323   3.171 -1.0201 -0.0783 -0.4633
    1SOL    HW3 7247   2.284   0.378   3.070  1.1007 -1.3329  0.8838
    1SOL    MW4 7248   2.212   0.333   3.089 -0.1025  0.1158 -0.1533
    1SOL     OW 7249   2.445   0.487   3.021  0.4782  0.0830  0.0462
    1SOL    HW2 7250   2.526   0.449   3.054  1.8852  1.7869 -1.3454
    1SOL    HW3 7251   2.443   0.463   2.928 -0.2550  0.6681 -0.1002
    1SOL    MW4 7252   2.455   0.478   3.013  0.5672  0.3850 -0.1566
    1SOL     OW 7253   2.477   0.745   3.068 -0.3427  0.5972 -0.5930
    1SOL    HW2 7254   2.554   0.781   3.025  0.8518  0.1965  1.1254
    1SOL    HW3 7255   2.477   0.652   3.045 -0.1982  0.5569 -0.4292
    1SOL    MW4 7256   2.487   0.737   3.059 -0.1659  0.5390 -0.3445
    1SOL     OW 7257   2.262   0.903   2.989 -0.0680  0.0200 -0.1898
    1SOL    HW2 7258   2.336   0.844   3.007 -0.2143 -0.5962 -1.5766
    1SOL    HW3 7259   2.185   0.850   3.008 -0.2007 -0.2717 -1.4996
    1SOL    MW4 7260   2.262   0.888   2.994 -0.1049 -0.0998 -0.5455
    1SOL     OW 7261   2.251   1.159   3.103 -0.5490  0.1463  0.0553
    1SOL    HW2 7262   2.264   1.169   3.197  0.0596  0.0982 -0.0256
    1SOL    HW3 7263   2.264   1.066   3.086 -1.1858  0.0611  0.0041
    1SOL    MW4 7264   2.254   1.148   3.113 -0.5524  0.1287  0.0381
    1SOL     OW 7265   2.461   1.227   2.952  0.2212 -0.0369  0.7031
    1SOL    HW2 7266   2.377   1.218   2.995 -0.3909  1.2082 -0.1902
    1SOL    HW3 7267   2.440   1.242   2.860  1.4648 -1.4141  0.1571
    1SOL    MW4 7268   2.447   1.228   2.945  0.3045 -0.0544  0.5133
    1SOL     OW 7269   2.490   1.495   3.089  0.3006 -0.0448  0.0965
    1SOL    HW2 7270   2.403   1.530   3.068  0.0129 -0.2430  0.9399
    1SOL    HW3 7271   2.489   1.407   3.050  0.7143  0.5365 -1.2763
    1SOL    MW4 7272   2.478   1.488   3.081  0.3173  0.0057  0.0265
    1SOL     OW 7273   2.286   1.682   3.054  0.3097 -0.2537  0.3407
    1SOL    HW2 7274   2.209   1.629   3.073 -1.0001  1.0884 -1.0483
    1SOL    HW3 7275   2.284   1.696   2.959  0.7482  2.0153  0.6240
    1SOL    MW4 7276   2.276   1.677   3.044  0.1945  0.2227  0.1948
    1SOL     OW 7277   2.276   1.950   3.115  0.1079 -0.4263 -0.4102
    1SOL    HW2 7278   2.356   1.981   3.073  0.0059 -0.5168 -0.6716
    1SOL    HW3 7279   2.284   1.855   3.116  0.9761 -0.3639  1.4812
    1SOL    MW4 7280   2.288   1.942   3.110  0.2089 -0.4301 -0.1950
    1SOL     OW 7281   2.496   2.061   2.960 -0.6065  0.1152  0.2889
    1SOL    HW2 7282   2.567   2.005   2.991 -1.2208 -0.0590  1.3845
    1SOL    HW3 7283   2.490   2.043   2.866  0.2804 -0.4401  0.3394
    1SOL    MW4 7284   2.505   2.051   2.952 -0.5705  0.0188  0.4399
    1SOL     OW 7285   2.511   2.308   3.080  0.0988  0.0496  0.2604
    1SOL    HW2 7286   2.509   2.299   3.175 -1.0051  0.2683  0.2567
    1SOL    HW3 7287   2.505   2.219   3.047  0.1624 -0.0008  0.3845
    1SOL    MW4 7288   2.510   2.295   3.088 -0.0384  0.0718  0.2763
    1SOL     OW 7289   2.268   2.455   2.994  0.3457 -0.2268  0.0489
    1SOL    HW2 7290   2.291   2.533   3.044  0.0342 -0.6582  0.8719
    1SOL    HW3 7291   2.338   2.393   3.014 -0.4345 -0.8267  0.9250
    1SOL    MW4 7292   2.280   2.457   3.003  0.2017 -0.3629  0.2730
    1SOL     OW 7293   2.313   2.694   3.162 -0.0122 -0.4358 -0.1850
    1SOL    HW2 7294   2.368   2.751   3.109 -0.4867 -0.0166 -0.2362
    1SOL    HW3 7295   2.223   2.723   3.143 -0.1033  1.2003  2.5054
    1SOL    MW4 7296   2.308   2.705   3.153 -0.0870 -0.1647  0.1628
    1SOL     OW 7297   2.478   2.832   3.002 -0.4172  0.1212  0.0698
    1SOL    HW2 7298   2.480   2.925   3.025 -0.9420  0.1958 -0.1715
    1SOL    HW3 7299   2.479   2.832   2.906  0.1866 -0.1390  0.0786
    1SOL    MW4 7300   2.478   2.845   2.992 -0.4067  0.0968  0.0391
    1SOL     OW 7301   2.501   3.084   3.116  0.4360 -0.0108  0.3533
    1SOL    HW2 7302   2.582   3.127   3.090  0.0444  2.2517  2.6777
    1SOL    HW3 7303   2.432   3.147   3.095 -0.4870 -0.9335  0.5864
    1SOL    MW4 7304   2.503   3.098   3.110  0.2625  0.1659  0.6907
    1SOL     OW 7305   2.269   3.218   3.028  0.1486  0.1492  0.1346
    1SOL    HW2 7306   2.250   3.308   3.055  1.1043  0.3394  0.1813
    1SOL    HW3 7307   2.195   3.167   3.063  0.0857  0.7684  0.9259
    1SOL    MW4 7308   2.256   3.223   3.036  0.2663  0.2561  0.2451
    1SOL     OW 7309   2.228   3.489   3.114 -0.1527 -0.4322 -0.3119
    1SOL    HW2 7310   2.306   3.533   3.081  0.1247 -0.6553  0.0510
    1SOL    HW3 7311   2.157   3.524   3.061  0.2954 -0.7961 -1.1662
    1SOL    MW4 7312   2.229   3.499   3.102 -0.0570 -0.5100 -0.3769
    1SOL     OW 7313   2.458   3.578   2.995 -0.3314  0.1676  0.4026
    1SOL    HW2 7314   2.534   3.540   3.039  0.7122 -0.2164 -1.6939
    1SOL    HW3 7315   2.454   3.668   3.030 -1.2223 -0.9516  3.3525
    1SOL    MW4 7316   2.468   3.585   3.006 -0.3111 -0.0308  0.5147
    1SOL     OW 7317   2.449   3.845   3.086  1.2140  0.0180  0.0628
    1SOL    HW2 7318   2.456   3.854   3.181  2.1773  1.0036 -0.0969
    1SOL    HW3 7319   2.515   3.904   3.051  0.0463  0.5750 -1.2524
    1SOL    MW4 7320   2.458   3.854   3.094  1.1871  0.2217 -0.1318
    1SOL     OW 7321   2.243   4.015   3.064  0.0398 -0.2336  0.3217
    1SOL    HW2 7322   2.310   3.947   3.060  0.4618  0.2125 -0.4849
    1SOL    HW3 7323   2.161   3.968   3.076  0.2989 -0.9086 -0.4988
    1SOL    MW4 7324   2.241   4.000   3.065  0.1299 -0.2635  0.1070
    1SOL     OW 7325   2.251   4.279   3.155  0.1352  0.0261  0.2070
    1SOL    HW2 7326   2.253   4.190   3.120 -0.4265  0.1818 -0.2270
    1SOL    HW3 7327   2.166   4.314   3.129 -0.0666  0.3379  1.2725
    1SOL    MW4 7328   2.240   4.272   3.147  0.0343  0.0877  0.2899
    1SOL     OW 7329   2.482   4.385   3.027 -0.1780  0.3524 -0.0152
    1SOL    HW2 7330   2.404   4.337   3.056  0.4895 -0.8423 -0.1653
    1SOL    HW3 7331   2.470   4.393   2.932 -0.3212  0.5341  0.0183
    1SOL    MW4 7332   2.470   4.379   3.018 -0.1090  0.2189 -0.0308
    1SOL     OW 7333   2.894   4.639   3.115  0.4868 -0.0885  0.3742
    1SOL    HW2 7334   2.982   4.673   3.096  1.2042 -1.7096  0.6682
    1SOL    HW3 7335   2.892   4.554   3.071 -0.5052 -0.5869  1.3720
    1SOL    MW4 7336   2.905   4.632   3.107  0.4506 -0.3681  0.5448
    1SOL     OW 7337   2.687   0.114   3.003 -0.2972  0.0284 -0.1086
    1SOL    HW2 7338   2.765   0.060   3.009  0.9703  1.9115  0.8178
    1SOL    HW3 7339   2.621   0.068   3.054  0.1139 -1.6917 -1.0975
    1SOL    MW4 7340   2.689   0.101   3.010 -0.0758  0.0499 -0.1168
    1SOL     OW 7341   2.688   0.381   3.112  0.2955 -0.0636  0.1971
    1SOL    HW2 7342   2.699   0.292   3.078  0.2635  0.0334 -0.0656
    1SOL    HW3 7343   2.680   0.369   3.207 -1.2387 -0.4829  0.0295
    1SOL    MW4 7344   2.689   0.367   3.120  0.0889 -0.1061  0.1402
    1SOL     OW 7345   2.925   0.463   2.998  0.2971 -0.5448  0.1536
    1SOL    HW2 7346   2.844   0.421   3.026 -0.3993  1.1940  0.8515
    1SOL    HW3 7347   2.914   0.478   2.904 -0.7717  0.8528  0.4772
    1SOL    MW4 7348   2.913   0.460   2.989  0.0644 -0.1310  0.2885
    1SOL     OW 7349   2.955   0.731   3.101 -0.2097 -0.1886 -0.1261
    1SOL    HW2 7350   2.965   0.734   3.196 -0.0048 -1.0431 -0.1134
    1SOL    HW3 7351   2.952   0.637   3.080  0.3916 -0.0152 -1.0230
    1SOL    MW4 7352   2.956   0.719   3.111 -0.1032 -0.2785 -0.2427
    1SOL     OW 7353   2.740   0.856   2.990 -0.2475  0.1739 -0.1461
    1SOL    HW2 7354   2.752   0.948   3.013 -0.2746  0.1861 -0.1804
    1SOL    HW3 7355   2.807   0.810   3.040  1.0588  0.4224 -1.5941
    1SOL    MW4 7356   2.751   0.862   3.000 -0.0789  0.2083 -0.3417
    1SOL     OW 7357   2.703   1.126   3.054  0.0161 -0.2569  0.0298
    1SOL    HW2 7358   2.769   1.194   3.038  0.3140 -0.7156 -0.7169
    1SOL    HW3 7359   2.621   1.166   3.023  0.1168 -0.0671  0.0051
    1SOL    MW4 7360   2.700   1.140   3.048  0.0687 -0.2922 -0.0722
    1SOL     OW 7361   2.901   1.302   3.008  0.0535  0.1425  0.4022
    1SOL    HW2 7362   2.984   1.266   3.039 -0.0499  0.4854  1.1105
    1SOL    HW3 7363   2.901   1.392   3.041 -0.5277  0.1924  0.2732
    1SOL    MW4 7364   2.912   1.309   3.017 -0.0370  0.1944  0.4785
    1SOL     OW 7365   2.909   1.548   3.130 -0.4576 -0.3645  0.2799
    1SOL    HW2 7366   2.912   1.536   3.225 -1.5674 -1.7372  0.1526
    1SOL    HW3 7367   2.990   1.594   3.110 -1.1916  1.8672  2.1612
    1SOL    MW4 7368   2.920   1.553   3.140 -0.7010 -0.2512  0.5112
    1SOL     OW 7369   2.686   1.671   3.006  0.4019 -0.1423 -0.4380
    1SOL    HW2 7370   2.767   1.624   3.026  0.8942  1.1611  0.6139
    1SOL    HW3 7371   2.617   1.608   3.026  1.0664 -0.5058  0.7245
    1SOL    MW4 7372   2.688   1.656   3.011  0.5546 -0.0182 -0.1459
    1SOL     OW 7373   2.711   1.941   3.096  0.3202 -0.3593  0.3981
    1SOL    HW2 7374   2.800   1.972   3.075 -0.5597  0.0479 -3.0568
    1SOL    HW3 7375   2.714   1.847   3.079  0.1983 -0.4244  0.7335
    1SOL    MW4 7376   2.723   1.933   3.091  0.1881 -0.3142 -0.0136
    1SOL     OW 7377   2.946   2.066   3.014 -0.4357  0.4385  0.3522
    1SOL    HW2 7378   2.921   2.153   3.044  0.6077  1.2309 -1.0275
    1SOL    HW3 7379   2.925   2.065   2.921  1.6354  0.0305 -0.1416
    1SOL    MW4 7380   2.940   2.077   3.006 -0.0248  0.4895  0.1051
    1SOL     OW 7381   2.901   2.318   3.127  0.2579 -0.4903  0.5275
    1SOL    HW2 7382   2.985   2.351   3.094 -0.0326  0.7313  0.9747
    1SOL    HW3 7383   2.835   2.366   3.078 -0.1760 -0.6727  0.9266
    1SOL    MW4 7384   2.903   2.329   3.116  0.1624 -0.3529  0.6392
    1SOL     OW 7385   2.714   2.478   2.997 -0.0748  0.3754 -0.3601
    1SOL    HW2 7386   2.701   2.557   3.049 -0.5396 -0.5725  0.9992
    1SOL    HW3 7387   2.645   2.419   3.025  0.2479 -0.5126 -1.3872
    1SOL    MW4 7388   2.703   2.481   3.007 -0.0932  0.1330 -0.3159
    1SOL     OW 7389   2.698   2.720   3.122  0.2583  0.1054 -0.0978
    1SOL    HW2 7390   2.686   2.723   3.217 -1.1186  0.1087 -0.2590
    1SOL    HW3 7391   2.633   2.782   3.088 -0.3186 -1.0439 -1.1292
    1SOL    MW4 7392   2.688   2.729   3.130  0.0005 -0.0458 -0.2549
    1SOL     OW 7393   2.932   2.819   3.028  0.2341  0.0506  0.1521
    1SOL    HW2 7394   3.008   2.765   3.049  0.5574  0.5287  0.2256
    1SOL    HW3 7395   2.857   2.764   3.049  0.5537  0.1021  1.4712
    1SOL    MW4 7396   2.932   2.805   3.034  0.3192  0.1204  0.3362
    1SOL     OW 7397   2.951   3.080   3.123 -0.4473 -0.0097 -0.1345
    1SOL    HW2 7398   2.873   3.129   3.098 -1.3657 -1.3149  0.1490
    1SOL    HW3 7399   2.935   2.991   3.092  0.8203 -0.3405  0.1429
    1SOL    MW4 7400   2.939   3.075   3.116 -0.4010 -0.2253 -0.0608
    1SOL     OW 7401   2.743   3.220   3.038 -0.0808  0.2575 -0.3576
    1SOL    HW2 7402   2.726   3.309   3.067  1.0266  0.7623 -1.2178
    1SOL    HW3 7403   2.748   3.226   2.942 -0.3641 -0.7953 -0.4516
    1SOL    MW4 7404   2.741   3.233   3.029  0.0279  0.1853 -0.4835
    1SOL     OW 7405   2.690   3.480   3.094  0.1198  0.2565  0.1000
    1SOL    HW2 7406   2.676   3.488   3.188  0.6234  0.6906  0.1380
    1SOL    HW3 7407   2.759   3.543   3.074  0.8111 -0.6375 -0.3848
    1SOL    MW4 7408   2.697   3.490   3.104  0.2775  0.1962  0.0410
    1SOL     OW 7409   2.920   3.630   3.027 -0.1972  0.1778  0.0146
    1SOL    HW2 7410   3.008   3.592   3.034 -0.0963  0.4551  0.2400
    1SOL    HW3 7411   2.932   3.723   3.046 -0.1824  0.6375 -2.1159
    1SOL    MW4 7412   2.933   3.637   3.030 -0.1817  0.2749 -0.2367
    1SOL     OW 7413   2.928   3.902   3.118 -0.1298  0.6511 -0.0784
    1SOL    HW2 7414   2.923   3.881   3.211 -2.0987 -1.2350 -0.5803
    1SOL    HW3 7415   2.842   3.936   3.096  0.2407  0.8507 -1.2685
    1SOL    MW4 7416   2.916   3.904   3.127 -0.3407  0.4287 -0.3016
    1SOL     OW 7417   2.689   3.995   3.026  0.0238 -0.1590 -0.0961
    1SOL    HW2 7418   2.694   4.083   3.063  0.1052  0.3237 -1.2254
    1SOL    HW3 7419   2.697   4.008   2.931 -0.2854 -1.3536 -0.2996
    1SOL    MW4 7420   2.691   4.008   3.018 -0.0062 -0.2532 -0.2723
    1SOL     OW 7421   2.695   4.243   3.123  0.0725 -0.5626 -0.2494
    1SOL    HW2 7422   2.708   4.252   3.218  0.9190 -1.1083 -0.3062
    1SOL    HW3 7423   2.624   4.304   3.103  0.9540  0.7508  0.4936
    1SOL    MW4 7424   2.687   4.252   3.133  0.3004 -0.4621 -0.1590
    1SOL     OW 7425   2.917   4.380   3.009  0.1491 -0.1636 -0.0406
    1SOL    HW2 7426   2.999   4.349   3.048  0.4955 -0.2640 -0.8522
    1SOL    HW3 7427   2.851   4.316   3.037  0.5102 -0.5746 -0.1265
    1SOL    MW4 7428   2.919   4.367   3.018  0.2427 -0.2303 -0.1593
    1SOL     OW 7429   3.335   4.639   3.125  0.1027  0.1353  0.0440
    1SOL    HW2 7430   3.412   4.685   3.092 -0.7898  0.6974 -1.3571
    1SOL    HW3 7431   3.346   4.549   3.094  0.5996  0.0198  0.5601
    1SOL    MW4 7432   3.346   4.633   3.116  0.0503  0.1941 -0.0730
    1SOL     OW 7433   3.129   0.111   3.013  0.4439 -0.2178 -0.2075
    1SOL    HW2 7434   3.126   0.198   3.054 -1.1756 -0.8962  1.2018
    1SOL    HW3 7435   3.209   0.071   3.048  2.4071  1.4790 -2.5910
    1SOL    MW4 7436   3.139   0.118   3.023  0.4890 -0.0834 -0.3357
    1SOL     OW 7437   3.114   0.356   3.142 -0.0463  0.5045  0.2221
    1SOL    HW2 7438   3.190   0.408   3.115  1.5821 -2.1466 -0.5081
    1SOL    HW3 7439   3.043   0.386   3.086  1.6871 -0.3538 -2.5631
    1SOL    MW4 7440   3.115   0.367   3.131  0.3974  0.0415 -0.2415
    1SOL     OW 7441   3.329   0.501   3.024  0.0195  0.1055  0.3787
    1SOL    HW2 7442   3.418   0.469   3.041 -0.9595 -2.6911  0.6100
    1SOL    HW3 7443   3.321   0.498   2.929 -0.0888 -0.4471  0.4018
    1SOL    MW4 7444   3.340   0.496   3.014 -0.1240 -0.3365  0.4125
    1SOL     OW 7445   3.383   0.758   3.131 -0.2401 -0.2135  0.1177
    1SOL    HW2 7446   3.369   0.767   3.225  1.0579  0.0068  0.3041
    1SOL    HW3 7447   3.386   0.663   3.115 -2.5146 -0.2951 -0.0482
    1SOL    MW4 7448   3.382   0.746   3.141 -0.3691 -0.1953  0.1202
    1SOL     OW 7449   3.160   0.858   2.970  0.3135 -0.2575  0.1635
    1SOL    HW2 7450   3.241   0.830   3.013  0.2804 -2.3448 -1.0397
    1SOL    HW3 7451   3.091   0.808   3.014 -0.3617  1.5133  1.1872
    1SOL    MW4 7452   3.162   0.848   2.982  0.2201 -0.2992  0.1395
    1SOL     OW 7453   3.138   1.149   3.040  0.4225  0.3109 -0.0926
    1SOL    HW2 7454   3.201   1.188   2.979  0.5571 -0.0169 -0.1603
    1SOL    HW3 7455   3.137   1.056   3.018 -1.3672  0.5816 -1.2155
    1SOL    MW4 7456   3.146   1.142   3.029  0.2041  0.3035 -0.2496
    1SOL     OW 7457   3.361   1.275   2.961 -0.4444  0.3175 -0.2311
    1SOL    HW2 7458   3.420   1.220   3.012 -1.1558  0.3086  0.5835
    1SOL    HW3 7459   3.340   1.348   3.020 -1.1738  0.3683 -0.5512
    1SOL    MW4 7460   3.366   1.278   2.976 -0.6349  0.3231 -0.1659
    1SOL     OW 7461   3.332   1.493   3.108  0.0642  0.1833 -0.0631
    1SOL    HW2 7462   3.326   1.491   3.203  0.6090  0.1806 -0.0293
    1SOL    HW3 7463   3.417   1.533   3.089  0.4837 -0.8813 -0.5323
    1SOL    MW4 7464   3.342   1.498   3.118  0.1917  0.0426 -0.1204
    1SOL     OW 7465   3.141   1.661   2.995  0.0594 -0.2495  0.1419
    1SOL    HW2 7466   3.214   1.609   3.028 -1.4585 -1.7941  1.1124
    1SOL    HW3 7467   3.146   1.743   3.044  2.7615  0.7937 -1.7433
    1SOL    MW4 7468   3.152   1.665   3.006  0.2158 -0.3158  0.0212
    1SOL     OW 7469   3.175   1.914   3.127 -0.4316 -0.2728 -0.2844
    1SOL    HW2 7470   3.156   1.914   3.221  0.5862 -0.7492 -0.0779
    1SOL    HW3 7471   3.110   1.974   3.090  0.1400  1.1148  0.9202
    1SOL    MW4 7472   3.164   1.922   3.134 -0.2217 -0.1526 -0.0980
    1SOL     OW 7473   3.401   2.037   3.038 -0.0228  0.5481  0.3370
    1SOL    HW2 7474   3.480   1.988   3.058  0.1449  0.5990 -0.1808
    1SOL    HW3 7475   3.331   1.990   3.083  0.3096  0.5486  0.8646
    1SOL    MW4 7476   3.402   2.025   3.047  0.0434  0.5553  0.3383
    1SOL     OW 7477   3.355   2.295   3.155  0.4863 -0.2998  0.2359
    1SOL    HW2 7478   3.336   2.284   3.248 -1.0139 -0.5005 -0.0783
    1SOL    HW3 7479   3.370   2.207   3.122  0.1400 -0.3084  0.1033
    1SOL    MW4 7480   3.355   2.282   3.163  0.2427 -0.3276  0.1769
    1SOL     OW 7481   3.133   2.423   3.038 -0.3134 -0.6063 -0.3790
    1SOL    HW2 7482   3.213   2.378   3.066 -0.3034 -1.0401 -1.0711
    1SOL    HW3 7483   3.147   2.514   3.063  0.5579 -0.6093 -0.8000
    1SOL    MW4 7484   3.146   2.429   3.045 -0.1974 -0.6638 -0.5257
    1SOL     OW 7485   3.162   2.694   3.127  0.2893  0.3865  0.4447
    1SOL    HW2 7486   3.242   2.734   3.094 -0.2172  1.5814  0.6620
    1SOL    HW3 7487   3.175   2.689   3.222  0.4456 -0.1950  0.3982
    1SOL    MW4 7488   3.174   2.699   3.135  0.2429  0.4673  0.4673
    1SOL     OW 7489   3.394   2.798   3.005 -0.0866 -0.0775  0.2211
    1SOL    HW2 7490   3.482   2.763   3.020  0.1178  0.8971  1.3929
    1SOL    HW3 7491   3.395   2.884   3.047 -1.6875 -0.1639  0.4712
    1SOL    MW4 7492   3.406   2.804   3.013 -0.2711  0.0398  0.4086
    1SOL     OW 7493   3.370   3.072   3.125  0.1391 -0.6345 -0.2178
    1SOL    HW2 7494   3.294   3.117   3.087 -0.5363 -0.7698  0.9569
    1SOL    HW3 7495   3.366   3.092   3.219  1.2864 -1.0380 -0.0698
    1SOL    MW4 7496   3.360   3.081   3.132  0.2017 -0.7055 -0.0432
    1SOL     OW 7497   3.178   3.207   2.973 -0.0801 -0.2124  0.0954
    1SOL    HW2 7498   3.106   3.164   3.020  0.0386 -0.9962 -0.4121
    1SOL    HW3 7499   3.147   3.211   2.882  0.1273  0.3190  0.0477
    1SOL    MW4 7500   3.164   3.202   2.967 -0.0374 -0.2456  0.0219
    1SOL     OW 7501   3.162   3.480   3.063  0.0366  0.2376  0.1226
    1SOL    HW2 7502   3.232   3.522   3.014  0.7735 -1.7922 -0.6028
    1SOL    HW3 7503   3.149   3.396   3.020 -0.5691 -0.8121  2.2756
    1SOL    MW4 7504   3.169   3.474   3.051  0.0539 -0.1690  0.3109
    1SOL     OW 7505   3.391   3.648   2.977 -0.6828 -0.2791 -0.0789
    1SOL    HW2 7506   3.455   3.623   3.043  0.7029 -1.0646 -1.6964
    1SOL    HW3 7507   3.367   3.738   2.999  1.0237  0.0399  0.5055
    1SOL    MW4 7508   3.396   3.657   2.988 -0.2749 -0.3405 -0.2153
    1SOL     OW 7509   3.361   3.877   3.114 -0.4536 -0.0320  0.0668
    1SOL    HW2 7510   3.359   3.858   3.207  0.2416  1.3301  0.3752
    1SOL    HW3 7511   3.275   3.914   3.095 -1.3295 -2.1894 -0.2652
    1SOL    MW4 7512   3.349   3.879   3.124 -0.4773 -0.1369  0.0639
    1SOL     OW 7513   3.165   4.032   2.991 -0.0075  0.1367  0.3237
    1SOL    HW2 7514   3.093   3.989   3.037 -0.3394  0.1121 -0.2113
    1SOL    HW3 7515   3.142   4.024   2.899  2.1102 -2.4300 -0.0250
    1SOL    MW4 7516   3.152   4.025   2.985  0.2282 -0.2055  0.2072
    1SOL     OW 7517   3.160   4.275   3.129  0.5083  0.3787 -0.3366
    1SOL    HW2 7518   3.176   4.251   3.220 -0.2504  0.8845 -0.0662
    1SOL    HW3 7519   3.165   4.193   3.081  0.5640  0.0643  0.2066
    1SOL    MW4 7520   3.163   4.261   3.135  0.4153  0.4039 -0.2294
    1SOL     OW 7521   3.374   4.380   2.986  0.0630 -0.2375 -0.1635
    1SOL    HW2 7522   3.451   4.340   3.026 -0.7246 -0.0672  1.5541
    1SOL    HW3 7523   3.299   4.340   3.031 -0.7794  1.5701  0.0948
    1SOL    MW4 7524   3.374   4.370   2.997 -0.1519  0.0234  0.0970
    1SOL     OW 7525   3.828   4.632   3.135 -0.0195  0.4253  0.0176
    1SOL    HW2 7526   3.808   4.548   3.094  0.2442  0.0531  0.6344
    1SOL    HW3 7527   3.743   4.676   3.143 -0.2223  0.0179  0.1228
    1SOL    MW4 7528   3.814   4.627   3.131 -0.0114  0.3223  0.1128
    1SOL     OW 7529   3.568   0.120   3.072 -0.2558  0.1645 -0.3336
    1SOL    HW2 7530   3.578   0.214   3.088  0.8770  0.2640 -1.5780
    1SOL    HW3 7531   3.567   0.111   2.977 -2.2787 -0.8994 -0.2383
    1SOL    MW4 7532   3.569   0.131   3.061 -0.3729  0.0373 -0.4854
    1SOL     OW 7533   3.576   0.420   3.102 -0.4015 -0.2718  0.6184
    1SOL    HW2 7534   3.581   0.395   3.194  0.7069 -0.8502  0.4097
    1SOL    HW3 7535   3.666   0.445   3.080 -0.7954  0.4850 -0.1309
    1SOL    MW4 7536   3.589   0.420   3.111 -0.3071 -0.2483  0.4919
    1SOL     OW 7537   3.823   0.493   3.018  0.5319  0.1054 -0.1625
    1SOL    HW2 7538   3.896   0.442   3.052  0.4126 -1.0250 -1.5083
    1SOL    HW3 7539   3.829   0.577   3.062  1.2081 -0.8078  1.5308
    1SOL    MW4 7540   3.833   0.497   3.028  0.6051 -0.1642 -0.1168
    1SOL     OW 7541   3.834   0.741   3.146  0.1428  0.5156 -0.2800
    1SOL    HW2 7542   3.836   0.758   3.240  0.5858 -1.4332  0.0748
    1SOL    HW3 7543   3.909   0.788   3.111  1.6201 -1.0451  0.7482
    1SOL    MW4 7544   3.844   0.750   3.154  0.3960  0.0525 -0.0975
    1SOL     OW 7545   3.605   0.868   3.035  0.7913 -0.7114  0.2983
    1SOL    HW2 7546   3.677   0.811   3.061  0.0181 -0.6115  2.7815
    1SOL    HW3 7547   3.528   0.831   3.078  0.2815  2.1986  2.0432
    1SOL    MW4 7548   3.604   0.856   3.044  0.6220 -0.3142  0.8562
    1SOL     OW 7549   3.561   1.127   3.114  0.0180 -0.4575 -0.4504
    1SOL    HW2 7550   3.638   1.173   3.080  0.2503 -0.3951  0.1723
    1SOL    HW3 7551   3.571   1.037   3.082 -0.6285  0.0007 -1.9898
    1SOL    MW4 7552   3.572   1.121   3.105 -0.0367 -0.3887 -0.5713
    1SOL     OW 7553   3.800   1.240   3.023  0.1305  0.0648 -0.4112
    1SOL    HW2 7554   3.819   1.331   3.046 -0.3817  0.2591 -0.7374
    1SOL    HW3 7555   3.790   1.242   2.928  0.0168 -0.3163 -0.4068
    1SOL    MW4 7556   3.801   1.252   3.013  0.0479  0.0403 -0.4537
    1SOL     OW 7557   3.812   1.500   3.123 -0.0680 -0.1458 -0.1784
    1SOL    HW2 7558   3.810   1.493   3.219 -1.1108 -1.1990 -0.2629
    1SOL    HW3 7559   3.734   1.551   3.101  0.0352 -0.1190 -0.4843
    1SOL    MW4 7560   3.802   1.506   3.133 -0.1919 -0.2812 -0.2298
    1SOL     OW 7561   3.571   1.627   3.070 -0.1283 -0.5906 -0.2319
    1SOL    HW2 7562   3.583   1.716   3.103  0.9710 -0.4994 -0.8564
    1SOL    HW3 7563   3.559   1.639   2.975 -0.0628 -1.0941 -0.3051
    1SOL    MW4 7564   3.571   1.640   3.062  0.0255 -0.6450 -0.3242
    1SOL     OW 7565   3.603   1.876   3.156 -0.1613  0.2576 -0.2369
    1SOL    HW2 7566   3.616   1.874   3.251 -1.2863 -0.0566 -0.0777
    1SOL    HW3 7567   3.681   1.919   3.122  0.6213 -0.3319  0.7676
    1SOL    MW4 7568   3.615   1.881   3.164 -0.2065  0.1384 -0.0837
    1SOL     OW 7569   3.818   2.023   3.043 -0.7073 -0.1839 -0.1857
    1SOL    HW2 7570   3.810   2.118   3.051 -0.3888 -0.1922  0.1918
    1SOL    HW3 7571   3.836   2.009   2.950 -0.2463  0.1574 -0.1504
    1SOL    MW4 7572   3.819   2.034   3.032 -0.6044 -0.1402 -0.1311
    1SOL     OW 7573   3.797   2.281   3.115 -0.2481 -0.0166 -0.0779
    1SOL    HW2 7574   3.793   2.298   3.209 -1.3327  0.1037 -0.1444
    1SOL    HW3 7575   3.729   2.336   3.078  0.4665  0.2638 -0.9924
    1SOL    MW4 7576   3.788   2.291   3.123 -0.2971  0.0360 -0.2072
    1SOL     OW 7577   3.575   2.406   3.030 -0.3044 -0.0047  0.6831
    1SOL    HW2 7578   3.577   2.499   3.051 -2.0600  0.4956 -1.1522
    1SOL    HW3 7579   3.495   2.374   3.071 -1.4510  0.0565 -1.3959
    1SOL    MW4 7580   3.564   2.414   3.038 -0.6874  0.0696  0.1667
    1SOL     OW 7581   3.619   2.684   3.109  0.4347 -0.1217  0.3516
    1SOL    HW2 7582   3.620   2.691   3.205  1.1744  0.3421  0.3116
    1SOL    HW3 7583   3.698   2.730   3.081  0.5226 -0.7578 -0.4521
    1SOL    MW4 7584   3.629   2.691   3.118  0.5441 -0.1442  0.2401
    1SOL     OW 7585   3.811   2.860   2.987 -0.4601  0.4733  0.2291
    1SOL    HW2 7586   3.808   2.945   3.031  0.3103  0.7966 -0.3346
    1SOL    HW3 7587   3.803   2.881   2.894  0.9937  0.0367 -0.0114
    1SOL    MW4 7588   3.810   2.874   2.981 -0.1667  0.4582  0.1230
    1SOL     OW 7589   3.794   3.112   3.140  0.2909  0.2923  0.2522
    1SOL    HW2 7590   3.872   3.158   3.110  1.6955 -2.8950 -1.1685
    1SOL    HW3 7591   3.721   3.170   3.116  1.9667  1.7395 -1.4742
    1SOL    MW4 7592   3.794   3.126   3.133  0.6971  0.0627 -0.1631
    1SOL     OW 7593   3.562   3.247   3.063  0.0823 -0.1885 -0.1911
    1SOL    HW2 7594   3.497   3.186   3.098  0.6736 -0.8948 -0.3095
    1SOL    HW3 7595   3.550   3.242   2.968 -0.2235  0.2760 -0.1760
    1SOL    MW4 7596   3.552   3.238   3.055  0.1202 -0.2205 -0.2043
    1SOL     OW 7597   3.584   3.510   3.136  0.0452  0.3422 -0.3435
    1SOL    HW2 7598   3.674   3.530   3.109  0.6814 -0.5958  1.0268
    1SOL    HW3 7599   3.567   3.422   3.102 -1.0422  1.2278 -2.2010
    1SOL    MW4 7600   3.594   3.501   3.128 -0.0145  0.3352 -0.4079
    1SOL     OW 7601   3.835   3.581   3.043 -0.1322  0.0109  0.0871
    1SOL    HW2 7602   3.818   3.672   3.067 -1.4088  0.0956 -1.1167
    1SOL    HW3 7603   3.816   3.576   2.949  0.0533 -1.4649  0.1062
    1SOL    MW4 7604   3.831   3.592   3.034 -0.2763 -0.1724 -0.0691
    1SOL     OW 7605   3.844   3.853   3.100  0.0444  0.1825 -0.0504
    1SOL    HW2 7606   3.833   3.858   3.195  0.9643 -0.8283  0.1149
    1SOL    HW3 7607   3.776   3.910   3.065  0.4694  1.5265  1.2577
    1SOL    MW4 7608   3.834   3.861   3.108  0.2217  0.2263  0.1440
    1SOL     OW 7609   3.614   4.000   3.030  0.6675 -0.0722  0.2590
    1SOL    HW2 7610   3.531   3.955   3.049 -0.2877  1.6544  0.3421
    1SOL    HW3 7611   3.613   4.011   2.935  0.3725  0.6948  0.3414
    1SOL    MW4 7612   3.603   3.995   3.020  0.5026  0.2570  0.2809
    1SOL     OW 7613   3.582   4.254   3.120 -0.4100 -0.1118  0.5835
    1SOL    HW2 7614   3.655   4.296   3.075 -0.9774  0.7984  0.4895
    1SOL    HW3 7615   3.573   4.168   3.079 -1.5481  1.0727 -1.7243
    1SOL    MW4 7616   3.590   4.248   3.109 -0.6351  0.1650  0.2666
    1SOL     OW 7617   3.810   4.383   3.018  0.2735  0.4267  0.5349
    1SOL    HW2 7618   3.892   4.352   3.056  0.1268 -0.1166  0.4259
    1SOL    HW3 7619   3.827   4.387   2.924  0.9052  2.6073  0.7208
    1SOL    MW4 7620   3.823   4.379   3.011  0.3374  0.6428  0.5450
    1SOL     OW 7621   4.237   4.625   3.069  0.3069 -0.0594 -0.0142
    1SOL    HW2 7622   4.257   4.617   3.162  0.7105 -0.7742 -0.1576
    1SOL    HW3 7623   4.249   4.537   3.034  0.0433  0.1780 -0.7235
    1SOL    MW4 7624   4.241   4.612   3.076  0.3252 -0.1225 -0.1266
    1SOL     OW 7625   4.008   0.106   2.986 -0.0900  0.8729  0.5663
    1SOL    HW2 7626   4.089   0.061   3.012 -0.3254 -0.3511 -0.7628
    1SOL    HW3 7627   3.938   0.055   3.027 -0.4512 -0.9224 -2.1271
    1SOL    MW4 7628   4.009   0.093   2.995 -0.1688  0.4745  0.0355
    1SOL     OW 7629   4.021   0.344   3.135 -0.3034  0.1604  0.0104
    1SOL    HW2 7630   4.097   0.376   3.087 -0.3109 -1.1576 -0.8951
    1SOL    HW3 7631   4.012   0.253   3.109 -0.8741 -0.3231  1.8095
    1SOL    MW4 7632   4.030   0.337   3.125 -0.3796 -0.0773  0.1280
    1SOL     OW 7633   4.233   0.466   3.002 -0.2942  0.2627  0.1630
    1SOL    HW2 7634   4.238   0.557   3.032  1.4296  0.1515  0.2459
    1SOL    HW3 7635   4.236   0.471   2.907  0.2935  0.2614  0.1824
    1SOL    MW4 7636   4.234   0.479   2.993  0.0110  0.2479  0.1762
    1SOL     OW 7637   4.265   0.723   3.124  0.4221 -0.5158  0.0526
    1SOL    HW2 7638   4.190   0.778   3.102  1.0733  0.8478  1.1989
    1SOL    HW3 7639   4.340   0.766   3.083  0.7608 -1.2042 -0.0585
    1SOL    MW4 7640   4.265   0.736   3.116  0.5531 -0.4267  0.1891
    1SOL     OW 7641   4.059   0.874   3.031  0.2567  0.2182  0.3824
    1SOL    HW2 7642   4.060   0.966   3.058 -0.2232 -0.1247  1.5820
    1SOL    HW3 7643   4.057   0.878   2.935 -0.7085  1.4704  0.4301
    1SOL    MW4 7644   4.059   0.887   3.022  0.0663  0.3381  0.5467
    1SOL     OW 7645   4.067   1.145   3.058  0.0453  0.2935  0.4851
    1SOL    HW2 7646   4.067   1.133   3.153  0.2054  2.6301  0.8134
    1SOL    HW3 7647   3.975   1.165   3.037  0.0707  0.1026  0.1916
    1SOL    MW4 7648   4.055   1.146   3.068  0.0696  0.5765  0.4900
    1SOL     OW 7649   4.281   1.291   2.969  0.3175  0.1749 -0.2782
    1SOL    HW2 7650   4.194   1.252   2.982  1.2105 -1.5715  0.6465
    1SOL    HW3 7651   4.294   1.289   2.875 -0.0604 -0.8696 -0.3153
    1SOL    MW4 7652   4.271   1.286   2.959  0.3853 -0.1934 -0.1612
    1SOL     OW 7653   4.229   1.528   3.108  0.1826  0.1064  0.0913
    1SOL    HW2 7654   4.150   1.572   3.077 -0.1433 -0.6000 -0.0908
    1SOL    HW3 7655   4.241   1.454   3.048  0.8095  0.0320  0.3000
    1SOL    MW4 7656   4.220   1.524   3.096  0.2227  0.0033  0.0947
    1SOL     OW 7657   4.012   1.675   3.050 -0.0530  0.4705  0.0194
    1SOL    HW2 7658   4.009   1.747   3.114 -0.1482 -0.4264  1.0365
    1SOL    HW3 7659   3.948   1.612   3.082  1.4980 -1.0036  0.2656
    1SOL    MW4 7660   4.003   1.676   3.063  0.1392  0.1576  0.1860
    1SOL     OW 7661   4.031   1.913   3.166 -0.2065 -0.0088  0.3886
    1SOL    HW2 7662   4.108   1.947   3.119  0.1518  0.9034  1.6051
    1SOL    HW3 7663   3.959   1.967   3.135  0.1915  1.2208  1.5691
    1SOL    MW4 7664   4.032   1.925   3.156 -0.1063  0.2739  0.7045
    1SOL     OW 7665   4.259   1.997   3.055 -0.4363 -0.2280 -0.2648
    1SOL    HW2 7666   4.251   2.086   3.089 -0.0216 -0.7417  1.2022
    1SOL    HW3 7667   4.268   2.009   2.960 -3.4777  1.1162 -0.4306
    1SOL    MW4 7668   4.259   2.011   3.047 -0.7830 -0.1183 -0.0932
    1SOL     OW 7669   4.228   2.275   3.112 -0.0581  0.1329 -0.0835
    1SOL    HW2 7670   4.152   2.320   3.076 -0.3539  0.2268  0.6637
    1SOL    HW3 7671   4.303   2.322   3.075 -0.3654  0.7817  0.1225
    1SOL    MW4 7672   4.228   2.287   3.102 -0.1383  0.2310  0.0420
    1SOL     OW 7673   4.014   2.404   3.020 -0.1527 -0.3159 -0.6385
    1SOL    HW2 7674   4.008   2.495   3.051  1.2016 -0.1061 -0.9632
    1SOL    HW3 7675   3.938   2.360   3.060  0.9230  0.2193  2.0808
    1SOL    MW4 7676   4.003   2.410   3.029  0.1674 -0.2174 -0.3223
    1SOL     OW 7677   4.004   2.679   3.089 -0.1194  0.5359 -0.2065
    1SOL    HW2 7678   3.993   2.679   3.184  0.8182  1.9903 -0.0844
    1SOL    HW3 7679   3.938   2.740   3.057 -0.6506 -0.2017 -0.5206
    1SOL    MW4 7680   3.994   2.687   3.097 -0.0658  0.6306 -0.2320
    1SOL     OW 7681   4.267   2.805   3.035 -0.1354  0.6347 -0.2059
    1SOL    HW2 7682   4.185   2.756   3.046 -0.2973  1.1415  0.9876
    1SOL    HW3 7683   4.336   2.742   3.056 -0.2292  0.2374 -1.1026
    1SOL    MW4 7684   4.265   2.790   3.039 -0.1693  0.6492 -0.1667
    1SOL     OW 7685   4.266   3.070   3.138 -0.1947 -0.0987  0.5942
    1SOL    HW2 7686   4.193   3.113   3.095 -0.5790 -0.8410  0.4901
    1SOL    HW3 7687   4.254   2.977   3.117  0.7075 -0.2365  0.6732
    1SOL    MW4 7688   4.255   3.063   3.129 -0.1264 -0.2148  0.5906
    1SOL     OW 7689   4.042   3.189   3.027  0.5419  0.2151  0.3678
    1SOL    HW2 7690   4.043   3.282   3.051 -1.3053  0.2631  0.3556
    1SOL    HW3 7691   4.024   3.188   2.933 -1.1157 -0.1655  0.6656
    1SOL    MW4 7692   4.039   3.201   3.018  0.0792  0.1712  0.4055
    1SOL     OW 7693   4.061   3.452   3.139 -0.0694 -0.3033  0.0506
    1SOL    HW2 7694   4.067   3.464   3.234  0.9366  0.6797 -0.1195
    1SOL    HW3 7695   3.991   3.511   3.111  0.7449  0.6521 -0.0120
    1SOL    MW4 7696   4.053   3.461   3.148  0.1707 -0.0474  0.0198
    1SOL     OW 7697   4.275   3.604   3.039 -0.2996  0.2459 -0.1091
    1SOL    HW2 7698   4.263   3.695   3.066 -0.9809 -0.2458  1.2688
    1SOL    HW3 7699   4.202   3.557   3.079  1.1434 -1.2298  0.8338
    1SOL    MW4 7700   4.264   3.610   3.048 -0.1993 -0.0138  0.1969
    1SOL     OW 7701   4.262   3.877   3.098  0.3643  0.0522 -0.1941
    1SOL    HW2 7702   4.187   3.929   3.070 -0.0451  0.2870  1.3103
    1SOL    HW3 7703   4.338   3.920   3.058 -0.1467  0.7664 -0.3948
    1SOL    MW4 7704   4.262   3.890   3.089  0.2427  0.1774 -0.0219
    1SOL     OW 7705   4.031   4.014   2.985  0.1377 -0.4227  0.0074
    1SOL    HW2 7706   4.022   4.088   3.045  0.4232  0.2755 -0.7982
    1SOL    HW3 7707   3.984   3.942   3.027  1.9320 -0.4943  1.9812
    1SOL    MW4 7708   4.024   4.014   2.998  0.4120 -0.3405  0.1616
    1SOL     OW 7709   4.048   4.243   3.125  0.3371 -0.3187 -0.0202
    1SOL    HW2 7710   4.074   4.217   3.213  0.6379 -1.4942 -0.4456
    1SOL    HW3 7711   4.125   4.287   3.090  0.1672  0.2789  0.3534
    1SOL    MW4 7712   4.062   4.245   3.132  0.3543 -0.3948 -0.0272
    1SOL     OW 7713   4.264   4.345   2.988  0.3690  0.1562  0.0941
    1SOL    HW2 7714   4.347   4.309   3.021  0.9107  1.3528  0.0552
    1SOL    HW3 7715   4.271   4.336   2.892  0.5057  0.3746  0.0838
    1SOL    MW4 7716   4.276   4.339   2.979  0.4587  0.3428  0.0877
    1SOL     OW 7717   0.224   4.657   3.381 -0.1059 -0.0015 -0.3288
    1SOL    HW2 7718   0.315   4.680   3.398  0.0358 -0.0622 -0.9807
    1SOL    HW3 7719   0.208   4.579   3.433  0.6881 -0.9204 -1.4274
    1SOL    MW4 7720   0.234   4.650   3.390  0.0175 -0.1311 -0.5598
    1SOL     OW 7721   4.470   0.091   3.461 -0.5190 -0.1927  0.2205
    1SOL    HW2 7722   4.473   0.176   3.418 -0.1444 -0.9787 -1.3534
    1SOL    HW3 7723   4.553   0.049   3.439 -0.2395 -0.5438  1.8801
    1SOL    MW4 7724   4.481   0.096   3.453 -0.4330 -0.3427  0.2317
    1SOL     OW 7725   4.463   0.345   3.329 -0.2853  0.0341  0.3337
    1SOL    HW2 7726   4.395   0.394   3.375 -0.4990 -0.1398  0.2072
    1SOL    HW3 7727   4.545   0.386   3.356 -0.2315 -1.5206  2.6724
    1SOL    MW4 7728   4.465   0.357   3.338 -0.3064 -0.1940  0.6256
    1SOL     OW 7729   0.217   0.464   3.436  0.2071 -0.4697  0.2780
    1SOL    HW2 7730   0.308   0.439   3.422  0.2981 -0.5796  1.0669
    1SOL    HW3 7731   0.211   0.554   3.403  0.6503 -0.3885  0.4223
    1SOL    MW4 7732   0.228   0.473   3.430  0.2776 -0.4734  0.4010
    1SOL     OW 7733   0.213   0.721   3.356  0.3169 -0.6082 -0.1589
    1SOL    HW2 7734   0.292   0.762   3.390 -0.0389  0.6449 -0.7755
    1SOL    HW3 7735   0.142   0.779   3.384 -0.3594 -1.5927  0.1906
    1SOL    MW4 7736   0.214   0.734   3.364  0.1808 -0.5727 -0.1945
    1SOL     OW 7737   0.038   0.893   3.477  0.5462 -0.2405 -0.0036
    1SOL    HW2 7738   0.042   0.902   3.572  1.4778  0.5692 -0.1169
    1SOL    HW3 7739   0.024   0.982   3.445  0.4987 -0.4744 -0.6438
    1SOL    MW4 7740   0.036   0.906   3.485  0.6629 -0.1646 -0.1032
    1SOL     OW 7741   0.005   1.150   3.399 -0.6757  0.1434  0.1961
    1SOL    HW2 7742   0.089   1.179   3.437 -0.9308 -1.2239  1.8396
    1SOL    HW3 7743   0.019   1.156   3.305  1.1463  0.3453  0.4513
    1SOL    MW4 7744   0.018   1.155   3.392 -0.4690 -0.0103  0.4463
    1SOL     OW 7745   0.224   1.274   3.494 -0.2249 -0.0164  0.0357
    1SOL    HW2 7746   0.253   1.303   3.580  2.6631  0.8022 -1.1532
    1SOL    HW3 7747   0.224   1.353   3.441  0.0353 -0.8574 -1.2377
    1SOL    MW4 7748   0.227   1.288   3.498  0.1905 -0.0194 -0.2892
    1SOL     OW 7749   0.205   1.513   3.372  0.4367  0.0603  0.0033
    1SOL    HW2 7750   0.287   1.553   3.400  0.8406 -0.2494 -0.7373
    1SOL    HW3 7751   0.202   1.527   3.277  0.0411 -0.6749 -0.0929
    1SOL    MW4 7752   0.215   1.520   3.363  0.4378 -0.0776 -0.1070
    1SOL     OW 7753   4.475   1.615   3.553 -0.3286  0.1232 -0.2116
    1SOL    HW2 7754   4.400   1.578   3.507  0.1210 -1.2785  0.1706
    1SOL    HW3 7755   4.551   1.586   3.503 -0.0226  1.3862 -0.4962
    1SOL    MW4 7756   4.475   1.606   3.540 -0.2284  0.1049 -0.1988
    1SOL     OW 7757   0.028   1.904   3.430 -0.5421  0.0338 -0.3912
    1SOL    HW2 7758   0.028   1.817   3.471  0.3740  0.0553 -0.3450
    1SOL    HW3 7759   0.027   1.886   3.336  2.4430 -0.0579 -0.4280
    1SOL    MW4 7760   0.028   1.890   3.423 -0.0274  0.0244 -0.3901
    1SOL     OW 7761   0.250   2.035   3.499 -0.3705  0.0140 -0.0743
    1SOL    HW2 7762   0.173   1.985   3.474  0.1274 -1.0969  0.5873
    1SOL    HW3 7763   0.245   2.043   3.594  0.2884  0.0036 -0.0313
    1SOL    MW4 7764   0.240   2.030   3.508 -0.2179 -0.1340  0.0186
    1SOL     OW 7765   0.215   2.293   3.413  0.2162 -0.6692  0.4198
    1SOL    HW2 7766   0.127   2.325   3.434 -0.0220 -0.4427 -0.8532
    1SOL    HW3 7767   0.221   2.207   3.454 -0.3627 -0.4116  1.0495
    1SOL    MW4 7768   0.204   2.286   3.421  0.1084 -0.6056  0.3352
    1SOL     OW 7769   4.467   2.392   3.497  0.2336  0.6158 -0.2332
    1SOL    HW2 7770   4.462   2.395   3.593  1.1306 -1.4276 -0.0879
    1SOL    HW3 7771   4.389   2.344   3.471  1.0737 -0.6842 -0.3707
    1SOL    MW4 7772   4.456   2.386   3.507  0.4630  0.1743 -0.2322
    1SOL     OW 7773   4.462   2.676   3.386 -0.0506 -0.0160 -0.1126
    1SOL    HW2 7774   4.548   2.698   3.421 -0.5527  1.2123  0.3895
    1SOL    HW3 7775   4.447   2.585   3.412  1.0380 -0.1940 -0.1023
    1SOL    MW4 7776   4.471   2.667   3.394  0.0268  0.1228 -0.0451
    1SOL     OW 7777   0.210   2.793   3.452  0.1469  0.3119 -0.2407
    1SOL    HW2 7778   0.293   2.756   3.422  0.2134  0.7361 -0.5826
    1SOL    HW3 7779   0.224   2.888   3.450  0.1008  0.3466  0.9962
    1SOL    MW4 7780   0.223   2.801   3.448  0.1496  0.3726 -0.1225
    1SOL     OW 7781   0.235   3.078   3.430 -0.0834 -0.2623 -0.3017
    1SOL    HW2 7782   0.158   3.128   3.457  0.8410  0.7979  0.3930
    1SOL    HW3 7783   0.237   3.088   3.335 -0.7594 -0.2281 -0.3158
    1SOL    MW4 7784   0.225   3.086   3.421 -0.0506 -0.1183 -0.2120
    1SOL     OW 7785   0.035   3.232   3.540 -0.5217 -0.4312 -0.6522
    1SOL    HW2 7786  -0.039   3.187   3.500 -0.4865  0.3928 -1.6541
    1SOL    HW3 7787   0.045   3.312   3.489  0.3770 -0.0149  0.1620
    1SOL    MW4 7788   0.026   3.236   3.528 -0.3985 -0.2673 -0.6769
    1SOL     OW 7789   0.009   3.481   3.423 -0.3134  0.3800  0.2597
    1SOL    HW2 7790  -0.070   3.503   3.472 -0.6746 -1.3168  0.4732
    1SOL    HW3 7791  -0.019   3.482   3.331 -0.4999  0.1458  0.3135
    1SOL    MW4 7792  -0.005   3.484   3.417 -0.3857  0.1252  0.2952
    1SOL     OW 7793   0.254   3.576   3.505 -0.0510 -0.6578  0.1003
    1SOL    HW2 7794   0.252   3.589   3.599  1.0662 -0.9912  0.1827
    1SOL    HW3 7795   0.165   3.550   3.482 -0.8845  1.5451  0.7369
    1SOL    MW4 7796   0.242   3.574   3.514 -0.0136 -0.4113  0.1948
    1SOL     OW 7797   0.232   3.838   3.418 -0.0662  0.0546 -0.1678
    1SOL    HW2 7798   0.147   3.868   3.451  1.1538  1.4372  1.8386
    1SOL    HW3 7799   0.237   3.746   3.445 -1.3377 -0.3436 -1.2118
    1SOL    MW4 7800   0.221   3.830   3.426 -0.0730  0.1845 -0.0408
    1SOL     OW 7801   4.485   3.976   3.497  0.5892 -0.0475 -0.4305
    1SOL    HW2 7802   4.462   3.982   3.590  0.5931 -0.1779 -0.4211
    1SOL    HW3 7803   4.503   4.066   3.471  0.9181 -0.0498 -0.2196
    1SOL    MW4 7804   4.485   3.989   3.506  0.6328 -0.0651 -0.4015
    1SOL     OW 7805   0.025   4.239   3.402  0.3003  0.3235 -0.4552
    1SOL    HW2 7806  -0.052   4.290   3.427 -0.9094 -0.5562 -2.3163
    1SOL    HW3 7807   0.098   4.284   3.445 -1.3100  0.7648  1.8887
    1SOL    MW4 7808   0.024   4.252   3.411 -0.0718  0.2656 -0.3915
    1SOL     OW 7809   0.243   4.393   3.508 -0.2248  0.2244 -0.4506
    1SOL    HW2 7810   0.233   4.389   3.603 -1.0737  0.4739 -0.5235
    1SOL    HW3 7811   0.336   4.379   3.493 -0.2963 -1.1964  0.3472
    1SOL    MW4 7812   0.254   4.391   3.518 -0.3462  0.0701 -0.3548
    1SOL     OW 7813   0.700   4.637   3.352 -0.2941  0.0388  0.1824
    1SOL    HW2 7814   0.779   4.685   3.378 -0.7669  0.8474  0.1516
    1SOL    HW3 7815   0.691   4.656   3.259  0.1103 -0.9860 -0.0722
    1SOL    MW4 7816   0.709   4.646   3.343 -0.3031  0.0105  0.1447
    1SOL     OW 7817   0.460   0.084   3.453 -0.1495 -0.1804  0.4240
    1SOL    HW2 7818   0.485   0.104   3.543 -0.2210 -1.0913  0.6499
    1SOL    HW3 7819   0.539   0.047   3.413 -0.1873  0.0007  0.1765
    1SOL    MW4 7820   0.473   0.082   3.460 -0.1639 -0.2767  0.4210
    1SOL     OW 7821   0.468   0.358   3.375 -0.3013 -0.2551  0.1296
    1SOL    HW2 7822   0.539   0.404   3.419 -0.1044 -0.3902 -0.0423
    1SOL    HW3 7823   0.468   0.270   3.414  1.1173 -0.9925 -1.4583
    1SOL    MW4 7824   0.477   0.352   3.386 -0.0882 -0.3702 -0.1028
    1SOL     OW 7825   0.674   0.510   3.498 -0.2609  0.1794  0.1405
    1SOL    HW2 7826   0.681   0.517   3.593 -0.6908 -1.8244  0.3424
    1SOL    HW3 7827   0.753   0.463   3.470 -0.4853  0.1181 -0.4105
    1SOL    MW4 7828   0.685   0.505   3.506 -0.3473 -0.0930  0.0944
    1SOL     OW 7829   0.733   0.759   3.399  0.2543  0.4217  0.3349
    1SOL    HW2 7830   0.648   0.796   3.421 -0.5636 -0.7145 -0.8435
    1SOL    HW3 7831   0.725   0.666   3.421  1.1031  0.2487 -0.0632
    1SOL    MW4 7832   0.721   0.751   3.405  0.2584  0.2490  0.1271
    1SOL     OW 7833   0.450   0.861   3.480 -0.0796  0.4087  0.0931
    1SOL    HW2 7834   0.483   0.854   3.569 -2.1133 -0.0350  0.8542
    1SOL    HW3 7835   0.461   0.953   3.457  1.8365  0.2239  0.2301
    1SOL    MW4 7836   0.456   0.872   3.488 -0.0951  0.3258  0.2115
    1SOL     OW 7837   0.475   1.137   3.397 -0.1496 -0.2613 -0.2028
    1SOL    HW2 7838   0.393   1.175   3.427  0.3501  1.1902 -0.6184
    1SOL    HW3 7839   0.474   1.150   3.302  0.5071 -0.3305 -0.2207
    1SOL    MW4 7840   0.464   1.144   3.388  0.0030 -0.0790 -0.2601
    1SOL     OW 7841   0.687   1.275   3.501  0.2925 -0.2213  0.1128
    1SOL    HW2 7842   0.606   1.228   3.482 -0.2922  0.3288  1.2094
    1SOL    HW3 7843   0.674   1.362   3.462  1.3680 -0.9301 -1.9040
    1SOL    MW4 7844   0.674   1.280   3.493  0.3573 -0.2424 -0.0088
    1SOL     OW 7845   0.680   1.523   3.389  0.4190 -0.0085  0.3575
    1SOL    HW2 7846   0.748   1.585   3.416 -0.2003  0.2606  1.3276
    1SOL    HW3 7847   0.601   1.552   3.436 -0.5132  0.0345 -1.2068
    1SOL    MW4 7848   0.678   1.535   3.399  0.2143  0.0327  0.2792
    1SOL     OW 7849   0.442   1.629   3.467 -0.2152  0.0384  0.5954
    1SOL    HW2 7850   0.438   1.647   3.560 -1.6778 -1.1003  0.7809
    1SOL    HW3 7851   0.460   1.714   3.426 -0.0461  0.6227  1.8789
    1SOL    MW4 7852   0.444   1.643   3.474 -0.3859 -0.0348  0.7892
    1SOL     OW 7853   0.439   1.891   3.340  0.0275  0.1616  0.2340
    1SOL    HW2 7854   0.364   1.936   3.380 -0.8113  0.0428 -1.1678
    1SOL    HW3 7855   0.432   1.911   3.246  0.9765 -0.9666 -0.0926
    1SOL    MW4 7856   0.428   1.899   3.333  0.0420 -0.0027  0.0062
    1SOL     OW 7857   0.670   2.074   3.419 -0.1031  0.1091  0.1199
    1SOL    HW2 7858   0.669   2.079   3.515  0.3169  0.8552  0.0839
    1SOL    HW3 7859   0.592   2.022   3.398  0.1208 -0.5556  0.8943
    1SOL    MW4 7860   0.659   2.068   3.429 -0.0181  0.1197  0.2172
    1SOL     OW 7861   0.697   2.338   3.385  0.3660 -0.0745 -0.2840
    1SOL    HW2 7862   0.778   2.360   3.432 -1.1025 -0.4068  2.4673
    1SOL    HW3 7863   0.683   2.245   3.403 -0.4012 -0.1371 -1.1439
    1SOL    MW4 7864   0.706   2.329   3.393  0.0710 -0.1264 -0.0343
    1SOL     OW 7865   0.456   2.451   3.451  0.3483 -0.2137  0.2440
    1SOL    HW2 7866   0.536   2.414   3.413  0.6023  0.4248  0.1534
    1SOL    HW3 7867   0.386   2.395   3.417  0.6168  0.0821 -0.8247
    1SOL    MW4 7868   0.457   2.438   3.442  0.4172 -0.0906  0.0908
    1SOL     OW 7869   0.476   2.725   3.377  0.0492 -0.1232  0.1008
    1SOL    HW2 7870   0.471   2.636   3.412 -1.2656 -0.3789 -0.7165
    1SOL    HW3 7871   0.445   2.717   3.287 -0.8797  1.3013  0.2838
    1SOL    MW4 7872   0.472   2.712   3.370 -0.2468  0.0308  0.0174
    1SOL     OW 7873   0.687   2.843   3.499  0.5632  0.3168  0.0131
    1SOL    HW2 7874   0.756   2.793   3.455  0.1689 -0.2853  0.0598
    1SOL    HW3 7875   0.606   2.810   3.460  0.1027 -1.3094  2.2079
    1SOL    MW4 7876   0.685   2.832   3.488  0.4504  0.0229  0.3090
    1SOL     OW 7877   0.655   3.079   3.367  0.1547  0.1872  0.4461
    1SOL    HW2 7878   0.585   3.113   3.422  0.2578  0.7328  0.2472
    1SOL    HW3 7879   0.674   2.993   3.403  0.0974  0.4633  1.1582
    1SOL    MW4 7880   0.648   3.072   3.379  0.1607  0.2954  0.5138
    1SOL     OW 7881   0.472   3.193   3.533 -0.0518  0.2784  0.5157
    1SOL    HW2 7882   0.463   3.211   3.626 -1.4093  0.5363  0.3511
    1SOL    HW3 7883   0.383   3.172   3.504  0.1994  1.0426 -0.8802
    1SOL    MW4 7884   0.459   3.193   3.541 -0.1978  0.4132  0.3099
    1SOL     OW 7885   0.496   3.455   3.437  0.6021  0.3688 -0.2798
    1SOL    HW2 7886   0.477   3.365   3.466  0.8214  0.2361 -0.5461
    1SOL    HW3 7887   0.415   3.503   3.454  0.8428  0.3795  0.9115
    1SOL    MW4 7888   0.483   3.449   3.443  0.6628  0.3526 -0.1578
    1SOL     OW 7889   0.684   3.619   3.564  0.2109 -0.3739  0.1156
    1SOL    HW2 7890   0.763   3.582   3.525  1.0445 -0.5751  1.9626
    1SOL    HW3 7891   0.614   3.557   3.539  1.2016 -1.9892  1.2373
    1SOL    MW4 7892   0.685   3.606   3.556  0.4516 -0.6137  0.5071
    1SOL     OW 7893   0.639   3.814   3.378  0.5879 -0.2426  0.4019
    1SOL    HW2 7894   0.577   3.875   3.418  0.5612 -0.1695  0.2494
    1SOL    HW3 7895   0.652   3.745   3.444  0.8489  0.0836  0.6953
    1SOL    MW4 7896   0.633   3.813   3.392  0.6189 -0.1900  0.4203
    1SOL     OW 7897   0.444   4.004   3.487 -0.0216 -0.6559 -0.1681
    1SOL    HW2 7898   0.440   4.091   3.446 -0.9342 -0.3339  0.5985
    1SOL    HW3 7899   0.365   3.959   3.456  0.5186 -1.2651 -0.6723
    1SOL    MW4 7900   0.433   4.010   3.477 -0.0708 -0.6943 -0.1333
    1SOL     OW 7901   0.501   4.303   3.410 -0.2893  0.4921  0.4467
    1SOL    HW2 7902   0.589   4.335   3.428  0.0786 -0.5867  0.6000
    1SOL    HW3 7903   0.506   4.266   3.322 -0.1362 -1.1405  1.1270
    1SOL    MW4 7904   0.513   4.302   3.401 -0.2206  0.1345  0.5567
    1SOL     OW 7905   0.739   4.399   3.492 -0.3841 -0.3804 -0.6110
    1SOL    HW2 7906   0.811   4.348   3.454  0.2796 -0.3726  0.6153
    1SOL    HW3 7907   0.730   4.474   3.434  0.8737 -0.1657 -0.5479
    1SOL    MW4 7908   0.747   4.402   3.480 -0.1306 -0.3510 -0.4411
    1SOL     OW 7909   1.101   4.621   3.391  0.2399 -0.5962  0.7795
    1SOL    HW2 7910   1.174   4.670   3.429  0.0621  0.5112 -0.2845
    1SOL    HW3 7911   1.105   4.639   3.298 -1.0187 -1.0276  0.6265
    1SOL    MW4 7912   1.111   4.630   3.384  0.0504 -0.5074  0.6189
    1SOL     OW 7913   0.891   0.114   3.481 -0.2498 -0.0958  0.7230
    1SOL    HW2 7914   0.874   0.092   3.573 -2.8033 -1.2792  0.0415
    1SOL    HW3 7915   0.969   0.063   3.458  0.4407  0.2551  2.2362
    1SOL    MW4 7916   0.899   0.104   3.490 -0.4956 -0.2056  0.8328
    1SOL     OW 7917   0.885   0.362   3.379  0.5579  0.3849 -0.4259
    1SOL    HW2 7918   0.967   0.396   3.413  1.4448 -0.8407 -1.2784
    1SOL    HW3 7919   0.876   0.275   3.418 -1.0519  1.0416  0.7497
    1SOL    MW4 7920   0.894   0.355   3.388  0.4625  0.3099 -0.3831
    1SOL     OW 7921   1.120   0.458   3.468 -0.0448 -0.3733 -0.3115
    1SOL    HW2 7922   1.116   0.450   3.564 -0.9295  1.1003 -0.2200
    1SOL    HW3 7923   1.136   0.551   3.453  0.3201 -0.6436 -1.6027
    1SOL    MW4 7924   1.122   0.469   3.479 -0.1134 -0.2146 -0.4699
    1SOL     OW 7925   1.131   0.736   3.391  0.5379 -0.1437  0.4083
    1SOL    HW2 7926   1.207   0.785   3.423 -0.0007  0.2469  1.1010
    1SOL    HW3 7927   1.056   0.790   3.416  0.0610 -0.3121 -0.6715
    1SOL    MW4 7928   1.131   0.749   3.399  0.4040 -0.1144  0.3576
    1SOL     OW 7929   0.929   0.915   3.513  0.0268 -0.2486 -0.6119
    1SOL    HW2 7930   0.927   1.000   3.470 -2.0950  1.4154  2.5895
    1SOL    HW3 7931   0.852   0.869   3.479  1.4329 -1.1219 -2.6951
    1SOL    MW4 7932   0.918   0.920   3.503 -0.0677 -0.1443 -0.4647
    1SOL     OW 7933   0.912   1.160   3.363 -0.2815  0.1059 -0.3330
    1SOL    HW2 7934   0.987   1.204   3.403 -0.8333  0.7034  0.0700
    1SOL    HW3 7935   0.836   1.201   3.405 -0.7901 -2.1531  1.0137
    1SOL    MW4 7936   0.912   1.171   3.374 -0.4214 -0.1134 -0.1023
    1SOL     OW 7937   1.132   1.254   3.534  0.5541  0.2247  0.2255
    1SOL    HW2 7938   1.129   1.250   3.629  0.8348 -0.5803  0.2045
    1SOL    HW3 7939   1.134   1.348   3.514 -1.7545  0.4477  0.9322
    1SOL    MW4 7940   1.132   1.266   3.544  0.2867  0.1478  0.3161
    1SOL     OW 7941   1.099   1.522   3.435  0.3425 -0.0679 -0.0569
    1SOL    HW2 7942   1.181   1.561   3.466 -0.8415  1.0000  1.7872
    1SOL    HW3 7943   1.108   1.522   3.339  2.3439  0.3189  0.0970
    1SOL    MW4 7944   1.111   1.527   3.426  0.4504  0.1240  0.2065
    1SOL     OW 7945   0.871   1.676   3.490 -0.6279  0.3635 -0.1275
    1SOL    HW2 7946   0.875   1.763   3.452 -1.5631 -0.6576 -2.6791
    1SOL    HW3 7947   0.956   1.637   3.469 -0.3245  0.5360  0.7499
    1SOL    MW4 7948   0.883   1.682   3.482 -0.7113  0.2515 -0.3483
    1SOL     OW 7949   0.888   1.928   3.357  0.5721  0.7051 -0.5684
    1SOL    HW2 7950   0.967   1.963   3.399 -0.2818  0.2473  1.4530
    1SOL    HW3 7951   0.817   1.985   3.389 -0.4432 -1.1763  0.5861
    1SOL    MW4 7952   0.889   1.940   3.367  0.3254  0.3965 -0.1493
    1SOL     OW 7953   1.132   2.006   3.480 -0.1625  0.1083 -0.0233
    1SOL    HW2 7954   1.197   1.945   3.446 -0.8755 -0.2131 -0.8476
    1SOL    HW3 7955   1.157   2.091   3.445  2.0917  0.7155  2.8846
    1SOL    MW4 7956   1.144   2.009   3.471  0.0408  0.1459  0.2515
    1SOL     OW 7957   1.164   2.254   3.384  0.2991  0.2426 -0.6173
    1SOL    HW2 7958   1.233   2.301   3.433  1.4977 -0.1739 -1.8626
    1SOL    HW3 7959   1.182   2.275   3.292 -1.5799  0.5540 -0.9184
    1SOL    MW4 7960   1.176   2.263   3.379  0.2095  0.2286 -0.8216
    1SOL     OW 7961   0.944   2.398   3.484 -0.3910  0.1560 -0.5083
    1SOL    HW2 7962   0.943   2.406   3.580 -1.2240  0.5590 -0.5483
    1SOL    HW3 7963   1.026   2.352   3.465  0.2542  0.9422  0.3315
    1SOL    MW4 7964   0.955   2.393   3.495 -0.4158  0.3130 -0.4029
    1SOL     OW 7965   0.895   2.681   3.362 -0.1262  0.5182 -0.1223
    1SOL    HW2 7966   0.974   2.728   3.389  0.2517  0.2330 -0.7382
    1SOL    HW3 7967   0.901   2.596   3.405 -0.4907  0.7851  0.4669
    1SOL    MW4 7968   0.906   2.676   3.372 -0.1245  0.5159 -0.1259
    1SOL     OW 7969   1.103   2.834   3.469 -0.1760 -0.0497 -0.7588
    1SOL    HW2 7970   1.103   2.823   3.565 -0.6742  0.9323 -0.6471
    1SOL    HW3 7971   1.180   2.785   3.440 -0.2889 -0.7548  0.1019
    1SOL    MW4 7972   1.113   2.826   3.478 -0.2567 -0.0131 -0.6306
    1SOL     OW 7973   1.146   3.102   3.412  0.0007  0.4938 -0.0968
    1SOL    HW2 7974   1.150   3.015   3.452 -0.8525 -0.0292 -1.1411
    1SOL    HW3 7975   1.158   3.087   3.319 -1.6730  1.3187 -0.4717
    1SOL    MW4 7976   1.148   3.088   3.405 -0.3327  0.5338 -0.2842
    1SOL     OW 7977   0.870   3.214   3.457 -0.2781 -0.3624  0.2578
    1SOL    HW2 7978   0.947   3.169   3.423  0.5468 -0.5867  2.3525
    1SOL    HW3 7979   0.796   3.158   3.431  0.5783 -1.9984  1.2717
    1SOL    MW4 7980   0.870   3.201   3.449 -0.0563 -0.6077  0.6678
    1SOL     OW 7981   0.866   3.490   3.388 -0.3398 -0.3497 -0.0575
    1SOL    HW2 7982   0.862   3.396   3.404  0.8881 -0.5919 -1.1128
    1SOL    HW3 7983   0.860   3.498   3.293  0.9064  0.5486 -0.0732
    1SOL    MW4 7984   0.865   3.479   3.378 -0.0134 -0.2632 -0.1986
    1SOL     OW 7985   1.097   3.614   3.474  0.1017  0.9958  0.3990
    1SOL    HW2 7986   1.108   3.599   3.568  0.1207 -0.8091  0.1227
    1SOL    HW3 7987   1.032   3.549   3.447 -0.5795  2.1150 -0.6675
    1SOL    MW4 7988   1.090   3.603   3.483  0.0143  0.9050  0.2215
    1SOL     OW 7989   1.117   3.879   3.372  0.0826  0.5764 -1.0747
    1SOL    HW2 7990   1.197   3.916   3.408 -0.4067  0.3524  0.3095
    1SOL    HW3 7991   1.111   3.792   3.412 -1.1341  0.8099 -0.7237
    1SOL    MW4 7992   1.127   3.872   3.382 -0.1425  0.5774 -0.8457
    1SOL     OW 7993   0.866   3.963   3.461  0.2995  0.4930  0.0343
    1SOL    HW2 7994   0.946   3.921   3.431  0.0943 -0.5764  0.9623
    1SOL    HW3 7995   0.796   3.905   3.433  0.1160 -0.5710  2.6357
    1SOL    MW4 7996   0.867   3.950   3.453  0.2483  0.2115  0.5002
    1SOL     OW 7997   0.928   4.223   3.377 -0.0788  0.2866 -0.0168
    1SOL    HW2 7998   0.897   4.134   3.393  0.1723  0.0333 -0.9104
    1SOL    HW3 7999   0.938   4.229   3.282  0.0849  1.2090  0.0493
    1SOL    MW4 8000   0.925   4.212   3.366 -0.0241  0.3753 -0.1256
    1SOL     OW 8001   1.154   4.363   3.489  0.3743 -0.0262  0.2548
    1SOL    HW2 8002   1.093   4.303   3.447  0.4792 -1.5198  2.1630
    1SOL    HW3 8003   1.130   4.450   3.456 -3.0820 -0.5085  1.3179
    1SOL    MW4 8004   1.143   4.367   3.479 -0.0679 -0.2866  0.6468
    1SOL     OW 8005   1.558   4.647   3.396  0.4145 -0.1955 -0.0806
    1SOL    HW2 8006   1.556   4.560   3.435  0.1617 -0.6314 -1.0404
    1SOL    HW3 8007   1.472   4.684   3.416  0.5587 -0.1257  0.4139
    1SOL    MW4 8008   1.546   4.641   3.404  0.4002 -0.2441 -0.1419
    1SOL     OW 8009   1.322   0.103   3.485 -0.0257 -0.0719  0.3475
    1SOL    HW2 8010   1.308   0.103   3.580 -2.9027  0.8833 -0.0466
    1SOL    HW3 8011   1.324   0.195   3.461  2.3357 -0.2692 -0.3319
    1SOL    MW4 8012   1.321   0.115   3.494 -0.0937  0.0281  0.2058
    1SOL     OW 8013   1.347   0.373   3.381 -0.2380  0.2536  0.4359
    1SOL    HW2 8014   1.410   0.417   3.438  0.3404  0.8321 -0.6531
    1SOL    HW3 8015   1.262   0.403   3.414  0.0088 -0.8668  2.1844
    1SOL    MW4 8016   1.344   0.383   3.393 -0.1291  0.1821  0.5231
    1SOL     OW 8017   1.552   0.495   3.516 -0.2061  0.1039 -0.4238
    1SOL    HW2 8018   1.578   0.509   3.607 -0.0420 -0.9439 -0.3009
    1SOL    HW3 8019   1.624   0.443   3.479 -0.4208  0.2612 -1.0660
    1SOL    MW4 8020   1.565   0.490   3.523 -0.2128 -0.0136 -0.4921
    1SOL     OW 8021   1.555   0.761   3.412 -0.5668  0.2881 -0.2968
    1SOL    HW2 8022   1.474   0.804   3.439 -1.0807 -0.1307 -1.1100
    1SOL    HW3 8023   1.550   0.674   3.453 -0.1185  0.5754  0.3555
    1SOL    MW4 8024   1.543   0.755   3.421 -0.5754  0.2707 -0.3183
    1SOL     OW 8025   1.322   0.893   3.499 -0.0918  0.2211 -0.1069
    1SOL    HW2 8026   1.326   0.903   3.594 -0.2915  0.5927 -0.1382
    1SOL    HW3 8027   1.356   0.975   3.464  2.0894 -0.7545 -0.3618
    1SOL    MW4 8028   1.327   0.905   3.507  0.1698  0.1413 -0.1447
    1SOL     OW 8029   1.362   1.151   3.398 -0.0318 -0.0336  0.2273
    1SOL    HW2 8030   1.428   1.207   3.437 -0.5951 -0.4899  1.8690
    1SOL    HW3 8031   1.280   1.178   3.438 -0.5285 -0.9156 -0.1712
    1SOL    MW4 8032   1.360   1.162   3.408 -0.1717 -0.2102  0.3912
    1SOL     OW 8033   1.622   1.295   3.511  0.0373 -0.4248 -0.0655
    1SOL    HW2 8034   1.603   1.274   3.603  0.7730  0.1739  0.2257
    1SOL    HW3 8035   1.695   1.238   3.488  1.8229  1.5308  0.6253
    1SOL    MW4 8036   1.629   1.284   3.520  0.3700 -0.0876  0.0639
    1SOL     OW 8037   1.586   1.547   3.401 -0.3202 -0.2724  0.1533
    1SOL    HW2 8038   1.604   1.457   3.427  0.2535  0.0699  0.9665
    1SOL    HW3 8039   1.584   1.545   3.305  0.2320 -1.0425  0.1594
    1SOL    MW4 8040   1.588   1.535   3.392 -0.1717 -0.3289  0.2615
    1SOL     OW 8041   1.343   1.653   3.487  0.2734  1.1967  0.1774
    1SOL    HW2 8042   1.360   1.674   3.579  0.1671 -0.2704  0.5513
    1SOL    HW3 8043   1.422   1.607   3.458 -0.3519  0.1907  0.0283
    1SOL    MW4 8044   1.356   1.649   3.495  0.1769  0.8706  0.2069
    1SOL     OW 8045   1.358   1.891   3.355  0.4012  0.2498 -0.1259
    1SOL    HW2 8046   1.412   1.951   3.406  0.4809 -0.4711  0.6494
    1SOL    HW3 8047   1.375   1.805   3.394 -0.1793 -0.1880 -0.8315
    1SOL    MW4 8048   1.368   1.888   3.367  0.3353  0.0969 -0.1166
    1SOL     OW 8049   1.546   2.043   3.477  0.7358 -0.0412  0.3527
    1SOL    HW2 8050   1.621   2.000   3.435 -0.6341 -0.8251 -1.3727
    1SOL    HW3 8051   1.550   2.134   3.447 -0.4358 -0.6672 -1.9178
    1SOL    MW4 8052   1.556   2.049   3.467  0.4004 -0.2272 -0.1748
    1SOL     OW 8053   1.593   2.312   3.375  0.0412 -0.1035  0.0020
    1SOL    HW2 8054   1.522   2.367   3.408  0.2495  0.3304 -0.2703
    1SOL    HW3 8055   1.585   2.317   3.279  0.8037  0.4259 -0.0387
    1SOL    MW4 8056   1.582   2.320   3.366  0.1692  0.0236 -0.0391
    1SOL     OW 8057   1.375   2.433   3.487 -0.4528  0.1783 -0.1026
    1SOL    HW2 8058   1.383   2.437   3.582 -0.5545  0.5789 -0.1107
    1SOL    HW3 8059   1.333   2.516   3.463  1.6203  1.0983 -0.6987
    1SOL    MW4 8060   1.371   2.445   3.496 -0.1926  0.3529 -0.1824
    1SOL     OW 8061   1.311   2.681   3.363  0.3574 -0.0194 -0.0633
    1SOL    HW2 8062   1.395   2.707   3.402  0.0029  0.1091  0.6208
    1SOL    HW3 8063   1.324   2.691   3.269  0.9686  0.4273  0.0677
    1SOL    MW4 8064   1.324   2.685   3.356  0.3912  0.0563  0.0443
    1SOL     OW 8065   1.529   2.783   3.512 -0.1799  0.1408 -0.1505
    1SOL    HW2 8066   1.606   2.734   3.482 -0.1103  0.3781 -0.3613
    1SOL    HW3 8067   1.546   2.873   3.484 -0.5103  0.2035 -0.1467
    1SOL    MW4 8068   1.542   2.788   3.505 -0.2143  0.1805 -0.1779
    1SOL     OW 8069   1.583   3.049   3.449  0.2737  0.2181 -0.5667
    1SOL    HW2 8070   1.659   3.087   3.493  0.5223 -0.8473 -0.0397
    1SOL    HW3 8071   1.511   3.107   3.469  0.6156  0.3295  0.3399
    1SOL    MW4 8072   1.584   3.061   3.457  0.3515  0.0923 -0.3777
    1SOL     OW 8073   1.379   3.249   3.492  0.5377 -0.2638 -0.2440
    1SOL    HW2 8074   1.368   3.250   3.588  1.1617  1.5231 -0.1629
    1SOL    HW3 8075   1.306   3.197   3.460 -0.7937  0.7062  1.1011
    1SOL    MW4 8076   1.368   3.243   3.501  0.4443  0.1001 -0.0558
    1SOL     OW 8077   1.332   3.493   3.362 -0.0263  0.2203  0.0646
    1SOL    HW2 8078   1.340   3.410   3.408 -0.1254  0.8922  1.3217
    1SOL    HW3 8079   1.251   3.532   3.396  1.1266  1.7976  1.1052
    1SOL    MW4 8080   1.322   3.487   3.373  0.1129  0.5171  0.3676
    1SOL     OW 8081   1.574   3.592   3.459  0.1243 -0.0704  0.1941
    1SOL    HW2 8082   1.566   3.605   3.554  1.2197  0.8994  0.1677
    1SOL    HW3 8083   1.487   3.565   3.431 -0.3440  0.1474  1.3978
    1SOL    MW4 8084   1.562   3.590   3.468  0.2071  0.0865  0.3495
    1SOL     OW 8085   1.563   3.859   3.377 -0.4434  0.0734 -0.3447
    1SOL    HW2 8086   1.575   3.773   3.417  0.9272  0.3601 -0.1291
    1SOL    HW3 8087   1.542   3.840   3.285  0.6751 -0.4588 -0.4906
    1SOL    MW4 8088   1.562   3.845   3.370 -0.1149  0.0405 -0.3352
    1SOL     OW 8089   1.337   3.995   3.513  0.0527  0.4175  0.1802
    1SOL    HW2 8090   1.338   4.080   3.470  0.2224  0.6899  0.7282
    1SOL    HW3 8091   1.421   3.955   3.489  0.4961  0.9004  0.9216
    1SOL    MW4 8092   1.348   4.001   3.504  0.1336  0.5169  0.3500
    1SOL     OW 8093   1.360   4.232   3.365  0.1798  0.1961 -0.7975
    1SOL    HW2 8094   1.286   4.284   3.396  0.2538  0.9120 -1.7887
    1SOL    HW3 8095   1.357   4.240   3.270  1.4786  0.1696 -0.8566
    1SOL    MW4 8096   1.350   4.240   3.357  0.3610  0.2871 -0.9360
    1SOL     OW 8097   1.556   4.398   3.486 -0.0265 -0.1795 -0.2190
    1SOL    HW2 8098   1.643   4.372   3.454 -0.4713 -0.3548 -1.3103
    1SOL    HW3 8099   1.495   4.343   3.437 -0.8499  1.1124 -0.6875
    1SOL    MW4 8100   1.559   4.387   3.475 -0.1936 -0.0319 -0.4249
    1SOL     OW 8101   2.006   4.633   3.383 -0.2480 -0.0961  0.0249
    1SOL    HW2 8102   2.089   4.658   3.424  1.1222  1.0888 -3.3348
    1SOL    HW3 8103   1.941   4.689   3.426  1.3409  2.1042 -0.3344
    1SOL    MW4 8104   2.009   4.644   3.394  0.1423  0.3505 -0.4656
    1SOL     OW 8105   1.786   0.105   3.485  0.2198  0.0304  0.1052
    1SOL    HW2 8106   1.775   0.123   3.578  0.7696 -0.6389  0.3023
    1SOL    HW3 8107   1.704   0.065   3.458  0.2435 -0.2257  0.4122
    1SOL    MW4 8108   1.774   0.102   3.493  0.2954 -0.0917  0.1719
    1SOL     OW 8109   1.756   0.363   3.405  0.0648  0.3250 -0.1136
    1SOL    HW2 8110   1.771   0.269   3.419 -2.5136 -0.3741 -1.5737
    1SOL    HW3 8111   1.764   0.374   3.310 -0.1301  1.4991 -0.0027
    1SOL    MW4 8112   1.759   0.352   3.394 -0.3011  0.3877 -0.2916
    1SOL     OW 8113   1.986   0.506   3.477  0.1090  0.2483 -0.0231
    1SOL    HW2 8114   2.001   0.598   3.453  0.2468  0.2036 -0.1076
    1SOL    HW3 8115   1.899   0.486   3.444 -1.3091  1.3345  2.8708
    1SOL    MW4 8116   1.977   0.516   3.469 -0.0601  0.3857  0.3479
    1SOL     OW 8117   2.007   0.762   3.358  0.0681 -0.2772 -0.2523
    1SOL    HW2 8118   2.088   0.802   3.389 -0.6164  1.3868 -0.5485
    1SOL    HW3 8119   2.013   0.765   3.262 -0.6668  0.5708 -0.2844
    1SOL    MW4 8120   2.018   0.768   3.349 -0.1192  0.0542 -0.2956
    1SOL     OW 8121   1.816   0.876   3.497 -0.1950  0.3463  0.3115
    1SOL    HW2 8122   1.884   0.832   3.445  0.3761  2.2923 -0.6683
    1SOL    HW3 8123   1.733   0.843   3.462  0.2111  0.8494 -1.1664
    1SOL    MW4 8124   1.814   0.866   3.485 -0.0660  0.6694 -0.0129
    1SOL     OW 8125   1.810   1.128   3.375 -0.0135 -0.0128  0.1652
    1SOL    HW2 8126   1.895   1.164   3.401 -0.8672  1.6323  0.7550
    1SOL    HW3 8127   1.807   1.041   3.414  1.1824  0.1407  0.5946
    1SOL    MW4 8128   1.821   1.121   3.383  0.0316  0.2245  0.2997
    1SOL     OW 8129   2.036   1.227   3.476 -0.4833 -0.5716 -0.1800
    1SOL    HW2 8130   2.017   1.229   3.570  1.7084 -1.0627  0.2927
    1SOL    HW3 8131   2.043   1.319   3.452  1.2534 -0.4741  0.6410
    1SOL    MW4 8132   2.035   1.240   3.485  0.0350 -0.6235 -0.0093
    1SOL     OW 8133   2.030   1.512   3.399  0.6369 -0.1734 -0.4181
    1SOL    HW2 8134   2.103   1.567   3.427  0.6686  0.9445 -2.6240
    1SOL    HW3 8135   1.952   1.559   3.428  0.7129 -0.1747 -0.2068
    1SOL    MW4 8136   2.029   1.525   3.407  0.6509 -0.0261 -0.6812
    1SOL     OW 8137   1.812   1.656   3.508 -0.3150 -0.4153 -0.0770
    1SOL    HW2 8138   1.825   1.743   3.469  1.4324 -0.9187 -0.6232
    1SOL    HW3 8139   1.732   1.624   3.467 -0.6349  0.6691 -0.3396
    1SOL    MW4 8140   1.803   1.664   3.498 -0.1266 -0.3386 -0.1838
    1SOL     OW 8141   1.791   1.916   3.397  0.4644 -0.3798  0.4459
    1SOL    HW2 8142   1.871   1.948   3.438  1.0065 -0.7639 -0.2944
    1SOL    HW3 8143   1.809   1.919   3.303 -0.8884  0.8250  0.2020
    1SOL    MW4 8144   1.804   1.920   3.390  0.3574 -0.2716  0.3159
    1SOL     OW 8145   2.027   2.030   3.496 -0.2523 -0.1634 -0.3631
    1SOL    HW2 8146   2.105   1.985   3.465 -0.7352 -0.4466 -1.1759
    1SOL    HW3 8147   2.029   2.115   3.453 -1.9649 -1.2943 -2.7928
    1SOL    MW4 8148   2.038   2.035   3.487 -0.5419 -0.3502 -0.7908
    1SOL     OW 8149   2.009   2.282   3.391 -0.1708  0.0155  0.6120
    1SOL    HW2 8150   1.929   2.332   3.406  0.1544  0.3301  1.3528
    1SOL    HW3 8151   2.026   2.291   3.297 -0.9602  0.0128  0.4719
    1SOL    MW4 8152   2.001   2.290   3.381 -0.2320  0.0565  0.6912
    1SOL     OW 8153   1.800   2.456   3.478 -0.2458 -0.6562 -0.0686
    1SOL    HW2 8154   1.802   2.440   3.573 -1.7733 -1.2471 -0.1211
    1SOL    HW3 8155   1.724   2.407   3.447 -0.8246  1.0044 -1.3388
    1SOL    MW4 8156   1.790   2.448   3.487 -0.5236 -0.5150 -0.2429
    1SOL     OW 8157   1.771   2.708   3.361  0.1338  0.0143 -0.6525
    1SOL    HW2 8158   1.834   2.766   3.404  2.2740 -0.9394 -2.3612
    1SOL    HW3 8159   1.792   2.621   3.394 -0.8701 -0.2109 -0.5919
    1SOL    MW4 8160   1.782   2.704   3.371  0.2837 -0.1411 -0.8698
    1SOL     OW 8161   2.006   2.829   3.489  0.3268  0.2483 -0.0554
    1SOL    HW2 8162   2.024   2.842   3.582 -2.3242  0.4516  0.4690
    1SOL    HW3 8163   2.015   2.916   3.451  0.7209  0.2882  0.1165
    1SOL    MW4 8164   2.010   2.842   3.496  0.0288  0.2804  0.0365
    1SOL     OW 8165   2.024   3.094   3.373 -0.5006  0.3413 -0.1493
    1SOL    HW2 8166   2.104   3.136   3.405 -0.8672  1.2352 -0.4164
    1SOL    HW3 8167   1.954   3.130   3.427 -0.6103 -1.1797  0.7496
    1SOL    MW4 8168   2.025   3.104   3.384 -0.5636  0.2587 -0.0658
    1SOL     OW 8169   1.819   3.185   3.493 -0.8056  0.0280  0.2380
    1SOL    HW2 8170   1.817   3.204   3.587  0.2210  0.4888  0.1733
    1SOL    HW3 8171   1.808   3.271   3.452 -0.7412 -0.1105 -0.0693
    1SOL    MW4 8172   1.817   3.199   3.500 -0.6617  0.0706  0.1891
    1SOL     OW 8173   1.791   3.426   3.391  0.3676  0.1383  0.0081
    1SOL    HW2 8174   1.707   3.466   3.416 -0.7868 -2.6658  0.7854
    1SOL    HW3 8175   1.795   3.438   3.296 -1.1434 -0.1037 -0.1005
    1SOL    MW4 8176   1.780   3.433   3.381  0.0159 -0.2635  0.0961
    1SOL     OW 8177   1.974   3.590   3.510  0.3962 -0.1331 -0.0735
    1SOL    HW2 8178   2.061   3.564   3.481  0.2372  0.7113 -1.3876
    1SOL    HW3 8179   1.915   3.532   3.461  0.1938 -0.1094  0.1447
    1SOL    MW4 8180   1.977   3.579   3.500  0.3486 -0.0188 -0.2184
    1SOL     OW 8181   2.000   3.833   3.359 -0.2312  0.7040  0.0875
    1SOL    HW2 8182   1.919   3.873   3.390 -0.0382  0.2424  1.2185
    1SOL    HW3 8183   2.005   3.750   3.406  0.9591  0.7828  0.1204
    1SOL    MW4 8184   1.990   3.827   3.369 -0.0486  0.6537  0.2408
    1SOL     OW 8185   1.789   3.986   3.456 -0.1586 -0.3430  0.0070
    1SOL    HW2 8186   1.781   3.978   3.551 -0.4650  0.5861  0.0551
    1SOL    HW3 8187   1.704   3.959   3.422 -0.5652  0.8235  0.0781
    1SOL    MW4 8188   1.777   3.981   3.464 -0.2527 -0.0660  0.0226
    1SOL     OW 8189   1.795   4.253   3.393  0.2917 -0.5780 -0.2692
    1SOL    HW2 8190   1.799   4.164   3.426 -1.0725 -0.8585 -0.8139
    1SOL    HW3 8191   1.792   4.243   3.298  0.9341  0.0780 -0.3583
    1SOL    MW4 8192   1.795   4.240   3.385  0.1965 -0.5288 -0.3529
    1SOL     OW 8193   2.026   4.348   3.495 -0.1969 -0.3820 -0.1047
    1SOL    HW2 8194   1.946   4.310   3.457 -0.3412  0.1119 -0.3037
    1SOL    HW3 8195   2.017   4.442   3.479 -0.4481 -0.1144  1.5150
    1SOL    MW4 8196   2.014   4.355   3.488 -0.2494 -0.2818  0.0827
    1SOL     OW 8197   2.466   4.645   3.422  0.0684 -0.5122 -0.3941
    1SOL    HW2 8198   2.463   4.556   3.456 -0.3889 -0.2604  0.2327
    1SOL    HW3 8199   2.454   4.635   3.327 -0.8362 -1.0481 -0.2213
    1SOL    MW4 8200   2.464   4.632   3.414 -0.1111 -0.5493 -0.2885
    1SOL     OW 8201   2.216   0.109   3.511  0.1699  0.1307 -0.1763
    1SOL    HW2 8202   2.209   0.192   3.464 -1.1139 -0.4527 -1.0545
    1SOL    HW3 8203   2.302   0.075   3.487  0.2944  0.7275 -0.6005
    1SOL    MW4 8204   2.227   0.116   3.502  0.0167  0.1324 -0.3481
    1SOL     OW 8205   2.156   0.350   3.335  0.6118 -0.3915  0.0600
    1SOL    HW2 8206   2.236   0.392   3.365  0.4901  1.2132 -1.7678
    1SOL    HW3 8207   2.086   0.396   3.380  0.6502 -1.0439  0.7957
    1SOL    MW4 8208   2.157   0.361   3.345  0.6008 -0.2659 -0.0844
    1SOL     OW 8209   2.395   0.461   3.435 -0.0301  0.2106  0.0296
    1SOL    HW2 8210   2.467   0.408   3.401  0.9082  1.4622  0.0363
    1SOL    HW3 8211   2.416   0.551   3.409 -1.4208  0.6304  0.3137
    1SOL    MW4 8212   2.408   0.466   3.427 -0.0896  0.4312  0.0679
    1SOL     OW 8213   2.459   0.717   3.358 -0.2291  0.1826  0.1451
    1SOL    HW2 8214   2.542   0.750   3.392  0.3358 -1.0983  0.0216
    1SOL    HW3 8215   2.464   0.730   3.263 -0.2124  0.1941  0.1476
    1SOL    MW4 8216   2.471   0.723   3.350 -0.1523  0.0152  0.1290
    1SOL     OW 8217   2.252   0.854   3.473 -0.1052  0.0042  0.0653
    1SOL    HW2 8218   2.240   0.939   3.431  0.0887  0.7681  1.5304
    1SOL    HW3 8219   2.331   0.818   3.433 -0.6675  0.1180 -1.1748
    1SOL    MW4 8220   2.261   0.860   3.462 -0.1538  0.1200  0.0949
    1SOL     OW 8221   2.280   1.132   3.385  0.0299  0.4961  0.0247
    1SOL    HW2 8222   2.359   1.183   3.405 -0.0052  1.0170 -1.1042
    1SOL    HW3 8223   2.210   1.177   3.431  0.0569  1.2561 -0.6754
    1SOL    MW4 8224   2.281   1.144   3.394  0.0288  0.6649 -0.2165
    1SOL     OW 8225   2.515   1.270   3.453  0.5564  0.6697  0.7393
    1SOL    HW2 8226   2.521   1.267   3.548  1.7964  0.3693  0.6573
    1SOL    HW3 8227   2.572   1.199   3.423 -0.0971  0.5352 -0.2221
    1SOL    MW4 8228   2.523   1.260   3.462  0.6337  0.6123  0.6018
    1SOL     OW 8229   2.460   1.544   3.371  0.0272 -0.1188 -0.3007
    1SOL    HW2 8230   2.474   1.451   3.386  0.2780 -0.3247 -1.7156
    1SOL    HW3 8231   2.479   1.556   3.278 -2.9933  0.7697 -0.8543
    1SOL    MW4 8232   2.465   1.533   3.361 -0.3383 -0.0288 -0.5603
    1SOL     OW 8233   2.248   1.671   3.479  0.3358 -0.3688 -0.4577
    1SOL    HW2 8234   2.239   1.653   3.572  2.4590  1.5055  0.1401
    1SOL    HW3 8235   2.318   1.612   3.450 -0.4021 -1.0375 -0.9320
    1SOL    MW4 8236   2.256   1.661   3.487  0.5186 -0.2098 -0.4413
    1SOL     OW 8237   2.269   1.932   3.395 -0.4928 -0.0237  0.6375
    1SOL    HW2 8238   2.271   1.839   3.415 -0.9320 -0.3045 -0.5903
    1SOL    HW3 8239   2.266   1.936   3.300 -0.8268  1.2422  0.6910
    1SOL    MW4 8240   2.269   1.921   3.385 -0.5949  0.1063  0.4826
    1SOL     OW 8241   2.490   2.072   3.473  0.1962  0.2250  0.8247
    1SOL    HW2 8242   2.406   2.042   3.439  0.9369  0.1658 -1.0153
    1SOL    HW3 8243   2.489   2.167   3.460  1.0095  0.0523 -0.6222
    1SOL    MW4 8244   2.479   2.081   3.467  0.4010  0.1943  0.3908
    1SOL     OW 8245   2.479   2.332   3.352 -0.0685 -0.2738 -0.2846
    1SOL    HW2 8246   2.387   2.349   3.371  0.1119 -0.0996  0.4450
    1SOL    HW3 8247   2.527   2.394   3.408  0.4980 -0.6091 -0.3922
    1SOL    MW4 8248   2.473   2.343   3.362  0.0300 -0.2949 -0.2027
    1SOL     OW 8249   2.242   2.392   3.478  0.0644 -0.0261 -0.1308
    1SOL    HW2 8250   2.153   2.364   3.459 -0.4265  1.2028  0.2776
    1SOL    HW3 8251   2.241   2.487   3.463  0.7500  0.3278  1.8986
    1SOL    MW4 8252   2.230   2.401   3.473  0.0901  0.1824  0.1910
    1SOL     OW 8253   2.275   2.697   3.452 -0.2774 -0.5217 -0.3431
    1SOL    HW2 8254   2.184   2.724   3.457  0.1928  0.8339  1.5517
    1SOL    HW3 8255   2.292   2.685   3.359 -1.9201  0.8901 -0.8356
    1SOL    MW4 8256   2.266   2.699   3.441 -0.4320 -0.1566 -0.1583
    1SOL     OW 8257   2.500   2.841   3.535 -0.1696  0.0177 -0.3522
    1SOL    HW2 8258   2.491   2.927   3.492  0.7595 -0.8244 -2.2580
    1SOL    HW3 8259   2.418   2.796   3.516  0.1735 -0.2918 -1.0882
    1SOL    MW4 8260   2.488   2.847   3.527 -0.0019 -0.1345 -0.7007
    1SOL     OW 8261   2.463   3.088   3.390  0.1659  0.0289  0.0137
    1SOL    HW2 8262   2.545   3.125   3.421  0.9195 -0.5569 -1.2444
    1SOL    HW3 8263   2.479   3.066   3.298 -2.2803  2.5506 -1.0832
    1SOL    MW4 8264   2.476   3.090   3.382 -0.0575  0.2842 -0.2968
    1SOL     OW 8265   2.228   3.251   3.463  0.4772  0.1278 -0.3422
    1SOL    HW2 8266   2.245   3.261   3.556 -0.8520 -0.6075 -0.0112
    1SOL    HW3 8267   2.304   3.202   3.430  1.4135  1.2202  0.1539
    1SOL    MW4 8268   2.240   3.246   3.471  0.4253  0.1750 -0.2332
    1SOL     OW 8269   2.209   3.519   3.384  0.3294 -0.7446 -0.3272
    1SOL    HW2 8270   2.223   3.427   3.406 -0.6103 -1.0201 -0.8358
    1SOL    HW3 8271   2.211   3.521   3.288  1.3013 -0.0744 -0.3024
    1SOL    MW4 8272   2.211   3.507   3.374  0.3338 -0.6926 -0.3905
    1SOL     OW 8273   2.451   3.617   3.489 -0.0437 -0.3460 -0.2579
    1SOL    HW2 8274   2.448   3.700   3.440  0.0783 -0.4102 -0.3751
    1SOL    HW3 8275   2.377   3.567   3.456 -0.0631 -0.3202 -0.2531
    1SOL    MW4 8276   2.441   3.621   3.478 -0.0303 -0.3510 -0.2725
    1SOL     OW 8277   2.428   3.858   3.348  0.0712  0.1439  0.0171
    1SOL    HW2 8278   2.508   3.902   3.378 -1.4423  2.8115  0.3261
    1SOL    HW3 8279   2.358   3.899   3.399 -1.5906 -1.6205 -0.7761
    1SOL    MW4 8280   2.429   3.870   3.359 -0.3476  0.2630 -0.0470
    1SOL     OW 8281   2.225   3.974   3.511 -0.0543  0.0384  0.2099
    1SOL    HW2 8282   2.218   4.063   3.478  0.3594  0.0207  0.0637
    1SOL    HW3 8283   2.163   3.923   3.458  0.8220 -0.0444 -0.7431
    1SOL    MW4 8284   2.216   3.979   3.499  0.1156  0.0250  0.0648
    1SOL     OW 8285   2.261   4.236   3.434  0.2138 -0.0611 -0.5895
    1SOL    HW2 8286   2.177   4.274   3.459 -0.2764 -1.6639  0.2186
    1SOL    HW3 8287   2.270   4.259   3.341 -0.2440  1.6780 -0.2259
    1SOL    MW4 8288   2.251   4.244   3.425  0.0889 -0.0434 -0.4349
    1SOL     OW 8289   2.491   4.375   3.526 -0.0727 -0.3516 -0.5234
    1SOL    HW2 8290   2.476   4.399   3.617  1.3812 -2.2701  0.2588
    1SOL    HW3 8291   2.410   4.330   3.500 -0.8662  1.0314 -0.5048
    1SOL    MW4 8292   2.478   4.372   3.535  0.0148 -0.4225 -0.4177
    1SOL     OW 8293   2.910   4.588   3.398  0.3367  0.4068  0.7371
    1SOL    HW2 8294   2.836   4.636   3.436  1.4367  2.7495  0.0345
    1SOL    HW3 8295   2.893   4.588   3.304 -0.5407 -2.2015  0.8508
    1SOL    MW4 8296   2.898   4.594   3.390  0.3660  0.3719  0.6595
    1SOL     OW 8297   2.700   0.078   3.491  0.0952  0.0423 -0.4188
    1SOL    HW2 8298   2.694   0.084   3.586 -0.5428 -1.1937 -0.3766
    1SOL    HW3 8299   2.613   0.048   3.463  1.3687 -3.2208 -1.0772
    1SOL    MW4 8300   2.687   0.075   3.500  0.1791 -0.5513 -0.5002
    1SOL     OW 8301   2.673   0.353   3.383  0.0846  0.0309 -0.1113
    1SOL    HW2 8302   2.748   0.406   3.413 -0.4864  1.0558 -0.4915
    1SOL    HW3 8303   2.687   0.268   3.425  1.1871  0.3692  0.2468
    1SOL    MW4 8304   2.685   0.349   3.393  0.1545  0.2107 -0.1142
    1SOL     OW 8305   2.916   0.469   3.482 -0.3282 -0.2390  0.2160
    1SOL    HW2 8306   2.907   0.470   3.577 -0.0774 -2.2317  0.2694
    1SOL    HW3 8307   2.930   0.561   3.459  0.8941  0.1121  2.2286
    1SOL    MW4 8308   2.917   0.481   3.492 -0.1340 -0.4556  0.4888
    1SOL     OW 8309   2.945   0.731   3.387 -0.0544 -0.4316 -0.2363
    1SOL    HW2 8310   3.004   0.790   3.433  1.7892 -1.9510 -0.6259
    1SOL    HW3 8311   2.857   0.763   3.409  0.8195 -0.1220  2.9869
    1SOL    MW4 8312   2.941   0.743   3.396  0.3045 -0.5913  0.1376
    1SOL     OW 8313   2.687   0.826   3.459 -0.1767  0.0159 -0.0187
    1SOL    HW2 8314   2.693   0.827   3.555 -1.5027  0.8158  0.0696
    1SOL    HW3 8315   2.693   0.918   3.434 -1.2009 -0.0697 -0.6019
    1SOL    MW4 8316   2.688   0.838   3.469 -0.4864  0.1102 -0.0842
    1SOL     OW 8317   2.729   1.082   3.343  0.3278 -0.1384  0.2655
    1SOL    HW2 8318   2.793   1.149   3.364 -0.4500  0.4607  0.7727
    1SOL    HW3 8319   2.726   1.079   3.247  1.1164 -0.1825  0.2453
    1SOL    MW4 8320   2.737   1.090   3.333  0.3293 -0.0652  0.3297
    1SOL     OW 8321   2.910   1.274   3.426 -0.3532 -0.1005 -0.1732
    1SOL    HW2 8322   2.904   1.249   3.518  0.8795  2.0225  0.5065
    1SOL    HW3 8323   2.995   1.240   3.398  0.3391  1.3389  0.1452
    1SOL    MW4 8324   2.921   1.266   3.435 -0.0992  0.3695 -0.0417
    1SOL     OW 8325   2.881   1.554   3.412 -0.0420 -0.1548  0.4298
    1SOL    HW2 8326   2.799   1.589   3.445 -0.6935 -0.1728 -1.1414
    1SOL    HW3 8327   2.871   1.459   3.419 -1.0601 -0.2597 -1.7621
    1SOL    MW4 8328   2.869   1.546   3.417 -0.2625 -0.1709 -0.0668
    1SOL     OW 8329   2.646   1.693   3.500  0.0083  0.2526  0.0225
    1SOL    HW2 8330   2.681   1.770   3.457  1.3081 -1.1942 -1.5832
    1SOL    HW3 8331   2.584   1.656   3.437  1.0379 -1.2187 -0.1678
    1SOL    MW4 8332   2.642   1.698   3.486  0.3159 -0.1323 -0.2146
    1SOL     OW 8333   2.706   1.928   3.390  0.4531 -0.0615  0.0787
    1SOL    HW2 8334   2.626   1.975   3.413  0.8641 -0.0278  1.5118
    1SOL    HW3 8335   2.710   1.931   3.295 -1.1621  0.0843  0.0042
    1SOL    MW4 8336   2.696   1.934   3.381  0.2942 -0.0379  0.2577
    1SOL     OW 8337   2.933   2.036   3.517 -0.0002 -0.6034 -0.2055
    1SOL    HW2 8338   2.916   2.008   3.607 -0.4768  0.5802  0.0715
    1SOL    HW3 8339   2.851   2.018   3.470  0.0520 -0.6655 -0.2741
    1SOL    MW4 8340   2.920   2.030   3.522 -0.0560 -0.4556 -0.1781
    1SOL     OW 8341   2.897   2.299   3.405 -0.0006  0.3508  0.0130
    1SOL    HW2 8342   2.921   2.215   3.442  0.1056  0.2554 -0.2767
    1SOL    HW3 8343   2.893   2.284   3.311 -1.2727  0.3348  0.0579
    1SOL    MW4 8344   2.899   2.286   3.398 -0.1547  0.3364 -0.0191
    1SOL     OW 8345   2.689   2.451   3.520  0.0039  0.6695  0.4104
    1SOL    HW2 8346   2.701   2.458   3.615 -0.3731  1.8353  0.3826
    1SOL    HW3 8347   2.754   2.387   3.493  0.2337  0.4531  1.4375
    1SOL    MW4 8348   2.699   2.443   3.529 -0.0155  0.7946  0.5424
    1SOL     OW 8349   2.674   2.696   3.394 -0.3473 -0.0156 -0.4164
    1SOL    HW2 8350   2.677   2.611   3.438 -0.5914  0.4857  0.5779
    1SOL    HW3 8351   2.608   2.746   3.442  1.0532  1.3580  0.1157
    1SOL    MW4 8352   2.665   2.692   3.406 -0.1945  0.2320 -0.2151
    1SOL     OW 8353   2.908   2.816   3.500 -0.5378 -0.0237  0.0017
    1SOL    HW2 8354   2.898   2.818   3.596  0.7024 -1.2036  0.1767
    1SOL    HW3 8355   2.828   2.772   3.469 -1.4569  1.3347  0.3925
    1SOL    MW4 8356   2.896   2.810   3.509 -0.4954  0.0000  0.0763
    1SOL     OW 8357   2.928   3.077   3.413 -0.3474 -0.0994 -0.2987
    1SOL    HW2 8358   2.929   2.984   3.435 -0.7277 -0.2133 -0.7591
    1SOL    HW3 8359   2.927   3.080   3.318 -0.3269  0.3754 -0.2881
    1SOL    MW4 8360   2.928   3.065   3.404 -0.3948 -0.0520 -0.3581
    1SOL     OW 8361   2.718   3.200   3.526 -0.0575  0.0553  0.2736
    1SOL    HW2 8362   2.712   3.182   3.619  0.5047 -0.0030  0.2992
    1SOL    HW3 8363   2.793   3.149   3.496  0.0154  0.3953 -0.1326
    1SOL    MW4 8364   2.727   3.191   3.534  0.0262  0.0925  0.2234
    1SOL     OW 8365   2.678   3.478   3.379  0.0257 -0.2763  0.0550
    1SOL    HW2 8366   2.684   3.399   3.433 -1.1996 -0.1423  0.4145
    1SOL    HW3 8367   2.625   3.539   3.432  0.5619  0.6114 -0.4187
    1SOL    MW4 8368   2.672   3.476   3.393 -0.0651 -0.1414  0.0398
    1SOL     OW 8369   2.927   3.586   3.442 -0.7249 -0.1587  0.0128
    1SOL    HW2 8370   2.927   3.671   3.399  0.4103  0.4003  1.1117
    1SOL    HW3 8371   2.839   3.551   3.425 -1.0284  1.0008 -0.8669
    1SOL    MW4 8372   2.915   3.592   3.434 -0.6154  0.0682  0.0417
    1SOL     OW 8373   2.910   3.858   3.390 -1.0450  0.0165  0.3260
    1SOL    HW2 8374   2.986   3.878   3.444  0.0254  0.3115 -1.2710
    1SOL    HW3 8375   2.838   3.907   3.431  0.0088  1.2282  0.7566
    1SOL    MW4 8376   2.910   3.867   3.403 -0.7646  0.2151  0.1721
    1SOL     OW 8377   2.659   3.987   3.448  0.5267  0.7208 -0.2430
    1SOL    HW2 8378   2.665   3.978   3.543  0.4030 -1.9105 -0.4529
    1SOL    HW3 8379   2.673   4.080   3.432  0.5889  1.1904  2.3461
    1SOL    MW4 8380   2.662   3.998   3.458  0.5186  0.4356  0.0708
    1SOL     OW 8381   2.721   4.250   3.403 -0.4911  0.5982 -0.1144
    1SOL    HW2 8382   2.804   4.282   3.440 -0.2124 -0.0877 -0.1195
    1SOL    HW3 8383   2.654   4.302   3.446 -0.0117  1.7691 -0.7583
    1SOL    MW4 8384   2.723   4.261   3.414 -0.3908  0.6618 -0.2000
    1SOL     OW 8385   2.964   4.336   3.511 -0.4121 -0.2050  0.1355
    1SOL    HW2 8386   2.974   4.353   3.604  0.3562 -0.1644  0.0565
    1SOL    HW3 8387   2.982   4.421   3.469  1.2195 -0.6706 -0.1443
    1SOL    MW4 8388   2.968   4.350   3.518 -0.0956 -0.2618  0.0880
    1SOL     OW 8389   3.372   4.653   3.393 -0.5694 -0.7879 -0.3627
    1SOL    HW2 8390   3.289   4.669   3.438 -0.0140  0.0607  0.3721
    1SOL    HW3 8391   3.350   4.655   3.300 -0.7158  3.3457 -0.3129
    1SOL    MW4 8392   3.358   4.655   3.387 -0.5155 -0.1306 -0.2594
    1SOL     OW 8393   3.130   0.050   3.494  0.5155  0.2798 -0.0284
    1SOL    HW2 8394   3.127   0.142   3.466  1.2784  0.6861  1.1672
    1SOL    HW3 8395   3.053   0.010   3.454 -0.1772  1.5952 -0.0386
    1SOL    MW4 8396   3.120   0.057   3.485  0.5245  0.5070  0.1278
    1SOL     OW 8397   3.123   0.316   3.402 -0.3583  0.1117  0.0551
    1SOL    HW2 8398   3.047   0.362   3.437  0.6910  1.4217  0.6785
    1SOL    HW3 8399   3.123   0.337   3.308  0.0071  1.2576  0.3020
    1SOL    MW4 8400   3.113   0.325   3.394 -0.1717  0.4357  0.1702
    1SOL     OW 8401   3.378   0.442   3.490 -0.3767  0.6267 -0.1945
    1SOL    HW2 8402   3.369   0.442   3.585 -0.7763  1.9150 -0.2209
    1SOL    HW3 8403   3.300   0.396   3.459  0.2579 -0.6957  0.1284
    1SOL    MW4 8404   3.367   0.436   3.498 -0.3457  0.6221 -0.1552
    1SOL     OW 8405   3.329   0.718   3.404  0.1917 -0.2903  0.1882
    1SOL    HW2 8406   3.413   0.744   3.442  1.0270 -1.4041 -0.8304
    1SOL    HW3 8407   3.325   0.623   3.417 -1.5071 -0.0757  1.3548
    1SOL    MW4 8408   3.340   0.709   3.410  0.0780 -0.4089  0.2077
    1SOL     OW 8409   3.142   0.891   3.496  0.0411 -0.0596 -0.3634
    1SOL    HW2 8410   3.130   0.962   3.433  2.7249  1.9577  1.2569
    1SOL    HW3 8411   3.214   0.839   3.461  1.0019  0.6036  0.5887
    1SOL    MW4 8412   3.150   0.894   3.483  0.5221  0.2940 -0.0241
    1SOL     OW 8413   3.118   1.117   3.311  0.3680 -0.5278  0.4122
    1SOL    HW2 8414   3.203   1.137   3.351 -0.2744  1.2154  0.9248
    1SOL    HW3 8415   3.126   1.151   3.222 -0.4775  1.4584  1.0710
    1SOL    MW4 8416   3.130   1.124   3.305  0.1721 -0.0358  0.5665
    1SOL     OW 8417   3.347   1.235   3.448 -0.0771 -0.1773 -0.7447
    1SOL    HW2 8418   3.430   1.194   3.424 -0.6871 -0.5733 -2.2020
    1SOL    HW3 8419   3.355   1.326   3.418  0.1170 -0.0147 -0.2061
    1SOL    MW4 8420   3.359   1.242   3.441 -0.1318 -0.2080 -0.8662
    1SOL     OW 8421   3.331   1.502   3.387 -0.6112  0.5045 -0.7110
    1SOL    HW2 8422   3.401   1.553   3.427 -1.0124 -0.5311  1.3812
    1SOL    HW3 8423   3.252   1.531   3.432 -1.3322  0.5686 -1.9912
    1SOL    MW4 8424   3.330   1.513   3.398 -0.7594  0.3763 -0.6039
    1SOL     OW 8425   3.118   1.652   3.521 -0.0473 -0.7080  0.3770
    1SOL    HW2 8426   3.139   1.734   3.475  1.2740 -1.6998 -0.8587
    1SOL    HW3 8427   3.034   1.625   3.485 -0.6145  0.2327  0.9804
    1SOL    MW4 8428   3.110   1.659   3.510  0.0522 -0.7145  0.2935
    1SOL     OW 8429   3.138   1.897   3.399 -0.3058 -0.1735 -0.1129
    1SOL    HW2 8430   3.068   1.945   3.443 -1.3899 -2.1208  0.3657
    1SOL    HW3 8431   3.218   1.925   3.444 -0.9163  1.0666  0.2231
    1SOL    MW4 8432   3.139   1.907   3.411 -0.5293 -0.2669 -0.0055
    1SOL     OW 8433   3.369   1.985   3.525 -0.2297  0.4090 -0.2735
    1SOL    HW2 8434   3.344   2.073   3.500 -2.3753 -0.1183 -0.0972
    1SOL    HW3 8435   3.362   1.984   3.620  0.4170  0.2373 -0.2283
    1SOL    MW4 8436   3.364   1.996   3.534 -0.4277  0.3167 -0.2441
    1SOL     OW 8437   3.335   2.248   3.433  0.0569 -0.4951  0.2644
    1SOL    HW2 8438   3.410   2.306   3.447 -0.6526  0.6255 -0.4676
    1SOL    HW3 8439   3.259   2.306   3.433 -0.4570 -1.0264 -3.0547
    1SOL    MW4 8440   3.335   2.263   3.435 -0.1047 -0.4175 -0.2701
    1SOL     OW 8441   3.138   2.437   3.457 -0.0702  0.3089  0.2445
    1SOL    HW2 8442   3.140   2.529   3.430 -1.1601  0.4971  0.8026
    1SOL    HW3 8443   3.052   2.406   3.430  0.0466 -0.3811  0.6520
    1SOL    MW4 8444   3.127   2.445   3.450 -0.1986  0.2427  0.3717
    1SOL     OW 8445   3.164   2.706   3.399  0.2103 -0.6403  0.0680
    1SOL    HW2 8446   3.237   2.745   3.446 -0.4329  0.2249  0.3636
    1SOL    HW3 8447   3.087   2.755   3.429 -0.5946 -2.0277  0.3341
    1SOL    MW4 8448   3.163   2.718   3.410  0.0193 -0.7093  0.1423
    1SOL     OW 8449   3.404   2.843   3.485  0.1529 -0.2416  0.0389
    1SOL    HW2 8450   3.405   2.855   3.580  1.1939  1.1045 -0.1406
    1SOL    HW3 8451   3.400   2.931   3.449  1.4240 -0.6706 -1.1902
    1SOL    MW4 8452   3.404   2.856   3.493  0.4580 -0.1204 -0.1471
    1SOL     OW 8453   3.375   3.095   3.406  0.2440  0.4256  0.0049
    1SOL    HW2 8454   3.447   3.133   3.456  0.3989 -0.0106  0.1143
    1SOL    HW3 8455   3.297   3.118   3.456  0.4668 -0.7442  0.9188
    1SOL    MW4 8456   3.374   3.103   3.419  0.2937  0.2136  0.1400
    1SOL     OW 8457   3.148   3.203   3.500 -0.1037  0.3682 -0.1508
    1SOL    HW2 8458   3.137   3.281   3.446  0.2192  0.5351  0.0270
    1SOL    HW3 8459   3.084   3.141   3.465  0.4975  0.2784 -1.1007
    1SOL    MW4 8460   3.138   3.205   3.488  0.0184  0.3784 -0.2527
    1SOL     OW 8461   3.161   3.438   3.357 -0.1479 -0.6995 -0.6416
    1SOL    HW2 8462   3.080   3.482   3.384  0.2269 -0.7920  0.6719
    1SOL    HW3 8463   3.162   3.446   3.262 -1.7001 -0.6891 -0.6696
    1SOL    MW4 8464   3.150   3.445   3.348 -0.3033 -0.7102 -0.4723
    1SOL     OW 8465   3.366   3.566   3.502  0.0595  0.2921 -0.1136
    1SOL    HW2 8466   3.371   3.659   3.479  2.4098  0.1425 -0.3122
    1SOL    HW3 8467   3.314   3.527   3.432 -0.9350  1.4620 -0.0340
    1SOL    MW4 8468   3.360   3.573   3.490  0.2384  0.4268 -0.1292
    1SOL     OW 8469   3.368   3.822   3.412 -0.3044 -0.4769  0.2587
    1SOL    HW2 8470   3.439   3.878   3.442 -0.8285  0.9285 -1.0615
    1SOL    HW3 8471   3.289   3.858   3.454 -0.5275 -0.7622  0.0882
    1SOL    MW4 8472   3.367   3.834   3.421 -0.4027 -0.3293  0.0620
    1SOL     OW 8473   3.144   3.942   3.517 -0.5497  0.1634 -0.2321
    1SOL    HW2 8474   3.146   3.965   3.610  0.9500 -1.0155  0.0371
    1SOL    HW3 8475   3.149   4.026   3.472 -0.0314  0.6644  0.7440
    1SOL    MW4 8476   3.145   3.956   3.524 -0.2832  0.0739 -0.0679
    1SOL     OW 8477   3.164   4.194   3.409 -0.0831 -0.0599  0.2558
    1SOL    HW2 8478   3.239   4.244   3.440 -0.1518 -0.4451  1.0533
    1SOL    HW3 8479   3.088   4.236   3.451 -0.7081  2.5501 -3.2605
    1SOL    MW4 8480   3.164   4.206   3.419 -0.1748  0.2341 -0.1030
    1SOL     OW 8481   3.376   4.393   3.442 -0.2129  0.1817 -0.3656
    1SOL    HW2 8482   3.385   4.388   3.537  1.5565 -0.4883 -0.5394
    1SOL    HW3 8483   3.387   4.486   3.422  1.5989  0.0416 -0.0876
    1SOL    MW4 8484   3.379   4.405   3.452  0.2596  0.0749 -0.3519
    1SOL     OW 8485   3.842   4.602   3.404 -0.5345  0.2397 -0.4117
    1SOL    HW2 8486   3.777   4.667   3.432 -0.9553 -0.3078 -0.1261
    1SOL    HW3 8487   3.840   4.607   3.308 -1.0998  0.1210 -0.4082
    1SOL    MW4 8488   3.833   4.611   3.395 -0.6647  0.1516 -0.3736
    1SOL     OW 8489   3.611   0.118   3.489  0.2486  0.2955 -0.0872
    1SOL    HW2 8490   3.606   0.207   3.455  0.3087 -0.1593 -1.3075
    1SOL    HW3 8491   3.535   0.073   3.451  0.8952 -0.5011 -0.4432
    1SOL    MW4 8492   3.600   0.123   3.480  0.3419  0.1304 -0.2949
    1SOL     OW 8493   3.597   0.371   3.369 -0.4325 -0.0454 -0.1252
    1SOL    HW2 8494   3.663   0.420   3.418  0.5464 -0.0637 -1.3989
    1SOL    HW3 8495   3.514   0.397   3.409  0.2807  0.4770  1.0699
    1SOL    MW4 8496   3.595   0.381   3.381 -0.2093  0.0211 -0.1357
    1SOL     OW 8497   3.809   0.518   3.506  0.0057  0.3366  0.7583
    1SOL    HW2 8498   3.793   0.488   3.595 -0.4783 -0.5899  0.3713
    1SOL    HW3 8499   3.893   0.478   3.483  0.2477  0.7741  0.8855
    1SOL    MW4 8500   3.818   0.508   3.514 -0.0265  0.2720  0.7241
    1SOL     OW 8501   3.794   0.784   3.434  0.1812 -0.1942 -0.6243
    1SOL    HW2 8502   3.870   0.834   3.465 -1.4261  1.6619  0.4474
    1SOL    HW3 8503   3.811   0.695   3.464  2.3436 -0.0046 -1.1620
    1SOL    MW4 8504   3.806   0.779   3.442  0.2544  0.0758 -0.5541
    1SOL     OW 8505   3.554   0.874   3.522 -0.3248  0.1955 -0.1857
    1SOL    HW2 8506   3.568   0.856   3.616  0.0686 -1.0865 -0.4720
    1SOL    HW3 8507   3.628   0.831   3.479 -0.4258  0.9168 -1.0704
    1SOL    MW4 8508   3.566   0.866   3.529 -0.2863  0.1215 -0.3400
    1SOL     OW 8509   3.586   1.113   3.394  0.1320 -0.1394 -0.1375
    1SOL    HW2 8510   3.590   1.021   3.421 -0.9079 -0.1028  0.1582
    1SOL    HW3 8511   3.580   1.109   3.298  0.1921 -0.3805 -0.1309
    1SOL    MW4 8512   3.586   1.100   3.385  0.0026 -0.1663 -0.0978
    1SOL     OW 8513   3.831   1.214   3.463 -0.5882  0.1140  0.1955
    1SOL    HW2 8514   3.831   1.235   3.556 -1.3046  0.4034  0.1348
    1SOL    HW3 8515   3.749   1.167   3.449 -1.4429  1.8046 -0.6577
    1SOL    MW4 8516   3.820   1.211   3.473 -0.7956  0.3752  0.0749
    1SOL     OW 8517   3.800   1.481   3.398 -0.3339 -0.4072 -0.4624
    1SOL    HW2 8518   3.877   1.528   3.431 -1.2565  0.3987  0.5757
    1SOL    HW3 8519   3.821   1.388   3.412 -0.4155 -0.1187  1.7948
    1SOL    MW4 8520   3.813   1.475   3.404 -0.4663 -0.2627 -0.0277
    1SOL     OW 8521   3.580   1.602   3.529  0.1640  0.3415 -0.4436
    1SOL    HW2 8522   3.590   1.692   3.498 -0.3688  0.6245  0.2003
    1SOL    HW3 8523   3.644   1.553   3.478  1.3016  1.2854  0.0207
    1SOL    MW4 8524   3.590   1.608   3.518  0.2439  0.5032 -0.2975
    1SOL     OW 8525   3.598   1.874   3.423  0.0938  0.1655 -0.7342
    1SOL    HW2 8526   3.668   1.920   3.471 -0.1723  0.2286 -0.4069
    1SOL    HW3 8527   3.518   1.916   3.453 -0.0959 -0.0097 -1.0021
    1SOL    MW4 8528   3.597   1.886   3.433  0.0334  0.1507 -0.7265
    1SOL     OW 8529   3.803   2.036   3.521 -0.1696 -0.2776 -0.0752
    1SOL    HW2 8530   3.795   2.068   3.611  0.0197  2.1339 -0.8855
    1SOL    HW3 8531   3.886   1.990   3.519  0.5048  0.8890  0.6314
    1SOL    MW4 8532   3.813   2.034   3.533 -0.0558  0.1943 -0.0892
    1SOL     OW 8533   3.803   2.295   3.390 -0.6594 -0.1155  0.5210
    1SOL    HW2 8534   3.879   2.343   3.425  0.2067  0.1910 -1.7293
    1SOL    HW3 8535   3.805   2.211   3.435  1.1816 -0.2141  0.2766
    1SOL    MW4 8536   3.813   2.290   3.401 -0.3023 -0.0880  0.1917
    1SOL     OW 8537   3.559   2.408   3.446 -0.4139  0.0543  0.0341
    1SOL    HW2 8538   3.563   2.503   3.452  1.1407  0.2078 -2.6517
    1SOL    HW3 8539   3.642   2.383   3.404 -0.8138 -2.4693  0.6652
    1SOL    MW4 8540   3.570   2.417   3.441 -0.2613 -0.2587 -0.2370
    1SOL     OW 8541   3.607   2.677   3.391  0.1681 -0.1318  0.5286
    1SOL    HW2 8542   3.681   2.718   3.435 -0.1203  0.3644  0.5480
    1SOL    HW3 8543   3.530   2.721   3.426 -0.1083 -0.2815  0.1157
    1SOL    MW4 8544   3.606   2.688   3.401  0.0937 -0.0863  0.4764
    1SOL     OW 8545   3.823   2.817   3.521 -0.0237 -0.4576  0.1056
    1SOL    HW2 8546   3.854   2.825   3.611 -0.4067 -0.0524  0.2037
    1SOL    HW3 8547   3.823   2.906   3.487  0.6731 -0.6792 -0.4852
    1SOL    MW4 8548   3.827   2.830   3.528  0.0179 -0.4334  0.0405
    1SOL     OW 8549   3.834   3.058   3.403  0.4398 -0.0194 -0.0516
    1SOL    HW2 8550   3.912   3.109   3.426  0.9565 -0.3886 -0.9870
    1SOL    HW3 8551   3.818   3.077   3.311  0.2772 -1.0653 -0.2490
    1SOL    MW4 8552   3.842   3.067   3.394  0.4866 -0.2060 -0.2012
    1SOL     OW 8553   3.616   3.171   3.537 -0.2564 -0.0200 -0.0008
    1SOL    HW2 8554   3.613   3.255   3.490  1.7467  0.0353 -0.0512
    1SOL    HW3 8555   3.686   3.122   3.495 -0.1011 -0.9590  1.3236
    1SOL    MW4 8556   3.625   3.176   3.525  0.0281 -0.1369  0.1674
    1SOL     OW 8557   3.581   3.418   3.402 -0.2836  0.0990  0.3016
    1SOL    HW2 8558   3.516   3.475   3.443  0.4821  0.8816  0.4509
    1SOL    HW3 8559   3.592   3.454   3.314 -0.0212 -0.0024  0.2925
    1SOL    MW4 8560   3.574   3.431   3.396 -0.1478  0.1888  0.3202
    1SOL     OW 8561   3.804   3.565   3.496 -0.3375  0.0259 -0.2392
    1SOL    HW2 8562   3.807   3.556   3.591  0.7664 -1.1278 -0.3733
    1SOL    HW3 8563   3.726   3.516   3.470 -0.1964 -0.3346  0.0079
    1SOL    MW4 8564   3.794   3.557   3.505 -0.1733 -0.1740 -0.2241
    1SOL     OW 8565   3.814   3.839   3.378 -0.5255 -0.4875  0.2513
    1SOL    HW2 8566   3.742   3.896   3.404  0.7539  1.3182 -0.1118
    1SOL    HW3 8567   3.787   3.752   3.407 -2.3905  0.3278  1.0253
    1SOL    MW4 8568   3.801   3.835   3.385 -0.6030 -0.1416  0.3057
    1SOL     OW 8569   3.603   3.974   3.489 -0.1139 -0.1316  0.1394
    1SOL    HW2 8570   3.616   3.973   3.584  0.9392  0.6729  0.0193
    1SOL    HW3 8571   3.589   4.067   3.468  0.1936 -0.2404 -0.5577
    1SOL    MW4 8572   3.603   3.986   3.498  0.0656 -0.0398  0.0317
    1SOL     OW 8573   3.598   4.237   3.399  0.4122 -0.4804  0.1918
    1SOL    HW2 8574   3.516   4.282   3.416 -1.2683 -2.9466 -1.0380
    1SOL    HW3 8575   3.601   4.229   3.303  1.0706 -2.1660  0.3306
    1SOL    MW4 8576   3.588   4.242   3.388  0.2773 -1.0285  0.0479
    1SOL     OW 8577   3.821   4.350   3.490  0.1083 -0.2241 -0.1319
    1SOL    HW2 8578   3.741   4.310   3.457  0.8031 -0.5291 -1.5098
    1SOL    HW3 8579   3.818   4.441   3.458 -0.0138 -0.0450  0.3875
    1SOL    MW4 8580   3.810   4.357   3.481  0.1836 -0.2403 -0.2453
    1SOL     OW 8581   4.274   4.607   3.342  0.2217  0.2883  0.1778
    1SOL    HW2 8582   4.281   4.524   3.389  1.3221  0.1397 -0.2321
    1SOL    HW3 8583   4.343   4.661   3.379  0.9189  0.2672 -1.0615
    1SOL    MW4 8584   4.284   4.603   3.353  0.4592  0.2656 -0.0401
    1SOL     OW 8585   4.064   0.074   3.467 -0.2688  0.0922  0.0731
    1SOL    HW2 8586   4.134   0.050   3.406 -0.3130  0.8971 -0.3068
    1SOL    HW3 8587   3.986   0.030   3.433  0.0872 -0.9483  0.5963
    1SOL    MW4 8588   4.063   0.065   3.454 -0.2275  0.0611  0.0918
    1SOL     OW 8589   4.025   0.359   3.433  0.0407 -0.2639  0.5407
    1SOL    HW2 8590   4.037   0.267   3.454 -1.2736 -0.5780  0.0080
    1SOL    HW3 8591   4.026   0.362   3.337 -1.0500  0.0852  0.5238
    1SOL    MW4 8592   4.026   0.348   3.423 -0.2766 -0.2593  0.4680
    1SOL     OW 8593   4.278   0.464   3.494  0.0743 -0.1940  0.2539
    1SOL    HW2 8594   4.285   0.557   3.472 -0.0463 -0.4959 -1.0526
    1SOL    HW3 8595   4.190   0.440   3.466  0.0131 -0.6404  0.8366
    1SOL    MW4 8596   4.267   0.473   3.488  0.0505 -0.2927  0.1583
    1SOL     OW 8597   4.302   0.738   3.428  0.1069 -0.1107 -0.1067
    1SOL    HW2 8598   4.387   0.781   3.436  0.6453 -0.8797 -1.4976
    1SOL    HW3 8599   4.284   0.736   3.334 -1.6431  0.3983  0.1886
    1SOL    MW4 8600   4.311   0.743   3.417 -0.0525 -0.1450 -0.2515
    1SOL     OW 8601   4.067   0.884   3.449 -0.4797  0.9559 -0.1732
    1SOL    HW2 8602   4.077   0.961   3.393  2.3042  0.2378 -0.7389
    1SOL    HW3 8603   4.151   0.838   3.442 -1.8400 -1.7743  0.6930
    1SOL    MW4 8604   4.080   0.888   3.441 -0.2913  0.5009 -0.1335
    1SOL     OW 8605   4.073   1.148   3.331 -0.0858 -0.0373 -0.3143
    1SOL    HW2 8606   4.146   1.176   3.387 -0.3308  0.3947 -0.2109
    1SOL    HW3 8607   3.995   1.181   3.376 -0.4270 -1.4496  0.1521
    1SOL    MW4 8608   4.072   1.156   3.345 -0.1636 -0.1667 -0.2394
    1SOL     OW 8609   4.253   1.251   3.490 -0.1870  0.1066 -0.0850
    1SOL    HW2 8610   4.244   1.335   3.445 -0.2700 -0.1539 -0.5446
    1SOL    HW3 8611   4.337   1.217   3.459 -0.2127 -0.0409  0.0112
    1SOL    MW4 8612   4.263   1.258   3.480 -0.2012  0.0528 -0.1330
    1SOL     OW 8613   4.255   1.505   3.387 -0.1895 -0.4368 -0.3085
    1SOL    HW2 8614   4.176   1.536   3.432 -1.2063 -1.4244 -1.3698
    1SOL    HW3 8615   4.240   1.524   3.295  1.1717  0.0907 -0.4315
    1SOL    MW4 8616   4.243   1.511   3.381 -0.1435 -0.4975 -0.4649
    1SOL     OW 8617   4.029   1.639   3.468  0.0305  0.2529 -0.2884
    1SOL    HW2 8618   4.035   1.622   3.562 -0.1154 -1.3655 -0.5628
    1SOL    HW3 8619   4.035   1.735   3.461 -1.2252  0.4909  1.4573
    1SOL    MW4 8620   4.031   1.650   3.479 -0.1545  0.0708 -0.0944
    1SOL     OW 8621   4.032   1.913   3.447 -0.2086  0.2028  0.4892
    1SOL    HW2 8622   4.117   1.953   3.465  0.7354 -1.0448 -1.0133
    1SOL    HW3 8623   4.024   1.917   3.351 -0.7270 -1.8793  0.4154
    1SOL    MW4 8624   4.042   1.919   3.436 -0.1521 -0.2365  0.2813
    1SOL     OW 8625   4.268   2.028   3.494  0.0613 -0.6214  0.1584
    1SOL    HW2 8626   4.262   2.118   3.460 -0.6991 -0.0763  1.7138
    1SOL    HW3 8627   4.356   2.000   3.469  0.4151  0.6507 -0.0991
    1SOL    MW4 8628   4.279   2.036   3.486  0.0076 -0.3819  0.3295
    1SOL     OW 8629   4.236   2.305   3.389  0.2751 -0.4201  0.1981
    1SOL    HW2 8630   4.156   2.350   3.417  0.8364  0.2145  0.7820
    1SOL    HW3 8631   4.231   2.305   3.293 -0.3957 -0.3339  0.2292
    1SOL    MW4 8632   4.225   2.311   3.380  0.2608 -0.3250  0.2794
    1SOL     OW 8633   4.015   2.448   3.477  0.0586 -0.0576  0.4283
    1SOL    HW2 8634   4.008   2.460   3.571  0.4824 -0.6448  0.5410
    1SOL    HW3 8635   4.032   2.535   3.442  0.7582  0.0237  0.9761
    1SOL    MW4 8636   4.016   2.461   3.485  0.2069 -0.1245  0.5157
    1SOL     OW 8637   4.015   2.703   3.355  0.6021  0.1846 -0.0031
    1SOL    HW2 8638   4.102   2.736   3.379  0.0754  1.1435  0.6405
    1SOL    HW3 8639   3.955   2.746   3.417 -0.2489 -1.0817  0.0791
    1SOL    MW4 8640   4.019   2.713   3.367  0.4201  0.1438  0.0923
    1SOL     OW 8641   4.265   2.831   3.480 -0.2210  0.5670  0.5556
    1SOL    HW2 8642   4.272   2.825   3.575 -1.0563  0.3633  0.6084
    1SOL    HW3 8643   4.332   2.772   3.447 -1.1540 -0.7828  1.0326
    1SOL    MW4 8644   4.274   2.823   3.488 -0.4544  0.3617  0.6256
    1SOL     OW 8645   4.311   3.092   3.416 -0.1544  0.1909  0.1740
    1SOL    HW2 8646   4.289   3.001   3.435 -0.8718  0.1506 -0.8421
    1SOL    HW3 8647   4.307   3.099   3.321  2.6899  0.5864  0.0310
    1SOL    MW4 8648   4.308   3.081   3.406  0.1259  0.2377  0.0212
    1SOL     OW 8649   4.055   3.174   3.503  0.1634  0.2105  0.0751
    1SOL    HW2 8650   4.043   3.266   3.479  0.6684  0.5596  1.1401
    1SOL    HW3 8651   4.143   3.152   3.473  0.7652  0.6248  1.5179
    1SOL    MW4 8652   4.065   3.183   3.496  0.3090  0.3111  0.4058
    1SOL     OW 8653   4.027   3.440   3.429  0.4228 -0.1761  0.0397
    1SOL    HW2 8654   4.091   3.489   3.482 -0.8827 -0.5957  2.0806
    1SOL    HW3 8655   3.944   3.486   3.443 -0.0037 -0.4936 -1.4116
    1SOL    MW4 8656   4.024   3.452   3.438  0.1941 -0.2732  0.1173
    1SOL     OW 8657   4.262   3.554   3.529  0.2064  0.0194 -1.0479
    1SOL    HW2 8658   4.282   3.577   3.620 -0.5914  0.3856 -0.9524
    1SOL    HW3 8659   4.264   3.638   3.483  0.6042 -0.1663 -1.3672
    1SOL    MW4 8660   4.265   3.568   3.535  0.1535  0.0429 -1.0777
    1SOL     OW 8661   4.289   3.812   3.379 -0.3352  0.2632 -0.4419
    1SOL    HW2 8662   4.360   3.862   3.419 -1.2046  0.8064  0.4182
    1SOL    HW3 8663   4.294   3.834   3.286 -0.1330  1.2284 -0.2027
    1SOL    MW4 8664   4.299   3.822   3.372 -0.4234  0.4623 -0.2971
    1SOL     OW 8665   4.065   3.946   3.476 -0.6955  0.0119  0.0263
    1SOL    HW2 8666   4.138   3.895   3.440 -0.0269  0.2748  0.9816
    1SOL    HW3 8667   3.987   3.902   3.444 -0.1205 -0.6472 -0.4973
    1SOL    MW4 8668   4.065   3.933   3.467 -0.5317 -0.0403  0.0832
    1SOL     OW 8669   4.078   4.212   3.442 -0.6378  0.1709  0.5243
    1SOL    HW2 8670   4.058   4.119   3.448  1.8584 -0.4102  0.0617
    1SOL    HW3 8671   3.993   4.255   3.455 -1.6022 -2.0977  2.0384
    1SOL    MW4 8672   4.064   4.206   3.444 -0.4363 -0.2050  0.6630
    1SOL     OW 8673   4.293   4.369   3.508  0.2268 -0.2073  0.1397
    1SOL    HW2 8674   4.296   4.391   3.601 -0.5011  0.3313  0.0421
    1SOL    HW3 8675   4.216   4.312   3.499 -0.5347  0.8809 -0.3616
    1SOL    MW4 8676   4.283   4.364   3.519  0.0300  0.0076  0.0606
    1SOL     OW 8677   0.265   4.616   3.840  0.0771  0.3467 -0.0566
    1SOL    HW2 8678   0.258   4.631   3.935  0.3816  0.5739 -0.0683
    1SOL    HW3 8679   0.207   4.682   3.802  1.5342  1.6293 -0.1132
    1SOL    MW4 8680   0.256   4.627   3.848  0.3095  0.5455 -0.0658
    1SOL     OW 8681   0.072   0.134   3.744  0.2482  0.4763 -0.3143
    1SOL    HW2 8682   0.030   0.214   3.774  0.8268  0.0472  1.7124
    1SOL    HW3 8683   0.070   0.140   3.648  0.8253  3.1893 -0.1994
    1SOL    MW4 8684   0.067   0.145   3.735  0.4007  0.7776 -0.0319
    1SOL     OW 8685   0.017   0.386   3.842 -0.2046 -0.4858 -0.2408
    1SOL    HW2 8686  -0.066   0.432   3.834 -0.0783  0.1815  2.0731
    1SOL    HW3 8687   0.079   0.438   3.790 -0.5921  0.6308  0.4105
    1SOL    MW4 8688   0.014   0.399   3.834 -0.2390 -0.2505  0.1504
    1SOL     OW 8689   0.227   0.488   3.711 -0.4972 -0.5221 -0.8301
    1SOL    HW2 8690   0.252   0.578   3.732 -2.3000  0.1714 -1.6056
    1SOL    HW3 8691   0.230   0.483   3.616 -1.3264 -1.0240 -0.8310
    1SOL    MW4 8692   0.231   0.499   3.701 -0.8444 -0.4968 -0.9327
    1SOL     OW 8693   0.285   0.743   3.775  0.3420 -0.5344 -0.0187
    1SOL    HW2 8694   0.279   0.736   3.871 -0.2646 -0.7382 -0.0667
    1SOL    HW3 8695   0.203   0.785   3.750  0.1722 -1.1561 -0.5173
    1SOL    MW4 8696   0.273   0.747   3.785  0.2396 -0.6433 -0.0906
    1SOL     OW 8697   0.035   0.889   3.747  0.3996  0.0784 -0.4921
    1SOL    HW2 8698  -0.043   0.850   3.787  1.0945  0.2907  1.1135
    1SOL    HW3 8699   0.037   0.979   3.780  2.6276 -0.6195  1.4694
    1SOL    MW4 8700   0.025   0.895   3.757  0.7854  0.0143 -0.0215
    1SOL     OW 8701   0.047   1.152   3.844 -0.3086  0.4705  0.2815
    1SOL    HW2 8702  -0.031   1.198   3.814  0.1636  1.1812  0.1129
    1SOL    HW3 8703   0.042   1.156   3.940 -1.0812 -0.5315  0.2867
    1SOL    MW4 8704   0.036   1.159   3.853 -0.3483  0.4320  0.2599
    1SOL     OW 8705   0.284   1.287   3.771 -0.2158  0.2678  0.0267
    1SOL    HW2 8706   0.269   1.382   3.767 -0.7237  0.2398  1.1160
    1SOL    HW3 8707   0.199   1.251   3.794 -0.3033 -0.5670 -1.5372
    1SOL    MW4 8708   0.271   1.295   3.773 -0.2944  0.1540 -0.0362
    1SOL     OW 8709   0.206   1.549   3.822  0.0221  0.3254  0.4619
    1SOL    HW2 8710   0.219   1.543   3.916 -1.7641 -1.5599  0.6089
    1SOL    HW3 8711   0.125   1.598   3.811 -0.3032 -0.3235 -0.0647
    1SOL    MW4 8712   0.197   1.554   3.833 -0.2565 -0.0089  0.4117
    1SOL     OW 8713   4.442   1.694   3.813  0.6550 -0.1650  0.3129
    1SOL    HW2 8714   4.440   1.789   3.824 -0.8731 -0.2482  0.8865
    1SOL    HW3 8715   4.444   1.681   3.718 -0.7105  0.4424  0.1851
    1SOL    MW4 8716   4.442   1.704   3.802  0.2737 -0.0958  0.3719
    1SOL     OW 8717   4.449   1.988   3.862  0.1335  0.2616  0.1276
    1SOL    HW2 8718   4.443   1.977   3.957 -1.0977 -2.4331 -0.2171
    1SOL    HW3 8719   4.361   2.012   3.835  0.2671  0.1123 -0.4415
    1SOL    MW4 8720   4.437   1.990   3.871 -0.0110 -0.1135  0.0072
    1SOL     OW 8721   0.212   2.043   3.778 -0.0363  0.3271  0.5679
    1SOL    HW2 8722   0.218   2.139   3.783 -0.2814  0.3810 -0.0340
    1SOL    HW3 8723   0.120   2.024   3.796 -0.0719  0.2396  0.3025
    1SOL    MW4 8724   0.200   2.053   3.781 -0.0733  0.3226  0.4535
    1SOL     OW 8725   0.251   2.335   3.817 -0.2399  0.3178  0.3715
    1SOL    HW2 8726   0.275   2.344   3.909 -0.7132  2.2095  0.3322
    1SOL    HW3 8727   0.161   2.365   3.812 -0.4250 -0.3644 -0.6148
    1SOL    MW4 8728   0.243   2.340   3.828 -0.3268  0.4771  0.2363
    1SOL     OW 8729   4.459   2.411   3.775 -0.7017 -0.2217  0.0832
    1SOL    HW2 8730   4.369   2.397   3.803 -0.5621 -1.0304  0.1536
    1SOL    HW3 8731   4.481   2.499   3.806 -0.5523 -1.0836  2.5218
    1SOL    MW4 8732   4.450   2.421   3.783 -0.6636 -0.4423  0.4144
    1SOL     OW 8733   0.010   2.686   3.888  0.5090  0.0181 -0.1382
    1SOL    HW2 8734   0.008   2.677   3.983  0.5624  1.3002 -0.0087
    1SOL    HW3 8735   0.094   2.728   3.870  0.1514  0.5165 -0.6704
    1SOL    MW4 8736   0.021   2.691   3.898  0.4688  0.2532 -0.1910
    1SOL     OW 8737   0.237   2.805   3.745 -0.4556 -0.3916 -0.3706
    1SOL    HW2 8738   0.324   2.788   3.781 -0.3828  0.9773  0.1404
    1SOL    HW3 8739   0.251   2.808   3.650  0.1127  0.0589 -0.2807
    1SOL    MW4 8740   0.251   2.804   3.737 -0.3710 -0.1514 -0.2913
    1SOL     OW 8741   0.213   3.060   3.856 -0.4479 -0.6252  0.0330
    1SOL    HW2 8742   0.226   3.044   3.949 -0.3280  0.0200  0.1310
    1SOL    HW3 8743   0.217   2.974   3.815 -2.0535 -1.0891  0.8195
    1SOL    MW4 8744   0.215   3.047   3.863 -0.6439 -0.6013  0.1495
    1SOL     OW 8745   4.479   3.200   3.808 -0.6137  0.4715  0.2862
    1SOL    HW2 8746   4.555   3.144   3.825 -0.7118  0.2886  0.1211
    1SOL    HW3 8747   4.489   3.227   3.717 -2.5171 -2.2896 -0.8276
    1SOL    MW4 8748   4.490   3.196   3.799 -0.8778  0.0832  0.1175
    1SOL     OW 8749   4.482   3.468   3.898  0.4318 -0.1401 -0.2669
    1SOL    HW2 8750   4.556   3.509   3.853  2.4893 -0.9796  2.2417
    1SOL    HW3 8751   4.488   3.376   3.873  0.3631 -0.2453  0.1082
    1SOL    MW4 8752   4.493   3.461   3.889  0.6942 -0.2644  0.1137
    1SOL     OW 8753   0.201   3.617   3.769 -0.1140 -0.2826  0.4152
    1SOL    HW2 8754   0.274   3.575   3.815 -1.4950 -2.3925  0.7630
    1SOL    HW3 8755   0.206   3.709   3.796  2.4543 -0.3542  0.3404
    1SOL    MW4 8756   0.211   3.623   3.779  0.0427 -0.5708  0.4513
    1SOL     OW 8757   0.242   3.894   3.861 -0.1707  0.5235 -0.4009
    1SOL    HW2 8758   0.319   3.946   3.839  0.2480  0.1929  0.2643
    1SOL    HW3 8759   0.262   3.855   3.946 -0.5432 -0.5874 -0.8007
    1SOL    MW4 8760   0.255   3.896   3.869 -0.1646  0.3333 -0.3657
    1SOL     OW 8761   4.464   3.965   3.768 -0.0758  0.2078  0.0511
    1SOL    HW2 8762   4.388   3.936   3.818  0.0997  1.5115  1.0980
    1SOL    HW3 8763   4.537   3.916   3.807 -0.1443  0.1579  0.1179
    1SOL    MW4 8764   4.464   3.954   3.780 -0.0615  0.3736  0.1979
    1SOL     OW 8765   0.003   4.201   3.893  0.4727 -0.7700 -0.0103
    1SOL    HW2 8766   0.072   4.256   3.855 -0.9749  0.2194 -1.2767
    1SOL    HW3 8767  -0.011   4.132   3.828 -1.6561  0.6347 -1.1068
    1SOL    MW4 8768   0.011   4.199   3.879  0.0008 -0.4539 -0.3219
    1SOL     OW 8769   0.226   4.355   3.795 -0.2949 -0.1141  0.1618
    1SOL    HW2 8770   0.311   4.332   3.834  0.3561  0.3038 -0.9684
    1SOL    HW3 8771   0.219   4.450   3.808 -0.2536 -0.0360 -0.3686
    1SOL    MW4 8772   0.236   4.365   3.802 -0.2036 -0.0486 -0.0572
    1SOL     OW 8773   0.690   4.664   3.870  0.0169  0.5075 -0.0325
    1SOL    HW2 8774   0.703   4.575   3.838  0.0394  0.7400 -0.6740
    1SOL    HW3 8775   0.619   4.699   3.816 -0.3862  0.6869  0.6017
    1SOL    MW4 8776   0.682   4.657   3.859 -0.0334  0.5617 -0.0334
    1SOL     OW 8777   0.468   0.090   3.721 -0.5336 -0.2846 -0.5257
    1SOL    HW2 8778   0.453   0.170   3.772 -0.0152  0.2790 -1.2535
    1SOL    HW3 8779   0.414   0.024   3.765  0.9228 -0.1352  1.5449
    1SOL    MW4 8780   0.459   0.092   3.734 -0.2730 -0.1905 -0.3483
    1SOL     OW 8781   0.443   0.360   3.863  0.3772 -0.0926  0.4732
    1SOL    HW2 8782   0.516   0.414   3.835  0.7532 -1.1696 -0.6092
    1SOL    HW3 8783   0.367   0.395   3.816  0.6092 -0.4728 -0.1784
    1SOL    MW4 8784   0.442   0.372   3.853  0.4574 -0.2849  0.2444
    1SOL     OW 8785   0.687   0.518   3.770 -0.3571 -0.2011  0.5801
    1SOL    HW2 8786   0.759   0.472   3.814  0.0418  0.3234  0.4728
    1SOL    HW3 8787   0.689   0.606   3.806 -1.4733 -0.4250  1.1867
    1SOL    MW4 8788   0.697   0.524   3.780 -0.4517 -0.1615  0.6461
    1SOL     OW 8789   0.754   0.771   3.863  0.3542 -0.2595  0.0825
    1SOL    HW2 8790   0.836   0.818   3.849 -0.0990 -0.1553 -2.2999
    1SOL    HW3 8791   0.689   0.818   3.810 -1.1697 -0.6018  1.5984
    1SOL    MW4 8792   0.756   0.783   3.854  0.0934 -0.2909 -0.0319
    1SOL     OW 8793   0.523   0.867   3.748  0.6688  0.3821  0.3236
    1SOL    HW2 8794   0.512   0.956   3.780 -0.3524  1.1948 -2.1364
    1SOL    HW3 8795   0.440   0.824   3.768  0.6819  0.3696  0.3510
    1SOL    MW4 8796   0.511   0.873   3.755  0.5358  0.4877  0.0026
    1SOL     OW 8797   0.482   1.121   3.871 -0.1946  0.2566 -0.1297
    1SOL    HW2 8798   0.556   1.175   3.843  0.0302  0.5696  1.0514
    1SOL    HW3 8799   0.405   1.166   3.837 -0.0567  1.6783  1.3847
    1SOL    MW4 8800   0.481   1.134   3.863 -0.1467  0.4853  0.2260
    1SOL     OW 8801   0.711   1.254   3.788 -0.7215 -0.3536  0.0511
    1SOL    HW2 8802   0.792   1.220   3.824 -1.2837 -0.9868  0.7375
    1SOL    HW3 8803   0.727   1.260   3.694  0.1671 -0.3324  0.2054
    1SOL    MW4 8804   0.724   1.250   3.780 -0.6784 -0.4343  0.1619
    1SOL     OW 8805   0.643   1.520   3.889 -0.1306  0.3503  0.1113
    1SOL    HW2 8806   0.723   1.551   3.846 -1.2031  0.5543 -1.7621
    1SOL    HW3 8807   0.638   1.427   3.865  0.6581 -0.2131  1.9971
    1SOL    MW4 8808   0.653   1.512   3.880 -0.1681  0.3028  0.1130
    1SOL     OW 8809   0.451   1.665   3.740  0.1748  0.0850  0.1063
    1SOL    HW2 8810   0.516   1.615   3.789  0.6661  0.9137  0.2908
    1SOL    HW3 8811   0.367   1.627   3.767  0.5588 -0.8350  0.0325
    1SOL    MW4 8812   0.448   1.653   3.750  0.2903  0.0728  0.1211
    1SOL     OW 8813   0.457   1.920   3.855 -0.5014  0.1153  0.1322
    1SOL    HW2 8814   0.461   1.837   3.807  0.0394  1.1314 -1.6113
    1SOL    HW3 8815   0.372   1.957   3.832 -1.1744 -0.4141  1.7164
    1SOL    MW4 8816   0.446   1.914   3.845 -0.5189  0.1795  0.1116
    1SOL     OW 8817   0.672   2.037   3.713 -0.3153  0.2910 -0.1073
    1SOL    HW2 8818   0.672   2.130   3.739 -0.7506 -0.2514  1.9469
    1SOL    HW3 8819   0.599   1.999   3.762  0.9385 -1.4954  0.4244
    1SOL    MW4 8820   0.662   2.045   3.723 -0.2073 -0.0165  0.2339
    1SOL     OW 8821   0.673   2.305   3.813  0.0441  0.1328 -0.4707
    1SOL    HW2 8822   0.767   2.321   3.801  0.2353  0.0104  0.7720
    1SOL    HW3 8823   0.630   2.381   3.774  0.7803  1.6904  1.6597
    1SOL    MW4 8824   0.680   2.317   3.807  0.1665  0.3221 -0.0257
    1SOL     OW 8825   0.473   2.468   3.727 -0.5505  0.0637 -0.3313
    1SOL    HW2 8826   0.395   2.421   3.757 -0.5547 -0.6029 -1.3428
    1SOL    HW3 8827   0.474   2.454   3.632 -0.1355  1.5001 -0.5479
    1SOL    MW4 8828   0.463   2.460   3.718 -0.4963  0.1652 -0.4935
    1SOL     OW 8829   0.482   2.712   3.876 -0.0878 -0.2194  0.2818
    1SOL    HW2 8830   0.566   2.749   3.851  1.2732 -1.7380  2.3576
    1SOL    HW3 8831   0.470   2.638   3.817  0.7292 -0.8340  0.8694
    1SOL    MW4 8832   0.492   2.707   3.865  0.1996 -0.5009  0.6335
    1SOL     OW 8833   0.720   2.817   3.776  0.0584 -0.0997  0.4865
    1SOL    HW2 8834   0.792   2.754   3.782  0.3074  0.1544  0.1602
    1SOL    HW3 8835   0.702   2.825   3.682  0.7679  1.1453  0.4407
    1SOL    MW4 8836   0.727   2.810   3.764  0.1849  0.0982  0.4377
    1SOL     OW 8837   0.660   3.067   3.881 -0.0005  0.2194 -0.1419
    1SOL    HW2 8838   0.678   3.069   3.975 -1.2808  1.9718  0.0857
    1SOL    HW3 8839   0.674   2.975   3.856 -1.5467 -0.6847  2.1547
    1SOL    MW4 8840   0.664   3.055   3.890 -0.3734  0.3314  0.1910
    1SOL     OW 8841   0.444   3.228   3.821 -0.9333  0.2243  0.3877
    1SOL    HW2 8842   0.516   3.168   3.839 -0.6106  0.9902  1.7258
    1SOL    HW3 8843   0.368   3.172   3.808 -0.5733 -0.4901  1.3187
    1SOL    MW4 8844   0.443   3.213   3.821 -0.8432  0.2308  0.6871
    1SOL     OW 8845   0.433   3.509   3.905  0.2209  0.0477  0.0969
    1SOL    HW2 8846   0.517   3.548   3.880  0.8845 -1.2107  0.2774
    1SOL    HW3 8847   0.442   3.417   3.879 -1.3550  0.0538 -0.4654
    1SOL    MW4 8848   0.446   3.502   3.898  0.1006 -0.1175  0.0467
    1SOL     OW 8849   0.668   3.650   3.835  0.1261  0.0748  0.2780
    1SOL    HW2 8850   0.695   3.739   3.854 -0.6468  0.1630  1.0146
    1SOL    HW3 8851   0.669   3.644   3.739  0.8719  0.6459  0.2478
    1SOL    MW4 8852   0.671   3.661   3.825  0.1225  0.1616  0.3712
    1SOL     OW 8853   0.709   3.927   3.891  0.2726 -0.3273 -0.0639
    1SOL    HW2 8854   0.745   3.925   3.980  0.7864 -1.5736 -0.2911
    1SOL    HW3 8855   0.773   3.978   3.841  0.5515 -0.5759  0.0367
    1SOL    MW4 8856   0.722   3.933   3.896  0.3772 -0.5245 -0.0806
    1SOL     OW 8857   0.458   4.044   3.776 -0.5299  0.3174  0.0108
    1SOL    HW2 8858   0.543   4.013   3.805 -0.0203  1.1160 -0.5997
    1SOL    HW3 8859   0.458   4.031   3.681 -1.6599 -1.0301  0.1740
    1SOL    MW4 8860   0.469   4.039   3.767 -0.6118  0.2446 -0.0482
    1SOL     OW 8861   0.481   4.304   3.914 -0.0024  0.0465 -0.2227
    1SOL    HW2 8862   0.564   4.340   3.881 -0.3222  1.1268  0.1089
    1SOL    HW3 8863   0.477   4.216   3.878  1.5807 -0.2341  0.2494
    1SOL    MW4 8864   0.492   4.297   3.904  0.1643  0.1521 -0.1166
    1SOL     OW 8865   0.715   4.401   3.795 -0.9774 -0.0980 -0.3797
    1SOL    HW2 8866   0.787   4.346   3.825  0.9111  2.3144 -0.3106
    1SOL    HW3 8867   0.711   4.387   3.701 -1.0191 -0.9179 -0.2558
    1SOL    MW4 8868   0.724   4.392   3.787 -0.7337  0.1116 -0.3543
    1SOL     OW 8869   1.110   0.005   3.926 -0.2140 -0.0333  0.1596
    1SOL    HW2 8870   1.180   0.060   3.890 -0.5985  0.3283 -0.0371
    1SOL    HW3 8871   1.113  -0.074   3.873  0.4608 -0.2849  0.5595
    1SOL    MW4 8872   1.120   0.002   3.914 -0.1756 -0.0188  0.1862
    1SOL     OW 8873   0.914   0.135   3.779 -0.0347  0.0478  0.1408
    1SOL    HW2 8874   0.992   0.106   3.826 -0.0800 -2.2138 -1.0904
    1SOL    HW3 8875   0.842   0.087   3.820 -0.4005 -0.0247 -0.5768
    1SOL    MW4 8876   0.914   0.125   3.790 -0.0889 -0.2602 -0.1163
    1SOL     OW 8877   0.897   0.378   3.904  0.5805 -0.4805  0.0231
    1SOL    HW2 8878   0.907   0.365   3.998  0.0987 -1.0358  0.0037
    1SOL    HW3 8879   0.889   0.289   3.869 -0.2348 -0.2349 -0.4267
    1SOL    MW4 8880   0.897   0.364   3.911  0.4094 -0.5214 -0.0389
    1SOL     OW 8881   1.104   0.486   3.756  0.1376  0.1260  0.0491
    1SOL    HW2 8882   1.175   0.445   3.804  0.7833  1.1601 -0.0098
    1SOL    HW3 8883   1.024   0.449   3.795  0.6701 -0.0093  1.0287
    1SOL    MW4 8884   1.103   0.476   3.767  0.2931  0.2446  0.1705
    1SOL     OW 8885   1.178   0.738   3.860  0.0027  0.1669  0.2872
    1SOL    HW2 8886   1.185   0.743   3.956 -0.2535 -0.3507  0.3367
    1SOL    HW3 8887   1.165   0.645   3.842 -3.7863  0.6661  0.0238
    1SOL    MW4 8888   1.177   0.726   3.871 -0.5311  0.1644  0.2592
    1SOL     OW 8889   0.977   0.921   3.793  0.1653 -0.0786 -0.0787
    1SOL    HW2 8890   1.045   0.855   3.808  0.7999  0.6594  0.3622
    1SOL    HW3 8891   0.959   0.917   3.699  0.2994 -0.7791 -0.0731
    1SOL    MW4 8892   0.984   0.912   3.782  0.2668 -0.0736 -0.0198
    1SOL     OW 8893   0.933   1.155   3.912 -0.2488  0.3251 -0.7132
    1SOL    HW2 8894   0.921   1.149   4.007  0.3753  2.9424 -0.4111
    1SOL    HW3 8895   0.943   1.065   3.882  1.1057 -0.4194  1.9231
    1SOL    MW4 8896   0.932   1.143   3.920  0.0123  0.5722 -0.3257
    1SOL     OW 8897   1.153   1.298   3.799  0.2185 -0.1036 -0.6389
    1SOL    HW2 8898   1.140   1.391   3.819  0.6755  0.0870 -1.2102
    1SOL    HW3 8899   1.084   1.253   3.848 -0.3636  0.5860 -0.8179
    1SOL    MW4 8900   1.142   1.305   3.808  0.2019  0.0125 -0.7379
    1SOL     OW 8901   1.107   1.556   3.850 -0.0286 -0.1080  0.0800
    1SOL    HW2 8902   1.130   1.538   3.941 -0.3743  0.8852  0.3644
    1SOL    HW3 8903   1.180   1.607   3.816  0.3296 -0.8903 -0.3497
    1SOL    MW4 8904   1.120   1.560   3.857 -0.0268 -0.0802  0.0610
    1SOL     OW 8905   0.863   1.657   3.748  0.2504 -0.1579  0.3103
    1SOL    HW2 8906   0.950   1.626   3.774  0.1549 -0.7692 -0.0869
    1SOL    HW3 8907   0.866   1.660   3.653 -0.3854 -0.8487  0.2638
    1SOL    MW4 8908   0.875   1.653   3.739  0.1540 -0.3297  0.2515
    1SOL     OW 8909   0.882   1.920   3.842  0.1450  0.4700 -0.1752
    1SOL    HW2 8910   0.865   1.827   3.825  1.3215  0.2573 -0.1816
    1SOL    HW3 8911   0.813   1.966   3.793 -0.7980 -0.4158  0.3087
    1SOL    MW4 8912   0.871   1.914   3.833  0.1758  0.3250 -0.1125
    1SOL     OW 8913   1.129   1.988   3.754 -0.7151  0.6732  0.1581
    1SOL    HW2 8914   1.039   1.971   3.782 -0.9281  0.7386 -0.4962
    1SOL    HW3 8915   1.124   1.998   3.659 -0.0261  0.7313  0.1238
    1SOL    MW4 8916   1.116   1.987   3.746 -0.6524  0.6894  0.0672
    1SOL     OW 8917   1.165   2.254   3.794 -0.3896  0.2380  0.1819
    1SOL    HW2 8918   1.166   2.264   3.889  0.4815 -0.6118  0.2663
    1SOL    HW3 8919   1.159   2.159   3.780  3.2742  0.0449 -0.6113
    1SOL    MW4 8920   1.164   2.242   3.804  0.2086  0.1004  0.0885
    1SOL     OW 8921   0.928   2.402   3.763 -0.1157 -0.5799 -0.4861
    1SOL    HW2 8922   0.944   2.487   3.803  0.6034  0.3150 -2.5661
    1SOL    HW3 8923   1.011   2.354   3.774 -0.4729 -0.9553  0.5589
    1SOL    MW4 8924   0.941   2.406   3.769 -0.0679 -0.5114 -0.6227
    1SOL     OW 8925   0.946   2.669   3.848 -0.2097  0.4801  0.0262
    1SOL    HW2 8926   0.948   2.678   3.943  0.6717 -1.1270  0.1787
    1SOL    HW3 8927   1.017   2.725   3.817  0.1211  0.2629  0.3866
    1SOL    MW4 8928   0.956   2.678   3.856 -0.0498  0.2394  0.0937
    1SOL     OW 8929   1.140   2.832   3.755 -0.7149 -0.3236  0.2947
    1SOL    HW2 8930   1.212   2.788   3.800 -0.5937 -0.3816  0.0402
    1SOL    HW3 8931   1.136   2.919   3.796  0.9795  0.5260 -1.2501
    1SOL    MW4 8932   1.149   2.838   3.767 -0.4754 -0.2191  0.0572
    1SOL     OW 8933   1.139   3.090   3.864 -0.0558 -0.1303  0.2818
    1SOL    HW2 8934   1.205   3.145   3.822 -0.3098  0.2801  0.4217
    1SOL    HW3 8935   1.056   3.127   3.836 -0.2293  0.3347  1.4036
    1SOL    MW4 8936   1.137   3.102   3.854 -0.1122 -0.0148  0.4482
    1SOL     OW 8937   0.884   3.186   3.750 -0.0369 -0.2771 -0.0247
    1SOL    HW2 8938   0.802   3.145   3.779 -0.3528 -0.1222 -0.6883
    1SOL    HW3 8939   0.877   3.189   3.655  0.6626 -0.0925 -0.0717
    1SOL    MW4 8940   0.872   3.181   3.741  0.0137 -0.2325 -0.1185
    1SOL     OW 8941   0.907   3.452   3.864 -0.3069 -0.2372  0.3960
    1SOL    HW2 8942   0.887   3.363   3.838  0.8614 -0.8284  1.4656
    1SOL    HW3 8943   0.824   3.499   3.856 -0.7408 -1.2107 -0.9617
    1SOL    MW4 8944   0.893   3.447   3.860 -0.2100 -0.4437  0.3579
    1SOL     OW 8945   1.128   3.580   3.762  0.3551  0.0941 -0.1218
    1SOL    HW2 8946   1.126   3.668   3.800  1.1326  0.2192 -0.3708
    1SOL    HW3 8947   1.054   3.535   3.803  0.4386  0.6134  0.6070
    1SOL    MW4 8948   1.118   3.586   3.772  0.4689  0.1791 -0.0584
    1SOL     OW 8949   1.095   3.854   3.875  0.4190  0.0667 -0.6152
    1SOL    HW2 8950   1.091   3.875   3.968  0.6990 -0.9808 -0.3601
    1SOL    HW3 8951   1.172   3.901   3.843  0.8323 -0.2709 -0.1230
    1SOL    MW4 8952   1.105   3.863   3.883  0.5105 -0.1159 -0.5167
    1SOL     OW 8953   0.925   4.026   3.746  0.2270 -0.0422  0.1186
    1SOL    HW2 8954   0.979   3.956   3.784 -1.7523 -1.6071  0.0892
    1SOL    HW3 8955   0.902   3.994   3.659 -2.2936 -0.2320  0.8302
    1SOL    MW4 8956   0.929   4.012   3.740 -0.3667 -0.2737  0.2086
    1SOL     OW 8957   0.939   4.277   3.900 -0.0050  0.3124  0.6649
    1SOL    HW2 8958   0.918   4.257   3.991  0.1114 -0.7602  0.4636
    1SOL    HW3 8959   0.934   4.193   3.855 -0.9614  0.9687 -0.5019
    1SOL    MW4 8960   0.936   4.263   3.906 -0.1158  0.2575  0.4842
    1SOL     OW 8961   1.139   4.441   3.768  0.4227 -0.3364  0.0067
    1SOL    HW2 8962   1.072   4.394   3.816  0.4555 -0.6993 -0.3018
    1SOL    HW3 8963   1.132   4.409   3.678  0.3811  0.3127 -0.2269
    1SOL    MW4 8964   1.130   4.431   3.763  0.4215 -0.2985 -0.0646
    1SOL     OW 8965   1.570   4.656   3.862  0.1785 -0.0878 -0.9989
    1SOL    HW2 8966   1.557   4.642   3.956 -0.4795  2.0277 -0.7269
    1SOL    HW3 8967   1.577   4.569   3.825 -0.2736 -0.9733  0.9305
    1SOL    MW4 8968   1.569   4.643   3.870  0.0321  0.0744 -0.7083
    1SOL     OW 8969   1.343   0.120   3.776 -0.4612 -0.0201  0.1211
    1SOL    HW2 8970   1.349   0.208   3.814  0.0476 -0.1355  0.3047
    1SOL    HW3 8971   1.425   0.077   3.800 -0.7055 -0.5480  0.0331
    1SOL    MW4 8972   1.355   0.126   3.784 -0.4263 -0.1049  0.1340
    1SOL     OW 8973   1.326   0.378   3.900 -0.1502 -0.5276  0.0790
    1SOL    HW2 8974   1.329   0.391   3.995 -0.4575  0.5096 -0.0476
    1SOL    HW3 8975   1.411   0.410   3.869  0.5565 -2.2758  0.1611
    1SOL    MW4 8976   1.338   0.384   3.908 -0.0975 -0.6214  0.0732
    1SOL     OW 8977   1.561   0.500   3.806  0.0925  0.1955 -0.7845
    1SOL    HW2 8978   1.641   0.451   3.825 -0.1328 -0.9373 -2.6723
    1SOL    HW3 8979   1.571   0.582   3.855  0.9267 -1.2678  1.5917
    1SOL    MW4 8980   1.573   0.504   3.815  0.1727 -0.1470 -0.7200
    1SOL     OW 8981   1.583   0.765   3.896  0.0423 -0.0739 -0.0722
    1SOL    HW2 8982   1.660   0.802   3.854 -0.0415  0.2913  0.0918
    1SOL    HW3 8983   1.510   0.815   3.860 -0.1688 -0.7811 -0.6329
    1SOL    MW4 8984   1.584   0.776   3.886  0.0035 -0.1191 -0.1249
    1SOL     OW 8985   1.381   0.884   3.766 -0.2296 -0.0923  0.1795
    1SOL    HW2 8986   1.370   0.974   3.795  0.4088  0.0199  0.0930
    1SOL    HW3 8987   1.313   0.835   3.812 -0.7561  0.4763  0.0092
    1SOL    MW4 8988   1.371   0.889   3.776 -0.2148 -0.0025  0.1457
    1SOL     OW 8989   1.363   1.143   3.886  0.2537 -0.5698 -0.2906
    1SOL    HW2 8990   1.439   1.189   3.850  0.8143 -0.0102  1.5416
    1SOL    HW3 8991   1.288   1.197   3.860  0.7474  0.4123  0.2814
    1SOL    MW4 8992   1.363   1.156   3.878  0.3927 -0.3663  0.0265
    1SOL     OW 8993   1.573   1.268   3.769  0.5186 -0.2009  0.1557
    1SOL    HW2 8994   1.654   1.234   3.806  0.5109  0.0580  0.4134
    1SOL    HW3 8995   1.560   1.353   3.812  0.6278  0.2067 -0.6056
    1SOL    MW4 8996   1.582   1.275   3.779  0.5319 -0.1129  0.0889
    1SOL     OW 8997   1.563   1.536   3.862  0.1384  0.4202  0.2121
    1SOL    HW2 8998   1.569   1.585   3.944  1.1515 -0.0243  0.4113
    1SOL    HW3 8999   1.648   1.552   3.819  0.5533 -1.3028  0.3627
    1SOL    MW4 9000   1.575   1.545   3.867  0.3269  0.1341  0.2582
    1SOL     OW 9001   1.339   1.688   3.762  0.3328 -0.0963  0.0621
    1SOL    HW2 9002   1.346   1.767   3.816 -1.2764 -0.2493  0.4900
    1SOL    HW3 9003   1.415   1.635   3.788  0.0125  0.1714  1.6122
    1SOL    MW4 9004   1.350   1.692   3.773  0.0781 -0.0811  0.3233
    1SOL     OW 9005   1.360   1.929   3.903  0.2728  0.0447 -0.3166
    1SOL    HW2 9006   1.352   1.926   3.998  1.2888  1.3273 -0.1769
    1SOL    HW3 9007   1.270   1.944   3.872 -0.1196 -0.7399  0.4053
    1SOL    MW4 9008   1.347   1.930   3.911  0.3551  0.1105 -0.2031
    1SOL     OW 9009   1.602   2.042   3.770  0.0052  0.0499 -0.0724
    1SOL    HW2 9010   1.522   2.006   3.808 -0.6165  2.0097  0.5602
    1SOL    HW3 9011   1.584   2.046   3.676  0.2456 -1.6532 -0.1980
    1SOL    MW4 9012   1.589   2.038   3.763 -0.0451  0.0837 -0.0055
    1SOL     OW 9013   1.598   2.300   3.864  0.0038  0.3305  0.2200
    1SOL    HW2 9014   1.573   2.278   3.954 -3.0488  0.8662 -0.4343
    1SOL    HW3 9015   1.606   2.215   3.821 -0.6614  0.1412  0.4653
    1SOL    MW4 9016   1.596   2.286   3.870 -0.4866  0.3762  0.1659
    1SOL     OW 9017   1.380   2.432   3.747  0.0490  0.2023 -0.0294
    1SOL    HW2 9018   1.455   2.396   3.792 -0.4742  0.3544  0.9715
    1SOL    HW3 9019   1.310   2.368   3.762 -0.2981  0.5691 -0.0895
    1SOL    MW4 9020   1.380   2.419   3.755 -0.0658  0.2708  0.0944
    1SOL     OW 9021   1.327   2.674   3.879  0.2194 -0.8103  0.2307
    1SOL    HW2 9022   1.332   2.664   3.974  0.0854 -1.1842  0.1986
    1SOL    HW3 9023   1.336   2.585   3.845 -1.1524 -0.8556 -0.0487
    1SOL    MW4 9024   1.329   2.661   3.887  0.0209 -0.8655  0.1895
    1SOL     OW 9025   1.567   2.824   3.800  0.3576  0.1500 -0.2590
    1SOL    HW2 9026   1.494   2.770   3.831  1.5484 -1.0264  0.5043
    1SOL    HW3 9027   1.558   2.822   3.704  0.5735 -1.6943 -0.2673
    1SOL    MW4 9028   1.556   2.817   3.791  0.5432 -0.2484 -0.1593
    1SOL     OW 9029   1.585   3.109   3.851 -0.3633  0.0115  0.2503
    1SOL    HW2 9030   1.606   3.097   3.944  0.4254 -0.1068  0.0602
    1SOL    HW3 9031   1.554   3.023   3.822 -0.1818 -0.0691  0.2948
    1SOL    MW4 9032   1.584   3.096   3.860 -0.2353 -0.0148  0.2308
    1SOL     OW 9033   1.363   3.253   3.762 -0.2174 -0.0342  0.4394
    1SOL    HW2 9034   1.363   3.330   3.818  0.4009 -0.2772  0.7775
    1SOL    HW3 9035   1.439   3.202   3.791 -0.1886 -0.4062 -0.2809
    1SOL    MW4 9036   1.373   3.256   3.773 -0.1321 -0.1154  0.3889
    1SOL     OW 9037   1.349   3.482   3.906  0.2437  0.2018  0.2223
    1SOL    HW2 9038   1.415   3.535   3.860  0.1498 -0.5106 -0.7499
    1SOL    HW3 9039   1.266   3.506   3.865  0.2956 -1.2760 -0.7926
    1SOL    MW4 9040   1.347   3.492   3.895  0.2381 -0.0873 -0.0398
    1SOL     OW 9041   1.578   3.625   3.738  0.2087  0.2884  0.5498
    1SOL    HW2 9042   1.653   3.597   3.791  0.2874 -0.2294  0.1735
    1SOL    HW3 9043   1.565   3.717   3.760 -0.0199 -0.0332  1.7756
    1SOL    MW4 9044   1.586   3.634   3.748  0.1889  0.1779  0.6616
    1SOL     OW 9045   1.571   3.868   3.851  0.0025  0.2133  0.3218
    1SOL    HW2 9046   1.566   3.849   3.945 -0.8193 -0.9596  0.0580
    1SOL    HW3 9047   1.488   3.913   3.832 -0.8116 -1.4745 -0.2401
    1SOL    MW4 9048   1.559   3.871   3.861 -0.2131 -0.1640  0.2131
    1SOL     OW 9049   1.320   4.000   3.806 -0.0245 -0.3625  0.2570
    1SOL    HW2 9050   1.315   4.093   3.832  1.1602 -0.5495  1.1915
    1SOL    HW3 9051   1.326   4.003   3.711  1.2671  0.5938  0.3446
    1SOL    MW4 9052   1.320   4.013   3.797  0.3021 -0.2613  0.3922
    1SOL     OW 9053   1.323   4.262   3.868  0.1981  0.2030 -0.4307
    1SOL    HW2 9054   1.406   4.295   3.833  0.2272  1.1090  0.4659
    1SOL    HW3 9055   1.258   4.323   3.835  0.1495  0.7009  0.5655
    1SOL    MW4 9056   1.326   4.275   3.859  0.1955  0.3877 -0.1807
    1SOL     OW 9057   1.557   4.387   3.766  0.0053  0.1484 -0.0228
    1SOL    HW2 9058   1.640   4.349   3.795 -0.4475 -1.0592 -0.2945
    1SOL    HW3 9059   1.559   4.379   3.671 -0.2097  0.5593 -0.0608
    1SOL    MW4 9060   1.568   4.381   3.758 -0.0829  0.0429 -0.0637
    1SOL     OW 9061   1.979   4.622   3.887  0.3534  0.4423  0.1888
    1SOL    HW2 9062   2.062   4.664   3.866  0.3062 -0.0065 -0.9347
    1SOL    HW3 9063   1.991   4.530   3.862 -0.4225  0.3422  0.1602
    1SOL    MW4 9064   1.991   4.616   3.881  0.2449  0.3700  0.0367
    1SOL     OW 9065   1.786   0.133   3.760  0.2032 -0.1024 -0.5246
    1SOL    HW2 9066   1.861   0.086   3.795 -0.1003 -0.3431 -0.1943
    1SOL    HW3 9067   1.711   0.077   3.779 -0.0471  0.0762 -0.9702
    1SOL    MW4 9068   1.786   0.120   3.767  0.1302 -0.1106 -0.5400
    1SOL     OW 9069   1.805   0.389   3.868 -0.3499 -0.3520  0.3034
    1SOL    HW2 9070   1.804   0.382   3.964 -2.1767 -0.5930  0.2960
    1SOL    HW3 9071   1.804   0.298   3.838  1.1302 -0.2933  0.0346
    1SOL    MW4 9072   1.805   0.376   3.877 -0.3957 -0.3760  0.2670
    1SOL     OW 9073   2.054   0.456   3.766  0.1298 -0.1990 -0.1689
    1SOL    HW2 9074   1.965   0.446   3.800  0.3156 -0.6317  0.1905
    1SOL    HW3 9075   2.042   0.464   3.671 -0.2957 -0.2236 -0.1172
    1SOL    MW4 9076   2.041   0.456   3.758  0.0980 -0.2593 -0.1147
    1SOL     OW 9077   2.044   0.727   3.854  0.1112  0.5636  0.4427
    1SOL    HW2 9078   2.028   0.734   3.948  0.8534  0.7359  0.5606
    1SOL    HW3 9079   2.048   0.633   3.837  0.8258  0.5339  0.7397
    1SOL    MW4 9080   2.042   0.715   3.864  0.3035  0.5825  0.4973
    1SOL     OW 9081   1.802   0.841   3.763 -0.0229 -0.5022 -0.1981
    1SOL    HW2 9082   1.881   0.795   3.793  1.3513  2.7566  1.4714
    1SOL    HW3 9083   1.814   0.852   3.669  0.9603 -1.0860 -0.1402
    1SOL    MW4 9084   1.814   0.837   3.754  0.2880 -0.1493  0.0298
    1SOL     OW 9085   1.788   1.104   3.844 -0.6306  0.3707 -0.0638
    1SOL    HW2 9086   1.783   1.098   3.939  1.0535 -0.2342 -0.0079
    1SOL    HW3 9087   1.779   1.014   3.813  0.2537  0.3982 -0.4072
    1SOL    MW4 9088   1.786   1.092   3.853 -0.2917  0.2946 -0.1018
    1SOL     OW 9089   2.027   1.244   3.749 -0.2449  0.2971  0.3834
    1SOL    HW2 9090   2.105   1.210   3.793  0.1338  1.3475  0.5470
    1SOL    HW3 9091   1.955   1.190   3.782  0.5025 -1.1339 -0.2974
    1SOL    MW4 9092   2.028   1.233   3.759 -0.0966  0.2470  0.3154
    1SOL     OW 9093   2.029   1.492   3.890  0.0065 -0.4192  0.1628
    1SOL    HW2 9094   1.945   1.531   3.863 -0.3122 -0.9338  0.3980
    1SOL    HW3 9095   2.027   1.404   3.854  1.2101  0.1387 -1.3091
    1SOL    MW4 9096   2.017   1.486   3.882  0.1230 -0.4135 -0.0005
    1SOL     OW 9097   1.812   1.609   3.782 -0.3361 -0.1977  0.0029
    1SOL    HW2 9098   1.799   1.700   3.809 -3.2919 -0.3955 -0.6025
    1SOL    HW3 9099   1.822   1.614   3.687 -0.5407 -0.5068 -0.0348
    1SOL    MW4 9100   1.812   1.622   3.773 -0.7529 -0.2646 -0.0820
    1SOL     OW 9101   1.807   1.893   3.868  0.2550  0.1524  0.4851
    1SOL    HW2 9102   1.732   1.940   3.833  0.6144  1.0502  0.9112
    1SOL    HW3 9103   1.880   1.919   3.813  0.3541 -0.3651  0.3619
    1SOL    MW4 9104   1.806   1.902   3.856  0.3155  0.2027  0.5252
    1SOL     OW 9105   2.015   2.313   3.890 -0.0496  0.2913 -0.3499
    1SOL    HW2 9106   2.096   2.362   3.874  0.0276  0.6445  1.0531
    1SOL    HW3 9107   1.984   2.345   3.975 -1.4385 -0.1515 -0.6765
    1SOL    MW4 9108   2.022   2.324   3.899 -0.2224  0.2794 -0.2079
    1SOL     OW 9109   2.228   2.440   3.764 -0.0318  0.1968 -0.0674
    1SOL    HW2 9110   2.214   2.425   3.670 -0.6717  1.2759 -0.1633
    1SOL    HW3 9111   2.312   2.398   3.783  0.8689  1.2932 -1.4689
    1SOL    MW4 9112   2.237   2.433   3.754  0.0024  0.4838 -0.2649
    1SOL     OW 9113   1.815   2.467   3.765 -0.3222  0.0673  0.4952
    1SOL    HW2 9114   1.891   2.434   3.813  0.1841  1.1594  0.4586
    1SOL    HW3 9115   1.741   2.423   3.806  0.0915  1.0611  2.3976
    1SOL    MW4 9116   1.815   2.457   3.777 -0.2010  0.3424  0.7412
    1SOL     OW 9117   3.126   2.648   4.596 -0.5522 -0.4776  0.3283
    1SOL    HW2 9118   3.047   2.604   4.564 -1.0096 -0.6414  1.6581
    1SOL    HW3 9119   3.097   2.736   4.620 -0.6398 -0.9708  2.1088
    1SOL    MW4 9120   3.112   2.654   4.595 -0.6242 -0.5643  0.7386
    1SOL     OW 9121   2.041   3.149   3.871  0.0232  0.2804  0.1289
    1SOL    HW2 9122   2.110   3.178   3.811 -0.1392  0.4923  0.0455
    1SOL    HW3 9123   2.074   3.173   3.958 -0.1151  0.7289  0.0600
    1SOL    MW4 9124   2.055   3.156   3.875 -0.0162  0.3676  0.1087
    1SOL     OW 9125   2.058   2.891   3.785 -0.1070 -0.3239 -0.1515
    1SOL    HW2 9126   2.043   2.975   3.829 -0.9395 -0.5513  0.0196
    1SOL    HW3 9127   1.974   2.846   3.792  0.0376 -0.7550 -1.1439
    1SOL    MW4 9128   2.045   2.896   3.792 -0.1979 -0.4106 -0.2596
    1SOL     OW 9129   1.804   3.263   3.765  0.3349  0.5000 -0.3025
    1SOL    HW2 9130   1.883   3.233   3.809 -0.7072 -0.1170  1.2049
    1SOL    HW3 9131   1.735   3.205   3.798 -0.9654  1.8573 -0.5710
    1SOL    MW4 9132   1.805   3.251   3.775  0.0259  0.5977 -0.1388
    1SOL     OW 9133   1.757   3.494   3.927  0.1510  0.3583 -1.0972
    1SOL    HW2 9134   1.832   3.544   3.897  0.2333  0.7214 -0.2907
    1SOL    HW3 9135   1.754   3.418   3.869  0.7688  0.6587 -1.5247
    1SOL    MW4 9136   1.766   3.491   3.916  0.2435  0.4458 -1.0471
    1SOL     OW 9137   1.965   3.623   3.781 -0.2069  0.2764  0.2731
    1SOL    HW2 9138   2.055   3.592   3.784  0.2109  1.3342 -0.8802
    1SOL    HW3 9139   1.938   3.612   3.690 -1.1009  0.3661  0.5198
    1SOL    MW4 9140   1.973   3.618   3.770 -0.2697  0.4282  0.1533
    1SOL     OW 9141   2.005   3.879   3.888  0.3748  0.2085 -0.0755
    1SOL    HW2 9142   2.081   3.924   3.851  0.7035  0.4031  0.8321
    1SOL    HW3 9143   2.006   3.793   3.845  0.2841  0.7235 -1.1179
    1SOL    MW4 9144   2.015   3.873   3.877  0.4060  0.3021 -0.0932
    1SOL     OW 9145   1.794   3.984   3.752 -0.4114 -0.4156  0.2119
    1SOL    HW2 9146   1.870   3.940   3.791 -1.1249 -2.1708 -0.3334
    1SOL    HW3 9147   1.719   3.940   3.790 -1.2131  2.0810  1.6187
    1SOL    MW4 9148   1.794   3.972   3.762 -0.6113 -0.3178  0.3254
    1SOL     OW 9149   1.773   4.236   3.864  0.3128 -0.0016 -0.4104
    1SOL    HW2 9150   1.865   4.257   3.844  0.6658 -0.9921  0.1386
    1SOL    HW3 9151   1.761   4.147   3.831 -1.0589  0.8775 -2.3488
    1SOL    MW4 9152   1.784   4.227   3.857  0.1785 -0.0162 -0.5937
    1SOL     OW 9153   2.014   4.341   3.762  0.4026 -0.9112 -0.5524
    1SOL    HW2 9154   2.101   4.306   3.783  0.1728 -1.7712 -0.9921
    1SOL    HW3 9155   2.016   4.354   3.667  1.0061  1.7458 -0.2115
    1SOL    MW4 9156   2.026   4.338   3.752  0.4518 -0.6742 -0.5655
    1SOL     OW 9157   2.435   0.009   3.886  0.6452 -0.2017  0.3064
    1SOL    HW2 9158   2.435   0.007   3.982  1.0112  1.4762  0.3452
    1SOL    HW3 9159   2.460  -0.080   3.861  0.2643 -0.7366  1.7652
    1SOL    MW4 9160   2.438  -0.003   3.895  0.6435 -0.0509  0.5040
    1SOL     OW 9161   2.203   0.106   3.795 -0.6210 -0.3450 -0.0398
    1SOL    HW2 9162   2.292   0.075   3.813 -0.4817  0.9765  1.6995
    1SOL    HW3 9163   2.203   0.125   3.702  1.4075  1.1259  0.2189
    1SOL    MW4 9164   2.215   0.104   3.785 -0.3352  0.0234  0.2239
    1SOL     OW 9165   2.255   0.341   3.917  0.5167 -0.1647 -0.1388
    1SOL    HW2 9166   2.235   0.256   3.879  0.4899 -0.0652 -0.3476
    1SOL    HW3 9167   2.190   0.400   3.881 -0.7166 -0.4456  1.5740
    1SOL    MW4 9168   2.244   0.338   3.907  0.3505 -0.1886  0.0598
    1SOL     OW 9169   2.428   0.459   3.707 -0.1343 -0.3454 -0.1710
    1SOL    HW2 9170   2.354   0.419   3.753  0.2349 -0.5072  0.2859
    1SOL    HW3 9171   2.404   0.454   3.614 -0.1554 -1.4876 -0.1117
    1SOL    MW4 9172   2.415   0.453   3.701 -0.0882 -0.5174 -0.1028
    1SOL     OW 9173   2.482   0.726   3.841 -0.3946 -0.1088  0.0381
    1SOL    HW2 9174   2.410   0.785   3.819 -0.5527 -0.1711  0.3768
    1SOL    HW3 9175   2.453   0.640   3.811 -0.4634 -0.1344  0.1771
    1SOL    MW4 9176   2.469   0.722   3.834 -0.4244 -0.1204  0.1009
    1SOL     OW 9177   2.254   0.868   3.749 -0.4652 -0.2851 -0.0215
    1SOL    HW2 9178   2.177   0.825   3.785 -0.3761 -1.2229 -0.9355
    1SOL    HW3 9179   2.252   0.847   3.655  0.2784  0.6331 -0.2532
    1SOL    MW4 9180   2.244   0.860   3.741 -0.3552 -0.2877 -0.1726
    1SOL     OW 9181   2.284   1.131   3.845  0.2968  0.1723 -0.2072
    1SOL    HW2 9182   2.266   1.121   3.938  1.4905  1.7775  0.2271
    1SOL    HW3 9183   2.273   1.044   3.808  0.4884 -0.6196  1.5616
    1SOL    MW4 9184   2.280   1.118   3.852  0.4795  0.2795  0.0837
    1SOL     OW 9185   2.530   1.252   3.734  0.0688  0.0945 -0.0858
    1SOL    HW2 9186   2.525   1.343   3.764  1.4213 -0.0910  0.7653
    1SOL    HW3 9187   2.454   1.209   3.775  1.0441  0.2022  1.8800
    1SOL    MW4 9188   2.519   1.258   3.744  0.3760  0.0843  0.2856
    1SOL     OW 9189   2.494   1.518   3.819 -0.3653 -0.8944 -0.2608
    1SOL    HW2 9190   2.571   1.573   3.805 -0.8485 -0.2521 -0.4232
    1SOL    HW3 9191   2.419   1.577   3.809 -0.8884 -1.5332 -0.2302
    1SOL    MW4 9192   2.494   1.533   3.816 -0.4981 -0.8940 -0.2780
    1SOL     OW 9193   2.243   1.654   3.780 -0.1754 -0.2612  0.5916
    1SOL    HW2 9194   2.236   1.745   3.808 -0.7159 -0.0549 -0.2061
    1SOL    HW3 9195   2.169   1.611   3.822 -0.5690 -0.1030  0.0523
    1SOL    MW4 9196   2.232   1.660   3.789 -0.2985 -0.2130  0.4153
    1SOL     OW 9197   2.230   1.928   3.862  0.0470 -0.1351 -0.1112
    1SOL    HW2 9198   2.149   1.975   3.843 -0.1832 -0.6567 -0.4401
    1SOL    HW3 9199   2.299   1.983   3.825 -0.2610 -0.2996 -0.9439
    1SOL    MW4 9200   2.228   1.941   3.855 -0.0241 -0.2255 -0.2644
    1SOL     OW 9201   2.459   2.057   3.751 -0.0706 -0.0565 -0.1125
    1SOL    HW2 9202   2.460   2.055   3.655 -0.1475  0.4623 -0.1264
    1SOL    HW3 9203   2.547   2.028   3.776  0.9515  2.6283 -0.4072
    1SOL    MW4 9204   2.471   2.053   3.741  0.0541  0.3662 -0.1533
    1SOL     OW 9205   2.252   2.688   3.865  0.0730 -0.4631 -0.0659
    1SOL    HW2 9206   2.191   2.737   3.810  0.2098  0.4599  0.5801
    1SOL    HW3 9207   2.256   2.601   3.826 -2.3538 -0.8260  0.4163
    1SOL    MW4 9208   2.244   2.683   3.852 -0.2291 -0.3893  0.0830
    1SOL     OW 9209   0.757   2.503   4.556  0.4776  0.5324  0.0209
    1SOL    HW2 9210   0.817   2.511   4.630  0.2991 -0.6008  0.2989
    1SOL    HW3 9211   0.792   2.430   4.504  0.0271  0.6556 -0.4586
    1SOL    MW4 9212   0.769   2.494   4.559  0.3946  0.3994 -0.0062
    1SOL     OW 9213   2.010   2.053   3.769 -0.4963  0.9058  0.2406
    1SOL    HW2 9214   2.024   2.146   3.789 -0.0179  0.6004  1.3624
    1SOL    HW3 9215   2.020   2.047   3.674 -2.1198  2.2754 -0.0366
    1SOL    MW4 9216   2.013   2.065   3.759 -0.6475  1.0464  0.3519
    1SOL     OW 9217   2.486   2.825   3.827  0.0156 -0.0611 -0.3614
    1SOL    HW2 9218   2.400   2.785   3.840 -0.5762  1.1346 -0.4457
    1SOL    HW3 9219   2.497   2.827   3.732  0.0972 -0.1426 -0.3529
    1SOL    MW4 9220   2.476   2.820   3.817 -0.0515  0.0861 -0.3712
    1SOL     OW 9221   2.415   3.110   3.908 -0.1189  0.0236 -0.0511
    1SOL    HW2 9222   2.413   3.093   4.002  0.3793  1.7106  0.2888
    1SOL    HW3 9223   2.439   3.026   3.869  0.8727 -0.3900  1.4090
    1SOL    MW4 9224   2.418   3.097   3.915  0.0777  0.1917  0.1862
    1SOL     OW 9225   2.256   3.253   3.736 -0.5242 -0.3119 -0.0079
    1SOL    HW2 9226   2.258   3.348   3.751  0.2643 -0.3479  0.1502
    1SOL    HW3 9227   2.319   3.218   3.798  1.2381 -0.6556 -1.9282
    1SOL    MW4 9228   2.265   3.261   3.746 -0.1876 -0.3622 -0.2406
    1SOL     OW 9229   2.211   3.504   3.813 -0.2304  0.6720  0.0325
    1SOL    HW2 9230   2.222   3.472   3.902 -0.2849  0.7010  0.0491
    1SOL    HW3 9231   2.289   3.557   3.797 -0.6591  1.4153  0.3820
    1SOL    MW4 9232   2.223   3.507   3.822 -0.2940  0.7741  0.0808
    1SOL     OW 9233   2.452   3.602   3.756 -0.0013 -0.5297  0.2404
    1SOL    HW2 9234   2.540   3.566   3.762 -0.3370 -1.1768  1.5167
    1SOL    HW3 9235   2.439   3.620   3.663  1.6968  0.1443  0.1317
    1SOL    MW4 9236   2.462   3.600   3.744  0.1783 -0.5262  0.3941
    1SOL     OW 9237   2.485   3.848   3.866  0.4715  0.2991 -0.0783
    1SOL    HW2 9238   2.545   3.906   3.821  0.2524 -0.6367 -1.6173
    1SOL    HW3 9239   2.494   3.764   3.821 -1.2064 -0.1273  0.3416
    1SOL    MW4 9240   2.494   3.844   3.854  0.2213  0.1192 -0.2263
    1SOL     OW 9241   2.247   3.986   3.782 -0.0731 -0.6635 -0.1420
    1SOL    HW2 9242   2.325   3.938   3.811  2.1531  2.9036  0.0261
    1SOL    HW3 9243   2.252   3.983   3.686  0.3523 -0.3332 -0.1314
    1SOL    MW4 9244   2.258   3.979   3.773  0.2770 -0.1493 -0.1185
    1SOL     OW 9245   2.268   4.263   3.823  0.4151  0.3274 -0.6677
    1SOL    HW2 9246   2.249   4.273   3.916  0.3147  2.4697 -0.8808
    1SOL    HW3 9247   2.249   4.171   3.804 -0.5635  0.1161  1.1938
    1SOL    MW4 9248   2.263   4.252   3.833  0.2728  0.5817 -0.4504
    1SOL     OW 9249   2.498   4.417   3.795  0.0988 -0.5931  0.3817
    1SOL    HW2 9250   2.569   4.360   3.825  0.8191 -0.1232 -0.4076
    1SOL    HW3 9251   2.418   4.371   3.821  0.6745 -0.3692  2.7176
    1SOL    MW4 9252   2.497   4.404   3.803  0.2699 -0.5012  0.5856
    1SOL     OW 9253   2.923   4.662   3.885 -0.5298  0.1830  0.5579
    1SOL    HW2 9254   2.926   4.695   3.975  0.0631 -1.2771  1.1009
    1SOL    HW3 9255   2.997   4.704   3.842 -0.4595  0.4407  0.9245
    1SOL    MW4 9256   2.933   4.672   3.891 -0.4423  0.0243  0.6781
    1SOL     OW 9257   2.693   0.131   3.780  0.1501 -0.3199 -0.3833
    1SOL    HW2 9258   2.771   0.096   3.823  0.0345  2.3368  2.1177
    1SOL    HW3 9259   2.620   0.091   3.827 -0.0016  0.1196 -0.2510
    1SOL    MW4 9260   2.694   0.121   3.792  0.1147  0.0886 -0.0358
    1SOL     OW 9261   2.655   0.396   3.873  0.0983  0.4041  0.1554
    1SOL    HW2 9262   2.675   0.308   3.842 -0.8478  0.2672 -0.1047
    1SOL    HW3 9263   2.570   0.416   3.832 -0.2945  0.9373  1.2281
    1SOL    MW4 9264   2.646   0.387   3.863 -0.0782  0.4564  0.2625
    1SOL     OW 9265   2.888   0.484   3.747  0.1103 -0.4992  0.1314
    1SOL    HW2 9266   2.949   0.426   3.793 -0.0487 -0.5224  0.3148
    1SOL    HW3 9267   2.801   0.455   3.776 -0.0975 -1.8857 -1.7973
    1SOL    MW4 9268   2.884   0.473   3.757  0.0618 -0.6852 -0.0992
    1SOL     OW 9269   2.940   0.712   3.894  0.0295  0.5193 -0.2230
    1SOL    HW2 9270   3.011   0.753   3.844  0.2107  1.0920  0.4891
    1SOL    HW3 9271   2.920   0.632   3.846  1.1356  0.3779 -0.4616
    1SOL    MW4 9272   2.947   0.707   3.881  0.1996  0.5762 -0.1605
    1SOL     OW 9273   2.723   0.844   3.745 -0.3854 -0.3864  0.1701
    1SOL    HW2 9274   2.795   0.797   3.787 -0.2368  0.0050  0.3602
    1SOL    HW3 9275   2.644   0.798   3.772 -0.2495 -0.4519  0.4495
    1SOL    MW4 9276   2.722   0.832   3.754 -0.3481 -0.3435  0.2317
    1SOL     OW 9277   2.734   1.091   3.833  0.6383 -0.0320 -0.3052
    1SOL    HW2 9278   2.720   1.016   3.776 -1.1716  1.2379 -1.5970
    1SOL    HW3 9279   2.668   1.155   3.805  0.7323  1.2194  2.1822
    1SOL    MW4 9280   2.724   1.090   3.822  0.4120  0.3008 -0.1476
    1SOL     OW 9281   2.914   1.247   3.698  0.0532 -0.3762  0.2723
    1SOL    HW2 9282   2.899   1.323   3.754  1.3588  0.1171 -0.0233
    1SOL    HW3 9283   2.862   1.177   3.738  0.5954  0.0937  1.8327
    1SOL    MW4 9284   2.905   1.247   3.711  0.2971 -0.2491  0.4394
    1SOL     OW 9285   2.874   1.460   3.854 -0.2272 -0.4965 -0.1488
    1SOL    HW2 9286   2.840   1.454   3.944 -0.2171 -1.3319 -0.2018
    1SOL    HW3 9287   2.961   1.497   3.864 -0.1585 -0.7487  0.2004
    1SOL    MW4 9288   2.881   1.464   3.867 -0.2165 -0.6398 -0.1097
    1SOL     OW 9289   2.708   1.662   3.783  0.4705 -0.1036  0.5014
    1SOL    HW2 9290   2.775   1.593   3.789  0.1066 -0.4256  0.8851
    1SOL    HW3 9291   2.701   1.680   3.690  0.5752 -0.5791  0.3976
    1SOL    MW4 9292   2.716   1.655   3.772  0.4363 -0.2089  0.5381
    1SOL     OW 9293   2.666   1.927   3.870 -0.3689  0.2696 -0.3282
    1SOL    HW2 9294   2.672   1.915   3.965  1.1413 -0.3591 -0.4870
    1SOL    HW3 9295   2.666   1.838   3.835 -2.0925  0.4615 -0.8808
    1SOL    MW4 9296   2.667   1.914   3.878 -0.3972  0.2118 -0.4222
    1SOL     OW 9297   2.959   2.274   3.900 -0.7145  0.0003  0.0927
    1SOL    HW2 9298   2.882   2.323   3.871 -0.4170  0.4715  0.0947
    1SOL    HW3 9299   3.029   2.303   3.841 -0.4702 -0.2051  0.2820
    1SOL    MW4 9300   2.958   2.284   3.888 -0.6430  0.0355  0.1178
    1SOL     OW 9301   2.813   2.052   4.578 -0.1728 -0.6694  0.2204
    1SOL    HW2 9302   2.789   2.142   4.598 -1.3273 -0.8997 -0.0934
    1SOL    HW3 9303   2.908   2.054   4.567 -0.5233  1.0728 -2.8183
    1SOL    MW4 9304   2.823   2.064   4.579 -0.3715 -0.4702 -0.2222
    1SOL     OW 9305   2.733   2.416   3.793 -0.7435 -0.1713  0.2003
    1SOL    HW2 9306   2.722   2.503   3.829 -1.3369 -0.5859  1.0267
    1SOL    HW3 9307   2.648   2.374   3.804 -0.5599 -0.7386 -0.5028
    1SOL    MW4 9308   2.720   2.422   3.799 -0.7975 -0.3009  0.2165
    1SOL     OW 9309   2.703   2.664   3.912 -0.3099 -0.1456 -0.1649
    1SOL    HW2 9310   2.630   2.721   3.888 -1.0353 -1.3124 -0.7582
    1SOL    HW3 9311   2.698   2.659   4.008 -1.1626 -0.4098 -0.2140
    1SOL    MW4 9312   2.693   2.671   3.922 -0.5181 -0.3343 -0.2496
    1SOL     OW 9313   2.887   2.817   3.779 -0.0790 -0.0703 -0.7111
    1SOL    HW2 9314   2.881   2.898   3.831  0.2142  0.6738 -1.8202
    1SOL    HW3 9315   2.823   2.758   3.819 -1.2893  1.1973 -0.7570
    1SOL    MW4 9316   2.878   2.820   3.791 -0.2000  0.1950 -0.8633
    1SOL     OW 9317   2.875   3.066   3.902 -0.0763  0.0416  0.0089
    1SOL    HW2 9318   2.950   3.122   3.881 -0.7502  1.1305  0.4932
    1SOL    HW3 9319   2.799   3.115   3.872 -0.7492 -0.1343  1.3902
    1SOL    MW4 9320   2.875   3.080   3.895 -0.2539  0.1624  0.2551
    1SOL     OW 9321   2.661   3.214   3.800 -0.2413  0.4551 -0.2612
    1SOL    HW2 9322   2.675   3.309   3.803  0.1350  0.4599 -1.9069
    1SOL    HW3 9323   2.573   3.202   3.836 -0.3648  1.4485 -0.2108
    1SOL    MW4 9324   2.651   3.225   3.805 -0.2077  0.5870 -0.4716
    1SOL     OW 9325   2.710   3.483   3.814  0.3912 -0.3161 -0.1651
    1SOL    HW2 9326   2.697   3.486   3.908 -2.1965  1.1286 -0.5039
    1SOL    HW3 9327   2.785   3.540   3.797 -0.2410  0.8327  0.8633
    1SOL    MW4 9328   2.718   3.491   3.824 -0.0336  0.0260 -0.0739
    1SOL     OW 9329   2.968   3.632   3.737 -0.0281 -0.2155  0.2828
    1SOL    HW2 9330   3.035   3.573   3.771 -0.9809 -1.3926  0.1766
    1SOL    HW3 9331   2.970   3.618   3.642 -1.2910 -1.2404  0.3839
    1SOL    MW4 9332   2.977   3.623   3.729 -0.3204 -0.5057  0.2820
    1SOL     OW 9333   2.897   3.894   3.809  0.5670  0.1610 -0.0479
    1SOL    HW2 9334   2.912   3.886   3.903 -0.2040 -1.3484 -0.0463
    1SOL    HW3 9335   2.911   3.806   3.774  0.3942  0.6102 -1.2837
    1SOL    MW4 9336   2.901   3.881   3.817  0.4427  0.0212 -0.2105
    1SOL     OW 9337   2.648   4.012   3.722  0.2694  0.1226  0.1027
    1SOL    HW2 9338   2.637   4.096   3.766  0.1414 -0.1556  0.6120
    1SOL    HW3 9339   2.731   3.978   3.755  0.2199 -0.0455  0.0583
    1SOL    MW4 9340   2.657   4.018   3.732  0.2458  0.0639  0.1640
    1SOL     OW 9341   2.711   4.256   3.875  0.0644 -0.3234 -0.2152
    1SOL    HW2 9342   2.778   4.306   3.828 -1.5868  1.1315 -1.0587
    1SOL    HW3 9343   2.721   4.283   3.966 -0.9649  1.7632 -0.6925
    1SOL    MW4 9344   2.721   4.266   3.880 -0.2892  0.1440 -0.3893
    1SOL     OW 9345   2.937   4.391   3.792  0.0302 -0.0834 -0.4421
    1SOL    HW2 9346   3.020   4.357   3.825  0.3280 -0.3932 -1.5081
    1SOL    HW3 9347   2.932   4.480   3.827  0.1902 -0.5173  0.6964
    1SOL    MW4 9348   2.947   4.398   3.801  0.0908 -0.1817 -0.4325
    1SOL     OW 9349   3.392   4.631   3.848  0.4912 -0.0420  0.0983
    1SOL    HW2 9350   3.400   4.638   3.943 -0.3904  0.8948  0.1205
    1SOL    HW3 9351   3.478   4.656   3.814  0.4599  0.7835  0.6154
    1SOL    MW4 9352   3.405   4.636   3.856  0.3707  0.1903  0.1693
    1SOL     OW 9353   3.161   0.081   3.759 -0.1397 -0.3199 -0.0152
    1SOL    HW2 9354   3.248   0.052   3.783  0.5487  1.0069 -0.8262
    1SOL    HW3 9355   3.155   0.064   3.665 -1.0030 -1.0137  0.1602
    1SOL    MW4 9356   3.171   0.075   3.750 -0.1624 -0.2364 -0.0989
    1SOL     OW 9357   3.109   0.337   3.863 -0.1031  0.3859 -0.2662
    1SOL    HW2 9358   3.127   0.336   3.957 -1.3282 -0.3500 -0.0264
    1SOL    HW3 9359   3.126   0.247   3.835 -0.8903  0.3217 -0.5268
    1SOL    MW4 9360   3.114   0.325   3.872 -0.3686  0.2804 -0.2687
    1SOL     OW 9361   3.348   0.468   3.776  0.0054  0.4250  0.2830
    1SOL    HW2 9362   3.417   0.425   3.828 -1.0204 -0.0330  1.2941
    1SOL    HW3 9363   3.269   0.416   3.794 -0.5929  0.9229 -0.8949
    1SOL    MW4 9364   3.347   0.455   3.785 -0.2089  0.4303  0.2608
    1SOL     OW 9365   3.339   0.715   3.908  0.0494 -0.1958  0.0037
    1SOL    HW2 9366   3.363   0.702   4.000 -0.0376  0.2680  0.0895
    1SOL    HW3 9367   3.346   0.627   3.869  0.3923 -0.3361  0.3805
    1SOL    MW4 9368   3.343   0.702   3.915  0.0830 -0.1532  0.0648
    1SOL     OW 9369   3.133   0.883   3.783 -0.5339 -0.4277  0.4202
    1SOL    HW2 9370   3.205   0.832   3.820  0.0664  1.4617  1.8833
    1SOL    HW3 9371   3.149   0.881   3.688  0.4584 -1.4678  0.6014
    1SOL    MW4 9372   3.144   0.876   3.775 -0.3238 -0.3156  0.6373
    1SOL     OW 9373   3.123   1.155   3.858  0.3922 -0.1777  0.2059
    1SOL    HW2 9374   3.132   1.061   3.838 -0.2386  0.0834 -1.4195
    1SOL    HW3 9375   3.050   1.183   3.803  1.8882  1.7163 -0.8380
    1SOL    MW4 9376   3.114   1.146   3.848  0.5062  0.1068 -0.1462
    1SOL     OW 9377   3.377   1.243   3.730 -0.2499 -0.3012  0.2150
    1SOL    HW2 9378   3.297   1.204   3.764 -0.2772 -0.4408 -0.0095
    1SOL    HW3 9379   3.364   1.248   3.636 -0.1829  0.1084  0.2258
    1SOL    MW4 9380   3.365   1.238   3.722 -0.2444 -0.2656  0.1867
    1SOL     OW 9381   3.366   1.467   3.926 -0.2992  0.1217 -0.0021
    1SOL    HW2 9382   3.285   1.508   3.897  0.2146  0.1788 -1.4019
    1SOL    HW3 9383   3.380   1.395   3.864  0.5959 -0.0217  0.3623
    1SOL    MW4 9384   3.358   1.463   3.914 -0.1135  0.1104 -0.1388
    1SOL     OW 9385   3.129   1.584   3.807  0.1824 -0.1395  0.1689
    1SOL    HW2 9386   3.130   1.676   3.834  0.3866  0.0326 -0.4112
    1SOL    HW3 9387   3.135   1.588   3.712  0.5045 -0.7690  0.1660
    1SOL    MW4 9388   3.130   1.597   3.798  0.2518 -0.2000  0.0918
    1SOL     OW 9389   3.147   1.854   3.890 -0.6893  0.1878  0.1391
    1SOL    HW2 9390   3.123   1.825   3.978 -1.7556 -1.8022 -0.7724
    1SOL    HW3 9391   3.075   1.910   3.862 -0.5868  0.4210  0.3454
    1SOL    MW4 9392   3.135   1.858   3.898 -0.8166 -0.0440  0.0460
    1SOL     OW 9393   3.347   2.004   3.794  0.0541  0.6880 -0.0035
    1SOL    HW2 9394   3.268   1.969   3.834 -0.0242 -1.1446 -1.6961
    1SOL    HW3 9395   3.418   1.966   3.846 -0.1023  0.1430 -0.1858
    1SOL    MW4 9396   3.346   1.995   3.806  0.0231  0.3743 -0.2511
    1SOL     OW 9397   3.386   2.303   3.857  0.3347  0.1611  0.0410
    1SOL    HW2 9398   3.297   2.322   3.825  0.4859 -0.7245 -0.9384
    1SOL    HW3 9399   3.391   2.208   3.857  1.6297  0.2118 -0.8670
    1SOL    MW4 9400   3.375   2.293   3.853  0.5255  0.0510 -0.2081
    1SOL     OW 9401   3.160   2.432   3.739  0.4231  0.1689 -0.2782
    1SOL    HW2 9402   3.154   2.525   3.761  0.6955  0.3418 -0.9558
    1SOL    HW3 9403   3.161   2.429   3.644  2.1830 -0.4257 -0.2601
    1SOL    MW4 9404   3.159   2.444   3.730  0.6912  0.1132 -0.3653
    1SOL     OW 9405   3.141   2.692   3.819 -0.4507  0.3356  0.1240
    1SOL    HW2 9406   3.135   2.673   3.913 -0.7399 -0.4527 -0.0522
    1SOL    HW3 9407   3.061   2.740   3.800 -0.1392  0.9639  0.3897
    1SOL    MW4 9408   3.130   2.696   3.829 -0.4478  0.3145  0.1357
    1SOL     OW 9409   3.366   2.832   3.760 -0.0341  0.3140  0.0980
    1SOL    HW2 9410   3.296   2.769   3.780  0.7129  0.1239  2.2645
    1SOL    HW3 9411   3.350   2.904   3.821  0.7031  1.0199 -0.5416
    1SOL    MW4 9412   3.354   2.833   3.771  0.1616  0.3817  0.2997
    1SOL     OW 9413   3.355   3.084   3.912  0.0377 -0.1828 -0.1529
    1SOL    HW2 9414   3.355   3.100   4.007 -1.4397  0.8309 -0.3016
    1SOL    HW3 9415   3.425   3.141   3.879  0.6323 -0.6173  0.3274
    1SOL    MW4 9416   3.364   3.094   3.920 -0.0787 -0.1066 -0.1092
    1SOL     OW 9417   3.109   3.159   3.773 -0.0619 -0.5100  0.0709
    1SOL    HW2 9418   3.197   3.144   3.806  0.4984  0.7956 -0.8200
    1SOL    HW3 9419   3.119   3.166   3.678 -1.0391  0.2537  0.0117
    1SOL    MW4 9420   3.122   3.158   3.765 -0.1171 -0.2370 -0.0544
    1SOL     OW 9421   3.143   3.437   3.862  0.1611  0.3403  0.2811
    1SOL    HW2 9422   3.236   3.448   3.845 -0.1152 -1.1247 -2.3746
    1SOL    HW3 9423   3.120   3.355   3.819 -2.4792  0.9507  0.4186
    1SOL    MW4 9424   3.152   3.428   3.854 -0.2236  0.2277 -0.0510
    1SOL     OW 9425   3.365   3.540   3.761  0.1560 -0.0050 -0.0746
    1SOL    HW2 9426   3.372   3.632   3.785  1.2244  0.0310 -0.5157
    1SOL    HW3 9427   3.349   3.540   3.667  2.6604 -0.3086 -0.5451
    1SOL    MW4 9428   3.364   3.552   3.752  0.6275 -0.0403 -0.1948
    1SOL     OW 9429   3.349   3.804   3.863  0.3436  0.1379 -0.2713
    1SOL    HW2 9430   3.428   3.849   3.833  0.2782  0.2049 -0.3432
    1SOL    HW3 9431   3.279   3.868   3.851  0.3714  0.2994  0.3656
    1SOL    MW4 9432   3.351   3.818   3.858  0.3388  0.1681 -0.1967
    1SOL     OW 9433   3.149   3.996   3.796 -0.0605  0.0891  0.3150
    1SOL    HW2 9434   3.164   4.087   3.821  0.7749  0.4012 -1.2058
    1SOL    HW3 9435   3.054   3.984   3.804 -0.3141  1.4333 -0.5368
    1SOL    MW4 9436   3.138   4.007   3.800  0.0162  0.3076  0.0019
    1SOL     OW 9437   3.195   4.275   3.830  0.4100 -0.0750 -0.0409
    1SOL    HW2 9438   3.220   4.285   3.922 -1.4307  1.2098  0.3460
    1SOL    HW3 9439   3.266   4.317   3.781 -0.1193  2.0640  0.9585
    1SOL    MW4 9440   3.208   4.282   3.836  0.0973  0.3762  0.1421
    1SOL     OW 9441   3.423   4.396   3.710 -0.2456 -0.0791  0.0700
    1SOL    HW2 9442   3.483   4.334   3.752 -1.3971  0.2731  2.3156
    1SOL    HW3 9443   3.425   4.473   3.767 -1.5038  0.5838 -0.7805
    1SOL    MW4 9444   3.431   4.398   3.723 -0.5634  0.0548  0.2542
    1SOL     OW 9445   3.869   4.653   3.870  0.3789  0.0410  0.3300
    1SOL    HW2 9446   3.950   4.690   3.835  0.4746  0.9848  1.4988
    1SOL    HW3 9447   3.855   4.573   3.819  1.7385  0.1676 -0.2712
    1SOL    MW4 9448   3.878   4.647   3.859  0.5705  0.1822  0.4048
    1SOL     OW 9449   3.631   0.091   3.765  0.2096 -0.0487  1.0659
    1SOL    HW2 9450   3.723   0.090   3.791 -0.0150 -1.7887  1.8337
    1SOL    HW3 9451   3.633   0.113   3.672  1.6529 -3.6641  0.1819
    1SOL    MW4 9452   3.643   0.094   3.756  0.3705 -0.7553  1.0507
    1SOL     OW 9453   3.567   0.329   3.888 -0.1734  0.1138  0.8884
    1SOL    HW2 9454   3.630   0.384   3.842 -0.2233 -0.5951 -0.0397
    1SOL    HW3 9455   3.587   0.240   3.860 -1.8302 -0.0916  0.2768
    1SOL    MW4 9456   3.578   0.324   3.878 -0.3984 -0.0069  0.6855
    1SOL     OW 9457   3.778   0.481   3.780  0.0060  0.3638 -0.0940
    1SOL    HW2 9458   3.863   0.436   3.784 -0.9570 -1.4270  1.1604
    1SOL    HW3 9459   3.797   0.570   3.809  1.4610 -0.0262  0.2176
    1SOL    MW4 9460   3.792   0.487   3.785  0.0710  0.0761  0.1128
    1SOL     OW 9461   3.816   0.733   3.864 -0.3589  0.4800 -0.0192
    1SOL    HW2 9462   3.891   0.771   3.817  0.3758  0.6281  1.2348
    1SOL    HW3 9463   3.740   0.782   3.833  0.1698  0.8276 -0.7702
    1SOL    MW4 9464   3.816   0.744   3.854 -0.1926  0.5454  0.0472
    1SOL     OW 9465   3.586   0.864   3.799 -0.1578  0.6083 -0.0561
    1SOL    HW2 9466   3.590   0.954   3.833  2.0319 -0.6564  3.2855
    1SOL    HW3 9467   3.505   0.829   3.835 -1.1279  1.2664 -1.5437
    1SOL    MW4 9468   3.576   0.871   3.808  0.0029  0.5282  0.1886
    1SOL     OW 9469   3.595   1.132   3.865 -0.1524 -0.1443 -0.0131
    1SOL    HW2 9470   3.678   1.163   3.828 -0.3557  0.8807  0.3659
    1SOL    HW3 9471   3.529   1.161   3.801 -0.4529  1.1689  0.8760
    1SOL    MW4 9472   3.597   1.140   3.851 -0.2191  0.1643  0.1543
    1SOL     OW 9473   3.848   1.217   3.759  0.0381  0.1107 -0.2087
    1SOL    HW2 9474   3.921   1.182   3.810  0.1614 -0.6684 -0.9230
    1SOL    HW3 9475   3.832   1.304   3.797 -0.1092 -0.6038  1.3835
    1SOL    MW4 9476   3.855   1.224   3.771  0.0348 -0.0864 -0.0927
    1SOL     OW 9477   3.816   1.466   3.874 -0.0713  0.4397 -0.5333
    1SOL    HW2 9478   3.834   1.489   3.965 -1.4549 -0.6732  0.0391
    1SOL    HW3 9479   3.739   1.519   3.851 -0.7435 -0.5275 -0.5184
    1SOL    MW4 9480   3.808   1.476   3.883 -0.3424  0.1651 -0.4559
    1SOL     OW 9481   3.583   1.634   3.817  0.1367 -0.1374 -0.0276
    1SOL    HW2 9482   3.519   1.570   3.848  0.2216  0.0770  0.5929
    1SOL    HW3 9483   3.576   1.630   3.722 -1.5317  0.6218  0.0570
    1SOL    MW4 9484   3.574   1.625   3.809 -0.0722 -0.0089  0.0656
    1SOL     OW 9485   3.594   1.898   3.914 -0.2548 -0.0502  0.0794
    1SOL    HW2 9486   3.590   1.813   3.871  0.0970  0.0560 -0.1590
    1SOL    HW3 9487   3.564   1.880   4.004  0.7038 -0.5965  0.2900
    1SOL    MW4 9488   3.589   1.884   3.920 -0.0820 -0.1084  0.0756
    1SOL     OW 9489   3.789   2.066   3.793  0.3342 -0.4203  0.0228
    1SOL    HW2 9490   3.864   2.013   3.819  0.5786 -1.0013 -1.8120
    1SOL    HW3 9491   3.714   2.020   3.830  0.6990 -1.0810 -0.0459
    1SOL    MW4 9492   3.789   2.053   3.801  0.4146 -0.5841 -0.2284
    1SOL     OW 9493   3.793   2.331   3.846 -0.1922  0.0831 -0.2660
    1SOL    HW2 9494   3.788   2.236   3.839 -0.3594  0.1542 -1.3032
    1SOL    HW3 9495   3.712   2.362   3.804  0.1168  0.6929 -0.4205
    1SOL    MW4 9496   3.782   2.322   3.839 -0.1736  0.1729 -0.4234
    1SOL     OW 9497   3.561   2.463   3.722  0.4423 -0.1945  0.3088
    1SOL    HW2 9498   3.499   2.399   3.755 -0.1950  0.5541  0.5826
    1SOL    HW3 9499   3.564   2.449   3.627  0.7343 -0.9905  0.4291
    1SOL    MW4 9500   3.553   2.453   3.714  0.3967 -0.2007  0.3610
    1SOL     OW 9501   3.623   2.718   3.809 -0.3035 -0.1128 -0.5730
    1SOL    HW2 9502   3.599   2.628   3.787  1.4702 -0.6680 -0.3002
    1SOL    HW3 9503   3.547   2.770   3.782 -2.0916 -1.8711  0.8871
    1SOL    MW4 9504   3.609   2.713   3.803 -0.3054 -0.4179 -0.3445
    1SOL     OW 9505   3.886   2.813   3.803 -0.2242 -0.3195  0.1135
    1SOL    HW2 9506   3.947   2.762   3.856 -1.4567 -1.0161  0.8665
    1SOL    HW3 9507   3.803   2.765   3.808 -1.2687  1.4705  0.4480
    1SOL    MW4 9508   3.883   2.800   3.811 -0.5245 -0.1755  0.2570
    1SOL     OW 9509   3.826   3.073   3.913 -0.0510  0.4097  0.5947
    1SOL    HW2 9510   3.740   3.106   3.886  0.2903  0.3576 -0.5827
    1SOL    HW3 9511   3.833   2.988   3.869 -0.0369 -0.2847  1.9169
    1SOL    MW4 9512   3.815   3.066   3.903 -0.0041  0.3114  0.6137
    1SOL     OW 9513   3.597   3.199   3.826  0.0350  0.3738 -0.2541
    1SOL    HW2 9514   3.599   3.294   3.833  0.8379  0.3436 -0.0217
    1SOL    HW3 9515   3.611   3.181   3.733  1.3648  0.4483 -0.0779
    1SOL    MW4 9516   3.600   3.209   3.815  0.3164  0.3798 -0.2003
    1SOL     OW 9517   3.608   3.469   3.852  0.2684 -0.9360  0.3805
    1SOL    HW2 9518   3.595   3.486   3.946 -0.0876  0.9809 -0.0054
    1SOL    HW3 9519   3.527   3.500   3.811  1.1761 -0.0653 -0.7556
    1SOL    MW4 9520   3.595   3.475   3.859  0.3412 -0.5682  0.1798
    1SOL     OW 9521   3.830   3.589   3.769  0.3124  0.3162  0.1920
    1SOL    HW2 9522   3.830   3.681   3.796  0.6827  0.2229  0.5186
    1SOL    HW3 9523   3.748   3.554   3.802  0.1923  0.5183  0.1091
    1SOL    MW4 9524   3.819   3.597   3.777  0.3452  0.3307  0.2239
    1SOL     OW 9525   3.810   3.854   3.888 -0.4091 -0.1450 -0.2505
    1SOL    HW2 9526   3.818   3.878   3.980 -1.7467  1.0058 -0.4118
    1SOL    HW3 9527   3.878   3.906   3.844 -1.6286  1.5012 -0.2609
    1SOL    MW4 9528   3.820   3.864   3.894 -0.7463  0.2239 -0.2732
    1SOL     OW 9529   3.574   3.944   3.770  0.0115  0.0724  0.3967
    1SOL    HW2 9530   3.558   4.033   3.801 -0.3186 -0.0927  0.7004
    1SOL    HW3 9531   3.661   3.922   3.803 -0.2391 -0.0137  1.0122
    1SOL    MW4 9532   3.583   3.953   3.778 -0.0651  0.0393  0.5181
    1SOL     OW 9533   3.596   4.225   3.839 -0.0764 -0.3760  0.4166
    1SOL    HW2 9534   3.585   4.219   3.933  0.5479 -1.0602  0.4593
    1SOL    HW3 9535   3.680   4.269   3.827 -0.7880  0.9348  0.1597
    1SOL    MW4 9536   3.606   4.230   3.850 -0.0877 -0.2933  0.3881
    1SOL     OW 9537   3.820   4.392   3.779  0.7585 -0.2471  0.8198
    1SOL    HW2 9538   3.903   4.360   3.813  1.4157 -0.1530 -0.6759
    1SOL    HW3 9539   3.823   4.373   3.685 -1.1375 -0.7448  0.8386
    1SOL    MW4 9540   3.831   4.385   3.771  0.5949 -0.3004  0.6251
    1SOL     OW 9541   4.352   4.647   3.801  0.3555  0.3200 -0.2050
    1SOL    HW2 9542   4.338   4.669   3.893  0.9653 -1.4360  0.3248
    1SOL    HW3 9543   4.433   4.693   3.778  1.3555 -0.9076  0.7537
    1SOL    MW4 9544   4.361   4.656   3.810  0.5684 -0.0739 -0.0086
    1SOL     OW 9545   4.093   0.075   3.739 -0.1213  0.2217 -0.0994
    1SOL    HW2 9546   4.176   0.030   3.755 -0.2971 -0.0120  0.1577
    1SOL    HW3 9547   4.085   0.077   3.644  0.4793  0.7938 -0.1417
    1SOL    MW4 9548   4.103   0.069   3.729 -0.0648  0.2664 -0.0708
    1SOL     OW 9549   4.024   0.354   3.814  0.1597  0.0967 -0.2768
    1SOL    HW2 9550   4.022   0.346   3.909 -0.5858 -0.4006 -0.3329
    1SOL    HW3 9551   4.043   0.266   3.782  0.2578  0.2317 -0.5988
    1SOL    MW4 9552   4.026   0.341   3.822  0.0744  0.0489 -0.3266
    1SOL     OW 9553   4.252   0.502   3.767 -0.6370 -0.4619  0.1422
    1SOL    HW2 9554   4.169   0.466   3.797  0.4648 -3.5315 -0.2324
    1SOL    HW3 9555   4.252   0.487   3.673  0.2520 -0.2984  0.1124
    1SOL    MW4 9556   4.241   0.495   3.759 -0.3743 -0.8454  0.0887
    1SOL     OW 9557   4.314   0.753   3.836 -0.1549 -0.2951 -0.1831
    1SOL    HW2 9558   4.232   0.800   3.821 -0.6716 -1.3869 -0.8202
    1SOL    HW3 9559   4.300   0.667   3.796  1.8416  0.0409 -1.6250
    1SOL    MW4 9560   4.301   0.748   3.829  0.0401 -0.3948 -0.4575
    1SOL     OW 9561   4.059   0.858   3.735  0.2568  0.2239  0.2172
    1SOL    HW2 9562   4.052   0.947   3.770 -2.5138  0.4186 -0.6850
    1SOL    HW3 9563   4.072   0.871   3.641  0.8464 -0.3161  0.2255
    1SOL    MW4 9564   4.060   0.872   3.727 -0.0315  0.1783  0.0997
    1SOL     OW 9565   4.064   1.093   3.880 -0.4035  0.3111  0.1396
    1SOL    HW2 9566   4.077   1.091   3.975 -1.6707  0.0029  0.3180
    1SOL    HW3 9567   4.145   1.131   3.846 -0.6247  2.0687  1.4765
    1SOL    MW4 9568   4.076   1.097   3.888 -0.5994  0.5022  0.3393
    1SOL     OW 9569   4.283   1.231   3.762  0.0023 -0.0239  0.0625
    1SOL    HW2 9570   4.262   1.320   3.789  0.5028 -0.0531  0.5758
    1SOL    HW3 9571   4.278   1.232   3.667 -0.0604  0.5371  0.0751
    1SOL    MW4 9572   4.280   1.243   3.753  0.0596  0.0463  0.1321
    1SOL     OW 9573   4.233   1.494   3.836 -0.0583 -0.0947 -0.4484
    1SOL    HW2 9574   4.155   1.541   3.807 -0.8233  0.2722  2.0211
    1SOL    HW3 9575   4.306   1.554   3.817 -0.5675  0.2898 -1.1923
    1SOL    MW4 9576   4.233   1.508   3.830 -0.2260  0.0044 -0.2208
    1SOL     OW 9577   4.014   1.625   3.748 -0.0262 -0.0248 -0.2661
    1SOL    HW2 9578   4.001   1.710   3.789 -1.1047  0.0679 -0.7905
    1SOL    HW3 9579   3.948   1.569   3.788  0.8519 -0.6956  0.2717
    1SOL    MW4 9580   4.004   1.629   3.759 -0.0525 -0.1010 -0.2644
    1SOL     OW 9581   3.991   1.894   3.867  0.3521 -0.4708  0.0281
    1SOL    HW2 9582   3.990   1.906   3.962 -0.4557  1.8423 -0.2514
    1SOL    HW3 9583   4.064   1.947   3.836 -1.2780  1.2610 -0.9281
    1SOL    MW4 9584   4.000   1.902   3.875  0.0305  0.0628 -0.1349
    1SOL     OW 9585   4.194   2.044   3.776 -0.0587  0.4635  0.1408
    1SOL    HW2 9586   4.201   2.139   3.785 -0.6549  0.5943 -0.7519
    1SOL    HW3 9587   4.220   2.026   3.685 -1.1087 -0.1012 -0.0623
    1SOL    MW4 9588   4.199   2.054   3.765 -0.2756  0.4063 -0.0038
    1SOL     OW 9589   4.209   2.315   3.829 -0.4972  0.1541  0.1378
    1SOL    HW2 9590   4.185   2.294   3.919  1.1513  2.4299  1.1477
    1SOL    HW3 9591   4.144   2.379   3.801 -0.7933 -0.2805 -0.1760
    1SOL    MW4 9592   4.197   2.321   3.837 -0.3185  0.3970  0.2298
    1SOL     OW 9593   3.989   2.485   3.745 -0.2573  0.0356 -0.0102
    1SOL    HW2 9594   3.991   2.552   3.812 -1.6013 -1.4676  1.5888
    1SOL    HW3 9595   3.915   2.428   3.769  1.7438 -2.8702 -0.4229
    1SOL    MW4 9596   3.979   2.486   3.757 -0.1707 -0.5460  0.1462
    1SOL     OW 9597   4.051   2.665   3.933 -0.1086 -0.1696 -0.6081
    1SOL    HW2 9598   4.049   2.665   4.029 -0.5054 -0.6697 -0.6137
    1SOL    HW3 9599   4.136   2.702   3.910 -0.2471  0.4896 -0.0656
    1SOL    MW4 9600   4.062   2.670   3.943 -0.1793 -0.1485 -0.5374
    1SOL     OW 9601   4.271   2.782   3.757 -0.3948  0.6947  0.4339
    1SOL    HW2 9602   4.257   2.869   3.795  1.6618  2.1579 -2.0246
    1SOL    HW3 9603   4.360   2.758   3.784  0.2268  0.7621 -1.4798
    1SOL    MW4 9604   4.281   2.791   3.766 -0.0415  0.8965 -0.1431
    1SOL     OW 9605   4.262   3.015   3.883  0.1535 -0.1178 -0.5146
    1SOL    HW2 9606   4.187   3.068   3.856  0.7047  0.2093 -1.4300
    1SOL    HW3 9607   4.337   3.073   3.872  0.6152 -0.6661 -0.2577
    1SOL    MW4 9608   4.262   3.029   3.878  0.2875 -0.1471 -0.6013
    1SOL     OW 9609   4.062   3.179   3.784  0.3047  0.3356  0.3121
    1SOL    HW2 9610   3.974   3.143   3.798 -0.3068  1.7263  0.1057
    1SOL    HW3 9611   4.077   3.168   3.690  0.9998 -1.3168  0.5940
    1SOL    MW4 9612   4.052   3.173   3.774  0.3157  0.3011  0.3223
    1SOL     OW 9613   4.051   3.451   3.870 -0.0976  0.0196 -0.1003
    1SOL    HW2 9614   4.036   3.359   3.847  0.3886 -0.0741 -0.0472
    1SOL    HW3 9615   3.972   3.496   3.840 -0.3630 -0.4234 -0.0765
    1SOL    MW4 9616   4.038   3.445   3.863 -0.0691 -0.0513 -0.0901
    1SOL     OW 9617   4.263   3.605   3.794 -0.3960 -0.0359  0.3652
    1SOL    HW2 9618   4.183   3.558   3.818 -0.5591  0.1896  0.2730
    1SOL    HW3 9619   4.332   3.564   3.846 -0.6440  0.0434  0.7586
    1SOL    MW4 9620   4.262   3.593   3.804 -0.4506  0.0045  0.4048
    1SOL     OW 9621   4.225   3.870   3.897 -0.3490 -0.2412 -0.0877
    1SOL    HW2 9622   4.150   3.905   3.848 -0.0500  1.0013  0.3229
    1SOL    HW3 9623   4.232   3.779   3.868 -1.5604 -0.1556 -0.6797
    1SOL    MW4 9624   4.216   3.863   3.886 -0.4692 -0.0660 -0.1118
    1SOL     OW 9625   4.001   3.976   3.747  0.2062  0.1435  0.3685
    1SOL    HW2 9626   4.016   4.069   3.767  0.3730  0.0766  0.5529
    1SOL    HW3 9627   4.040   3.964   3.661 -0.9620  0.5532 -0.2452
    1SOL    MW4 9628   4.008   3.987   3.738  0.0739  0.1888  0.3119
    1SOL     OW 9629   4.051   4.262   3.830 -0.4242 -0.3991 -0.0956
    1SOL    HW2 9630   4.055   4.260   3.925 -0.6634  0.4638 -0.0664
    1SOL    HW3 9631   4.134   4.303   3.803 -0.1666 -1.0353 -0.2748
    1SOL    MW4 9632   4.063   4.267   3.839 -0.4215 -0.3691 -0.1154
    1SOL     OW 9633   4.304   4.371   3.780 -0.4305  0.0405  0.1218
    1SOL    HW2 9634   4.338   4.459   3.796 -1.0844  0.3824 -0.3598
    1SOL    HW3 9635   4.371   4.313   3.816 -0.1030  0.7364  0.6576
    1SOL    MW4 9636   4.318   4.375   3.787 -0.4740  0.1774  0.1290
    1SOL     OW 9637   2.475   1.718   4.213 -0.5425  0.1042 -0.2698
    1SOL    HW2 9638   2.392   1.763   4.196 -0.8941 -0.0119  1.0460
    1SOL    HW3 9639   2.468   1.691   4.305 -0.2650 -2.4564 -0.9757
    1SOL    MW4 9640   2.463   1.720   4.223 -0.5522 -0.2490 -0.1888
    1SOL     OW 9641   4.052   4.272   4.109 -0.1762 -0.4936  0.0299
    1SOL    HW2 9642   4.045   4.196   4.167  0.3885 -0.4068  0.2109
    1SOL    HW3 9643   3.970   4.320   4.124 -0.6416 -1.1808 -0.2594
    1SOL    MW4 9644   4.040   4.268   4.119 -0.1631 -0.5732  0.0153
    1SOL     OW 9645   1.938   0.189   4.524  0.1311 -0.1806 -0.1432
    1SOL    HW2 9646   1.843   0.199   4.512  0.2945 -0.9851 -2.2978
    1SOL    HW3 9647   1.967   0.274   4.558 -1.2788  0.2263  0.0874
    1SOL    MW4 9648   1.929   0.201   4.527 -0.0334 -0.2331 -0.3967
    1SOL     OW 9649   0.710   0.776   4.150  0.2883  0.1212 -0.2833
    1SOL    HW2 9650   0.792   0.808   4.189  1.0107  0.1931 -1.8154
    1SOL    HW3 9651   0.730   0.769   4.057 -2.0726  2.0525 -0.9709
    1SOL    MW4 9652   0.724   0.779   4.143  0.0721  0.3855 -0.5765
    1SOL     OW 9653   4.332   0.743   4.110  0.0845  0.1029 -0.0760
    1SOL    HW2 9654   4.328   0.743   4.014  0.7289 -0.8644 -0.1047
    1SOL    HW3 9655   4.399   0.807   4.132 -1.3770  1.7233 -0.1996
    1SOL    MW4 9656   4.340   0.752   4.100 -0.0234  0.1891 -0.0963
    1SOL     OW 9657   1.943   2.168   4.459  0.0572 -0.3241 -0.3190
    1SOL    HW2 9658   1.945   2.205   4.547 -1.6193 -1.1132  0.0745
    1SOL    HW3 9659   2.020   2.205   4.416  0.6758  0.3903  1.3407
    1SOL    MW4 9660   1.954   2.178   4.465 -0.0824 -0.3338 -0.0482
    1SOL     OW 9661   0.043   1.165   4.112  0.0607  0.4045  0.5924
    1SOL    HW2 9662  -0.034   1.200   4.156  1.2495  3.3920  0.4070
    1SOL    HW3 9663   0.117   1.205   4.158  1.3923  0.6565 -1.7075
    1SOL    MW4 9664   0.042   1.175   4.124  0.3932  0.8320  0.2646
    1SOL     OW 9665   1.209   2.804   4.266  0.3572 -0.3610 -0.0675
    1SOL    HW2 9666   1.208   2.890   4.222  0.4875 -0.7324 -0.8022
    1SOL    HW3 9667   1.221   2.825   4.359  0.8129  0.3983 -0.2914
    1SOL    MW4 9668   1.211   2.818   4.272  0.4345 -0.3097 -0.1941
    1SOL     OW 9669   0.604   4.258   4.583  0.2100  0.8739  0.1230
    1SOL    HW2 9670   0.542   4.318   4.624 -1.5713  0.5493 -1.9985
    1SOL    HW3 9671   0.572   4.171   4.607  0.4055  0.7149 -0.1936
    1SOL    MW4 9672   0.592   4.255   4.591  0.0008  0.8101 -0.1984
    1SOL     OW 9673   3.363   3.548   4.491  0.2098  0.1319 -0.0146
    1SOL    HW2 9674   3.391   3.625   4.541 -1.2935  0.0924  0.9451
    1SOL    HW3 9675   3.431   3.483   4.507 -0.0353  0.2657  1.6568
    1SOL    MW4 9676   3.375   3.550   4.500 -0.0207  0.1442  0.3324
    1SOL     OW 9677   0.435   3.655   4.600 -0.2350  0.0165  0.4222
    1SOL    HW2 9678   0.470   3.672   4.687 -2.7750  0.1258  1.4531
    1SOL    HW3 9679   0.403   3.740   4.569 -1.2848 -0.4181  0.2783
    1SOL    MW4 9680   0.435   3.669   4.607 -0.7086 -0.0267  0.5393
    1SOL     OW 9681   1.342   4.000   4.240 -0.5895 -0.6025 -0.0298
    1SOL    HW2 9682   1.425   3.953   4.233  0.1770  0.6862  0.3230
    1SOL    HW3 9683   1.336   4.025   4.332 -1.4972 -0.9154 -0.0002
    1SOL    MW4 9684   1.352   3.997   4.251 -0.6080 -0.4737  0.0205
    1SOL     OW 9685   0.225   2.296   4.125 -0.5801 -0.3042  0.1054
    1SOL    HW2 9686   0.209   2.207   4.156 -2.6197 -0.2833 -0.8072
    1SOL    HW3 9687   0.311   2.318   4.160  0.2986 -2.9061 -0.3247
    1SOL    MW4 9688   0.234   2.287   4.134 -0.7333 -0.6444 -0.0715
    1SOL     OW 9689   1.101   4.394   4.233  0.0592 -0.5188 -0.3841
    1SOL    HW2 9690   1.133   4.422   4.319 -2.6483 -2.6362  1.4025
    1SOL    HW3 9691   1.169   4.337   4.199  1.4313  0.8175  0.0405
    1SOL    MW4 9692   1.114   4.390   4.240 -0.1168 -0.6218 -0.0925
    1SOL     OW 9693   4.254   4.407   4.236  0.0635 -0.1213  0.1779
    1SOL    HW2 9694   4.276   4.482   4.180  0.9170 -1.0449 -0.7412
    1SOL    HW3 9695   4.180   4.366   4.192  0.3011 -0.4531  0.0864
    1SOL    MW4 9696   4.248   4.412   4.223  0.2074 -0.2871  0.0448
    1SOL     OW 9697   0.017   2.023   4.646 -0.3902 -0.1637 -0.3110
    1SOL    HW2 9698  -0.057   1.966   4.625  0.5329 -2.3188  1.8886
    1SOL    HW3 9699   0.093   1.981   4.604  0.1226  0.0458  0.3846
    1SOL    MW4 9700   0.018   2.010   4.638 -0.2008 -0.4203  0.0715
    1SOL     OW 9701   0.259   2.764   4.235  0.1532  0.0059 -0.0030
    1SOL    HW2 9702   0.259   2.855   4.206  0.5490 -0.1585 -0.5198
    1SOL    HW3 9703   0.177   2.728   4.203  0.9342 -0.3886 -1.6036
    1SOL    MW4 9704   0.248   2.771   4.227  0.3085 -0.0679 -0.2818
    1SOL     OW 9705   2.209   1.113   4.642  0.1651  0.2935 -0.2151
    1SOL    HW2 9706   2.142   1.166   4.598 -0.4010 -0.0033  0.2847
    1SOL    HW3 9707   2.176   1.101   4.731  0.9523  0.2631  0.0759
    1SOL    MW4 9708   2.196   1.118   4.648  0.1945  0.2505 -0.1111
    1SOL     OW 9709   4.276   3.068   4.160  0.0930  0.0725 -0.0128
    1SOL    HW2 9710   4.362   3.109   4.168  0.4856 -0.9649  1.4056
    1SOL    HW3 9711   4.263   3.057   4.066  1.5986  0.0921 -0.2380
    1SOL    MW4 9712   4.286   3.072   4.149  0.3438 -0.0618  0.1450
    1SOL     OW 9713   3.546   2.582   4.352  0.6033  0.1557 -0.5944
    1SOL    HW2 9714   3.582   2.602   4.265 -0.4223 -0.5780 -1.1910
    1SOL    HW3 9715   3.473   2.642   4.362  0.3893 -0.1310 -0.4536
    1SOL    MW4 9716   3.541   2.593   4.342  0.4396  0.0207 -0.6547
    1SOL     OW 9717   1.873   0.823   4.514  0.2116  0.3186  0.2320
    1SOL    HW2 9718   1.842   0.745   4.560  0.3808 -0.0094 -0.1996
    1SOL    HW3 9719   1.969   0.817   4.519  0.2234  0.5902  0.3466
    1SOL    MW4 9720   1.882   0.812   4.520  0.2356  0.3112  0.1898
    1SOL     OW 9721   1.407   1.810   4.568  0.0696 -0.8485 -0.1335
    1SOL    HW2 9722   1.431   1.864   4.643 -0.4927 -0.1255 -0.4701
    1SOL    HW3 9723   1.489   1.766   4.544  0.6772  0.2889 -0.2073
    1SOL    MW4 9724   1.421   1.812   4.575  0.0756 -0.6031 -0.1879
    1SOL     OW 9725   0.214   4.390   4.244 -0.4611 -0.3091  0.2004
    1SOL    HW2 9726   0.189   4.405   4.335 -0.5118 -0.9316  0.2909
    1SOL    HW3 9727   0.141   4.340   4.207 -1.3770  1.6322 -0.7256
    1SOL    MW4 9728   0.201   4.386   4.251 -0.5886 -0.1354  0.0901
    1SOL     OW 9729   3.131   1.150   4.137  0.2360  0.0951 -0.2571
    1SOL    HW2 9730   3.109   1.151   4.043 -0.1285  0.5880 -0.1699
    1SOL    HW3 9731   3.057   1.195   4.179  0.5554  0.1656  0.2307
    1SOL    MW4 9732   3.118   1.156   4.130  0.2303  0.1695 -0.1812
    1SOL     OW 9733   0.725   1.020   4.792  0.2284  0.2033 -0.0129
    1SOL    HW2 9734   0.735   0.956   4.721  0.8100  0.6742 -0.3558
    1SOL    HW3 9735   0.635   1.052   4.783  1.3773  2.9121 -2.7801
    1SOL    MW4 9736   0.714   1.015   4.781  0.4567  0.6227 -0.4234
    1SOL     OW 9737   0.530   0.028   4.142  0.4223  0.6691 -0.0523
    1SOL    HW2 9738   0.536   0.122   4.157  2.1714  0.3789  1.0915
    1SOL    HW3 9739   0.594   0.011   4.073 -0.7975  0.4833 -1.1781
    1SOL    MW4 9740   0.539   0.038   4.135  0.4921  0.6063 -0.0501
    1SOL     OW 9741   0.485   0.299   4.148 -0.2711  0.3945 -0.2056
    1SOL    HW2 9742   0.550   0.363   4.177  0.2479 -0.3052  0.1761
    1SOL    HW3 9743   0.479   0.312   4.053 -0.1955  1.0362 -0.1202
    1SOL    MW4 9744   0.492   0.309   4.139 -0.1927  0.3869 -0.1435
    1SOL     OW 9745   0.945   0.875   4.263 -0.3101  0.1380  0.2816
    1SOL    HW2 9746   0.933   0.964   4.232  0.4345 -0.1112 -0.7769
    1SOL    HW3 9747   0.968   0.884   4.356  0.5688  1.0975 -0.0201
    1SOL    MW4 9748   0.947   0.888   4.271 -0.0958  0.2317  0.1020
    1SOL     OW 9749   4.195   0.921   4.924 -0.2881 -0.4872  0.0877
    1SOL    HW2 9750   4.167   0.953   5.010 -0.8483 -2.4560  0.6793
    1SOL    HW3 9751   4.125   0.948   4.864  0.0519  0.8002  0.2512
    1SOL    MW4 9752   4.182   0.929   4.928 -0.3171 -0.5771  0.1869
    1SOL     OW 9753   2.694   2.103   4.323  0.3738 -0.0036  0.3774
    1SOL    HW2 9754   2.732   2.076   4.407  0.1643  0.1901  0.5357
    1SOL    HW3 9755   2.619   2.158   4.348  0.4862  0.2914  0.0628
    1SOL    MW4 9756   2.689   2.107   4.338  0.3610  0.0608  0.3567
    1SOL     OW 9757   0.687   1.533   4.174  0.0159  0.3244 -0.2359
    1SOL    HW2 9758   0.687   1.444   4.209 -1.9665  0.4669  0.1907
    1SOL    HW3 9759   0.674   1.521   4.080  1.6700  0.1052 -0.4572
    1SOL    MW4 9760   0.685   1.520   4.166 -0.0274  0.3141 -0.2089
    1SOL     OW 9761   0.256   0.731   4.075 -0.1612 -0.1354 -0.0825
    1SOL    HW2 9762   0.255   0.664   4.144 -1.3864 -1.4217 -1.3013
    1SOL    HW3 9763   0.190   0.794   4.101  0.5109  0.2361  0.7304
    1SOL    MW4 9764   0.247   0.730   4.088 -0.2342 -0.2561 -0.1359
    1SOL     OW 9765   0.460   2.857   4.566  0.3142 -0.2919 -0.2906
    1SOL    HW2 9766   0.515   2.793   4.521  0.3572 -1.2727  1.1591
    1SOL    HW3 9767   0.372   2.819   4.566 -0.0270  0.4636 -1.0028
    1SOL    MW4 9768   0.456   2.844   4.560  0.2748 -0.3219 -0.1936
    1SOL     OW 9769   3.756   1.143   4.664 -0.6398 -0.0800 -0.4648
    1SOL    HW2 9770   3.754   1.056   4.623 -0.2139 -0.3102 -0.0193
    1SOL    HW3 9771   3.669   1.155   4.700 -0.4487 -0.7027  0.2260
    1SOL    MW4 9772   3.744   1.133   4.664 -0.5586 -0.1926 -0.3152
    1SOL     OW 9773   0.432   1.935   4.133  0.0213  0.3681  0.1489
    1SOL    HW2 9774   0.504   1.993   4.158 -0.3591  0.9143 -0.0181
    1SOL    HW3 9775   0.445   1.919   4.040  0.4014 -0.2047  0.2992
    1SOL    MW4 9776   0.443   1.940   4.124  0.0213  0.3647  0.1464
    1SOL     OW 9777   1.865   3.167   4.539 -0.2328 -0.0572  0.4190
    1SOL    HW2 9778   1.945   3.114   4.537  0.4446  0.8936  1.4196
    1SOL    HW3 9779   1.836   3.170   4.448  0.7268 -0.6473  0.0866
    1SOL    MW4 9780   1.872   3.160   4.527 -0.0168 -0.0098  0.5074
    1SOL     OW 9781   0.725   2.344   4.077  0.3043 -0.3542  0.4099
    1SOL    HW2 9782   0.645   2.369   4.123  0.3577  2.1750 -0.8024
    1SOL    HW3 9783   0.700   2.337   3.985  1.4922  0.5519  0.0042
    1SOL    MW4 9784   0.711   2.346   4.071  0.4681  0.0987  0.1960
    1SOL     OW 9785   1.885   3.918   4.532 -0.9610 -0.2477 -0.1078
    1SOL    HW2 9786   1.860   4.003   4.566 -0.4592 -0.0537 -0.2117
    1SOL    HW3 9787   1.981   3.918   4.537 -0.8334  0.0517 -2.1544
    1SOL    MW4 9788   1.895   3.929   4.537 -0.8779 -0.1826 -0.3910
    1SOL     OW 9789   0.829   2.866   4.296 -0.6017  0.0856 -0.2837
    1SOL    HW2 9790   0.860   2.806   4.229 -1.3145 -0.2576 -0.3128
    1SOL    HW3 9791   0.749   2.825   4.330  0.3995 -0.3422  1.6097
    1SOL    MW4 9792   0.822   2.853   4.292 -0.5636 -0.0162 -0.0377
    1SOL     OW 9793   1.618   2.791   4.180  0.3967  0.4772 -0.1628
    1SOL    HW2 9794   1.593   2.785   4.272  1.3624  1.4729  0.1810
    1SOL    HW3 9795   1.713   2.776   4.180  0.4581  0.8313 -0.9424
    1SOL    MW4 9796   1.628   2.788   4.192  0.5323  0.6554 -0.2203
    1SOL     OW 9797   0.725   3.072   4.154 -0.0306  0.4182  0.4780
    1SOL    HW2 9798   0.760   2.995   4.199  0.4992 -0.0940 -0.7809
    1SOL    HW3 9799   0.643   3.091   4.200 -0.3058 -1.0565  0.6462
    1SOL    MW4 9800   0.719   3.064   4.166  0.0029  0.1562  0.3338
    1SOL     OW 9801   0.044   3.149   4.198  0.2566 -0.5350 -0.0237
    1SOL    HW2 9802   0.040   3.244   4.191  0.4362 -0.5238  0.0126
    1SOL    HW3 9803   0.058   3.133   4.292 -0.8352 -0.6350  0.1243
    1SOL    MW4 9804   0.045   3.159   4.210  0.1362 -0.5465  0.0014
    1SOL     OW 9805   1.072   1.202   4.532  0.0919 -0.5375 -0.1411
    1SOL    HW2 9806   1.068   1.106   4.527 -0.1668 -0.4451 -2.8232
    1SOL    HW3 9807   0.982   1.229   4.552 -0.0595 -0.8161 -0.4446
    1SOL    MW4 9808   1.060   1.193   4.534  0.0379 -0.5622 -0.5345
    1SOL     OW 9809   2.828   3.898   4.517 -0.0843 -0.1121 -0.1760
    1SOL    HW2 9810   2.844   3.804   4.518 -1.2342 -0.3270 -0.3283
    1SOL    HW3 9811   2.744   3.908   4.564  0.0813  0.8413 -0.0706
    1SOL    MW4 9812   2.819   3.887   4.524 -0.2143 -0.0145 -0.1817
    1SOL     OW 9813   0.654   3.549   4.255 -0.1425  0.1899 -0.1520
    1SOL    HW2 9814   0.733   3.515   4.214  0.3076  1.2211 -0.1704
    1SOL    HW3 9815   0.669   3.644   4.262 -1.0117  0.2893  0.6254
    1SOL    MW4 9816   0.666   3.557   4.251 -0.1979  0.3388 -0.0520
    1SOL     OW 9817   2.650   0.348   4.638  0.0776  0.2333  0.5556
    1SOL    HW2 9818   2.649   0.270   4.583  0.3499  0.6683 -0.0779
    1SOL    HW3 9819   2.653   0.315   4.727  1.9778 -0.4765  0.2532
    1SOL    MW4 9820   2.650   0.334   4.642  0.3641  0.1971  0.4330
    1SOL     OW 9821   4.072   0.848   4.521 -0.1698  0.1473 -0.2699
    1SOL    HW2 9822   4.093   0.850   4.427  0.3558  0.3617 -0.1505
    1SOL    HW3 9823   4.147   0.805   4.561 -0.1821  0.4786  0.1094
    1SOL    MW4 9824   4.085   0.843   4.514 -0.1020  0.2192 -0.2041
    1SOL     OW 9825   0.177   4.452   4.525  0.0150  0.1613 -0.3739
    1SOL    HW2 9826   0.109   4.516   4.504 -0.1057 -0.0511 -0.6368
    1SOL    HW3 9827   0.130   4.380   4.568  0.1262  0.1839 -0.2185
    1SOL    MW4 9828   0.162   4.451   4.528  0.0138  0.1364 -0.3881
    1SOL     OW 9829   1.099   0.004   4.192  0.0128 -0.0553 -0.2609
    1SOL    HW2 9830   1.096  -0.090   4.208  0.3072  0.0954  0.6979
    1SOL    HW3 9831   1.105   0.012   4.097 -1.9042 -0.9565 -0.4868
    1SOL    MW4 9832   1.099  -0.007   4.181 -0.2012 -0.1544 -0.1645
    1SOL     OW 9833   0.980   0.173   4.364  0.7035  0.0690 -0.6844
    1SOL    HW2 9834   0.944   0.242   4.309  0.3549 -0.1236 -0.7019
    1SOL    HW3 9835   1.007   0.105   4.302  0.0980 -0.2471 -0.6117
    1SOL    MW4 9836   0.979   0.173   4.348  0.5776  0.0019 -0.6766
    1SOL     OW 9837   1.015   4.130   4.434 -0.4451  0.0743 -0.0254
    1SOL    HW2 9838   0.968   4.183   4.497 -0.6793  0.1420 -0.2573
    1SOL    HW3 9839   1.000   4.173   4.350  1.0662  0.8175  0.0598
    1SOL    MW4 9840   1.007   4.142   4.431 -0.2766  0.1817 -0.0448
    1SOL     OW 9841   0.441   1.656   4.247  0.1800  0.2992  0.1167
    1SOL    HW2 9842   0.531   1.627   4.233  0.5374  1.7794 -0.7367
    1SOL    HW3 9843   0.443   1.750   4.229 -1.3017  0.5515  1.2049
    1SOL    MW4 9844   0.453   1.664   4.242  0.0317  0.5277  0.1478
    1SOL     OW 9845   1.164   0.768   4.136  0.1028  0.1466 -0.1595
    1SOL    HW2 9846   1.229   0.807   4.194  0.4540 -1.2459  0.4168
    1SOL    HW3 9847   1.082   0.811   4.159  0.7588  1.6943 -0.6780
    1SOL    MW4 9848   1.162   0.779   4.147  0.2356  0.1671 -0.1516
    1SOL     OW 9849   1.393   0.622   4.553  0.3944 -0.0879  0.2232
    1SOL    HW2 9850   1.311   0.572   4.559  1.2541 -1.5905 -0.4821
    1SOL    HW3 9851   1.364   0.714   4.557 -1.3002 -0.5967  0.2893
    1SOL    MW4 9852   1.378   0.628   4.555  0.2844 -0.3533  0.1388
    1SOL     OW 9853   0.905   1.155   4.183 -0.3194  0.4673  0.2965
    1SOL    HW2 9854   0.828   1.206   4.207 -0.1714  1.3450 -1.0264
    1SOL    HW3 9855   0.979   1.212   4.205 -0.0347 -0.3517  1.5207
    1SOL    MW4 9856   0.905   1.169   4.189 -0.2624  0.4750  0.2832
    1SOL     OW 9857   4.463   1.625   4.480 -0.2904  0.6232  0.3941
    1SOL    HW2 9858   4.558   1.639   4.484 -0.3605  1.0855  0.4660
    1SOL    HW3 9859   4.426   1.707   4.510 -0.7103  0.2770  0.8363
    1SOL    MW4 9860   4.471   1.637   4.485 -0.3551  0.6385  0.4621
    1SOL     OW 9861   4.410   3.357   4.831  0.4427 -0.0203 -0.8556
    1SOL    HW2 9862   4.369   3.306   4.761 -0.3392  0.0978 -0.4934
    1SOL    HW3 9863   4.336   3.395   4.879  1.0044  1.6530 -1.2643
    1SOL    MW4 9864   4.394   3.355   4.828  0.4134  0.2162 -0.8621
    1SOL     OW 9865   1.077   3.654   4.568  0.0984  0.5039 -0.6268
    1SOL    HW2 9866   1.080   3.643   4.473  0.6324 -0.6099 -0.4848
    1SOL    HW3 9867   1.146   3.718   4.587  1.4949 -0.9598 -0.7530
    1SOL    MW4 9868   1.087   3.661   4.557  0.3531  0.1640 -0.6242
    1SOL     OW 9869   0.514   2.088   4.434 -0.1362 -0.0236 -0.2304
    1SOL    HW2 9870   0.583   2.070   4.498 -0.0743 -1.1846 -0.6218
    1SOL    HW3 9871   0.560   2.097   4.351 -0.4010 -0.2677 -0.4039
    1SOL    MW4 9872   0.529   2.087   4.432 -0.1629 -0.2091 -0.3047
    1SOL     OW 9873   0.865   1.915   4.127 -0.2279 -0.2677 -0.1352
    1SOL    HW2 9874   0.933   1.974   4.161 -0.3586 -0.2434  0.0835
    1SOL    HW3 9875   0.871   1.924   4.032  0.2253 -0.4329 -0.1237
    1SOL    MW4 9876   0.875   1.924   4.119 -0.1854 -0.2862 -0.1049
    1SOL     OW 9877   2.472   2.270   4.575  0.2799 -0.0907  0.5673
    1SOL    HW2 9878   2.421   2.334   4.524  1.3414  0.1338 -0.2385
    1SOL    HW3 9879   2.408   2.205   4.603 -0.0026 -1.4686 -3.0089
    1SOL    MW4 9880   2.457   2.270   4.572  0.3824 -0.2429 -0.0105
    1SOL     OW 9881   0.333   3.903   4.495 -0.0253 -0.7762  0.1261
    1SOL    HW2 9882   0.367   3.915   4.407  0.0199  0.7696  0.3378
    1SOL    HW3 9883   0.242   3.934   4.490 -0.1272 -1.0007  0.5334
    1SOL    MW4 9884   0.325   3.909   4.483 -0.0328 -0.6020  0.2074
    1SOL     OW 9885   0.998   2.706   4.124  0.1081 -0.1830  0.3788
    1SOL    HW2 9886   0.984   2.623   4.168  1.3204 -1.2627 -1.2138
    1SOL    HW3 9887   1.071   2.747   4.171 -1.3635  0.6360  2.0145
    1SOL    MW4 9888   1.006   2.701   4.136  0.0739 -0.2172  0.3839
    1SOL     OW 9889   0.553   3.740   4.838 -0.3207  0.4194 -0.0618
    1SOL    HW2 9890   0.544   3.833   4.815  0.2736  0.8111  1.2633
    1SOL    HW3 9891   0.646   3.722   4.830 -0.5304 -0.2827 -1.0682
    1SOL    MW4 9892   0.564   3.750   4.834 -0.2699  0.3784 -0.0196
    1SOL     OW 9893   1.175   3.032   4.129 -0.0605  0.3540 -0.1671
    1SOL    HW2 9894   1.158   3.063   4.040 -2.3270 -0.7272 -0.1460
    1SOL    HW3 9895   1.104   3.070   4.181  0.0844 -0.6837  0.8010
    1SOL    MW4 9896   1.163   3.041   4.124 -0.3403  0.0741 -0.0372
    1SOL     OW 9897   3.628   0.127   4.258  0.2328  0.3545 -0.2283
    1SOL    HW2 9898   3.699   0.081   4.214 -0.8238 -1.0633 -0.4491
    1SOL    HW3 9899   3.633   0.216   4.223  0.6271 -0.2492 -1.7575
    1SOL    MW4 9900   3.638   0.133   4.248  0.1452  0.0878 -0.4587
    1SOL     OW 9901   0.200   3.574   4.266 -0.1055 -0.0980 -0.2391
    1SOL    HW2 9902   0.208   3.659   4.222 -3.0624 -0.4131 -1.4910
    1SOL    HW3 9903   0.276   3.524   4.234  1.0060  1.6501 -0.4108
    1SOL    MW4 9904   0.211   3.578   4.256 -0.3490  0.0911 -0.4268
    1SOL     OW 9905   4.023   2.720   4.239 -0.3767  0.0919  0.2821
    1SOL    HW2 9906   4.007   2.627   4.253 -2.5661  0.6077  1.4545
    1SOL    HW3 9907   3.937   2.761   4.250  0.4054  2.1533 -1.0376
    1SOL    MW4 9908   4.009   2.713   4.242 -0.5622  0.4318  0.2627
    1SOL     OW 9909   2.110   2.912   4.205  0.1777 -0.3714  0.1985
    1SOL    HW2 9910   2.020   2.891   4.180 -0.1166 -0.5257  1.3410
    1SOL    HW3 9911   2.160   2.834   4.183 -0.0470 -0.4422 -0.0571
    1SOL    MW4 9912   2.104   2.899   4.199  0.1092 -0.4010  0.3157
    1SOL     OW 9913   0.466   3.130   4.250 -0.1888 -0.1092 -0.0044
    1SOL    HW2 9914   0.455   3.224   4.234  1.7102  0.4087  1.4923
    1SOL    HW3 9915   0.456   3.120   4.345  1.0487 -1.1824  0.0313
    1SOL    MW4 9916   0.463   3.141   4.261  0.2250 -0.1824  0.1974
    1SOL     OW 9917   0.888   4.225   4.179  0.0487 -0.4126  0.2010
    1SOL    HW2 9918   0.813   4.251   4.233 -1.3676  0.8178 -2.2419
    1SOL    HW3 9919   0.955   4.290   4.200 -0.9549  0.8729 -0.4789
    1SOL    MW4 9920   0.887   4.237   4.189 -0.2705 -0.0811 -0.2108
    1SOL     OW 9921   1.593   0.443   4.523  0.4070  0.4845 -0.5049
    1SOL    HW2 9922   1.663   0.483   4.576 -0.6771  1.1556  0.4295
    1SOL    HW3 9923   1.515   0.495   4.542 -1.1106 -2.2115  1.0065
    1SOL    MW4 9924   1.592   0.455   4.533  0.0640  0.2173 -0.1822
    1SOL     OW 9925   2.697   4.003   4.234  0.7198 -0.4029  0.3370
    1SOL    HW2 9926   2.711   4.017   4.328 -0.3218 -0.4738  0.5008
    1SOL    HW3 9927   2.619   3.948   4.229  0.0749  0.5873 -0.6155
    1SOL    MW4 9928   2.689   3.998   4.246  0.4973 -0.2818  0.2322
    1SOL     OW 9929   1.353   0.094   4.271 -0.1108 -0.1331  0.6574
    1SOL    HW2 9930   1.341   0.062   4.360  0.1117 -1.9539  0.0690
    1SOL    HW3 9931   1.271   0.073   4.227  0.0906 -0.0134  0.2244
    1SOL    MW4 9932   1.341   0.087   4.277 -0.0548 -0.3575  0.5221
    1SOL     OW 9933   1.333   0.361   4.189  0.2768 -0.2596 -0.1104
    1SOL    HW2 9934   1.417   0.400   4.211  0.5896 -0.9967 -0.0033
    1SOL    HW3 9935   1.334   0.275   4.230 -0.6743 -0.1335  0.1988
    1SOL    MW4 9936   1.344   0.355   4.197  0.1925 -0.3402 -0.0553
    1SOL     OW 9937   1.479   3.374   4.547 -0.3969  0.1280  0.4218
    1SOL    HW2 9938   1.385   3.379   4.567 -0.5241  1.0145 -0.3543
    1SOL    HW3 9939   1.483   3.386   4.452  0.4927 -0.1250  0.4271
    1SOL    MW4 9940   1.467   3.376   4.537 -0.2962  0.2115  0.3195
    1SOL     OW 9941   2.323   1.960   4.504  0.5162 -0.1692  0.2179
    1SOL    HW2 9942   2.362   1.998   4.425 -1.0927 -0.2720 -0.6557
    1SOL    HW3 9943   2.288   2.036   4.551 -1.2682 -0.3682 -0.7291
    1SOL    MW4 9944   2.324   1.975   4.500  0.0684 -0.2091 -0.0224
    1SOL     OW 9945   1.807   4.250   4.598  0.1653  0.3801  0.2674
    1SOL    HW2 9946   1.823   4.320   4.661  0.0942  0.6873 -0.0615
    1SOL    HW3 9947   1.725   4.273   4.556  0.0036 -0.0401  0.3502
    1SOL    MW4 9948   1.798   4.262   4.601  0.1345  0.3653  0.2341
    1SOL     OW 9949   0.954   3.209   4.240 -0.2046 -0.1910 -0.1874
    1SOL    HW2 9950   0.967   3.194   4.334 -1.3407  2.3935  0.4144
    1SOL    HW3 9951   0.873   3.163   4.219 -0.8164  0.6022  0.4439
    1SOL    MW4 9952   0.945   3.201   4.250 -0.4352  0.2546 -0.0248
    1SOL     OW 9953   1.351   1.130   4.176  0.1800  0.7598  0.0025
    1SOL    HW2 9954   1.429   1.163   4.221 -0.7254  1.8887  0.7707
    1SOL    HW3 9955   1.367   1.147   4.084  1.5856 -0.5860 -0.0239
    1SOL    MW4 9956   1.363   1.137   4.170  0.2460  0.7312  0.1001
    1SOL     OW 9957   3.711   2.674   4.552 -0.0020  0.3697  0.2031
    1SOL    HW2 9958   3.665   2.646   4.473  1.3698  1.1033 -0.8702
    1SOL    HW3 9959   3.697   2.768   4.556 -0.8274  0.2134  1.3538
    1SOL    MW4 9960   3.703   2.682   4.542  0.0699  0.4461  0.2127
    1SOL     OW 9961   3.477   4.613   4.598 -0.2076  0.7852  0.0186
    1SOL    HW2 9962   3.386   4.633   4.618  0.0976  0.4617  1.8429
    1SOL    HW3 9963   3.515   4.697   4.573 -1.4360  0.5973 -2.6090
    1SOL    MW4 9964   3.470   4.627   4.597 -0.3295  0.7172 -0.0877
    1SOL     OW 9965   2.807   2.346   4.306 -0.2876 -0.4788  0.1516
    1SOL    HW2 9966   2.797   2.251   4.310 -0.8360 -0.4816 -1.0869
    1SOL    HW3 9967   2.717   2.379   4.303 -0.1116  0.1125  1.1011
    1SOL    MW4 9968   2.794   2.338   4.306 -0.3364 -0.4008  0.1135
    1SOL     OW 9969   1.119   0.266   4.587 -0.3570  0.3596 -0.1059
    1SOL    HW2 9970   1.061   0.234   4.518 -0.3391 -0.3998  0.2158
    1SOL    HW3 9971   1.115   0.361   4.581 -1.0490  0.3024 -0.5745
    1SOL    MW4 9972   1.111   0.274   4.577 -0.4460  0.2519 -0.1254
    1SOL     OW 9973   2.227   0.599   4.631  0.0194 -0.1757 -0.3597
    1SOL    HW2 9974   2.209   0.692   4.617 -1.0863 -0.1377  1.1140
    1SOL    HW3 9975   2.318   0.587   4.606  0.1810  1.3337 -0.4881
    1SOL    MW4 9976   2.237   0.609   4.626 -0.1051  0.0284 -0.1817
    1SOL     OW 9977   1.815   2.734   3.845  0.5334 -0.3676 -0.0698
    1SOL    HW2 9978   1.728   2.768   3.828  0.6096  0.6958  1.5019
    1SOL    HW3 9979   1.811   2.642   3.821 -0.5220  0.0854 -1.6474
    1SOL    MW4 9980   1.803   2.726   3.840  0.4041 -0.1674 -0.0706
    1SOL     OW 9981   3.341   3.990   4.636 -0.0422  0.0002 -0.0567
    1SOL    HW2 9982   3.416   4.044   4.610 -0.2396 -0.0905 -0.8158
    1SOL    HW3 9983   3.377   3.903   4.649 -0.2706 -0.3976 -1.9234
    1SOL    MW4 9984   3.355   3.986   4.635 -0.0985 -0.0641 -0.4029
    1SOL     OW 9985   1.081   2.067   4.223 -0.0505  0.0582 -0.1467
    1SOL    HW2 9986   1.156   2.015   4.196 -0.4511 -1.3802  1.4040
    1SOL    HW3 9987   1.079   2.060   4.319 -0.2549  2.7728  0.0957
    1SOL    MW4 9988   1.090   2.059   4.232 -0.1303  0.2265  0.0896
    1SOL     OW 9989   3.545   3.987   4.262 -0.1205 -0.1642 -0.5395
    1SOL    HW2 9990   3.624   3.941   4.232  0.5633 -0.0836  1.1129
    1SOL    HW3 9991   3.473   3.941   4.219  0.7155 -1.2337 -0.8233
    1SOL    MW4 9992   3.546   3.975   4.252  0.0801 -0.2949 -0.3586
    1SOL     OW 9993   3.076   1.490   4.520  0.5264 -0.1939  0.0659
    1SOL    HW2 9994   3.114   1.549   4.455 -1.0027 -1.4107 -1.9933
    1SOL    HW3 9995   3.063   1.545   4.597  1.5397  1.5146 -0.9566
    1SOL    MW4 9996   3.079   1.505   4.521  0.4585 -0.1290 -0.3409
    1SOL     OW 9997   3.954   0.476   4.716 -0.2196 -0.5915 -0.5318
    1SOL    HW2 9998   4.007   0.521   4.782 -1.4130  0.8263 -0.5142
    1SOL    HW3 9999   3.895   0.544   4.682 -2.1625 -2.1815 -0.4106
    1SOL    MW410000   3.953   0.491   4.720 -0.6335 -0.6142 -0.5136
    1SOL     OW10001   1.717   0.095   4.204 -0.2522  0.1776  0.4231
    1SOL    HW210002   1.796   0.041   4.209  0.6320  1.4825  0.7048
    1SOL    HW310003   1.648   0.033   4.181  0.8659 -0.9651  0.0582
    1SOL    MW410004   1.719   0.079   4.202  0.0119  0.1990  0.4120
    1SOL     OW10005   0.881   3.953   4.106 -0.7374 -0.0571  0.0824
    1SOL    HW210006   0.893   4.032   4.160 -0.1982 -0.6925  0.9127
    1SOL    HW310007   0.961   3.902   4.121 -0.2554  0.0773 -1.8882
    1SOL    MW410008   0.893   3.957   4.115 -0.6027 -0.1235 -0.0682
    1SOL     OW10009   0.694   3.829   4.270  0.1777 -0.0860 -0.6025
    1SOL    HW210010   0.721   3.848   4.360  0.0269 -0.3456 -0.5011
    1SOL    HW310011   0.766   3.861   4.216  0.3405 -0.0725 -0.3798
    1SOL    MW410012   0.707   3.836   4.275  0.1793 -0.1185 -0.5603
    1SOL     OW10013   1.570   0.509   4.248  0.7125 -0.4033  0.2936
    1SOL    HW210014   1.586   0.503   4.342 -1.8253  0.5992  0.8474
    1SOL    HW310015   1.568   0.603   4.230  0.1556 -0.5752 -0.5561
    1SOL    MW410016   1.572   0.521   4.258  0.3043 -0.2937  0.2546
    1SOL     OW10017   1.666   0.173   4.481 -0.4621  0.4159  0.4040
    1SOL    HW210018   1.641   0.266   4.476  1.9007  1.0202 -0.5492
    1SOL    HW310019   1.675   0.146   4.390  0.7215 -0.2265  0.7084
    1SOL    MW410020   1.664   0.182   4.469  0.0058  0.4109  0.3185
    1SOL     OW10021   1.971   4.623   4.183  0.2493 -0.3639  0.4196
    1SOL    HW210022   2.036   4.681   4.222 -0.2185  0.5943 -0.2037
    1SOL    HW310023   1.979   4.636   4.089 -0.1070 -1.0460  0.2868
    1SOL    MW410024   1.981   4.632   4.176  0.1407 -0.3271  0.3200
    1SOL     OW10025   2.015   0.475   4.278  0.1600 -0.5790 -0.2551
    1SOL    HW210026   2.103   0.440   4.263  0.1546 -0.0097 -1.6780
    1SOL    HW310027   1.957   0.419   4.226 -0.2149 -0.4029 -0.0270
    1SOL    MW410028   2.019   0.463   4.269  0.1097 -0.4807 -0.4125
    1SOL     OW10029   1.531   4.596   4.122 -0.0123  0.0697 -0.2103
    1SOL    HW210030   1.461   4.644   4.167  0.8699  0.0709  1.2021
    1SOL    HW310031   1.531   4.510   4.164  0.5520 -0.0702 -0.5008
    1SOL    MW410032   1.522   4.591   4.134  0.1787  0.0515 -0.0625
    1SOL     OW10033   0.887   0.601   4.747 -0.3810 -0.2803 -0.5109
    1SOL    HW210034   0.880   0.647   4.830 -0.4588  0.9785 -1.1973
    1SOL    HW310035   0.814   0.540   4.747  0.4537 -1.3054  0.9515
    1SOL    MW410036   0.876   0.599   4.758 -0.2812 -0.2495 -0.4091
    1SOL     OW10037   3.847   0.779   4.143  0.6386 -0.4740  0.3677
    1SOL    HW210038   3.777   0.833   4.178  0.0005 -1.2451  0.2900
    1SOL    HW310039   3.821   0.760   4.053  1.6515  0.4361 -0.1265
    1SOL    MW410040   3.835   0.783   4.136  0.6883 -0.4557  0.2923
    1SOL     OW10041   3.562   0.202   4.524 -0.1060 -0.0876 -0.0006
    1SOL    HW210042   3.509   0.281   4.538  0.2173  0.0767  0.2980
    1SOL    HW310043   3.572   0.197   4.429  0.4204  0.5975  0.0180
    1SOL    MW410044   3.556   0.212   4.513  0.0062  0.0245  0.0410
    1SOL     OW10045   0.459   1.037   4.697  0.1177 -0.8172 -0.0087
    1SOL    HW210046   0.484   0.985   4.621  1.2614  0.4642 -0.5183
    1SOL    HW310047   0.401   1.105   4.661  0.9667  0.0183  0.2041
    1SOL    MW410048   0.455   1.039   4.682  0.3806 -0.5378 -0.0482
    1SOL     OW10049   1.481   2.047   4.410 -0.0311 -0.2917  0.2101
    1SOL    HW210050   1.420   2.115   4.438 -0.2382 -0.1696 -0.5413
    1SOL    HW310051   1.457   1.970   4.463 -0.4309 -0.0679  0.3544
    1SOL    MW410052   1.469   2.046   4.421 -0.1111 -0.2460  0.1302
    1SOL     OW10053   1.585   1.254   4.267 -0.0786 -0.2995  0.1237
    1SOL    HW210054   1.652   1.208   4.216 -0.4528 -1.1267  0.3708
    1SOL    HW310055   1.615   1.345   4.270  0.4366 -0.4352 -0.7636
    1SOL    MW410056   1.597   1.260   4.260 -0.0598 -0.4265  0.0391
    1SOL     OW10057   1.555   1.700   4.080 -0.1240 -0.2622  0.3757
    1SOL    HW210058   1.482   1.690   4.141  0.7680  0.1466  1.5275
    1SOL    HW310059   1.576   1.794   4.083  0.2654 -0.3316 -0.1663
    1SOL    MW410060   1.548   1.711   4.088  0.0451 -0.2173  0.4563
    1SOL     OW10061   1.168   1.524   4.108  0.4154 -0.3820  0.1082
    1SOL    HW210062   1.183   1.454   4.171 -0.1488  0.8283  1.6274
    1SOL    HW310063   1.078   1.552   4.124  0.8121  1.0548 -0.0982
    1SOL    MW410064   1.158   1.519   4.119  0.3933 -0.0328  0.2813
    1SOL     OW10065   0.473   2.376   4.501 -0.2446  0.3132  0.2461
    1SOL    HW210066   0.495   2.283   4.494 -0.1646  0.3982 -0.6005
    1SOL    HW310067   0.531   2.409   4.569  0.2614 -0.0833  0.0057
    1SOL    MW410068   0.483   2.368   4.509 -0.1673  0.2720  0.1030
    1SOL     OW10069   3.594   2.710   4.099 -0.1339 -0.1845 -0.1963
    1SOL    HW210070   3.511   2.751   4.121 -0.2329 -1.2338  1.4492
    1SOL    HW310071   3.602   2.721   4.004 -1.0097  1.9910 -0.0313
    1SOL    MW410072   3.584   2.717   4.089 -0.2625 -0.0358  0.0429
    1SOL     OW10073   3.648   1.629   4.259  0.1682 -0.1815 -0.4289
    1SOL    HW210074   3.646   1.616   4.354 -1.4291  1.9937 -0.1254
    1SOL    HW310075   3.574   1.578   4.227 -0.1323  0.2132 -0.3568
    1SOL    MW410076   3.638   1.620   4.268 -0.0820  0.1576 -0.3791
    1SOL     OW10077   2.270   2.706   4.140 -0.0015 -0.2944 -0.1603
    1SOL    HW210078   2.254   2.716   4.047 -1.6346 -0.9006  0.0405
    1SOL    HW310079   2.249   2.614   4.158  0.2265 -0.1604  0.8193
    1SOL    MW410080   2.265   2.695   4.130 -0.1869 -0.3567 -0.0043
    1SOL     OW10081   1.938   1.604   4.285  0.0350  0.3408  0.4640
    1SOL    HW210082   2.013   1.566   4.239 -0.4719  0.1809 -0.2269
    1SOL    HW310083   1.926   1.690   4.245  0.1629  0.5784  0.9256
    1SOL    MW410084   1.946   1.611   4.274 -0.0150  0.3511  0.4339
    1SOL     OW10085   2.669   1.900   4.161 -0.7308  0.1504 -0.4762
    1SOL    HW210086   2.669   1.978   4.216  0.4204  0.2477 -0.5910
    1SOL    HW310087   2.593   1.850   4.189 -0.4936  0.4887  0.7914
    1SOL    MW410088   2.659   1.904   4.172 -0.5476  0.2078 -0.3242
    1SOL     OW10089   1.388   2.622   4.149  0.0733 -0.2081 -0.2526
    1SOL    HW210090   1.326   2.674   4.200  0.0532 -1.2956  0.8700
    1SOL    HW310091   1.468   2.675   4.149 -0.4932  0.6637 -0.7111
    1SOL    MW410092   1.391   2.636   4.156 -0.0042 -0.2365 -0.1650
    1SOL     OW10093   2.027   3.577   4.275 -0.7788  0.2101  0.1337
    1SOL    HW210094   1.957   3.532   4.228 -0.4991  0.0218 -0.1048
    1SOL    HW310095   2.020   3.668   4.248  0.4711 -0.1840 -1.6406
    1SOL    MW410096   2.017   3.583   4.265 -0.5767  0.1333 -0.1321
    1SOL     OW10097   0.997   1.650   4.478  0.1301 -0.1860 -0.8459
    1SOL    HW210098   0.972   1.635   4.387 -1.4642  0.3249 -0.5122
    1SOL    HW310099   0.936   1.597   4.529 -1.3416  2.2904  0.0529
    1SOL    MW410100   0.986   1.641   4.472 -0.2744  0.2080 -0.6833
    1SOL     OW10101   1.991   3.863   4.173  0.0812  0.3728 -0.3980
    1SOL    HW210102   1.992   3.869   4.078 -2.1293 -2.0054 -0.6152
    1SOL    HW310103   1.910   3.908   4.199  0.1026  0.0346  0.2682
    1SOL    MW410104   1.981   3.870   4.164 -0.2075  0.0145 -0.3386
    1SOL     OW10105   1.304   4.233   4.138 -0.1950 -0.2980  0.2772
    1SOL    HW210106   1.316   4.235   4.043 -1.6376 -1.3450  0.0569
    1SOL    HW310107   1.312   4.141   4.161  1.8050  0.1391  1.4202
    1SOL    MW410108   1.306   4.221   4.128 -0.1214 -0.3777  0.3991
    1SOL     OW10109   1.559   3.842   4.145  0.3142 -0.1528  0.0415
    1SOL    HW210110   1.553   3.756   4.185 -0.0188 -0.1853 -0.0683
    1SOL    HW310111   1.640   3.879   4.177  0.6051 -0.6256 -0.1417
    1SOL    MW410112   1.569   3.836   4.154  0.3086 -0.2196  0.0029
    1SOL     OW10113   2.465   2.854   4.253 -0.3478  0.2898 -0.0461
    1SOL    HW210114   2.444   2.947   4.245 -1.6829  0.0275  0.2536
    1SOL    HW310115   2.393   2.810   4.209  0.4584 -0.5991 -0.4806
    1SOL    MW410116   2.453   2.861   4.246 -0.4177  0.1380 -0.0634
    1SOL     OW10117   2.453   0.009   4.173 -0.1279  0.3477  0.0348
    1SOL    HW210118   2.534   0.058   4.162  1.2075 -1.8777 -0.4852
    1SOL    HW310119   2.419   0.036   4.258  0.7045  1.9335 -0.1339
    1SOL    MW410120   2.459   0.019   4.183  0.1581  0.2637 -0.0558
    1SOL     OW10121   4.028   1.829   4.627 -0.4188 -0.0603  0.1848
    1SOL    HW210122   4.006   1.893   4.559 -0.5726  0.2644  0.5400
    1SOL    HW310123   4.008   1.874   4.710 -2.4608 -1.3098  0.3946
    1SOL    MW410124   4.023   1.844   4.629 -0.7086 -0.1823  0.2589
    1SOL     OW10125   1.330   4.621   4.789  0.5646  0.1228 -0.0150
    1SOL    HW210126   1.420   4.647   4.805  1.1959 -1.5399 -0.7596
    1SOL    HW310127   1.330   4.525   4.799 -0.9023  0.0069 -0.9535
    1SOL    MW410128   1.342   4.611   4.792  0.4542 -0.1116 -0.2365
    1SOL     OW10129   2.472   0.744   4.115 -0.3468 -0.3651  0.0734
    1SOL    HW210130   2.476   0.753   4.020  1.0049  0.4796  0.1920
    1SOL    HW310131   2.552   0.786   4.146 -0.0121 -1.9954  1.4918
    1SOL    MW410132   2.483   0.751   4.107 -0.1242 -0.4687  0.2756
    1SOL     OW10133   3.810   3.183   4.573 -0.0921  0.3942 -0.1584
    1SOL    HW210134   3.742   3.248   4.558 -0.5396  0.1627  0.8550
    1SOL    HW310135   3.892   3.232   4.561 -0.4200  0.6751 -1.3513
    1SOL    MW410136   3.812   3.198   4.570 -0.1943  0.4005 -0.1822
    1SOL     OW10137   2.030   0.709   4.125  0.2100 -0.2302 -0.4657
    1SOL    HW210138   2.115   0.741   4.155  0.3932  0.3083 -1.5153
    1SOL    HW310139   2.022   0.621   4.162  0.5814  0.2760  0.8204
    1SOL    MW410140   2.040   0.702   4.134  0.2835 -0.0924 -0.4344
    1SOL     OW10141   0.483   2.383   4.213  0.2021  0.4353 -0.0736
    1SOL    HW210142   0.466   2.395   4.307  2.0174  0.1031  0.3088
    1SOL    HW310143   0.492   2.472   4.179 -0.2093  0.5487  0.1058
    1SOL    MW410144   0.482   2.396   4.221  0.3873  0.4065  0.0005
    1SOL     OW10145   0.251   1.267   4.257 -0.7280 -0.2740 -0.2256
    1SOL    HW210146   0.261   1.353   4.217  0.2985  0.2916  1.2001
    1SOL    HW310147   0.318   1.213   4.215 -1.3856 -0.3972 -1.1347
    1SOL    MW410148   0.261   1.271   4.246 -0.6793 -0.2155 -0.1569
    1SOL     OW10149   2.680   1.095   4.117  0.1863  0.8390  0.3118
    1SOL    HW210150   2.704   1.011   4.157 -0.9052  0.5205  0.3199
    1SOL    HW310151   2.704   1.084   4.025 -1.0945  0.0360  0.0516
    1SOL    MW410152   2.686   1.082   4.110 -0.1266  0.6912  0.2789
    1SOL     OW10153   3.106   2.704   4.101  0.1311  0.3512  0.3483
    1SOL    HW210154   3.032   2.750   4.141 -0.8921 -0.2639 -0.8293
    1SOL    HW310155   3.124   2.631   4.161  0.0944  0.7891  0.8891
    1SOL    MW410156   3.098   2.700   4.114 -0.0086  0.3278  0.2642
    1SOL     OW10157   0.462   4.243   4.189 -0.3752  0.1006  0.2357
    1SOL    HW210158   0.450   4.270   4.098 -0.4630 -1.7380 -0.3256
    1SOL    HW310159   0.386   4.278   4.235 -1.1352 -0.2962 -0.7044
    1SOL    MW410160   0.451   4.251   4.183 -0.4870 -0.1945  0.0377
    1SOL     OW10161   0.937   2.289   4.446  0.4269 -0.7455 -0.1119
    1SOL    HW210162   1.029   2.269   4.466  0.4346  0.7684  1.5087
    1SOL    HW310163   0.942   2.343   4.367  0.9095 -0.9485 -0.2268
    1SOL    MW410164   0.950   2.294   4.438  0.4916 -0.5724  0.0868
    1SOL     OW10165   2.760   1.790   4.558  0.6138 -0.4569 -0.1924
    1SOL    HW210166   2.758   1.881   4.589 -0.0929 -0.3081 -0.6466
    1SOL    HW310167   2.668   1.768   4.545  0.5786 -2.2820  2.8114
    1SOL    MW410168   2.747   1.799   4.560  0.5157 -0.6782  0.1440
    1SOL     OW10169   2.881   1.263   4.218 -0.0695 -0.6633 -0.0120
    1SOL    HW210170   2.839   1.344   4.187  2.0699  0.3883 -0.2650
    1SOL    HW310171   2.826   1.193   4.184 -0.8995  0.6436 -1.4497
    1SOL    MW410172   2.868   1.265   4.209  0.1032 -0.3521 -0.2351
    1SOL     OW10173   2.542   2.553   4.802 -0.7295  0.0949 -0.1766
    1SOL    HW210174   2.518   2.611   4.874 -0.4431  0.4902 -0.3948
    1SOL    HW310175   2.587   2.610   4.740  1.5333 -0.7516  0.6028
    1SOL    MW410176   2.545   2.568   4.803 -0.3932  0.0355 -0.1025
    1SOL     OW10177   0.019   2.402   4.279  0.6363  0.2207  0.4752
    1SOL    HW210178   0.066   2.426   4.358 -0.4430  2.3976  0.4776
    1SOL    HW310179   0.088   2.377   4.217  1.4861 -1.4229  2.0403
    1SOL    MW410180   0.035   2.402   4.281  0.6060  0.2911  0.6824
    1SOL     OW10181   4.042   3.210   4.267  0.0877 -0.3666  0.4502
    1SOL    HW210182   4.126   3.166   4.251 -0.0813 -0.4558 -0.1837
    1SOL    HW310183   4.058   3.302   4.245  0.1141 -0.3206  0.6618
    1SOL    MW410184   4.055   3.216   4.262  0.0687 -0.3722  0.3943
    1SOL     OW10185   1.893   2.753   4.113  0.3899  0.1994 -0.1618
    1SOL    HW210186   1.918   2.663   4.134 -0.9672 -0.5225 -1.5895
    1SOL    HW310187   1.883   2.754   4.018 -2.5958  1.0585  0.1123
    1SOL    MW410188   1.895   2.741   4.104 -0.1831  0.2174 -0.3142
    1SOL     OW10189   0.730   2.940   4.671  0.0217 -0.0502 -0.3807
    1SOL    HW210190   0.724   3.034   4.659 -0.8205 -0.2167 -1.2654
    1SOL    HW310191   0.640   2.908   4.664  0.2393 -0.8740  0.3465
    1SOL    MW410192   0.718   2.948   4.669 -0.0607 -0.1807 -0.4015
    1SOL     OW10193   0.068   4.006   4.480 -0.0438  0.1895  0.0884
    1SOL    HW210194  -0.011   3.976   4.524  1.1157 -2.1763  0.6257
    1SOL    HW310195   0.046   4.007   4.387 -1.9112  3.4104  0.4704
    1SOL    MW410196   0.055   4.002   4.473 -0.1372  0.3023  0.2098
    1SOL     OW10197   2.610   3.165   4.519  0.1136  0.3585  0.1940
    1SOL    HW210198   2.655   3.182   4.436  1.1259 -0.9230  0.4494
    1SOL    HW310199   2.520   3.192   4.503  0.5205  1.0839 -0.9926
    1SOL    MW410200   2.604   3.171   4.506  0.3011  0.2851  0.0710
    1SOL     OW10201   2.223   4.018   4.225  0.2699  0.1375 -0.0772
    1SOL    HW210202   2.308   3.977   4.205  0.5627  0.6593  0.0734
    1SOL    HW310203   2.159   3.962   4.183  0.8590  1.0877 -2.3758
    1SOL    MW410204   2.226   4.005   4.217  0.3862  0.3314 -0.3610
    1SOL     OW10205   2.489   4.400   4.234  0.5919 -0.0812 -0.0728
    1SOL    HW210206   2.484   4.388   4.329 -3.5335 -0.7998 -0.2891
    1SOL    HW310207   2.492   4.495   4.222 -3.2639  0.2142  0.7349
    1SOL    MW410208   2.489   4.411   4.245 -0.4609 -0.1373  0.0057
    1SOL     OW10209   2.527   0.578   4.511 -0.1931 -0.6111  0.1392
    1SOL    HW210210   2.560   0.504   4.562 -0.2242 -1.0587 -0.4859
    1SOL    HW310211   2.510   0.542   4.424 -0.3505  0.0976 -0.1282
    1SOL    MW410212   2.529   0.564   4.507 -0.2177 -0.5767  0.0219
    1SOL     OW10213   2.693   0.132   4.202 -0.1562  0.1296  0.0153
    1SOL    HW210214   2.704   0.224   4.180 -1.7253  0.5913  1.1072
    1SOL    HW310215   2.781   0.094   4.191  0.6914  1.9269  0.4545
    1SOL    MW410216   2.706   0.139   4.198 -0.2513  0.4276  0.2174
    1SOL     OW10217   2.470   3.615   4.527 -0.5652  0.2750  0.6053
    1SOL    HW210218   2.527   3.547   4.563 -0.3269 -0.7229 -1.5421
    1SOL    HW310219   2.381   3.584   4.545 -0.4534 -0.4494 -0.0506
    1SOL    MW410220   2.466   3.602   4.534 -0.5193  0.0479  0.2351
    1SOL     OW10221   2.730   0.411   4.130 -0.0107  0.0896 -0.7339
    1SOL    HW210222   2.658   0.461   4.168 -1.0896 -0.8894 -1.4444
    1SOL    HW310223   2.715   0.414   4.036  0.2643 -1.0384 -0.8259
    1SOL    MW410224   2.719   0.418   4.123 -0.1168 -0.1884 -0.8402
    1SOL     OW10225   0.697   4.314   4.335 -0.0735  0.0131 -0.6538
    1SOL    HW210226   0.630   4.277   4.277 -0.6775 -0.0668  0.0771
    1SOL    HW310227   0.662   4.300   4.423  0.8957  0.0101 -0.2638
    1SOL    MW410228   0.683   4.307   4.339 -0.0253  0.0019 -0.5054
    1SOL     OW10229   2.935   0.731   4.157 -0.3144  0.3246  0.4198
    1SOL    HW210230   2.949   0.643   4.193  0.9083  0.3928  0.1542
    1SOL    HW310231   2.943   0.720   4.063  0.4454  0.8173  0.4213
    1SOL    MW410232   2.938   0.718   4.150 -0.0525  0.3986  0.3848
    1SOL     OW10233   2.403   2.715   4.482  0.0387  0.0776  0.0894
    1SOL    HW210234   2.435   2.762   4.404  0.0904 -0.6932 -0.3592
    1SOL    HW310235   2.369   2.632   4.447  1.6916 -1.0487  1.0774
    1SOL    MW410236   2.403   2.710   4.467  0.2639 -0.1726  0.1602
    1SOL     OW10237   2.481   4.359   4.518  0.0108 -0.9204  0.2760
    1SOL    HW210238   2.406   4.408   4.553  0.1991 -0.1378 -0.4090
    1SOL    HW310239   2.449   4.269   4.509 -0.5220 -0.8054  0.9680
    1SOL    MW410240   2.467   4.353   4.521 -0.0346 -0.8016  0.2775
    1SOL     OW10241   2.210   3.514   4.492 -0.4809 -0.3278  0.0727
    1SOL    HW210242   2.173   3.552   4.412  1.0742  0.0540 -0.4949
    1SOL    HW310243   2.135   3.481   4.540 -1.6890  1.5740 -0.4275
    1SOL    MW410244   2.195   3.515   4.488 -0.4354 -0.0260 -0.0682
    1SOL     OW10245   2.954   1.199   4.494 -0.1940 -0.1446 -0.1821
    1SOL    HW210246   2.924   1.201   4.403 -0.5843  0.6300 -0.0409
    1SOL    HW310247   2.981   1.289   4.512 -0.1504 -0.2902  0.4736
    1SOL    MW410248   2.953   1.211   4.484 -0.2398 -0.0615 -0.0772
    1SOL     OW10249   4.426   3.572   4.653  0.2687  0.0415 -0.2188
    1SOL    HW210250   4.423   3.506   4.722 -1.2640  0.3027 -0.0185
    1SOL    HW310251   4.515   3.566   4.617  0.9504 -0.3593  1.5109
    1SOL    MW410252   4.437   3.562   4.657  0.1564  0.0234  0.0358
    1SOL     OW10253   3.589   3.371   4.535  0.7242  0.4338  0.2008
    1SOL    HW210254   3.638   3.453   4.524  1.5762 -0.2113 -0.8671
    1SOL    HW310255   3.591   3.330   4.449 -1.4562  0.2499  0.2122
    1SOL    MW410256   3.596   3.377   4.522  0.5488  0.3245  0.0620
    1SOL     OW10257   2.927   2.022   3.802  0.5252  0.3654  0.2089
    1SOL    HW210258   2.836   2.008   3.829  0.3617  1.4241  0.2127
    1SOL    HW310259   2.947   2.112   3.827  0.7392  1.0082 -2.1146
    1SOL    MW410260   2.918   2.032   3.809  0.5319  0.5898 -0.0973
    1SOL     OW10261   0.439   4.484   4.625 -0.1681  0.1035  0.4817
    1SOL    HW210262   0.348   4.469   4.603  0.5642 -1.5190 -1.5411
    1SOL    HW310263   0.478   4.521   4.546  1.0979  0.0730  1.0662
    1SOL    MW410264   0.432   4.487   4.612  0.0955 -0.1140  0.2918
    1SOL     OW10265   2.931   0.451   4.566 -0.2744 -0.0589 -0.0790
    1SOL    HW210266   2.952   0.544   4.569  0.6459 -0.1725 -2.0907
    1SOL    HW310267   2.841   0.446   4.599 -0.1679  1.4855  0.4979
    1SOL    MW410268   2.922   0.463   4.571 -0.1390  0.1299 -0.2675
    1SOL     OW10269   4.436   2.835   4.538 -0.2128 -0.3178 -0.1245
    1SOL    HW210270   4.381   2.783   4.597 -0.8255  0.5267  0.0507
    1SOL    HW310271   4.394   2.827   4.453 -0.7341  0.5173  0.0556
    1SOL    MW410272   4.423   2.827   4.535 -0.3619 -0.0958 -0.0787
    1SOL     OW10273   2.443   1.243   4.527 -0.2351  0.1350  0.6508
    1SOL    HW210274   2.435   1.220   4.434 -0.2258  0.9204  0.4515
    1SOL    HW310275   2.377   1.190   4.571  1.4197 -2.0704  0.5131
    1SOL    MW410276   2.434   1.233   4.520 -0.0155 -0.0525  0.6065
    1SOL     OW10277   0.193   3.536   4.545 -0.0763 -0.0524  0.6549
    1SOL    HW210278   0.202   3.550   4.450  0.0064 -0.9448  0.5308
    1SOL    HW310279   0.275   3.568   4.582  0.3945 -0.8427  0.3017
    1SOL    MW410280   0.205   3.542   4.537 -0.0033 -0.2747  0.5922
    1SOL     OW10281   2.777   2.980   4.640 -0.2512  0.0437  0.6328
    1SOL    HW210282   2.737   2.894   4.651  1.4707 -0.7910  0.4686
    1SOL    HW310283   2.707   3.035   4.603 -1.4097 -1.2113  0.9335
    1SOL    MW410284   2.762   2.976   4.636 -0.1769 -0.2322  0.6509
    1SOL     OW10285   2.891   3.615   4.226  0.2053  0.3613 -0.3640
    1SOL    HW210286   2.912   3.622   4.320 -0.3441 -0.0408 -0.2077
    1SOL    HW310287   2.906   3.703   4.192 -1.5575  1.0409  0.5276
    1SOL    MW410288   2.896   3.628   4.234 -0.0999  0.3982 -0.2260
    1SOL     OW10289   2.670   3.239   4.245  0.2581 -0.2593  0.4860
    1SOL    HW210290   2.687   3.324   4.206 -1.5034 -0.2803 -0.3733
    1SOL    HW310291   2.748   3.187   4.226  0.3377  0.4178 -1.0768
    1SOL    MW410292   2.683   3.243   4.238  0.0362 -0.1731  0.1664
    1SOL     OW10293   2.898   3.861   4.095  0.1667 -0.6848 -0.1507
    1SOL    HW210294   2.827   3.910   4.138 -0.2311  0.2832 -1.8714
    1SOL    HW310295   2.977   3.907   4.121 -0.0225 -0.4579  0.0279
    1SOL    MW410296   2.899   3.874   4.104  0.0892 -0.5269 -0.3543
    1SOL     OW10297   2.731   4.278   4.145 -0.1807 -0.4163  0.2954
    1SOL    HW210298   2.653   4.310   4.190  1.2800 -0.6185  3.0270
    1SOL    HW310299   2.737   4.186   4.169  0.1367 -0.7634 -1.0483
    1SOL    MW410300   2.722   4.270   4.154  0.0539 -0.4888  0.4787
    1SOL     OW10301   2.447   3.863   4.159  0.3686  0.1006 -0.6214
    1SOL    HW210302   2.465   3.853   4.065  0.0880 -3.1203 -0.3830
    1SOL    HW310303   2.439   3.773   4.192 -0.3308  1.1889  2.3502
    1SOL    MW410304   2.449   3.849   4.151  0.2394 -0.1807 -0.1979
    1SOL     OW10305   2.975   4.402   4.233  0.6500 -0.2881  0.2741
    1SOL    HW210306   2.899   4.364   4.189  0.9116 -2.5576  1.6817
    1SOL    HW310307   3.050   4.367   4.185  0.8668 -0.7318  0.9231
    1SOL    MW410308   2.975   4.393   4.221  0.7131 -0.6466  0.5455
    1SOL     OW10309   3.390   4.646   4.147 -0.1997  0.0615  0.0298
    1SOL    HW210310   3.467   4.690   4.183  0.0165 -0.4390  0.1918
    1SOL    HW310311   3.316   4.703   4.170 -0.0053  0.0083  0.8117
    1SOL    MW410312   3.391   4.659   4.155 -0.1457 -0.0114  0.1545
    1SOL     OW10313   1.334   1.676   4.268 -0.3107 -0.0398 -0.2302
    1SOL    HW210314   1.279   1.629   4.205 -1.0609  0.5204  0.0005
    1SOL    HW310315   1.320   1.631   4.351 -1.1920  0.6909  0.0366
    1SOL    MW410316   1.325   1.664   4.271 -0.5262  0.1304 -0.1645
    1SOL     OW10317   2.954   0.483   4.285 -0.0208 -0.0813 -0.6111
    1SOL    HW210318   2.869   0.459   4.249 -0.6859  1.3756 -0.0545
    1SOL    HW310319   2.942   0.477   4.380 -0.2073  2.3663 -0.4473
    1SOL    MW410320   2.941   0.479   4.293 -0.1330  0.4339 -0.5159
    1SOL     OW10321   3.373   0.471   4.277 -0.5085 -0.5519 -0.1418
    1SOL    HW210322   3.377   0.473   4.373  0.7289  0.6874 -0.2056
    1SOL    HW310323   3.458   0.436   4.251 -0.4708  0.0321 -0.8096
    1SOL    MW410324   3.385   0.467   4.287 -0.3405 -0.3113 -0.2384
    1SOL     OW10325   2.035   4.658   4.716 -0.1926 -0.5168  0.1069
    1SOL    HW210326   2.038   4.703   4.800 -1.2708 -2.4948  1.2387
    1SOL    HW310327   2.006   4.725   4.654  0.9067  1.0430  1.2363
    1SOL    MW410328   2.032   4.673   4.719 -0.1895 -0.5722  0.4053
    1SOL     OW10329   4.239   4.636   4.598 -0.1696  0.0595 -0.2365
    1SOL    HW210330   4.327   4.644   4.562 -0.5312  0.8069 -0.9623
    1SOL    HW310331   4.185   4.694   4.545 -1.4070 -1.5252 -0.7536
    1SOL    MW410332   4.243   4.645   4.587 -0.3805 -0.0510 -0.4005
    1SOL     OW10333   3.170   0.874   4.239  0.4368  0.2522 -0.0347
    1SOL    HW210334   3.092   0.823   4.213  0.8233  0.6998 -2.1818
    1SOL    HW310335   3.157   0.959   4.198  1.3439  0.8289  0.8707
    1SOL    MW410336   3.158   0.878   4.230  0.6075  0.3874 -0.1984
    1SOL     OW10337   1.612   4.622   4.673 -0.2920  0.2493  0.5483
    1SOL    HW210338   1.605   4.693   4.609  0.5642 -0.2796 -0.1436
    1SOL    HW310339   1.587   4.544   4.624  1.9428 -0.3951  0.4052
    1SOL    MW410340   1.608   4.621   4.658  0.1160  0.0939  0.4382
    1SOL     OW10341   3.028   2.907   4.552  0.5453  0.1788  0.0167
    1SOL    HW210342   2.943   2.936   4.586  0.6934  0.2535  0.3287
    1SOL    HW310343   3.009   2.869   4.467  0.1241 -0.2559  0.3021
    1SOL    MW410344   3.014   2.906   4.545  0.5095  0.1316  0.0954
    1SOL     OW10345   2.471   1.476   4.098  0.1482 -0.3194 -0.3087
    1SOL    HW210346   2.477   1.561   4.142 -0.0388 -0.1792 -0.5517
    1SOL    HW310347   2.483   1.497   4.005 -3.0316 -0.1518 -0.7427
    1SOL    MW410348   2.474   1.490   4.092 -0.2959 -0.2788 -0.3977
    1SOL     OW10349   2.630   0.112   4.472 -0.0568 -0.1442 -0.2284
    1SOL    HW210350   2.668   0.028   4.496  2.0063  0.6581 -0.5861
    1SOL    HW310351   2.658   0.126   4.381 -0.1143  1.0768 -0.0628
    1SOL    MW410352   2.638   0.103   4.463  0.2077  0.1227 -0.2537
    1SOL     OW10353   2.360   2.302   4.081 -0.1462 -0.0874 -0.3167
    1SOL    HW210354   2.360   2.215   4.120 -1.0057  0.4865  0.9729
    1SOL    HW310355   2.302   2.354   4.136  0.8790  1.4846 -0.6757
    1SOL    MW410356   2.353   2.297   4.093 -0.1242  0.1960 -0.1945
    1SOL     OW10357   3.692   0.902   4.536 -0.1994  0.3741  0.1384
    1SOL    HW210358   3.598   0.893   4.550  0.0676  0.0508  1.7928
    1SOL    HW310359   3.703   0.896   4.441 -2.0226  2.0726 -0.2049
    1SOL    MW410360   3.681   0.900   4.525 -0.4046  0.5555  0.3114
    1SOL     OW10361   3.685   1.620   4.533 -0.4505  0.3257  0.6003
    1SOL    HW210362   3.721   1.532   4.522 -0.7840  0.4663 -1.8834
    1SOL    HW310363   3.603   1.607   4.580 -1.9031 -1.0438 -2.1770
    1SOL    MW410364   3.679   1.607   4.538 -0.6859  0.1634 -0.0935
    1SOL     OW10365   3.432   2.388   4.112  0.2715 -0.5342  0.3458
    1SOL    HW210366   3.360   2.431   4.158  0.1221 -1.2994  0.8436
    1SOL    HW310367   3.396   2.369   4.025  1.5872  3.7879 -1.2598
    1SOL    MW410368   3.418   2.391   4.107  0.4256 -0.0648  0.1993
    1SOL     OW10369   2.271   4.265   4.109  0.3536 -0.0934  0.4162
    1SOL    HW210370   2.251   4.181   4.149 -0.3945  0.0092  0.2679
    1SOL    HW310371   2.347   4.298   4.158 -0.0286 -0.3545  1.1845
    1SOL    MW410372   2.279   4.258   4.121  0.2046 -0.1144  0.4973
    1SOL     OW10373   3.358   3.101   4.185  0.1995 -0.1272  0.0741
    1SOL    HW210374   3.272   3.125   4.220  0.2462 -0.0941  0.1685
    1SOL    HW310375   3.359   3.005   4.190  0.0800 -0.1383 -0.1411
    1SOL    MW410376   3.347   3.092   4.191  0.1900 -0.1242  0.0577
    1SOL     OW10377   2.411   3.123   4.222  0.1044  0.1472 -0.2385
    1SOL    HW210378   2.496   3.166   4.222 -0.3687  1.1089 -0.6076
    1SOL    HW310379   2.371   3.149   4.305 -0.6269  1.3575 -0.9434
    1SOL    MW410380   2.417   3.132   4.233 -0.0546  0.4337 -0.3800
    1SOL     OW10381   3.334   3.563   4.214 -0.3654  0.0049 -0.1761
    1SOL    HW210382   3.260   3.509   4.187 -0.6242 -0.5133  1.5426
    1SOL    HW310383   3.344   3.547   4.308 -0.1797  2.6227  0.3101
    1SOL    MW410384   3.326   3.554   4.223 -0.3753  0.2818  0.1140
    1SOL     OW10385   3.575   3.472   4.118  0.1908  0.1147  0.2661
    1SOL    HW210386   3.566   3.384   4.154 -0.5002  0.1469  0.1805
    1SOL    HW310387   3.494   3.516   4.142 -0.2805  0.1447 -1.2764
    1SOL    MW410388   3.563   3.466   4.126  0.0377  0.1225  0.0515
    1SOL     OW10389   3.352   3.842   4.136 -0.2610 -0.2278  0.3903
    1SOL    HW210390   3.358   3.756   4.178 -0.4006 -0.3299  0.2001
    1SOL    HW310391   3.369   3.825   4.044 -0.9062 -0.1487  0.2503
    1SOL    MW410392   3.355   3.828   4.130 -0.3645 -0.2308  0.3462
    1SOL     OW10393   0.016   2.670   4.177  0.6718  0.1356  0.0068
    1SOL    HW210394  -0.057   2.726   4.203  0.9217  0.1928  0.5919
    1SOL    HW310395  -0.010   2.582   4.205  0.2370 -0.0604 -1.0008
    1SOL    MW410396   0.003   2.665   4.184  0.6475  0.1173 -0.0496
    1SOL     OW10397   0.058   0.897   4.187  0.3385 -0.2445 -0.3787
    1SOL    HW210398   0.082   0.899   4.279 -0.2755  0.1936 -0.2287
    1SOL    HW310399   0.055   0.989   4.161 -0.2380 -0.3394 -0.6461
    1SOL    MW410400   0.061   0.909   4.196  0.1814 -0.1992 -0.3943
    1SOL     OW10401   3.576   4.222   4.126 -0.0008 -0.3264  0.4567
    1SOL    HW210402   3.512   4.285   4.160 -0.4688 -1.0331  0.8798
    1SOL    HW310403   3.561   4.142   4.177 -0.5826 -1.3340 -1.2557
    1SOL    MW410404   3.566   4.220   4.137 -0.1390 -0.5527  0.2866
    1SOL     OW10405   3.852   4.660   4.138  0.5063 -0.2745  0.0225
    1SOL    HW210406   3.828   4.572   4.166 -1.4321 -0.0459 -0.8556
    1SOL    HW310407   3.851   4.655   4.042  1.4724  0.4331 -0.0343
    1SOL    MW410408   3.849   4.648   4.129  0.3779 -0.1516 -0.1006
    1SOL     OW10409   2.358   2.078   4.248  0.3105  0.7705  0.0970
    1SOL    HW210410   2.297   2.028   4.192 -0.5188  1.6557  0.2077
    1SOL    HW310411   2.302   2.129   4.306  1.1469 -1.3424  2.8783
    1SOL    MW410412   2.343   2.078   4.248  0.3114  0.6087  0.4778
    1SOL     OW10413   3.627   0.374   4.172  0.6296 -0.0765  0.3458
    1SOL    HW210414   3.697   0.439   4.185  0.7027 -0.0242 -0.2898
    1SOL    HW310415   3.619   0.366   4.077  0.5075 -0.8810  0.4195
    1SOL    MW410416   3.635   0.382   4.161  0.6230 -0.1757  0.2718
    1SOL     OW10417   4.015   0.358   4.091  0.0065 -0.1768  0.0696
    1SOL    HW210418   4.037   0.272   4.128 -1.8126 -0.0616  1.4384
    1SOL    HW310419   3.964   0.402   4.159  0.1198  1.6432 -0.9845
    1SOL    MW410420   4.012   0.352   4.105 -0.2189  0.0786  0.1111
    1SOL     OW10421   1.829   4.482   4.768 -0.2424  0.2724 -0.3435
    1SOL    HW210422   1.750   4.529   4.742 -0.6809 -1.5312 -2.3729
    1SOL    HW310423   1.901   4.543   4.749 -0.9062  0.7178 -1.4246
    1SOL    MW410424   1.828   4.496   4.762 -0.3877  0.0930 -0.7544
    1SOL     OW10425   2.351   0.044   4.419  0.0269 -0.0894  0.2467
    1SOL    HW210426   2.442   0.059   4.444  0.3741 -1.1140 -0.3477
    1SOL    HW310427   2.333  -0.045   4.448 -0.3849 -0.3442 -0.7573
    1SOL    MW410428   2.361   0.034   4.426  0.0181 -0.2582  0.0358
    1SOL     OW10429   2.054   2.139   4.161  0.1339 -0.1111  0.7403
    1SOL    HW210430   2.084   2.183   4.082  1.2774 -1.5168  0.3812
    1SOL    HW310431   2.095   2.187   4.233  1.8735 -0.9539  0.3285
    1SOL    MW410432   2.063   2.151   4.160  0.5143 -0.4075  0.6390
    1SOL     OW10433   4.489   2.297   4.671 -0.2278 -0.3847 -0.0582
    1SOL    HW210434   4.517   2.206   4.679 -1.0795 -0.7940 -1.4903
    1SOL    HW310435   4.551   2.335   4.608 -1.9193 -0.9124 -2.1150
    1SOL    MW410436   4.501   2.290   4.664 -0.5633 -0.5083 -0.5188
    1SOL     OW10437   4.125   2.226   4.061 -0.4598  0.1838  0.1267
    1SOL    HW210438   4.087   2.143   4.090 -0.2468  0.0882  0.1366
    1SOL    HW310439   4.070   2.293   4.102 -1.4302  0.0550 -0.9503
    1SOL    MW410440   4.113   2.224   4.071 -0.5598  0.1543 -0.0138
    1SOL     OW10441   3.423   1.475   4.194 -0.3969 -0.2916 -0.4399
    1SOL    HW210442   3.340   1.498   4.236 -1.3719  0.6479 -2.7460
    1SOL    HW310443   3.400   1.463   4.102  2.2141  1.1125 -1.3336
    1SOL    MW410444   3.409   1.477   4.187 -0.1812  0.0175 -0.8621
    1SOL     OW10445   3.374   2.201   4.312  0.2881 -0.5608 -0.0350
    1SOL    HW210446   3.419   2.241   4.386  0.5826  0.1716 -0.6078
    1SOL    HW310447   3.400   2.254   4.237 -0.1442 -1.1991 -0.6349
    1SOL    MW410448   3.384   2.213   4.312  0.2697 -0.5484 -0.1893
    1SOL     OW10449   1.668   1.515   4.262  0.1359 -0.0314  0.0784
    1SOL    HW210450   1.640   1.577   4.195 -0.4681 -0.9633 -0.5512
    1SOL    HW310451   1.763   1.523   4.264  0.2395 -0.7027 -1.6072
    1SOL    MW410452   1.677   1.524   4.254  0.0699 -0.2429 -0.2275
    1SOL     OW10453   1.050   0.049   4.774  0.0925  0.0173 -0.1757
    1SOL    HW210454   1.135   0.005   4.778 -0.4091 -0.7887  1.9836
    1SOL    HW310455   1.069   0.132   4.730  1.8706 -0.4086 -0.2728
    1SOL    MW410456   1.064   0.054   4.769  0.2608 -0.1452  0.0968
    1SOL     OW10457   4.000   2.665   4.552  0.5903 -0.4306  0.1637
    1SOL    HW210458   3.908   2.682   4.574  0.6996  0.3482  0.0365
    1SOL    HW310459   4.010   2.702   4.464  1.3938  0.7953  0.7577
    1SOL    MW410460   3.989   2.672   4.543  0.7107 -0.1662  0.2251
    1SOL     OW10461   3.759   2.061   4.218 -0.0061 -0.1835  0.0035
    1SOL    HW210462   3.683   2.003   4.216  0.7193 -1.1453 -0.1889
    1SOL    HW310463   3.723   2.148   4.204 -1.1537 -0.5408  0.6606
    1SOL    MW410464   3.744   2.065   4.216 -0.0618 -0.3576  0.0653
    1SOL     OW10465   1.798   3.652   4.518 -0.1964 -0.2567 -0.0896
    1SOL    HW210466   1.856   3.613   4.452 -1.6172 -0.3346 -1.3341
    1SOL    HW310467   1.833   3.739   4.533  0.3933 -0.3949 -0.6336
    1SOL    MW410468   1.810   3.658   4.511 -0.3060 -0.2851 -0.3257
    1SOL     OW10469   3.798   3.129   4.197  0.1243 -0.2829  0.0746
    1SOL    HW210470   3.884   3.161   4.227  0.4308 -0.4668 -0.6165
    1SOL    HW310471   3.803   3.132   4.102 -0.5244 -0.6098  0.0309
    1SOL    MW410472   3.810   3.134   4.189  0.0794 -0.3505 -0.0224
    1SOL     OW10473   3.815   4.386   4.177 -0.1426  0.0280  0.1959
    1SOL    HW210474   3.743   4.326   4.158 -1.1797  1.1414  0.5901
    1SOL    HW310475   3.834   4.373   4.270 -0.5503  0.5080  0.3464
    1SOL    MW410476   3.808   4.376   4.187 -0.3331  0.2384  0.2680
    1SOL     OW10477   3.575   3.248   4.285 -0.0815 -0.1787 -0.0839
    1SOL    HW210478   3.507   3.186   4.260 -0.5776  0.5813 -0.6530
    1SOL    HW310479   3.656   3.210   4.252 -0.6212  0.4062 -2.1611
    1SOL    MW410480   3.576   3.235   4.277 -0.2184 -0.0014 -0.4334
    1SOL     OW10481   1.223   2.245   4.463 -0.1475  0.1406 -0.0215
    1SOL    HW210482   1.277   2.263   4.540  1.1705 -2.0399 -0.3925
    1SOL    HW310483   1.265   2.294   4.392  1.8118 -2.0967 -0.4577
    1SOL    MW410484   1.236   2.254   4.464  0.2849 -0.4425 -0.1273
    1SOL     OW10485   4.236   2.977   4.791  0.1413 -0.3572 -0.0409
    1SOL    HW210486   4.291   2.963   4.868  1.0316  1.3479 -0.3308
    1SOL    HW310487   4.222   2.889   4.755  1.3966 -0.9735  0.9255
    1SOL    MW410488   4.241   2.963   4.796  0.4244 -0.2136  0.0482
    1SOL     OW10489   1.316   3.431   4.187 -0.0043  0.1176 -0.4667
    1SOL    HW210490   1.331   3.458   4.096 -2.0461 -0.4482 -1.0032
    1SOL    HW310491   1.346   3.340   4.190 -0.2233  0.0374 -0.6661
    1SOL    MW410492   1.322   3.422   4.175 -0.3026  0.0324 -0.5636
    1SOL     OW10493   3.185   4.259   4.109  0.2408 -0.2992  0.1819
    1SOL    HW210494   3.178   4.165   4.120  0.4509 -0.3568 -0.1625
    1SOL    HW310495   3.247   4.287   4.176 -0.2361 -0.3319  0.6381
    1SOL    MW410496   3.193   4.251   4.119  0.2060 -0.3109  0.1969
    1SOL     OW10497   0.087   0.830   4.466 -0.2515 -0.0160 -0.5706
    1SOL    HW210498   0.174   0.795   4.484  0.3205  1.1736 -0.9455
    1SOL    HW310499   0.035   0.754   4.442  0.9788 -0.5962 -1.4632
    1SOL    MW410500   0.092   0.816   4.465 -0.0137  0.0644 -0.7381
    1SOL     OW10501   4.213   4.367   4.521  0.1588  0.1946 -0.5436
    1SOL    HW210502   4.242   4.379   4.431  2.6432 -2.3130 -0.1498
    1SOL    HW310503   4.212   4.455   4.558  2.0835  0.9403 -2.1536
    1SOL    MW410504   4.217   4.380   4.514  0.7405 -0.0381 -0.7043
    1SOL     OW10505   4.327   2.246   4.447 -0.3439 -0.0464 -0.0551
    1SOL    HW210506   4.361   2.240   4.537 -0.8743 -1.6342  0.0359
    1SOL    HW310507   4.391   2.302   4.402  0.3816  0.0727  1.0935
    1SOL    MW410508   4.340   2.253   4.453 -0.3185 -0.2398  0.1087
    1SOL     OW10509   3.116   0.252   4.507  0.8751 -0.0251  0.1330
    1SOL    HW210510   3.044   0.308   4.536  0.4620 -0.4663 -0.0179
    1SOL    HW310511   3.112   0.177   4.567  0.6466 -0.4681 -0.4337
    1SOL    MW410512   3.106   0.249   4.519  0.7908 -0.1418  0.0377
    1SOL     OW10513   0.780   0.814   4.599  0.7506  0.1480 -0.0737
    1SOL    HW210514   0.811   0.734   4.643  1.4097  0.0979 -0.6128
    1SOL    HW310515   0.695   0.790   4.563  1.1792 -0.4865 -0.6923
    1SOL    MW410516   0.773   0.800   4.601  0.8941  0.0576 -0.2265
    1SOL     OW10517   0.171   0.414   4.467 -0.2152 -0.1867  0.3078
    1SOL    HW210518   0.147   0.327   4.498 -1.7575 -0.4754 -1.5803
    1SOL    HW310519   0.201   0.400   4.377 -0.6734  1.2469 -0.0842
    1SOL    MW410520   0.172   0.401   4.459 -0.4791 -0.0356  0.0067
    1SOL     OW10521   4.442   0.571   4.424  0.1015  0.0202  0.0464
    1SOL    HW210522   4.510   0.505   4.438  1.0531  1.1112  0.7359
    1SOL    HW310523   4.381   0.531   4.363  0.2898 -1.7544  1.0036
    1SOL    MW410524   4.443   0.557   4.418  0.2527 -0.0701  0.2637
    1SOL     OW10525   4.099   1.107   4.156 -0.7725 -0.1412 -0.2048
    1SOL    HW210526   4.022   1.150   4.194 -1.1427  0.0776 -1.1966
    1SOL    HW310527   4.097   1.018   4.192 -1.8977 -0.3620 -0.7953
    1SOL    MW410528   4.089   1.101   4.166 -0.9704 -0.1414 -0.4134
    1SOL     OW10529   3.118   0.954   4.517 -0.6022  0.2841 -0.6221
    1SOL    HW210530   3.073   1.038   4.514 -2.1132 -0.4681  0.5211
    1SOL    HW310531   3.131   0.931   4.425 -0.8147  1.4194 -0.9456
    1SOL    MW410532   3.114   0.962   4.504 -0.8297  0.3347 -0.5136
    1SOL     OW10533   0.783   1.239   4.625 -0.3384 -0.0188 -0.1695
    1SOL    HW210534   0.689   1.254   4.612 -0.2397  0.9595  0.2468
    1SOL    HW310535   0.787   1.179   4.700 -0.5760  1.2873  0.9065
    1SOL    MW410536   0.771   1.233   4.633 -0.3567  0.2826  0.0277
    1SOL     OW10537   2.024   0.451   4.551 -0.2702 -0.2289  0.1305
    1SOL    HW210538   2.015   0.471   4.458 -1.0210  1.6120  0.5653
    1SOL    HW310539   2.100   0.501   4.580 -2.3645  2.3692  1.3119
    1SOL    MW410540   2.032   0.460   4.543 -0.6456  0.3568  0.3438
    1SOL     OW10541   1.166   4.474   4.484  0.5579 -0.4559 -0.2278
    1SOL    HW210542   1.210   4.557   4.502 -0.1503  0.0034 -0.6154
    1SOL    HW310543   1.077   4.487   4.515  0.9633 -1.7568  1.5710
    1SOL    MW410544   1.160   4.487   4.491  0.5180 -0.5670 -0.0415
    1SOL     OW10545   3.842   0.531   4.258  0.2235 -0.1109 -0.2670
    1SOL    HW210546   3.838   0.618   4.220  0.6881  0.1670  0.3121
    1SOL    HW310547   3.837   0.546   4.352 -1.9828 -0.8571 -0.2380
    1SOL    MW410548   3.841   0.544   4.265 -0.0062 -0.1726 -0.1864
    1SOL     OW10549   3.707   2.336   4.107  0.0722  0.2791 -0.0271
    1SOL    HW210550   3.731   2.347   4.015  0.6544  0.0082  0.0866
    1SOL    HW310551   3.620   2.374   4.114 -1.7608 -3.4016 -1.5803
    1SOL    MW410552   3.699   2.342   4.096 -0.0927 -0.2422 -0.2170
    1SOL     OW10553   4.023   3.475   4.162  0.1537 -0.0496 -0.1472
    1SOL    HW210554   4.037   3.455   4.070  0.0350 -0.6427 -0.0329
    1SOL    HW310555   4.099   3.529   4.186 -0.0018  0.4178 -0.6820
    1SOL    MW410556   4.035   3.480   4.153  0.1173 -0.0663 -0.2031
    1SOL     OW10557   3.959   2.435   4.189 -0.0822  0.1631 -0.6207
    1SOL    HW210558   3.876   2.400   4.156  0.3012 -1.0094 -0.3770
    1SOL    HW310559   3.986   2.373   4.257 -0.3154  1.9501  1.1391
    1SOL    MW410560   3.952   2.422   4.194 -0.0622  0.2441 -0.3562
    1SOL     OW10561   1.202   3.383   4.578 -0.4928 -0.0142 -0.6439
    1SOL    HW210562   1.157   3.464   4.602 -0.8823  0.0868 -1.6725
    1SOL    HW310563   1.131   3.321   4.560 -0.1941 -0.8466  0.9822
    1SOL    MW410564   1.186   3.385   4.579 -0.5046 -0.1109 -0.5655
    1SOL     OW10565   3.842   0.196   4.605 -0.0832  0.2191 -0.6064
    1SOL    HW210566   3.751   0.201   4.575  0.1281 -0.7264 -1.4604
    1SOL    HW310567   3.854   0.274   4.659 -1.6684 -0.1021  0.2548
    1SOL    MW410568   3.831   0.207   4.608 -0.2644  0.0519 -0.6056
    1SOL     OW10569   3.788   3.606   4.206  0.0646 -0.2452  0.1150
    1SOL    HW210570   3.726   3.546   4.165  1.1595  0.3091 -2.5197
    1SOL    HW310571   3.871   3.558   4.205  0.1061 -0.2058  1.7056
    1SOL    MW410572   3.791   3.592   4.200  0.2146 -0.1669 -0.0229
    1SOL     OW10573   2.138   1.482   4.152  0.3777  0.3255 -0.0572
    1SOL    HW210574   2.111   1.511   4.065 -0.3289 -1.7179 -0.5433
    1SOL    HW310575   2.233   1.475   4.146  0.4198  1.1004 -0.3699
    1SOL    MW410576   2.147   1.485   4.140  0.2899  0.1581 -0.1626
    1SOL     OW10577   4.235   3.621   4.241 -0.4637  0.2872 -0.7873
    1SOL    HW210578   4.307   3.558   4.230 -0.3766  0.4030 -0.8749
    1SOL    HW310579   4.244   3.652   4.331  0.0279  0.8377 -1.0261
    1SOL    MW410580   4.246   3.617   4.251 -0.3877  0.3753 -0.8302
    1SOL     OW10581   0.450   3.967   4.242  0.2071 -0.0134 -0.4598
    1SOL    HW210582   0.468   4.057   4.217  0.8517 -0.0726 -0.2209
    1SOL    HW310583   0.531   3.920   4.222  0.2420 -0.3338  0.4190
    1SOL    MW410584   0.463   3.972   4.236  0.2968 -0.0634 -0.3114
    1SOL     OW10585   0.924   4.531   4.609  0.1655  0.0449 -0.0810
    1SOL    HW210586   0.870   4.603   4.576 -0.6343 -1.2176 -1.6122
    1SOL    HW310587   0.964   4.566   4.688  0.4974  2.4783 -1.2595
    1SOL    MW410588   0.922   4.545   4.615  0.1037  0.1993 -0.4382
    1SOL     OW10589   3.791   3.881   4.166 -0.3208  0.0350 -0.0329
    1SOL    HW210590   3.871   3.908   4.211 -0.4447  0.3940 -0.0283
    1SOL    HW310591   3.783   3.787   4.185 -0.4832  0.2294  0.8656
    1SOL    MW410592   3.800   3.872   4.174 -0.3583  0.1080  0.0868
    1SOL     OW10593   3.170   4.623   4.683 -0.5058  0.1900 -0.2204
    1SOL    HW210594   3.140   4.541   4.642  0.1586 -0.0140 -0.3123
    1SOL    HW310595   3.198   4.597   4.771  0.1842  0.2191 -0.4244
    1SOL    MW410596   3.170   4.609   4.689 -0.3273  0.1674 -0.2599
    1SOL     OW10597   3.739   3.602   4.501 -0.1276 -0.5781  0.0066
    1SOL    HW210598   3.829   3.587   4.532  0.2937 -0.8938 -1.3443
    1SOL    HW310599   3.747   3.605   4.406 -1.3384  0.8805 -0.0529
    1SOL    MW410600   3.752   3.600   4.493 -0.2317 -0.4275 -0.1788
    1SOL     OW10601   2.020   1.492   4.549 -0.2648 -0.0855  0.1374
    1SOL    HW210602   1.929   1.491   4.579 -0.5734  1.0075 -0.7459
    1SOL    HW310603   2.021   1.555   4.477  1.1568 -0.2144  0.0327
    1SOL    MW410604   2.008   1.500   4.544 -0.1178  0.0418  0.0067
    1SOL     OW10605   4.278   1.975   4.339 -0.0489 -0.2886 -0.4240
    1SOL    HW210606   4.298   2.057   4.384 -0.3587  0.3729 -1.4689
    1SOL    HW310607   4.189   1.987   4.306 -0.0955 -1.0482 -0.5931
    1SOL    MW410608   4.269   1.987   4.341 -0.0958 -0.3015 -0.5836
    1SOL     OW10609   4.082   0.107   4.198 -0.2612  0.3497  0.3617
    1SOL    HW210610   4.095   0.129   4.291  1.7998 -2.0211  0.6866
    1SOL    HW310611   3.994   0.071   4.194 -0.6892  1.2808  1.2371
    1SOL    MW410612   4.072   0.106   4.210 -0.0453  0.1598  0.5202
    1SOL     OW10613   0.977   2.909   4.570  0.0528  0.3341  0.4482
    1SOL    HW210614   0.945   2.891   4.482 -1.0739  0.5181  0.8013
    1SOL    HW310615   0.897   2.910   4.624  0.7470  0.0104  1.4954
    1SOL    MW410616   0.962   2.907   4.566 -0.0043  0.3157  0.6328
    1SOL     OW10617   1.798   0.579   4.656 -0.0809  0.0264 -0.1556
    1SOL    HW210618   1.803   0.571   4.751  0.1620 -1.5111 -0.2996
    1SOL    HW310619   1.883   0.550   4.624 -1.0993 -2.1317 -0.9971
    1SOL    MW410620   1.810   0.574   4.664 -0.1832 -0.4612 -0.2856
    1SOL     OW10621   1.672   2.955   4.568  0.4197 -0.2414 -0.1106
    1SOL    HW210622   1.700   2.894   4.635 -1.5613  0.2110  1.1863
    1SOL    HW310623   1.729   3.031   4.578 -0.7808  0.4090  2.0520
    1SOL    MW410624   1.683   2.957   4.578  0.0001 -0.0963  0.3462
    1SOL     OW10625   0.230   1.521   4.110  0.4924  0.3368  0.2584
    1SOL    HW210626   0.142   1.553   4.130  0.2830  1.0147 -1.6634
    1SOL    HW310627   0.288   1.590   4.141  0.4048 -0.3414  2.0079
    1SOL    MW410628   0.226   1.534   4.117  0.4532  0.3368  0.2356
    1SOL     OW10629   4.291   3.980   4.602  0.3204  0.0915  0.3875
    1SOL    HW210630   4.209   4.027   4.585  0.3713  0.8219  2.0160
    1SOL    HW310631   4.300   3.982   4.698  1.6151 -1.0538  0.3054
    1SOL    MW410632   4.281   3.986   4.613  0.4973  0.0367  0.5908
    1SOL     OW10633   0.283   1.185   4.500 -0.0969  0.7863  0.0372
    1SOL    HW210634   0.261   1.222   4.415  0.9495  0.2072 -0.4983
    1SOL    HW310635   0.202   1.144   4.531 -0.5892  1.3672 -0.4909
    1SOL    MW410636   0.269   1.184   4.493 -0.0238  0.7864 -0.1030
    1SOL     OW10637   0.541   1.308   4.529  0.2129 -0.0568  0.0893
    1SOL    HW210638   0.514   1.380   4.586 -0.8401  0.6089 -1.2340
    1SOL    HW310639   0.463   1.253   4.522  0.9391 -1.2112  0.8902
    1SOL    MW410640   0.527   1.310   4.536  0.1698 -0.1214  0.0205
    1SOL     OW10641   4.425   1.886   4.123 -0.1033 -0.0466  0.4500
    1SOL    HW210642   4.424   1.792   4.138 -0.7299  0.1127  1.4333
    1SOL    HW310643   4.363   1.921   4.187 -0.4764  0.9532 -0.4454
    1SOL    MW410644   4.417   1.878   4.133 -0.2351  0.1063  0.4616
    1SOL     OW10645   2.154   4.005   4.481 -0.4333  0.2876  0.2971
    1SOL    HW210646   2.174   3.986   4.390 -1.5777 -0.5433  0.2048
    1SOL    HW310647   2.125   4.096   4.481  1.0843  0.7797  0.0846
    1SOL    MW410648   2.153   4.014   4.469 -0.3839  0.2427  0.2570
    1SOL     OW10649   4.084   0.160   4.488  0.4712 -0.1081 -0.0775
    1SOL    HW210650   4.138   0.236   4.514  0.3568 -0.3132  0.7861
    1SOL    HW310651   3.996   0.183   4.517  0.2653 -0.1692 -0.6649
    1SOL    MW410652   4.080   0.173   4.495  0.4296 -0.1432 -0.0405
    1SOL     OW10653   0.425   3.423   4.175 -0.2594 -0.1985 -0.2068
    1SOL    HW210654   0.496   3.475   4.212  0.4423 -0.9340 -0.5150
    1SOL    HW310655   0.423   3.448   4.082 -1.3415  0.8764  0.0862
    1SOL    MW410656   0.434   3.433   4.167 -0.3096 -0.1535 -0.2089
    1SOL     OW10657   2.997   1.696   4.681  0.1847 -0.7556  0.6188
    1SOL    HW210658   2.967   1.713   4.770 -1.3290 -0.2203  0.0256
    1SOL    HW310659   2.924   1.724   4.626  0.2397 -3.0740 -0.6879
    1SOL    MW410660   2.984   1.702   4.685 -0.0079 -0.9907  0.3676
    1SOL     OW10661   4.286   0.687   4.626 -0.0555  0.1427 -0.3144
    1SOL    HW210662   4.349   0.733   4.682 -0.3217  1.0635 -0.7644
    1SOL    HW310663   4.337   0.659   4.550 -0.1123  0.6018 -0.5239
    1SOL    MW410664   4.301   0.690   4.624 -0.0978  0.3248 -0.4010
    1SOL     OW10665   3.420   0.961   4.604  0.2094  0.0907 -0.2450
    1SOL    HW210666   3.438   1.041   4.654  0.4378 -0.4821  0.5926
    1SOL    HW310667   3.325   0.962   4.592 -0.1843 -1.0550  2.4093
    1SOL    MW410668   3.409   0.972   4.609  0.1874 -0.1360  0.2160
    1SOL     OW10669   0.478   1.562   4.664  0.1624 -0.0360  0.8618
    1SOL    HW210670   0.397   1.584   4.618 -0.3364 -0.5206  1.4921
    1SOL    HW310671   0.510   1.646   4.699  0.0336  0.1817  0.4615
    1SOL    MW410672   0.472   1.576   4.663  0.0796 -0.0712  0.8922
    1SOL     OW10673   0.241   3.821   4.127  0.3082  0.1602  0.3451
    1SOL    HW210674   0.319   3.862   4.163 -1.3552 -0.3633  4.7404
    1SOL    HW310675   0.169   3.880   4.148 -0.7835 -0.1323 -2.2590
    1SOL    MW410676   0.242   3.834   4.134 -0.0553  0.0525  0.5813
    1SOL     OW10677   2.152   0.861   4.514  0.1419 -0.1332  0.2677
    1SOL    HW210678   2.191   0.873   4.428  0.3469 -0.1819  0.3521
    1SOL    HW310679   2.165   0.944   4.559  1.0394 -0.4751  0.6465
    1SOL    MW410680   2.159   0.873   4.509  0.2875 -0.1847  0.3295
    1SOL     OW10681   1.318   4.319   4.633  0.2379 -0.7045  0.3044
    1SOL    HW210682   1.303   4.228   4.608  0.2212 -0.1535 -1.7424
    1SOL    HW310683   1.260   4.370   4.576  2.0031  0.7375 -0.2436
    1SOL    MW410684   1.308   4.313   4.623  0.4687 -0.4416 -0.0381
    1SOL     OW10685   4.019   3.595   4.553  0.1567 -0.1217  0.0399
    1SOL    HW210686   4.102   3.640   4.535  0.3767 -0.2222  0.7832
    1SOL    HW310687   4.042   3.502   4.551  0.3004 -0.1245  1.3521
    1SOL    MW410688   4.033   3.588   4.551  0.2041 -0.1349  0.3114
    1SOL     OW10689   0.720   0.155   4.798 -0.1911 -0.2034  0.0932
    1SOL    HW210690   0.745   0.119   4.713  3.0164  1.2688  0.3528
    1SOL    HW310691   0.794   0.137   4.856 -1.4673  0.5993  2.0382
    1SOL    MW410692   0.733   0.148   4.794  0.0637  0.0968  0.3848
    1SOL     OW10693   4.426   0.840   4.784  0.0318 -0.3660  0.3378
    1SOL    HW210694   4.351   0.860   4.841 -0.2334  0.4876 -0.2898
    1SOL    HW310695   4.435   0.918   4.729  1.2760 -0.5388  0.2835
    1SOL    MW410696   4.417   0.853   4.784  0.1612 -0.2761  0.2480
    1SOL     OW10697   4.216   1.498   4.137 -0.1733 -0.0459 -0.2052
    1SOL    HW210698   4.231   1.411   4.175 -3.1057 -0.9649 -1.0481
    1SOL    HW310699   4.216   1.483   4.043  1.3156  1.2536 -0.4367
    1SOL    MW410700   4.218   1.484   4.130 -0.3638  0.0043 -0.3467
    1SOL     OW10701   2.755   1.486   4.112  0.0786  0.5071 -0.4602
    1SOL    HW210702   2.659   1.481   4.119  0.2283 -0.3740  1.3032
    1SOL    HW310703   2.779   1.565   4.160  0.3026  0.2731 -0.1873
    1SOL    MW410704   2.745   1.496   4.119  0.1278  0.3600 -0.1917
    1SOL     OW10705   3.774   2.868   4.270 -0.4153  0.3924 -0.1776
    1SOL    HW210706   3.784   2.959   4.242 -0.1346  0.1725 -0.8038
    1SOL    HW310707   3.718   2.828   4.204  0.5493 -0.2241 -0.6403
    1SOL    MW410708   3.768   2.875   4.258 -0.2511  0.2820 -0.3214
    1SOL     OW10709   4.049   2.302   4.414 -0.0585 -0.0869 -0.2840
    1SOL    HW210710   4.031   2.332   4.503 -0.1439  0.7949 -0.5930
    1SOL    HW310711   4.141   2.277   4.415  0.0317  0.2532 -0.0410
    1SOL    MW410712   4.059   2.302   4.426 -0.0582  0.0744 -0.2928
    1SOL     OW10713   4.284   1.417   4.512 -0.4711  0.2824  0.3044
    1SOL    HW210714   4.199   1.461   4.506 -0.8837 -0.2793  1.7974
    1SOL    HW310715   4.348   1.488   4.508 -1.0551  0.8173  0.4396
    1SOL    MW410716   4.281   1.432   4.510 -0.6027  0.2788  0.5193
    1SOL     OW10717   2.023   4.352   4.230  0.0089  0.1813  0.4933
    1SOL    HW210718   1.997   4.443   4.217  0.2444  0.1200 -0.4537
    1SOL    HW310719   2.108   4.345   4.186  0.3648 -0.2905  1.2498
    1SOL    MW410720   2.031   4.363   4.222  0.0868  0.1106  0.4678
    1SOL     OW10721   2.729   4.502   4.495  0.1470  0.0793  0.4256
    1SOL    HW210722   2.807   4.456   4.526  0.3592  1.2342  1.6763
    1SOL    HW310723   2.656   4.445   4.519  0.4937 -0.2386  0.7261
    1SOL    MW410724   2.729   4.489   4.502  0.2208  0.1898  0.6299
    1SOL     OW10725   2.726   2.338   4.657 -0.1230  0.4786  0.2877
    1SOL    HW210726   2.633   2.324   4.639 -0.0133 -0.2137  0.2721
    1SOL    HW310727   2.727   2.377   4.744 -0.3278 -0.9763  0.9413
    1SOL    MW410728   2.714   2.342   4.666 -0.1357  0.1955  0.3719
    1SOL     OW10729   1.126   0.517   4.252 -0.3986 -0.3152 -0.2370
    1SOL    HW210730   1.141   0.602   4.211 -1.2387 -0.2709 -0.4666
    1SOL    HW310731   1.203   0.465   4.228 -0.2567  0.1304 -0.7587
    1SOL    MW410732   1.138   0.521   4.244 -0.4907 -0.2505 -0.3357
    1SOL     OW10733   0.509   0.838   4.512  0.0394 -0.3216  0.4700
    1SOL    HW210734   0.508   0.843   4.416  2.1305 -1.7210  0.3273
    1SOL    HW310735   0.460   0.758   4.532  1.0539 -0.9541  0.4587
    1SOL    MW410736   0.502   0.828   4.502  0.4491 -0.5896  0.4506
    1SOL     OW10737   0.675   0.501   4.227 -0.5746 -0.3904 -0.4853
    1SOL    HW210738   0.649   0.511   4.318  0.8163  0.1531 -0.1447
    1SOL    HW310739   0.682   0.590   4.193 -0.2542 -0.5651 -0.8866
    1SOL    MW410740   0.673   0.514   4.234 -0.3488 -0.3417 -0.4930
    1SOL     OW10741   0.637   2.706   4.398 -0.6243 -0.0457 -0.1078
    1SOL    HW210742   0.674   2.647   4.463  1.5462  0.9710 -0.3683
    1SOL    HW310743   0.593   2.649   4.335 -0.1474 -1.2311  0.6243
    1SOL    MW410744   0.636   2.691   4.398 -0.2751 -0.0679 -0.0463
    1SOL     OW10745   1.082   3.603   4.287 -0.2817 -0.0527  0.0487
    1SOL    HW210746   1.147   3.534   4.271 -0.4942 -0.0650 -0.8102
    1SOL    HW310747   1.003   3.571   4.245 -0.4788  0.5576 -0.0485
    1SOL    MW410748   1.080   3.590   4.279 -0.3357  0.0260 -0.0777
    1SOL     OW10749   3.114   3.201   4.276 -0.4652 -0.4502  0.2617
    1SOL    HW210750   3.115   3.291   4.243 -2.2280 -0.7223 -0.6178
    1SOL    HW310751   3.124   3.210   4.371  1.6805  0.5233 -0.0311
    1SOL    MW410752   3.115   3.214   4.284 -0.4146 -0.3579  0.1068
    1SOL     OW10753   3.942   2.040   4.461  0.4809 -0.0164 -0.2334
    1SOL    HW210754   3.858   2.028   4.418 -0.3747 -0.3464  1.4684
    1SOL    HW310755   3.968   2.130   4.439  0.1340 -0.2273 -1.5131
    1SOL    MW410756   3.934   2.050   4.453  0.3221 -0.0877 -0.1779
    1SOL     OW10757   0.689   1.275   4.267 -0.2086 -0.1192 -0.0094
    1SOL    HW210758   0.660   1.274   4.359  0.2359  0.4808  0.1388
    1SOL    HW310759   0.629   1.215   4.223 -2.2350  1.7424  0.1393
    1SOL    MW410760   0.677   1.267   4.274 -0.4173  0.2055  0.0296
    1SOL     OW10761   1.747   1.957   4.398  0.2982  0.0810  0.1742
    1SOL    HW210762   1.821   2.017   4.397  0.4668 -0.1273  0.0460
    1SOL    HW310763   1.670   2.013   4.399  0.4708  0.2976  1.1201
    1SOL    MW410764   1.746   1.972   4.398  0.3433  0.0821  0.2818
    1SOL     OW10765   1.262   2.883   4.540  0.4990  0.3497 -0.1424
    1SOL    HW210766   1.301   2.970   4.530 -0.6380  0.6287 -2.2568
    1SOL    HW310767   1.179   2.900   4.584  0.7005  0.2242  0.2899
    1SOL    MW410768   1.256   2.897   4.545  0.3756  0.3703 -0.3648
    1SOL     OW10769   0.790   3.931   4.520 -0.3898  0.2730  0.0772
    1SOL    HW210770   0.875   3.974   4.519  0.4070 -1.2316 -1.3258
    1SOL    HW310771   0.801   3.857   4.580 -0.8806  0.4347  0.3625
    1SOL    MW410772   0.803   3.927   4.528 -0.3495  0.0961 -0.0706
    1SOL     OW10773   4.479   3.419   4.175  0.0610 -0.0784 -0.2972
    1SOL    HW210774   4.539   3.477   4.223  1.2507 -0.2276 -1.5588
    1SOL    HW310775   4.486   3.447   4.084  0.1144 -1.7229 -0.8250
    1SOL    MW410776   4.488   3.430   4.170  0.2246 -0.3150 -0.5331
    1SOL     OW10777   3.207   1.872   4.614 -0.0193  0.1287  0.1134
    1SOL    HW210778   3.139   1.804   4.619 -0.4587  0.5461 -0.1608
    1SOL    HW310779   3.158   1.954   4.606  0.5224  0.3445 -1.1289
    1SOL    MW410780   3.192   1.873   4.613 -0.0060  0.2123 -0.0863
    1SOL     OW10781   4.067   4.127   4.527 -0.1231 -0.0871 -0.2466
    1SOL    HW210782   4.122   4.204   4.538  0.0390 -0.2008 -0.2468
    1SOL    HW310783   3.985   4.149   4.570  0.8122 -0.8723  1.9965
    1SOL    MW410784   4.063   4.140   4.534  0.0215 -0.2060  0.0496
    1SOL     OW10785   2.684   3.420   4.622  0.1836 -0.0616  0.1437
    1SOL    HW210786   2.761   3.398   4.675 -0.2872 -0.4169  0.6952
    1SOL    HW310787   2.651   3.335   4.592 -0.3901  0.0392  0.4840
    1SOL    MW410788   2.690   3.406   4.625  0.0455 -0.0951  0.2613
    1SOL     OW10789   0.284   0.811   4.760 -0.2873 -0.2695  0.7851
    1SOL    HW210790   0.193   0.838   4.759 -0.2228 -0.0178 -1.3352
    1SOL    HW310791   0.334   0.893   4.762 -0.1045 -0.3778  0.7589
    1SOL    MW410792   0.279   0.825   4.760 -0.2547 -0.2505  0.5016
    1SOL     OW10793   2.688   1.093   4.574  0.2948 -0.2158 -0.2231
    1SOL    HW210794   2.627   1.166   4.563 -0.7761 -0.4804  3.3464
    1SOL    HW310795   2.775   1.134   4.573 -0.1915  0.8329 -0.3918
    1SOL    MW410796   2.691   1.108   4.573  0.0892 -0.1124  0.2255
    1SOL     OW10797   1.539   3.602   4.273  0.1425  0.0191 -0.0572
    1SOL    HW210798   1.453   3.570   4.247 -0.4051  1.0407  0.4823
    1SOL    HW310799   1.526   3.636   4.362  0.8402  1.2015 -0.3959
    1SOL    MW410800   1.526   3.602   4.282  0.1622  0.3097 -0.0310
    1SOL     OW10801   3.135   4.001   4.158  0.3158  0.1315 -0.0276
    1SOL    HW210802   3.214   3.947   4.152 -0.5262 -1.2043  0.4838
    1SOL    HW310803   3.129   4.025   4.250 -1.8196 -2.8709  0.7024
    1SOL    MW410804   3.145   3.997   4.169 -0.0772 -0.4408  0.1359
    1SOL     OW10805   0.177   2.022   4.199  0.0446 -0.0714  0.2454
    1SOL    HW210806   0.105   1.967   4.169 -1.2732  0.5019  2.2120
    1SOL    HW310807   0.253   1.992   4.150 -1.4403 -1.0241 -1.5223
    1SOL    MW410808   0.177   2.011   4.189 -0.3252 -0.1214  0.2718
    1SOL     OW10809   2.052   1.898   4.481  0.1212  0.0928 -0.1266
    1SOL    HW210810   2.024   1.989   4.489 -0.8307 -0.2338  0.2235
    1SOL    HW310811   2.148   1.903   4.487  0.2961  1.3955 -3.1497
    1SOL    MW410812   2.061   1.911   4.483  0.0186  0.2216 -0.4792
    1SOL     OW10813   3.124   3.459   4.611 -0.0055  0.0898  0.5882
    1SOL    HW210814   3.134   3.366   4.590  0.6729 -0.1036  1.7220
    1SOL    HW310815   3.203   3.500   4.578 -1.2784  0.6416 -1.8843
    1SOL    MW410816   3.135   3.452   4.604 -0.0842  0.1371  0.4115
    1SOL     OW10817   0.651   3.492   4.526 -0.4636  0.0731  0.3014
    1SOL    HW210818   0.667   3.497   4.432  0.6160  1.9662  0.5441
    1SOL    HW310819   0.572   3.544   4.541  0.1965  1.0027  0.6061
    1SOL    MW410820   0.643   3.500   4.516 -0.2341  0.4458  0.3734
    1SOL     OW10821   1.848   3.204   4.259 -0.1555 -0.3153  0.2721
    1SOL    HW210822   1.778   3.140   4.239  0.5339 -0.6815 -1.0753
    1SOL    HW310823   1.811   3.288   4.233 -0.6376 -0.3124  0.9539
    1SOL    MW410824   1.834   3.206   4.253 -0.1281 -0.3631  0.1845
    1SOL     OW10825   3.036   2.270   4.183 -0.3771 -0.6162 -0.0440
    1SOL    HW210826   2.963   2.310   4.232 -1.0083 -0.8392 -0.8020
    1SOL    HW310827   3.001   2.255   4.096  0.8714  0.1340 -0.6889
    1SOL    MW410828   3.022   2.273   4.178 -0.2956 -0.5465 -0.2289
    1SOL     OW10829   2.561   3.888   4.615  0.7687 -0.1459 -0.4737
    1SOL    HW210830   2.528   3.803   4.585  1.1993 -0.8363  0.9919
    1SOL    HW310831   2.550   3.886   4.710  0.2922  1.6582 -0.4754
    1SOL    MW410832   2.555   3.876   4.623  0.7625  0.0010 -0.2804
    1SOL     OW10833   1.291   0.056   4.537 -0.0709  0.4825 -0.0928
    1SOL    HW210834   1.307   0.020   4.625  2.7085  1.2577 -0.2362
    1SOL    HW310835   1.249   0.140   4.554 -0.7132  0.0723  0.4289
    1SOL    MW410836   1.288   0.062   4.551  0.2111  0.5307 -0.0434
    1SOL     OW10837   4.314   1.833   4.577 -0.2336 -0.1114  0.1612
    1SOL    HW210838   4.292   1.869   4.491 -1.0833 -1.4253 -0.1846
    1SOL    HW310839   4.231   1.800   4.611  0.6831 -2.7138 -0.0112
    1SOL    MW410840   4.300   1.833   4.570 -0.2241 -0.6280  0.0925
    1SOL     OW10841   3.662   2.935   4.520  0.1171 -0.0034  0.3905
    1SOL    HW210842   3.699   2.911   4.435  2.3781  0.4950  1.1989
    1SOL    HW310843   3.716   3.010   4.548 -2.1439  1.3654  1.1783
    1SOL    MW410844   3.674   2.942   4.512  0.1173  0.2432  0.6013
    1SOL     OW10845   1.666   1.946   4.128 -0.2968 -0.1733  0.3026
    1SOL    HW210846   1.741   1.931   4.071 -0.7018 -0.0523 -0.2701
    1SOL    HW310847   1.703   1.953   4.216  0.3750  0.0461  0.0035
    1SOL    MW410848   1.681   1.945   4.132 -0.2617 -0.1284  0.1874
    1SOL     OW10849   1.806   1.118   4.117  0.4136  0.5697 -0.4466
    1SOL    HW210850   1.892   1.155   4.136 -0.5515  2.0108  1.2341
    1SOL    HW310851   1.809   1.030   4.152 -0.2638  2.1127  3.7594
    1SOL    MW410852   1.818   1.112   4.124  0.1969  0.9633  0.3300
    1SOL     OW10853   3.493   3.727   4.661  0.1493 -1.0641  0.2445
    1SOL    HW210854   3.500   3.714   4.755  0.9714 -1.6065  0.1163
    1SOL    HW310855   3.581   3.710   4.627  0.2777  0.8121 -0.4330
    1SOL    MW410856   3.505   3.723   4.669  0.2749 -0.8883  0.1383
    1SOL     OW10857   0.579   0.535   4.484  0.0619 -0.4458 -0.1256
    1SOL    HW210858   0.487   0.560   4.495  0.3935  0.3588  1.0066
    1SOL    HW310859   0.604   0.497   4.569  1.3268  1.2615  0.2994
    1SOL    MW410860   0.570   0.534   4.497  0.2725 -0.1143  0.0792
    1SOL     OW10861   2.212   2.862   4.631  0.0570  0.4702  0.4926
    1SOL    HW210862   2.173   2.798   4.689 -0.0949  0.4267  0.3408
    1SOL    HW310863   2.287   2.817   4.592 -0.0315  0.3954  0.4089
    1SOL    MW410864   2.217   2.848   4.633  0.0253  0.4549  0.4616
    1SOL     OW10865   3.706   2.421   4.682  0.6051  0.2744  0.0363
    1SOL    HW210866   3.801   2.418   4.676  0.5710  0.6035 -0.8709
    1SOL    HW310867   3.684   2.513   4.665  0.1473  0.2783  0.6179
    1SOL    MW410868   3.715   2.433   4.679  0.5405  0.3185 -0.0067
    1SOL     OW10869   1.554   2.219   4.134  0.2664  0.0399  0.5928
    1SOL    HW210870   1.626   2.251   4.190 -0.1613 -0.2491  1.3181
    1SOL    HW310871   1.580   2.129   4.112  0.3299  0.0779  0.5130
    1SOL    MW410872   1.567   2.211   4.139  0.2183  0.0067  0.6781
    1SOL     OW10873   1.068   1.937   4.470 -0.0204  0.3139  0.0351
    1SOL    HW210874   1.141   1.955   4.530 -1.6419  2.6290  1.3858
    1SOL    HW310875   1.060   1.841   4.470  1.2674  0.1820  1.9788
    1SOL    MW410876   1.077   1.926   4.478 -0.0645  0.6020  0.4697
    1SOL     OW10877   3.941   4.601   4.700 -0.1011  0.2012  0.1825
    1SOL    HW210878   3.910   4.687   4.670 -1.9076 -0.6167 -0.3803
    1SOL    HW310879   4.036   4.610   4.703 -0.1366  1.6767 -1.6304
    1SOL    MW410880   3.949   4.614   4.696 -0.3443  0.2880 -0.1311
    1SOL     OW10881   2.107   3.057   4.470  0.1835  0.3835 -0.4430
    1SOL    HW210882   2.112   3.005   4.390 -1.3535 -1.2739  0.5116
    1SOL    HW310883   2.157   3.006   4.534  2.7382  2.4612 -0.6926
    1SOL    MW410884   2.114   3.043   4.468  0.3178  0.4392 -0.3500
    1SOL     OW10885   4.250   3.886   4.170 -0.4676 -0.6958  0.0914
    1SOL    HW210886   4.227   3.796   4.195  0.8031 -1.4870 -1.5151
    1SOL    HW310887   4.231   3.890   4.077  0.2836  0.4494 -0.0104
    1SOL    MW410888   4.245   3.874   4.161 -0.2007 -0.6490 -0.1335
    1SOL     OW10889   0.440   3.141   4.542 -0.2016  0.1465 -0.0310
    1SOL    HW210890   0.442   3.046   4.554  0.9937  0.3197  1.2542
    1SOL    HW310891   0.353   3.167   4.570 -0.3330 -0.4962  0.1822
    1SOL    MW410892   0.429   3.132   4.547 -0.0612  0.0846  0.1664
    1SOL     OW10893   1.041   0.912   4.518  0.5402 -0.0872  0.2606
    1SOL    HW210894   0.969   0.868   4.563  0.1402  0.0988 -0.1821
    1SOL    HW310895   1.120   0.886   4.565  0.0275  0.9822  1.7522
    1SOL    MW410896   1.042   0.903   4.530  0.4199  0.0783  0.3991
    1SOL     OW10897   4.290   2.816   4.273  0.0956  0.0043 -0.2430
    1SOL    HW210898   4.282   2.902   4.232  1.1211 -0.0423 -0.5525
    1SOL    HW310899   4.201   2.780   4.269  0.0209  0.3142 -1.7188
    1SOL    MW410900   4.277   2.823   4.267  0.2208  0.0391 -0.4783
    1SOL     OW10901   0.270   4.625   4.112 -0.9358 -0.2201 -0.2085
    1SOL    HW210902   0.359   4.655   4.127 -0.6845 -0.3731 -1.3449
    1SOL    HW310903   0.269   4.535   4.145 -1.6721  0.9465  3.1380
    1SOL    MW410904   0.282   4.617   4.118 -0.9998 -0.0863  0.0830
    1SOL     OW10905   3.211   2.390   4.537  0.3010 -0.4075 -0.1204
    1SOL    HW210906   3.297   2.366   4.573  0.7663  0.5990 -0.5667
    1SOL    HW310907   3.191   2.475   4.576  0.4188  0.2994 -1.5928
    1SOL    MW410908   3.219   2.398   4.547  0.3781 -0.1814 -0.3738
    1SOL     OW10909   0.473   1.120   4.149  0.6512 -0.5332 -0.3481
    1SOL    HW210910   0.450   1.034   4.183  2.4373 -1.2353 -0.8855
    1SOL    HW310911   0.467   1.111   4.054  0.5701  0.0264 -0.4028
    1SOL    MW410912   0.469   1.108   4.141  0.8762 -0.5521 -0.4258
    1SOL     OW10913   2.339   3.251   4.462  0.6953  0.5021  0.0240
    1SOL    HW210914   2.268   3.191   4.486  0.8571  0.5321  0.5730
    1SOL    HW310915   2.296   3.336   4.451  0.4189  0.2373 -1.0352
    1SOL    MW410916   2.324   3.254   4.463  0.6804  0.4711 -0.0434
    1SOL     OW10917   0.031   0.058   4.204 -0.7495 -0.1472  0.8775
    1SOL    HW210918   0.119   0.027   4.180 -1.2134 -1.5689  0.9634
    1SOL    HW310919   0.034   0.152   4.187  0.9398 -0.0910  1.3351
    1SOL    MW410920   0.043   0.066   4.198 -0.5878 -0.3273  0.9494
    1SOL     OW10921   1.292   4.065   4.495 -0.6456  0.3601 -0.3796
    1SOL    HW210922   1.301   3.977   4.534  1.2342  0.4085 -0.6392
    1SOL    HW310923   1.199   4.085   4.502 -1.1092 -1.6857 -0.3625
    1SOL    MW410924   1.281   4.056   4.501 -0.4588  0.0963 -0.4120
    1SOL     OW10925   0.802   3.676   4.679 -0.3972  0.2084 -0.3024
    1SOL    HW210926   0.746   3.620   4.624 -1.1993 -1.2179  1.8949
    1SOL    HW310927   0.891   3.646   4.660 -0.6345 -0.0647 -1.0300
    1SOL    MW410928   0.806   3.665   4.669 -0.5344 -0.0160 -0.1082
    1SOL     OW10929   2.335   1.520   4.612 -0.1120  0.1973 -0.3791
    1SOL    HW210930   2.361   1.428   4.611 -0.4927  0.1053 -1.9460
    1SOL    HW310931   2.240   1.518   4.625 -0.1932  0.3607 -0.9641
    1SOL    MW410932   2.326   1.508   4.614 -0.1733  0.2068 -0.6633
    1SOL     OW10933   2.695   0.800   4.511 -0.4387 -0.2734 -0.2571
    1SOL    HW210934   2.671   0.877   4.562 -0.4992  0.3021 -1.1415
    1SOL    HW310935   2.622   0.739   4.522  0.0275 -0.5869  1.1959
    1SOL    MW410936   2.682   0.802   4.519 -0.3850 -0.2388 -0.1822
    1SOL     OW10937   1.359   0.898   4.315  0.3317  0.8069  0.5645
    1SOL    HW210938   1.439   0.866   4.273 -0.1947  0.3482 -0.1005
    1SOL    HW310939   1.349   0.988   4.284  0.1507  0.5936  0.0033
    1SOL    MW410940   1.368   0.905   4.305  0.2383  0.7182  0.4029
    1SOL     OW10941   4.040   1.041   4.721  0.4013  0.4090 -0.0749
    1SOL    HW210942   3.955   1.082   4.706 -0.2117 -0.8938 -0.2469
    1SOL    HW310943   4.048   0.976   4.651  0.9526 -0.4070  0.7360
    1SOL    MW410944   4.030   1.038   4.710  0.3929  0.1295  0.0091
    1SOL     OW10945   2.953   0.735   4.588 -0.0639 -0.5328  0.1524
    1SOL    HW210946   2.863   0.744   4.555 -0.6448 -0.0132  1.8428
    1SOL    HW310947   2.992   0.821   4.574  0.4658 -1.0068 -1.3893
    1SOL    MW410948   2.946   0.747   4.582 -0.0708 -0.5267  0.1721
    1SOL     OW10949   1.393   3.177   4.225 -0.5404  0.5555 -0.0699
    1SOL    HW210950   1.405   3.147   4.315 -0.8477  0.6689  0.0125
    1SOL    HW310951   1.314   3.131   4.195  1.0336 -1.4740 -1.1746
    1SOL    MW410952   1.384   3.167   4.233 -0.3732  0.3028 -0.2050
    1SOL     OW10953   1.161   2.279   4.067  0.0763  0.3650 -0.4141
    1SOL    HW210954   1.237   2.304   4.120  0.0332 -1.2495  0.4590
    1SOL    HW310955   1.109   2.223   4.125 -0.4927 -0.6003 -1.8262
    1SOL    MW410956   1.164   2.275   4.081 -0.0045  0.0246 -0.4845
    1SOL     OW10957   0.041   1.068   4.599 -0.1139 -0.3422  0.5469
    1SOL    HW210958   0.036   0.987   4.548 -0.0753 -0.2675  0.4250
    1SOL    HW310959  -0.049   1.101   4.600 -0.2759 -0.7805  1.2355
    1SOL    MW410960   0.028   1.062   4.593 -0.1301 -0.3902  0.6218
    1SOL     OW10961   4.126   0.653   4.871  0.1162 -0.5074 -0.5008
    1SOL    HW210962   4.142   0.740   4.908  0.0252 -0.1854 -1.2098
    1SOL    HW310963   4.190   0.645   4.800  0.7922 -1.4153  0.1970
    1SOL    MW410964   4.137   0.664   4.866  0.1936 -0.5847 -0.5021
    1SOL     OW10965   3.306   1.348   4.530  0.3130  0.1632 -0.0817
    1SOL    HW210966   3.314   1.277   4.467  2.4329 -1.9857  2.4503
    1SOL    HW310967   3.215   1.378   4.522  0.0336 -1.3016 -2.7736
    1SOL    MW410968   3.295   1.342   4.521  0.5558 -0.3136 -0.1030
    1SOL     OW10969   3.552   4.392   4.447 -0.3686  0.1757  0.0082
    1SOL    HW210970   3.643   4.409   4.424 -0.4977 -1.4608 -1.8290
    1SOL    HW310971   3.531   4.458   4.513  1.4775  1.9453 -1.1230
    1SOL    MW410972   3.561   4.403   4.453 -0.1423  0.1936 -0.3834
    1SOL     OW10973   0.782   0.078   4.537 -0.0093 -0.0832 -0.1946
    1SOL    HW210974   0.848   0.107   4.474  0.1885 -1.0423 -0.4429
    1SOL    HW310975   0.716   0.034   4.483  0.4754 -1.4812  0.3236
    1SOL    MW410976   0.782   0.076   4.521  0.0807 -0.3942 -0.1593
    1SOL     OW10977   0.236   1.972   4.460  0.0602  0.5079 -0.6133
    1SOL    HW210978   0.327   1.998   4.472  0.3797 -1.1288  0.7087
    1SOL    HW310979   0.217   1.991   4.369  1.8457  0.5530 -0.9886
    1SOL    MW410980   0.245   1.978   4.450  0.3380  0.2980 -0.4883
    1SOL     OW10981   2.027   1.246   4.235 -0.4984 -0.0739 -0.0603
    1SOL    HW210982   2.069   1.330   4.220  0.9827 -1.0263 -1.3397
    1SOL    HW310983   2.025   1.237   4.331  0.3853  0.8779  0.0546
    1SOL    MW410984   2.032   1.256   4.246 -0.1867 -0.0738 -0.2141
    1SOL     OW10985   4.286   4.643   4.078 -0.2045 -0.5031  0.1002
    1SOL    HW210986   4.214   4.674   4.133 -0.5911  0.4960 -0.9581
    1SOL    HW310987   4.365   4.677   4.120 -0.6542  2.5279 -1.3883
    1SOL    MW410988   4.287   4.652   4.091 -0.3147  0.0286 -0.2356
    1SOL     OW10989   2.650   2.712   4.606  0.9558  0.0858 -0.4957
    1SOL    HW210990   2.568   2.713   4.556  1.8757  3.3777 -2.1618
    1SOL    HW310991   2.710   2.661   4.552  0.5146 -0.7809 -0.1732
    1SOL    MW410992   2.647   2.706   4.592  1.0190  0.4058 -0.6728
    1SOL     OW10993   2.058   4.264   4.488  0.2803 -0.2544  0.2120
    1SOL    HW210994   2.053   4.277   4.393 -0.0467  2.7906  0.6074
    1SOL    HW310995   1.967   4.256   4.517  0.2663  0.8900  0.5117
    1SOL    MW410996   2.045   4.264   4.479  0.2353  0.2990  0.3037
    1SOL     OW10997   2.991   4.356   4.520 -0.2650  0.1102 -0.0854
    1SOL    HW210998   3.001   4.262   4.538 -2.8632  0.0202  1.2102
    1SOL    HW310999   2.985   4.362   4.425  2.8377 -0.6768 -0.3848
    1SOL    MW411000   2.992   4.344   4.510 -0.1986 -0.0052  0.0463
    1SOL     OW11001   3.816   4.220   4.621  0.0244  0.3975  0.0495
    1SOL    HW211002   3.742   4.164   4.599  1.1440 -1.0998 -0.0000
    1SOL    HW311003   3.783   4.279   4.689 -1.0834 -0.5300  0.3137
    1SOL    MW411004   3.802   4.221   4.627  0.0262  0.0772  0.0777
    1SOL     OW11005   3.076   2.130   4.524  0.2611  0.1002  0.0085
    1SOL    HW211006   3.115   2.210   4.557  1.4711 -0.9245  1.1331
    1SOL    HW311007   3.119   2.115   4.439  0.9752 -0.0389  0.3928
    1SOL    MW411008   3.086   2.138   4.517  0.5150 -0.0532  0.2084
    1SOL     OW11009   1.782   4.246   4.156  0.1450  0.0144 -0.1085
    1SOL    HW211010   1.769   4.268   4.064  0.5435  1.4031  0.1639
    1SOL    HW311011   1.866   4.286   4.179 -0.2267  0.1698  1.0129
    1SOL    MW411012   1.791   4.254   4.147  0.1485  0.2184  0.0753
    1SOL     OW11013   2.232   1.098   4.122  0.0038  0.4191 -0.3905
    1SOL    HW211014   2.157   1.146   4.158  0.2404  0.5065 -0.0121
    1SOL    HW311015   2.307   1.131   4.171  0.1915 -0.2180 -0.2517
    1SOL    MW411016   2.232   1.109   4.133  0.0596  0.3465 -0.3228
    1SOL     OW11017   0.879   4.260   4.631  0.2078 -0.4282  0.5063
    1SOL    HW211018   0.891   4.354   4.627  0.9590 -0.5336  0.3440
    1SOL    HW311019   0.784   4.248   4.620  0.1447  0.2838  0.2558
    1SOL    MW411020   0.868   4.271   4.629  0.2986 -0.3481  0.4516
    1SOL     OW11021   3.343   0.414   4.543 -0.0250  0.0447 -0.4151
    1SOL    HW211022   3.305   0.487   4.593  0.6307  0.4331 -0.4777
    1SOL    HW311023   3.275   0.347   4.544 -0.0636  0.0916  0.8916
    1SOL    MW411024   3.329   0.415   4.550  0.0563  0.1021 -0.2513
    1SOL     OW11025   4.103   1.719   4.282  0.0060 -0.0498 -0.1687
    1SOL    HW211026   4.153   1.648   4.242  0.2140 -0.1789  0.3178
    1SOL    HW311027   4.078   1.685   4.368  2.3196  1.4216  1.1377
    1SOL    MW411028   4.106   1.705   4.288  0.3390  0.1273  0.0682
    1SOL     OW11029   1.868   1.839   4.695 -0.3657 -0.6382 -0.1301
    1SOL    HW211030   1.863   1.745   4.715  0.7086 -0.7976 -0.5872
    1SOL    HW311031   1.920   1.844   4.615 -0.4958  0.3484 -0.1631
    1SOL    MW411032   1.874   1.827   4.687 -0.2410 -0.5291 -0.1945
    1SOL     OW11033   0.798   2.055   4.516  0.0668  0.2145 -0.5864
    1SOL    HW211034   0.850   1.979   4.491 -0.2534 -0.0934 -0.3136
    1SOL    HW311035   0.856   2.130   4.499  1.0178 -0.1889  0.7785
    1SOL    MW411036   0.813   2.055   4.511  0.1501  0.1209 -0.3705
    1SOL     OW11037   2.925   2.812   4.285 -0.2310 -0.5513 -0.1004
    1SOL    HW211038   2.901   2.899   4.254  1.6116 -0.9939 -2.9098
    1SOL    HW311039   2.843   2.763   4.281 -0.9205  0.5858 -0.1900
    1SOL    MW411040   2.911   2.817   4.280 -0.0789 -0.4597 -0.4830
    1SOL     OW11041   1.560   0.771   4.165 -0.0833 -0.1340  0.0684
    1SOL    HW211042   1.652   0.785   4.186  0.7987 -3.0691 -1.4975
    1SOL    HW311043   1.559   0.758   4.070 -2.3237  1.2388 -0.1390
    1SOL    MW411044   1.572   0.771   4.155 -0.2624 -0.3402 -0.1650
    1SOL     OW11045   3.984   2.410   4.656 -0.5103  0.0191 -0.6006
    1SOL    HW211046   3.993   2.501   4.629 -2.1716  0.5780  0.6551
    1SOL    HW311047   4.062   2.391   4.707 -1.0289  1.3193  0.6982
    1SOL    MW411048   3.995   2.419   4.659 -0.7977  0.2642 -0.2637
    1SOL     OW11049   4.033   4.025   4.257 -0.8202  0.3632 -0.2261
    1SOL    HW211050   4.115   3.977   4.240  0.2625  3.0337 -3.0039
    1SOL    HW311051   4.041   4.056   4.347  0.4868 -0.7959  0.0711
    1SOL    MW411052   4.045   4.023   4.267 -0.5054  0.5631 -0.5536
    1SOL     OW11053   3.093   4.058   4.451 -0.5553 -0.0542  0.3210
    1SOL    HW211054   3.166   4.057   4.513 -1.4940  0.9488  1.4563
    1SOL    HW311055   3.021   4.015   4.497 -0.9771 -0.1546 -0.4223
    1SOL    MW411056   3.093   4.052   4.465 -0.7348  0.0648  0.3724
    1SOL     OW11057   0.142   0.180   4.601 -0.1169 -0.0499  0.1641
    1SOL    HW211058   0.234   0.155   4.593 -0.5444 -1.6696  0.1710
    1SOL    HW311059   0.128   0.191   4.695  0.3427  1.3089  0.0857
    1SOL    MW411060   0.152   0.178   4.612 -0.1126 -0.0844  0.1550
    1SOL     OW11061   1.000   3.192   4.520 -0.0272  0.2381  0.1921
    1SOL    HW211062   1.022   3.101   4.540 -0.9009  0.1321  0.6564
    1SOL    HW311063   0.915   3.207   4.561 -0.6764  0.7625 -1.3010
    1SOL    MW411064   0.992   3.182   4.528 -0.2282  0.2933  0.0563
    1SOL     OW11065   0.186   2.456   4.500  0.0869 -0.0530 -0.0724
    1SOL    HW211066   0.188   2.548   4.528  1.0722 -0.5425  1.4933
    1SOL    HW311067   0.277   2.429   4.498 -0.3126 -1.5065  1.1421
    1SOL    MW411068   0.198   2.465   4.503  0.1642 -0.3092  0.2942
    1SOL     OW11069   2.006   1.229   4.502  0.1987  0.5654  0.2599
    1SOL    HW211070   1.929   1.184   4.537 -0.3310  1.0542 -0.2563
    1SOL    HW311071   1.998   1.319   4.535  0.2014  0.7840 -0.3234
    1SOL    MW411072   1.995   1.235   4.511  0.1291  0.6588  0.1144
    1SOL     OW11073   0.457   0.851   4.233 -0.2405 -0.4778  0.1608
    1SOL    HW211074   0.541   0.820   4.201 -0.3717 -2.1334  1.3973
    1SOL    HW311075   0.393   0.818   4.169 -0.1745 -1.0004  0.3706
    1SOL    MW411076   0.459   0.843   4.220 -0.2491 -0.7653  0.3519
    1SOL     OW11077   2.233   1.843   4.126  0.4925  0.1236  0.6774
    1SOL    HW211078   2.231   1.873   4.035  2.3069  0.8787  0.8620
    1SOL    HW311079   2.141   1.829   4.148  0.1171 -1.8175 -1.8230
    1SOL    MW411080   2.220   1.845   4.117  0.6824 -0.0329  0.3719
    1SOL     OW11081   3.488   2.374   4.536 -0.3157  0.2392  0.2505
    1SOL    HW211082   3.510   2.435   4.466 -1.8459  0.0874 -0.3801
    1SOL    HW311083   3.564   2.376   4.594  0.3224  1.5239 -0.6027
    1SOL    MW411084   3.501   2.382   4.534 -0.4337  0.3886  0.0544
    1SOL     OW11085   2.276   2.505   4.713 -0.1556 -0.3112 -0.2136
    1SOL    HW211086   2.287   2.498   4.618  0.1879 -0.6213 -0.1492
    1SOL    HW311087   2.365   2.515   4.747 -0.2442 -0.6475  0.1150
    1SOL    MW411088   2.289   2.505   4.705 -0.1221 -0.3965 -0.1616
    1SOL     OW11089   1.156   1.295   4.269 -0.1541 -0.1449 -0.1859
    1SOL    HW211090   1.228   1.243   4.233 -1.3646 -0.9945 -1.4311
    1SOL    HW311091   1.137   1.254   4.354 -0.5379 -1.2149 -0.7826
    1SOL    MW411092   1.163   1.283   4.276 -0.3644 -0.3982 -0.4292
    1SOL     OW11093   3.426   1.596   4.635 -0.2449  0.0662  0.4032
    1SOL    HW211094   3.379   1.518   4.604  0.7863 -0.3565 -0.1171
    1SOL    HW311095   3.390   1.668   4.582  0.1508 -0.3588 -0.4622
    1SOL    MW411096   3.415   1.595   4.624 -0.0570 -0.0457  0.2198
    1SOL     OW11097   1.775   3.977   4.272  0.0993 -0.1660 -0.2154
    1SOL    HW211098   1.791   4.065   4.239  0.0604  0.1047  0.4684
    1SOL    HW311099   1.820   3.975   4.356  2.7578 -1.8342 -1.6229
    1SOL    MW411100   1.783   3.988   4.279  0.4450 -0.3502 -0.3109
    1SOL     OW11101   4.107   0.836   4.244  0.4206 -0.2346  0.0169
    1SOL    HW211102   4.041   0.801   4.185  0.4217 -0.5360  0.1958
    1SOL    HW311103   4.190   0.815   4.203  0.4189 -0.3423  0.0707
    1SOL    MW411104   4.109   0.829   4.231  0.4201 -0.2885  0.0472
    1SOL     OW11105   0.237   0.439   4.192  0.2342  0.1205 -0.1199
    1SOL    HW211106   0.154   0.398   4.167  0.4010  0.1167 -0.6575
    1SOL    HW311107   0.304   0.376   4.165  0.3993 -0.0283  0.6164
    1SOL    MW411108   0.235   0.425   4.185  0.2780  0.1003 -0.0939
    1SOL     OW11109   1.439   3.089   4.489 -0.0498  0.1350  0.5893
    1SOL    HW211110   1.516   3.047   4.529  0.6475  1.2346  0.4332
    1SOL    HW311111   1.447   3.181   4.514 -1.8666  0.0816  1.3856
    1SOL    MW411112   1.450   3.095   4.498 -0.1975  0.2730  0.6738
    1SOL     OW11113   1.529   3.659   4.546  0.2929 -0.4735 -0.4615
    1SOL    HW211114   1.509   3.567   4.564 -0.4463  0.3213  3.3493
    1SOL    HW311115   1.624   3.663   4.541  0.4046 -1.2599  0.7941
    1SOL    MW411116   1.539   3.648   4.548  0.2103 -0.4725  0.2069
    1SOL     OW11117   0.006   3.991   4.209  0.3288 -0.3149 -0.0879
    1SOL    HW211118  -0.080   3.956   4.187  0.0104  0.6039 -0.3415
    1SOL    HW311119   0.003   4.082   4.179  1.0929 -0.0364  0.6605
    1SOL    MW411120  -0.006   3.999   4.202  0.3876 -0.1571 -0.0224
    1SOL     OW11121   0.604   4.582   4.376 -0.4264 -0.1521  0.0927
    1SOL    HW211122   0.645   4.497   4.360  0.2446 -0.0481  1.2323
    1SOL    HW311123   0.579   4.613   4.289 -0.2142 -1.2800 -0.3795
    1SOL    MW411124   0.606   4.575   4.362 -0.3099 -0.2875  0.1802
    1SOL     OW11125   0.713   3.221   4.607  0.0881  0.2978 -0.0669
    1SOL    HW211126   0.712   3.315   4.585 -0.6701  0.4036  0.3825
    1SOL    HW311127   0.621   3.195   4.601  0.4570 -0.7173 -1.4159
    1SOL    MW411128   0.701   3.230   4.604  0.0367  0.1779 -0.1855
    1SOL     OW11129   0.014   0.317   4.108 -0.7765  0.0387 -0.1145
    1SOL    HW211130   0.033   0.336   4.017  0.2398  0.9625  0.2761
    1SOL    HW311131  -0.071   0.356   4.125 -1.7905 -1.6767 -1.1354
    1SOL    MW411132   0.005   0.324   4.098 -0.7761 -0.0658 -0.1979
    1SOL     OW11133   1.313   1.938   4.172  0.1874  0.1417  0.3732
    1SOL    HW211134   1.366   1.997   4.227 -0.9164  1.4286  0.1043
    1SOL    HW311135   1.304   1.858   4.224  2.2071 -0.0187  0.4956
    1SOL    MW411136   1.319   1.935   4.186  0.3082  0.2904  0.3538
    1SOL     OW11137   1.623   3.058   4.106  0.2547 -0.4331 -0.2538
    1SOL    HW211138   1.547   3.086   4.157  0.7703  1.0034 -0.2765
    1SOL    HW311139   1.624   2.963   4.116 -0.7332 -0.3345  0.8823
    1SOL    MW411140   1.613   3.049   4.114  0.1923 -0.2306 -0.1068
    1SOL     OW11141   2.435   3.595   4.238  0.0585 -0.5086  0.3249
    1SOL    HW211142   2.362   3.536   4.219 -1.8007  2.0558 -0.7679
    1SOL    HW311143   2.450   3.585   4.332 -1.5351 -1.2467  0.5249
    1SOL    MW411144   2.427   3.586   4.248 -0.3972 -0.2675  0.2074
    1SOL     OW11145   2.530   2.429   4.258  0.0979 -0.9667  0.2427
    1SOL    HW211146   2.460   2.441   4.323 -0.3733 -0.5071 -0.3468
    1SOL    HW311147   2.487   2.384   4.185  0.2137  0.0931 -0.4851
    1SOL    MW411148   2.515   2.424   4.257  0.0510 -0.7663  0.0691
    1SOL     OW11149   4.483   4.252   4.590  0.3932 -0.6713 -0.5373
    1SOL    HW211150   4.391   4.270   4.572  0.0719 -0.9696  0.7472
    1SOL    HW311151   4.504   4.177   4.533 -0.1244 -0.5334 -0.9140
    1SOL    MW411152   4.474   4.244   4.580  0.2823 -0.6924 -0.4177
    1SOL     OW11153   0.950   2.431   4.198  0.5015  0.0429 -0.0548
    1SOL    HW211154   0.877   2.394   4.147 -0.1363  1.1654  0.0173
    1SOL    HW311155   1.028   2.398   4.155 -0.0292  1.2250 -2.0038
    1SOL    MW411156   0.951   2.422   4.185  0.3474  0.3471 -0.3023
    1SOL     OW11157   1.969   1.875   4.218  0.2772  0.4064 -0.0199
    1SOL    HW211158   1.993   1.875   4.311  1.9778  0.6250 -0.4478
    1SOL    HW311159   1.990   1.963   4.188 -2.5342  1.1227 -0.0769
    1SOL    MW411160   1.975   1.887   4.226  0.1307  0.5296 -0.0834
    1SOL     OW11161   2.418   4.092   4.497  0.0191  0.1839  0.1028
    1SOL    HW211162   2.331   4.054   4.504  0.1753  0.0220  1.4075
    1SOL    HW311163   2.473   4.035   4.551  1.1231 -0.2680 -1.4716
    1SOL    MW411164   2.414   4.079   4.505  0.1853  0.1030  0.0677
    1SOL     OW11165   4.031   1.583   4.502 -0.0435  0.5621  0.1651
    1SOL    HW211166   3.954   1.528   4.492  0.5004 -0.1343 -0.3072
    1SOL    HW311167   4.007   1.647   4.568 -0.7042 -0.2300  0.7075
    1SOL    MW411168   4.018   1.584   4.510 -0.0582  0.3657  0.1740
    1SOL     OW11169   3.894   1.541   4.127  0.4808  0.0844  0.3453
    1SOL    HW211170   3.833   1.578   4.191 -0.5288  1.8323 -1.5211
    1SOL    HW311171   3.976   1.586   4.144  0.2477  0.4570  0.4996
    1SOL    MW411172   3.896   1.552   4.137  0.3169  0.3642  0.1187
    1SOL     OW11173   4.322   1.278   4.263 -0.8259  0.4675  0.1563
    1SOL    HW211174   4.259   1.206   4.254  0.2961 -0.4123 -0.7670
    1SOL    HW311175   4.304   1.314   4.350 -2.5622  0.2003 -0.0697
    1SOL    MW411176   4.312   1.273   4.273 -0.9069  0.3161  0.0043
    1SOL     OW11177   2.124   0.163   4.325  0.0080 -0.2259  0.5222
    1SOL    HW211178   2.194   0.122   4.376  0.2629  1.2477  1.3908
    1SOL    HW311179   2.052   0.172   4.387 -0.0129  0.6914  0.3794
    1SOL    MW411180   2.124   0.159   4.340  0.0389  0.0895  0.6180
    1SOL     OW11181   0.246   1.673   4.474  0.0477  0.1367  0.4850
    1SOL    HW211182   0.241   1.768   4.473  0.7166  0.1586 -1.8985
    1SOL    HW311183   0.299   1.650   4.397  0.3509 -2.1298  1.3207
    1SOL    MW411184   0.253   1.683   4.464  0.1760 -0.1595  0.2809
    1SOL     OW11185   1.320   0.876   4.585 -0.3663 -0.4133 -0.0248
    1SOL    HW211186   1.327   0.895   4.492  2.0231 -1.5506 -0.1046
    1SOL    HW311187   1.373   0.944   4.628 -1.9335  0.4677  0.5813
    1SOL    MW411188   1.328   0.888   4.579 -0.2580 -0.4472  0.0448
    1SOL     OW11189   3.379   1.209   4.285  0.5319 -0.1771 -0.4702
    1SOL    HW211190   3.398   1.297   4.253 -0.2897  0.1362 -0.0848
    1SOL    HW311191   3.303   1.181   4.235  0.1161 -0.2389  0.1946
    1SOL    MW411192   3.372   1.217   4.274  0.3686 -0.1440 -0.3314
    1SOL     OW11193   1.819   0.849   4.215 -0.1234  0.4610 -0.2756
    1SOL    HW211194   1.888   0.788   4.188  0.4993  1.0536 -0.0684
    1SOL    HW311195   1.836   0.864   4.308 -1.3318 -0.3912  0.0877
    1SOL    MW411196   1.831   0.843   4.224 -0.2006  0.4267 -0.2007
    1SOL     OW11197   1.266   1.546   4.495 -0.0545  0.0988 -0.4738
    1SOL    HW211198   1.173   1.568   4.482  0.0657 -0.0174 -1.6465
    1SOL    HW311199   1.302   1.621   4.541 -0.8721 -0.1399  0.5730
    1SOL    MW411200   1.258   1.559   4.499 -0.1466  0.0520 -0.4907
    1SOL     OW11201   1.626   1.683   4.478  0.6911 -0.0730  0.1906
    1SOL    HW211202   1.688   1.753   4.454  1.8883 -1.2212 -0.1554
    1SOL    HW311203   1.640   1.616   4.411 -0.5534 -0.5785  0.4378
    1SOL    MW411204   1.636   1.684   4.466  0.6849 -0.2911  0.1774
    1SOL     OW11205   3.176   2.041   4.271  0.1373  0.0438  0.0771
    1SOL    HW211206   3.118   2.111   4.241 -1.1308 -0.1141  2.0688
    1SOL    HW311207   3.260   2.084   4.287 -0.0667  0.7180 -0.6715
    1SOL    MW411208   3.179   2.056   4.269 -0.0572  0.1118  0.2408
    1SOL     OW11209   1.961   3.425   4.602 -0.3018  0.1942  0.2462
    1SOL    HW211210   1.939   3.336   4.576  1.6713 -0.7643  1.7206
    1SOL    HW311211   1.880   3.474   4.592 -1.6110 -1.9343  0.1469
    1SOL    MW411212   1.947   3.420   4.597 -0.2142 -0.2131  0.4272
    1SOL     OW11213   1.777   2.335   4.302  0.1032 -0.6693 -0.3145
    1SOL    HW211214   1.822   2.267   4.352 -0.0893 -0.1423  0.5927
    1SOL    HW311215   1.780   2.412   4.359 -3.5196 -1.0869  0.5555
    1SOL    MW411216   1.783   2.336   4.316 -0.4002 -0.6549 -0.0806
    1SOL     OW11217   3.822   1.392   4.482  0.3262 -0.2761 -0.8043
    1SOL    HW211218   3.837   1.352   4.397 -1.4673  0.2741 -1.3831
    1SOL    HW311219   3.803   1.319   4.541 -0.1894 -0.5076 -1.2619
    1SOL    MW411220   3.822   1.377   4.479  0.0217 -0.2341 -0.9408
    1SOL     OW11221   0.550   4.001   4.667  0.3678  0.5039  0.1771
    1SOL    HW211222   0.616   3.969   4.607 -0.8487  0.4437 -1.1485
    1SOL    HW311223   0.469   3.960   4.638 -0.7128  2.5492  0.2142
    1SOL    MW411224   0.548   3.992   4.656  0.0647  0.7658  0.0076
    1SOL     OW11225   2.875   2.530   4.516  0.3772 -0.1490  0.2725
    1SOL    HW211226   2.844   2.466   4.581 -0.6616 -0.6026 -0.6561
    1SOL    HW311227   2.860   2.488   4.432  1.1749  0.6825 -0.2944
    1SOL    MW411228   2.869   2.516   4.513  0.3455 -0.0992  0.0749
    1SOL     OW11229   2.893   3.062   4.176  0.0016  0.0408 -0.4325
    1SOL    HW211230   2.899   3.079   4.082 -0.5685 -0.1077 -0.4977
    1SOL    HW311231   2.969   3.107   4.214  0.2321  0.0983 -0.9621
    1SOL    MW411232   2.904   3.070   4.169 -0.0432  0.0288 -0.5107
    1SOL     OW11233   1.492   2.771   4.438  0.3026  0.2670  0.3682
    1SOL    HW211234   1.405   2.797   4.470  1.0099  0.7387  1.9699
    1SOL    HW311235   1.553   2.827   4.486  1.3529  2.2223 -3.1191
    1SOL    MW411236   1.488   2.781   4.449  0.5345  0.5872  0.1197
    1SOL     OW11237   1.102   0.542   4.556 -0.2235  0.3746  0.0116
    1SOL    HW211238   1.071   0.545   4.465 -0.3933  0.5861  0.0755
    1SOL    HW311239   1.027   0.572   4.607 -0.0208  0.5671  0.1969
    1SOL    MW411240   1.088   0.546   4.550 -0.2191  0.4279  0.0443
    1SOL     OW11241   1.344   1.298   4.603  0.1601 -0.8008 -0.0601
    1SOL    HW211242   1.260   1.256   4.616 -0.3497  0.4512  0.8150
    1SOL    HW311243   1.323   1.382   4.562  0.8273  0.1744  1.5158
    1SOL    MW411244   1.330   1.304   4.599  0.1808 -0.5070  0.2632
    1SOL     OW11245   0.221   2.736   4.503  0.6027 -0.3535 -0.4688
    1SOL    HW211246   0.234   2.750   4.410  1.5059  0.4737 -0.2225
    1SOL    HW311247   0.131   2.765   4.519  1.5313  2.7611 -0.4680
    1SOL    MW411248   0.210   2.742   4.493  0.8444  0.1662 -0.4363
    1SOL     OW11249   3.396   1.799   4.429  0.2733 -0.2299  1.0844
    1SOL    HW211250   3.477   1.843   4.455  0.6226  0.4242 -1.0114
    1SOL    HW311251   3.327   1.844   4.478  0.8240  1.4649  0.3452
    1SOL    MW411252   3.398   1.811   4.439  0.3917  0.0800  0.7105
    1SOL     OW11253   3.832   4.433   4.458  0.3272  0.1394  0.0737
    1SOL    HW211254   3.851   4.511   4.510  1.2889  0.1054 -0.2158
    1SOL    HW311255   3.836   4.361   4.521 -0.4136  0.3070  0.3128
    1SOL    MW411256   3.835   4.434   4.474  0.3562  0.1574  0.0668
    1SOL     OW11257   3.395   3.002   4.577 -0.0911 -0.1875  0.1465
    1SOL    HW211258   3.488   2.996   4.554  0.1217  0.4707  0.7808
    1SOL    HW311259   3.394   2.994   4.673 -0.5461  1.1356  0.2702
    1SOL    MW411260   3.407   3.000   4.587 -0.1233  0.0741  0.2470
    1SOL     OW11261   4.260   3.727   4.491 -0.6314  0.2498  0.3378
    1SOL    HW211262   4.321   3.681   4.548  0.0095  2.0406  1.1506
    1SOL    HW311263   4.267   3.819   4.518 -2.9331  0.6247 -0.2476
    1SOL    MW411264   4.269   3.733   4.502 -0.8502  0.5357  0.3681
    1SOL     OW11265   3.166   0.372   4.134 -0.0801  0.1485 -0.1841
    1SOL    HW211266   3.092   0.400   4.187 -0.3483  1.2322 -1.1098
    1SOL    HW311267   3.243   0.403   4.182 -0.3441  1.7606 -0.7761
    1SOL    MW411268   3.166   0.380   4.147 -0.1504  0.5042 -0.3848
    1SOL     OW11269   0.261   3.013   4.125 -0.3739  0.1827  0.3937
    1SOL    HW211270   0.338   3.056   4.162 -0.2989  0.1332  0.2950
    1SOL    HW311271   0.187   3.067   4.153 -0.2870  0.3262  0.3449
    1SOL    MW411272   0.261   3.026   4.133 -0.3526  0.1950  0.3743
    1SOL     OW11273   1.529   1.128   4.501 -0.0653 -0.0708 -0.0019
    1SOL    HW211274   1.563   1.163   4.419 -0.3542  1.0256  0.3302
    1SOL    HW311275   1.462   1.192   4.528  0.4660 -0.0920  1.4046
    1SOL    MW411276   1.524   1.141   4.494 -0.0334  0.0710  0.2279
    1SOL     OW11277   2.229   3.448   4.110  0.0076 -0.0203  0.0881
    1SOL    HW211278   2.207   3.355   4.110 -2.0078  0.4244 -2.3946
    1SOL    HW311279   2.164   3.489   4.167 -0.5003  0.1632 -0.6167
    1SOL    MW411280   2.218   3.442   4.118 -0.3254  0.0627 -0.3324
    1SOL     OW11281   3.839   0.662   4.526  0.1150  0.2893 -0.0861
    1SOL    HW211282   3.913   0.714   4.495 -1.1739  1.3587 -1.4584
    1SOL    HW311283   3.769   0.726   4.542 -0.4979 -0.6856  1.2826
    1SOL    MW411284   3.839   0.677   4.524 -0.1357  0.3018 -0.0868
    1SOL     OW11285   2.243   0.847   4.230 -0.5641 -0.3369 -0.3630
    1SOL    HW211286   2.246   0.927   4.178 -0.0094  1.1469  1.8927
    1SOL    HW311287   2.326   0.803   4.212 -0.1598  0.4168 -0.3417
    1SOL    MW411288   2.254   0.852   4.220 -0.4375 -0.0417 -0.0629
    1SOL     OW11289   4.290   3.203   4.633  0.2451  0.2223 -0.3890
    1SOL    HW211290   4.267   3.119   4.672 -1.5864  1.1201  0.5187
    1SOL    HW311291   4.329   3.180   4.548 -0.0027 -1.5418 -0.0368
    1SOL    MW411292   4.292   3.189   4.627 -0.0286  0.1078 -0.2232
    1SOL     OW11293   2.252   0.361   4.193 -0.4649  0.7131  0.1233
    1SOL    HW211294   2.249   0.340   4.100 -0.3717  0.0204  0.2709
    1SOL    HW311295   2.205   0.289   4.235  1.4670 -0.1748  0.7951
    1SOL    MW411296   2.245   0.349   4.186 -0.1976  0.5046  0.2317
    1SOL     OW11297   3.633   0.904   4.260  0.3621  0.4792 -0.4766
    1SOL    HW211298   3.561   0.852   4.225 -0.3542  1.1474 -0.0070
    1SOL    HW311299   3.624   0.989   4.218  1.4036  0.3060 -1.0766
    1SOL    MW411300   3.622   0.908   4.250  0.4053  0.5445 -0.4940
    1SOL     OW11301   0.198   3.278   4.621  0.7107 -0.1192  0.3372
    1SOL    HW211302   0.173   3.297   4.711 -0.3311  1.0521 -0.1853
    1SOL    HW311303   0.207   3.364   4.580  1.9460 -0.6227 -0.4750
    1SOL    MW411304   0.196   3.292   4.627  0.7362 -0.0312  0.1616
    1SOL     OW11305   2.487   1.728   4.504  0.3862  0.6699 -0.3443
    1SOL    HW211306   2.438   1.809   4.519  1.1834  1.0904  0.0357
    1SOL    HW311307   2.435   1.660   4.546 -0.7200  0.8469 -1.3952
    1SOL    MW411308   2.474   1.730   4.511  0.3455  0.7486 -0.4330
    1SOL     OW11309   0.934   1.631   4.202 -0.0231  0.0445  0.2140
    1SOL    HW211310   0.849   1.591   4.185  0.6697 -0.7351 -1.6171
    1SOL    HW311311   0.921   1.724   4.181 -0.8598  0.2574  1.6270
    1SOL    MW411312   0.921   1.638   4.197 -0.0421 -0.0302  0.1588
    1SOL     OW11313   3.496   1.831   4.163  0.6454  0.4279 -0.0918
    1SOL    HW211314   3.428   1.830   4.231  1.4885  1.0832  0.7872
    1SOL    HW311315   3.568   1.780   4.200  0.2521 -1.1464 -1.4477
    1SOL    MW411316   3.497   1.824   4.177  0.7045  0.3066 -0.1545
    1SOL     OW11317   3.351   2.813   4.160  0.0883 -0.3345 -0.4942
    1SOL    HW211318   3.280   2.767   4.116 -0.9361  1.4355 -0.7652
    1SOL    HW311319   3.333   2.803   4.253 -1.0536  0.8455 -0.5627
    1SOL    MW411320   3.339   2.806   4.166 -0.1976  0.0548 -0.5388
    1SOL     OW11321   4.228   2.696   4.704  0.6728 -0.2657  0.1809
    1SOL    HW211322   4.143   2.690   4.660  1.8626 -1.6818 -2.0578
    1SOL    HW311323   4.240   2.610   4.744  1.2935 -0.2738 -0.0178
    1SOL    MW411324   4.218   2.684   4.703  0.9117 -0.4537 -0.1402
    1SOL     OW11325   0.407   0.101   4.668  0.1764 -0.1907 -0.1241
    1SOL    HW211326   0.383   0.010   4.681  0.9096 -0.6595 -1.8685
    1SOL    HW311327   0.491   0.111   4.713  0.8558 -0.8032 -1.2279
    1SOL    MW411328   0.415   0.090   4.676  0.3627 -0.3333 -0.4997
    1SOL     OW11329   1.529   4.350   4.235  0.3920  0.1392  0.1561
    1SOL    HW211330   1.601   4.289   4.219 -0.0936 -0.5421  0.5513
    1SOL    HW311331   1.455   4.311   4.189  0.0179  0.3092  0.6139
    1SOL    MW411332   1.529   4.336   4.227  0.2786  0.0715  0.2685
    1SOL     OW11333   3.091   1.794   4.166  0.1200  0.0267  0.2743
    1SOL    HW211334   3.012   1.766   4.212  0.3740 -0.3264  0.4922
    1SOL    HW311335   3.121   1.872   4.214 -0.7928  0.9075 -0.5580
    1SOL    MW411336   3.085   1.801   4.178  0.0331  0.0964  0.1926
    1SOL     OW11337   3.620   1.158   4.143 -0.2244 -0.1231  0.3008
    1SOL    HW211338   3.591   1.146   4.053  0.3718 -0.7453  0.1938
    1SOL    HW311339   3.539   1.177   4.192 -0.3404  2.1411 -0.6830
    1SOL    MW411340   3.605   1.159   4.138 -0.1609  0.0933  0.1574
    1SOL     OW11341   1.781   0.373   4.146 -0.4856  0.2285 -0.1229
    1SOL    HW211342   1.705   0.422   4.178 -0.1030  0.8273 -0.1204
    1SOL    HW311343   1.755   0.281   4.154 -0.2517  0.3248  2.2998
    1SOL    MW411344   1.768   0.368   4.151 -0.4042  0.3202  0.1965
    1SOL     OW11345   3.372   4.382   4.257 -0.6160 -0.0208 -0.0526
    1SOL    HW211346   3.429   4.382   4.333 -1.7811 -0.4425  0.8456
    1SOL    HW311347   3.362   4.474   4.233  1.4276 -0.0299 -0.9887
    1SOL    MW411348   3.378   4.394   4.264 -0.5002 -0.0772 -0.0577
    1SOL     OW11349   2.500   0.516   4.248 -0.0927 -0.1460  0.0512
    1SOL    HW211350   2.487   0.600   4.204 -0.3396  0.0107  0.4312
    1SOL    HW311351   2.423   0.464   4.224 -0.4172  0.0734  0.6169
    1SOL    MW411352   2.488   0.520   4.239 -0.1678 -0.0964  0.1760
    1SOL     OW11353   2.663   2.680   4.216  0.4731 -0.3040  0.1366
    1SOL    HW211354   2.596   2.748   4.224  1.1171  0.2764  0.7505
    1SOL    HW311355   2.617   2.598   4.236 -0.1872  0.0132 -0.0603
    1SOL    MW411356   2.648   2.678   4.220  0.4706 -0.1855  0.1922
    1SOL     OW11357   2.439   1.238   4.244 -0.3037 -0.4099 -0.1718
    1SOL    HW211358   2.528   1.203   4.233 -0.0769 -0.0493  0.4665
    1SOL    HW311359   2.439   1.319   4.193  0.5787  0.9795  1.9662
    1SOL    MW411360   2.451   1.244   4.236 -0.1571 -0.1789  0.1950
    1SOL     OW11361   3.102   3.437   4.141  0.3569 -0.2536 -0.2267
    1SOL    HW211362   3.103   3.442   4.046  0.2147  0.0922 -0.2134
    1SOL    HW311363   3.037   3.502   4.168  0.2731 -0.4706  0.0979
    1SOL    MW411364   3.094   3.447   4.132  0.3271 -0.2365 -0.1826
    1SOL     OW11365   3.573   4.113   4.525  0.5904  0.2560 -0.1721
    1SOL    HW211366   3.559   4.068   4.442 -1.0947 -0.1720  0.3237
    1SOL    HW311367   3.548   4.204   4.507 -0.0184  0.1086 -0.0583
    1SOL    MW411368   3.568   4.119   4.511  0.2878  0.1802 -0.0925
    1SOL     OW11369   3.873   1.273   4.233  0.0578 -0.2794  0.1085
    1SOL    HW211370   3.889   1.350   4.178 -0.2030 -0.4560 -0.2085
    1SOL    HW311371   3.805   1.223   4.187 -0.2661 -0.3485  0.6634
    1SOL    MW411372   3.866   1.277   4.220 -0.0191 -0.3117  0.1397
    1SOL     OW11373   3.222   1.615   4.312 -0.0499 -0.3179 -0.0309
    1SOL    HW211374   3.301   1.660   4.341 -0.3867 -0.1248  0.5843
    1SOL    HW311375   3.182   1.675   4.250 -1.7514  1.2878  2.5809
    1SOL    MW411376   3.227   1.629   4.307 -0.3190 -0.0806  0.3948
    1SOL     OW11377   3.724   4.411   4.790  0.5928  0.2118  0.4563
    1SOL    HW211378   3.799   4.470   4.802  1.0478 -0.3320  0.3048
    1SOL    HW311379   3.650   4.470   4.773  1.0611  0.7361  0.2012
    1SOL    MW411380   3.724   4.427   4.790  0.7145  0.2093  0.4025
    1SOL     OW11381   2.848   1.724   4.280 -0.1123  0.0687  0.3311
    1SOL    HW211382   2.792   1.791   4.240 -1.1131 -0.4330  0.8730
    1SOL    HW311383   2.836   1.738   4.374 -1.1666 -1.5752  0.4475
    1SOL    MW411384   2.839   1.735   4.287 -0.3836 -0.2145  0.4177
    1SOL     OW11385   4.294   0.479   4.185  0.0606  0.2828 -0.1009
    1SOL    HW211386   4.292   0.572   4.161  0.2453  0.0559 -1.0363
    1SOL    HW311387   4.209   0.446   4.155 -0.0554  0.1777  0.3480
    1SOL    MW411388   4.283   0.487   4.178  0.0696  0.2390 -0.1655
    1SOL     OW11389   4.184   0.404   4.542  0.3965 -0.2664 -0.2217
    1SOL    HW211390   4.097   0.422   4.578  0.6176 -1.6391  1.0807
    1SOL    HW311391   4.237   0.479   4.567 -0.2260  0.2210 -0.3607
    1SOL    MW411392   4.179   0.416   4.550  0.3438 -0.3832 -0.0687
    1SOL     OW11393   2.121   3.181   4.131 -0.0182  0.1604 -1.0277
    1SOL    HW211394   2.137   3.088   4.145 -1.4317 -0.0360 -0.6627
    1SOL    HW311395   2.054   3.204   4.195  1.7237  1.8880  0.2433
    1SOL    MW411396   2.114   3.172   4.141  0.0253  0.3626 -0.8121
    1SOL     OW11397   0.805   0.779   4.941  0.1558  0.3263  1.0281
    1SOL    HW211398   0.774   0.855   4.890  0.4099 -0.5654 -0.4812
    1SOL    HW311399   0.783   0.801   5.032 -2.3476  0.9498  0.3036
    1SOL    MW411400   0.798   0.792   4.946 -0.1410  0.2909  0.7334
    1SOL     OW11401   0.760   1.528   4.624  0.0448  0.3496  0.4759
    1SOL    HW211402   0.777   1.437   4.647  0.2879  0.2001 -0.2897
    1SOL    HW311403   0.666   1.531   4.607  0.0077  0.2814  0.6622
    1SOL    MW411404   0.750   1.517   4.625  0.0720  0.3207  0.3991
    1SOL     OW11405   3.254   0.675   4.662  0.4724  0.1405 -0.4003
    1SOL    HW211406   3.185   0.739   4.644  0.4750  0.0770 -0.6328
    1SOL    HW311407   3.334   0.728   4.669  0.2271  0.3491  1.0250
    1SOL    MW411408   3.256   0.691   4.661  0.4406  0.1596 -0.2432
    1SOL     OW11409   3.396   0.744   4.185  0.1195 -0.0177  0.1340
    1SOL    HW211410   3.386   0.658   4.225 -1.4778 -1.1021 -2.4609
    1SOL    HW311411   3.318   0.792   4.213 -0.9551 -0.7474 -1.5780
    1SOL    MW411412   3.384   0.739   4.194 -0.2332 -0.2571 -0.4344
    1SOL     OW11413   4.269   1.139   4.575  0.2170 -0.2861  0.3655
    1SOL    HW211414   4.294   1.231   4.562  1.4178 -0.4844  1.1972
    1SOL    HW311415   4.193   1.143   4.632 -0.3146  0.2247 -0.3532
    1SOL    MW411416   4.263   1.152   4.581  0.3057 -0.2449  0.3805
    1SOL     OW11417   2.465   2.315   3.830  0.0987 -0.4215 -0.5811
    1SOL    HW211418   2.441   2.305   3.922  2.5490 -0.1563  0.1130
    1SOL    HW311419   2.464   2.226   3.795 -2.5232 -0.3566 -0.7736
    1SOL    MW411420   2.461   2.302   3.837  0.0761 -0.3777 -0.5147
    1SOL     OW11421   2.207   4.493   4.553 -0.5168  0.0585 -0.0546
    1SOL    HW211422   2.152   4.555   4.601  0.0866  1.8626 -1.6423
    1SOL    HW311423   2.147   4.423   4.528 -1.6659  1.0005 -0.0015
    1SOL    MW411424   2.191   4.492   4.556 -0.5887  0.4210 -0.2575
    1SOL     OW11425   3.492   1.220   4.721  0.5278  0.1868  0.3955
    1SOL    HW211426   3.485   1.256   4.809  1.3846 -2.3315  1.5052
    1SOL    HW311427   3.434   1.276   4.668 -0.9423  0.9681  2.7624
    1SOL    MW411428   3.483   1.232   4.725  0.4470 -0.0424  0.8540
    1SOL     OW11429   3.180   0.128   4.261 -0.1770  0.3016 -0.3526
    1SOL    HW211430   3.180   0.209   4.209  0.8897  1.1939  0.9995
    1SOL    HW311431   3.157   0.157   4.349  1.3132 -0.7214  0.3764
    1SOL    MW411432   3.177   0.143   4.266  0.1602  0.2844 -0.0777
    1SOL     OW11433   2.663   3.476   4.109  0.1484 -0.0413 -0.2751
    1SOL    HW211434   2.724   3.531   4.157  0.3725 -1.0784  0.6282
    1SOL    HW311435   2.576   3.506   4.136  0.2724 -0.1240  0.2093
    1SOL    MW411436   2.660   3.487   4.119  0.1943 -0.1891 -0.0916
    1SOL     OW11437   1.121   3.849   4.177 -0.4422 -0.1071 -0.0736
    1SOL    HW211438   1.190   3.896   4.223 -0.7060  1.2866 -1.0757
    1SOL    HW311439   1.132   3.758   4.204  0.3867  0.4477  1.5032
    1SOL    MW411440   1.131   3.843   4.186 -0.3676  0.1497  0.0024
    1SOL     OW11441   0.325   0.641   4.548 -0.3127 -0.3129 -0.3875
    1SOL    HW211442   0.271   0.562   4.541 -0.6614 -0.2271  1.1881
    1SOL    HW311443   0.300   0.680   4.631  0.0260  1.3481 -1.0459
    1SOL    MW411444   0.315   0.635   4.558 -0.3140 -0.0824 -0.2666
    1SOL     OW11445   0.646   2.080   4.188  0.1089  0.2438  0.1885
    1SOL    HW211446   0.706   2.010   4.163  2.7100  1.6198  2.3103
    1SOL    HW311447   0.677   2.157   4.139 -1.7560  0.3073 -0.9263
    1SOL    MW411448   0.658   2.081   4.178  0.2060  0.4337  0.3209
    1SOL     OW11449   0.476   2.641   4.146  0.3528 -0.3753 -0.1135
    1SOL    HW211450   0.469   2.666   4.054  0.5205 -0.7874 -0.2408
    1SOL    HW311451   0.403   2.686   4.189  0.4919  0.1037 -0.3851
    1SOL    MW411452   0.465   2.650   4.140  0.3933 -0.3664 -0.1664
    1SOL     OW11453   1.360   2.373   4.266 -0.2854  0.1057  0.0892
    1SOL    HW211454   1.428   2.330   4.215 -2.0330 -0.5835 -1.6851
    1SOL    HW311455   1.365   2.465   4.240  1.0368  0.3599  1.1889
    1SOL    MW411456   1.370   2.380   4.256 -0.3415  0.0484  0.0000
    1SOL     OW11457   3.353   2.757   4.434 -0.1110  0.0043 -0.0877
    1SOL    HW211458   3.375   2.841   4.474  0.1932 -0.4137  0.6322
    1SOL    HW311459   3.289   2.718   4.493  0.9439 -0.9733  0.4341
    1SOL    MW411460   3.348   2.763   4.447  0.0682 -0.1798  0.0763
    1SOL     OW11461   2.702   0.836   4.232 -0.3350  0.1836  0.0172
    1SOL    HW211462   2.788   0.802   4.205 -1.0088 -1.2539 -0.3653
    1SOL    HW311463   2.700   0.823   4.327 -0.3633 -0.3569 -0.0527
    1SOL    MW411464   2.713   0.830   4.241 -0.4275 -0.0774 -0.0420
    1SOL     OW11465   0.002   4.657   4.470 -0.5262  0.5770  0.4000
    1SOL    HW211466   0.046   4.731   4.512  1.1436  0.2984 -0.7699
    1SOL    HW311467   0.002   4.680   4.377 -0.0299 -0.8595  0.0355
    1SOL    MW411468   0.008   4.670   4.463 -0.2404  0.3505  0.1974
    1SOL     OW11469   0.054   3.097   4.473 -0.0928 -0.2522  0.2789
    1SOL    HW211470   0.026   3.021   4.524  0.3135 -1.5710 -1.4472
    1SOL    HW311471   0.091   3.157   4.538 -1.2443 -1.1236  1.7651
    1SOL    MW411472   0.055   3.095   4.488 -0.1917 -0.5412  0.2475
    1SOL     OW11473   3.151   3.150   4.539  0.0021  0.7839  0.0829
    1SOL    HW211474   3.240   3.117   4.546  0.0837  1.3453  1.8993
    1SOL    HW311475   3.096   3.072   4.534  0.6153  0.4393 -1.6167
    1SOL    MW411476   3.155   3.136   4.539  0.0937  0.8123  0.0973
    1SOL     OW11477   1.572   1.348   4.771  0.1479 -0.0066  0.1748
    1SOL    HW211478   1.489   1.352   4.724 -0.9658  1.4370  2.1707
    1SOL    HW311479   1.599   1.257   4.764 -1.8468 -0.6103 -0.1090
    1SOL    MW411480   1.565   1.337   4.764 -0.2621  0.1041  0.4010
    1SOL     OW11481   1.782   1.082   4.605 -0.0334  0.3279  0.0941
    1SOL    HW211482   1.698   1.089   4.559 -0.1644  1.2009  0.4721
    1SOL    HW311483   1.804   0.989   4.598 -1.3816 -0.0439  0.6020
    1SOL    MW411484   1.774   1.070   4.598 -0.2285  0.3941  0.2117
    1SOL     OW11485   4.043   1.976   4.164 -0.1920 -0.3927  0.3842
    1SOL    HW211486   3.952   1.998   4.183 -0.4679 -1.5628  0.4626
    1SOL    HW311487   4.050   1.883   4.185  0.9348 -0.3884  0.0572
    1SOL    MW411488   4.032   1.966   4.169 -0.0796 -0.5463  0.3519
    1SOL     OW11489   2.938   0.015   4.180  0.1861 -0.1061 -0.1326
    1SOL    HW211490   3.021   0.047   4.214 -0.2148  0.9517 -0.1439
    1SOL    HW311491   2.933  -0.076   4.211  0.9679  0.0746  0.5458
    1SOL    MW411492   2.948   0.007   4.189  0.2363  0.0573 -0.0443
    1SOL     OW11493   0.668   0.424   4.732  0.1455  0.0536 -0.4166
    1SOL    HW211494   0.618   0.445   4.812  0.4017 -0.5749 -0.0881
    1SOL    HW311495   0.687   0.331   4.740 -0.9119 -0.2924 -1.8238
    1SOL    MW411496   0.664   0.414   4.744  0.0399 -0.0750 -0.5589
    1SOL     OW11497   1.563   4.370   4.509  1.2552  0.2400  0.3769
    1SOL    HW211498   1.551   4.358   4.415  1.9338  0.1990  0.2915
    1SOL    HW311499   1.484   4.333   4.548  1.1603 -0.1308 -0.1543
    1SOL    MW411500   1.551   4.363   4.502  1.3323  0.1860  0.2956
    1SOL     OW11501   3.655   1.888   4.510  0.5285  0.3487 -0.0595
    1SOL    HW211502   3.671   1.926   4.596  0.4746  1.2652 -0.4457
    1SOL    HW311503   3.692   1.800   4.515  1.8807  0.9386  0.4040
    1SOL    MW411504   3.662   1.882   4.522  0.6995  0.5474 -0.0491
    1SOL     OW11505   4.241   2.391   4.791  0.2240 -0.3460  0.2148
    1SOL    HW211506   4.259   2.375   4.884  0.2268 -0.4374  0.1983
    1SOL    HW311507   4.318   2.358   4.745  0.8607  1.0171  0.2753
    1SOL    MW411508   4.253   2.384   4.798  0.3085 -0.1786  0.2203
    1SOL     OW11509   2.892   3.598   4.509 -0.2071  0.3400  0.2104
    1SOL    HW211510   2.818   3.537   4.516  0.0510 -0.1875 -1.4313
    1SOL    HW311511   2.959   3.560   4.566 -0.2448 -0.6395 -0.3806
    1SOL    MW411512   2.891   3.585   4.517 -0.1779  0.1409 -0.0839
    1SOL     OW11513   1.307   3.803   4.645  0.1527 -0.0410 -0.6957
    1SOL    HW211514   1.312   3.801   4.741 -0.9759 -0.2430 -0.6439
    1SOL    HW311515   1.387   3.758   4.617  0.9489  0.8042  0.1294
    1SOL    MW411516   1.318   3.797   4.654  0.1088  0.0439 -0.5798
    1SOL     OW11517   1.776   3.451   4.195 -0.1486 -0.2674 -0.1344
    1SOL    HW211518   1.767   3.478   4.104  0.2601  1.2203  0.2358
    1SOL    HW311519   1.701   3.492   4.239  0.0813 -0.3270  0.3194
    1SOL    MW411520   1.765   3.460   4.189 -0.0644 -0.0789 -0.0257
    1SOL     OW11521   1.761   1.535   4.685  0.0857 -0.7394  0.4238
    1SOL    HW211522   1.690   1.481   4.719 -0.1534 -1.2983 -0.9110
    1SOL    HW311523   1.721   1.585   4.613  1.2412 -1.7286 -0.9288
    1SOL    MW411524   1.746   1.535   4.680  0.2066 -0.9437  0.0691
    1SOL     OW11525   2.197   2.218   4.661 -0.2031 -0.0287  0.2367
    1SOL    HW211526   2.170   2.235   4.571  0.2047  0.7372  0.2595
    1SOL    HW311527   2.237   2.300   4.690  0.0552 -0.4140  0.9704
    1SOL    MW411528   2.198   2.231   4.653 -0.1152  0.0215  0.3362
    1SOL     OW11529   0.885   3.457   4.153  0.2433 -0.2542  0.1169
    1SOL    HW211530   0.914   3.372   4.186 -0.7345 -0.6451 -0.0067
    1SOL    HW311531   0.903   3.453   4.059 -0.9418 -0.8181 -0.0992
    1SOL    MW411532   0.891   3.445   4.145 -0.0420 -0.3803  0.0715
    1SOL     OW11533   4.469   1.618   4.197 -0.2646 -0.6634  0.2037
    1SOL    HW211534   4.471   1.626   4.292 -2.2305  1.6388  0.0765
    1SOL    HW311535   4.392   1.564   4.179 -0.5025 -0.2065 -0.1448
    1SOL    MW411536   4.460   1.612   4.207 -0.5550 -0.2995  0.1407
    1SOL     OW11537   4.056   3.324   4.535  0.1865  0.5366 -0.8938
    1SOL    HW211538   4.047   3.284   4.448 -0.6150 -0.4676 -0.3592
    1SOL    HW311539   4.141   3.293   4.566 -0.8789 -1.6888 -0.0448
    1SOL    MW411540   4.066   3.315   4.527 -0.0601  0.1101 -0.7114
    1SOL     OW11541   3.214   2.484   4.253 -0.5112 -0.1219 -0.4059
    1SOL    HW211542   3.229   2.449   4.341 -0.1879  0.3736 -0.2637
    1SOL    HW311543   3.155   2.420   4.212 -0.9322 -0.1880  0.2859
    1SOL    MW411544   3.208   2.471   4.259 -0.5240 -0.0653 -0.2966
    1SOL     OW11545   4.474   4.257   4.155 -0.2623 -0.3329 -0.0071
    1SOL    HW211546   4.398   4.310   4.181  0.9087  1.1875  0.3889
    1SOL    HW311547   4.455   4.232   4.065 -1.3972 -0.2627  0.1970
    1SOL    MW411548   4.461   4.261   4.147 -0.2575 -0.1225  0.0720
    1SOL     OW11549   1.945   2.450   4.114 -0.3424 -0.2264  0.1591
    1SOL    HW211550   1.889   2.400   4.174 -0.4733 -0.5005 -0.1819
    1SOL    HW311551   2.032   2.443   4.151 -0.4058 -0.4790  0.2654
    1SOL    MW411552   1.949   2.442   4.126 -0.3681 -0.2956  0.1283
    1SOL     OW11553   0.908   0.361   4.187 -0.2028  0.2740  0.1297
    1SOL    HW211554   0.979   0.424   4.197  0.2442 -0.1254 -0.4854
    1SOL    HW311555   0.830   0.408   4.215  0.2616  0.8087  0.5333
    1SOL    MW411556   0.907   0.376   4.192 -0.0826  0.2919  0.1016
    1NA      NA11557   3.113   3.960   0.473  0.0648 -0.0601  0.1776
    1NA      NA11558   0.910   2.493   0.672 -0.0281 -0.3163 -0.1088
   4.49070   4.66690  10.00000
