Gromacs Runs On Most of All Computer Systems in water
11584
    1RU5    O5'    1   1.711   1.972   4.492  0.0527  0.4435  0.1440
    1RU5    H5T    2   1.628   1.995   4.536 -0.8230  1.4221 -1.9381
    1RU5    C5'    3   1.804   2.074   4.512  0.2194  0.8998 -0.2228
    1RU5   H5'1    4   1.817   2.094   4.618 -1.9804 -0.3690  0.3327
    1RU5   H5'2    5   1.761   2.161   4.462 -0.0456  1.4859  0.9980
    1RU5    C4'    6   1.947   2.038   4.464  0.2117  0.4382 -0.2405
    1RU5    H4'    7   2.007   2.128   4.459  1.6524 -0.4912 -0.0814
    1RU5    O4'    8   2.015   1.952   4.554  0.3153 -0.2969  0.3947
    1RU5    C1'    9   2.105   1.878   4.469 -0.2868 -0.4973 -0.6799
    1RU5    H1'   10   2.206   1.894   4.506 -0.5643 -1.6457  0.6042
    1RU5     N1   11   2.081   1.730   4.484  0.4508  0.2704  0.2070
    1RU5     C6   12   1.993   1.687   4.581 -0.0768  0.2060 -0.0864
    1RU5     H6   13   1.920   1.757   4.620 -0.1929 -0.3734  0.7456
    1RU5     C5   14   1.984   1.556   4.618  0.4369 -0.0630  0.2531
    1RU5     H5   15   1.907   1.515   4.681 -0.2014  0.1231 -0.3982
    1RU5     C4   16   2.067   1.457   4.552 -0.6416 -0.9973  0.3822
    1RU5     O4   17   2.047   1.339   4.562  0.0579  0.3509  0.1543
    1RU5     N3   18   2.163   1.507   4.469  0.4499  0.2556  0.2334
    1RU5     H3   19   2.233   1.448   4.426  0.7811  1.8738 -1.4755
    1RU5     C2   20   2.168   1.635   4.424 -0.2560 -0.2320  0.7979
    1RU5     O2   21   2.261   1.668   4.348  0.1600  0.0390 -0.2482
    1RU5    C3'   22   1.961   1.979   4.319  0.5226 -0.1570  0.3975
    1RU5    H3'   23   1.894   1.895   4.305  0.1776  0.0140  1.0047
    1RU5    C2'   24   2.106   1.930   4.325 -0.1699  0.0227  0.0803
    1RU5   H2'1   25   2.131   1.853   4.252 -1.9258  0.5485 -1.1065
    1RU5    O2'   26   2.189   2.047   4.311  0.0652  0.1564  0.6494
    1RU5   HO'2   27   2.130   2.122   4.301 -0.5168 -0.2818  0.7795
    1RU5    O3'   28   1.941   2.075   4.215 -0.0318  0.2171 -0.3877
    2RG3      P   29   1.918   2.037   4.066 -0.1463 -0.1279  0.1513
    2RG3    O1P   30   1.923   2.149   3.977  0.2239  0.1209 -0.3463
    2RG3    O2P   31   1.788   1.965   4.063  0.3502 -0.4841 -0.0322
    2RG3    O5'   32   2.033   1.937   4.019  0.2130 -0.2542 -0.0692
    2RG3    C5'   33   2.164   1.979   3.989 -0.0919  0.2065  0.5614
    2RG3   H5'1   34   2.204   2.025   4.079 -1.0808 -1.6904  1.9786
    2RG3   H5'2   35   2.164   2.064   3.920  1.5536 -0.0077  0.2666
    2RG3    C4'   36   2.265   1.871   3.945 -0.2491 -0.0277 -0.4464
    2RG3    H4'   37   2.366   1.912   3.953  0.3505 -1.6037  0.4784
    2RG3    O4'   38   2.248   1.771   4.045 -0.1539  0.1227  0.0780
    2RG3    C1'   39   2.200   1.644   3.990 -0.4231 -0.5066  0.1755
    2RG3    H1'   40   2.284   1.575   3.983 -2.2341 -2.7897  0.3108
    2RG3     N9   41   2.102   1.577   4.082  0.3873 -0.7502 -0.1270
    2RG3     C8   42   1.988   1.630   4.140 -0.5244  0.0870  0.0510
    2RG3     H8   43   1.964   1.734   4.124 -0.9756  0.0272  0.3267
    2RG3     N7   44   1.913   1.545   4.206 -0.5439 -0.2653 -0.2377
    2RG3     C5   45   1.988   1.425   4.198 -0.0625 -0.0609  0.5182
    2RG3     C6   46   1.960   1.293   4.239 -0.4477 -0.0499 -0.7555
    2RG3     O6   47   1.860   1.244   4.294 -0.3364  0.1897  0.2602
    2RG3     N1   48   2.055   1.201   4.202  0.3891  0.0304 -0.0301
    2RG3     H1   49   2.040   1.105   4.231 -0.6425 -0.4262 -1.9866
    2RG3     C2   50   2.163   1.235   4.131 -0.3382 -0.1833 -0.2015
    2RG3     N2   51   2.253   1.142   4.113  0.2683  0.0922 -0.5089
    2RG3    H21   52   2.247   1.048   4.149  0.1532  0.3428  0.1313
    2RG3    H22   53   2.347   1.180   4.108  1.1997 -2.0604  0.3524
    2RG3     N3   54   2.201   1.356   4.090  0.4651 -0.2684  0.7287
    2RG3     C4   55   2.105   1.444   4.125 -0.2027 -0.1113  0.8668
    2RG3    C3'   56   2.220   1.803   3.810 -0.4618  0.3725  0.3822
    2RG3    H3'   57   2.152   1.871   3.758 -2.4592 -0.7819  1.4413
    2RG3    C2'   58   2.134   1.680   3.850 -0.0017  0.5924  0.5221
    2RG3   H2'1   59   2.030   1.709   3.860 -0.5104 -1.0781  0.0870
    2RG3    O2'   60   2.152   1.583   3.752 -0.5695  0.5927 -0.7308
    2RG3   HO'2   61   2.173   1.631   3.671 -0.0076  2.3352  0.4157
    2RG3    O3'   62   2.340   1.768   3.734  0.3384 -0.3131  0.4935
    2RG3    H3T   63   2.369   1.852   3.697 -0.4564 -0.2511 -0.0073
    5SOL     OW   64   2.835   3.056   1.032 -0.3755 -0.0152 -0.2610
    5SOL    HW2   65   2.846   2.975   1.081 -2.4861 -1.3728 -1.9193
    5SOL    HW3   66   2.921   3.074   0.995  0.5511 -0.4687  1.6516
    5SOL    MW4   67   2.847   3.048   1.033 -0.5317 -0.2542 -0.2273
    6SOL     OW   68   3.356   3.865   1.100  0.1878 -0.3277  0.2051
    6SOL    HW2   69   3.439   3.908   1.119  0.5776 -0.9849 -0.0091
    6SOL    HW3   70   3.369   3.774   1.125 -0.2285 -0.5868 -0.4931
    6SOL    MW4   71   3.369   3.859   1.106  0.1841 -0.4485  0.0849
    7SOL     OW   72   0.827   0.828   0.409  0.0594 -0.1673  0.1161
    7SOL    HW2   73   0.783   0.785   0.336  0.0828 -0.3578  0.2154
    7SOL    HW3   74   0.906   0.866   0.370  1.1765 -2.0816  0.4455
    7SOL    MW4   75   0.832   0.828   0.394  0.2099 -0.4451  0.1726
    8SOL     OW   76   1.358   3.525   1.145  0.1919 -0.4337  0.4892
    8SOL    HW2   77   1.372   3.436   1.179  1.2279 -1.2054 -1.8194
    8SOL    HW3   78   1.431   3.576   1.181 -0.3430 -0.5224  1.7372
    8SOL    MW4   79   1.370   3.520   1.154  0.2581 -0.5469  0.3493
    9SOL     OW   80   1.567   2.367   1.126 -0.1871 -0.1829 -0.7402
    9SOL    HW2   81   1.496   2.409   1.173  0.9195 -0.8421  1.5723
    9SOL    HW3   82   1.560   2.275   1.148  2.4103 -0.0227  0.9429
    9SOL    MW4   83   1.557   2.361   1.135  0.3016 -0.2489 -0.2129
   10SOL     OW   84   1.133   0.737   1.058  0.0347  0.3107  0.0248
   10SOL    HW2   85   1.110   0.661   1.112 -0.8820  0.0988 -0.6650
   10SOL    HW3   86   1.062   0.799   1.072  1.2052  1.4066  1.2496
   10SOL    MW4   87   1.121   0.735   1.067  0.0682  0.4273  0.0955
   11SOL     OW   88   2.218   2.659   0.334 -0.0127 -0.0500 -0.1725
   11SOL    HW2   89   2.127   2.688   0.345  0.3718  0.2591  2.8803
   11SOL    HW3   90   2.264   2.737   0.304 -0.5208  0.1366 -0.4814
   11SOL    MW4   91   2.212   2.673   0.332 -0.0288  0.0153  0.1895
   12SOL     OW   92   0.778   1.943   0.575  0.1889  0.0541 -0.4638
   12SOL    HW2   93   0.707   1.879   0.567  0.3691 -0.5376  2.1555
   12SOL    HW3   94   0.734   2.025   0.595  0.2410 -0.4272  1.7122
   12SOL    MW4   95   0.763   1.945   0.577  0.2195 -0.0875  0.1688
   13SOL     OW   96   1.263   1.354   0.555 -0.0396  0.0170 -0.0442
   13SOL    HW2   97   1.251   1.444   0.586  0.7846 -0.0031  0.3574
   13SOL    HW3   98   1.308   1.363   0.471 -0.5215 -0.0007 -0.3067
   13SOL    MW4   99   1.267   1.367   0.548  0.0056  0.0120 -0.0258
   14SOL     OW  100   0.230   1.486   1.043 -0.1516 -0.0160  0.2182
   14SOL    HW2  101   0.309   1.530   1.073 -0.4882  0.4532  0.4212
   14SOL    HW3  102   0.159   1.529   1.090 -0.5213 -0.4824  0.0895
   14SOL    MW4  103   0.231   1.498   1.053 -0.2448 -0.0156  0.2282
   15SOL     OW  104   0.020   4.058   1.217  0.3162  0.5114 -0.0034
   15SOL    HW2  105  -0.061   4.006   1.212  1.0471 -0.6865  0.3087
   15SOL    HW3  106   0.037   4.065   1.311  1.8727 -1.3472 -0.1092
   15SOL    MW4  107   0.011   4.052   1.229  0.6179  0.1082  0.0238
   16SOL     OW  108   4.148   4.039   0.598  0.0283 -0.3478  0.2953
   16SOL    HW2  109   4.207   3.965   0.590 -0.6910 -0.9112  0.1868
   16SOL    HW3  110   4.111   4.031   0.685 -1.8173 -1.4555 -0.5626
   16SOL    MW4  111   4.151   4.028   0.608 -0.3104 -0.5684  0.1678
   17SOL     OW  112   0.118   1.966   0.154  0.5644 -0.5935  0.0880
   17SOL    HW2  113   0.041   1.950   0.208  1.0874 -2.7759  0.2241
   17SOL    HW3  114   0.087   1.953   0.064  0.3532  0.3517  0.0143
   17SOL    MW4  115   0.104   1.962   0.149  0.6056 -0.7567  0.0962
   18SOL     OW  116   4.269   4.410   1.213  0.0477 -0.1488 -0.4407
   18SOL    HW2  117   4.258   4.499   1.181 -0.8844 -0.7434 -1.7940
   18SOL    HW3  118   4.361   4.389   1.195  0.5440  0.8863  0.8212
   18SOL    MW4  119   4.280   4.419   1.207 -0.0095 -0.0906 -0.4528
   19SOL     OW  120   2.482   2.012   0.253 -0.2667  0.2054  0.4092
   19SOL    HW2  121   2.391   1.983   0.262  0.2117 -0.9590  1.6056
   19SOL    HW3  122   2.480   2.103   0.285 -1.1798  0.5149 -0.4799
   19SOL    MW4  123   2.469   2.020   0.258 -0.3242  0.0923  0.4497
   20SOL     OW  124   3.340   4.360   0.628 -0.4674  0.1779 -0.4372
   20SOL    HW2  125   3.312   4.396   0.544  0.6421 -0.3392 -1.0443
   20SOL    HW3  126   3.383   4.277   0.605  0.5521  0.4141  0.5560
   20SOL    MW4  127   3.342   4.354   0.614 -0.1867  0.1411 -0.3864
   21SOL     OW  128   4.395   1.155   0.811  0.0655  0.4770  0.7722
   21SOL    HW2  129   4.343   1.101   0.751  0.6132  0.8012  0.0017
   21SOL    HW3  130   4.476   1.173   0.763  0.0198  1.7210  1.1585
   21SOL    MW4  131   4.399   1.150   0.796  0.1326  0.6839  0.7215
   22SOL     OW  132   2.779   0.698   0.506  0.2581 -0.1452  0.0672
   22SOL    HW2  133   2.695   0.684   0.462 -0.1834  1.6368  0.3255
   22SOL    HW3  134   2.835   0.628   0.472 -0.7704 -0.2181 -1.5387
   22SOL    MW4  135   2.775   0.687   0.496  0.0641  0.0803 -0.1106
   23SOL     OW  136   3.420   3.071   1.046 -0.4587 -0.1128  0.4097
   23SOL    HW2  137   3.432   3.065   0.952 -1.0754  0.3315  0.3019
   23SOL    HW3  138   3.415   2.980   1.076  1.7334 -0.2980  0.2791
   23SOL    MW4  139   3.421   3.058   1.038 -0.2508 -0.0784  0.3784
   24SOL     OW  140   0.416   2.190   0.346 -0.3796  0.2040 -0.2212
   24SOL    HW2  141   0.399   2.101   0.316  0.3961 -0.1051  0.2441
   24SOL    HW3  142   0.336   2.238   0.325 -0.2515 -0.2512 -1.8118
   24SOL    MW4  143   0.403   2.185   0.339 -0.2603  0.1032 -0.3696
   25SOL     OW  144   2.605   3.095   0.445  0.5634 -0.1487  0.1977
   25SOL    HW2  145   2.671   3.144   0.494  0.9938 -0.2453 -0.2680
   25SOL    HW3  146   2.526   3.147   0.452  0.9722  0.5296 -0.1397
   25SOL    MW4  147   2.603   3.108   0.452  0.6740 -0.0720  0.0918
   26SOL     OW  148   4.377   1.970   0.342 -0.5855 -0.4785 -0.1874
   26SOL    HW2  149   4.299   2.002   0.386 -0.2350 -0.0028  0.0914
   26SOL    HW3  150   4.381   1.877   0.363 -2.1196 -0.9232 -1.7516
   26SOL    MW4  151   4.368   1.962   0.351 -0.7410 -0.4743 -0.3570
   27SOL     OW  152   3.782   0.867   0.799  0.0644  0.0576 -0.1893
   27SOL    HW2  153   3.807   0.958   0.812  0.3810 -0.2091  1.1451
   27SOL    HW3  154   3.794   0.826   0.885 -1.1069 -0.9960 -0.5103
   27SOL    MW4  155   3.787   0.874   0.812 -0.0484 -0.1165 -0.0556
   28SOL     OW  156   3.869   1.125   0.816 -0.0370  0.1121 -0.4495
   28SOL    HW2  157   3.918   1.150   0.737 -2.0593  3.9502 -0.6136
   28SOL    HW3  158   3.934   1.129   0.886  1.3842 -1.5715 -1.6308
   28SOL    MW4  159   3.884   1.129   0.815 -0.1161  0.3963 -0.6270
   29SOL     OW  160   3.625   3.217   1.178 -0.0199  0.4300  0.4919
   29SOL    HW2  161   3.554   3.165   1.141  1.6544 -1.6048  0.0160
   29SOL    HW3  162   3.613   3.304   1.142 -1.1759 -0.3481 -1.0601
   29SOL    MW4  163   3.614   3.222   1.169  0.0486  0.0589  0.2245
   30SOL     OW  164   1.179   4.362   0.389  0.1628  0.1353  0.1669
   30SOL    HW2  165   1.164   4.455   0.377  1.4889  0.3986  0.4499
   30SOL    HW3  166   1.143   4.342   0.475 -0.0836  0.3943  0.1237
   30SOL    MW4  167   1.172   4.371   0.399  0.3053  0.2046  0.1986
   31SOL     OW  168   1.127   2.875   0.792 -0.2684  0.3595  0.0743
   31SOL    HW2  169   1.042   2.842   0.819 -0.4876  0.4085 -0.5463
   31SOL    HW3  170   1.189   2.806   0.816 -0.5817 -0.0076 -0.1728
   31SOL    MW4  171   1.124   2.861   0.799 -0.3387  0.3178 -0.0401
   32SOL     OW  172   3.848   2.323   1.118  0.1238 -0.2516  0.2697
   32SOL    HW2  173   3.924   2.372   1.150 -0.0325  0.6057 -0.6166
   32SOL    HW3  174   3.773   2.379   1.140 -0.0963 -0.2894 -0.3747
   32SOL    MW4  175   3.848   2.337   1.125  0.0741 -0.1435  0.0677
   33SOL     OW  176   1.555   0.265   0.873 -0.0958  0.4081 -0.5938
   33SOL    HW2  177   1.620   0.334   0.857  0.1961  0.0097 -1.1404
   33SOL    HW3  178   1.504   0.262   0.792  0.0508 -0.1878 -0.6644
   33SOL    MW4  179   1.557   0.274   0.860 -0.0379  0.2769 -0.6752
   34SOL     OW  180   4.052   4.267   1.093 -0.1563  0.7350 -0.4366
   34SOL    HW2  181   4.122   4.325   1.124 -0.1874  0.0963  0.8668
   34SOL    HW3  182   3.973   4.300   1.137  0.0260 -1.0006  1.2521
   34SOL    MW4  183   4.051   4.279   1.103 -0.1364  0.4215 -0.0418
   35SOL     OW  184   0.968   1.232   0.240 -0.2948  0.0999 -0.2096
   35SOL    HW2  185   0.976   1.238   0.335  0.1433  0.2969 -0.2589
   35SOL    HW3  186   0.874   1.218   0.224 -0.6736  2.1401  0.1351
   35SOL    MW4  187   0.957   1.231   0.250 -0.2869  0.3952 -0.1706
   36SOL     OW  188   4.140   2.037   0.464 -0.0249  0.1561 -0.4413
   36SOL    HW2  189   4.162   2.000   0.550  0.0518  0.3085 -0.3961
   36SOL    HW3  190   4.064   1.986   0.436 -0.3863  0.4724 -0.0433
   36SOL    MW4  191   4.133   2.025   0.472 -0.0625  0.2179 -0.3828
   37SOL     OW  192   1.576   0.476   1.176  0.0365  0.5690 -0.1282
   37SOL    HW2  193   1.658   0.441   1.140  0.7776  1.9401  0.2138
   37SOL    HW3  194   1.508   0.427   1.130  1.0357 -0.4288 -0.5851
   37SOL    MW4  195   1.578   0.465   1.165  0.2661  0.6183 -0.1432
   38SOL     OW  196   1.792   0.102   1.171 -0.0776  0.6671  0.1098
   38SOL    HW2  197   1.791   0.188   1.129  0.7115  1.1132  0.9840
   38SOL    HW3  198   1.702   0.071   1.167 -0.2947  1.3920 -0.5118
   38SOL    MW4  199   1.780   0.109   1.165 -0.0021  0.8216  0.1432
   39SOL     OW  200   1.152   4.353   1.162 -0.2465  0.4590  0.1074
   39SOL    HW2  201   1.169   4.349   1.257 -1.1503 -0.8553  0.2169
   39SOL    HW3  202   1.227   4.308   1.123 -0.5796 -0.2356  0.2715
   39SOL    MW4  203   1.164   4.347   1.170 -0.4096  0.1936  0.1434
   40SOL     OW  204   0.186   2.878   0.563  0.4645 -0.2976  0.1469
   40SOL    HW2  205   0.261   2.936   0.549  0.5930 -0.8758 -1.7887
   40SOL    HW3  206   0.199   2.842   0.650  1.2732  1.2917  0.6963
   40SOL    MW4  207   0.197   2.881   0.573  0.5882 -0.1643 -0.0359
   41SOL     OW  208   0.008   2.472   1.178  0.1565  0.0209  0.0801
   41SOL    HW2  209  -0.072   2.426   1.153 -0.8440  1.8149 -0.1060
   41SOL    HW3  210   0.007   2.470   1.274  0.0235 -0.1963  0.0749
   41SOL    MW4  211  -0.003   2.466   1.187  0.0069  0.2289  0.0550
   42SOL     OW  212   3.680   3.643   0.326  0.3151  0.6929  0.3139
   42SOL    HW2  213   3.601   3.635   0.379  0.2090  1.1821  0.2363
   42SOL    HW3  214   3.731   3.564   0.345 -0.7100 -0.1759 -0.4944
   42SOL    MW4  215   3.676   3.632   0.336  0.1659  0.6425  0.1970
   43SOL     OW  216   2.568   2.386   0.835  0.1896  0.4053  0.0661
   43SOL    HW2  217   2.491   2.426   0.794 -0.4046 -1.9312 -1.1699
   43SOL    HW3  218   2.640   2.403   0.774 -0.0829 -0.5154 -0.5074
   43SOL    MW4  219   2.567   2.394   0.822  0.0751 -0.0243 -0.1726
   44SOL     OW  220   3.929   2.233   0.869 -0.1101 -0.0361  0.0861
   44SOL    HW2  221   3.987   2.302   0.838 -0.5661  0.0390 -0.6204
   44SOL    HW3  222   3.888   2.269   0.947  0.7278 -0.0607  0.5444
   44SOL    MW4  223   3.931   2.246   0.875 -0.0596 -0.0291  0.0533
   45SOL     OW  224   0.877   1.990   0.321  0.0308 -0.1405  0.1747
   45SOL    HW2  225   0.928   2.071   0.321 -0.5756  0.2463 -1.4064
   45SOL    HW3  226   0.848   1.980   0.412 -0.0818  1.5231  0.3306
   45SOL    MW4  227   0.880   2.000   0.333 -0.0641  0.1302 -0.0133
   46SOL     OW  228   3.940   2.629   0.115  0.2727  0.6695 -0.2814
   46SOL    HW2  229   4.014   2.688   0.126 -0.3427  1.3121  0.4646
   46SOL    HW3  230   3.886   2.669   0.047  0.4607  0.3531 -0.6179
   46SOL    MW4  231   3.942   2.642   0.108  0.2160  0.7124 -0.2274
   47SOL     OW  232   0.238   3.867   1.161  0.0190  0.3212  0.0144
   47SOL    HW2  233   0.170   3.934   1.164  1.0025  1.3144  0.5853
   47SOL    HW3  234   0.319   3.914   1.183  0.7888 -0.9592 -0.0307
   47SOL    MW4  235   0.240   3.882   1.165  0.2503  0.2835  0.0838
   48SOL     OW  236   1.016   1.241   0.523  0.2525  0.1258 -0.4039
   48SOL    HW2  237   0.953   1.313   0.535  0.8468  0.3640  1.4684
   48SOL    HW3  238   1.101   1.284   0.525  0.5574 -0.4534 -0.9133
   48SOL    MW4  239   1.019   1.256   0.525  0.3711  0.0808 -0.2241
   49SOL     OW  240   4.265   3.624   1.188  0.2248 -0.3990  0.4786
   49SOL    HW2  241   4.269   3.612   1.283  0.6143  1.6434  0.7521
   49SOL    HW3  242   4.343   3.581   1.154  0.6131 -0.2569  1.1916
   49SOL    MW4  243   4.275   3.617   1.196  0.3276 -0.1106  0.6088
   50SOL     OW  244   1.474   3.780   0.326  0.2412 -0.0399  0.0318
   50SOL    HW2  245   1.396   3.819   0.364 -0.3929 -0.6633 -0.6157
   50SOL    HW3  246   1.542   3.846   0.338 -0.6809  1.0384 -0.5400
   50SOL    MW4  247   1.473   3.794   0.333  0.0361  0.0200 -0.1291
   51SOL     OW  248   2.184   2.367   0.340  0.0031  0.3102  0.5331
   51SOL    HW2  249   2.176   2.462   0.335 -0.3811  0.4123  2.6007
   51SOL    HW3  250   2.265   2.347   0.293 -1.0966  1.4081 -1.9303
   51SOL    MW4  251   2.194   2.377   0.333 -0.1929  0.4683  0.4808
   52SOL     OW  252   4.086   2.419   0.732  0.2787  0.2065  0.5107
   52SOL    HW2  253   4.075   2.386   0.643  0.0351  0.9000  0.2833
   52SOL    HW3  254   4.180   2.413   0.748  0.4000  0.6682 -0.0178
   52SOL    MW4  255   4.097   2.414   0.722  0.2627  0.3588  0.4110
   53SOL     OW  256   0.230   2.834   1.183 -0.3639 -0.4438  0.2443
   53SOL    HW2  257   0.143   2.798   1.164 -0.4460 -0.9181  1.4655
   53SOL    HW3  258   0.250   2.802   1.271  0.6832  0.3810  0.3100
   53SOL    MW4  259   0.222   2.825   1.192 -0.2366 -0.3974  0.4140
   54SOL     OW  260   2.027   2.879   1.168 -0.3535  0.5881  0.1840
   54SOL    HW2  261   2.116   2.849   1.150 -1.3715 -1.8743 -0.9488
   54SOL    HW3  262   2.029   2.972   1.147  2.1866  0.7913  1.1166
   54SOL    MW4  263   2.039   2.887   1.163 -0.1526  0.2897  0.1577
   55SOL     OW  264   2.796   3.949   0.732  0.4563 -0.1458 -0.0482
   55SOL    HW2  265   2.821   3.949   0.639 -1.9167  0.2749 -0.7162
   55SOL    HW3  266   2.862   3.894   0.774  2.5687  1.0485 -1.6955
   55SOL    MW4  267   2.808   3.942   0.725  0.4220  0.0675 -0.3537
   56SOL     OW  268   1.106   1.637   0.375  0.5944 -0.1313  0.4717
   56SOL    HW2  269   1.110   1.718   0.324  1.6570 -0.0237  0.7203
   56SOL    HW3  270   1.015   1.607   0.365  1.0266 -0.6024 -2.2162
   56SOL    MW4  271   1.094   1.644   0.367  0.7918 -0.1794  0.1499
   57SOL     OW  272   2.357   1.833   1.100  0.7434  0.2150 -0.4576
   57SOL    HW2  273   2.320   1.760   1.149  0.3190  0.4463 -0.4232
   57SOL    HW3  274   2.438   1.799   1.063 -0.6922 -1.0261 -2.5111
   57SOL    MW4  275   2.363   1.819   1.102  0.4981  0.0817 -0.7240
   58SOL     OW  276   2.226   2.083   0.590  0.4294  0.4368 -0.2674
   58SOL    HW2  277   2.202   2.049   0.504 -0.4880  0.3603  0.0097
   58SOL    HW3  278   2.277   2.013   0.631 -0.6988 -0.2713 -0.0414
   58SOL    MW4  279   2.230   2.069   0.584  0.1595  0.3333 -0.2010
   59SOL     OW  280   0.427   1.668   1.158 -0.1475  0.4071 -0.1154
   59SOL    HW2  281   0.440   1.677   1.253 -0.8243  0.8647 -0.0649
   59SOL    HW3  282   0.434   1.758   1.125  0.0273  0.2528 -0.4888
   59SOL    MW4  283   0.430   1.681   1.166 -0.2137  0.4472 -0.1580
   60SOL     OW  284   4.308   2.315   1.066 -0.3150 -0.5399 -0.1731
   60SOL    HW2  285   4.310   2.226   1.103  0.4556  0.0595  1.2742
   60SOL    HW3  286   4.237   2.359   1.113 -1.4901 -0.7381 -1.7449
   60SOL    MW4  287   4.299   2.309   1.077 -0.3686 -0.4871 -0.1895
   61SOL     OW  288   2.268   3.268   1.200 -0.5757 -0.1837  0.0944
   61SOL    HW2  289   2.333   3.206   1.167 -0.7330 -0.6212  0.6012
   61SOL    HW3  290   2.188   3.248   1.151 -0.1170  0.9199 -1.1449
   61SOL    MW4  291   2.266   3.258   1.189 -0.5360 -0.0958 -0.0021
   62SOL     OW  292   2.197   0.444   0.840  0.5506 -0.2214  0.3982
   62SOL    HW2  293   2.217   0.524   0.791 -1.7394 -0.1819 -0.5743
   62SOL    HW3  294   2.267   0.383   0.817  1.0131  0.7195 -0.7473
   62SOL    MW4  295   2.209   0.447   0.831  0.3097 -0.0920  0.1188
   63SOL     OW  296   0.457   2.446   1.173  0.3146  0.4646 -0.1834
   63SOL    HW2  297   0.445   2.439   1.268  2.0250 -0.4384 -0.0284
   63SOL    HW3  298   0.444   2.539   1.155 -2.1243  0.3326  0.6153
   63SOL    MW4  299   0.454   2.457   1.183  0.2185  0.3283 -0.0576
   64SOL     OW  300   2.439   0.800   1.154  0.1533  0.2200  0.1012
   64SOL    HW2  301   2.444   0.827   1.063  0.9766  1.1069  0.4004
   64SOL    HW3  302   2.516   0.839   1.195 -0.8906  0.9162  1.4499
   64SOL    MW4  303   2.449   0.808   1.148  0.1242  0.4289  0.3186
   65SOL     OW  304   0.474   0.156   1.229 -0.3916 -0.0077  0.3444
   65SOL    HW2  305   0.474   0.242   1.185  2.5103  1.2485  2.6050
   65SOL    HW3  306   0.533   0.102   1.175 -0.8248 -0.0409 -0.0996
   65SOL    MW4  307   0.482   0.161   1.216 -0.0659  0.1537  0.5841
   66SOL     OW  308   0.464   1.136   1.084  0.2340 -0.2856 -0.0679
   66SOL    HW2  309   0.383   1.158   1.130  1.1909  0.4643  1.3120
   66SOL    HW3  310   0.438   1.126   0.993 -1.1526  1.4554  0.1042
   66SOL    MW4  311   0.450   1.137   1.078  0.1773  0.0430  0.1367
   67SOL     OW  312   1.288   0.629   0.384 -0.2495 -0.2465 -0.1495
   67SOL    HW2  313   1.321   0.703   0.333 -0.2678  0.3073  0.6424
   67SOL    HW3  314   1.362   0.570   0.393 -0.2368 -0.3276 -0.7894
   67SOL    MW4  315   1.302   0.631   0.378 -0.2502 -0.1841 -0.1295
   68SOL     OW  316   1.933   2.712   0.399 -0.7658 -0.1567 -0.1922
   68SOL    HW2  317   1.903   2.801   0.383  0.5608  0.4641  0.6820
   68SOL    HW3  318   1.945   2.707   0.494  0.6257 -0.7720 -0.3798
   68SOL    MW4  319   1.931   2.723   0.410 -0.4071 -0.1562 -0.1017
   69SOL     OW  320   3.605   1.929   1.070  0.0451 -0.1753 -0.4388
   69SOL    HW2  321   3.671   1.968   1.128 -0.6020 -1.1106  0.9462
   69SOL    HW3  322   3.656   1.886   1.001  0.8082  1.3199 -0.8423
   69SOL    MW4  323   3.621   1.929   1.068  0.0603 -0.1014 -0.3092
   70SOL     OW  324   1.169   2.343   0.846  0.2613 -0.1924 -0.1884
   70SOL    HW2  325   1.085   2.380   0.818  0.0568 -0.0087  0.6550
   70SOL    HW3  326   1.168   2.253   0.814  0.2297  0.1439 -1.1681
   70SOL    MW4  327   1.158   2.336   0.838  0.2302 -0.1240 -0.2064
   71SOL     OW  328   1.104   2.061   1.198  0.0072  0.0581  0.3309
   71SOL    HW2  329   1.128   2.152   1.181 -0.7920  0.5111  1.5981
   71SOL    HW3  330   1.119   2.049   1.291  0.9084 -1.3643  0.0136
   71SOL    MW4  331   1.109   2.071   1.208  0.0205 -0.0701  0.4563
   72SOL     OW  332   2.246   3.028   0.695 -0.5929 -0.6383 -0.6305
   72SOL    HW2  333   2.234   2.945   0.742 -0.2867 -0.5120 -0.3264
   72SOL    HW3  334   2.182   3.087   0.733  0.3942 -0.2092  0.4112
   72SOL    MW4  335   2.236   3.025   0.706 -0.4222 -0.5651 -0.4530
   73SOL     OW  336   0.668   1.072   0.478  0.2729 -0.0171  0.1517
   73SOL    HW2  337   0.673   1.083   0.573  0.4983  0.5352  0.0785
   73SOL    HW3  338   0.728   1.000   0.458 -0.5044 -0.7819  0.5346
   73SOL    MW4  339   0.676   1.064   0.488  0.2002 -0.0452  0.1926
   74SOL     OW  340   2.723   1.737   0.719  0.1041  0.1396 -0.0401
   74SOL    HW2  341   2.677   1.721   0.637  1.6139  1.6977 -1.2390
   74SOL    HW3  342   2.780   1.661   0.729 -0.8758 -0.5771  0.1390
   74SOL    MW4  343   2.725   1.725   0.710  0.1740  0.2508 -0.1747
   75SOL     OW  344   1.595   3.668   1.219  0.3332  0.5853  0.0554
   75SOL    HW2  345   1.620   3.753   1.182 -0.3497 -0.0389 -1.8940
   75SOL    HW3  346   1.661   3.607   1.187  0.4020  0.2378  0.8437
   75SOL    MW4  347   1.607   3.671   1.210  0.2521  0.4570 -0.0978
   76SOL     OW  348   0.942   2.477   0.750 -0.0793 -0.4751  0.1194
   76SOL    HW2  349   0.912   2.485   0.659 -0.4384 -1.0023  0.1905
   76SOL    HW3  350   0.865   2.447   0.798  0.8014 -2.7299  0.1457
   76SOL    MW4  351   0.928   2.474   0.744 -0.0104 -0.8421  0.1323
   77SOL     OW  352   2.642   1.330   0.802  0.4522  0.1004 -0.0290
   77SOL    HW2  353   2.580   1.334   0.875 -0.3696 -1.2624 -0.6259
   77SOL    HW3  354   2.593   1.363   0.727  0.5318 -0.6896 -0.4359
   77SOL    MW4  355   2.627   1.335   0.802  0.3543 -0.1836 -0.1614
   78SOL     OW  356   4.033   1.976   0.869  0.2758 -0.0431  0.1053
   78SOL    HW2  357   4.015   2.071   0.870  0.4249 -0.0199  0.6366
   78SOL    HW3  358   4.042   1.953   0.962  1.2662 -0.3862 -0.0813
   78SOL    MW4  359   4.032   1.986   0.882  0.4263 -0.0854  0.1508
   79SOL     OW  360   2.156   1.920   0.911  0.0334 -0.2603  0.1172
   79SOL    HW2  361   2.201   1.842   0.943  0.2887 -0.2709 -0.2580
   79SOL    HW3  362   2.144   1.975   0.988  2.4441  0.6147 -0.0894
   79SOL    MW4  363   2.161   1.917   0.925  0.3853 -0.1462  0.0405
   80SOL     OW  364   2.794   2.456   0.640  0.1926 -0.2520 -0.1135
   80SOL    HW2  365   2.776   2.461   0.546 -1.1307 -1.4832  0.0520
   80SOL    HW3  366   2.800   2.547   0.669 -1.0061  0.1489 -1.1035
   80SOL    MW4  367   2.793   2.469   0.632 -0.1402 -0.3614 -0.2224
   81SOL     OW  368   4.230   1.627   0.657 -0.1375 -0.4904  0.0607
   81SOL    HW2  369   4.142   1.589   0.658 -0.7921  1.0077 -0.1302
   81SOL    HW3  370   4.221   1.710   0.704  1.1798 -0.3531  0.0742
   81SOL    MW4  371   4.217   1.633   0.664 -0.0496 -0.2747  0.0373
   82SOL     OW  372   0.245   0.474   1.143 -0.1572 -0.2149  0.3525
   82SOL    HW2  373   0.218   0.428   1.063 -0.0483  0.0153  0.1827
   82SOL    HW3  374   0.340   0.465   1.144 -0.0335  0.9140 -0.2427
   82SOL    MW4  375   0.254   0.467   1.132 -0.1265 -0.0356  0.2517
   83SOL     OW  376   2.277   0.736   0.429 -0.1127  0.4106  0.0327
   83SOL    HW2  377   2.297   0.720   0.521  1.0988 -1.2000 -0.4939
   83SOL    HW3  378   2.214   0.667   0.405 -1.3731  1.5642 -0.0305
   83SOL    MW4  379   2.271   0.725   0.438 -0.1192  0.3504 -0.0452
   84SOL     OW  380   3.334   0.717   0.746  0.6837 -0.3697 -0.6847
   84SOL    HW2  381   3.422   0.719   0.709  1.0333 -0.1411  0.1642
   84SOL    HW3  382   3.294   0.639   0.707  1.6141 -1.0663 -0.2635
   84SOL    MW4  383   3.340   0.707   0.736  0.8526 -0.4314 -0.5171
   85SOL     OW  384   0.916   3.161   0.748  0.6479  0.2598 -0.6636
   85SOL    HW2  385   0.911   3.160   0.652  2.4852 -0.2081 -0.7751
   85SOL    HW3  386   0.886   3.248   0.773 -2.5801 -0.5817 -1.4776
   85SOL    MW4  387   0.912   3.172   0.739  0.4645  0.0870 -0.7857
   86SOL     OW  388   2.229   2.782   0.819  0.1002  0.2158 -0.0737
   86SOL    HW2  389   2.216   2.774   0.913  0.5262 -0.4693 -0.0733
   86SOL    HW3  390   2.281   2.706   0.794 -0.5715  0.0341 -0.9710
   86SOL    MW4  391   2.234   2.771   0.828  0.0675  0.1016 -0.1920
   87SOL     OW  392   2.033   0.818   0.826 -0.2381  0.2669 -0.2263
   87SOL    HW2  393   2.026   0.809   0.921 -0.0250  1.7283 -0.0580
   87SOL    HW3  394   1.956   0.773   0.792  0.2749 -1.2643  0.5752
   87SOL    MW4  395   2.022   0.811   0.834 -0.1421  0.2577 -0.0983
   88SOL     OW  396   0.689   1.264   0.286 -0.0131 -0.3447 -0.5484
   88SOL    HW2  397   0.682   1.196   0.353  0.7481 -1.1517 -1.2750
   88SOL    HW3  398   0.598   1.285   0.263 -0.2923  0.2672  1.0513
   88SOL    MW4  399   0.676   1.258   0.292  0.0505 -0.3704 -0.4332
   89SOL     OW  400   3.133   0.108   1.473 -0.3455 -0.0177  0.2281
   89SOL    HW2  401   3.051   0.065   1.498 -0.6707 -0.7681 -2.0503
   89SOL    HW3  402   3.201   0.044   1.495 -0.4805  0.0835  0.9358
   89SOL    MW4  403   3.131   0.094   1.479 -0.4063 -0.1034  0.0209
   90SOL     OW  404   2.227   1.577   0.901  0.1444  0.1296  0.2064
   90SOL    HW2  405   2.314   1.540   0.917  0.3210  0.3118 -0.3232
   90SOL    HW3  406   2.188   1.520   0.835  0.0799  0.3830  0.0259
   90SOL    MW4  407   2.233   1.565   0.894  0.1588  0.1870  0.1127
   91SOL     OW  408   3.372   2.831   1.162 -0.1827  0.0596 -0.3318
   91SOL    HW2  409   3.444   2.784   1.121 -0.2949 -0.0804 -0.3714
   91SOL    HW3  410   3.294   2.801   1.114 -0.2414  0.3696 -0.4273
   91SOL    MW4  411   3.371   2.821   1.150 -0.2050  0.0820 -0.3495
   92SOL     OW  412   0.688   1.615   0.805 -0.2733 -0.3541  0.4200
   92SOL    HW2  413   0.782   1.623   0.789 -0.1402 -0.3368  1.1571
   92SOL    HW3  414   0.681   1.601   0.900 -0.9527 -1.4414  0.2258
   92SOL    MW4  415   0.699   1.614   0.816 -0.3454 -0.4953  0.4917
   93SOL     OW  416   2.757   0.280   0.475 -0.1711 -0.3181 -0.0394
   93SOL    HW2  417   2.838   0.324   0.451  0.1706 -1.3422 -0.7849
   93SOL    HW3  418   2.775   0.242   0.561 -0.2339  0.3937  0.2909
   93SOL    MW4  419   2.770   0.280   0.483 -0.1345 -0.3593 -0.0942
   94SOL     OW  420   1.549   0.745   1.105 -0.0190  0.5091 -0.3168
   94SOL    HW2  421   1.479   0.781   1.158  0.3372 -0.5148  0.8677
   94SOL    HW3  422   1.562   0.656   1.138  0.0825 -0.2237 -2.2313
   94SOL    MW4  423   1.542   0.738   1.116  0.0412  0.2773 -0.4132
   95SOL     OW  424   3.084   3.504   0.445  0.1851  0.3639 -0.1062
   95SOL    HW2  425   2.992   3.487   0.423 -0.4969  2.5375  0.9229
   95SOL    HW3  426   3.119   3.550   0.369  0.5491 -0.8340 -0.6714
   95SOL    MW4  427   3.076   3.508   0.432  0.1433  0.4928 -0.0450
   96SOL     OW  428   3.469   2.151   0.904 -0.1772  0.1714  0.0136
   96SOL    HW2  429   3.494   2.150   0.812 -0.3061  1.3549 -0.0457
   96SOL    HW3  430   3.518   2.079   0.943  1.3083  0.8249 -0.6091
   96SOL    MW4  431   3.479   2.142   0.897  0.0017  0.4139 -0.0764
   97SOL     OW  432   0.648   2.822   1.251 -0.0907 -0.0985 -0.4348
   97SOL    HW2  433   0.726   2.775   1.220 -0.4344 -0.9819  0.0478
   97SOL    HW3  434   0.642   2.898   1.192  1.5716  0.4019 -0.0001
   97SOL    MW4  435   0.658   2.826   1.239  0.0833 -0.1490 -0.3136
   98SOL     OW  436   3.515   4.150   0.585  0.0737  0.1948  0.3017
   98SOL    HW2  437   3.547   4.139   0.674 -0.1745  0.2093  0.3921
   98SOL    HW3  438   3.582   4.204   0.542  0.6316 -0.5320  0.2293
   98SOL    MW4  439   3.528   4.156   0.591  0.1147  0.1006  0.3040
   99SOL     OW  440   1.041   0.964   0.307  0.0160 -0.0964 -0.4886
   99SOL    HW2  441   1.135   0.948   0.303 -0.2051 -1.0701 -2.3067
   99SOL    HW3  442   1.032   1.056   0.282  0.5113  0.1061  0.0682
   99SOL    MW4  443   1.052   0.974   0.303  0.0523 -0.1981 -0.6550
  100SOL     OW  444   4.211   2.831   1.205  0.2002 -0.0295  0.4189
  100SOL    HW2  445   4.130   2.796   1.169 -0.0979  0.1861  0.8846
  100SOL    HW3  446   4.278   2.806   1.141 -0.3412  0.4157 -0.3240
  100SOL    MW4  447   4.209   2.823   1.192  0.0896  0.0575  0.3823
  101SOL     OW  448   1.325   1.099   1.077  0.2166 -0.5533 -0.2370
  101SOL    HW2  449   1.329   1.062   0.989  1.3908  1.3880 -1.0153
  101SOL    HW3  450   1.408   1.145   1.088 -0.7144  0.8540  1.1633
  101SOL    MW4  451   1.336   1.100   1.067  0.2487 -0.1113 -0.1549
  102SOL     OW  452   2.025   0.504   1.178  0.4827 -0.4197  0.0090
  102SOL    HW2  453   2.017   0.496   1.274  0.4171  0.6261  0.0920
  102SOL    HW3  454   2.107   0.460   1.158 -0.6857 -2.8447  0.2489
  102SOL    MW4  455   2.034   0.497   1.188  0.3197 -0.6017  0.0517
  103SOL     OW  456   2.267   2.749   1.089  0.4413  0.7201  0.2806
  103SOL    HW2  457   2.361   2.746   1.108  0.7192  1.6182 -0.9005
  103SOL    HW3  458   2.237   2.660   1.107  1.9716 -0.2139 -1.4810
  103SOL    MW4  459   2.276   2.737   1.094  0.6797  0.7155 -0.1076
  104SOL     OW  460   1.963   4.112   0.288 -0.1329  0.5507 -0.0599
  104SOL    HW2  461   1.894   4.177   0.294  0.7858  1.4820  0.6937
  104SOL    HW3  462   2.044   4.162   0.295  0.6080 -0.5739 -0.4051
  104SOL    MW4  463   1.965   4.127   0.290  0.0861  0.5250 -0.0060
  105SOL     OW  464   4.034   3.676   0.801  0.3139  0.2201  0.3350
  105SOL    HW2  465   4.040   3.634   0.887  1.2156 -1.0166 -0.3147
  105SOL    HW3  466   3.951   3.647   0.765  0.3697 -0.0203  0.4011
  105SOL    MW4  467   4.024   3.666   0.808  0.4401  0.0253  0.2580
  106SOL     OW  468   0.051   0.040   0.142 -0.4460 -0.0174 -0.0478
  106SOL    HW2  469   0.118   0.007   0.202 -0.5908 -2.4238 -1.1330
  106SOL    HW3  470   0.100   0.089   0.076  0.1247 -0.6204 -0.0798
  106SOL    MW4  471   0.067   0.042   0.141 -0.3898 -0.4144 -0.1952
  107SOL     OW  472   3.141   0.258   0.350 -0.5398 -0.1814  0.2331
  107SOL    HW2  473   3.231   0.280   0.326 -0.8062  1.8097  0.9827
  107SOL    HW3  474   3.146   0.235   0.443 -0.8311  0.0761  0.3135
  107SOL    MW4  475   3.153   0.258   0.359 -0.6132  0.1153  0.3427
  108SOL     OW  476   4.359   2.436   0.818  0.3890  0.6519 -0.2130
  108SOL    HW2  477   4.415   2.371   0.774  0.9733  0.8129  0.2731
  108SOL    HW3  478   4.327   2.390   0.896  0.8108  0.9387  0.1370
  108SOL    MW4  479   4.362   2.421   0.822  0.5212  0.7110 -0.1026
  109SOL     OW  480   0.636   1.093   0.759  0.0287 -0.3645  0.4482
  109SOL    HW2  481   0.706   1.149   0.792  0.1861 -1.6745  2.3883
  109SOL    HW3  482   0.672   1.004   0.764 -1.3240 -0.9289  0.2739
  109SOL    MW4  483   0.650   1.088   0.764 -0.1290 -0.6118  0.6812
  110SOL     OW  484   0.432   3.950   0.753 -0.5980 -0.5456 -0.2758
  110SOL    HW2  485   0.511   3.900   0.775 -0.2284 -1.0355 -2.6195
  110SOL    HW3  486   0.363   3.908   0.804  0.4103 -0.9172  0.8286
  110SOL    MW4  487   0.434   3.938   0.763 -0.4162 -0.6592 -0.4393
  111SOL     OW  488   3.527   4.545   0.735  0.4522  0.5535 -0.4297
  111SOL    HW2  489   3.460   4.614   0.737 -0.3399 -0.2029 -0.2789
  111SOL    HW3  490   3.479   4.466   0.710  1.4606  0.1745 -1.2103
  111SOL    MW4  491   3.512   4.544   0.732  0.4807  0.4039 -0.5128
  112SOL     OW  492   1.234   3.389   0.746  0.1752  0.2000  0.0971
  112SOL    HW2  493   1.270   3.355   0.664  0.7381  0.7643  0.1047
  112SOL    HW3  494   1.230   3.313   0.804 -0.7790 -0.3245 -0.6365
  112SOL    MW4  495   1.238   3.375   0.743  0.1235  0.2048  0.0014
  113SOL     OW  496   4.365   0.244   0.282  0.9841  0.0367  0.2204
  113SOL    HW2  497   4.379   0.237   0.377 -1.0863 -0.0992  0.5400
  113SOL    HW3  498   4.435   0.192   0.244  0.8598 -1.2814  1.7421
  113SOL    MW4  499   4.376   0.237   0.290  0.6948 -0.1552  0.4633
  114SOL     OW  500   1.722   4.509   0.430 -0.0138  0.1629 -0.1281
  114SOL    HW2  501   1.643   4.525   0.481 -0.2910  1.9703 -1.0658
  114SOL    HW3  502   1.793   4.516   0.494 -0.4821  0.3270  0.3842
  114SOL    MW4  503   1.721   4.512   0.445 -0.1122  0.4225 -0.1842
  115SOL     OW  504   3.859   0.293   0.903  0.1770 -0.0479 -0.0495
  115SOL    HW2  505   3.896   0.294   0.992  1.0293  1.7320 -0.3917
  115SOL    HW3  506   3.893   0.212   0.864  0.8793 -0.1774  0.8130
  115SOL    MW4  507   3.869   0.282   0.910  0.3819  0.1699  0.0191
  116SOL     OW  508   0.103   3.891   0.510 -0.2797 -0.8539  0.1297
  116SOL    HW2  509   0.024   3.862   0.557 -0.6902 -0.4472 -0.2981
  116SOL    HW3  510   0.109   3.830   0.436 -1.2962  0.2926 -0.9227
  116SOL    MW4  511   0.093   3.879   0.506 -0.4680 -0.6487 -0.0656
  117SOL     OW  512   3.055   0.366   0.810 -0.1830 -0.3040 -0.3597
  117SOL    HW2  513   2.960   0.369   0.815 -0.2018 -1.4905  0.3541
  117SOL    HW3  514   3.084   0.378   0.900  0.3962  1.3678 -0.7606
  117SOL    MW4  515   3.047   0.368   0.823 -0.1090 -0.2400 -0.3185
  118SOL     OW  516   2.962   3.115   0.418  0.2176  0.4508 -0.2448
  118SOL    HW2  517   2.903   3.126   0.344 -0.8246  2.3065  0.8330
  118SOL    HW3  518   3.028   3.183   0.407  0.4586  0.2865  0.1695
  118SOL    MW4  519   2.963   3.125   0.407  0.1118  0.6740 -0.0479
  119SOL     OW  520   0.375   1.919   0.305 -0.0413  0.4158  0.0910
  119SOL    HW2  521   0.440   1.911   0.235 -0.1543  1.9829 -0.2045
  119SOL    HW3  522   0.291   1.923   0.259 -0.2394 -0.0625  0.4009
  119SOL    MW4  523   0.372   1.918   0.290 -0.0823  0.5593  0.0929
  120SOL     OW  524   0.918   0.779   0.663  0.3541 -0.0418 -0.2020
  120SOL    HW2  525   1.009   0.751   0.659 -0.0512 -1.3482 -0.4991
  120SOL    HW3  526   0.890   0.785   0.572  0.7461  2.4363 -0.1903
  120SOL    MW4  527   0.926   0.776   0.651  0.3523  0.1128 -0.2397
  121SOL     OW  528   2.915   2.277   1.080  0.4457 -0.8205 -0.4775
  121SOL    HW2  529   2.847   2.332   1.121  1.2870 -0.5502  0.5692
  121SOL    HW3  530   2.997   2.316   1.108  1.0473 -1.1254 -1.7903
  121SOL    MW4  531   2.917   2.290   1.089  0.6361 -0.8252 -0.5126
  122SOL     OW  532   4.433   4.515   0.564  0.2124  0.1083 -0.2553
  122SOL    HW2  533   4.398   4.526   0.475 -1.9570 -1.5119  0.3518
  122SOL    HW3  534   4.411   4.425   0.587  1.6767  0.1831  1.5539
  122SOL    MW4  535   4.425   4.505   0.555  0.1202 -0.0954  0.0635
  123SOL     OW  536   0.519   1.419   0.706 -0.3167  0.2124 -0.2961
  123SOL    HW2  537   0.564   1.494   0.746 -3.6309  1.2854  1.6703
  123SOL    HW3  538   0.515   1.354   0.776 -1.5150  0.0496 -0.5000
  123SOL    MW4  539   0.524   1.421   0.721 -0.9122  0.3325 -0.0636
  124SOL     OW  540   2.482   1.459   0.980 -0.2439  0.3259 -0.5035
  124SOL    HW2  541   2.470   1.444   1.074  0.8038 -0.2428 -0.4583
  124SOL    HW3  542   2.535   1.538   0.974 -1.4327  1.1247 -0.6505
  124SOL    MW4  543   2.487   1.467   0.991 -0.2623  0.3562 -0.5170
  125SOL     OW  544   3.117   1.406   0.821 -0.0547  0.3461  0.4307
  125SOL    HW2  545   3.123   1.395   0.726  1.0820  0.4789  0.4758
  125SOL    HW3  546   3.153   1.325   0.857  2.3584  1.5265  0.7416
  125SOL    MW4  547   3.123   1.394   0.813  0.4137  0.5194  0.4777
  126SOL     OW  548   0.897   3.998   1.183 -0.2082 -0.0033  0.0508
  126SOL    HW2  549   0.979   3.949   1.173  0.0004 -0.1957  2.5033
  126SOL    HW3  550   0.910   4.077   1.130  1.3854 -0.2314  0.0703
  126SOL    MW4  551   0.909   4.002   1.174  0.0297 -0.0591  0.3769
  127SOL     OW  552   3.059   2.356   0.670 -0.3852 -0.0429 -0.1608
  127SOL    HW2  553   2.982   2.398   0.630 -0.4251 -0.6557 -0.7382
  127SOL    HW3  554   3.022   2.298   0.736 -0.4653 -0.9148 -0.9685
  127SOL    MW4  555   3.044   2.354   0.673 -0.4013 -0.2387 -0.3436
  128SOL     OW  556   3.064   4.270   0.409  0.4163  0.2831 -0.1018
  128SOL    HW2  557   2.976   4.300   0.388  0.3709 -0.0081 -0.3300
  128SOL    HW3  558   3.074   4.287   0.503  0.5970  1.5289 -0.3395
  128SOL    MW4  559   3.054   4.276   0.419  0.4342  0.4086 -0.1632
  129SOL     OW  560   0.868   3.533   0.446 -0.1054  0.4998 -0.7990
  129SOL    HW2  561   0.801   3.472   0.478  1.3126 -1.0071 -0.6376
  129SOL    HW3  562   0.818   3.609   0.415 -1.6833  0.9520  2.5879
  129SOL    MW4  563   0.852   3.535   0.446 -0.1265  0.3607 -0.3308
  130SOL     OW  564   1.560   2.789   0.274  0.1608 -0.0521 -0.2019
  130SOL    HW2  565   1.481   2.754   0.315  0.2860 -1.7045 -1.3304
  130SOL    HW3  566   1.535   2.877   0.247 -0.2565  0.6788  2.4000
  130SOL    MW4  567   1.546   2.796   0.276  0.1224 -0.1733 -0.0075
  131SOL     OW  568   3.175   4.196   0.795  0.1228 -0.2954  0.1918
  131SOL    HW2  569   3.093   4.228   0.759  0.3846  0.0008 -0.1474
  131SOL    HW3  570   3.242   4.250   0.754  0.4649 -0.3260  0.7033
  131SOL    MW4  571   3.173   4.207   0.785  0.2024 -0.2604  0.2145
  132SOL     OW  572   0.203   0.357   0.894  0.2165  0.1033  0.3465
  132SOL    HW2  573   0.110   0.335   0.901  0.2318 -0.3431 -0.6606
  132SOL    HW3  574   0.208   0.414   0.817  0.7842  0.0875  0.3699
  132SOL    MW4  575   0.191   0.362   0.885  0.2934  0.0423  0.2167
  133SOL     OW  576   3.136   1.359   0.555  0.1775 -0.2329 -0.0920
  133SOL    HW2  577   3.074   1.423   0.519  0.6938  1.0824  1.2990
  133SOL    HW3  578   3.080   1.286   0.583 -0.4139 -0.4232 -1.7058
  133SOL    MW4  579   3.120   1.358   0.554  0.1678 -0.0845 -0.1214
  134SOL     OW  580   2.609   2.039   0.865  0.0724  0.1698 -0.8433
  134SOL    HW2  581   2.608   2.130   0.837  0.2182  0.0575 -1.2174
  134SOL    HW3  582   2.536   1.998   0.818 -0.4449  0.2556 -0.1222
  134SOL    MW4  583   2.600   2.045   0.855  0.0231  0.1664 -0.7976
  135SOL     OW  584   2.072   1.432   0.722  0.3455  0.2959 -0.1273
  135SOL    HW2  585   2.013   1.506   0.717  1.0623  0.7824 -1.5329
  135SOL    HW3  586   2.017   1.359   0.751 -0.8724  0.8177 -1.0761
  135SOL    MW4  587   2.057   1.432   0.725  0.2794  0.4290 -0.4379
  136SOL     OW  588   1.387   4.194   0.361 -0.5927 -0.0521 -0.6069
  136SOL    HW2  589   1.317   4.259   0.370 -0.3371  0.3127 -1.2510
  136SOL    HW3  590   1.341   4.110   0.366 -0.9486  0.1712  0.0334
  136SOL    MW4  591   1.371   4.192   0.363 -0.6061  0.0257 -0.6074
  137SOL     OW  592   2.880   0.769   1.121  0.2388 -0.2042 -0.2757
  137SOL    HW2  593   2.966   0.797   1.153  0.2407  1.3021 -1.5258
  137SOL    HW3  594   2.877   0.800   1.030 -1.6689 -0.1441 -0.2169
  137SOL    MW4  595   2.891   0.777   1.113 -0.0124  0.0024 -0.4328
  138SOL     OW  596   3.757   1.579   0.798 -0.1240 -0.2177  0.2028
  138SOL    HW2  597   3.669   1.575   0.834 -0.0654  1.1248  0.5369
  138SOL    HW3  598   3.779   1.672   0.800  0.4777 -0.2818 -1.8625
  138SOL    MW4  599   3.748   1.591   0.803 -0.0370 -0.0490 -0.0256
  139SOL     OW  600   0.820   1.429   0.571 -0.3471 -0.5564  0.2107
  139SOL    HW2  601   0.826   1.462   0.482  1.9904 -1.2068  0.0828
  139SOL    HW3  602   0.727   1.431   0.592 -0.6159  2.6492 -1.0775
  139SOL    MW4  603   0.809   1.434   0.562 -0.0741 -0.2195  0.0238
  140SOL     OW  604   2.821   4.400   0.440  0.0269 -0.0485 -0.1998
  140SOL    HW2  605   2.858   4.428   0.524 -0.7581 -0.0786  0.1615
  140SOL    HW3  606   2.778   4.478   0.405 -0.5650 -0.3057 -0.0636
  140SOL    MW4  607   2.820   4.414   0.446 -0.1550 -0.0863 -0.1341
  141SOL     OW  608   2.681   1.876   0.360  0.5045 -0.3563  0.2562
  141SOL    HW2  609   2.611   1.911   0.305 -0.3231 -0.2410  1.3819
  141SOL    HW3  610   2.647   1.794   0.394  0.7804 -0.1334  1.0808
  141SOL    MW4  611   2.668   1.870   0.357  0.4318 -0.3117  0.5135
  142SOL     OW  612   2.079   1.681   0.480 -0.0078  0.0981 -0.0193
  142SOL    HW2  613   2.078   1.592   0.445  1.2138 -1.0047  2.6110
  142SOL    HW3  614   2.010   1.681   0.547 -2.2170  2.1280 -2.1643
  142SOL    MW4  615   2.070   1.669   0.484 -0.1383  0.2204  0.0448
  143SOL     OW  616   3.471   3.045   0.767 -0.3480  1.0040 -0.3873
  143SOL    HW2  617   3.565   3.059   0.752 -0.4680  1.9167 -0.2572
  143SOL    HW3  618   3.460   2.950   0.757  0.6390  0.8538 -0.1289
  143SOL    MW4  619   3.482   3.034   0.764 -0.2339  1.1046 -0.3360
  144SOL     OW  620   3.059   3.121   0.904 -0.2662 -0.7252  0.4012
  144SOL    HW2  621   3.097   3.203   0.873 -0.9739 -0.2121  0.8595
  144SOL    HW3  622   3.067   3.061   0.830  0.2682 -0.2411  0.0675
  144SOL    MW4  623   3.065   3.124   0.890 -0.2887 -0.5937  0.4176
  145SOL     OW  624   3.768   4.499   0.869 -0.3081  0.6556 -0.0724
  145SOL    HW2  625   3.676   4.507   0.847 -0.4932 -0.4899  0.2620
  145SOL    HW3  626   3.791   4.408   0.847  0.8338  1.0380 -0.5307
  145SOL    MW4  627   3.759   4.488   0.863 -0.1819  0.5546 -0.0887
  146SOL     OW  628   1.865   1.242   0.779 -0.0736  0.1470 -0.0883
  146SOL    HW2  629   1.861   1.209   0.869 -0.0034 -0.3415 -0.2642
  146SOL    HW3  630   1.926   1.182   0.734 -1.1552 -0.4233 -0.8121
  146SOL    MW4  631   1.873   1.230   0.785 -0.2071  0.0073 -0.2070
  147SOL     OW  632   2.298   1.192   0.467 -0.2904 -0.1575 -0.0261
  147SOL    HW2  633   2.384   1.149   0.470 -0.9002 -1.3487  0.6739
  147SOL    HW3  634   2.237   1.123   0.444 -1.1515  0.5617  0.0768
  147SOL    MW4  635   2.302   1.177   0.465 -0.4845 -0.2197  0.0798
  148SOL     OW  636   2.158   4.291   0.368 -0.8229  0.4785 -0.4628
  148SOL    HW2  637   2.233   4.241   0.337 -0.2050  1.1460 -0.0516
  148SOL    HW3  638   2.127   4.243   0.445 -0.1239  0.8233  0.0354
  148SOL    MW4  639   2.164   4.278   0.374 -0.6490  0.6123 -0.3428
  149SOL     OW  640   2.050   3.617   0.124 -0.3302 -0.2986  0.3409
  149SOL    HW2  641   2.062   3.659   0.039  0.5839 -1.2578 -0.0099
  149SOL    HW3  642   2.005   3.683   0.177  1.3837  1.2626 -0.0927
  149SOL    MW4  643   2.046   3.631   0.120  0.0167 -0.2193  0.2374
  150SOL     OW  644   2.289   3.539   1.181 -0.0319  0.0858 -0.1624
  150SOL    HW2  645   2.343   3.553   1.258 -1.8245  0.6985  1.0101
  150SOL    HW3  646   2.282   3.443   1.174  0.9676  0.0079 -0.1810
  150SOL    MW4  647   2.295   3.528   1.190 -0.1364  0.1564 -0.0104
  151SOL     OW  648   0.481   0.880   1.188  0.4100 -0.2904  0.2200
  151SOL    HW2  649   0.399   0.840   1.160 -0.6755  1.4170  0.9067
  151SOL    HW3  650   0.487   0.961   1.137  1.1801  0.0913  0.9065
  151SOL    MW4  651   0.471   0.885   1.178  0.3684 -0.0147  0.4013
  152SOL     OW  652   2.912   0.521   1.208 -0.1995  0.7062  0.3449
  152SOL    HW2  653   2.994   0.488   1.170 -1.8494 -1.5590 -1.3170
  152SOL    HW3  654   2.900   0.606   1.165  0.8765  0.7145  0.0238
  152SOL    MW4  655   2.921   0.528   1.197 -0.2751  0.4084  0.0834
  153SOL     OW  656   0.280   2.569   0.700 -0.0941 -0.6320 -0.2496
  153SOL    HW2  657   0.266   2.478   0.729 -1.3764 -0.4952 -0.4300
  153SOL    HW3  658   0.217   2.620   0.751  0.7495  0.1800 -0.0280
  153SOL    MW4  659   0.270   2.564   0.710 -0.1520 -0.5069 -0.2441
  154SOL     OW  660   3.414   2.379   1.047 -0.0913 -0.0995  0.2320
  154SOL    HW2  661   3.440   2.303   0.995 -0.2941 -1.1621  1.6644
  154SOL    HW3  662   3.495   2.408   1.089 -0.7576 -2.0814  2.9718
  154SOL    MW4  663   3.429   2.373   1.046 -0.2060 -0.5012  0.7826
  155SOL     OW  664   3.696   2.349   0.716 -0.4640 -0.1831 -0.2720
  155SOL    HW2  665   3.727   2.372   0.629 -0.4369  1.1387  0.0859
  155SOL    HW3  666   3.771   2.307   0.758  0.8114  2.7904  0.5127
  155SOL    MW4  667   3.710   2.346   0.710 -0.2923  0.3834 -0.1213
  156SOL     OW  668   4.180   0.683   0.810  0.3169  0.3711 -0.3380
  156SOL    HW2  669   4.129   0.729   0.743  0.0352  0.7108  0.1105
  156SOL    HW3  670   4.138   0.597   0.816  0.4961  0.2508 -0.7730
  156SOL    MW4  671   4.168   0.678   0.802  0.3037  0.4000 -0.3362
  157SOL     OW  672   1.382   0.253   0.668  0.1280 -0.2176  0.3224
  157SOL    HW2  673   1.311   0.308   0.702 -0.5272 -0.3233 -0.8590
  157SOL    HW3  674   1.338   0.172   0.642  0.7612 -0.4700  0.0456
  157SOL    MW4  675   1.367   0.250   0.669  0.1251 -0.2649  0.1301
  158SOL     OW  676   3.394   4.423   1.149  0.0685 -0.2554 -0.0126
  158SOL    HW2  677   3.475   4.373   1.138  0.1899 -0.0810  0.0907
  158SOL    HW3  678   3.328   4.371   1.103  0.1035 -0.7444  0.4825
  158SOL    MW4  679   3.396   4.409   1.142  0.0894 -0.2971  0.0665
  159SOL     OW  680   1.661   1.562   0.599  0.3470  0.1947 -0.0862
  159SOL    HW2  681   1.588   1.624   0.605  1.1718  0.9955  2.0567
  159SOL    HW3  682   1.649   1.503   0.673  1.5577 -0.0103 -0.0427
  159SOL    MW4  683   1.650   1.563   0.609  0.6155  0.2732  0.2023
  160SOL     OW  684   1.100   2.818   1.478  0.0675 -0.2263 -0.2283
  160SOL    HW2  685   1.121   2.904   1.514 -0.2343  0.1129 -0.8452
  160SOL    HW3  686   1.041   2.778   1.542 -2.4279  1.3453 -1.4786
  160SOL    MW4  687   1.095   2.824   1.491 -0.3016  0.0255 -0.4747
  161SOL     OW  688   4.347   3.849   0.656  0.1945 -0.2069 -0.4738
  161SOL    HW2  689   4.327   3.757   0.671 -0.4943  0.0754  0.4366
  161SOL    HW3  690   4.363   3.884   0.744  2.1003  0.1715 -0.9634
  161SOL    MW4  691   4.346   3.842   0.670  0.3552 -0.1197 -0.4182
  162SOL     OW  692   4.052   0.388   1.105 -0.2302  0.1812 -0.0941
  162SOL    HW2  693   4.131   0.438   1.126 -1.5220  2.0234  0.4370
  162SOL    HW3  694   4.077   0.297   1.120  2.0099  0.6695 -0.6336
  162SOL    MW4  695   4.066   0.382   1.109 -0.1049  0.4887 -0.0955
  163SOL     OW  696   0.357   1.049   0.841 -0.4097  0.1031 -0.3894
  163SOL    HW2  697   0.324   0.961   0.820 -0.2783 -0.4860  1.7138
  163SOL    HW3  698   0.445   1.051   0.803  0.5214 -1.5768  1.5640
  163SOL    MW4  699   0.364   1.037   0.833 -0.2695 -0.1962  0.1458
  164SOL     OW  700   3.483   4.111   0.190  0.4963  0.4371  0.2094
  164SOL    HW2  701   3.536   4.090   0.114 -0.2695 -1.6372  0.2087
  164SOL    HW3  702   3.514   4.052   0.259  0.7331  1.8259  1.3425
  164SOL    MW4  703   3.494   4.101   0.189  0.4263  0.3467  0.3588
  165SOL     OW  704   0.692   3.043   1.084 -0.0905  0.0305 -0.3772
  165SOL    HW2  705   0.694   3.061   0.990 -0.3461 -0.7585 -0.5364
  165SOL    HW3  706   0.760   3.099   1.121  0.6419 -0.3581 -1.1483
  165SOL    MW4  707   0.701   3.053   1.076 -0.0276 -0.1249 -0.5001
  166SOL     OW  708   0.653   1.543   1.079  0.3311  0.4743 -0.1836
  166SOL    HW2  709   0.673   1.465   1.131  0.0752  0.8087  0.4254
  166SOL    HW3  710   0.576   1.581   1.121  0.7517  1.3325 -0.1727
  166SOL    MW4  711   0.645   1.538   1.091  0.3528  0.6317 -0.1017
  167SOL     OW  712   0.362   1.569   0.212  0.0597  0.8248 -0.2702
  167SOL    HW2  713   0.411   1.495   0.177 -0.2599  0.8698 -0.8102
  167SOL    HW3  714   0.430   1.631   0.241  0.3311  1.0007 -1.2637
  167SOL    MW4  715   0.378   1.568   0.212  0.0533  0.8539 -0.4726
  168SOL     OW  716   2.342   1.176   0.818  0.3512 -0.1262 -0.3277
  168SOL    HW2  717   2.278   1.137   0.758  1.0177 -1.6360 -0.0691
  168SOL    HW3  718   2.425   1.136   0.794  0.8693  0.3478  0.6452
  168SOL    MW4  719   2.345   1.166   0.807  0.5074 -0.2629 -0.1652
  169SOL     OW  720   2.940   3.597   1.115 -0.0021 -0.3958 -0.1165
  169SOL    HW2  721   2.942   3.693   1.116  0.0376 -0.3872 -0.8801
  169SOL    HW3  722   2.850   3.575   1.091  0.0245 -0.5530 -0.0742
  169SOL    MW4  723   2.929   3.607   1.112  0.0067 -0.4153 -0.2117
  170SOL     OW  724   3.449   1.410   0.581 -0.7968  0.1564 -0.4158
  170SOL    HW2  725   3.511   1.338   0.595 -1.0363  0.1729  0.7818
  170SOL    HW3  726   3.370   1.368   0.549 -1.2029 -0.2024  1.0494
  170SOL    MW4  727   3.447   1.395   0.578 -0.8821  0.1113 -0.0644
  171SOL     OW  728   3.473   2.511   0.788  0.3180 -0.3516  0.1286
  171SOL    HW2  729   3.559   2.472   0.776  0.8610  0.6836  0.5523
  171SOL    HW3  730   3.439   2.469   0.867  1.0180  0.2377  0.7491
  171SOL    MW4  731   3.480   2.500   0.797  0.4818 -0.1371  0.2664
  172SOL     OW  732   1.897   1.918   0.779  0.2728  0.1841 -0.7633
  172SOL    HW2  733   1.979   1.938   0.824 -0.2619 -0.0399  0.3529
  172SOL    HW3  734   1.899   1.970   0.699  0.9772  1.0819 -0.1656
  172SOL    MW4  735   1.908   1.928   0.775  0.2952  0.2730 -0.5372
  173SOL     OW  736   2.428   3.707   0.462  0.6053 -0.1567  0.5126
  173SOL    HW2  737   2.399   3.656   0.387 -1.9362  1.0773  0.5606
  173SOL    HW3  738   2.383   3.667   0.537  1.6645 -0.2535  1.0982
  173SOL    MW4  739   2.418   3.695   0.462  0.4098 -0.0064  0.5962
  174SOL     OW  740   0.292   1.076   0.270 -0.1186  0.4119 -0.2391
  174SOL    HW2  741   0.211   1.106   0.311 -0.7533  0.3917 -1.4304
  174SOL    HW3  742   0.338   1.028   0.339 -1.5625 -0.3931  0.2061
  174SOL    MW4  743   0.287   1.073   0.284 -0.3929  0.3031 -0.3376
  175SOL     OW  744   2.734   2.981   0.793  0.5447  0.1896 -0.0626
  175SOL    HW2  745   2.762   3.009   0.881 -2.2133  0.9110  0.6185
  175SOL    HW3  746   2.742   2.886   0.794  1.1974  0.2427  0.7079
  175SOL    MW4  747   2.739   2.972   0.805  0.2670  0.2918  0.1289
  176SOL     OW  748   1.261   0.016   0.602  0.5045 -0.2542 -0.0882
  176SOL    HW2  749   1.339  -0.040   0.603  1.1334  0.5951  0.9504
  176SOL    HW3  750   1.199  -0.029   0.659  0.5482 -0.5167 -0.2462
  176SOL    MW4  751   1.263   0.003   0.610  0.5932 -0.1768  0.0279
  177SOL     OW  752   3.507   1.206   0.859  0.0795 -0.1702 -0.4010
  177SOL    HW2  753   3.535   1.165   0.940  1.1333  0.7802 -0.2715
  177SOL    HW3  754   3.523   1.300   0.872  0.2714 -0.0042 -1.7047
  177SOL    MW4  755   3.513   1.213   0.871  0.2439 -0.0228 -0.5559
  178SOL     OW  756   3.194   4.251   1.053 -0.1880 -0.1672  0.1604
  178SOL    HW2  757   3.192   4.217   0.964 -1.2591 -0.8058  0.4128
  178SOL    HW3  758   3.174   4.175   1.108 -0.0375  0.3289  0.9145
  178SOL    MW4  759   3.191   4.237   1.049 -0.3095 -0.1855  0.2931
  179SOL     OW  760   2.630   1.194   1.147 -0.0553 -0.1579  0.0436
  179SOL    HW2  761   2.547   1.238   1.165  0.1295 -0.3102  1.2871
  179SOL    HW3  762   2.697   1.257   1.175  0.2360 -0.3196 -0.2873
  179SOL    MW4  763   2.628   1.208   1.153  0.0074 -0.1993  0.1639
  180SOL     OW  764   0.843   1.245   0.818  0.3158  0.3700  0.1697
  180SOL    HW2  765   0.835   1.321   0.760 -1.8264 -1.0627 -1.4729
  180SOL    HW3  766   0.920   1.198   0.785  1.9475  1.9934  1.4907
  180SOL    MW4  767   0.852   1.249   0.806  0.2484  0.3953  0.1272
  181SOL     OW  768   2.712   3.992   1.184  0.0646  0.1785  0.1793
  181SOL    HW2  769   2.629   3.961   1.146  0.0673  2.5693 -1.9252
  181SOL    HW3  770   2.779   3.943   1.138 -0.0752  0.4536 -0.3214
  181SOL    MW4  771   2.710   3.981   1.173  0.0463  0.5302 -0.1643
  182SOL     OW  772   1.260   0.208   0.263 -0.4514  0.2816 -0.2010
  182SOL    HW2  773   1.267   0.224   0.169 -0.2591  0.6997 -0.1163
  182SOL    HW3  774   1.203   0.277   0.295 -0.8899 -0.1376 -0.0813
  182SOL    MW4  775   1.254   0.219   0.255 -0.4840  0.2815 -0.1740
  183SOL     OW  776   4.230   1.520   1.069 -1.0861  0.2820 -0.4613
  183SOL    HW2  777   4.220   1.433   1.107  0.6296 -0.1156 -0.8616
  183SOL    HW3  778   4.272   1.504   0.984 -2.8362  1.3269 -1.5605
  183SOL    MW4  779   4.234   1.507   1.063 -1.0905  0.3674 -0.6592
  184SOL     OW  780   0.706   0.754   1.117 -0.1421  0.2627 -0.3945
  184SOL    HW2  781   0.709   0.662   1.145 -0.6377 -0.4109 -2.4270
  184SOL    HW3  782   0.622   0.786   1.151 -1.3121 -0.9007 -2.0331
  184SOL    MW4  783   0.695   0.746   1.125 -0.3618  0.0203 -0.8790
  185SOL     OW  784   0.416   0.930   0.475 -0.1818  0.4418  0.1363
  185SOL    HW2  785   0.446   0.845   0.444 -0.2423 -0.4143  2.3049
  185SOL    HW3  786   0.494   0.971   0.513 -0.4480  0.7505  0.3553
  185SOL    MW4  787   0.430   0.924   0.476 -0.2249  0.3696  0.4514
  186SOL     OW  788   1.319   0.870   0.256 -0.2402 -0.2882  0.6527
  186SOL    HW2  789   1.392   0.931   0.263  0.5866 -1.3802  1.9797
  186SOL    HW3  790   1.316   0.847   0.163  1.9594 -1.1934  0.7514
  186SOL    MW4  791   1.328   0.875   0.244  0.1593 -0.5517  0.8408
  187SOL     OW  792   0.010   4.308   1.115 -0.1744 -0.2287  0.4444
  187SOL    HW2  793   0.012   4.220   1.155 -1.0968  0.2037  1.4927
  187SOL    HW3  794   0.098   4.342   1.129  0.0030 -0.7402  0.6260
  187SOL    MW4  795   0.021   4.301   1.122 -0.2728 -0.2389  0.6067
  188SOL     OW  796   3.415   3.692   0.462 -0.3694 -0.0139 -0.0895
  188SOL    HW2  797   3.398   3.623   0.525 -0.3979  1.4659  1.5810
  188SOL    HW3  798   3.370   3.664   0.383 -0.3658 -1.8925  0.5489
  188SOL    MW4  799   3.407   3.679   0.460 -0.3726 -0.0668  0.2151
  189SOL     OW  800   3.427   0.123   0.413 -0.2681 -0.3248 -0.0658
  189SOL    HW2  801   3.355   0.062   0.429 -0.9995  0.3465 -0.7350
  189SOL    HW3  802   3.506   0.069   0.416 -0.7314 -0.9454  1.3881
  189SOL    MW4  803   3.428   0.108   0.415 -0.4258 -0.3181  0.0378
  190SOL     OW  804   2.388   1.914   0.737 -0.4462 -0.3430 -0.0618
  190SOL    HW2  805   2.365   1.836   0.686 -0.4653 -0.8235  0.6815
  190SOL    HW3  806   2.320   1.920   0.804  1.0220 -1.1839  1.5133
  190SOL    MW4  807   2.376   1.905   0.739 -0.2551 -0.5174  0.2440
  191SOL     OW  808   0.514   0.654   0.732 -0.4198 -0.6010  0.6765
  191SOL    HW2  809   0.585   0.710   0.763 -0.6098 -0.3613  0.6822
  191SOL    HW3  810   0.541   0.565   0.754  0.5225 -0.6373 -0.5607
  191SOL    MW4  811   0.527   0.650   0.739 -0.3205 -0.5742  0.5140
  192SOL     OW  812   0.849   2.434   0.462 -0.0852  0.4223  0.2744
  192SOL    HW2  813   0.870   2.524   0.435 -0.1107 -0.2636 -2.1114
  192SOL    HW3  814   0.759   2.421   0.433 -0.2213 -0.2640  0.9845
  192SOL    MW4  815   0.840   2.444   0.455 -0.1065  0.2410  0.0533
  193SOL     OW  816   2.390   4.464   0.664 -0.2242  0.0814  0.0770
  193SOL    HW2  817   2.449   4.389   0.670  0.1673  0.3265 -0.6782
  193SOL    HW3  818   2.433   4.533   0.714  0.6949  0.6150 -1.4140
  193SOL    MW4  819   2.404   4.464   0.672 -0.0513  0.1841 -0.2193
  194SOL     OW  820   4.424   1.705   0.454  0.1360 -0.0898 -0.0454
  194SOL    HW2  821   4.353   1.675   0.511  0.8429  1.1331  1.4994
  194SOL    HW3  822   4.478   1.627   0.440 -0.0500 -0.4040  0.9463
  194SOL    MW4  823   4.421   1.691   0.460  0.2050  0.0300  0.2893
  195SOL     OW  824   2.727   2.406   0.361  0.0985  0.3745 -0.3186
  195SOL    HW2  825   2.775   2.489   0.353  0.2696  0.4790  1.5448
  195SOL    HW3  826   2.785   2.341   0.323  0.6259  0.8866 -0.3973
  195SOL    MW4  827   2.741   2.408   0.355  0.1907  0.4559 -0.0832
  196SOL     OW  828   0.697   4.387   1.171 -0.1827  0.1407  0.0428
  196SOL    HW2  829   0.620   4.332   1.157 -1.5079  1.6132  1.2229
  196SOL    HW3  830   0.699   4.400   1.266  1.3603  0.3565 -0.0113
  196SOL    MW4  831   0.687   4.382   1.182 -0.1539  0.3638  0.1916
  197SOL     OW  832   2.632   0.618   0.724  0.0594  0.0502 -0.5589
  197SOL    HW2  833   2.682   0.550   0.768 -0.1317  0.7033  0.7040
  197SOL    HW3  834   2.697   0.681   0.696  0.1376 -0.1073 -0.7275
  197SOL    MW4  835   2.647   0.617   0.726  0.0446  0.1156 -0.4146
  198SOL     OW  836   2.028   3.834   1.018  0.2751  0.3513 -0.0687
  198SOL    HW2  837   1.978   3.908   1.050  1.3033  0.9326  0.2047
  198SOL    HW3  838   2.027   3.771   1.090  0.9257  0.8413  0.3612
  198SOL    MW4  839   2.021   3.835   1.032  0.4964  0.4926  0.0241
  199SOL     OW  840   0.276   1.453   0.590 -0.2340 -0.2434 -0.1548
  199SOL    HW2  841   0.366   1.447   0.621 -0.1426 -0.4359 -0.4527
  199SOL    HW3  842   0.230   1.503   0.658  0.3789  0.9349 -0.5934
  199SOL    MW4  843   0.282   1.459   0.603 -0.1411 -0.1134 -0.2519
  200SOL     OW  844   0.169   1.214   0.684  0.4814  0.5378 -0.6074
  200SOL    HW2  845   0.215   1.293   0.656 -0.0621  0.9204 -0.4314
  200SOL    HW3  846   0.226   1.175   0.750  0.9198  0.5893 -0.9556
  200SOL    MW4  847   0.182   1.220   0.689  0.4675  0.5951 -0.6301
  201SOL     OW  848   3.291   2.489   0.571 -0.6018  0.3021  0.7238
  201SOL    HW2  849   3.360   2.487   0.637  0.9575 -2.2981 -0.9166
  201SOL    HW3  850   3.218   2.441   0.611  0.5469 -1.7756  0.3383
  201SOL    MW4  851   3.290   2.483   0.585 -0.2446 -0.3147  0.4565
  202SOL     OW  852   1.335   2.752   1.129 -0.2898  0.1005 -0.2875
  202SOL    HW2  853   1.366   2.745   1.039  1.8353  0.3166  0.3850
  202SOL    HW3  854   1.332   2.661   1.160  0.4747  0.1302 -0.1125
  202SOL    MW4  855   1.339   2.739   1.121  0.0914  0.1328 -0.1756
  203SOL     OW  856   0.198   4.575   0.641  0.1040  0.3673  0.6350
  203SOL    HW2  857   0.105   4.573   0.618  0.5032  1.9268 -1.2402
  203SOL    HW3  858   0.208   4.655   0.693  0.2007 -0.3938  1.8039
  203SOL    MW4  859   0.187   4.586   0.645  0.1694  0.4730  0.5418
  204SOL     OW  860   2.128   0.972   0.433  0.0648  0.0257  0.6095
  204SOL    HW2  861   2.186   0.897   0.420  0.1904  0.1620  0.3879
  204SOL    HW3  862   2.040   0.937   0.415  0.2217  0.1844 -0.5199
  204SOL    MW4  863   2.124   0.957   0.429  0.1020  0.0646  0.4313
  205SOL     OW  864   3.205   0.507   0.628 -0.0022  0.1459 -0.1227
  205SOL    HW2  865   3.286   0.468   0.596  0.6495  0.6036  0.9472
  205SOL    HW3  866   3.176   0.449   0.698 -0.8573 -0.2691 -0.8060
  205SOL    MW4  867   3.212   0.495   0.633 -0.0288  0.1515 -0.0717
  206SOL     OW  868   4.275   3.911   1.121 -0.1632  0.1121  0.1041
  206SOL    HW2  869   4.287   3.819   1.145  1.1500  0.4239  0.6605
  206SOL    HW3  870   4.188   3.933   1.154 -1.1337 -1.3437 -1.3733
  206SOL    MW4  871   4.265   3.902   1.129 -0.1183 -0.0389 -0.0173
  207SOL     OW  872   2.659   4.189   0.442 -0.4070  0.0636 -0.0358
  207SOL    HW2  873   2.709   4.109   0.430 -0.6677 -0.0194 -0.5957
  207SOL    HW3  874   2.722   4.260   0.428 -0.1321 -0.0462  0.6684
  207SOL    MW4  875   2.674   4.188   0.438 -0.4051  0.0386 -0.0167
  208SOL     OW  876   1.177   1.405   0.193 -0.3206  0.3971 -0.0384
  208SOL    HW2  877   1.160   1.481   0.248 -1.6002 -0.1758  0.3813
  208SOL    HW3  878   1.098   1.351   0.202  0.5914 -1.0003 -0.2881
  208SOL    MW4  879   1.164   1.408   0.202 -0.3691  0.1372 -0.0159
  209SOL     OW  880   2.936   2.802   1.153 -0.0438  0.2085 -0.0114
  209SOL    HW2  881   2.943   2.812   1.248 -1.5230 -0.4877  0.1820
  209SOL    HW3  882   2.851   2.760   1.140  0.5300 -0.4710 -1.5896
  209SOL    MW4  883   2.926   2.798   1.164 -0.1633  0.0269 -0.1940
  210SOL     OW  884   3.202   3.269   0.364  0.4159  0.2273 -0.1885
  210SOL    HW2  885   3.168   3.355   0.387  1.2926  1.1461 -2.1556
  210SOL    HW3  886   3.256   3.243   0.438 -0.7964  0.8594  0.9181
  210SOL    MW4  887   3.205   3.277   0.377  0.3717  0.4320 -0.3020
  211SOL     OW  888   0.437   1.903   1.020  0.4342  0.0399 -0.2878
  211SOL    HW2  889   0.512   1.946   1.059 -0.1806  1.3942 -0.5720
  211SOL    HW3  890   0.446   1.919   0.926  0.6903 -1.2587 -0.5026
  211SOL    MW4  891   0.448   1.911   1.013  0.3869  0.0471 -0.3536
  212SOL     OW  892   1.852   0.910   0.386 -0.1582 -0.0576 -0.3169
  212SOL    HW2  893   1.854   0.979   0.321 -0.2330 -0.3586 -0.6382
  212SOL    HW3  894   1.778   0.932   0.442 -0.4190 -0.0883 -0.6491
  212SOL    MW4  895   1.843   0.922   0.385 -0.2025 -0.1014 -0.4031
  213SOL     OW  896   0.408   4.229   0.805  0.3329  0.6481 -0.1308
  213SOL    HW2  897   0.325   4.266   0.775  0.6365  0.6079 -1.0297
  213SOL    HW3  898   0.402   4.136   0.784  0.7771  0.7222 -0.5755
  213SOL    MW4  899   0.396   4.222   0.798  0.4316  0.6523 -0.3080
  214SOL     OW  900   1.806   0.358   1.081 -0.3563  0.1338 -0.7524
  214SOL    HW2  901   1.886   0.407   1.102 -0.5233 -0.5065  1.5516
  214SOL    HW3  902   1.796   0.368   0.986  1.3196  1.9323 -0.7795
  214SOL    MW4  903   1.815   0.365   1.071 -0.1572  0.2866 -0.4520
  215SOL     OW  904   1.448   3.462   0.888  0.4420 -0.1571  0.2672
  215SOL    HW2  905   1.368   3.436   0.843  0.9433 -1.5310  0.1584
  215SOL    HW3  906   1.420   3.482   0.977 -0.0343 -0.5003  0.1937
  215SOL    MW4  907   1.433   3.461   0.894  0.4451 -0.3836  0.2431
  216SOL     OW  908   4.166   3.152   1.201  0.7282 -0.2655  0.5835
  216SOL    HW2  909   4.125   3.186   1.281 -0.8410  0.1281 -0.3609
  216SOL    HW3  910   4.167   3.057   1.214 -4.7322 -0.7908 -1.1788
  216SOL    MW4  911   4.160   3.144   1.213 -0.1993 -0.2830  0.2263
  217SOL     OW  912   3.122   0.156   1.199  0.6740  0.3267  0.2890
  217SOL    HW2  913   3.059   0.096   1.160  1.7707 -0.0303 -1.0091
  217SOL    HW3  914   3.119   0.138   1.293 -0.1542 -0.6291  0.0820
  217SOL    MW4  915   3.114   0.146   1.206  0.7095  0.1534  0.0905
  218SOL     OW  916   2.055   3.723   0.760  0.1676  0.2046 -0.5688
  218SOL    HW2  917   2.012   3.785   0.701 -0.1391 -0.0567 -0.6236
  218SOL    HW3  918   2.051   3.764   0.846 -0.4421  0.0567 -0.5241
  218SOL    MW4  919   2.049   3.736   0.763  0.0467  0.1507 -0.5701
  219SOL     OW  920   2.464   3.408   0.691  0.4244 -0.4717 -0.1165
  219SOL    HW2  921   2.405   3.483   0.688  1.0408 -0.0232 -1.5116
  219SOL    HW3  922   2.433   3.355   0.765 -1.2577  0.1298 -0.3807
  219SOL    MW4  923   2.453   3.411   0.700  0.2837 -0.3333 -0.3354
  220SOL     OW  924   2.185   4.542   0.501  0.1691  0.2122  0.4339
  220SOL    HW2  925   2.173   4.471   0.437 -1.0776  0.7333  0.0649
  220SOL    HW3  926   2.255   4.512   0.558 -0.1528 -1.1978  0.0998
  220SOL    MW4  927   2.193   4.529   0.500 -0.0377  0.0949  0.3411
  221SOL     OW  928   0.589   1.745   0.567 -0.2377  0.2645 -0.3561
  221SOL    HW2  929   0.504   1.791   0.569 -0.5981 -0.4579  1.7426
  221SOL    HW3  930   0.609   1.728   0.659  1.6143 -0.6636 -0.9218
  221SOL    MW4  931   0.580   1.749   0.579 -0.0409  0.0466 -0.1538
  222SOL     OW  932   0.713   3.803   0.403 -0.6094  0.1419  0.5025
  222SOL    HW2  933   0.627   3.762   0.394 -1.3389  1.4380  1.3353
  222SOL    HW3  934   0.717   3.829   0.496  0.7597 -0.0798  0.5157
  222SOL    MW4  935   0.702   3.801   0.414 -0.5251  0.2835  0.6141
  223SOL     OW  936   3.835   3.878   1.059 -0.1579  0.1130  0.4008
  223SOL    HW2  937   3.802   3.891   0.969 -0.8331  1.4217  0.8104
  223SOL    HW3  938   3.810   3.788   1.081  0.2748 -0.3193 -0.8315
  223SOL    MW4  939   3.827   3.868   1.050 -0.1898  0.2286  0.2922
  224SOL     OW  940   3.376   0.102   0.790  0.6060  0.4051 -0.1098
  224SOL    HW2  941   3.435   0.177   0.784  1.4446 -0.1514  0.9745
  224SOL    HW3  942   3.365   0.088   0.884 -1.4068  0.6103 -0.3042
  224SOL    MW4  943   3.383   0.110   0.801  0.4513  0.3588  0.0077
  225SOL     OW  944   3.279   1.802   0.353 -0.3342  0.1988  0.1002
  225SOL    HW2  945   3.280   1.894   0.379  1.0395 -0.1523  1.4004
  225SOL    HW3  946   3.188   1.776   0.362 -0.5474  1.1506  0.8016
  225SOL    MW4  947   3.267   1.811   0.358 -0.1810  0.2779  0.3643
  226SOL     OW  948   0.331   4.215   0.364  0.1214  0.1575 -0.1542
  226SOL    HW2  949   0.244   4.215   0.405  0.5678  0.6103  0.7988
  226SOL    HW3  950   0.370   4.132   0.391 -0.2187 -0.3022 -1.0422
  226SOL    MW4  951   0.325   4.204   0.373  0.1354  0.1569 -0.1456
  227SOL     OW  952   0.081   1.202   0.413  0.0780  0.4874  0.0530
  227SOL    HW2  953   0.097   1.288   0.374 -0.1596  0.2003 -0.6802
  227SOL    HW3  954   0.129   1.205   0.497  1.9207  0.5422 -0.9666
  227SOL    MW4  955   0.090   1.214   0.419  0.2898  0.4568 -0.1783
  228SOL     OW  956   3.008   0.016   0.267 -0.5725 -0.3613 -0.2587
  228SOL    HW2  957   3.073  -0.052   0.284  0.8535  0.7190 -1.3946
  228SOL    HW3  958   3.053   0.098   0.285 -1.4158  0.4226 -1.6619
  228SOL    MW4  959   3.022   0.018   0.272 -0.4957 -0.1155 -0.5937
  229SOL     OW  960   0.299   4.642   0.384 -0.4751 -0.4141  0.3995
  229SOL    HW2  961   0.366   4.583   0.350 -0.7151 -1.5389  1.8362
  229SOL    HW3  962   0.280   4.608   0.472 -0.9919  1.4871  1.0377
  229SOL    MW4  963   0.306   4.630   0.391 -0.5750 -0.3114  0.6733
  230SOL     OW  964   2.964   1.130   0.949 -0.2060 -0.4160 -0.1100
  230SOL    HW2  965   3.033   1.095   1.006 -0.9200 -0.0092  1.0166
  230SOL    HW3  966   2.909   1.054   0.930  0.3913 -0.6886 -0.8033
  230SOL    MW4  967   2.966   1.115   0.954 -0.2213 -0.3983 -0.0529
  231SOL     OW  968   0.703   2.394   0.854  0.2696  0.2875  0.2226
  231SOL    HW2  969   0.669   2.348   0.930 -0.3924 -0.7113 -0.6657
  231SOL    HW3  970   0.642   2.466   0.839 -0.8948 -0.8729 -0.7299
  231SOL    MW4  971   0.691   2.398   0.862  0.0287  0.0029 -0.0203
  232SOL     OW  972   1.318   0.083   1.181 -0.5753  0.3199  0.0826
  232SOL    HW2  973   1.396   0.035   1.155 -0.5435  0.3452  0.1327
  232SOL    HW3  974   1.245   0.027   1.152 -0.5315 -0.2394  1.0347
  232SOL    MW4  975   1.319   0.069   1.174 -0.5654  0.2494  0.2148
  233SOL     OW  976   3.993   2.686   0.825 -0.2863 -0.1944 -0.3486
  233SOL    HW2  977   4.040   2.762   0.792 -1.6175  0.2631 -1.1828
  233SOL    HW3  978   4.037   2.611   0.784  0.5190  0.1433 -0.1274
  233SOL    MW4  979   4.005   2.686   0.815 -0.3557 -0.0896 -0.4295
  234SOL     OW  980   0.023   2.242   0.696  0.1156 -0.6602 -0.4603
  234SOL    HW2  981   0.109   2.266   0.730 -0.5918  0.3898  0.6298
  234SOL    HW3  982  -0.009   2.174   0.756 -0.9305  0.8559  0.7376
  234SOL    MW4  983   0.030   2.236   0.708 -0.1158 -0.3216 -0.1584
  235SOL     OW  984   4.301   2.478   0.487 -0.2570 -0.6499  0.4554
  235SOL    HW2  985   4.377   2.428   0.456 -0.6159 -0.9690  0.0925
  235SOL    HW3  986   4.227   2.420   0.474 -1.2090  1.2766 -3.4057
  235SOL    MW4  987   4.302   2.464   0.481 -0.4296 -0.4377 -0.1020
  236SOL     OW  988   0.122   3.403   0.407  0.0498 -0.2026  0.1361
  236SOL    HW2  989   0.076   3.411   0.490  0.3205  1.5660  0.1289
  236SOL    HW3  990   0.208   3.368   0.431 -0.1714 -0.5069  0.4934
  236SOL    MW4  991   0.128   3.399   0.421  0.0563 -0.0093  0.1823
  237SOL     OW  992   2.482   0.805   0.876  0.1230  0.1388 -0.0352
  237SOL    HW2  993   2.512   0.887   0.836 -1.2083  0.2547 -0.8517
  237SOL    HW3  994   2.535   0.737   0.835  0.6898  0.5286  0.0562
  237SOL    MW4  995   2.493   0.807   0.865  0.0224  0.2055 -0.1309
  238SOL     OW  996   2.670   0.929   1.221  0.7888  0.0733 -0.1386
  238SOL    HW2  997   2.747   0.891   1.180 -0.2399 -1.9023 -0.3136
  238SOL    HW3  998   2.652   1.009   1.171  1.0446 -0.9726 -1.9284
  238SOL    MW4  999   2.678   0.935   1.209  0.6864 -0.3254 -0.3978
  239SOL     OW 1000   1.522   1.058   0.278 -0.0084  0.1534  0.2769
  239SOL    HW2 1001   1.555   1.029   0.362  0.5836 -0.7090 -0.2453
  239SOL    HW3 1002   1.483   1.144   0.295  1.1732  0.5129  1.1901
  239SOL    MW4 1003   1.521   1.065   0.291  0.2257  0.0871  0.3285
  240SOL     OW 1004   3.133   0.837   1.242  0.2382  0.8306  0.0355
  240SOL    HW2 1005   3.153   0.836   1.335  1.3769  0.6820 -0.1995
  240SOL    HW3 1006   3.156   0.925   1.213  0.5418  0.6663 -0.2328
  240SOL    MW4 1007   3.139   0.848   1.250  0.4284  0.7893 -0.0309
  241SOL     OW 1008   2.838   3.953   0.454  0.3642 -0.5189  0.2407
  241SOL    HW2 1009   2.931   3.942   0.434  0.1724  0.3966 -1.2121
  241SOL    HW3 1010   2.801   3.865   0.444  0.8813 -0.6818 -0.2438
  241SOL    MW4 1011   2.845   3.940   0.450  0.4072 -0.4194 -0.0149
  242SOL     OW 1012   2.915   2.013   1.213  0.4515 -0.4207 -0.1470
  242SOL    HW2 1013   2.915   2.004   1.308 -1.2223 -1.5245 -0.2229
  242SOL    HW3 1014   2.895   2.105   1.197  0.1209 -0.3657  0.5758
  242SOL    MW4 1015   2.912   2.024   1.223  0.1869 -0.5589 -0.0616
  243SOL     OW 1016   1.583   3.225   0.822  0.4300 -0.2017 -0.1399
  243SOL    HW2 1017   1.559   3.174   0.900  1.5859 -1.6746 -0.7238
  243SOL    HW3 1018   1.561   3.316   0.845 -0.4785 -0.7887  1.3922
  243SOL    MW4 1019   1.577   3.231   0.835  0.4627 -0.4735 -0.0147
  244SOL     OW 1020   0.854   1.536   0.314 -0.1682  0.5437 -0.2846
  244SOL    HW2 1021   0.776   1.583   0.286 -0.2228  0.5707 -0.0920
  244SOL    HW3 1022   0.851   1.453   0.267 -1.1759 -0.1392  0.9319
  244SOL    MW4 1023   0.844   1.531   0.304 -0.3084  0.4572 -0.0987
  245SOL     OW 1024   3.815   0.488   1.194 -0.5086  0.0255 -0.0838
  245SOL    HW2 1025   3.795   0.564   1.140 -0.3392 -0.1528 -0.4012
  245SOL    HW3 1026   3.892   0.449   1.153  0.1659  0.3962  0.8088
  245SOL    MW4 1027   3.822   0.493   1.182 -0.3972  0.0508 -0.0079
  246SOL     OW 1028   4.390   1.442   0.834  0.2136 -0.1061  0.0631
  246SOL    HW2 1029   4.387   1.346   0.830 -1.6885 -0.1111  1.2110
  246SOL    HW3 1030   4.322   1.470   0.772  0.0706  0.4761  0.4858
  246SOL    MW4 1031   4.381   1.433   0.825 -0.0563 -0.0298  0.2703
  247SOL     OW 1032   0.378   1.911   0.574  0.0942  0.1376 -0.3088
  247SOL    HW2 1033   0.291   1.874   0.591 -1.3772  2.4369 -2.3936
  247SOL    HW3 1034   0.383   1.915   0.478  1.1684  3.0175 -0.1515
  247SOL    MW4 1035   0.367   1.906   0.563  0.0418  0.8210 -0.5631
  248SOL     OW 1036   4.312   4.253   0.529  0.2846  0.0633 -0.5598
  248SOL    HW2 1037   4.255   4.189   0.572 -1.0831  0.3715 -1.8664
  248SOL    HW3 1038   4.252   4.307   0.478  1.6430  1.1445 -1.0274
  248SOL    MW4 1039   4.296   4.252   0.528  0.2837  0.2465 -0.7939
  249SOL     OW 1040   0.475   3.437   1.161  0.0921  0.0708  0.3112
  249SOL    HW2 1041   0.452   3.347   1.184  1.5365 -0.0270  1.5140
  249SOL    HW3 1042   0.396   3.488   1.180 -0.8654 -0.9971 -0.7605
  249SOL    MW4 1043   0.462   3.432   1.167  0.1563 -0.0832  0.3285
  250SOL     OW 1044   1.022   2.238   0.358 -0.2617 -0.1187 -0.6418
  250SOL    HW2 1045   0.965   2.300   0.403 -1.3099 -1.0425 -0.7072
  250SOL    HW3 1046   1.035   2.277   0.271 -0.7382  0.1224 -0.6071
  250SOL    MW4 1047   1.016   2.251   0.352 -0.4629 -0.2089 -0.6459
  251SOL     OW 1048   3.827   3.126   0.995  0.0849  0.4859  0.0991
  251SOL    HW2 1049   3.891   3.197   0.986  0.1895  0.3103 -0.5781
  251SOL    HW3 1050   3.763   3.160   1.058 -0.0318  1.3157 -0.4546
  251SOL    MW4 1051   3.827   3.140   1.002  0.0832  0.5722 -0.0634
  252SOL     OW 1052   2.206   4.294   0.788  0.2364 -0.2850 -0.0435
  252SOL    HW2 1053   2.233   4.283   0.879  0.8313  0.8707 -0.0682
  252SOL    HW3 1054   2.268   4.358   0.752 -0.5757 -0.0186 -0.9937
  252SOL    MW4 1055   2.218   4.301   0.795  0.2081 -0.0973 -0.1722
  253SOL     OW 1056   3.554   0.309   0.799 -0.4283  0.1418  0.0302
  253SOL    HW2 1057   3.648   0.292   0.790 -0.4247 -0.2236  0.7868
  253SOL    HW3 1058   3.531   0.355   0.718  0.6556  1.3949  0.4129
  253SOL    MW4 1059   3.563   0.313   0.787 -0.2847  0.2589  0.1805
  254SOL     OW 1060   2.271   0.096   1.176  0.1733  0.4964  0.1062
  254SOL    HW2 1061   2.184   0.060   1.155  0.9511 -0.1462 -2.1508
  254SOL    HW3 1062   2.261   0.190   1.161  0.0127  0.3549 -0.7102
  254SOL    MW4 1063   2.258   0.104   1.171  0.2546  0.3930 -0.2995
  255SOL     OW 1064   1.123   3.110   1.169 -0.1279  0.2307 -0.7442
  255SOL    HW2 1065   1.100   3.018   1.182 -0.0486  0.0318 -1.9122
  255SOL    HW3 1066   1.115   3.123   1.074 -0.4059  1.5027 -0.5469
  255SOL    MW4 1067   1.119   3.099   1.158 -0.1540  0.3722 -0.8721
  256SOL     OW 1068   1.253   2.118   0.489 -0.3206 -0.2102  0.5282
  256SOL    HW2 1069   1.189   2.176   0.448  0.9550  0.3052 -0.7809
  256SOL    HW3 1070   1.252   2.039   0.436  0.6051  0.0657  0.0840
  256SOL    MW4 1071   1.245   2.115   0.476 -0.0304 -0.1056  0.2969
  257SOL     OW 1072   3.512   2.794   0.276 -0.1348 -0.4647  0.0192
  257SOL    HW2 1073   3.447   2.777   0.344 -0.3503 -2.6812 -0.6813
  257SOL    HW3 1074   3.480   2.745   0.200  0.8367  0.8080 -1.2293
  257SOL    MW4 1075   3.499   2.785   0.275 -0.0350 -0.5891 -0.2379
  258SOL     OW 1076   0.669   3.089   0.821  0.5225  0.4015  0.1691
  258SOL    HW2 1077   0.762   3.104   0.808  0.5397  0.4963  0.3874
  258SOL    HW3 1078   0.654   3.000   0.789  0.7556  0.2584  0.4514
  258SOL    MW4 1079   0.679   3.079   0.815  0.5555  0.3953  0.2352
  259SOL     OW 1080   3.771   0.744   1.064  0.8850  0.1473 -0.1245
  259SOL    HW2 1081   3.844   0.796   1.097 -0.1811  1.0413  0.8823
  259SOL    HW3 1082   3.696   0.773   1.116 -0.8836  1.6538 -3.3661
  259SOL    MW4 1083   3.770   0.755   1.075  0.5112  0.4641 -0.4194
  260SOL     OW 1084   3.219   2.030   0.876 -0.4150  0.3230 -0.7654
  260SOL    HW2 1085   3.230   1.954   0.819  0.3583  0.6705 -1.0880
  260SOL    HW3 1086   3.304   2.074   0.875 -0.9035  1.3032 -0.7525
  260SOL    MW4 1087   3.232   2.026   0.868 -0.3777  0.4981 -0.8063
  261SOL     OW 1088   0.662   2.923   0.462 -0.1750  0.3499  0.2512
  261SOL    HW2 1089   0.736   2.983   0.467  0.7673 -0.7640 -0.1368
  261SOL    HW3 1090   0.651   2.892   0.552 -0.0153  0.3324  0.2656
  261SOL    MW4 1091   0.670   2.927   0.475 -0.0295  0.2005  0.2019
  262SOL     OW 1092   0.013   1.626   1.176 -0.0880  0.0395 -0.0971
  262SOL    HW2 1093  -0.014   1.617   1.268  0.6794 -1.2742  0.0172
  262SOL    HW3 1094  -0.053   1.577   1.127  0.6224 -0.9915 -0.0473
  262SOL    MW4 1095   0.001   1.618   1.182  0.1070 -0.2699 -0.0755
  263SOL     OW 1096   1.296   3.039   0.395 -0.3340 -0.2651 -0.6528
  263SOL    HW2 1097   1.360   3.021   0.464 -0.3678  0.2883 -0.4736
  263SOL    HW3 1098   1.347   3.046   0.315 -0.0533  1.1504 -0.3568
  263SOL    MW4 1099   1.311   3.037   0.394 -0.3015 -0.0055 -0.5901
  264SOL     OW 1100   3.568   3.065   0.360  0.6113 -0.3191 -0.1711
  264SOL    HW2 1101   3.543   2.979   0.326  0.8188 -0.0058 -1.1481
  264SOL    HW3 1102   3.522   3.127   0.302 -0.4145  0.2219  1.1917
  264SOL    MW4 1103   3.558   3.062   0.348  0.5031 -0.2065 -0.1202
  265SOL     OW 1104   4.480   3.472   1.098 -0.1718 -0.3991  0.0927
  265SOL    HW2 1105   4.492   3.378   1.115 -0.2011 -0.3377  0.4639
  265SOL    HW3 1106   4.525   3.488   1.016 -0.7175 -0.8694 -0.2981
  265SOL    MW4 1107   4.487   3.462   1.090 -0.2480 -0.4530  0.0902
  266SOL     OW 1108   0.436   0.210   0.465  0.5128 -0.2877  0.5373
  266SOL    HW2 1109   0.374   0.144   0.434 -2.1398  1.3660  2.1446
  266SOL    HW3 1110   0.453   0.185   0.556  0.9832  0.1913  0.5849
  266SOL    MW4 1111   0.430   0.198   0.473  0.2249 -0.0064  0.7557
  267SOL     OW 1112   4.106   4.417   0.386 -0.0991 -0.1333 -0.2237
  267SOL    HW2 1113   4.068   4.462   0.461 -0.9686  0.0752 -0.7742
  267SOL    HW3 1114   4.157   4.484   0.341  0.9914 -0.4283  0.5506
  267SOL    MW4 1115   4.108   4.432   0.390 -0.0696 -0.1445 -0.1941
  268SOL     OW 1116   3.169   3.369   0.830  0.0869  0.1595  0.1701
  268SOL    HW2 1117   3.112   3.430   0.784 -0.0034  0.2398  0.3878
  268SOL    HW3 1118   3.190   3.412   0.913  0.7643  0.2882 -0.0654
  268SOL    MW4 1119   3.165   3.382   0.835  0.1643  0.1869  0.1677
  269SOL     OW 1120   3.034   2.137   0.472  0.0605  0.0306 -0.3082
  269SOL    HW2 1121   2.956   2.151   0.418  0.1506 -0.9445 -0.7053
  269SOL    HW3 1122   3.039   2.215   0.527 -0.0936  1.0058 -1.6401
  269SOL    MW4 1123   3.024   2.150   0.472  0.0520  0.0305 -0.5363
  270SOL     OW 1124   1.586   2.844   1.203 -0.1203 -0.1333 -0.4562
  270SOL    HW2 1125   1.496   2.813   1.195 -0.4828  0.0734  2.2848
  270SOL    HW3 1126   1.582   2.936   1.179 -0.6178 -0.1363 -0.3874
  270SOL    MW4 1127   1.574   2.852   1.199 -0.2339 -0.1066 -0.0855
  271SOL     OW 1128   1.630   3.289   0.195 -0.3525  0.4820  0.1608
  271SOL    HW2 1129   1.565   3.344   0.239 -0.9413  0.8526 -1.1742
  271SOL    HW3 1130   1.713   3.336   0.207 -0.8041  1.5128 -0.6975
  271SOL    MW4 1131   1.632   3.302   0.203 -0.4896  0.6671 -0.1285
  272SOL     OW 1132   3.120   3.976   0.400  0.0896  0.5570  0.2317
  272SOL    HW2 1133   3.152   3.973   0.490  2.1312  1.3576 -0.4360
  272SOL    HW3 1134   3.087   4.066   0.390  0.0546  0.5314  0.1182
  272SOL    MW4 1135   3.120   3.988   0.410  0.3543  0.6590  0.1287
  273SOL     OW 1136   0.707   0.229   0.369 -0.1982 -0.3984  0.0236
  273SOL    HW2 1137   0.757   0.149   0.386 -0.8808 -0.8873 -0.2514
  273SOL    HW3 1138   0.621   0.213   0.406 -0.1131  0.5066  0.6300
  273SOL    MW4 1139   0.702   0.217   0.376 -0.2770 -0.3435  0.0673
  274SOL     OW 1140   0.574   2.402   0.422 -0.7388  0.3187 -0.5880
  274SOL    HW2 1141   0.524   2.321   0.409 -0.2554 -0.0048 -0.4430
  274SOL    HW3 1142   0.508   2.471   0.419 -1.2651 -0.1445  0.1044
  274SOL    MW4 1143   0.559   2.400   0.420 -0.7445  0.2148 -0.4775
  275SOL     OW 1144   3.955   0.556   0.487  0.4516 -0.1864  0.7160
  275SOL    HW2 1145   4.012   0.522   0.418 -0.9752  0.8784 -1.0560
  275SOL    HW3 1146   3.978   0.506   0.565  2.1156 -1.4209 -0.5405
  275SOL    MW4 1147   3.966   0.545   0.488  0.4828 -0.2089  0.3164
  276SOL     OW 1148   2.592   4.270   0.697  0.0211  0.4369  0.4173
  276SOL    HW2 1149   2.534   4.199   0.725 -0.1536  0.1367 -0.6649
  276SOL    HW3 1150   2.626   4.240   0.612  2.1330  0.4000  1.2573
  276SOL    MW4 1151   2.589   4.256   0.689  0.2766  0.3924  0.3853
  277SOL     OW 1152   2.944   3.881   1.082 -0.2778  0.1706  0.3331
  277SOL    HW2 1153   2.978   3.843   1.001 -0.6960  0.3756  0.0664
  277SOL    HW3 1154   3.018   3.931   1.117 -0.1569  0.2378 -0.0160
  277SOL    MW4 1155   2.959   3.883   1.076 -0.3171  0.2067  0.2519
  278SOL     OW 1156   0.228   3.601   1.227 -0.2140 -0.1086  0.2137
  278SOL    HW2 1157   0.142   3.563   1.206  0.1285 -0.2348 -0.9870
  278SOL    HW3 1158   0.225   3.689   1.191 -0.1620  0.1982  0.9596
  278SOL    MW4 1159   0.216   3.607   1.220 -0.1619 -0.0849  0.1538
  279SOL     OW 1160   4.205   1.030   0.625 -0.0459  0.2941 -0.3384
  279SOL    HW2 1161   4.136   0.964   0.632 -0.5999  0.9011 -0.1123
  279SOL    HW3 1162   4.261   0.998   0.554 -0.0067 -0.7012  0.1298
  279SOL    MW4 1163   4.203   1.017   0.616 -0.1144  0.2428 -0.2468
  280SOL     OW 1164   4.138   2.851   0.156  0.4227 -0.3049  0.4842
  280SOL    HW2 1165   4.212   2.836   0.215  0.9016  0.9327  0.2303
  280SOL    HW3 1166   4.110   2.941   0.175  1.0699  0.3831 -1.6497
  280SOL    MW4 1167   4.144   2.861   0.166  0.5708 -0.0508  0.1691
  281SOL     OW 1168   2.751   0.131   0.709  0.2570  0.1663 -0.1753
  281SOL    HW2 1169   2.679   0.073   0.730 -0.0700 -0.0663 -1.8636
  281SOL    HW3 1170   2.829   0.075   0.713  0.0364 -0.2041 -0.9831
  281SOL    MW4 1171   2.752   0.116   0.712  0.1848  0.0868 -0.5046
  282SOL     OW 1172   2.014   2.671   0.690 -0.0382 -0.2195  0.4396
  282SOL    HW2 1173   2.101   2.691   0.724 -0.2173  0.5344  0.4562
  282SOL    HW3 1174   1.985   2.595   0.741  0.0723  0.3354  1.3379
  282SOL    MW4 1175   2.021   2.664   0.701 -0.0472 -0.0470  0.5603
  283SOL     OW 1176   1.349   1.947   1.092  0.3754  0.0048  0.5379
  283SOL    HW2 1177   1.263   1.984   1.113  0.2556  0.2009 -0.3032
  283SOL    HW3 1178   1.338   1.853   1.107 -0.5207 -0.2071 -1.3090
  283SOL    MW4 1179   1.336   1.939   1.097  0.2414  0.0029  0.1832
  284SOL     OW 1180   0.650   2.017   1.184 -0.2765  0.2792  0.3061
  284SOL    HW2 1181   0.677   2.057   1.266  0.4222  0.2521  0.0924
  284SOL    HW3 1182   0.730   1.979   1.148 -0.9554 -1.4752  0.5956
  284SOL    MW4 1183   0.664   2.017   1.190 -0.2739  0.0441  0.3163
  285SOL     OW 1184   1.155   0.628   0.654  0.2411 -0.2217  0.1302
  285SOL    HW2 1185   1.188   0.619   0.564 -3.0362 -1.3946 -1.0335
  285SOL    HW3 1186   1.190   0.551   0.700  1.2296 -0.0760 -0.3627
  285SOL    MW4 1187   1.164   0.616   0.648 -0.0610 -0.3573 -0.0884
  286SOL     OW 1188   0.685   1.302   1.214  0.3017 -0.1490 -0.1928
  286SOL    HW2 1189   0.609   1.247   1.196  0.2631 -0.0080 -0.4745
  286SOL    HW3 1190   0.758   1.256   1.173  0.5802 -0.8980  1.1217
  286SOL    MW4 1191   0.685   1.289   1.206  0.3334 -0.2292 -0.0565
  287SOL     OW 1192   3.988   2.705   1.096  0.2770  0.1687  0.0920
  287SOL    HW2 1193   3.984   2.701   1.001 -0.8159  1.4260  0.0711
  287SOL    HW3 1194   3.907   2.749   1.122  0.1916 -0.8722  1.6518
  287SOL    MW4 1195   3.977   2.711   1.087  0.1216  0.1972  0.2950
  288SOL     OW 1196   2.245   0.150   0.445  0.2644  0.7345 -0.0072
  288SOL    HW2 1197   2.233   0.055   0.442 -1.0655  0.8685  0.5769
  288SOL    HW3 1198   2.336   0.164   0.419  0.5415 -0.7139  0.1563
  288SOL    MW4 1199   2.255   0.140   0.441  0.1254  0.5611  0.0914
  289SOL     OW 1200   4.249   1.938   0.703  0.0212 -0.0985 -0.0900
  289SOL    HW2 1201   4.181   1.962   0.766 -0.6133  0.8113 -1.0882
  289SOL    HW3 1202   4.331   1.947   0.751 -0.3712  1.8060  0.2580
  289SOL    MW4 1203   4.251   1.942   0.717 -0.1144  0.2728 -0.1758
  290SOL     OW 1204   0.247   0.827   0.168  0.1474  0.4790 -0.2867
  290SOL    HW2 1205   0.287   0.828   0.081  2.1586  0.9562  0.6022
  290SOL    HW3 1206   0.244   0.920   0.193 -1.5093  0.4431 -0.3147
  290SOL    MW4 1207   0.252   0.840   0.160  0.1942  0.5372 -0.1731
  291SOL     OW 1208   3.021   1.914   0.631 -0.2029 -0.3511  0.7074
  291SOL    HW2 1209   3.108   1.887   0.660 -0.4360  0.1275  1.8779
  291SOL    HW3 1210   3.034   2.000   0.592 -0.0281 -0.6331  0.1315
  291SOL    MW4 1211   3.034   1.922   0.630 -0.2108 -0.3251  0.7859
  292SOL     OW 1212   1.952   3.883   0.559 -0.3969 -0.0754  1.0760
  292SOL    HW2 1213   2.016   3.953   0.547 -0.6954  0.4931  2.6724
  292SOL    HW3 1214   1.934   3.851   0.471  2.0085 -0.1915  0.6065
  292SOL    MW4 1215   1.958   3.888   0.546 -0.1189 -0.0155  1.2246
  293SOL     OW 1216   0.844   3.416   0.835  0.3968  0.2445  0.0203
  293SOL    HW2 1217   0.763   3.465   0.821 -0.1034 -0.0568  1.7517
  293SOL    HW3 1218   0.910   3.465   0.785 -0.7535  0.7254 -1.0675
  293SOL    MW4 1219   0.842   3.429   0.826  0.1790  0.2680  0.1053
  294SOL     OW 1220   2.931   0.044   1.039 -0.2390 -0.0247 -0.1089
  294SOL    HW2 1221   2.941  -0.041   1.083 -0.0029 -0.0364 -0.1862
  294SOL    HW3 1222   2.867   0.091   1.093  0.5720  0.2263  0.6451
  294SOL    MW4 1223   2.924   0.039   1.052 -0.1011  0.0072 -0.0197
  295SOL     OW 1224   0.134   2.737   0.311 -0.0798  0.2587 -0.5341
  295SOL    HW2 1225   0.218   2.740   0.265 -0.4548 -0.7576 -1.3150
  295SOL    HW3 1226   0.152   2.775   0.397  1.5688 -1.4446 -0.0947
  295SOL    MW4 1227   0.147   2.742   0.316  0.0883 -0.1001 -0.5792
  296SOL     OW 1228   3.586   3.996   1.186  0.1954 -0.3385  0.2319
  296SOL    HW2 1229   3.671   3.969   1.151  0.7439  0.5479  0.8544
  296SOL    HW3 1230   3.597   3.993   1.281 -0.3739  0.0560  0.3175
  296SOL    MW4 1231   3.598   3.992   1.194  0.1926 -0.1695  0.3254
  297SOL     OW 1232   2.522   3.996   0.753  0.6459 -0.2542 -0.4863
  297SOL    HW2 1233   2.471   3.993   0.672  0.9469 -0.9920 -0.6531
  297SOL    HW3 1234   2.612   3.976   0.726  0.8073 -0.1528 -0.0252
  297SOL    MW4 1235   2.527   3.993   0.739  0.7069 -0.3383 -0.4475
  298SOL     OW 1236   3.641   4.633   0.516  0.1197  0.1874  0.1139
  298SOL    HW2 1237   3.719   4.677   0.551  0.0487 -0.0309  0.5579
  298SOL    HW3 1238   3.593   4.604   0.594  1.3458 -2.7343 -0.1612
  298SOL    MW4 1239   3.645   4.635   0.531  0.2720 -0.2265  0.1362
  299SOL     OW 1240   0.871   0.002   0.426  0.3418 -0.5585  0.1873
  299SOL    HW2 1241   0.954  -0.018   0.382  0.1920  0.7311 -0.6806
  299SOL    HW3 1242   0.829  -0.084   0.437  1.0940 -1.0549 -0.7421
  299SOL    MW4 1243   0.877  -0.012   0.422  0.4212 -0.4539 -0.0499
  300SOL     OW 1244   4.444   4.223   0.857  0.0192  0.3557  0.6250
  300SOL    HW2 1245   4.455   4.254   0.947  1.8690 -0.4732  0.7178
  300SOL    HW3 1246   4.519   4.261   0.810 -0.0075 -0.5741 -0.1796
  300SOL    MW4 1247   4.455   4.232   0.862  0.2599  0.1230  0.5311
  301SOL     OW 1248   1.768   4.064   0.666  0.0993  0.3300  0.4581
  301SOL    HW2 1249   1.812   4.139   0.706 -0.5289  2.1543 -2.1252
  301SOL    HW3 1250   1.839   4.008   0.635  0.5825  0.5262  1.2049
  301SOL    MW4 1251   1.783   4.066   0.667  0.0800  0.5960  0.2159
  302SOL     OW 1252   3.802   1.559   1.083 -0.1401  0.2346  0.4087
  302SOL    HW2 1253   3.802   1.557   0.988  0.6133 -0.3606  0.4099
  302SOL    HW3 1254   3.882   1.605   1.106 -0.2712  0.2914  0.7512
  302SOL    MW4 1255   3.812   1.565   1.074 -0.0582  0.1636  0.4539
  303SOL     OW 1256   3.273   3.902   0.168  0.4288  0.1176  0.0078
  303SOL    HW2 1257   3.328   3.978   0.148 -0.1273  0.5018 -0.0672
  303SOL    HW3 1258   3.218   3.931   0.241 -0.8603  0.3113 -1.0253
  303SOL    MW4 1259   3.273   3.916   0.175  0.1855  0.1938 -0.1384
  304SOL     OW 1260   1.075   1.550   1.062 -0.8518  0.1559  0.2700
  304SOL    HW2 1261   1.019   1.598   1.124 -0.3523  0.5595  0.4115
  304SOL    HW3 1262   1.078   1.461   1.098 -0.0798  0.5312  1.1674
  304SOL    MW4 1263   1.068   1.544   1.075 -0.6839  0.2587  0.4070
  305SOL     OW 1264   3.715   3.937   0.799 -0.3958  0.3561 -0.1115
  305SOL    HW2 1265   3.735   3.914   0.708 -0.8934 -0.1637 -0.0882
  305SOL    HW3 1266   3.623   3.914   0.810  0.3532 -2.1423  1.3190
  305SOL    MW4 1267   3.706   3.931   0.789 -0.3626 -0.0420  0.0802
  306SOL     OW 1268   2.199   1.941   0.340 -0.0798  0.0162  0.6461
  306SOL    HW2 1269   2.157   1.856   0.355 -0.0804 -0.3157 -1.1271
  306SOL    HW3 1270   2.126   2.001   0.323 -0.0086  0.1336  0.7522
  306SOL    MW4 1271   2.184   1.938   0.340 -0.0706 -0.0122  0.4261
  307SOL     OW 1272   0.873   3.205   1.220  0.1101 -0.2213 -0.1815
  307SOL    HW2 1273   0.863   3.298   1.199  0.5958  0.0801  0.8870
  307SOL    HW3 1274   0.960   3.182   1.189  0.8154  0.2171  1.4461
  307SOL    MW4 1275   0.883   3.214   1.213  0.2673 -0.1235  0.1742
  308SOL     OW 1276   3.643   4.253   1.091  0.4536  0.0903  0.0545
  308SOL    HW2 1277   3.621   4.167   1.125  1.4188 -0.5382 -0.9055
  308SOL    HW3 1278   3.713   4.284   1.147  1.0237 -0.3195 -0.4251
  308SOL    MW4 1279   3.649   4.246   1.103  0.6561 -0.0463 -0.1355
  309SOL     OW 1280   3.727   2.751   0.491 -0.4943  0.1016  0.2743
  309SOL    HW2 1281   3.669   2.788   0.424  0.0977 -0.3032 -0.4606
  309SOL    HW3 1282   3.815   2.770   0.459 -0.2138  0.9811  1.5376
  309SOL    MW4 1283   3.731   2.759   0.478 -0.3791  0.1643  0.3440
  310SOL     OW 1284   3.585   3.469   1.051 -0.1163 -0.6159  0.3518
  310SOL    HW2 1285   3.659   3.523   1.080 -0.6970 -0.1266  0.9388
  310SOL    HW3 1286   3.508   3.509   1.093 -0.7651 -0.8723 -0.5808
  310SOL    MW4 1287   3.585   3.482   1.061 -0.2787 -0.5853  0.3061
  311SOL     OW 1288   3.782   1.831   0.854 -0.2627 -0.3237  0.0811
  311SOL    HW2 1289   3.867   1.873   0.843  0.3385 -1.9743 -2.0310
  311SOL    HW3 1290   3.732   1.859   0.777 -1.2922 -0.1623  0.7984
  311SOL    MW4 1291   3.787   1.840   0.842 -0.3195 -0.5202 -0.1029
  312SOL     OW 1292   0.949   3.985   1.473  0.0076  0.4844 -0.1148
  312SOL    HW2 1293   0.934   4.077   1.495  0.5514  0.8812 -1.3519
  312SOL    HW3 1294   0.975   3.987   1.381 -0.7711 -0.9888 -0.3723
  312SOL    MW4 1295   0.951   3.998   1.464 -0.0234  0.3426 -0.3120
  313SOL     OW 1296   0.636   1.931   0.152 -0.3104  0.1240 -0.2907
  313SOL    HW2 1297   0.668   1.926   0.063 -0.3186 -1.7071 -0.1969
  313SOL    HW3 1298   0.712   1.957   0.204 -0.1659  0.5872 -0.7233
  313SOL    MW4 1299   0.650   1.934   0.147 -0.2924 -0.0565 -0.3354
  314SOL     OW 1300   3.411   3.188   0.526 -0.1564  0.0361 -0.2314
  314SOL    HW2 1301   3.475   3.146   0.468  1.2083  0.1205  1.2075
  314SOL    HW3 1302   3.424   3.147   0.611 -2.1191 -0.0413  0.0633
  314SOL    MW4 1303   3.421   3.177   0.529 -0.2356  0.0372 -0.0027
  315SOL     OW 1304   2.951   4.348   0.700  0.1336  0.2434 -0.0262
  315SOL    HW2 1305   2.953   4.426   0.756  2.3489 -1.2731  2.0776
  315SOL    HW3 1306   2.889   4.289   0.744  1.0721 -0.5267  0.2769
  315SOL    MW4 1307   2.943   4.350   0.713  0.5496 -0.0582  0.2913
  316SOL     OW 1308   3.159   2.668   1.057  0.3680 -0.0975  0.5980
  316SOL    HW2 1309   3.139   2.578   1.083 -1.8074  0.5323  1.2379
  316SOL    HW3 1310   3.088   2.720   1.095 -0.2141  1.4987 -2.5256
  316SOL    MW4 1311   3.147   2.663   1.066  0.0041  0.1962  0.2704
  317SOL     OW 1312   2.317   3.635   0.700 -0.2854 -0.1585 -0.4419
  317SOL    HW2 1313   2.355   3.636   0.788  1.7019  1.0207 -1.2717
  317SOL    HW3 1314   2.227   3.665   0.712 -0.4345 -1.2908  1.3507
  317SOL    MW4 1315   2.310   3.639   0.713 -0.0429 -0.1523 -0.3148
  318SOL     OW 1316   1.531   0.762   0.643  0.0936  0.3447  0.1456
  318SOL    HW2 1317   1.473   0.767   0.719 -0.5270  2.4169 -0.4393
  318SOL    HW3 1318   1.487   0.700   0.584 -0.9124  0.9614  0.2342
  318SOL    MW4 1319   1.518   0.755   0.645 -0.1210  0.6995  0.0801
  319SOL     OW 1320   4.225   4.647   1.071  0.2993 -0.1243 -0.1468
  319SOL    HW2 1321   4.224   4.677   0.980 -0.8117  0.4219  0.0400
  319SOL    HW3 1322   4.157   4.699   1.115  1.7308  0.5713  1.3058
  319SOL    MW4 1323   4.216   4.658   1.065  0.3419  0.0396  0.0695
  320SOL     OW 1324   4.446   3.179   0.694 -0.6008 -0.1564 -0.0439
  320SOL    HW2 1325   4.448   3.275   0.700 -0.8242 -0.0824 -0.9762
  320SOL    HW3 1326   4.453   3.161   0.600  1.6656 -1.1330  0.2842
  320SOL    MW4 1327   4.447   3.189   0.682 -0.3314 -0.2756 -0.1236
  321SOL     OW 1328   1.622   0.006   0.835  0.6184 -0.1283 -0.1802
  321SOL    HW2 1329   1.716  -0.002   0.848  0.7117 -0.5169 -1.0992
  321SOL    HW3 1330   1.604   0.100   0.847  1.0768 -0.0956  0.2610
  321SOL    MW4 1331   1.632   0.018   0.838  0.6913 -0.1755 -0.2432
  322SOL     OW 1332   4.022   4.018   1.210 -0.3222 -0.3236 -0.1447
  322SOL    HW2 1333   3.947   3.968   1.177 -1.5594  0.4146  1.4666
  322SOL    HW3 1334   4.024   4.096   1.156 -1.1189 -0.0462  0.2212
  322SOL    MW4 1335   4.012   4.021   1.199 -0.5903 -0.1903  0.1161
  323SOL     OW 1336   3.430   3.248   0.210  0.0377 -0.3382  0.5998
  323SOL    HW2 1337   3.340   3.259   0.241  0.0837  0.5491  0.4121
  323SOL    HW3 1338   3.454   3.333   0.174  0.1869 -1.1556 -1.3204
  323SOL    MW4 1339   3.421   3.260   0.209  0.0634 -0.3290  0.3217
  324SOL     OW 1340   1.762   0.441   0.818  0.4909 -0.3811  0.3588
  324SOL    HW2 1341   1.836   0.393   0.779  1.5784  0.9283  0.7583
  324SOL    HW3 1342   1.762   0.525   0.773 -1.4713 -0.7686 -0.4090
  324SOL    MW4 1343   1.772   0.446   0.807  0.3755 -0.2595  0.3102
  325SOL     OW 1344   1.108   0.411   0.368 -0.0197 -0.0075  0.2104
  325SOL    HW2 1345   1.015   0.426   0.387 -0.3956 -0.1185 -1.4866
  325SOL    HW3 1346   1.147   0.498   0.374 -0.1610 -0.0128  1.2919
  325SOL    MW4 1347   1.101   0.425   0.371 -0.0880 -0.0228  0.1293
  326SOL     OW 1348   2.006   2.338   1.073 -0.1270 -0.1172  0.0631
  326SOL    HW2 1349   1.991   2.374   0.985 -0.4581  0.5248  0.3784
  326SOL    HW3 1350   1.932   2.370   1.125  0.0098 -0.5852  0.5532
  326SOL    MW4 1351   1.994   2.347   1.068 -0.1523 -0.0944  0.1694
  327SOL     OW 1352   0.860   1.673   1.206 -0.0310  0.1966  0.3414
  327SOL    HW2 1353   0.868   1.756   1.159 -0.8056  0.7236  1.1101
  327SOL    HW3 1354   0.784   1.630   1.167  1.3481 -0.8988 -1.1584
  327SOL    MW4 1355   0.851   1.678   1.195  0.0488  0.1217  0.2449
  328SOL     OW 1356   3.769   3.869   0.542 -0.1654 -0.4046  0.2529
  328SOL    HW2 1357   3.823   3.939   0.505 -2.1687  2.1353  1.9381
  328SOL    HW3 1358   3.683   3.882   0.502 -1.1521 -0.4516  2.3234
  328SOL    MW4 1359   3.764   3.880   0.532 -0.5598 -0.0756  0.7484
  329SOL     OW 1360   3.851   4.361   1.250 -0.2702 -0.0825 -0.2189
  329SOL    HW2 1361   3.832   4.451   1.225 -0.1547  0.0462  0.1623
  329SOL    HW3 1362   3.859   4.363   1.346 -0.2572 -0.4932 -0.2082
  329SOL    MW4 1363   3.849   4.373   1.260 -0.2532 -0.1197 -0.1673
  330SOL     OW 1364   3.819   3.430   0.453  0.1828 -0.2836  0.1439
  330SOL    HW2 1365   3.796   3.339   0.470  2.8189 -0.9010  0.5223
  330SOL    HW3 1366   3.796   3.475   0.535 -2.0805 -0.3734 -0.3986
  330SOL    MW4 1367   3.813   3.424   0.466  0.2322 -0.3769  0.1222
  331SOL     OW 1368   0.504   2.607   0.841  0.9519  0.0238  0.2121
  331SOL    HW2 1369   0.487   2.666   0.915  0.3658 -1.1083  1.0010
  331SOL    HW3 1370   0.417   2.584   0.808  1.1925 -0.0205 -0.3903
  331SOL    MW4 1371   0.490   2.612   0.847  0.9063 -0.1314  0.2366
  332SOL     OW 1372   1.111   3.602   1.240  0.0544 -0.2116 -0.0934
  332SOL    HW2 1373   1.047   3.541   1.204  0.4191 -0.0980 -0.9363
  332SOL    HW3 1374   1.194   3.575   1.201  0.5196 -0.3388  0.9714
  332SOL    MW4 1375   1.113   3.590   1.230  0.1638 -0.2134 -0.0641
  333SOL     OW 1376   4.064   2.303   0.481 -0.3216  0.2788  0.4535
  333SOL    HW2 1377   4.015   2.322   0.401 -1.7103  1.2736  1.5117
  333SOL    HW3 1378   4.082   2.209   0.476 -1.9894 -0.0287 -0.1464
  333SOL    MW4 1379   4.060   2.293   0.469 -0.7248  0.3693  0.5140
  334SOL     OW 1380   2.333   2.523   0.736 -0.5502 -0.0761  0.6269
  334SOL    HW2 1381   2.263   2.459   0.728  0.3369 -1.0542  0.4892
  334SOL    HW3 1382   2.358   2.544   0.646 -1.1829  0.8593  0.6628
  334SOL    MW4 1383   2.327   2.518   0.723 -0.5164 -0.0818  0.6135
  335SOL     OW 1384   1.901   1.656   0.695 -0.2896  0.4099  0.3304
  335SOL    HW2 1385   1.816   1.631   0.657  0.0118 -0.6421  0.3258
  335SOL    HW3 1386   1.886   1.742   0.733 -1.2748  0.3802  0.0232
  335SOL    MW4 1387   1.888   1.664   0.695 -0.3798  0.2673  0.2893
  336SOL     OW 1388   0.857   0.048   0.704  0.2714  0.4141 -0.1756
  336SOL    HW2 1389   0.893   0.133   0.728  2.2841 -0.1676 -1.0824
  336SOL    HW3 1390   0.870   0.042   0.609  2.0881 -1.7656  0.1654
  336SOL    MW4 1391   0.863   0.058   0.695  0.7766  0.0497 -0.2502
  337SOL     OW 1392   3.714   2.771   0.774  0.1671 -0.2387  0.1571
  337SOL    HW2 1393   3.692   2.748   0.684 -0.2445 -2.2516  0.7565
  337SOL    HW3 1394   3.803   2.739   0.786  0.1843 -0.0709  0.4998
  337SOL    MW4 1395   3.723   2.764   0.764  0.1147 -0.4821  0.2814
  338SOL     OW 1396   1.642   1.388   0.805  0.1440 -0.5198 -0.0614
  338SOL    HW2 1397   1.721   1.335   0.794 -0.8290 -1.9026 -0.5221
  338SOL    HW3 1398   1.570   1.328   0.785 -0.9660  1.0442 -0.8249
  338SOL    MW4 1399   1.643   1.373   0.801 -0.1309 -0.4959 -0.2229
  339SOL     OW 1400   0.680   0.637   0.243 -0.0196  0.7216 -0.0757
  339SOL    HW2 1401   0.589   0.660   0.264 -0.4484  0.0735 -1.1378
  339SOL    HW3 1402   0.672   0.569   0.176  1.2546  0.3557  0.1354
  339SOL    MW4 1403   0.667   0.632   0.237  0.0920  0.5878 -0.1880
  340SOL     OW 1404   0.404   3.190   0.765 -0.1004  0.1756  0.0621
  340SOL    HW2 1405   0.390   3.272   0.812  0.6950  1.7618 -2.3722
  340SOL    HW3 1406   0.483   3.153   0.803 -0.4308  0.5557  1.1311
  340SOL    MW4 1407   0.412   3.196   0.776 -0.0390  0.4351 -0.1180
  341SOL     OW 1408   3.801   2.049   1.222  0.7076  0.1862  0.2457
  341SOL    HW2 1409   3.810   2.140   1.194  0.2661  0.1755  0.0543
  341SOL    HW3 1410   3.822   2.049   1.315  1.2607  0.3883  0.1189
  341SOL    MW4 1411   3.805   2.061   1.230  0.7222  0.2115  0.2036
  342SOL     OW 1412   0.218   1.229   1.186  0.2368 -0.2919 -0.4394
  342SOL    HW2 1413   0.131   1.196   1.164 -0.4625  1.1803  0.0268
  342SOL    HW3 1414   0.225   1.312   1.139  0.6600  0.4872  0.9473
  342SOL    MW4 1415   0.207   1.236   1.177  0.2004  0.0051 -0.1950
  343SOL     OW 1416   0.386   3.311   0.521 -0.0864 -0.1465  0.3748
  343SOL    HW2 1417   0.391   3.228   0.474 -1.5325 -0.0021 -0.0753
  343SOL    HW3 1418   0.378   3.285   0.613  0.4731 -0.4804  0.3309
  343SOL    MW4 1419   0.385   3.296   0.527 -0.2034 -0.1714  0.3096
  344SOL     OW 1420   1.576   4.345   1.167 -0.0666 -0.0783  0.3307
  344SOL    HW2 1421   1.660   4.337   1.122  0.5663  0.7926  1.3189
  344SOL    HW3 1422   1.599   4.371   1.256 -1.3709 -0.1998  0.7182
  344SOL    MW4 1423   1.590   4.348   1.173 -0.1550  0.0210  0.5120
  345SOL     OW 1424   4.266   2.736   0.504  0.3468  0.1820 -0.6605
  345SOL    HW2 1425   4.313   2.795   0.445  0.5034 -0.9969 -1.7228
  345SOL    HW3 1426   4.292   2.648   0.477  0.9405 -0.3616  1.6177
  345SOL    MW4 1427   4.275   2.733   0.492  0.4454 -0.0453 -0.5001
  346SOL     OW 1428   2.003   2.154   0.313 -0.0622 -0.6375  0.0935
  346SOL    HW2 1429   1.921   2.187   0.275  0.4572 -1.2366 -1.5764
  346SOL    HW3 1430   2.063   2.228   0.309 -0.6826 -0.0164  1.8703
  346SOL    MW4 1431   2.000   2.168   0.308 -0.0756 -0.6347  0.1076
  347SOL     OW 1432   0.888   4.154   0.821  0.0126  0.7085 -0.6528
  347SOL    HW2 1433   0.917   4.194   0.903  0.6832 -0.2513 -0.3990
  347SOL    HW3 1434   0.803   4.193   0.803 -1.3350 -0.9614  1.8748
  347SOL    MW4 1435   0.881   4.164   0.830 -0.0768  0.3614 -0.2858
  348SOL     OW 1436   1.499   0.250   0.412 -0.1653  0.7277 -0.3109
  348SOL    HW2 1437   1.415   0.240   0.367 -0.5557  1.3688  0.2602
  348SOL    HW3 1438   1.476   0.252   0.505  0.7052 -1.2576 -0.0428
  348SOL    MW4 1439   1.485   0.249   0.419 -0.1020  0.5504 -0.2002
  349SOL     OW 1440   0.719   4.404   0.468  0.4132 -0.1564 -0.1228
  349SOL    HW2 1441   0.788   4.356   0.422  0.7245 -0.9198  1.1002
  349SOL    HW3 1442   0.648   4.411   0.405  0.3196 -2.3671 -0.3113
  349SOL    MW4 1443   0.719   4.399   0.454  0.4419 -0.5488  0.0137
  350SOL     OW 1444   0.874   2.710   0.387  0.1242  0.3557  0.4667
  350SOL    HW2 1445   0.799   2.769   0.397  0.1835  0.9313 -2.0112
  350SOL    HW3 1446   0.949   2.762   0.414  0.0418  1.0924 -0.6661
  350SOL    MW4 1447   0.874   2.725   0.392  0.1211  0.5291 -0.0097
  351SOL     OW 1448   2.709   0.110   1.212  0.1210 -0.2084  0.2746
  351SOL    HW2 1449   2.697   0.119   1.307 -0.9940 -0.0263  0.1170
  351SOL    HW3 1450   2.697   0.199   1.178 -0.9834 -0.5308 -0.2021
  351SOL    MW4 1451   2.706   0.123   1.220 -0.1719 -0.2269  0.1907
  352SOL     OW 1452   2.779   0.383   0.834 -0.4938  0.0713 -0.4475
  352SOL    HW2 1453   2.758   0.302   0.787 -1.2262  0.4306 -0.7540
  352SOL    HW3 1454   2.778   0.359   0.926 -0.2755 -0.3706 -0.5611
  352SOL    MW4 1455   2.776   0.370   0.840 -0.5617  0.0604 -0.5029
  353SOL     OW 1456   1.439   2.456   0.883  0.0257  0.1964 -0.1387
  353SOL    HW2 1457   1.469   2.451   0.974 -0.3847  0.8720  0.0396
  353SOL    HW3 1458   1.354   2.412   0.883  0.5578 -0.8382 -0.4386
  353SOL    MW4 1459   1.432   2.450   0.895  0.0416  0.1490 -0.1547
  354SOL     OW 1460   3.363   2.786   0.734  0.5221 -0.0229 -0.1589
  354SOL    HW2 1461   3.410   2.712   0.770 -0.4691 -1.0730 -0.9842
  354SOL    HW3 1462   3.336   2.758   0.646  2.0838  2.1220 -1.3892
  354SOL    MW4 1463   3.366   2.773   0.727  0.5975  0.1214 -0.4301
  355SOL     OW 1464   1.966   2.425   0.817 -0.2841  0.1722 -0.0334
  355SOL    HW2 1465   2.014   2.387   0.743  1.1130 -0.1351  1.0178
  355SOL    HW3 1466   1.874   2.414   0.794  0.1320  0.9515 -2.1656
  355SOL    MW4 1467   1.960   2.418   0.804 -0.0447  0.2346 -0.1761
  356SOL     OW 1468   1.979   1.284   1.194 -0.2430 -0.0582  0.1803
  356SOL    HW2 1469   1.911   1.231   1.152 -0.5074  2.1025 -2.2787
  356SOL    HW3 1470   2.061   1.247   1.162 -0.2752 -1.5851  1.7943
  356SOL    MW4 1471   1.981   1.272   1.184 -0.2822  0.0254  0.0688
  357SOL     OW 1472   1.775   1.077   0.172 -0.6572  0.0872  0.1240
  357SOL    HW2 1473   1.778   1.076   0.077 -0.4274 -1.4342  0.1419
  357SOL    HW3 1474   1.682   1.075   0.194 -0.6854 -1.3162 -0.0699
  357SOL    MW4 1475   1.764   1.077   0.163 -0.6307 -0.2989  0.1008
  358SOL     OW 1476   0.153   0.837   0.513 -0.0003 -0.6458 -0.2537
  358SOL    HW2 1477   0.155   0.791   0.429  0.9875 -1.5980  0.2872
  358SOL    HW3 1478   0.234   0.888   0.515  0.3029 -1.1411  0.4032
  358SOL    MW4 1479   0.164   0.838   0.502  0.1700 -0.8368 -0.0957
  359SOL     OW 1480   4.325   0.676   0.377  0.2257 -0.2415  0.2399
  359SOL    HW2 1481   4.414   0.663   0.346  0.1079  0.8120 -0.5757
  359SOL    HW3 1482   4.317   0.770   0.390 -1.4179 -0.0495 -1.7799
  359SOL    MW4 1483   4.335   0.686   0.375 -0.0067 -0.0771 -0.1342
  360SOL     OW 1484   3.136   1.709   1.244 -0.3353  0.7475  0.0214
  360SOL    HW2 1485   3.129   1.699   1.339  1.3514  0.7798  0.1679
  360SOL    HW3 1486   3.169   1.798   1.232 -0.2718  0.6435 -0.5664
  360SOL    MW4 1487   3.140   1.719   1.255 -0.1042  0.7381 -0.0368
  361SOL     OW 1488   2.849   2.149   0.271 -0.3878 -0.3345  0.1867
  361SOL    HW2 1489   2.911   2.128   0.200 -0.4299 -1.0851  0.3692
  361SOL    HW3 1490   2.797   2.070   0.281  0.8332 -0.8783  2.3253
  361SOL    MW4 1491   2.850   2.136   0.263 -0.2322 -0.5054  0.4929
  362SOL     OW 1492   4.061   1.939   1.145  0.3735  0.4078 -0.0306
  362SOL    HW2 1493   3.983   1.989   1.167 -0.8542 -1.5914  0.2284
  362SOL    HW3 1494   4.050   1.855   1.191  1.9955 -0.4331 -1.1134
  362SOL    MW4 1495   4.050   1.934   1.154  0.4249  0.0331 -0.1394
  363SOL     OW 1496   2.473   2.286   0.302  0.4732 -0.4698 -0.2913
  363SOL    HW2 1497   2.475   2.272   0.397  0.3932  0.7828 -0.0982
  363SOL    HW3 1498   2.542   2.350   0.285  0.4640 -0.6567 -1.0745
  363SOL    MW4 1499   2.482   2.292   0.312  0.4611 -0.3290 -0.3691
  364SOL     OW 1500   1.350   0.319   1.054 -0.0965 -0.2129 -0.2549
  364SOL    HW2 1501   1.333   0.241   1.106 -0.5517 -0.5122 -0.8460
  364SOL    HW3 1502   1.414   0.291   0.989 -1.3274 -0.4768 -1.3693
  364SOL    MW4 1503   1.356   0.305   1.052 -0.3189 -0.2872 -0.4801
  365SOL     OW 1504   2.128   3.331   0.406  0.2480 -0.2919 -0.0735
  365SOL    HW2 1505   2.124   3.235   0.404 -0.2255 -0.2834  0.3470
  365SOL    HW3 1506   2.049   3.360   0.360  0.3720 -0.1028 -0.1675
  365SOL    MW4 1507   2.117   3.322   0.400  0.2019 -0.2661 -0.0305
  366SOL     OW 1508   3.655   1.855   0.611  0.0964  0.1751 -0.1238
  366SOL    HW2 1509   3.603   1.934   0.594 -0.6152  0.2056  2.0061
  366SOL    HW3 1510   3.601   1.783   0.578 -0.6229  0.3465  0.6501
  366SOL    MW4 1511   3.641   1.856   0.605 -0.0923  0.2017  0.2593
  367SOL     OW 1512   2.448   2.318   1.076  0.1373 -0.2246  0.3956
  367SOL    HW2 1513   2.446   2.223   1.087  1.3604 -0.0523  2.2557
  367SOL    HW3 1514   2.477   2.331   0.986 -2.7534 -1.6158 -0.8221
  367SOL    MW4 1515   2.452   2.307   1.066 -0.0827 -0.3850  0.4804
  368SOL     OW 1516   3.556   0.860   1.192  0.1783 -0.3992 -0.1076
  368SOL    HW2 1517   3.580   0.937   1.141  1.9973 -1.6193 -1.1395
  368SOL    HW3 1518   3.493   0.813   1.136 -1.2785  0.5335  0.7119
  368SOL    MW4 1519   3.551   0.864   1.178  0.2263 -0.4371 -0.1355
  369SOL     OW 1520   0.440   1.311   0.157  0.1210  0.2207  0.1338
  369SOL    HW2 1521   0.392   1.235   0.191 -0.3269  0.5928  0.3361
  369SOL    HW3 1522   0.456   1.289   0.066 -1.0905  0.4171 -0.1309
  369SOL    MW4 1523   0.435   1.298   0.150 -0.0979  0.2955  0.1256
  370SOL     OW 1524   1.928   4.287   0.791  0.3363 -0.0393  0.4813
  370SOL    HW2 1525   2.023   4.276   0.796  0.2443 -1.5186 -0.6829
  370SOL    HW3 1526   1.915   4.351   0.721  0.5081  1.0804  1.4534
  370SOL    MW4 1527   1.939   4.294   0.782  0.3469 -0.0863  0.4560
  371SOL     OW 1528   1.447   1.944   0.794  0.1743 -0.2457 -0.1926
  371SOL    HW2 1529   1.519   2.006   0.778  1.2711 -0.9090  1.9472
  371SOL    HW3 1530   1.451   1.927   0.888 -1.7237 -1.6200 -0.3418
  371SOL    MW4 1531   1.457   1.950   0.804  0.0687 -0.5146  0.0701
  372SOL     OW 1532   4.177   0.451   0.340  0.2054  0.2173  0.0592
  372SOL    HW2 1533   4.229   0.530   0.350 -0.3888  0.3916  2.1084
  372SOL    HW3 1534   4.225   0.397   0.277  0.7358  2.0938 -1.1680
  372SOL    MW4 1535   4.190   0.454   0.333  0.1965  0.4879  0.1676
  373SOL     OW 1536   3.994   0.832   0.606 -0.1591 -0.7049  0.3523
  373SOL    HW2 1537   3.926   0.831   0.674  0.1514 -1.0796  0.6611
  373SOL    HW3 1538   3.985   0.748   0.562 -0.7021 -0.2522 -0.4207
  373SOL    MW4 1539   3.984   0.821   0.609 -0.1898 -0.6946  0.2910
  374SOL     OW 1540   3.551   2.129   0.642 -0.2065 -0.3023 -0.0304
  374SOL    HW2 1541   3.507   2.168   0.567 -0.1327 -0.1676 -0.0033
  374SOL    HW3 1542   3.612   2.196   0.672  0.7079 -0.8359 -0.6662
  374SOL    MW4 1543   3.554   2.143   0.636 -0.0761 -0.3550 -0.1107
  375SOL     OW 1544   3.809   4.607   1.133  0.2498 -0.1015  0.4183
  375SOL    HW2 1545   3.790   4.571   1.046  1.7015 -1.4069  0.6243
  375SOL    HW3 1546   3.729   4.653   1.157 -0.2605  0.0896 -1.5142
  375SOL    MW4 1547   3.796   4.608   1.125  0.3738 -0.2484  0.1905
  376SOL     OW 1548   3.244   1.137   0.843  0.0489  0.4291  0.0796
  376SOL    HW2 1549   3.336   1.164   0.833  0.4737 -1.0504 -0.1525
  376SOL    HW3 1550   3.228   1.080   0.767 -1.2321  1.1108 -0.1766
  376SOL    MW4 1551   3.254   1.133   0.831 -0.0639  0.3238  0.0153
  377SOL     OW 1552   0.238   2.303   1.082 -0.1324 -0.2659  0.2960
  377SOL    HW2 1553   0.309   2.349   1.126  0.6780  0.3512 -1.6039
  377SOL    HW3 1554   0.159   2.351   1.106  0.4924  1.0168 -0.1624
  377SOL    MW4 1555   0.237   2.315   1.091  0.0570 -0.0153 -0.0151
  378SOL     OW 1556   0.167   4.331   0.726 -0.1096 -0.0535 -0.5351
  378SOL    HW2 1557   0.194   4.420   0.704  1.7330 -0.5570 -0.4133
  378SOL    HW3 1558   0.132   4.296   0.645 -0.9825  0.8188 -0.5494
  378SOL    MW4 1559   0.166   4.338   0.713  0.0183 -0.0052 -0.5209
  379SOL     OW 1560   0.600   3.484   0.536 -0.1576  0.1923 -0.4727
  379SOL    HW2 1561   0.540   3.409   0.532 -0.8676  0.7930 -1.4340
  379SOL    HW3 1562   0.549   3.556   0.499  1.3229  0.6135 -1.7063
  379SOL    MW4 1563   0.585   3.483   0.531 -0.0560  0.3269 -0.7623
  380SOL     OW 1564   2.402   3.509   0.242  0.1512  0.1212 -0.0807
  380SOL    HW2 1565   2.314   3.490   0.209 -0.5475  0.6151  1.4528
  380SOL    HW3 1566   2.421   3.437   0.303  0.7310  0.1225 -0.2561
  380SOL    MW4 1567   2.393   3.497   0.246  0.1354  0.1864  0.0985
  381SOL     OW 1568   3.175   3.194   1.160  0.2281  0.2867 -0.0243
  381SOL    HW2 1569   3.136   3.174   1.075  0.7084 -0.3492 -0.0998
  381SOL    HW3 1570   3.263   3.157   1.155  0.2373  0.1888  0.7689
  381SOL    MW4 1571   3.181   3.186   1.148  0.2928  0.1898  0.0703
  382SOL     OW 1572   1.215   0.413   0.813  0.0936 -0.4038 -0.2840
  382SOL    HW2 1573   1.250   0.420   0.902 -1.4976  1.6371  0.2304
  382SOL    HW3 1574   1.127   0.377   0.824 -0.3090  0.3327 -0.9635
  382SOL    MW4 1575   1.208   0.409   0.826 -0.1695 -0.0374 -0.3057
  383SOL     OW 1576   3.703   0.485   0.550  0.1945 -0.3357  0.1834
  383SOL    HW2 1577   3.671   0.565   0.591 -0.0891 -0.7690  0.8015
  383SOL    HW3 1578   3.782   0.512   0.504 -0.1536  0.3980  0.0039
  383SOL    MW4 1579   3.709   0.499   0.549  0.1111 -0.2961  0.2413
  384SOL     OW 1580   4.325   2.720   0.776 -0.2513 -0.2875 -0.2693
  384SOL    HW2 1581   4.311   2.712   0.682 -0.4757  0.3570 -0.2940
  384SOL    HW3 1582   4.330   2.630   0.807  0.3026 -0.5066 -0.9700
  384SOL    MW4 1583   4.324   2.707   0.768 -0.2079 -0.2313 -0.3650
  385SOL     OW 1584   1.319   0.850   1.228  0.0838  0.0595 -0.4022
  385SOL    HW2 1585   1.254   0.799   1.180 -0.1811 -0.0721  0.0854
  385SOL    HW3 1586   1.315   0.938   1.190  0.8655 -0.3995 -1.5527
  385SOL    MW4 1587   1.310   0.855   1.217  0.1519 -0.0184 -0.4897
  386SOL     OW 1588   3.932   4.318   0.680  0.0168 -0.1625  0.2111
  386SOL    HW2 1589   3.871   4.265   0.732  0.4193 -1.7659 -0.8986
  386SOL    HW3 1590   4.018   4.280   0.699  0.4479  0.8360  0.2779
  386SOL    MW4 1591   3.936   4.306   0.689  0.1266 -0.2418  0.0734
  387SOL     OW 1592   1.815   4.308   1.050  0.3554  0.3836 -0.2711
  387SOL    HW2 1593   1.850   4.317   0.961 -0.0742  1.3076 -0.3614
  387SOL    HW3 1594   1.825   4.216   1.071 -0.4669 -0.0506 -1.6871
  387SOL    MW4 1595   1.821   4.297   1.041  0.1903  0.4478 -0.4698
  388SOL     OW 1596   3.797   3.627   0.673  0.2134 -0.1284  0.3949
  388SOL    HW2 1597   3.779   3.703   0.617 -0.6551 -2.6761 -2.9327
  388SOL    HW3 1598   3.715   3.614   0.721 -0.2918 -0.0204 -0.4078
  388SOL    MW4 1599   3.784   3.636   0.672  0.0322 -0.4501 -0.1501
  389SOL     OW 1600   0.608   0.414   0.838 -0.3403 -0.2622 -0.5775
  389SOL    HW2 1601   0.574   0.331   0.802  0.4971 -0.5175 -0.7875
  389SOL    HW3 1602   0.690   0.428   0.791  0.0574  0.1336  0.2343
  389SOL    MW4 1603   0.614   0.405   0.827 -0.1774 -0.2436 -0.4981
  390SOL     OW 1604   3.104   2.899   0.735 -0.3126 -0.0190  0.0757
  390SOL    HW2 1605   3.061   2.815   0.750  0.1231 -0.3058 -0.2818
  390SOL    HW3 1606   3.197   2.882   0.749 -0.3059  0.6103  0.8739
  390SOL    MW4 1607   3.111   2.886   0.739 -0.2544  0.0262  0.1339
  391SOL     OW 1608   1.939   0.034   0.832  0.4600 -0.1410 -0.1816
  391SOL    HW2 1609   1.978   0.118   0.808  0.0188  0.1569  0.1346
  391SOL    HW3 1610   1.993   0.002   0.904  0.0078  0.3701  0.3970
  391SOL    MW4 1611   1.951   0.041   0.838  0.3420 -0.0342 -0.0635
  392SOL     OW 1612   3.997   1.227   0.572 -0.1800 -0.0324  0.2987
  392SOL    HW2 1613   3.983   1.234   0.478  0.4101 -1.6131  0.0715
  392SOL    HW3 1614   4.084   1.187   0.581  1.5004  3.7161  1.6035
  392SOL    MW4 1615   4.006   1.222   0.561  0.1197  0.2537  0.4409
  393SOL     OW 1616   1.129   1.275   1.167  0.6071  0.4700 -0.1109
  393SOL    HW2 1617   1.133   1.279   1.263  0.7647 -0.0305 -0.0968
  393SOL    HW3 1618   1.197   1.212   1.143  0.5810  0.6093 -0.5543
  393SOL    MW4 1619   1.139   1.267   1.177  0.6245  0.4224 -0.1676
  394SOL     OW 1620   2.943   0.907   0.597 -0.1292 -0.3633  0.5856
  394SOL    HW2 1621   2.886   0.847   0.549  0.1968  0.2944 -0.6428
  394SOL    HW3 1622   3.031   0.885   0.568 -0.1477  2.0143 -1.4082
  394SOL    MW4 1623   2.947   0.896   0.587 -0.0885  0.0372  0.1605
  395SOL     OW 1624   1.410   1.332   0.320 -0.4950 -0.2221 -0.9041
  395SOL    HW2 1625   1.484   1.392   0.317 -0.5035 -0.2697 -2.2265
  395SOL    HW3 1626   1.345   1.372   0.262 -0.8158 -1.0798 -1.1361
  395SOL    MW4 1627   1.411   1.346   0.312 -0.5383 -0.3417 -1.1091
  396SOL     OW 1628   4.009   2.822   0.477 -0.0747  0.2908  0.1517
  396SOL    HW2 1629   4.026   2.873   0.557  1.0834  0.5353 -0.2344
  396SOL    HW3 1630   4.082   2.760   0.472 -1.0193 -0.8536  0.1594
  396SOL    MW4 1631   4.021   2.820   0.487 -0.0467  0.1721  0.1018
  397SOL     OW 1632   1.564   4.639   1.109 -0.0912 -0.0708 -0.0583
  397SOL    HW2 1633   1.575   4.544   1.122 -1.3691 -0.1206  0.7570
  397SOL    HW3 1634   1.587   4.653   1.017 -3.4274 -1.7677 -1.2531
  397SOL    MW4 1635   1.568   4.628   1.099 -0.6999 -0.3014 -0.1085
  398SOL     OW 1636   3.757   3.053   0.740  0.3323  0.2137 -0.2707
  398SOL    HW2 1637   3.759   2.957   0.742 -1.8320  0.0988 -1.8832
  398SOL    HW3 1638   3.763   3.079   0.832  2.0887 -1.4073  0.1165
  398SOL    MW4 1639   3.758   3.044   0.752  0.2787 -0.0153 -0.4324
  399SOL     OW 1640   4.281   0.196   0.825  0.5957 -0.3033  0.0753
  399SOL    HW2 1641   4.271   0.103   0.805 -0.6582  0.2507 -1.9451
  399SOL    HW3 1642   4.264   0.241   0.743  0.5053  1.7655  1.1839
  399SOL    MW4 1643   4.277   0.190   0.812  0.4177  0.0428 -0.0451
  400SOL     OW 1644   0.936   0.902   1.149 -0.0917  0.0458  0.0649
  400SOL    HW2 1645   0.895   0.981   1.113 -1.8648 -0.7572  0.2696
  400SOL    HW3 1646   0.866   0.837   1.149  1.2007 -1.3618  0.4560
  400SOL    MW4 1647   0.921   0.904   1.144 -0.1551 -0.2459  0.1435
  401SOL     OW 1648   4.168   3.205   0.714 -0.1810  0.2392  0.2910
  401SOL    HW2 1649   4.145   3.258   0.638 -1.0738 -2.2431 -1.2205
  401SOL    HW3 1650   4.263   3.195   0.709 -0.3129 -0.4570 -0.8741
  401SOL    MW4 1651   4.178   3.211   0.703 -0.3161 -0.1802 -0.0621
  402SOL     OW 1652   0.404   3.424   0.905  0.0773 -0.4902 -0.5880
  402SOL    HW2 1653   0.477   3.475   0.871  0.8035 -0.8542  0.3989
  402SOL    HW3 1654   0.421   3.417   0.999  0.0346 -2.6239 -0.7088
  402SOL    MW4 1655   0.416   3.430   0.913  0.1675 -0.8199 -0.4737
  403SOL     OW 1656   1.683   3.154   0.444  0.3922 -0.0863 -0.8478
  403SOL    HW2 1657   1.594   3.125   0.466  1.4424 -3.3504 -0.6529
  403SOL    HW3 1658   1.672   3.202   0.362 -1.7193  0.8644 -0.0748
  403SOL    MW4 1659   1.670   3.157   0.436  0.2521 -0.3917 -0.7201
  404SOL     OW 1660   3.385   3.609   1.189  0.2514  0.0940  0.1372
  404SOL    HW2 1661   3.313   3.555   1.157  1.3985 -0.8287 -0.9476
  404SOL    HW3 1662   3.374   3.610   1.284 -0.9206 -0.3981  0.0189
  404SOL    MW4 1663   3.374   3.602   1.198  0.2480 -0.0925 -0.0216
  405SOL     OW 1664   2.482   4.391   1.135  0.0743 -0.2942  0.2456
  405SOL    HW2 1665   2.495   4.484   1.118  0.3875 -0.4462 -0.3483
  405SOL    HW3 1666   2.567   4.351   1.118  0.2343 -0.5375  1.5934
  405SOL    MW4 1667   2.495   4.398   1.131  0.1364 -0.3467  0.3450
  406SOL     OW 1668   0.238   4.431   1.187 -0.0141 -0.0664 -0.4241
  406SOL    HW2 1669   0.249   4.525   1.176 -0.9506 -0.0067 -0.9280
  406SOL    HW3 1670   0.247   4.417   1.281  0.9376  0.4125 -0.4462
  406SOL    MW4 1671   0.240   4.442   1.198 -0.0121  0.0048 -0.4934
  407SOL     OW 1672   1.629   3.624   0.737  0.0843 -0.4436 -0.0240
  407SOL    HW2 1673   1.570   3.589   0.803 -0.4031 -0.8783 -0.6845
  407SOL    HW3 1674   1.717   3.602   0.768 -0.0262  1.1663  1.5279
  407SOL    MW4 1675   1.633   3.617   0.750  0.0052 -0.2882  0.0936
  408SOL     OW 1676   0.220   3.837   0.888 -0.8077 -0.5152  0.2503
  408SOL    HW2 1677   0.241   3.846   0.981  0.2917  1.5121 -0.1602
  408SOL    HW3 1678   0.130   3.870   0.881 -1.0129 -0.9898  0.6492
  408SOL    MW4 1679   0.211   3.842   0.899 -0.6897 -0.3104  0.2487
  409SOL     OW 1680   4.012   0.119   1.176  0.5967  0.2933  0.1804
  409SOL    HW2 1681   3.947   0.051   1.162 -0.6343  1.6329 -0.6686
  409SOL    HW3 1682   4.028   0.117   1.271 -2.0127  1.1463  0.6830
  409SOL    MW4 1683   4.006   0.110   1.187  0.0896  0.5826  0.1347
  410SOL     OW 1684   0.281   0.789   0.795 -0.0411 -0.0674 -0.3121
  410SOL    HW2 1685   0.367   0.750   0.778  0.7866  2.0336 -1.1005
  410SOL    HW3 1686   0.254   0.752   0.879  2.8948  1.3714  1.3372
  410SOL    MW4 1687   0.288   0.779   0.804  0.4554  0.3996 -0.1984
  411SOL     OW 1688   2.939   1.598   1.077 -0.1890  0.0260  0.2635
  411SOL    HW2 1689   3.012   1.620   1.135  2.0307 -1.3814 -1.8502
  411SOL    HW3 1690   2.926   1.504   1.089 -0.3293 -0.1015 -0.7797
  411SOL    MW4 1691   2.947   1.589   1.086  0.0856 -0.1767 -0.1531
  412SOL     OW 1692   1.177   1.615   0.638  0.1329  0.7465  0.5501
  412SOL    HW2 1693   1.147   1.632   0.549 -0.7432 -0.4971  0.5932
  412SOL    HW3 1694   1.096   1.605   0.689  0.6119 -0.4083  1.1074
  412SOL    MW4 1695   1.162   1.616   0.633  0.0803  0.4301  0.6292
  413SOL     OW 1696   1.739   1.973   0.123 -0.5656  0.5032  0.1027
  413SOL    HW2 1697   1.810   1.977   0.059  1.1116  0.6432  1.9191
  413SOL    HW3 1698   1.734   2.062   0.158 -2.0683  0.6512 -0.4266
  413SOL    MW4 1699   1.747   1.986   0.119 -0.5426  0.5412  0.2725
  414SOL     OW 1700   3.492   0.990   0.469 -0.0163  0.2517 -0.8597
  414SOL    HW2 1701   3.539   1.050   0.528  0.2434 -0.1996 -0.5994
  414SOL    HW3 1702   3.536   1.001   0.385 -0.1344  0.6168 -0.8724
  414SOL    MW4 1703   3.504   0.999   0.466  0.0021  0.2403 -0.8270
  415SOL     OW 1704   3.587   1.122   1.115 -0.0315 -0.1401  0.7062
  415SOL    HW2 1705   3.656   1.188   1.121 -0.0991  0.1225 -1.0394
  415SOL    HW3 1706   3.510   1.164   1.155  0.2877  0.3231  0.8361
  415SOL    MW4 1707   3.586   1.136   1.121  0.0017 -0.0443  0.4930
  416SOL     OW 1708   3.356   0.744   1.029  0.5606  0.6300  0.3341
  416SOL    HW2 1709   3.275   0.787   1.057  0.9085  0.7147  1.2238
  416SOL    HW3 1710   3.340   0.721   0.937 -0.7740 -0.0706  0.7277
  416SOL    MW4 1711   3.343   0.747   1.021  0.4306  0.5486  0.5034
  417SOL     OW 1712   2.603   2.822   0.417  0.2137  0.1317  0.2218
  417SOL    HW2 1713   2.605   2.916   0.430  1.4713  0.0082  0.9843
  417SOL    HW3 1714   2.529   2.791   0.470 -0.4707  0.7213 -0.3730
  417SOL    MW4 1715   2.593   2.830   0.426  0.2894  0.1934  0.2440
  418SOL     OW 1716   3.997   1.484   0.700 -0.0661 -0.1901  0.2198
  418SOL    HW2 1717   3.913   1.506   0.740 -0.4370  1.0940 -1.1932
  418SOL    HW3 1718   3.987   1.394   0.668 -0.4449 -0.4971  1.1986
  418SOL    MW4 1719   3.985   1.475   0.701 -0.1650 -0.0612  0.1626
  419SOL     OW 1720   1.529   4.254   0.606 -0.1425  0.1385  0.3925
  419SOL    HW2 1721   1.500   4.241   0.516  0.2766 -1.4960  0.4953
  419SOL    HW3 1722   1.618   4.220   0.608  0.0668  0.7244  1.2857
  419SOL    MW4 1723   1.537   4.248   0.594 -0.0595 -0.0005  0.5239
  420SOL     OW 1724   2.513   0.413   0.541  0.1367 -0.2914 -0.3326
  420SOL    HW2 1725   2.554   0.490   0.579 -1.4938  1.4295 -1.9260
  420SOL    HW3 1726   2.584   0.350   0.529  1.1266  0.1532  2.8721
  420SOL    MW4 1727   2.527   0.415   0.544  0.0517 -0.0057 -0.1200
  421SOL     OW 1728   1.839   0.598   0.432  0.3185  0.0684 -0.4966
  421SOL    HW2 1729   1.929   0.576   0.407 -0.4709 -2.9550 -0.9386
  421SOL    HW3 1730   1.828   0.689   0.405  3.5558  0.8077  0.4814
  421SOL    MW4 1731   1.850   0.607   0.425  0.6413 -0.2329 -0.4259
  422SOL     OW 1732   2.142   2.341   0.628  0.0019  0.0237  0.0357
  422SOL    HW2 1733   2.163   2.248   0.634  0.1330  0.0246 -0.4225
  422SOL    HW3 1734   2.159   2.364   0.537  0.0990  0.5294  0.1789
  422SOL    MW4 1735   2.147   2.331   0.617  0.0324  0.0906 -0.0058
  423SOL     OW 1736   0.458   4.020   1.221  0.1702 -0.1488 -0.6084
  423SOL    HW2 1737   0.525   3.973   1.171  0.4081  0.9933 -1.3701
  423SOL    HW3 1738   0.441   4.099   1.171 -2.4036 -0.8326 -0.8839
  423SOL    MW4 1739   0.464   4.024   1.208 -0.1380 -0.0882 -0.7452
  424SOL     OW 1740   1.143   0.461   1.193 -0.3083  0.0910  0.4446
  424SOL    HW2 1741   1.222   0.413   1.168 -0.1023 -0.5300  2.1735
  424SOL    HW3 1742   1.150   0.470   1.288 -0.9107  2.5759  0.2812
  424SOL    MW4 1743   1.154   0.456   1.203 -0.3607  0.3369  0.6512
  425SOL     OW 1744   0.889   3.465   1.138 -0.2768 -0.1834 -0.3655
  425SOL    HW2 1745   0.872   3.450   1.045 -0.0627 -0.9780 -0.2820
  425SOL    HW3 1746   0.809   3.508   1.170  0.3021  1.5964 -1.2575
  425SOL    MW4 1747   0.876   3.469   1.130 -0.1722 -0.0534 -0.4721
  426SOL     OW 1748   0.624   4.617   0.819 -0.0988  0.0114 -0.2011
  426SOL    HW2 1749   0.702   4.663   0.788 -0.2406 -0.6897 -1.6863
  426SOL    HW3 1750   0.638   4.526   0.793 -0.8420 -0.3559  0.6493
  426SOL    MW4 1751   0.636   4.611   0.811 -0.2156 -0.1287 -0.2848
  427SOL     OW 1752   1.690   4.246   0.333 -0.2165 -0.2239 -0.0192
  427SOL    HW2 1753   1.598   4.242   0.306 -0.0406 -1.7070 -0.4638
  427SOL    HW3 1754   1.702   4.335   0.364 -1.7171  0.0930 -0.2984
  427SOL    MW4 1755   1.680   4.257   0.334 -0.3914 -0.3781 -0.1147
  428SOL     OW 1756   2.393   3.986   0.491 -0.0363 -0.0263  0.0328
  428SOL    HW2 1757   2.409   3.893   0.474  0.3263  0.0273  0.0757
  428SOL    HW3 1758   2.400   4.028   0.406  1.0788  0.1420  0.2016
  428SOL    MW4 1759   2.396   3.979   0.478  0.1585  0.0031  0.0607
  429SOL     OW 1760   0.878   0.090   1.488 -0.1627  0.3503  0.3720
  429SOL    HW2 1761   0.863   0.089   1.394 -0.7018  1.9691  0.4202
  429SOL    HW3 1762   0.962   0.046   1.500 -0.7423 -1.0791 -0.7283
  429SOL    MW4 1763   0.887   0.084   1.477 -0.3103  0.3753  0.2332
  430SOL     OW 1764   3.858   3.862   1.594 -0.1750 -0.1674  0.1608
  430SOL    HW2 1765   3.942   3.895   1.562 -0.1882 -1.8276 -1.6759
  430SOL    HW3 1766   3.793   3.905   1.539 -0.3108 -1.4592 -0.7246
  430SOL    MW4 1767   3.861   3.872   1.582 -0.1948 -0.5569 -0.1982
  431SOL     OW 1768   0.154   3.046   0.846 -0.9021  0.1196  0.1802
  431SOL    HW2 1769   0.236   3.091   0.828 -0.4343 -0.8097 -0.0222
  431SOL    HW3 1770   0.089   3.093   0.794  0.0076 -1.0145 -2.0454
  431SOL    MW4 1771   0.156   3.059   0.837 -0.7204 -0.1528 -0.1402
  432SOL     OW 1772   2.716   3.273   1.171  0.3222 -0.1432  0.4537
  432SOL    HW2 1773   2.728   3.337   1.101 -3.2045  0.2231  0.0972
  432SOL    HW3 1774   2.762   3.195   1.140  2.2574  1.2802 -0.3806
  432SOL    MW4 1775   2.723   3.271   1.157  0.1123  0.0930  0.2966
  433SOL     OW 1776   2.509   2.048   1.123  0.3551 -0.0813  0.3061
  433SOL    HW2 1777   2.555   2.038   1.040 -0.1925 -1.1006  0.1172
  433SOL    HW3 1778   2.441   1.981   1.121 -0.4410  0.6906  1.0547
  433SOL    MW4 1779   2.506   2.038   1.112  0.1779 -0.1140  0.3799
  434SOL     OW 1780   1.026   1.039   0.715  0.7907 -0.0892 -0.0105
  434SOL    HW2 1781   0.986   0.958   0.681 -0.6793  0.6187  0.0124
  434SOL    HW3 1782   1.038   1.094   0.638  0.8030  0.0896  0.1178
  434SOL    MW4 1783   1.022   1.035   0.700  0.5984  0.0279  0.0094
  435SOL     OW 1784   1.032   3.298   0.378 -0.4059 -0.2125 -0.0463
  435SOL    HW2 1785   0.984   3.381   0.376  0.1616  0.1758  1.9642
  435SOL    HW3 1786   1.115   3.318   0.420 -0.1237 -1.7370  0.1662
  435SOL    MW4 1787   1.036   3.312   0.383 -0.2937 -0.3624  0.2470
  436SOL     OW 1788   2.791   4.206   0.859 -0.0210  0.4927 -0.4071
  436SOL    HW2 1789   2.802   4.116   0.826  0.1876  0.6380 -0.7373
  436SOL    HW3 1790   2.722   4.243   0.805 -0.0677  0.5514 -0.3072
  436SOL    MW4 1791   2.783   4.199   0.848  0.0005  0.5198 -0.4375
  437SOL     OW 1792   0.004   2.008   0.847 -0.6773 -0.2432 -0.9281
  437SOL    HW2 1793  -0.003   1.965   0.933 -1.7933  0.3304 -0.7212
  437SOL    HW3 1794   0.048   1.944   0.792  0.9176 -0.2572  0.3235
  437SOL    MW4 1795   0.009   1.994   0.851 -0.6142 -0.1693 -0.7356
  438SOL     OW 1796   3.204   1.079   1.114  0.1469  0.0088  0.0378
  438SOL    HW2 1797   3.231   1.095   1.024  0.2108  0.0943  0.0720
  438SOL    HW3 1798   3.266   1.129   1.167  1.0649 -1.2880  0.2023
  438SOL    MW4 1799   3.216   1.088   1.109  0.2763 -0.1510  0.0641
  439SOL     OW 1800   0.283   0.465   0.419 -0.1125  0.8159 -0.4898
  439SOL    HW2 1801   0.319   0.377   0.428 -1.4407  0.4055  0.8867
  439SOL    HW3 1802   0.249   0.487   0.506 -0.8288  2.2303 -1.1076
  439SOL    MW4 1803   0.283   0.456   0.431 -0.3822  0.9483 -0.3897
  440SOL     OW 1804   3.459   1.679   0.535 -0.0205  0.2117 -0.1297
  440SOL    HW2 1805   3.426   1.704   0.449 -1.2640 -0.9178 -0.0043
  440SOL    HW3 1806   3.457   1.583   0.534  1.0439  0.1753  0.7473
  440SOL    MW4 1807   3.454   1.669   0.524 -0.0441  0.0579  0.0025
  441SOL     OW 1808   0.138   1.602   0.792  0.3797 -0.5211  0.3794
  441SOL    HW2 1809   0.055   1.554   0.798 -0.6168  1.2860  1.4220
  441SOL    HW3 1810   0.190   1.566   0.864  0.0466 -0.7847  0.4942
  441SOL    MW4 1811   0.133   1.591   0.802  0.2043 -0.3173  0.5322
  442SOL     OW 1812   1.999   0.268   0.428 -0.1020  0.3319  0.4698
  442SOL    HW2 1813   2.076   0.210   0.424  0.3130  0.7514  2.0073
  442SOL    HW3 1814   1.926   0.212   0.404  0.4689 -0.5184  0.6794
  442SOL    MW4 1815   2.000   0.253   0.424  0.0279  0.2751  0.7003
  443SOL     OW 1816   2.026   0.772   1.105  0.1367  0.4133 -0.9516
  443SOL    HW2 1817   2.027   0.680   1.131  1.5727  0.1945 -1.7246
  443SOL    HW3 1818   1.939   0.803   1.130 -0.3471 -1.1409 -0.6462
  443SOL    MW4 1819   2.015   0.764   1.112  0.2623  0.1793 -1.0133
  444SOL     OW 1820   4.034   4.563   0.602  0.3243 -0.2144  0.1080
  444SOL    HW2 1821   4.118   4.576   0.648  0.1278  0.6284  0.2335
  444SOL    HW3 1822   3.994   4.489   0.647  0.2423  0.4562  1.1687
  444SOL    MW4 1823   4.040   4.555   0.614  0.2875 -0.0148  0.2645
  445SOL     OW 1824   2.917   1.515   0.461  0.3778  0.1691  0.6930
  445SOL    HW2 1825   2.891   1.519   0.554 -0.8515  1.5454  0.3262
  445SOL    HW3 1826   2.953   1.602   0.444  0.8528 -0.1775 -0.0497
  445SOL    MW4 1827   2.918   1.527   0.471  0.2782  0.3051  0.5466
  446SOL     OW 1828   1.328   2.498   1.222 -0.2048 -0.2591 -0.8339
  446SOL    HW2 1829   1.265   2.436   1.185  0.2355 -0.8472 -0.6095
  446SOL    HW3 1830   1.318   2.488   1.317  0.3243 -0.4600 -0.7966
  446SOL    MW4 1831   1.319   2.488   1.230 -0.0770 -0.3631 -0.7993
  447SOL     OW 1832   2.733   3.259   0.261  0.2650 -0.0268 -0.2378
  447SOL    HW2 1833   2.727   3.289   0.171 -1.3173  0.9343  0.1704
  447SOL    HW3 1834   2.650   3.216   0.278  0.5844 -0.2747  0.7446
  447SOL    MW4 1835   2.721   3.258   0.251  0.0985  0.0670 -0.0543
  448SOL     OW 1836   3.217   1.644   0.906 -0.1759 -0.4064  0.0927
  448SOL    HW2 1837   3.180   1.560   0.880  0.3643 -0.8591  0.7752
  448SOL    HW3 1838   3.238   1.634   0.998  2.1278 -0.3262 -0.4073
  448SOL    MW4 1839   3.215   1.632   0.914  0.1993 -0.4556  0.1167
  449SOL     OW 1840   1.880   2.975   0.332 -0.3552  0.5399  0.4829
  449SOL    HW2 1841   1.820   3.036   0.374 -1.4789  1.2229 -2.0211
  449SOL    HW3 1842   1.846   2.965   0.243  1.7703 -1.0900 -0.1945
  449SOL    MW4 1843   1.868   2.982   0.326 -0.2229  0.4151  0.0632
  450SOL     OW 1844   1.106   3.791   0.835 -0.1589 -0.5448 -0.5781
  450SOL    HW2 1845   1.188   3.816   0.793  0.4457 -2.7040 -0.7567
  450SOL    HW3 1846   1.080   3.710   0.791 -1.4646 -0.8359  0.6748
  450SOL    MW4 1847   1.113   3.784   0.824 -0.2513 -0.8681 -0.4365
  451SOL     OW 1848   2.261   4.244   1.055  0.1819 -0.5531 -0.1631
  451SOL    HW2 1849   2.191   4.280   1.109 -0.1596 -1.5937  0.1001
  451SOL    HW3 1850   2.340   4.290   1.084  0.2760 -2.1854  2.3380
  451SOL    MW4 1851   2.263   4.255   1.066  0.1493 -0.9060  0.2016
  452SOL     OW 1852   4.007   1.127   1.047  0.0065 -0.1848  0.2587
  452SOL    HW2 1853   4.093   1.162   1.071 -0.7988  2.4182 -0.5004
  452SOL    HW3 1854   3.945   1.190   1.083 -1.4997 -0.8441 -1.1382
  452SOL    MW4 1855   4.010   1.140   1.055 -0.2985  0.0716 -0.0257
  453SOL     OW 1856   4.277   0.336   0.588  0.3649 -0.3417 -0.5828
  453SOL    HW2 1857   4.228   0.376   0.516  0.4649 -0.0701 -0.4992
  453SOL    HW3 1858   4.346   0.399   0.609 -0.1963 -0.0237  0.3356
  453SOL    MW4 1859   4.279   0.350   0.581  0.3047 -0.2640 -0.4506
  454SOL     OW 1860   0.478   0.666   0.453 -0.0740 -0.3491  0.3075
  454SOL    HW2 1861   0.407   0.603   0.447  0.0216 -0.5674  1.4600
  454SOL    HW3 1862   0.507   0.663   0.544  2.5575 -1.5053 -0.4982
  454SOL    MW4 1863   0.473   0.657   0.464  0.2858 -0.5305  0.3533
  455SOL     OW 1864   1.634   3.894   1.077 -0.2312  0.3710 -0.3618
  455SOL    HW2 1865   1.552   3.911   1.122 -0.6463 -1.2421 -0.4835
  455SOL    HW3 1866   1.616   3.913   0.985 -0.1186  1.1661 -0.2236
  455SOL    MW4 1867   1.621   3.899   1.070 -0.2713  0.2630 -0.3597
  456SOL     OW 1868   0.173   3.583   0.865  0.1791  0.3584 -0.1551
  456SOL    HW2 1869   0.200   3.675   0.859  1.5804 -0.0423 -0.2793
  456SOL    HW3 1870   0.254   3.536   0.885 -0.5662 -0.8284  0.1301
  456SOL    MW4 1871   0.187   3.589   0.867  0.2657  0.1488 -0.1339
  457SOL     OW 1872   2.332   1.683   0.585 -0.6765  0.3145  0.0283
  457SOL    HW2 1873   2.243   1.696   0.552 -0.0482 -0.8834 -2.2796
  457SOL    HW3 1874   2.334   1.593   0.616 -0.1636  0.1955 -0.3358
  457SOL    MW4 1875   2.320   1.673   0.584 -0.5260  0.1407 -0.3243
  458SOL     OW 1876   4.035   1.638   1.456  0.4836  0.6001 -0.5464
  458SOL    HW2 1877   4.116   1.594   1.480  0.9409  1.2218 -0.9447
  458SOL    HW3 1878   3.966   1.579   1.486  1.0805  0.0640 -0.2194
  458SOL    MW4 1879   4.036   1.624   1.463  0.6223  0.6113 -0.5559
  459SOL     OW 1880   1.069   4.298   0.640 -0.2900 -0.1212 -0.0707
  459SOL    HW2 1881   1.154   4.266   0.672 -1.2088 -0.9332  1.5718
  459SOL    HW3 1882   1.004   4.255   0.696 -1.7617  1.0709 -0.8430
  459SOL    MW4 1883   1.072   4.288   0.651 -0.6053 -0.0710  0.0440
  460SOL     OW 1884   0.492   0.176   0.741  0.0209  0.1500  0.2830
  460SOL    HW2 1885   0.406   0.162   0.780 -0.0962  0.4495  0.1316
  460SOL    HW3 1886   0.545   0.102   0.773 -0.7101 -0.8821 -0.8312
  460SOL    MW4 1887   0.488   0.164   0.750 -0.0910  0.0533  0.1161
  461SOL     OW 1888   0.884   1.939   1.059 -0.0686 -0.2534  0.1258
  461SOL    HW2 1889   0.906   1.925   0.967 -1.7972 -0.8441 -0.2163
  461SOL    HW3 1890   0.963   1.976   1.097  1.0487 -1.0520 -1.3511
  461SOL    MW4 1891   0.897   1.942   1.052 -0.1493 -0.4368 -0.1142
  462SOL     OW 1892   3.942   3.753   0.280  0.0767  0.2544 -0.0267
  462SOL    HW2 1893   3.852   3.735   0.309 -1.0108  2.9692 -1.4410
  462SOL    HW3 1894   3.959   3.842   0.311  2.3199 -0.2472  0.2498
  462SOL    MW4 1895   3.932   3.763   0.288  0.2294  0.5465 -0.1768
  463SOL     OW 1896   2.275   0.371   1.102  0.1361 -0.0664  0.2051
  463SOL    HW2 1897   2.239   0.403   1.020 -1.2046  0.1144  0.8340
  463SOL    HW3 1898   2.346   0.431   1.124  1.4965 -0.9919 -1.5607
  463SOL    MW4 1899   2.279   0.383   1.094  0.1385 -0.1647  0.0550
  464SOL     OW 1900   3.012   3.569   0.702  0.1114  0.0946 -0.1367
  464SOL    HW2 1901   3.045   3.556   0.613 -1.2481 -1.8302 -0.3925
  464SOL    HW3 1902   2.924   3.532   0.700 -0.5705  1.5617  1.5790
  464SOL    MW4 1903   3.005   3.562   0.690 -0.1576  0.0343  0.0558
  465SOL     OW 1904   1.626   0.993   0.520  0.2321  0.2248  0.3545
  465SOL    HW2 1905   1.576   0.925   0.565 -1.3458 -0.0861 -1.7793
  465SOL    HW3 1906   1.624   1.068   0.579 -1.2845 -0.3523  1.0652
  465SOL    MW4 1907   1.619   0.994   0.533 -0.1761  0.1077  0.1667
  466SOL     OW 1908   0.461   2.088   0.777  0.4678  0.2220 -0.2564
  466SOL    HW2 1909   0.535   2.129   0.733 -0.8739  0.8852 -1.9603
  466SOL    HW3 1910   0.431   2.020   0.717  0.5349 -0.9719  1.0290
  466SOL    MW4 1911   0.467   2.085   0.763  0.2996  0.1519 -0.3117
  467SOL     OW 1912   0.463   2.711   1.090  0.3922  0.1116 -0.4097
  467SOL    HW2 1913   0.389   2.765   1.116  0.0612 -0.8420  0.6775
  467SOL    HW3 1914   0.534   2.738   1.147  0.5522  0.2143 -0.6575
  467SOL    MW4 1915   0.462   2.722   1.101  0.3697 -0.0007 -0.2990
  468SOL     OW 1916   0.907   0.055   1.200 -0.2065  0.1380  0.0196
  468SOL    HW2 1917   0.973   0.006   1.152 -0.6528 -1.2312  0.7940
  468SOL    HW3 1918   0.825   0.037   1.154 -0.5105 -0.5612  0.8088
  468SOL    MW4 1919   0.905   0.046   1.188 -0.3055 -0.1349  0.2260
  469SOL     OW 1920   2.412   2.548   0.478  0.0844 -0.5284 -0.5211
  469SOL    HW2 1921   2.340   2.590   0.431  0.2591  0.8603  0.4378
  469SOL    HW3 1922   2.484   2.548   0.415 -0.1355 -0.0656 -0.7747
  469SOL    MW4 1923   2.412   2.554   0.463  0.0787 -0.2844 -0.4280
  470SOL     OW 1924   4.454   3.165   0.404  0.0755  0.1321  0.1298
  470SOL    HW2 1925   4.365   3.202   0.407  0.2067  0.4125  0.6320
  470SOL    HW3 1926   4.509   3.237   0.373  0.2893  0.2931  0.8522
  470SOL    MW4 1927   4.449   3.180   0.401  0.1211  0.1905  0.2913
  471SOL     OW 1928   3.057   2.848   0.459  0.3145  0.2988 -0.0255
  471SOL    HW2 1929   3.088   2.862   0.549 -2.3338 -0.3498  1.0197
  471SOL    HW3 1930   3.020   2.932   0.433 -0.0950  0.1135 -0.0381
  471SOL    MW4 1931   3.057   2.861   0.468 -0.0889  0.1886  0.1107
  472SOL     OW 1932   0.670   4.318   0.727 -0.0261 -0.2190 -0.0928
  472SOL    HW2 1933   0.690   4.358   0.643  1.1606 -0.9028 -0.1384
  472SOL    HW3 1934   0.578   4.290   0.720 -0.2687  0.7450 -0.7427
  472SOL    MW4 1935   0.660   4.319   0.715  0.0985 -0.1817 -0.1845
  473SOL     OW 1936   3.376   0.529   1.217 -0.1521  0.4561  0.0135
  473SOL    HW2 1937   3.371   0.600   1.153 -1.6635  0.0947 -0.2806
  473SOL    HW3 1938   3.449   0.474   1.186  0.1775  1.1615 -0.4769
  473SOL    MW4 1939   3.385   0.531   1.205 -0.3083  0.5015 -0.0900
  474SOL     OW 1940   2.656   3.224   1.439  0.0464  0.0913 -0.6709
  474SOL    HW2 1941   2.733   3.182   1.477 -0.5177  0.8680  1.3708
  474SOL    HW3 1942   2.684   3.249   1.351  1.9666 -0.1248 -0.1417
  474SOL    MW4 1943   2.670   3.222   1.432  0.2253  0.1652 -0.3316
  475SOL     OW 1944   2.953   2.137   0.839 -0.2326  0.1326 -0.1355
  475SOL    HW2 1945   3.035   2.091   0.857  0.1586  0.3525 -1.3335
  475SOL    HW3 1946   2.947   2.203   0.909  0.5936  0.0890 -0.0187
  475SOL    MW4 1947   2.963   2.140   0.851 -0.0720  0.1559 -0.2781
  476SOL     OW 1948   0.907   4.257   0.323 -0.0516 -0.0312 -0.6287
  476SOL    HW2 1949   0.924   4.163   0.313 -0.3962 -0.1287 -0.3207
  476SOL    HW3 1950   0.992   4.298   0.312  0.2092 -0.4301 -0.1279
  476SOL    MW4 1951   0.921   4.250   0.320 -0.0627 -0.0963 -0.5220
  477SOL     OW 1952   1.359   0.746   0.869 -0.0760 -0.4341 -0.3232
  477SOL    HW2 1953   1.411   0.740   0.948 -0.2119  0.0044 -0.1977
  477SOL    HW3 1954   1.274   0.710   0.893  0.8406 -3.2567 -1.1503
  477SOL    MW4 1955   1.354   0.741   0.882  0.0268 -0.7486 -0.4158
  478SOL     OW 1956   1.663   3.960   0.399  0.1010 -0.1263 -0.4364
  478SOL    HW2 1957   1.658   4.033   0.338 -4.0640  0.1370  0.1069
  478SOL    HW3 1958   1.690   3.999   0.482  1.9447  0.0936 -1.1088
  478SOL    MW4 1959   1.666   3.975   0.402 -0.2052 -0.0625 -0.4534
  479SOL     OW 1960   0.250   0.031   1.095 -0.0677  0.3263 -0.1695
  479SOL    HW2 1961   0.159   0.040   1.124 -0.4475 -0.8993 -0.9535
  479SOL    HW3 1962   0.299   0.087   1.154 -0.9601 -1.3532  2.2705
  479SOL    MW4 1963   0.244   0.039   1.107 -0.2355 -0.0570  0.0490
  480SOL     OW 1964   3.912   2.361   0.253 -0.4456  0.3214  0.3266
  480SOL    HW2 1965   3.929   2.445   0.210 -1.0346  0.4252  0.2865
  480SOL    HW3 1966   3.895   2.300   0.181  0.1582  0.1224  0.3475
  480SOL    MW4 1967   3.912   2.364   0.238 -0.4439  0.3090  0.3241
  481SOL     OW 1968   0.443   4.257   1.087  0.4237 -0.0348  0.0746
  481SOL    HW2 1969   0.450   4.257   0.991  2.1337  2.8788  0.1403
  481SOL    HW3 1970   0.380   4.325   1.107 -1.8645 -2.3405  0.9924
  481SOL    MW4 1971   0.436   4.266   1.077  0.3474  0.0463  0.2044
  482SOL     OW 1972   3.885   4.263   0.283  0.2465  0.1873 -0.0431
  482SOL    HW2 1973   3.886   4.242   0.190  0.7006  0.4556 -0.1040
  482SOL    HW3 1974   3.966   4.314   0.296  0.9128 -1.0659  0.7823
  482SOL    MW4 1975   3.896   4.267   0.272  0.3943  0.0567  0.0578
  483SOL     OW 1976   4.323   4.613   0.305  0.1129 -0.3516  0.0858
  483SOL    HW2 1977   4.310   4.708   0.305  0.7108 -0.2722  0.0578
  483SOL    HW3 1978   4.386   4.597   0.235  0.5823 -0.6975  0.5921
  483SOL    MW4 1979   4.329   4.623   0.296  0.2542 -0.3867  0.1489
  484SOL     OW 1980   4.442   3.933   0.889 -0.0503 -0.2727 -0.2545
  484SOL    HW2 1981   4.392   3.932   0.970  0.6762  1.7151  0.2693
  484SOL    HW3 1982   4.452   4.026   0.868  1.8234 -0.6756 -1.3294
  484SOL    MW4 1983   4.437   3.945   0.897  0.2933 -0.0637 -0.3272
  485SOL     OW 1984   0.936   4.249   1.074  0.0813 -0.3368  0.3439
  485SOL    HW2 1985   1.010   4.288   1.120 -0.6444  1.3935  0.0575
  485SOL    HW3 1986   0.861   4.303   1.097 -1.0359 -1.8002  0.2672
  485SOL    MW4 1987   0.936   4.261   1.083 -0.1618 -0.3009  0.2960
  486SOL     OW 1988   0.502   0.390   1.095 -0.0082 -0.0433 -0.2393
  486SOL    HW2 1989   0.519   0.391   1.001 -0.5277 -0.4503 -0.3370
  486SOL    HW3 1990   0.574   0.441   1.132  0.7963 -0.7935 -0.7522
  486SOL    MW4 1991   0.514   0.397   1.087  0.0293 -0.1960 -0.3201
  487SOL     OW 1992   1.018   3.570   0.681  0.9219  0.6490  0.1720
  487SOL    HW2 1993   0.988   3.563   0.590  0.1397 -1.0523  0.5527
  487SOL    HW3 1994   1.099   3.519   0.684  0.9698  0.7383  0.4216
  487SOL    MW4 1995   1.024   3.562   0.669  0.8250  0.4365  0.2552
  488SOL     OW 1996   1.719   2.545   0.311  0.1404  0.0488 -0.0185
  488SOL    HW2 1997   1.799   2.572   0.356  0.8730 -1.0199 -0.6725
  488SOL    HW3 1998   1.676   2.627   0.287  2.4134  0.6862 -2.1320
  488SOL    MW4 1999   1.724   2.559   0.314  0.5369 -0.0081 -0.3836
  489SOL     OW 2000   3.204   3.947   0.685 -0.2647  0.6567 -0.2421
  489SOL    HW2 2001   3.293   3.917   0.706  0.1027  1.9737  0.1268
  489SOL    HW3 2002   3.196   4.031   0.730 -1.6302  0.6415 -0.4516
  489SOL    MW4 2003   3.215   3.954   0.694 -0.3965  0.8283 -0.2211
  490SOL     OW 2004   4.058   3.292   0.973 -0.1280 -0.5306 -0.5488
  490SOL    HW2 2005   4.096   3.239   0.902 -0.9082 -1.2563 -0.4351
  490SOL    HW3 2006   4.098   3.257   1.053  0.1882 -0.2063 -0.5624
  490SOL    MW4 2007   4.069   3.280   0.974 -0.1888 -0.5834 -0.5357
  491SOL     OW 2008   0.383   2.595   0.456 -0.1781 -0.3216  0.2111
  491SOL    HW2 2009   0.350   2.600   0.546 -0.5968  0.8220  0.0067
  491SOL    HW3 2010   0.315   2.548   0.408 -0.4934  0.0663  0.2665
  491SOL    MW4 2011   0.370   2.590   0.462 -0.2749 -0.1194  0.1915
  492SOL     OW 2012   1.858   2.866   0.784  0.9751 -0.4346 -0.0748
  492SOL    HW2 2013   1.915   2.800   0.744 -1.1638 -1.4107 -1.6717
  492SOL    HW3 2014   1.844   2.835   0.873  1.2944 -1.2737 -0.3101
  492SOL    MW4 2015   1.864   2.853   0.790  0.7350 -0.6738 -0.3166
  493SOL     OW 2016   1.723   2.223   0.236  0.0368  0.0701 -0.1930
  493SOL    HW2 2017   1.712   2.318   0.233 -0.7035 -0.0301 -0.6299
  493SOL    HW3 2018   1.654   2.192   0.294  1.2403 -0.0624  1.2036
  493SOL    MW4 2019   1.713   2.231   0.243  0.0979  0.0393 -0.0664
  494SOL     OW 2020   1.988   3.133   0.805 -0.1309 -0.0174 -0.5601
  494SOL    HW2 2021   1.927   3.192   0.760  0.2571 -0.2077 -1.3494
  494SOL    HW3 2022   1.940   3.051   0.813 -0.9593  0.6299  1.2454
  494SOL    MW4 2023   1.974   3.130   0.800 -0.1889  0.0427 -0.4260
  495SOL     OW 2024   0.261   2.038   1.187 -0.1571 -0.3451  0.3721
  495SOL    HW2 2025   0.318   1.986   1.131 -0.5741  0.3060 -0.6808
  495SOL    HW3 2026   0.249   2.120   1.139 -0.6926  0.1409  1.3185
  495SOL    MW4 2027   0.267   2.042   1.173 -0.2828 -0.1953  0.3582
  496SOL     OW 2028   0.435   1.667   1.463  0.1665  0.0367 -0.1214
  496SOL    HW2 2029   0.438   1.758   1.491 -0.4529  0.0369 -0.0422
  496SOL    HW3 2030   0.349   1.636   1.492 -0.1351 -0.2160 -1.2493
  496SOL    MW4 2031   0.424   1.675   1.470  0.0449  0.0036 -0.2598
  497SOL     OW 2032   4.484   2.730   1.115  0.9360  0.0762  0.7988
  497SOL    HW2 2033   4.509   2.726   1.022  2.4249 -0.2358  1.1981
  497SOL    HW3 2034   4.496   2.640   1.146 -0.8117 -0.1113  1.0017
  497SOL    MW4 2035   4.489   2.717   1.107  0.9022  0.0103  0.8783
  498SOL     OW 2036   3.039   2.626   0.811 -0.2805 -0.3171 -0.1648
  498SOL    HW2 2037   3.067   2.635   0.902  1.6015 -0.9181 -0.6536
  498SOL    HW3 2038   3.102   2.566   0.772 -0.4807  0.6714 -2.1050
  498SOL    MW4 2039   3.051   2.620   0.818 -0.0587 -0.2658 -0.4853
  499SOL     OW 2040   3.580   1.679   1.192 -0.2419 -0.6552 -0.1433
  499SOL    HW2 2041   3.661   1.640   1.160 -0.2143 -1.6226  1.0597
  499SOL    HW3 2042   3.571   1.760   1.143  2.0002 -0.0277  0.4333
  499SOL    MW4 2043   3.589   1.685   1.182  0.0572 -0.7000  0.0917
  500SOL     OW 2044   3.146   4.013   1.203 -0.2786  0.1283  0.1561
  500SOL    HW2 2045   3.228   3.975   1.171 -1.7168 -2.5448 -0.4531
  500SOL    HW3 2046   3.151   4.004   1.299  0.8670  1.5530  0.2454
  500SOL    MW4 2047   3.157   4.007   1.212 -0.3173 -0.0362  0.0876
  501SOL     OW 2048   2.145   4.085   0.570  0.3328  0.1129 -0.0486
  501SOL    HW2 2049   2.230   4.057   0.537  0.1881  1.8438 -1.9845
  501SOL    HW3 2050   2.166   4.135   0.650  0.8382 -2.3183  1.3891
  501SOL    MW4 2051   2.159   4.088   0.576  0.3800  0.0205 -0.1143
  502SOL     OW 2052   0.164   3.672   0.313 -0.7578  0.2078  0.3570
  502SOL    HW2 2053   0.147   3.581   0.339 -1.3853 -0.1653 -1.2492
  502SOL    HW3 2054   0.116   3.682   0.231 -1.6190  2.3643  1.1030
  502SOL    MW4 2055   0.156   3.661   0.305 -0.9542  0.4435  0.2435
  503SOL     OW 2056   4.388   2.890   0.324  0.1275  0.0583  0.0094
  503SOL    HW2 2057   4.473   2.850   0.308 -0.5355 -1.6479  0.6046
  503SOL    HW3 2058   4.408   2.979   0.352  1.7665 -0.6838  1.2654
  503SOL    MW4 2059   4.402   2.897   0.325  0.2570 -0.2646  0.2536
  504SOL     OW 2060   4.087   3.533   0.434 -0.0691  0.2214  0.0118
  504SOL    HW2 2061   4.069   3.605   0.374  0.1556 -0.0666 -0.4004
  504SOL    HW3 2062   4.001   3.493   0.450 -0.2346  0.7472  0.4575
  504SOL    MW4 2063   4.073   3.537   0.428 -0.0610  0.2530  0.0162
  505SOL     OW 2064   1.776   1.692   1.140 -0.1927 -0.2213 -0.8833
  505SOL    HW2 2065   1.858   1.654   1.107 -0.1290 -1.1610  0.3391
  505SOL    HW3 2066   1.788   1.787   1.129  0.2063 -0.4550 -2.6458
  505SOL    MW4 2067   1.789   1.700   1.134 -0.1317 -0.3761 -0.9546
  506SOL     OW 2068   3.012   3.822   0.831 -0.1463  0.2871 -0.2021
  506SOL    HW2 2069   3.087   3.862   0.787  0.3227 -0.8028 -0.3988
  506SOL    HW3 2070   3.000   3.738   0.787 -2.9259  1.4165 -1.7096
  506SOL    MW4 2071   3.021   3.817   0.820 -0.4516  0.2925 -0.4269
  507SOL     OW 2072   2.504   4.655   1.070 -0.2430 -0.3070 -0.4968
  507SOL    HW2 2073   2.428   4.702   1.103 -0.7645 -1.7484  0.4426
  507SOL    HW3 2074   2.579   4.697   1.113 -0.6411  0.1068 -0.2099
  507SOL    MW4 2075   2.504   4.667   1.080 -0.3643 -0.4426 -0.3350
  508SOL     OW 2076   3.871   0.059   0.734 -0.0917 -0.3441  0.0456
  508SOL    HW2 2077   3.935   0.006   0.686  1.7202  0.9575  0.9943
  508SOL    HW3 2078   3.813  -0.006   0.774  0.6542 -1.5454 -0.7627
  508SOL    MW4 2079   3.871   0.043   0.733  0.2458 -0.3309  0.0641
  509SOL     OW 2080   3.245   0.961   0.610 -0.0420  0.2088 -0.4338
  509SOL    HW2 2081   3.288   0.893   0.661  0.0317 -0.3552 -1.2335
  509SOL    HW3 2082   3.314   0.996   0.554 -0.4297 -0.1616 -1.1594
  509SOL    MW4 2083   3.260   0.956   0.609 -0.0834  0.0856 -0.6351
  510SOL     OW 2084   2.541   0.642   0.383  0.0898  0.1186  0.2468
  510SOL    HW2 2085   2.522   0.549   0.401  0.2338  0.0773  0.1905
  510SOL    HW3 2086   2.456   0.685   0.386 -0.0312 -0.0919 -0.1747
  510SOL    MW4 2087   2.527   0.635   0.386  0.0930  0.0854  0.1837
  511SOL     OW 2088   1.306   4.220   0.771  0.1099  0.3626  0.5502
  511SOL    HW2 2089   1.390   4.210   0.726 -0.0078  0.7549  0.2399
  511SOL    HW3 2090   1.330   4.239   0.862  0.3470 -0.4094  0.6498
  511SOL    MW4 2091   1.320   4.221   0.777  0.1255  0.3123  0.5224
  512SOL     OW 2092   0.458   3.162   1.203 -0.2160  0.1895 -0.0163
  512SOL    HW2 2093   0.520   3.119   1.145 -0.1823 -0.7800  0.7346
  512SOL    HW3 2094   0.372   3.143   1.166 -0.1213  0.8471 -0.5928
  512SOL    MW4 2095   0.455   3.154   1.191 -0.1991  0.1483  0.0067
  513SOL     OW 2096   1.932   4.521   0.614 -0.4694  0.1487  0.2276
  513SOL    HW2 2097   2.014   4.551   0.576 -0.0103 -0.3284  0.8429
  513SOL    HW3 2098   1.912   4.586   0.682 -0.2172 -0.1494  0.5852
  513SOL    MW4 2099   1.940   4.534   0.618 -0.3756  0.0458  0.3560
  514SOL     OW 2100   2.089   0.522   0.335  0.3441 -0.2779  0.0156
  514SOL    HW2 2101   2.102   0.519   0.241 -0.1559 -0.5224 -0.0467
  514SOL    HW3 2102   2.066   0.433   0.360 -0.6059  0.0108  0.2017
  514SOL    MW4 2103   2.088   0.510   0.326  0.1526 -0.2721  0.0319
  515SOL     OW 2104   0.743   0.503   1.205 -0.5198  0.6466 -0.0022
  515SOL    HW2 2105   0.790   0.437   1.155  0.8084  1.8856 -0.4063
  515SOL    HW3 2106   0.744   0.471   1.295  0.1766  0.1627 -0.1840
  515SOL    MW4 2107   0.749   0.490   1.210 -0.2527  0.7462 -0.0795
  516SOL     OW 2108   2.927   1.870   0.955  0.1784  0.3471  0.3668
  516SOL    HW2 2109   2.958   1.780   0.959 -1.2126 -0.1434  0.2671
  516SOL    HW3 2110   2.937   1.903   1.045  0.3343 -0.0209  0.4848
  516SOL    MW4 2111   2.933   1.862   0.967  0.0155  0.2338  0.3692
  517SOL     OW 2112   1.299   1.009   0.815 -0.2347 -0.0778 -0.4642
  517SOL    HW2 2113   1.219   1.019   0.763  0.1942 -1.0168 -1.3199
  517SOL    HW3 2114   1.310   0.914   0.824  0.7192  0.0464 -0.2436
  517SOL    MW4 2115   1.290   0.998   0.809 -0.0523 -0.1853 -0.5479
  518SOL     OW 2116   0.906   2.429   1.193  0.1322 -0.1533  0.3211
  518SOL    HW2 2117   0.833   2.377   1.159 -0.6069  1.7442 -1.0614
  518SOL    HW3 2118   0.897   2.423   1.288  0.3569 -2.9231  0.2244
  518SOL    MW4 2119   0.895   2.421   1.201  0.0644 -0.2685  0.1260
  519SOL     OW 2120   4.078   1.903   1.568  0.0690 -0.3952 -0.8992
  519SOL    HW2 2121   4.004   1.963   1.561  0.1089 -0.1606  0.3869
  519SOL    HW3 2122   4.056   1.829   1.513  0.1099  0.9013 -2.6829
  519SOL    MW4 2123   4.065   1.901   1.560  0.0796 -0.1932 -0.9649
  520SOL     OW 2124   3.295   1.959   1.170  0.1526  0.0709  0.4706
  520SOL    HW2 2125   3.238   1.985   1.098 -0.3304 -0.5276  0.6271
  520SOL    HW3 2126   3.383   1.956   1.132  0.0828  0.9972  0.2299
  520SOL    MW4 2127   3.299   1.962   1.156  0.0796  0.1142  0.4593
  521SOL     OW 2128   1.099   2.046   1.480 -0.1153 -0.1067  0.4332
  521SOL    HW2 2129   1.112   2.131   1.521 -0.6342  0.2042 -0.0435
  521SOL    HW3 2130   1.181   1.999   1.495  1.3250  1.5698 -1.9315
  521SOL    MW4 2131   1.111   2.051   1.487  0.0063  0.1552  0.0583
  522SOL     OW 2132   3.309   2.735   0.438  0.0624  0.5031  0.1193
  522SOL    HW2 2133   3.291   2.646   0.469  1.2130  0.3217  0.2813
  522SOL    HW3 2134   3.223   2.771   0.416 -0.3769 -0.7855 -0.2951
  522SOL    MW4 2135   3.295   2.728   0.439  0.1564  0.3090  0.0861
  523SOL     OW 2136   4.247   3.593   0.645  0.1128  0.4259 -0.0218
  523SOL    HW2 2137   4.193   3.556   0.575 -0.7722  0.9097  0.4082
  523SOL    HW3 2138   4.186   3.608   0.717  1.1835 -0.9539  1.1929
  523SOL    MW4 2139   4.232   3.590   0.645  0.1369  0.3073  0.1951
  524SOL     OW 2140   3.693   4.210   0.811 -0.3068  0.0072 -0.5309
  524SOL    HW2 2141   3.666   4.241   0.897 -1.1232 -0.7741 -0.4994
  524SOL    HW3 2142   3.717   4.118   0.825  0.1732  0.0559 -1.0096
  524SOL    MW4 2143   3.692   4.202   0.824 -0.3510 -0.0896 -0.5899
  525SOL     OW 2144   2.717   2.658   1.044 -0.0493 -0.0538  0.0426
  525SOL    HW2 2145   2.708   2.574   1.089 -2.4493 -0.6191 -1.3976
  525SOL    HW3 2146   2.647   2.712   1.081 -0.5745  0.2307 -1.3423
  525SOL    MW4 2147   2.707   2.654   1.055 -0.4356 -0.0908 -0.3302
  526SOL     OW 2148   1.794   1.991   1.070 -0.0682 -0.2840 -0.0388
  526SOL    HW2 2149   1.797   1.989   0.974  1.3243  1.0014 -0.0464
  526SOL    HW3 2150   1.880   2.026   1.096 -0.3472 -0.8395  1.6829
  526SOL    MW4 2151   1.806   1.995   1.060  0.0787 -0.1878  0.1875
  527SOL     OW 2152   4.468   3.217   1.203 -0.2806  0.0352 -0.1241
  527SOL    HW2 2153   4.386   3.186   1.163 -0.2631 -1.0838  0.6900
  527SOL    HW3 2154   4.536   3.165   1.160 -0.0247  0.6924 -0.5197
  527SOL    MW4 2155   4.466   3.206   1.192 -0.2441 -0.0260 -0.0689
  528SOL     OW 2156   0.683   3.625   1.245 -0.1661  0.3995  0.4473
  528SOL    HW2 2157   0.697   3.615   1.339  3.0716 -3.5757 -0.3168
  528SOL    HW3 2158   0.618   3.558   1.223  2.2283 -1.6800 -0.6764
  528SOL    MW4 2159   0.677   3.615   1.255  0.5770 -0.3991  0.1982
  529SOL     OW 2160   1.660   3.615   0.471 -0.6286 -0.0665 -0.2669
  529SOL    HW2 2161   1.667   3.619   0.566  0.5080 -0.2297 -0.3252
  529SOL    HW3 2162   1.603   3.688   0.447  0.5550  1.1073  0.4108
  529SOL    MW4 2163   1.654   3.625   0.480 -0.3226  0.0668 -0.1852
  530SOL     OW 2164   0.393   3.053   0.434 -0.0770 -0.0967  0.3913
  530SOL    HW2 2165   0.475   3.024   0.475  0.2589  0.7563  0.3445
  530SOL    HW3 2166   0.381   2.995   0.359  1.1749  0.5966 -0.3645
  530SOL    MW4 2167   0.402   3.042   0.430  0.1325  0.1073  0.2854
  531SOL     OW 2168   2.414   1.372   1.242 -0.3204  0.0283 -0.3832
  531SOL    HW2 2169   2.338   1.327   1.205 -1.2464  0.0407  1.4768
  531SOL    HW3 2170   2.382   1.460   1.263  0.0843 -0.0997  0.7952
  531SOL    MW4 2171   2.400   1.378   1.240 -0.3893  0.0130  0.0175
  532SOL     OW 2172   2.715   2.070   0.569 -0.2129  0.4997  0.1504
  532SOL    HW2 2173   2.696   2.000   0.506  0.2769 -0.3078  0.8821
  532SOL    HW3 2174   2.633   2.120   0.574 -0.4351  0.2378 -0.6991
  532SOL    MW4 2175   2.701   2.067   0.562 -0.1776  0.3586  0.1349
  533SOL     OW 2176   1.157   2.326   1.123  0.1121  0.1006  0.3305
  533SOL    HW2 2177   1.072   2.359   1.152 -0.8059 -1.8843 -0.0582
  533SOL    HW3 2178   1.151   2.324   1.028  0.1721 -1.1394  0.3470
  533SOL    MW4 2179   1.145   2.330   1.115 -0.0013 -0.3247  0.2813
  534SOL     OW 2180   0.246   0.773   1.108  0.2300  0.3989  0.1747
  534SOL    HW2 2181   0.248   0.679   1.126  1.6199  0.9004  2.8689
  534SOL    HW3 2182   0.161   0.802   1.139 -0.1243  0.0622 -0.4826
  534SOL    MW4 2183   0.235   0.765   1.114  0.3666  0.4206  0.4436
  535SOL     OW 2184   1.071   4.562   0.760 -0.1678 -0.3824 -0.2306
  535SOL    HW2 2185   1.057   4.473   0.727 -0.8436 -0.8726  1.3181
  535SOL    HW3 2186   0.987   4.606   0.746 -0.0499 -0.1959 -0.3541
  535SOL    MW4 2187   1.058   4.556   0.754 -0.2414 -0.4220 -0.0426
  536SOL     OW 2188   0.907   0.305   1.099  0.0051  0.1041  0.1121
  536SOL    HW2 2189   0.897   0.221   1.144 -2.8683  1.5178  2.2982
  536SOL    HW3 2190   0.978   0.349   1.147 -0.5859  0.1463  0.9645
  536SOL    MW4 2191   0.915   0.300   1.112 -0.4520  0.2962  0.5130
  537SOL     OW 2192   4.414   0.570   0.642 -0.0893 -0.4182  0.0417
  537SOL    HW2 2193   4.367   0.606   0.717 -0.4147 -0.5636 -0.0945
  537SOL    HW3 2194   4.397   0.632   0.571  0.4695 -0.1186  0.1660
  537SOL    MW4 2195   4.406   0.583   0.642 -0.0582 -0.3979  0.0401
  538SOL     OW 2196   3.315   2.069   0.413 -0.0308  0.4037  0.0695
  538SOL    HW2 2197   3.221   2.088   0.412  0.0268  0.7292  0.5040
  538SOL    HW3 2198   3.356   2.151   0.386  0.0667 -0.2042 -1.6599
  538SOL    MW4 2199   3.308   2.082   0.410 -0.0103  0.3662 -0.1013
  539SOL     OW 2200   0.903   1.639   1.501 -0.2443 -0.0298 -0.0432
  539SOL    HW2 2201   0.913   1.663   1.409  0.3203 -0.1105 -0.0007
  539SOL    HW3 2202   0.989   1.609   1.528 -0.3066  0.3894  0.6303
  539SOL    MW4 2203   0.915   1.639   1.492 -0.1779  0.0149  0.0513
  540SOL     OW 2204   1.810   3.303   0.653  0.1818  0.2400 -0.0801
  540SOL    HW2 2205   1.799   3.254   0.572 -0.5722  0.1384  0.0804
  540SOL    HW3 2206   1.721   3.309   0.690  0.3049  1.4850  0.0341
  540SOL    MW4 2207   1.797   3.297   0.647  0.0983  0.3910 -0.0439
  541SOL     OW 2208   0.883   1.166   1.077 -0.3862  0.3271 -0.0021
  541SOL    HW2 2209   0.870   1.209   0.992  0.7843  0.0111 -0.3473
  541SOL    HW3 2210   0.965   1.203   1.109  1.7889 -3.2390 -1.2791
  541SOL    MW4 2211   0.892   1.177   1.070  0.0553 -0.1850 -0.2161
  542SOL     OW 2212   0.654   4.652   1.096  0.1085 -0.1264 -0.5045
  542SOL    HW2 2213   0.670   4.567   1.136 -0.5348 -0.1600 -0.3125
  542SOL    HW3 2214   0.631   4.632   1.005 -0.5024 -0.1922 -0.3381
  542SOL    MW4 2215   0.653   4.639   1.089 -0.0570 -0.1392 -0.4572
  543SOL     OW 2216   2.441   4.147   0.267 -0.1011 -0.2367  0.2229
  543SOL    HW2 2217   2.485   4.093   0.201  1.3327  1.1820 -0.0124
  543SOL    HW3 2218   2.512   4.176   0.324 -1.1969 -0.6012  1.7924
  543SOL    MW4 2219   2.456   4.143   0.266 -0.0563 -0.0978  0.3989
  544SOL     OW 2220   0.611   1.685   0.288  0.1317  0.2826  0.1426
  544SOL    HW2 2221   0.601   1.776   0.260  0.3215  0.2695  0.0301
  544SOL    HW3 2222   0.603   1.688   0.383  1.0511  0.5431  0.2177
  544SOL    MW4 2223   0.609   1.698   0.297  0.2780  0.3151  0.1377
  545SOL     OW 2224   1.876   3.530   0.818  0.0354  0.2307 -0.1970
  545SOL    HW2 2225   1.945   3.594   0.800  0.9849 -0.3015  1.4774
  545SOL    HW3 2226   1.898   3.455   0.762  0.7262  0.1420  0.1813
  545SOL    MW4 2227   1.888   3.528   0.808  0.2518  0.1485  0.0738
  546SOL     OW 2228   3.156   0.164   0.634  0.7673 -0.0797 -0.2994
  546SOL    HW2 2229   3.237   0.137   0.678  0.2152  0.3398  1.0056
  546SOL    HW3 2230   3.119   0.230   0.692 -1.6233 -1.8223  0.2041
  546SOL    MW4 2231   3.162   0.169   0.647  0.3788 -0.2542 -0.0608
  547SOL     OW 2232   0.003   2.251   0.426 -0.5136 -0.1610 -0.4743
  547SOL    HW2 2233   0.015   2.246   0.521 -2.2010  2.8889 -0.0196
  547SOL    HW3 2234  -0.029   2.165   0.401  0.3981 -1.1541  1.6499
  547SOL    MW4 2235   0.001   2.239   0.435 -0.6159  0.1101 -0.1341
  548SOL     OW 2236   2.984   4.463   1.152  0.2663 -0.1572  0.3005
  548SOL    HW2 2237   3.048   4.409   1.106 -0.0074 -0.0781 -0.1724
  548SOL    HW3 2238   2.902   4.414   1.146  0.6766 -1.2348  2.6254
  548SOL    MW4 2239   2.982   4.449   1.145  0.2844 -0.2885  0.5449
  549SOL     OW 2240   1.649   3.116   1.587 -0.5215 -0.1560  0.0083
  549SOL    HW2 2241   1.710   3.165   1.532 -1.3053  0.0128 -0.7228
  549SOL    HW3 2242   1.639   3.032   1.543 -0.1744 -0.5047  0.5794
  549SOL    MW4 2243   1.656   3.111   1.574 -0.5791 -0.1795 -0.0129
  550SOL     OW 2244   4.307   0.514   1.158 -0.2077  0.0811  0.3328
  550SOL    HW2 2245   4.284   0.508   1.251 -1.8144  1.3553  0.0264
  550SOL    HW3 2246   4.301   0.607   1.137  2.5544  0.1223 -0.4690
  550SOL    MW4 2247   4.303   0.525   1.168 -0.0548  0.2547  0.1866
  551SOL     OW 2248   1.146   4.630   0.376 -0.5708  0.3479  0.0956
  551SOL    HW2 2249   1.177   4.660   0.461  0.0886  1.0565 -0.3952
  551SOL    HW3 2250   1.190   4.686   0.313 -1.0608 -0.1737 -0.7172
  551SOL    MW4 2251   1.156   4.641   0.379 -0.5484  0.3719 -0.0764
  552SOL     OW 2252   4.024   3.559   1.040  0.1984 -0.0184 -0.2099
  552SOL    HW2 2253   4.109   3.570   1.082  0.7886  2.3025 -1.9470
  552SOL    HW3 2254   4.024   3.467   1.013  2.6808  0.2533 -1.2909
  552SOL    MW4 2255   4.035   3.548   1.042  0.6037  0.3238 -0.5816
  553SOL     OW 2256   1.686   2.406   0.737 -0.6651 -0.2881 -0.2433
  553SOL    HW2 2257   1.679   2.311   0.726  0.5763 -0.7850  2.6054
  553SOL    HW3 2258   1.610   2.430   0.790  0.6115 -0.2376  1.6403
  553SOL    MW4 2259   1.675   2.397   0.743 -0.3330 -0.3469  0.3811
  554SOL     OW 2260   2.758   4.281   1.131  0.2310  0.0507  0.0592
  554SOL    HW2 2261   2.762   4.267   1.037  0.2458  0.4137  0.0062
  554SOL    HW3 2262   2.738   4.195   1.167  0.9387 -0.2318 -0.2216
  554SOL    MW4 2263   2.756   4.268   1.124  0.3264  0.0610  0.0153
  555SOL     OW 2264   0.456   3.696   0.411  0.1659 -1.0295  0.3250
  555SOL    HW2 2265   0.386   3.663   0.355  0.0858 -2.4245  1.2062
  555SOL    HW3 2266   0.432   3.786   0.430 -0.4048 -0.9144 -0.9178
  555SOL    MW4 2267   0.444   3.704   0.407  0.0800 -1.1983  0.2773
  556SOL     OW 2268   3.540   3.942   0.412 -0.0582 -0.3583 -0.5423
  556SOL    HW2 2269   3.475   3.874   0.430 -1.4412  0.9412 -0.5818
  556SOL    HW3 2270   3.521   4.011   0.475  1.2518  0.0717 -0.5929
  556SOL    MW4 2271   3.529   3.942   0.423 -0.0677 -0.1299 -0.5542
  557SOL     OW 2272   1.870   2.048   0.537 -0.2206  0.5336  0.5698
  557SOL    HW2 2273   1.803   1.997   0.492 -0.5327  0.8366  0.6942
  557SOL    HW3 2274   1.919   2.091   0.466 -0.5156  0.7639  0.5077
  557SOL    MW4 2275   1.868   2.047   0.522 -0.3008  0.6042  0.5780
  558SOL     OW 2276   1.383   4.217   1.026  0.6927  0.0505 -0.0403
  558SOL    HW2 2277   1.391   4.128   1.060  0.3544 -1.0765 -2.7368
  558SOL    HW3 2278   1.443   4.269   1.079 -0.2220 -1.4676  2.5683
  558SOL    MW4 2279   1.392   4.212   1.037  0.5274 -0.2985 -0.0520
  559SOL     OW 2280   1.106   3.846   1.118 -0.1032  0.2732 -0.2894
  559SOL    HW2 2281   1.103   3.759   1.157  2.2515  0.6754  0.8831
  559SOL    HW3 2282   1.104   3.831   1.024  0.3732 -1.0322 -0.0992
  559SOL    MW4 2283   1.105   3.833   1.111  0.2702  0.1540 -0.1097
  560SOL     OW 2284   3.479   2.318   0.431 -0.4965  0.0434  0.4365
  560SOL    HW2 2285   3.563   2.363   0.427 -0.0372 -0.7144  1.2028
  560SOL    HW3 2286   3.416   2.385   0.456 -0.1791  0.6852 -0.4583
  560SOL    MW4 2287   3.482   2.333   0.433 -0.3941  0.0284  0.4196
  561SOL     OW 2288   3.631   2.482   1.174 -0.3563 -0.0614  0.2140
  561SOL    HW2 2289   3.622   2.484   1.269  1.3054 -1.0369  0.4069
  561SOL    HW3 2290   3.625   2.573   1.147  2.3738  0.5643  1.5893
  561SOL    MW4 2291   3.629   2.494   1.183  0.2232 -0.1075  0.4209
  562SOL     OW 2292   1.089   2.880   0.509 -0.1821 -0.0870  0.2243
  562SOL    HW2 2293   1.164   2.931   0.478  0.5586 -0.8015  0.7866
  562SOL    HW3 2294   1.104   2.870   0.603 -0.6707 -0.7402  0.2399
  562SOL    MW4 2295   1.101   2.885   0.517 -0.1488 -0.2675  0.3005
  563SOL     OW 2296   1.560   2.097   1.182 -0.4460  0.1304  0.4401
  563SOL    HW2 2297   1.491   2.044   1.142 -0.0764 -0.7559  0.9665
  563SOL    HW3 2298   1.640   2.070   1.135 -0.2699  0.2788  0.6570
  563SOL    MW4 2299   1.562   2.087   1.170 -0.3741  0.0331  0.5382
  564SOL     OW 2300   1.564   1.248   1.177  0.0387 -0.1548  0.5283
  564SOL    HW2 2301   1.553   1.343   1.167  0.2118 -0.1727  0.1640
  564SOL    HW3 2302   1.577   1.236   1.271 -1.7396 -0.0018  0.8015
  564SOL    MW4 2303   1.565   1.259   1.188 -0.1732 -0.1370  0.5163
  565SOL     OW 2304   2.780   2.716   0.791 -0.3394  0.2827 -0.2058
  565SOL    HW2 2305   2.739   2.690   0.873  1.0770 -0.6246  0.2461
  565SOL    HW3 2306   2.871   2.687   0.800  0.4178  2.2301 -1.1595
  565SOL    MW4 2307   2.787   2.709   0.803 -0.0527  0.4199 -0.2720
  566SOL     OW 2308   0.080   4.167   0.500 -0.2608  0.0662 -0.6474
  566SOL    HW2 2309   0.080   4.072   0.489 -1.9629 -0.0059 -0.1791
  566SOL    HW3 2310  -0.012   4.190   0.509  0.2550  1.5006  1.4334
  566SOL    MW4 2311   0.068   4.157   0.500 -0.4173  0.2465 -0.3111
  567SOL     OW 2312   4.030   1.669   1.172  0.2956  0.2263  0.2047
  567SOL    HW2 2313   4.092   1.607   1.133 -0.7529 -0.7019 -0.0231
  567SOL    HW3 2314   4.032   1.648   1.266 -0.4054 -0.4790  0.0671
  567SOL    MW4 2315   4.039   1.658   1.180  0.0644  0.0107  0.1565
  568SOL     OW 2316   1.567   1.521   1.081  0.0229 -0.0506 -0.0453
  568SOL    HW2 2317   1.602   1.487   0.998 -0.3816 -1.8930  0.5063
  568SOL    HW3 2318   1.640   1.568   1.121  0.6921 -0.5037 -0.7287
  568SOL    MW4 2319   1.581   1.523   1.075  0.0579 -0.3535 -0.0626
  569SOL     OW 2320   0.664   3.833   0.818 -0.1136  0.2461 -0.0552
  569SOL    HW2 2321   0.658   3.842   0.913 -0.4216 -2.8650  0.2614
  569SOL    HW3 2322   0.749   3.871   0.796  1.0285 -1.1464  1.7787
  569SOL    MW4 2323   0.674   3.839   0.828 -0.0035 -0.3479  0.2285
  570SOL     OW 2324   1.470   3.468   0.349 -0.0698  0.5072 -0.0392
  570SOL    HW2 2325   1.449   3.542   0.291  2.2572  0.5313 -0.9178
  570SOL    HW3 2326   1.525   3.505   0.417 -0.4215 -0.0856  0.5809
  570SOL    MW4 2327   1.474   3.482   0.350  0.1910  0.4323 -0.0733
  571SOL     OW 2328   3.383   3.455   0.629 -0.1208 -0.0885  0.6216
  571SOL    HW2 2329   3.300   3.432   0.671  0.5213  0.3967  2.2023
  571SOL    HW3 2330   3.406   3.379   0.576 -2.4623  0.4654 -1.2416
  571SOL    MW4 2331   3.375   3.442   0.628 -0.3450  0.0489  0.5842
  572SOL     OW 2332   1.557   3.115   1.109  0.5147 -0.5195  0.3850
  572SOL    HW2 2333   1.629   3.176   1.119 -0.3229  0.4422  0.6474
  572SOL    HW3 2334   1.483   3.158   1.151 -0.0849 -1.7220  0.6019
  572SOL    MW4 2335   1.556   3.129   1.116  0.3251 -0.5512  0.4481
  573SOL     OW 2336   2.744   3.460   0.697 -0.6012  0.6363  0.1027
  573SOL    HW2 2337   2.651   3.483   0.696 -0.4476  1.2887  0.7081
  573SOL    HW3 2338   2.745   3.365   0.688 -1.3168  0.6548 -0.1997
  573SOL    MW4 2339   2.732   3.450   0.696 -0.6754  0.7248  0.1428
  574SOL     OW 2340   2.474   3.137   0.812 -0.2363 -0.2785  0.3217
  574SOL    HW2 2341   2.547   3.075   0.804 -0.2697 -0.2233 -0.4780
  574SOL    HW3 2342   2.404   3.097   0.760 -0.6317 -0.1077  0.7149
  574SOL    MW4 2343   2.474   3.123   0.804 -0.2928 -0.2484  0.2680
  575SOL     OW 2344   4.402   0.956   0.429 -0.4118  0.0904  0.0862
  575SOL    HW2 2345   4.426   1.048   0.432 -1.6907  0.3996  1.5406
  575SOL    HW3 2346   4.477   0.911   0.468  0.1223  0.5378 -0.4241
  575SOL    MW4 2347   4.415   0.962   0.435 -0.5097  0.1901  0.2107
  576SOL     OW 2348   2.477   0.537   1.186  0.2929 -0.3368 -0.0484
  576SOL    HW2 2349   2.485   0.537   1.281  0.8766  0.7028 -0.0902
  576SOL    HW3 2350   2.458   0.628   1.163  2.2971 -0.1283 -1.0856
  576SOL    MW4 2351   2.476   0.549   1.195  0.6344 -0.1721 -0.1907
  577SOL     OW 2352   1.746   0.128   0.390 -0.1228 -0.0336  0.2294
  577SOL    HW2 2353   1.663   0.176   0.388  0.3014  0.6696 -1.0986
  577SOL    HW3 2354   1.720   0.036   0.382 -0.8202  0.1320  0.5407
  577SOL    MW4 2355   1.731   0.122   0.389 -0.1590  0.0810  0.0953
  578SOL     OW 2356   0.608   3.561   0.788 -0.6106 -0.2165 -0.2106
  578SOL    HW2 2357   0.637   3.652   0.786 -1.1576 -0.0176  0.6335
  578SOL    HW3 2358   0.605   3.535   0.696 -0.4650  0.6207 -0.4575
  578SOL    MW4 2359   0.611   3.569   0.776 -0.6635 -0.0799 -0.1319
  579SOL     OW 2360   3.953   4.011   0.407 -0.7383  0.4009 -0.2380
  579SOL    HW2 2361   4.030   4.010   0.464  0.7681 -0.1795 -2.2185
  579SOL    HW3 2362   3.949   4.100   0.373  0.6404 -0.2442 -2.1690
  579SOL    MW4 2363   3.963   4.022   0.410 -0.3579  0.2389 -0.7540
  580SOL     OW 2364   0.095   0.644   0.285 -0.0521 -0.0363  0.3814
  580SOL    HW2 2365   0.144   0.564   0.304  0.0155  0.5669  2.8733
  580SOL    HW3 2366   0.150   0.692   0.224  1.9582  0.1054  2.2582
  580SOL    MW4 2367   0.109   0.640   0.280  0.2220  0.0619  0.9578
  581SOL     OW 2368   3.725   2.449   0.444 -0.0339 -0.0644 -0.0532
  581SOL    HW2 2369   3.729   2.544   0.451 -1.3105 -0.0348  0.5380
  581SOL    HW3 2370   3.788   2.427   0.375  0.9129  1.1160  0.4226
  581SOL    MW4 2371   3.733   2.459   0.436 -0.0772  0.0951  0.0876
  582SOL     OW 2372   4.246   4.575   0.764 -0.5908 -0.3312  0.0649
  582SOL    HW2 2373   4.325   4.561   0.712  0.2280 -0.1930  1.2451
  582SOL    HW3 2374   4.226   4.489   0.801  0.7809  0.2381  2.2092
  582SOL    MW4 2375   4.254   4.562   0.762 -0.3014 -0.2379  0.5035
  583SOL     OW 2376   4.263   0.802   1.056 -0.2047 -0.0967  0.4499
  583SOL    HW2 2377   4.246   0.765   0.970 -0.9710  1.5349 -0.1224
  583SOL    HW3 2378   4.179   0.836   1.086  0.4086  0.9504  1.0504
  583SOL    MW4 2379   4.250   0.802   1.049 -0.2251  0.2568  0.4536
  584SOL     OW 2380   1.060   2.833   1.209  0.3835 -0.1092  0.0060
  584SOL    HW2 2381   1.074   2.818   1.303  0.6265 -1.0565 -0.1689
  584SOL    HW3 2382   1.138   2.794   1.167 -0.0767 -0.3504 -0.6322
  584SOL    MW4 2383   1.072   2.826   1.216  0.3548 -0.2661 -0.1013
  585SOL     OW 2384   2.578   1.053   0.765 -0.6260  0.4154  0.4221
  585SOL    HW2 2385   2.577   1.064   0.670  2.0347 -1.4519  0.1341
  585SOL    HW3 2386   2.608   1.138   0.798 -1.6275  1.0954 -0.3866
  585SOL    MW4 2387   2.582   1.066   0.757 -0.4075  0.2587  0.2775
  586SOL     OW 2388   2.225   0.952   1.205  0.2771  0.4184 -0.0520
  586SOL    HW2 2389   2.302   0.895   1.196  0.5093  0.1751  2.7870
  586SOL    HW3 2390   2.154   0.902   1.166  1.1881 -0.1775 -0.9955
  586SOL    MW4 2391   2.226   0.938   1.199  0.4280  0.3077  0.1981
  587SOL     OW 2392   2.340   2.884   0.248  0.4511 -0.9692 -0.3447
  587SOL    HW2 2393   2.430   2.909   0.268 -0.2624  1.2018  0.2431
  587SOL    HW3 2394   2.286   2.939   0.304 -1.2468 -2.8302 -0.0770
  587SOL    MW4 2395   2.345   2.895   0.258  0.1333 -0.9284 -0.2318
  588SOL     OW 2396   2.566   1.062   0.491 -0.1955  0.4451  0.2990
  588SOL    HW2 2397   2.591   0.989   0.434 -1.4350 -0.9056  1.4226
  588SOL    HW3 2398   2.628   1.131   0.471  0.7010 -0.7575 -1.1579
  588SOL    MW4 2399   2.577   1.061   0.481 -0.2406  0.1082  0.2550
  589SOL     OW 2400   4.204   3.266   0.426  0.1612  0.2332 -0.3008
  589SOL    HW2 2401   4.126   3.223   0.392 -0.5389  0.7697  0.6086
  589SOL    HW3 2402   4.184   3.360   0.423 -0.3309  0.2549  2.5164
  589SOL    MW4 2403   4.191   3.273   0.421  0.0038  0.3066  0.1909
  590SOL     OW 2404   1.796   1.676   1.427  0.3976  0.4926 -0.1148
  590SOL    HW2 2405   1.714   1.636   1.458  0.0679  1.7434  0.6639
  590SOL    HW3 2406   1.802   1.649   1.335 -0.3374 -0.4881  0.1078
  590SOL    MW4 2407   1.786   1.667   1.419  0.2571  0.5282  0.0173
  591SOL     OW 2408   0.812   0.475   0.423  0.1300 -0.2392 -0.2134
  591SOL    HW2 2409   0.754   0.530   0.370 -0.0051 -0.6038 -0.4487
  591SOL    HW3 2410   0.770   0.389   0.422  0.5554 -0.4470 -0.1861
  591SOL    MW4 2411   0.799   0.471   0.416  0.1683 -0.3147 -0.2409
  592SOL     OW 2412   1.384   3.962   1.479 -0.1038  0.4383  0.0357
  592SOL    HW2 2413   1.395   4.056   1.495 -0.3327  0.4713  0.0020
  592SOL    HW3 2414   1.317   3.935   1.543  0.1734  0.2408  0.2411
  592SOL    MW4 2415   1.376   3.971   1.490 -0.0975  0.4168  0.0584
  593SOL     OW 2416   2.211   2.484   1.169 -0.1977  0.0763 -0.1943
  593SOL    HW2 2417   2.289   2.440   1.133  0.0483  0.2596  0.1157
  593SOL    HW3 2418   2.137   2.438   1.129  0.0260 -1.5286  1.1827
  593SOL    MW4 2419   2.212   2.472   1.159 -0.1359 -0.1113  0.0281
  594SOL     OW 2420   1.483   3.030   0.614  0.4345  0.4660  0.1895
  594SOL    HW2 2421   1.529   2.951   0.642 -0.3280 -0.4164 -1.0250
  594SOL    HW3 2422   1.499   3.093   0.685  0.8609 -0.8293  1.2630
  594SOL    MW4 2423   1.491   3.028   0.627  0.3902  0.1786  0.1708
  595SOL     OW 2424   4.473   1.146   1.096 -0.6801 -0.0981 -0.2450
  595SOL    HW2 2425   4.488   1.062   1.139  1.9421 -0.1697 -1.1449
  595SOL    HW3 2426   4.453   1.123   1.005  1.8834  0.2393 -0.9442
  595SOL    MW4 2427   4.473   1.132   1.090  0.0043 -0.0632 -0.4560
  596SOL     OW 2428   4.042   0.438   0.731 -0.3951  0.0629 -0.6446
  596SOL    HW2 2429   3.986   0.390   0.792  0.6609 -0.3550  0.0141
  596SOL    HW3 2430   4.083   0.370   0.678 -0.9902  0.4044 -1.5464
  596SOL    MW4 2431   4.040   0.423   0.732 -0.3338  0.0528 -0.6766
  597SOL     OW 2432   2.975   1.777   0.400 -0.3228 -0.0417 -0.5332
  597SOL    HW2 2433   2.884   1.795   0.374 -0.8088 -1.0161  0.4727
  597SOL    HW3 2434   2.986   1.825   0.483  0.3122  0.6515 -1.0068
  597SOL    MW4 2435   2.964   1.786   0.408 -0.3030 -0.0789 -0.4630
  598SOL     OW 2436   2.470   3.128   1.090  0.6028 -0.2843 -0.2265
  598SOL    HW2 2437   2.531   3.201   1.096 -0.0133  0.2259 -0.0583
  598SOL    HW3 2438   2.452   3.119   0.996 -0.5104  0.7936 -0.1311
  598SOL    MW4 2439   2.475   3.137   1.078  0.3748 -0.0749 -0.1917
  599SOL     OW 2440   1.776   3.265   1.160 -0.2268  0.1766  0.3284
  599SOL    HW2 2441   1.783   3.351   1.119 -0.8657 -0.0377 -0.2319
  599SOL    HW3 2442   1.763   3.284   1.253 -2.6965  0.7420 -0.1006
  599SOL    MW4 2443   1.775   3.279   1.167 -0.6368  0.2229  0.1979
  600SOL     OW 2444   2.438   3.622   0.968 -0.2269  0.1125 -0.2910
  600SOL    HW2 2445   2.452   3.717   0.973  0.0238  0.0723 -0.2052
  600SOL    HW3 2446   2.374   3.604   1.037 -0.4140  0.2475 -0.4316
  600SOL    MW4 2447   2.432   3.632   0.978 -0.2186  0.1252 -0.2982
  601SOL     OW 2448   1.794   3.520   1.091 -0.2368  0.1263 -0.0968
  601SOL    HW2 2449   1.870   3.559   1.134 -1.1782  1.6682  0.2377
  601SOL    HW3 2450   1.811   3.530   0.997  0.3896 -0.3784 -0.0373
  601SOL    MW4 2451   1.806   3.527   1.084 -0.2785  0.2630 -0.0448
  602SOL     OW 2452   3.581   0.744   0.641  0.1828 -0.2227 -0.0150
  602SOL    HW2 2453   3.575   0.792   0.559  0.2314  0.4676  0.3800
  602SOL    HW3 2454   3.645   0.792   0.693 -0.3559 -0.2499  0.6891
  602SOL    MW4 2455   3.589   0.756   0.637  0.1180 -0.1352  0.1300
  603SOL     OW 2456   2.740   1.298   0.497  0.2927  0.4847 -0.2348
  603SOL    HW2 2457   2.806   1.261   0.555  0.7216  0.9295 -0.4397
  603SOL    HW3 2458   2.781   1.376   0.459 -0.2751  0.6572 -0.5096
  603SOL    MW4 2459   2.754   1.304   0.500  0.2744  0.5661 -0.2981
  604SOL     OW 2460   0.898   2.731   0.846 -0.7000  0.1400  0.4880
  604SOL    HW2 2461   0.930   2.647   0.814  0.1232  1.1718 -1.5679
  604SOL    HW3 2462   0.878   2.717   0.938  1.1336 -1.8297  0.6105
  604SOL    MW4 2463   0.900   2.718   0.854 -0.3494  0.0162  0.2329
  605SOL     OW 2464   3.994   0.884   1.159 -0.0861  0.2122  0.2768
  605SOL    HW2 2465   4.000   0.891   1.254  0.2198  0.5076  0.2348
  605SOL    HW3 2466   3.994   0.975   1.128  0.7930  0.0960 -0.0686
  605SOL    MW4 2467   3.995   0.897   1.167  0.0703  0.2359  0.2255
  606SOL     OW 2468   2.052   4.381   1.178  0.7635 -0.1944 -0.3078
  606SOL    HW2 2469   1.963   4.356   1.156  0.4250  0.0947  0.7061
  606SOL    HW3 2470   2.052   4.391   1.273  1.5723  0.9758 -0.4164
  606SOL    MW4 2471   2.040   4.379   1.188  0.8256 -0.0014 -0.1882
  607SOL     OW 2472   3.497   1.493   0.893  1.0032  0.0796 -0.3886
  607SOL    HW2 2473   3.424   1.491   0.954  0.0609  1.2588 -1.4757
  607SOL    HW3 2474   3.458   1.507   0.807  2.2873 -1.8801 -1.3491
  607SOL    MW4 2475   3.482   1.494   0.889  1.0483 -0.0232 -0.6587
  608SOL     OW 2476   2.079   1.065   0.705 -0.2106 -0.2440  0.2866
  608SOL    HW2 2477   2.060   0.993   0.764 -2.0752  0.8435  1.0466
  608SOL    HW3 2478   2.096   1.024   0.620 -1.7623 -1.5245  0.5977
  608SOL    MW4 2479   2.079   1.050   0.701 -0.6614 -0.2694  0.4279
  609SOL     OW 2480   2.390   1.402   0.645  0.1505  0.2802  0.2656
  609SOL    HW2 2481   2.381   1.356   0.728 -2.1285 -0.5979 -0.4271
  609SOL    HW3 2482   2.355   1.341   0.579 -0.4115  1.9190 -0.9982
  609SOL    MW4 2483   2.384   1.388   0.647 -0.2244  0.3806  0.0075
  610SOL     OW 2484   1.620   1.518   0.314 -0.2589 -0.0333  0.6259
  610SOL    HW2 2485   1.692   1.459   0.293 -0.8289 -0.4043 -0.3372
  610SOL    HW3 2486   1.620   1.523   0.409  0.1704 -1.1234  0.6920
  610SOL    MW4 2487   1.629   1.511   0.323 -0.2775 -0.2259  0.5075
  611SOL     OW 2488   2.982   4.643   0.759 -0.2282  0.5792  0.3208
  611SOL    HW2 2489   2.987   4.674   0.850 -1.5207  4.4740 -0.8554
  611SOL    HW3 2490   3.051   4.690   0.714 -1.6497  1.0837 -1.3684
  611SOL    MW4 2491   2.992   4.653   0.765 -0.5863  1.1597 -0.0572
  612SOL     OW 2492   4.298   2.069   1.198 -0.3946 -0.6595 -0.2201
  612SOL    HW2 2493   4.376   2.023   1.166  0.0330  0.0741 -0.2498
  612SOL    HW3 2494   4.226   2.009   1.179 -0.0811 -0.4851 -2.0312
  612SOL    MW4 2495   4.299   2.055   1.192 -0.2961 -0.5398 -0.4629
  613SOL     OW 2496   2.248   2.439   1.452 -0.3348 -0.5577 -0.0436
  613SOL    HW2 2497   2.324   2.387   1.479 -0.1247  0.1935  0.8367
  613SOL    HW3 2498   2.255   2.445   1.357  0.2911 -1.1331 -0.0395
  613SOL    MW4 2499   2.259   2.433   1.443 -0.2244 -0.5343  0.0731
  614SOL     OW 2500   3.135   0.402   1.078 -0.2040  0.0785  0.0821
  614SOL    HW2 2501   3.207   0.454   1.115 -1.6599  1.0256  1.7101
  614SOL    HW3 2502   3.142   0.317   1.121 -0.6088  0.4833  0.9646
  614SOL    MW4 2503   3.145   0.398   1.089 -0.4492  0.2569  0.4134
  615SOL     OW 2504   2.356   0.259   0.708 -0.5284  0.6256  0.2244
  615SOL    HW2 2505   2.304   0.227   0.635  0.7269  0.3526 -0.5724
  615SOL    HW3 2506   2.419   0.319   0.668  1.3275 -0.8867  0.8068
  615SOL    MW4 2507   2.358   0.263   0.693 -0.1183  0.3900  0.1961
  616SOL     OW 2508   1.360   2.709   0.855 -0.2964  0.3437 -0.2328
  616SOL    HW2 2509   1.380   2.616   0.851 -0.1538  0.4014 -0.9521
  616SOL    HW3 2510   1.430   2.751   0.804  0.1668  0.9265  0.8596
  616SOL    MW4 2511   1.372   2.702   0.848 -0.2164  0.4280 -0.1836
  617SOL     OW 2512   2.054   2.085   1.125  0.3030 -0.1742 -0.0779
  617SOL    HW2 2513   2.041   2.176   1.099  0.7428 -0.1627 -0.2592
  617SOL    HW3 2514   2.056   2.087   1.221 -1.9238 -0.2978 -0.0063
  617SOL    MW4 2515   2.053   2.097   1.134  0.0672 -0.1891 -0.0924
  618SOL     OW 2516   0.946   1.887   0.775 -0.6380  0.3260  0.1953
  618SOL    HW2 2517   1.033   1.917   0.752 -1.1694  1.0971 -0.8784
  618SOL    HW3 2518   0.890   1.921   0.705 -1.6212 -1.1251  0.2413
  618SOL    MW4 2519   0.950   1.895   0.762 -0.8378  0.2364  0.0598
  619SOL     OW 2520   1.285   3.301   0.489  0.2055  0.1223  0.1929
  619SOL    HW2 2521   1.342   3.354   0.433  1.2586 -0.0078  1.1316
  619SOL    HW3 2522   1.287   3.214   0.449 -0.9220  0.5907 -0.9120
  619SOL    MW4 2523   1.293   3.297   0.476  0.1956  0.1669  0.1710
  620SOL     OW 2524   0.966   3.984   0.415  0.1319 -0.3002  0.0189
  620SOL    HW2 2525   0.906   3.922   0.374  0.3937 -0.3651 -0.2574
  620SOL    HW3 2526   0.958   3.965   0.509  0.8563 -1.3285 -0.1200
  620SOL    MW4 2527   0.957   3.973   0.422  0.2621 -0.4444 -0.0359
  621SOL     OW 2528   1.537   2.124   0.435 -0.5966 -0.0108  0.1689
  621SOL    HW2 2529   1.543   2.028   0.442 -2.0341 -0.1029  0.2912
  621SOL    HW3 2530   1.446   2.144   0.456 -0.1344  1.4582  0.8510
  621SOL    MW4 2531   1.526   2.114   0.439 -0.7253  0.1707  0.2750
  622SOL     OW 2532   2.685   3.507   0.987 -0.3139 -0.3464 -0.2828
  622SOL    HW2 2533   2.702   3.493   0.894  0.0778  1.4758 -0.4982
  622SOL    HW3 2534   2.600   3.550   0.991  1.1857  2.7301 -0.0534
  622SOL    MW4 2535   2.676   3.511   0.976 -0.0644  0.2999 -0.2810
  623SOL     OW 2536   4.024   3.069   0.348  0.2459  0.2978  0.3958
  623SOL    HW2 2537   4.053   2.988   0.389  0.5481 -0.2460 -0.8422
  623SOL    HW3 2538   3.933   3.079   0.375 -0.2465 -1.2509 -0.6305
  623SOL    MW4 2539   4.016   3.060   0.357  0.2208  0.0217  0.0971
  624SOL     OW 2540   2.494   3.897   1.018  0.2333  0.0472 -0.1379
  624SOL    HW2 2541   2.406   3.922   1.047 -0.0465 -1.7866  0.7218
  624SOL    HW3 2542   2.506   3.943   0.935 -1.1342  1.1230  0.2369
  624SOL    MW4 2543   2.484   3.906   1.011  0.0157 -0.0529  0.0250
  625SOL     OW 2544   1.862   4.040   1.119 -0.7713 -0.0788  0.1559
  625SOL    HW2 2545   1.787   3.981   1.112  0.3448 -1.5833  0.5596
  625SOL    HW3 2546   1.880   4.045   1.213  0.0122 -0.2256  0.0157
  625SOL    MW4 2547   1.855   4.033   1.131 -0.5207 -0.2966  0.1906
  626SOL     OW 2548   2.014   3.637   1.229 -0.0864 -0.2858  0.1323
  626SOL    HW2 2549   1.998   3.655   1.321  1.3979  3.7396 -0.2781
  626SOL    HW3 2550   2.109   3.624   1.223 -0.4239 -2.7455 -0.5500
  626SOL    MW4 2551   2.025   3.638   1.240  0.0648 -0.0794 -0.0119
  627SOL     OW 2552   3.292   1.828   0.707 -0.1320 -0.1179 -0.0439
  627SOL    HW2 2553   3.263   1.760   0.767  1.4500 -0.3522  0.4929
  627SOL    HW3 2554   3.351   1.782   0.646  0.7276  0.7021  0.1512
  627SOL    MW4 2555   3.296   1.813   0.707  0.1900 -0.0405  0.0526
  628SOL     OW 2556   2.252   1.206   1.106 -0.2947 -0.0613 -0.0468
  628SOL    HW2 2557   2.236   1.122   1.148 -1.3506 -0.1150 -0.5337
  628SOL    HW3 2558   2.260   1.186   1.013 -1.9872  0.5364 -0.3427
  628SOL    MW4 2559   2.251   1.192   1.099 -0.6573  0.0106 -0.1501
  629SOL     OW 2560   1.604   3.895   0.801  0.4290 -0.1786  0.4125
  629SOL    HW2 2561   1.631   3.809   0.768  0.4432 -0.1408  0.3267
  629SOL    HW3 2562   1.661   3.957   0.757  0.4006 -0.1225  0.4549
  629SOL    MW4 2563   1.615   3.892   0.791  0.4271 -0.1664  0.4068
  630SOL     OW 2564   0.905   3.071   0.484  0.4604 -0.2991 -0.0115
  630SOL    HW2 2565   0.951   3.139   0.433 -0.7406  1.1954  0.8541
  630SOL    HW3 2566   0.968   2.999   0.490  1.3474  0.2924 -1.9155
  630SOL    MW4 2567   0.919   3.071   0.478  0.4189 -0.0238 -0.1485
  631SOL     OW 2568   4.482   3.443   0.666  0.1110  0.1648 -0.3565
  631SOL    HW2 2569   4.542   3.489   0.725  1.6844 -0.7208 -1.2499
  631SOL    HW3 2570   4.403   3.497   0.666  0.8564  1.2917  0.9217
  631SOL    MW4 2571   4.479   3.456   0.674  0.4168  0.1967 -0.3057
  632SOL     OW 2572   2.738   1.771   1.174 -0.3934 -0.0085 -0.5466
  632SOL    HW2 2573   2.808   1.710   1.150 -0.2808  0.1066 -0.5101
  632SOL    HW3 2574   2.783   1.853   1.193 -0.4610 -0.1640  0.3073
  632SOL    MW4 2575   2.753   1.773   1.173 -0.3872 -0.0138 -0.4292
  633SOL     OW 2576   2.028   4.657   1.106 -0.2517  0.2606 -0.3886
  633SOL    HW2 2577   2.024   4.569   1.143  0.3468  0.7848  0.9519
  633SOL    HW3 2578   1.945   4.698   1.131 -0.8786 -0.1845 -1.7090
  633SOL    MW4 2579   2.017   4.651   1.114 -0.2556  0.2713 -0.3860
  634SOL     OW 2580   0.264   2.312   0.789  0.3154 -0.0305 -0.1892
  634SOL    HW2 2581   0.247   2.323   0.882  1.8925  1.5209 -0.0597
  634SOL    HW3 2582   0.326   2.239   0.783 -3.0149 -2.9749 -0.3757
  634SOL    MW4 2583   0.270   2.304   0.800  0.0841 -0.2141 -0.1968
  635SOL     OW 2584   1.186   2.084   0.773  0.4722 -0.0500  0.3136
  635SOL    HW2 2585   1.259   2.026   0.793  0.1304 -0.9308 -0.9341
  635SOL    HW3 2586   1.202   2.114   0.684 -0.0899  0.6606  0.4418
  635SOL    MW4 2587   1.198   2.080   0.764  0.3530 -0.0725  0.1659
  636SOL     OW 2588   1.335   3.921   0.726  0.0942  0.5149  0.1413
  636SOL    HW2 2589   1.427   3.905   0.747  0.5012 -0.9222 -2.4890
  636SOL    HW3 2590   1.319   4.011   0.755  2.5414  1.0228  0.0292
  636SOL    MW4 2591   1.345   3.931   0.732  0.4709  0.3924 -0.2205
  637SOL     OW 2592   3.433   3.867   0.831 -0.3719 -0.1379 -0.0195
  637SOL    HW2 2593   3.391   3.856   0.916 -0.2776  0.9025  0.1706
  637SOL    HW3 2594   3.455   3.778   0.803 -1.3642 -0.5667  0.5521
  637SOL    MW4 2595   3.430   3.853   0.838 -0.4907 -0.0570  0.0810
  638SOL     OW 2596   0.850   2.686   1.117  0.9065  0.2829  0.1571
  638SOL    HW2 2597   0.926   2.741   1.131  0.3807  1.0622  0.0020
  638SOL    HW3 2598   0.876   2.599   1.148  1.5568  0.7452  0.9053
  638SOL    MW4 2599   0.863   2.682   1.123  0.9229  0.4466  0.2352
  639SOL     OW 2600   2.593   1.718   0.960 -0.1686  0.6403 -0.1336
  639SOL    HW2 2601   2.645   1.698   0.883 -0.2059  0.0910 -0.0178
  639SOL    HW3 2602   2.657   1.739   1.028 -0.0231 -1.6998  0.4808
  639SOL    MW4 2603   2.608   1.718   0.959 -0.1543  0.2592 -0.0373
  640SOL     OW 2604   3.674   4.351   0.467 -0.1505  0.2724 -0.4181
  640SOL    HW2 2605   3.679   4.446   0.478  0.1468  0.3247 -1.0045
  640SOL    HW3 2606   3.757   4.327   0.425  0.0086 -0.3124  0.2165
  640SOL    MW4 2607   3.686   4.360   0.463 -0.0901  0.2022 -0.4117
  641SOL     OW 2608   3.780   3.164   0.476 -0.3900 -0.2268 -0.1774
  641SOL    HW2 2609   3.701   3.124   0.438 -1.0814 -0.0952  1.0877
  641SOL    HW3 2610   3.794   3.116   0.558 -1.0030  1.8208  1.1666
  641SOL    MW4 2611   3.771   3.153   0.482 -0.5622  0.0606  0.1669
  642SOL     OW 2612   1.480   1.194   0.674 -0.4107 -0.5133 -0.8454
  642SOL    HW2 2613   1.421   1.251   0.624 -0.0564 -0.4192 -1.1613
  642SOL    HW3 2614   1.423   1.125   0.709 -0.9259  0.3227 -0.0223
  642SOL    MW4 2615   1.465   1.192   0.672 -0.4320 -0.3906 -0.7786
  643SOL     OW 2616   2.698   2.413   1.170  0.0526  0.3936 -0.0255
  643SOL    HW2 2617   2.619   2.363   1.149  0.8163 -0.8148 -0.0579
  643SOL    HW3 2618   2.691   2.430   1.264 -0.7643  1.2207 -0.2277
  643SOL    MW4 2619   2.687   2.409   1.179  0.0458  0.3431 -0.0564
  644SOL     OW 2620   1.874   3.435   0.253 -0.1716  0.0081  0.2370
  644SOL    HW2 2621   1.937   3.488   0.204 -0.1395 -1.0903 -0.9179
  644SOL    HW3 2622   1.834   3.497   0.314  1.0049  1.0209  0.0066
  644SOL    MW4 2623   1.877   3.450   0.254 -0.0122 -0.0029  0.0542
  645SOL     OW 2624   1.415   1.736   0.607 -0.0362  0.1709 -0.5897
  645SOL    HW2 2625   1.329   1.694   0.611 -0.1132  0.4351  0.4802
  645SOL    HW3 2626   1.413   1.802   0.676  1.2252 -0.1854 -0.1990
  645SOL    MW4 2627   1.403   1.739   0.616  0.1200  0.1587 -0.3970
  646SOL     OW 2628   2.717   0.368   1.111  0.1229  0.2428  0.4113
  646SOL    HW2 2629   2.782   0.421   1.156 -0.6667  0.9272  0.7560
  646SOL    HW3 2630   2.638   0.421   1.111 -0.7214 -0.9835  0.8882
  646SOL    MW4 2631   2.715   0.382   1.117 -0.0925  0.1713  0.5198
  647SOL     OW 2632   4.434   0.319   1.010 -0.2536  0.0156 -0.2759
  647SOL    HW2 2633   4.372   0.278   0.950 -0.2043  1.0045 -1.0082
  647SOL    HW3 2634   4.384   0.388   1.053 -0.4010 -0.9455  1.1248
  647SOL    MW4 2635   4.419   0.323   1.008 -0.2661  0.0193 -0.1878
  648SOL     OW 2636   0.850   0.503   0.691 -0.3753 -0.4573  0.0309
  648SOL    HW2 2637   0.901   0.581   0.714 -0.0665 -0.6516  0.0007
  648SOL    HW3 2638   0.851   0.501   0.595  1.1002 -1.4820  0.0619
  648SOL    MW4 2639   0.857   0.513   0.681 -0.1399 -0.6180  0.0310
  649SOL     OW 2640   3.775   2.890   1.163 -0.1179  0.3510 -0.3215
  649SOL    HW2 2641   3.800   2.913   1.252 -0.2526  0.7239 -0.3820
  649SOL    HW3 2642   3.790   2.969   1.112 -0.1961  0.1876 -0.6019
  649SOL    MW4 2643   3.781   2.903   1.168 -0.1457  0.3784 -0.3663
  650SOL     OW 2644   1.798   0.707   0.702  0.2260  0.2338 -0.2485
  650SOL    HW2 2645   1.708   0.737   0.703  0.0001 -0.4146  1.5363
  650SOL    HW3 2646   1.806   0.657   0.621 -0.9583  0.4299 -0.4960
  650SOL    MW4 2647   1.788   0.704   0.691  0.0399  0.1741 -0.0457
  651SOL     OW 2648   0.478   4.433   0.294 -0.2073  0.2849  0.2495
  651SOL    HW2 2649   0.438   4.350   0.322 -2.4598  0.9404 -0.8651
  651SOL    HW3 2650   0.520   4.411   0.210  1.7301 -0.3728  1.3553
  651SOL    MW4 2651   0.478   4.419   0.286 -0.2489  0.2847  0.2483
  652SOL     OW 2652   1.564   2.542   0.521  0.1271 -0.0808 -0.1917
  652SOL    HW2 2653   1.609   2.524   0.438 -0.2311  0.8666 -0.6021
  652SOL    HW3 2654   1.608   2.486   0.585  1.2778  0.1569 -0.7621
  652SOL    MW4 2655   1.576   2.532   0.518  0.2316  0.0756 -0.3211
  653SOL     OW 2656   2.927   1.195   0.670  0.2364  0.3098 -0.4367
  653SOL    HW2 2657   2.917   1.193   0.765 -1.4146  0.8655 -0.5764
  653SOL    HW3 2658   2.948   1.105   0.645 -1.5268 -0.3155  0.2525
  653SOL    MW4 2659   2.928   1.183   0.679 -0.2141  0.3005 -0.3642
  654SOL     OW 2660   3.570   0.092   1.164  0.4765 -0.2787 -0.1223
  654SOL    HW2 2661   3.581   0.182   1.135  0.0468 -0.5308 -1.1047
  654SOL    HW3 2662   3.486   0.065   1.127  0.5089 -1.0147  0.3285
  654SOL    MW4 2663   3.560   0.100   1.155  0.4244 -0.4091 -0.1924
  655SOL     OW 2664   0.381   3.953   0.483  0.3176 -0.0758  0.1248
  655SOL    HW2 2665   0.286   3.942   0.489  0.5940 -2.6633  0.4393
  655SOL    HW3 2666   0.411   3.951   0.574  0.7544 -0.1672 -0.0194
  655SOL    MW4 2667   0.373   3.951   0.496  0.4117 -0.4296  0.1473
  656SOL     OW 2668   1.783   1.139   1.047  0.5952  0.1804 -0.0449
  656SOL    HW2 2669   1.788   1.048   1.076  1.7014  0.2600  0.0213
  656SOL    HW3 2670   1.707   1.175   1.093  0.0149 -0.7667 -0.2456
  656SOL    MW4 2671   1.773   1.131   1.057  0.6645  0.0660 -0.0626
  657SOL     OW 2672   3.441   0.368   0.556 -0.0192 -0.4458  0.1262
  657SOL    HW2 2673   3.442   0.284   0.510  0.0855 -0.0131 -0.6740
  657SOL    HW3 2674   3.524   0.410   0.531  0.9102 -0.9857  2.1942
  657SOL    MW4 2675   3.452   0.362   0.547  0.1173 -0.4599  0.2935
  658SOL     OW 2676   1.919   3.835   0.280  0.2846 -0.0930 -0.0158
  658SOL    HW2 2677   1.933   3.930   0.285  0.2717 -0.1524  1.2784
  658SOL    HW3 2678   1.825   3.826   0.266  0.3533  0.0925 -0.6228
  658SOL    MW4 2679   1.909   3.846   0.279  0.2921 -0.0763  0.0749
  659SOL     OW 2680   3.635   1.199   0.614  0.3555  0.0565  0.1909
  659SOL    HW2 2681   3.602   1.181   0.702  1.7662 -0.9883  0.5219
  659SOL    HW3 2682   3.724   1.233   0.627  0.6448 -0.2767 -0.8341
  659SOL    MW4 2683   3.643   1.201   0.627  0.5798 -0.1253  0.0994
  660SOL     OW 2684   0.240   0.108   0.828  0.0584  0.2008  0.2740
  660SOL    HW2 2685   0.242   0.065   0.913 -0.5077 -1.1626 -0.3793
  660SOL    HW3 2686   0.228   0.201   0.848 -0.9780 -0.2178  1.6517
  660SOL    MW4 2687   0.238   0.114   0.842 -0.1530 -0.0343  0.3696
  661SOL     OW 2688   3.387   1.254   1.241 -0.1807  0.0324  0.0723
  661SOL    HW2 2689   3.375   1.341   1.203  1.3127 -0.2614 -1.0898
  661SOL    HW3 2690   3.400   1.270   1.335  0.9223  1.1311 -0.2586
  661SOL    MW4 2691   3.387   1.267   1.249  0.1619  0.1385 -0.1248
  662SOL     OW 2692   2.816   0.920   0.872 -0.4242 -0.2037 -0.1070
  662SOL    HW2 2693   2.737   0.955   0.831 -0.3991 -1.2222 -1.0579
  662SOL    HW3 2694   2.873   0.898   0.798  1.2726  1.6839  0.5894
  662SOL    MW4 2695   2.813   0.922   0.856 -0.1969 -0.0890 -0.1406
  663SOL     OW 2696   0.704   0.831   0.834  0.3422  0.1632  0.4160
  663SOL    HW2 2697   0.706   0.799   0.924  1.0941  1.7304  0.9774
  663SOL    HW3 2698   0.784   0.795   0.794  0.5096  0.2708  0.6550
  663SOL    MW4 2699   0.715   0.822   0.841  0.4634  0.3842  0.5217
  664SOL     OW 2700   2.571   1.628   0.447  0.2814  0.1549  0.3975
  664SOL    HW2 2701   2.485   1.625   0.489 -0.0779 -0.1216 -0.3547
  664SOL    HW3 2702   2.569   1.557   0.383  1.5895 -0.7622  1.3525
  664SOL    MW4 2703   2.559   1.618   0.444  0.4065 -0.0025  0.4242
  665SOL     OW 2704   0.669   2.221   0.628  0.4288  0.5493 -0.0673
  665SOL    HW2 2705   0.655   2.278   0.553  1.2639  1.0315  0.1455
  665SOL    HW3 2706   0.682   2.280   0.702 -0.6833  0.0801  0.5245
  665SOL    MW4 2707   0.669   2.236   0.628  0.3922  0.5510  0.0388
  666SOL     OW 2708   3.392   2.057   1.426  0.0850 -0.8230  0.1707
  666SOL    HW2 2709   3.330   2.013   1.485 -1.7644  0.8203 -0.4926
  666SOL    HW3 2710   3.360   2.034   1.338  0.4950 -0.0799 -0.1716
  666SOL    MW4 2711   3.379   2.048   1.422 -0.1049 -0.5083  0.0380
  667SOL     OW 2712   3.597   2.736   1.041  0.1850  0.0649  0.1823
  667SOL    HW2 2713   3.623   2.740   0.949 -1.7969  2.0936 -0.3033
  667SOL    HW3 2714   3.649   2.803   1.084  0.0130  0.1368  0.2778
  667SOL    MW4 2715   3.607   2.745   1.035 -0.0992  0.3417  0.1309
  668SOL     OW 2716   2.021   1.552   1.089 -0.2002 -0.1326 -0.4744
  668SOL    HW2 2717   2.025   1.462   1.121 -0.0664  0.1966  0.4384
  668SOL    HW3 2718   2.087   1.556   1.019  0.2668 -0.5686 -0.0643
  668SOL    MW4 2719   2.030   1.541   1.084 -0.1206 -0.1467 -0.2998
  669SOL     OW 2720   3.175   3.461   1.094  0.6340  0.4070  0.4086
  669SOL    HW2 2721   3.152   3.375   1.129 -0.1838 -0.4363 -2.1164
  669SOL    HW3 2722   3.093   3.510   1.093  0.9377  0.9384  1.0330
  669SOL    MW4 2723   3.161   3.456   1.099  0.5662  0.3657  0.1577
  670SOL     OW 2724   2.493   0.025   0.783 -0.3673 -0.3480  0.5013
  670SOL    HW2 2725   2.499   0.013   0.878  1.4253  0.0466  0.4540
  670SOL    HW3 2726   2.449   0.109   0.772  0.8270  0.3550  1.0114
  670SOL    MW4 2727   2.488   0.035   0.794  0.0267 -0.2032  0.5623
  671SOL     OW 2728   2.780   3.198   0.623 -0.2916  0.0011  0.1825
  671SOL    HW2 2729   2.848   3.165   0.564 -0.8963  0.1126 -0.5925
  671SOL    HW3 2730   2.753   3.121   0.674 -0.2048 -0.2402 -0.1325
  671SOL    MW4 2731   2.785   3.184   0.622 -0.3600 -0.0162  0.0387
  672SOL     OW 2732   4.129   2.934   0.718  0.2014 -0.0746 -0.3729
  672SOL    HW2 2733   4.152   3.026   0.727  0.0215 -0.2373  2.3441
  672SOL    HW3 2734   4.213   2.888   0.724 -0.0307 -0.2537  1.9436
  672SOL    MW4 2735   4.143   2.940   0.720  0.1469 -0.1197  0.2913
  673SOL     OW 2736   1.822   1.310   0.344  0.0030  0.2659 -0.4221
  673SOL    HW2 2737   1.910   1.333   0.374 -0.2592 -0.1763  0.6979
  673SOL    HW3 2738   1.832   1.227   0.299  0.1529  0.2010 -0.2668
  673SOL    MW4 2739   1.835   1.302   0.342 -0.0117  0.1990 -0.2538
  674SOL     OW 2740   0.668   3.875   1.104 -0.3309  0.2759 -0.1376
  674SOL    HW2 2741   0.748   3.916   1.137 -1.2610  1.4812  0.6747
  674SOL    HW3 2742   0.666   3.789   1.145  0.1942  0.5082  0.3752
  674SOL    MW4 2743   0.678   3.869   1.114 -0.3844  0.4656  0.0373
  675SOL     OW 2744   0.214   3.106   1.109  0.6946  0.3785 -0.1444
  675SOL    HW2 2745   0.187   3.096   1.018  0.2876 -1.0134  0.1276
  675SOL    HW3 2746   0.228   3.017   1.141 -0.5470  0.7603  1.5660
  675SOL    MW4 2747   0.212   3.093   1.101  0.4771  0.2453  0.1172
  676SOL     OW 2748   3.391   4.405   1.434 -0.0757  0.1201 -0.0554
  676SOL    HW2 2749   3.320   4.351   1.470  1.0617 -0.4023  1.4172
  676SOL    HW3 2750   3.367   4.416   1.342 -1.3366 -1.2574  0.0861
  676SOL    MW4 2751   3.378   4.399   1.427 -0.0923 -0.1302  0.1577
  677SOL     OW 2752   2.728   4.666   0.381  0.0458 -0.0511  0.5035
  677SOL    HW2 2753   2.810   4.684   0.336 -0.1265 -1.5675 -0.4639
  677SOL    HW3 2754   2.699   4.751   0.415  0.6120  0.9708 -1.5253
  677SOL    MW4 2755   2.735   4.679   0.380  0.0978 -0.1164  0.1082
  678SOL     OW 2756   0.118   1.837   0.650 -0.0590 -0.3724 -0.4124
  678SOL    HW2 2757   0.130   1.760   0.705  0.1880  0.1972  0.3391
  678SOL    HW3 2758   0.063   1.807   0.578 -0.2515 -1.1609  0.0620
  678SOL    MW4 2759   0.112   1.823   0.648 -0.0518 -0.4011 -0.2506
  679SOL     OW 2760   0.977   0.288   0.825  0.1646 -0.2205  0.3727
  679SOL    HW2 2761   0.936   0.369   0.796  0.6301  0.2286  0.9589
  679SOL    HW3 2762   0.950   0.279   0.916  0.8579 -0.2465  0.5750
  679SOL    MW4 2763   0.968   0.297   0.833  0.3175 -0.1647  0.4767
  680SOL     OW 2764   2.957   0.481   0.465 -0.3139  0.2000  0.0064
  680SOL    HW2 2765   3.010   0.414   0.421 -0.1378 -0.2736  0.9185
  680SOL    HW3 2766   3.010   0.508   0.540 -0.9054  0.5032  0.3148
  680SOL    MW4 2767   2.971   0.476   0.469 -0.3691  0.1775  0.1675
  681SOL     OW 2768   2.072   1.378   0.432 -0.3776 -0.5006 -0.3694
  681SOL    HW2 2769   2.077   1.402   0.524 -0.8225 -0.2395 -0.4129
  681SOL    HW3 2770   2.139   1.310   0.421 -0.7413 -0.9734  0.2846
  681SOL    MW4 2771   2.081   1.372   0.443 -0.4840 -0.5286 -0.2888
  682SOL     OW 2772   1.975   0.326   0.713  0.0917  0.5807 -0.2668
  682SOL    HW2 2773   1.990   0.312   0.619  1.0500 -0.9271  0.1122
  682SOL    HW3 2774   2.056   0.366   0.745 -0.4224  1.5748 -0.1566
  682SOL    MW4 2775   1.988   0.330   0.705  0.1503  0.5129 -0.2022
  683SOL     OW 2776   2.262   0.693   0.710  0.0780 -0.2946  0.1603
  683SOL    HW2 2777   2.187   0.731   0.755  0.5038  0.4007  0.3011
  683SOL    HW3 2778   2.338   0.723   0.761  0.5741  0.5677 -1.0615
  683SOL    MW4 2779   2.262   0.702   0.723  0.1993 -0.0890  0.0177
  684SOL     OW 2780   2.696   3.716   0.466  0.3444  0.4945 -0.1505
  684SOL    HW2 2781   2.729   3.635   0.427  1.0230  0.6031  0.1776
  684SOL    HW3 2782   2.601   3.711   0.456  0.1632 -1.5960  2.2788
  684SOL    MW4 2783   2.688   3.704   0.459  0.4098  0.2329  0.2133
  685SOL     OW 2784   1.144   3.161   0.895 -0.0716 -0.6030 -0.0604
  685SOL    HW2 2785   1.067   3.167   0.838  1.4616  0.3990 -2.1196
  685SOL    HW3 2786   1.187   3.079   0.870 -0.8401 -1.5119  1.5788
  685SOL    MW4 2787   1.140   3.151   0.884  0.0294 -0.5906 -0.1159
  686SOL     OW 2788   2.874   1.518   0.741  0.5848 -0.3164  0.2535
  686SOL    HW2 2789   2.799   1.460   0.756  0.4080 -0.3461 -0.7078
  686SOL    HW3 2790   2.940   1.488   0.804  0.0838 -0.8122  0.5544
  686SOL    MW4 2791   2.873   1.506   0.752  0.4954 -0.3859  0.1665
  687SOL     OW 2792   3.161   2.403   1.158  0.0183 -0.0431  0.2353
  687SOL    HW2 2793   3.174   2.400   1.253  0.6150  1.5544  0.2204
  687SOL    HW3 2794   3.248   2.386   1.122  0.3700  2.0581  0.0249
  687SOL    MW4 2795   3.174   2.400   1.166  0.1435  0.4447  0.2056
  688SOL     OW 2796   3.356   1.521   1.151  0.5000  0.2492 -0.2173
  688SOL    HW2 2797   3.430   1.582   1.149 -0.0644  0.9773  0.5710
  688SOL    HW3 2798   3.295   1.561   1.213  0.6212 -1.6955  1.1669
  688SOL    MW4 2799   3.358   1.535   1.159  0.4416  0.0887  0.0694
  689SOL     OW 2800   0.417   2.823   0.264 -0.0559  0.2469 -0.7333
  689SOL    HW2 2801   0.509   2.848   0.256  0.3522 -1.2928 -1.1655
  689SOL    HW3 2802   0.416   2.762   0.338 -0.8630  0.8159 -0.2659
  689SOL    MW4 2803   0.429   2.818   0.273 -0.1086  0.1190 -0.7286
  690SOL     OW 2804   4.490   0.082   1.186  0.1468 -0.0591 -0.1216
  690SOL    HW2 2805   4.428   0.037   1.128 -0.4239  0.3445  0.1632
  690SOL    HW3 2806   4.482   0.175   1.162  0.3806  0.0347  0.1579
  690SOL    MW4 2807   4.480   0.089   1.175  0.1025  0.0065 -0.0471
  691SOL     OW 2808   0.103   2.774   0.870 -0.3780  0.3233  0.0823
  691SOL    HW2 2809   0.116   2.866   0.892  0.2494 -0.1342  1.6217
  691SOL    HW3 2810   0.020   2.774   0.821  0.3707  1.8893 -1.2419
  691SOL    MW4 2811   0.094   2.786   0.866 -0.1964  0.4694  0.1106
  692SOL     OW 2812   1.365   3.975   1.173  0.2716 -0.0518  0.0479
  692SOL    HW2 2813   1.357   3.955   1.266  0.4465 -0.1711  0.0384
  692SOL    HW3 2814   1.298   3.921   1.131 -0.5208  0.7939  0.2066
  692SOL    MW4 2815   1.355   3.965   1.180  0.1901  0.0441  0.0677
  693SOL     OW 2816   1.535   0.506   0.431 -0.4205 -0.1199  0.3895
  693SOL    HW2 2817   1.534   0.412   0.417 -0.8915 -0.0804  0.1215
  693SOL    HW3 2818   1.627   0.530   0.433 -0.3046 -0.5400  0.1237
  693SOL    MW4 2819   1.547   0.497   0.429 -0.4675 -0.1701  0.3191
  694SOL     OW 2820   0.916   3.918   0.675  0.5709 -0.1212  0.0819
  694SOL    HW2 2821   0.908   4.004   0.715 -1.8678 -0.9474  1.4736
  694SOL    HW3 2822   0.982   3.873   0.727 -0.4378 -0.1641  1.3408
  694SOL    MW4 2823   0.923   3.923   0.687  0.1161 -0.2356  0.4317
  695SOL     OW 2824   1.339   1.673   1.112 -0.2977  0.1389 -0.1429
  695SOL    HW2 2825   1.256   1.625   1.105 -0.0766 -0.5476  1.6427
  695SOL    HW3 2826   1.407   1.607   1.098 -0.0215  0.7703 -1.9802
  695SOL    MW4 2827   1.337   1.658   1.109 -0.2321  0.1316 -0.1496
  696SOL     OW 2828   3.543   3.609   0.809 -0.2159 -0.4189  0.3030
  696SOL    HW2 2829   3.494   3.549   0.753  1.2802 -1.7886  0.4199
  696SOL    HW3 2830   3.550   3.563   0.893  1.3649 -0.3252  0.2447
  696SOL    MW4 2831   3.537   3.595   0.813  0.1903 -0.5875  0.3107
  697SOL     OW 2832   0.659   2.808   0.708 -0.0679 -0.1160 -0.2956
  697SOL    HW2 2833   0.745   2.778   0.739 -0.0532  0.3897  0.1734
  697SOL    HW3 2834   0.601   2.734   0.722  0.3841 -0.6275 -1.0499
  697SOL    MW4 2835   0.663   2.795   0.714 -0.0062 -0.1168 -0.3332
  698SOL     OW 2836   1.643   2.135   0.686 -0.1062 -0.1082  0.1384
  698SOL    HW2 2837   1.728   2.093   0.673 -1.0000 -1.8814 -0.0736
  698SOL    HW3 2838   1.606   2.143   0.598 -0.0291  0.9596  0.1983
  698SOL    MW4 2839   1.649   2.130   0.673 -0.2140 -0.2017  0.1184
  699SOL     OW 2840   2.816   3.463   0.417 -0.2043 -0.4233 -0.1335
  699SOL    HW2 2841   2.767   3.403   0.361  0.8165 -0.8255 -0.6060
  699SOL    HW3 2842   2.786   3.443   0.506  0.7062 -2.2292 -0.1965
  699SOL    MW4 2843   2.806   3.452   0.422  0.0505 -0.7148 -0.2041
  700SOL     OW 2844   3.801   1.288   1.156 -0.2862 -0.5881  0.1033
  700SOL    HW2 2845   3.796   1.377   1.122 -0.5582 -1.2606 -1.6555
  700SOL    HW3 2846   3.799   1.299   1.251 -1.9683  1.1977 -0.0970
  700SOL    MW4 2847   3.800   1.301   1.164 -0.5443 -0.4412 -0.1553
  701SOL     OW 2848   4.029   3.963   0.843 -0.0974 -0.0967  0.4396
  701SOL    HW2 2849   3.994   3.881   0.809 -2.2246  1.1701 -0.5954
  701SOL    HW3 2850   4.035   3.950   0.938 -1.2759 -1.1506  0.3825
  701SOL    MW4 2851   4.025   3.951   0.851 -0.5331 -0.0684  0.2955
  702SOL     OW 2852   2.878   1.317   1.116 -0.2181  0.2661 -0.0059
  702SOL    HW2 2853   2.901   1.245   1.056  0.9213  0.4838  0.1599
  702SOL    HW3 2854   2.892   1.281   1.203 -1.8079 -0.0245  0.1389
  702SOL    MW4 2855   2.883   1.303   1.119 -0.2775  0.2567  0.0350
  703SOL     OW 2856   3.497   3.510   0.114 -0.0181  0.0913  0.2762
  703SOL    HW2 2857   3.563   3.563   0.158 -0.1478 -0.6914  1.4402
  703SOL    HW3 2858   3.506   3.532   0.021  1.5628  0.3321  0.4804
  703SOL    MW4 2859   3.507   3.520   0.107  0.1733  0.0200  0.4567
  704SOL     OW 2860   3.910   1.864   0.482 -0.0207 -0.3830  0.4767
  704SOL    HW2 2861   3.823   1.866   0.523  0.4826  1.6378  1.5012
  704SOL    HW3 2862   3.963   1.811   0.542 -0.2275 -0.5683  0.4971
  704SOL    MW4 2863   3.905   1.857   0.496  0.0184 -0.1408  0.6146
  705SOL     OW 2864   4.163   4.306   0.837 -0.2698  0.2690  0.2235
  705SOL    HW2 2865   4.131   4.305   0.928 -0.8384  1.2202  0.0424
  705SOL    HW3 2866   4.255   4.280   0.844 -0.6447 -0.9147  0.9287
  705SOL    MW4 2867   4.171   4.303   0.850 -0.3943  0.2379  0.2927
  706SOL     OW 2868   1.808   2.746   1.040  0.1379  0.0488 -0.1787
  706SOL    HW2 2869   1.734   2.776   1.092  0.2070  0.8756 -0.5589
  706SOL    HW3 2870   1.885   2.776   1.087  0.2260 -0.4316 -0.0135
  706SOL    MW4 2871   1.808   2.754   1.053  0.1587  0.0944 -0.2069
  707SOL     OW 2872   0.203   0.535   0.674  0.4192 -0.2573  0.6543
  707SOL    HW2 2873   0.109   0.547   0.657  0.3827 -2.5249 -0.9775
  707SOL    HW3 2874   0.238   0.624   0.681 -1.5532  0.6346 -0.4726
  707SOL    MW4 2875   0.195   0.548   0.672  0.1541 -0.4387  0.2904
  708SOL     OW 2876   3.238   4.475   0.364  0.0670  0.1469  0.0542
  708SOL    HW2 2877   3.318   4.443   0.321  0.0601 -0.0485  0.1883
  708SOL    HW3 2878   3.182   4.398   0.370  0.0732  0.1732  0.4292
  708SOL    MW4 2879   3.241   4.461   0.359  0.0670  0.1245  0.1214
  709SOL     OW 2880   2.256   3.968   1.122 -0.1751 -0.8274 -0.3294
  709SOL    HW2 2881   2.266   4.059   1.094  0.6266 -1.0940 -0.9659
  709SOL    HW3 2882   2.178   3.937   1.076 -0.1392 -0.6087 -0.5389
  709SOL    MW4 2883   2.247   3.976   1.112 -0.0644 -0.8337 -0.4411
  710SOL     OW 2884   3.788   3.620   1.161  0.2172  0.3230 -0.0741
  710SOL    HW2 2885   3.810   3.627   1.254  0.7012 -0.3111 -0.1417
  710SOL    HW3 2886   3.872   3.609   1.117 -0.2988 -4.0844 -0.1639
  710SOL    MW4 2887   3.802   3.620   1.167  0.2129 -0.3421 -0.0948
  711SOL     OW 2888   3.476   4.378   0.250  0.1147  0.2415  0.1112
  711SOL    HW2 2889   3.549   4.380   0.311 -0.5711 -0.5914  0.9721
  711SOL    HW3 2890   3.472   4.288   0.219 -0.9641  0.1136  0.5848
  711SOL    MW4 2891   3.485   4.367   0.254 -0.1183  0.1154  0.2873
  712SOL     OW 2892   1.301   1.870   0.369  0.0275 -0.6577  0.2264
  712SOL    HW2 2893   1.331   1.832   0.451  0.1882 -0.6226  0.1860
  712SOL    HW3 2894   1.380   1.872   0.314 -0.1104 -0.8106  0.0234
  712SOL    MW4 2895   1.316   1.866   0.372  0.0306 -0.6732  0.1943
  713SOL     OW 2896   0.963   1.613   0.801 -0.1893  0.1573 -0.1790
  713SOL    HW2 2897   1.007   1.591   0.883 -2.8126  0.6072  1.4045
  713SOL    HW3 2898   0.965   1.709   0.797  1.5236  0.0991 -1.5901
  713SOL    MW4 2899   0.969   1.623   0.811 -0.3094  0.2091 -0.1563
  714SOL     OW 2900   4.086   2.451   1.180 -0.1107 -0.3693 -0.4428
  714SOL    HW2 2901   4.049   2.533   1.148  0.0768 -0.0200  0.2222
  714SOL    HW3 2902   4.077   2.456   1.275  0.6308 -0.7680 -0.3431
  714SOL    MW4 2903   4.080   2.462   1.189  0.0119 -0.3757 -0.3420
  715SOL     OW 2904   1.250   3.943   0.429 -0.0632 -0.5713  0.0461
  715SOL    HW2 2905   1.154   3.947   0.425 -0.0291  0.7332  0.2016
  715SOL    HW3 2906   1.270   3.932   0.522 -0.0723 -1.0555 -0.0111
  715SOL    MW4 2907   1.240   3.942   0.441 -0.0600 -0.4630  0.0590
  716SOL     OW 2908   3.571   0.368   1.108 -0.0086  0.0035  0.2580
  716SOL    HW2 2909   3.570   0.360   1.013  0.0974 -0.7565  0.3191
  716SOL    HW3 2910   3.663   0.386   1.130  0.1165 -0.6883  0.2891
  716SOL    MW4 2911   3.583   0.370   1.098  0.0217 -0.1880  0.2701
  717SOL     OW 2912   1.553   1.790   0.215  0.2675  0.1386  0.1018
  717SOL    HW2 2913   1.625   1.831   0.167  0.9249 -0.7911  0.2869
  717SOL    HW3 2914   1.583   1.702   0.233 -1.3799 -0.6368 -0.8126
  717SOL    MW4 2915   1.566   1.784   0.211  0.1369 -0.0863  0.0056
  718SOL     OW 2916   2.839   2.659   0.414  0.1004  0.5214 -0.2195
  718SOL    HW2 2917   2.765   2.720   0.419  0.4395  0.9402 -0.3131
  718SOL    HW3 2918   2.916   2.712   0.433  0.5081  0.3317 -1.3165
  718SOL    MW4 2919   2.839   2.674   0.417  0.1993  0.5517 -0.3766
  719SOL     OW 2920   2.407   3.302   0.427  0.3124  0.1780  0.6622
  719SOL    HW2 2921   2.313   3.301   0.411  0.2715  0.2558  0.8956
  719SOL    HW3 2922   2.418   3.354   0.506  0.4102 -1.0464  1.4715
  719SOL    MW4 2923   2.396   3.309   0.435  0.3200  0.0267  0.7998
  720SOL     OW 2924   1.502   4.557   0.599  0.5755 -0.2420  0.2047
  720SOL    HW2 2925   1.484   4.467   0.629  0.9043 -0.1281  0.7470
  720SOL    HW3 2926   1.529   4.604   0.678  0.4093  0.3358 -0.0802
  720SOL    MW4 2927   1.503   4.551   0.613  0.5969 -0.1507  0.2387
  721SOL     OW 2928   1.588   2.766   0.690 -0.0715  0.0772 -0.0893
  721SOL    HW2 2929   1.674   2.773   0.732 -1.2914 -1.9534  2.9581
  721SOL    HW3 2930   1.592   2.685   0.640 -0.3339 -0.2883  0.4675
  721SOL    MW4 2931   1.599   2.756   0.689 -0.2670 -0.2389  0.3862
  722SOL     OW 2932   1.344   2.707   0.429  0.1646  0.0867  0.5946
  722SOL    HW2 2933   1.404   2.647   0.474  1.1083  0.6249  0.0820
  722SOL    HW3 2934   1.264   2.705   0.482  0.5463 -0.8250  1.1608
  722SOL    MW4 2935   1.342   2.698   0.442  0.3395  0.0374  0.6017
  723SOL     OW 2936   1.792   2.508   1.175 -0.7572 -0.0975 -0.1049
  723SOL    HW2 2937   1.799   2.585   1.118 -2.0943  0.7428  0.8549
  723SOL    HW3 2938   1.709   2.467   1.151 -0.2992 -0.9633 -0.2418
  723SOL    MW4 2939   1.782   2.513   1.164 -0.8732 -0.1009  0.0036
  724SOL     OW 2940   2.468   2.203   0.569  0.0911  0.2793 -0.2773
  724SOL    HW2 2941   2.465   2.294   0.597 -1.9557  0.8931 -2.3376
  724SOL    HW3 2942   2.378   2.171   0.579  0.0565 -0.5040 -2.6911
  724SOL    MW4 2943   2.456   2.211   0.574 -0.1836  0.2565 -0.8675
  725SOL     OW 2944   0.250   4.658   1.600 -0.2318  1.0094  0.0496
  725SOL    HW2 2945   0.328   4.695   1.557  0.9869 -2.3094 -0.7266
  725SOL    HW3 2946   0.176   4.695   1.552  1.0094  0.6964 -2.1755
  725SOL    MW4 2947   0.251   4.668   1.588  0.0927  0.5302 -0.3464
  726SOL     OW 2948   0.022   0.069   1.460 -0.4304  0.3172 -0.3549
  726SOL    HW2 2949  -0.051   0.024   1.502  0.8946  0.2127  1.9314
  726SOL    HW3 2950   0.006   0.059   1.366 -2.5886 -0.9072  0.1158
  726SOL    MW4 2951   0.010   0.062   1.453 -0.5402  0.1419  0.0088
  727SOL     OW 2952   4.468   0.372   1.551 -0.1529 -0.1265 -0.4929
  727SOL    HW2 2953   4.481   0.380   1.645 -0.2938  0.8799 -0.5531
  727SOL    HW3 2954   4.473   0.278   1.534 -2.0790 -0.4844  0.8008
  727SOL    MW4 2955   4.471   0.361   1.561 -0.4256 -0.0409 -0.3300
  728SOL     OW 2956   0.219   0.468   1.460 -0.1833 -0.4697  0.3086
  728SOL    HW2 2957   0.132   0.444   1.494 -0.1623  0.3308  0.9338
  728SOL    HW3 2958   0.210   0.462   1.365 -1.1965  0.5358  0.3292
  728SOL    MW4 2959   0.206   0.464   1.452 -0.3142 -0.2314  0.3939
  729SOL     OW 2960   0.271   0.747   1.541  0.3984  0.1658 -0.2549
  729SOL    HW2 2961   0.351   0.790   1.512  1.7511 -1.0057  1.6080
  729SOL    HW3 2962   0.271   0.663   1.497  0.3481  0.0523 -0.0407
  729SOL    MW4 2963   0.281   0.742   1.532  0.5702 -0.0038  0.0191
  730SOL     OW 2964   0.026   0.876   1.480 -0.0641  0.0621 -0.7943
  730SOL    HW2 2965   0.041   0.966   1.509  0.0412 -0.1342 -0.2246
  730SOL    HW3 2966   0.109   0.831   1.497 -0.2946 -0.2747 -0.5529
  730SOL    MW4 2967   0.039   0.882   1.486 -0.0806 -0.0083 -0.6872
  731SOL     OW 2968   0.015   1.144   1.576 -0.1491  0.2579  0.0808
  731SOL    HW2 2969   0.022   1.160   1.670 -0.1312 -0.1384  0.1472
  731SOL    HW3 2970   0.086   1.195   1.537 -0.5168  0.8906  0.2261
  731SOL    MW4 2971   0.025   1.153   1.583 -0.1950  0.2890  0.1087
  732SOL     OW 2972   0.211   1.301   1.449  0.2551  0.0690  0.3126
  732SOL    HW2 2973   0.297   1.267   1.474  1.0799  1.6259 -0.3259
  732SOL    HW3 2974   0.200   1.273   1.358  0.7958  1.1966 -0.1117
  732SOL    MW4 2975   0.221   1.292   1.440  0.4353  0.4232  0.1724
  733SOL     OW 2976   0.005   1.925   1.105 -0.2839 -0.0370  0.1855
  733SOL    HW2 2977   0.095   1.958   1.105 -0.3403  0.1292  1.2603
  733SOL    HW3 2978   0.011   1.839   1.146 -0.4993 -0.3644 -0.4606
  733SOL    MW4 2979   0.018   1.918   1.111 -0.3197 -0.0583  0.2421
  734SOL     OW 2980   0.013   0.888   1.203  0.6175 -0.3355 -0.4729
  734SOL    HW2 2981   0.005   0.857   1.293 -0.0615  0.6284 -0.2007
  734SOL    HW3 2982  -0.067   0.856   1.160  0.6901 -0.3465 -0.5990
  734SOL    MW4 2983   0.001   0.879   1.209  0.5374 -0.2098 -0.4537
  735SOL     OW 2984   4.479   1.649   1.448  0.2103  0.3340  0.5822
  735SOL    HW2 2985   4.492   1.743   1.456  0.0835  0.1703  3.5429
  735SOL    HW3 2986   4.557   1.610   1.489  0.0724 -0.8251 -0.2251
  735SOL    MW4 2987   4.491   1.656   1.455  0.1755  0.1595  0.8662
  736SOL     OW 2988   0.220   2.048   1.455  0.1096  0.2586 -0.6355
  736SOL    HW2 2989   0.131   2.012   1.462  0.2852 -0.3005 -1.1558
  736SOL    HW3 2990   0.244   2.033   1.363  1.5982 -1.6429  0.0348
  736SOL    MW4 2991   0.212   2.041   1.444  0.3292 -0.0660 -0.6156
  737SOL     OW 2992   0.194   2.316   1.608  0.0940  0.0445  0.3112
  737SOL    HW2 2993   0.190   2.301   1.703  1.7265 -0.9979  0.2258
  737SOL    HW3 2994   0.201   2.228   1.571 -1.1637  0.4121 -0.8336
  737SOL    MW4 2995   0.194   2.302   1.616  0.1434 -0.0441  0.1489
  738SOL     OW 2996   4.490   2.443   1.451 -0.3281  0.1014  0.0222
  738SOL    HW2 2997   4.549   2.392   1.506  0.3076  1.5313  0.6774
  738SOL    HW3 2998   4.404   2.431   1.490 -0.1188 -0.1211  0.4140
  738SOL    MW4 2999   4.487   2.435   1.463 -0.2165  0.2606  0.1603
  739SOL     OW 3000   0.039   2.672   1.592  0.1312  0.4712  0.6546
  739SOL    HW2 3001  -0.033   2.731   1.567  0.2758  0.5668  0.4617
  739SOL    HW3 3002   0.028   2.596   1.535 -0.1813  0.2171  1.0505
  739SOL    MW4 3003   0.028   2.670   1.581  0.1092  0.4501  0.6813
  740SOL     OW 3004   0.248   2.817   1.465  0.0912  0.0163  0.4957
  740SOL    HW2 3005   0.324   2.783   1.513 -0.7249  3.3063  4.3841
  740SOL    HW3 3006   0.173   2.774   1.505 -0.3576 -0.8528 -1.2155
  740SOL    MW4 3007   0.248   2.807   1.476 -0.0757  0.3359  0.7830
  741SOL     OW 3008   0.235   3.066   1.567 -0.3607 -0.3261  0.3318
  741SOL    HW2 3009   0.159   3.116   1.537  0.1585  0.7917  0.8541
  741SOL    HW3 3010   0.241   2.992   1.506 -1.2449  0.1459 -0.3360
  741SOL    MW4 3011   0.226   3.063   1.555 -0.4088 -0.1161  0.3127
  742SOL     OW 3012   0.004   3.200   1.469  0.3771 -0.1362  0.0292
  742SOL    HW2 3013   0.014   3.288   1.506  2.0381 -0.6484  0.8200
  742SOL    HW3 3014  -0.018   3.216   1.377 -2.5066  1.1251  0.8656
  742SOL    MW4 3015   0.003   3.214   1.462  0.2151 -0.0374  0.2438
  743SOL     OW 3016   4.311   3.587   1.477  0.2451  0.5343  0.4735
  743SOL    HW2 3017   4.396   3.551   1.502 -0.2469  0.6197  2.3454
  743SOL    HW3 3018   4.315   3.679   1.503  0.2396  0.9999 -1.1274
  743SOL    MW4 3019   4.323   3.594   1.484  0.1793  0.6070  0.5093
  744SOL     OW 3020   0.035   3.463   1.595  0.0786  0.1375 -0.1810
  744SOL    HW2 3021   0.018   3.469   1.689 -1.6057 -1.4597 -0.3589
  744SOL    HW3 3022   0.121   3.503   1.583 -0.0826  1.1286  1.9184
  744SOL    MW4 3023   0.044   3.469   1.606 -0.1650  0.0575  0.0724
  745SOL     OW 3024   0.267   3.602   1.500  0.8498 -0.1271  0.1016
  745SOL    HW2 3025   0.263   3.696   1.519  1.5080  0.0883 -0.8145
  745SOL    HW3 3026   0.245   3.596   1.407 -0.3253 -0.9878  0.4293
  745SOL    MW4 3027   0.263   3.614   1.490  0.7816 -0.2122  0.0240
  746SOL     OW 3028   0.047   4.008   1.492 -0.1324 -0.3844  0.4411
  746SOL    HW2 3029   0.051   4.081   1.555  0.0752 -0.4165  0.4646
  746SOL    HW3 3030   0.119   3.950   1.518 -0.5711 -0.8216  0.6990
  746SOL    MW4 3031   0.057   4.010   1.504 -0.1629 -0.4463  0.4783
  747SOL     OW 3032   0.041   4.277   1.616 -0.2151  0.2568 -0.3430
  747SOL    HW2 3033   0.022   4.271   1.710  0.6677  1.4066 -0.0777
  747SOL    HW3 3034  -0.041   4.306   1.577 -0.5319 -0.0314  0.1003
  747SOL    MW4 3035   0.027   4.280   1.623 -0.1404  0.3705 -0.2495
  748SOL     OW 3036   0.467   4.267   1.582 -0.3435 -0.3884  0.2063
  748SOL    HW2 3037   0.444   4.181   1.547  0.9277 -0.1613 -1.2382
  748SOL    HW3 3038   0.408   4.327   1.537  1.2398 -0.1050 -1.5659
  748SOL    MW4 3039   0.456   4.263   1.572  0.0331 -0.3214 -0.2182
  749SOL     OW 3040   0.660   4.611   1.580 -0.4687  0.1512 -0.0789
  749SOL    HW2 3041   0.734   4.671   1.571  0.8188 -1.3697  0.0909
  749SOL    HW3 3042   0.585   4.659   1.544  0.5442  1.8005 -0.0349
  749SOL    MW4 3043   0.660   4.625   1.574 -0.1652  0.1678 -0.0507
  750SOL     OW 3044   0.466   0.097   1.483 -0.7393 -0.1889 -0.2418
  750SOL    HW2 3045   0.466   0.187   1.517  1.7943 -0.6528  1.0885
  750SOL    HW3 3046   0.467   0.107   1.388 -1.6726  1.1843 -0.1159
  750SOL    MW4 3047   0.466   0.110   1.475 -0.5282 -0.0689 -0.0497
  751SOL     OW 3048   0.453   0.348   1.553 -0.1621  0.0750 -0.4259
  751SOL    HW2 3049   0.522   0.396   1.508 -0.5534  0.3652 -0.7267
  751SOL    HW3 3050   0.372   0.381   1.513 -0.4302 -0.8918 -0.6849
  751SOL    MW4 3051   0.451   0.359   1.542 -0.2491 -0.0143 -0.4997
  752SOL     OW 3052   0.703   0.460   1.467  0.0165  0.2165 -0.0105
  752SOL    HW2 3053   0.715   0.554   1.483 -0.1146  0.2390 -0.0402
  752SOL    HW3 3054   0.775   0.418   1.514  1.2505  0.4556 -1.6529
  752SOL    MW4 3055   0.714   0.467   1.475  0.1621  0.2510 -0.2310
  753SOL     OW 3056   0.480   0.888   1.471 -0.0243  0.0786 -0.2598
  753SOL    HW2 3057   0.564   0.844   1.482 -0.1546  0.0101  0.5213
  753SOL    HW3 3058   0.471   0.900   1.377  0.0691 -1.4420 -0.4606
  753SOL    MW4 3059   0.490   0.884   1.460 -0.0291 -0.1311 -0.1831
  754SOL     OW 3060   0.705   0.734   1.509 -0.0047  0.5218 -0.0128
  754SOL    HW2 3061   0.704   0.760   1.602  1.6318  0.6120  0.0021
  754SOL    HW3 3062   0.773   0.789   1.470  1.3723 -1.5596 -0.6267
  754SOL    MW4 3063   0.714   0.745   1.516  0.3929  0.2592 -0.0919
  755SOL     OW 3064   0.437   1.162   1.566 -0.0019  0.3925 -0.0143
  755SOL    HW2 3065   0.525   1.193   1.546 -0.0448  0.4925 -0.0509
  755SOL    HW3 3066   0.439   1.068   1.546  0.7700 -0.0942  2.2227
  755SOL    MW4 3067   0.448   1.154   1.561  0.0943  0.3413  0.2762
  756SOL     OW 3068   0.653   1.289   1.493 -0.0231 -0.2898 -0.0682
  756SOL    HW2 3069   0.641   1.375   1.533 -1.7774 -0.9843  0.9350
  756SOL    HW3 3070   0.673   1.308   1.401 -0.7741  1.1780  0.0570
  756SOL    MW4 3071   0.654   1.303   1.486 -0.3537 -0.1876  0.0807
  757SOL     OW 3072   0.656   1.542   1.591 -0.1857  0.3988  0.0089
  757SOL    HW2 3073   0.736   1.583   1.558 -0.9629  0.5931 -1.6410
  757SOL    HW3 3074   0.586   1.579   1.539 -1.1245 -1.4843 -0.1121
  757SOL    MW4 3075   0.658   1.552   1.580 -0.4121  0.1760 -0.2246
  758SOL     OW 3076   0.209   1.554   1.565  0.1807  0.1124 -0.4093
  758SOL    HW2 3077   0.209   1.461   1.544 -1.8798  0.0354 -0.1775
  758SOL    HW3 3078   0.212   1.557   1.661  2.0230  0.3294 -0.4618
  758SOL    MW4 3079   0.209   1.542   1.575  0.1519  0.1308 -0.3856
  759SOL     OW 3080   0.451   1.939   1.562  0.2955 -0.1829 -0.3449
  759SOL    HW2 3081   0.444   1.940   1.657  0.1931 -1.3877 -0.3366
  759SOL    HW3 3082   0.364   1.965   1.531 -0.4102 -2.2337 -0.1239
  759SOL    MW4 3083   0.438   1.943   1.570  0.1889 -0.6125 -0.3146
  760SOL     OW 3084   1.641   1.869   0.468  0.5255  0.1423  0.0233
  760SOL    HW2 3085   1.582   1.822   0.527 -0.3739  1.2892  0.0605
  760SOL    HW3 3086   1.617   1.837   0.381  0.0313  0.4165  0.0590
  760SOL    MW4 3087   1.630   1.858   0.464  0.3418  0.3297  0.0329
  761SOL     OW 3088   0.659   2.334   1.541 -0.0312  0.0453 -0.3964
  761SOL    HW2 3089   0.671   2.246   1.505 -2.3208 -0.4502 -0.0287
  761SOL    HW3 3090   0.575   2.364   1.505  0.0850  1.5405  0.5197
  761SOL    MW4 3091   0.649   2.327   1.532 -0.3179  0.1774 -0.2271
  762SOL     OW 3092   0.405   2.434   1.460 -0.0349  0.2565  0.3443
  762SOL    HW2 3093   0.422   2.520   1.498  1.2621  0.1485  0.0226
  762SOL    HW3 3094   0.327   2.402   1.506 -0.9201  1.8804 -0.0009
  762SOL    MW4 3095   0.397   2.441   1.471  0.0195  0.4563  0.2564
  763SOL     OW 3096   0.457   2.673   1.565  0.0043  0.3652 -0.1382
  763SOL    HW2 3097   0.441   2.672   1.659  0.8429 -1.3612  0.0014
  763SOL    HW3 3098   0.550   2.695   1.557  0.4149 -1.4049 -0.4662
  763SOL    MW4 3099   0.468   2.676   1.576  0.1691 -0.0963 -0.1631
  764SOL     OW 3100   0.706   2.773   1.521 -0.6412  0.3522 -0.2096
  764SOL    HW2 3101   0.703   2.859   1.562  1.4432  0.0461  0.6504
  764SOL    HW3 3102   0.685   2.789   1.429 -0.5936  1.7189  0.0112
  764SOL    MW4 3103   0.702   2.786   1.514 -0.3598  0.4921 -0.0670
  765SOL     OW 3104   0.676   3.026   1.598  0.5945  0.2127  0.5036
  765SOL    HW2 3105   0.759   3.054   1.559  0.7798 -0.3445  0.4935
  765SOL    HW3 3106   0.609   3.075   1.551  0.8706  0.1067 -0.0021
  765SOL    MW4 3107   0.678   3.036   1.587  0.6554  0.1254  0.4355
  766SOL     OW 3108   0.470   3.179   1.484  0.1965  0.3878  0.4567
  766SOL    HW2 3109   0.383   3.143   1.505 -0.2488  1.2936  0.1713
  766SOL    HW3 3110   0.475   3.173   1.389  0.6794 -0.1708  0.5110
  766SOL    MW4 3111   0.459   3.173   1.474  0.2015  0.4337  0.4262
  767SOL     OW 3112   0.472   3.446   1.590  0.0451  0.0201  0.0494
  767SOL    HW2 3113   0.479   3.361   1.546 -1.2333 -0.7216  1.2169
  767SOL    HW3 3114   0.394   3.486   1.551 -0.2844 -0.0390  0.6538
  767SOL    MW4 3115   0.462   3.440   1.579 -0.1670 -0.0858  0.2832
  768SOL     OW 3116   0.682   3.618   1.525  0.0314  0.4331  0.0380
  768SOL    HW2 3117   0.603   3.567   1.544 -0.0707  0.3290 -0.6589
  768SOL    HW3 3118   0.754   3.560   1.548 -0.0917  0.3180  0.1344
  768SOL    MW4 3119   0.681   3.603   1.530  0.0017  0.4039 -0.0411
  769SOL     OW 3120   0.696   3.889   1.561  0.1709  0.2613  0.1808
  769SOL    HW2 3121   0.785   3.910   1.531 -0.0572  0.4007 -0.4106
  769SOL    HW3 3122   0.686   3.796   1.542 -0.2869  0.5385 -1.0145
  769SOL    MW4 3123   0.706   3.880   1.554  0.0804  0.3161 -0.0551
  770SOL     OW 3124   0.234   3.846   1.617  0.3627  0.2637  0.6605
  770SOL    HW2 3125   0.242   3.844   1.712 -0.9250  4.9920  0.9731
  770SOL    HW3 3126   0.308   3.899   1.587 -0.6559  0.9334 -0.7464
  770SOL    MW4 3127   0.245   3.852   1.626  0.0584  0.9758  0.5162
  771SOL     OW 3128   0.232   4.417   1.466 -0.0624 -0.2038 -0.4868
  771SOL    HW2 3129   0.168   4.357   1.506 -1.1835 -0.1426 -2.1461
  771SOL    HW3 3130   0.228   4.495   1.521 -2.3608  0.2922 -1.2943
  771SOL    MW4 3131   0.223   4.419   1.479 -0.5136 -0.1302 -0.8123
  772SOL     OW 3132   0.451   4.000   1.493  0.2488  0.1127  0.8841
  772SOL    HW2 3133   0.536   3.958   1.503  0.0104 -0.5126  0.3141
  772SOL    HW3 3134   0.444   4.018   1.399 -0.9634 -1.3718  0.6711
  772SOL    MW4 3135   0.462   3.997   1.482  0.0574 -0.1657  0.7808
  773SOL     OW 3136   1.114   4.636   1.559 -0.1262  0.0677  0.2351
  773SOL    HW2 3137   1.120   4.625   1.654  1.4279 -0.9056  0.0476
  773SOL    HW3 3138   1.196   4.679   1.535 -1.0046  1.3499 -0.5446
  773SOL    MW4 3139   1.126   4.640   1.568 -0.0371  0.1078  0.1075
  774SOL     OW 3140   0.942   0.348   1.578  0.0835 -0.1028 -0.1642
  774SOL    HW2 3141   0.923   0.347   1.671 -0.6721 -0.5670 -0.3207
  774SOL    HW3 3142   0.932   0.257   1.549  0.7761 -0.0452 -0.6061
  774SOL    MW4 3143   0.938   0.336   1.586  0.0752 -0.1564 -0.2432
  775SOL     OW 3144   1.160   0.465   1.464 -0.2560  0.1907  0.2335
  775SOL    HW2 3145   1.077   0.438   1.505 -0.7904  0.8531 -0.3975
  775SOL    HW3 3146   1.164   0.559   1.478 -0.2402  0.3574 -0.8804
  775SOL    MW4 3147   1.149   0.474   1.472 -0.3245  0.3000  0.0032
  776SOL     OW 3148   3.248   3.630   0.243  0.1042  0.3616  0.4570
  776SOL    HW2 3149   3.308   3.584   0.184  0.7409 -0.5246  1.7915
  776SOL    HW3 3150   3.227   3.711   0.196  2.7412  0.9226  0.1832
  776SOL    MW4 3151   3.253   3.635   0.229  0.5360  0.3185  0.5969
  777SOL     OW 3152   1.169   0.719   1.533 -0.3358  0.0279 -0.2641
  777SOL    HW2 3153   1.146   0.715   1.626 -0.4580 -1.7989 -0.3639
  777SOL    HW3 3154   1.249   0.773   1.531  1.1151 -1.9631  1.2117
  777SOL    MW4 3155   1.177   0.726   1.545 -0.1605 -0.4758 -0.0826
  778SOL     OW 3156   0.915   0.899   1.441  0.1705 -0.0023  0.0601
  778SOL    HW2 3157   0.995   0.852   1.467 -0.0828 -0.0941  0.6725
  778SOL    HW3 3158   0.921   0.905   1.346  0.3128 -1.0973 -0.0093
  778SOL    MW4 3159   0.926   0.894   1.432  0.1558 -0.1590  0.1317
  779SOL     OW 3160   0.902   1.160   1.544 -0.4782  0.2603  0.0139
  779SOL    HW2 3161   0.901   1.071   1.511 -0.9603  0.0135  0.6945
  779SOL    HW3 3162   0.814   1.194   1.525 -1.0978 -0.2116  1.9053
  779SOL    MW4 3163   0.890   1.153   1.537 -0.6236  0.1655  0.3532
  780SOL     OW 3164   1.127   1.330   1.443 -0.1851  0.2062  0.0184
  780SOL    HW2 3165   1.202   1.275   1.463 -0.3660 -0.1291 -0.2188
  780SOL    HW3 3166   1.052   1.283   1.480 -0.2581  0.6165  0.3957
  780SOL    MW4 3167   1.127   1.316   1.450 -0.2186  0.2160  0.0368
  781SOL     OW 3168   1.173   1.561   1.570 -0.4456  0.2833  0.0208
  781SOL    HW2 3169   1.236   1.606   1.514 -0.0110  0.0279  0.2956
  781SOL    HW3 3170   1.163   1.474   1.530 -1.1306  0.5452 -0.3961
  781SOL    MW4 3171   1.180   1.555   1.557 -0.4786  0.2841  0.0020
  782SOL     OW 3172   0.680   2.072   1.466 -0.0472 -0.5241 -0.2827
  782SOL    HW2 3173   0.597   2.040   1.500 -0.5792  0.2149 -0.8837
  782SOL    HW3 3174   0.746   2.017   1.508 -0.8929 -1.7738 -0.5676
  782SOL    MW4 3175   0.678   2.060   1.476 -0.2289 -0.5915 -0.3995
  783SOL     OW 3176   0.650   2.287   1.098  0.1506 -0.0079 -0.4211
  783SOL    HW2 3177   0.622   2.198   1.119 -1.2848  0.1577 -1.5385
  783SOL    HW3 3178   0.579   2.343   1.130  0.4386  0.6371 -0.9003
  783SOL    MW4 3179   0.637   2.283   1.105 -0.0008  0.0987 -0.6317
  784SOL     OW 3180   0.881   1.918   1.590  0.4130 -0.3268  0.4031
  784SOL    HW2 3181   0.894   1.828   1.559  1.2644 -0.4440  1.0835
  784SOL    HW3 3182   0.959   1.965   1.560  0.4758 -0.0634  0.9771
  784SOL    MW4 3183   0.893   1.912   1.582  0.5337 -0.3076  0.5686
  785SOL     OW 3184   1.102   2.308   1.567 -0.2708 -0.0814  0.1790
  785SOL    HW2 3185   1.174   2.368   1.547  0.3367 -1.2668 -1.2977
  785SOL    HW3 3186   1.025   2.350   1.530 -0.1988  0.7740  0.9839
  785SOL    MW4 3187   1.102   2.321   1.560 -0.1811 -0.1249  0.0905
  786SOL     OW 3188   0.888   2.454   1.464 -0.7278  0.2549 -0.5372
  786SOL    HW2 3189   0.894   2.524   1.530  0.8774 -0.6601  0.3244
  786SOL    HW3 3190   0.805   2.410   1.483 -0.9638  0.9003 -0.0440
  786SOL    MW4 3191   0.878   2.458   1.475 -0.5471  0.2193 -0.3586
  787SOL     OW 3192   0.906   2.666   1.645  0.4760  0.0644 -0.0862
  787SOL    HW2 3193   0.888   2.661   1.739  1.0683 -1.5058 -0.0291
  787SOL    HW3 3194   0.823   2.694   1.607  0.2196  0.6943  0.8994
  787SOL    MW4 3195   0.893   2.669   1.653  0.5203 -0.0598  0.0514
  788SOL     OW 3196   2.135   3.044   0.432  0.4680 -0.3453  0.3060
  788SOL    HW2 3197   2.169   3.029   0.520 -0.6392 -2.8675  0.3474
  788SOL    HW3 3198   2.045   3.013   0.435  0.2808 -0.0756 -1.6171
  788SOL    MW4 3199   2.128   3.038   0.444  0.2973 -0.6428  0.0577
  789SOL     OW 3200   1.186   3.065   1.551  0.0038 -0.3057 -0.2406
  789SOL    HW2 3201   1.182   3.075   1.646 -0.3620 -3.0836  0.0752
  789SOL    HW3 3202   1.271   3.101   1.526  0.9636 -1.3863  1.4085
  789SOL    MW4 3203   1.197   3.071   1.560  0.0821 -0.8147  0.0186
  790SOL     OW 3204   0.912   3.182   1.504 -0.2937  0.2835 -0.1502
  790SOL    HW2 3205   1.002   3.153   1.518 -0.3339 -0.0397 -0.5403
  790SOL    HW3 3206   0.902   3.183   1.409 -1.0517 -0.8012 -0.0956
  790SOL    MW4 3207   0.922   3.178   1.494 -0.3990  0.0980 -0.1944
  791SOL     OW 3208   0.911   3.464   1.586  0.3378  0.2194 -0.1979
  791SOL    HW2 3209   0.924   3.371   1.566  0.6007 -0.1868  1.6969
  791SOL    HW3 3210   0.998   3.503   1.580  0.4842  0.0134  0.5167
  791SOL    MW4 3211   0.924   3.457   1.583  0.3918  0.1388  0.1464
  792SOL     OW 3212   1.145   3.621   1.520 -0.1144  0.0338  0.1065
  792SOL    HW2 3213   1.138   3.628   1.424 -0.0541 -0.8134  0.0289
  792SOL    HW3 3214   1.219   3.563   1.534 -0.3979 -0.1989  0.6548
  792SOL    MW4 3215   1.154   3.614   1.509 -0.1438 -0.1087  0.1686
  793SOL     OW 3216   1.180   3.870   1.639 -0.0489 -0.4060  0.1931
  793SOL    HW2 3217   1.117   3.930   1.601 -0.0662 -0.1946  0.5574
  793SOL    HW3 3218   1.157   3.785   1.602  0.1064 -0.1580 -0.4826
  793SOL    MW4 3219   1.169   3.867   1.629 -0.0308 -0.3452  0.1520
  794SOL     OW 3220   1.129   4.602   1.042  0.0389  0.1520  0.1037
  794SOL    HW2 3221   1.138   4.510   1.069 -0.4955 -0.1058 -0.5694
  794SOL    HW3 3222   1.132   4.599   0.947 -2.0516  0.5937 -0.0045
  794SOL    MW4 3223   1.130   4.589   1.033 -0.3076  0.1760  0.0007
  795SOL     OW 3224   0.707   4.390   1.454  0.0120 -0.3893  0.5020
  795SOL    HW2 3225   0.655   4.332   1.510  0.5362 -1.0279  0.3375
  795SOL    HW3 3226   0.696   4.477   1.492  0.9275 -0.9257  2.0134
  795SOL    MW4 3227   0.699   4.394   1.466  0.2020 -0.5441  0.6797
  796SOL     OW 3228   0.933   4.259   1.549 -0.3546 -0.4350  0.1766
  796SOL    HW2 3229   0.910   4.259   1.642  0.7217  1.5830  0.4768
  796SOL    HW3 3230   0.863   4.308   1.507  0.0415  0.1652  0.1963
  796SOL    MW4 3231   0.921   4.265   1.556 -0.1603 -0.0892  0.2187
  797SOL     OW 3232   1.616   0.012   1.546  0.4304  0.2491 -0.1811
  797SOL    HW2 3233   1.612   0.019   1.642 -0.3501 -0.1471 -0.1767
  797SOL    HW3 3234   1.529   0.038   1.517  0.6318  0.2563 -0.7791
  797SOL    MW4 3235   1.604   0.016   1.555  0.3539  0.1974 -0.2595
  798SOL     OW 3236   1.356   0.086   1.472  0.4239 -0.3762 -0.1571
  798SOL    HW2 3237   1.367   0.178   1.494 -0.7983 -0.1108 -0.6302
  798SOL    HW3 3238   1.344   0.085   1.377  2.6375 -1.2322 -0.4703
  798SOL    MW4 3239   1.356   0.098   1.462  0.5548 -0.4542 -0.2607
  799SOL     OW 3240   1.382   0.365   1.577 -0.8686  0.2234  0.6014
  799SOL    HW2 3241   1.461   0.391   1.530 -1.2043 -0.4387 -0.3759
  799SOL    HW3 3242   1.310   0.402   1.525 -1.2099  0.4665  1.2439
  799SOL    MW4 3243   1.383   0.373   1.564 -0.9580  0.1681  0.5572
  800SOL     OW 3244   1.833   0.381   1.579  0.5068 -0.3527 -0.1455
  800SOL    HW2 3245   1.828   0.307   1.518 -0.4807 -0.2070 -0.2491
  800SOL    HW3 3246   1.903   0.436   1.544 -0.3671 -0.0308 -1.4242
  800SOL    MW4 3247   1.842   0.379   1.566  0.2612 -0.2910 -0.3279
  801SOL     OW 3248   1.787   0.833   1.407 -0.0071 -0.2255  0.1819
  801SOL    HW2 3249   1.773   0.915   1.455  1.2629 -0.9475  1.8432
  801SOL    HW3 3250   1.765   0.764   1.469  1.4996 -1.1847 -0.3180
  801SOL    MW4 3251   1.782   0.835   1.421  0.3593 -0.4473  0.3351
  802SOL     OW 3252   1.385   0.906   1.499 -0.1295 -0.3388 -0.1975
  802SOL    HW2 3253   1.466   0.855   1.505  0.0106 -0.1248 -0.2896
  802SOL    HW3 3254   1.356   0.895   1.408 -0.2008 -0.4081 -0.1671
  802SOL    MW4 3255   1.392   0.898   1.488 -0.1204 -0.3197 -0.2056
  803SOL     OW 3256   1.600   0.725   1.579  0.4372  0.2666  0.3307
  803SOL    HW2 3257   1.586   0.719   1.674  0.0315  0.2226  0.2691
  803SOL    HW3 3258   1.592   0.635   1.548  1.3946  0.1643  0.3645
  803SOL    MW4 3259   1.597   0.712   1.587  0.5101  0.2473  0.3271
  804SOL     OW 3260   1.343   1.179   1.546 -0.4944  0.0479  0.1294
  804SOL    HW2 3261   1.329   1.175   1.641 -1.2262  0.0099  0.0263
  804SOL    HW3 3262   1.359   1.088   1.521  2.9783  0.4664  0.6787
  804SOL    MW4 3263   1.343   1.166   1.555 -0.1328  0.0980  0.1884
  805SOL     OW 3264   1.585   1.248   1.453  0.1270 -0.5580  0.0272
  805SOL    HW2 3265   1.496   1.223   1.477  0.0154 -1.0118 -0.8126
  805SOL    HW3 3266   1.641   1.202   1.515 -0.0796 -2.9171 -1.4583
  805SOL    MW4 3267   1.580   1.238   1.464  0.0850 -0.9291 -0.2798
  806SOL     OW 3268   1.343   1.669   1.388 -0.1083  0.1788 -0.3906
  806SOL    HW2 3269   1.344   1.669   1.293  0.2111  0.0203 -0.3883
  806SOL    HW3 3270   1.422   1.621   1.413  0.6956  1.6502 -0.0531
  806SOL    MW4 3271   1.354   1.663   1.379  0.0399  0.3519 -0.3458
  807SOL     OW 3272   1.330   1.916   1.520  0.5101  0.2853 -0.3909
  807SOL    HW2 3273   1.359   1.895   1.609  0.4270 -1.2552 -0.7118
  807SOL    HW3 3274   1.339   1.834   1.472  0.4598  1.0828 -1.7865
  807SOL    MW4 3275   1.335   1.902   1.526  0.4925  0.1872 -0.6174
  808SOL     OW 3276   1.561   2.051   1.453  0.4750 -0.1899  0.6402
  808SOL    HW2 3277   1.480   2.008   1.482  0.5226  0.0346  1.1177
  808SOL    HW3 3278   1.559   2.044   1.358 -0.4565  0.4317  0.6021
  808SOL    MW4 3279   1.550   2.044   1.444  0.3583 -0.0784  0.6981
  809SOL     OW 3280   1.560   2.325   1.542 -0.0784  0.6859 -0.1188
  809SOL    HW2 3281   1.646   2.366   1.532 -1.0781  2.8497 -0.1275
  809SOL    HW3 3282   1.570   2.239   1.502  2.3080  0.5850  0.6133
  809SOL    MW4 3283   1.573   2.319   1.536  0.1045  0.9580 -0.0234
  810SOL     OW 3284   1.326   2.467   1.511 -0.5777  0.3171  0.1626
  810SOL    HW2 3285   1.326   2.558   1.541  0.0545  0.3732 -0.0059
  810SOL    HW3 3286   1.418   2.442   1.511 -0.7513 -0.3213  0.2009
  810SOL    MW4 3287   1.338   2.476   1.515 -0.5172  0.2403  0.1453
  811SOL     OW 3288   1.332   2.722   1.589 -0.4292 -0.5120  0.6462
  811SOL    HW2 3289   1.395   2.782   1.550  0.1856 -1.9154 -0.5593
  811SOL    HW3 3290   1.249   2.742   1.546 -0.0951 -0.9415 -0.2037
  811SOL    MW4 3291   1.329   2.732   1.578 -0.3040 -0.7536  0.3750
  812SOL     OW 3292   1.551   2.859   1.497  0.1807 -0.1259  0.0176
  812SOL    HW2 3293   1.616   2.796   1.528 -0.6492 -0.1139  1.8613
  812SOL    HW3 3294   1.558   2.856   1.402  1.9010 -1.1489  0.1577
  812SOL    MW4 3295   1.560   2.850   1.489  0.2981 -0.2594  0.2794
  813SOL     OW 3296   1.417   3.199   1.482 -0.1795 -0.3216 -0.2950
  813SOL    HW2 3297   1.396   3.282   1.525 -1.9791 -1.4336  1.0053
  813SOL    HW3 3298   1.499   3.172   1.522 -0.5730 -0.1188  0.6643
  813SOL    MW4 3299   1.425   3.207   1.493 -0.4687 -0.4418  0.0032
  814SOL     OW 3300   1.346   3.255   1.213 -0.3706 -0.0017  0.0987
  814SOL    HW2 3301   1.374   3.248   1.304  0.3223  1.4536  0.0161
  814SOL    HW3 3302   1.264   3.205   1.209 -0.9154  0.7238  1.7471
  814SOL    MW4 3303   1.339   3.247   1.225 -0.3512  0.2859  0.3054
  815SOL     OW 3304   1.371   3.477   1.565  1.0439 -0.0119  0.1919
  815SOL    HW2 3305   1.359   3.483   1.660 -0.1079  0.9201 -0.0025
  815SOL    HW3 3306   1.435   3.545   1.545  1.3017 -0.2215  0.3021
  815SOL    MW4 3307   1.378   3.487   1.575  0.9259  0.0834  0.1808
  816SOL     OW 3308   1.565   3.651   1.494 -0.3333 -0.7557 -0.0033
  816SOL    HW2 3309   1.585   3.636   1.402 -2.1719  1.1565 -0.7588
  816SOL    HW3 3310   1.606   3.735   1.514 -1.8229 -0.0773  0.2821
  816SOL    MW4 3311   1.573   3.660   1.484 -0.7724 -0.4137 -0.0653
  817SOL     OW 3312   1.654   3.906   1.566 -0.2741 -0.3951 -0.0335
  817SOL    HW2 3313   1.647   3.921   1.660 -0.7294  0.5661 -0.2117
  817SOL    HW3 3314   1.564   3.912   1.534  0.0570  0.9323 -0.7628
  817SOL    MW4 3315   1.641   3.908   1.574 -0.2906 -0.0930 -0.1532
  818SOL     OW 3316   1.413   4.245   1.552 -0.3041  0.0566 -0.2991
  818SOL    HW2 3317   1.494   4.294   1.536 -0.1493 -0.1518 -0.1596
  818SOL    HW3 3318   1.343   4.302   1.521 -0.0052 -0.3607 -1.7632
  818SOL    MW4 3319   1.414   4.259   1.546 -0.2441 -0.0257 -0.4740
  819SOL     OW 3320   1.192   4.377   1.460  0.0114 -0.3049  0.2478
  819SOL    HW2 3321   1.165   4.467   1.475 -1.2081 -0.2301 -2.0597
  819SOL    HW3 3322   1.116   4.325   1.486  0.1201 -0.5501  0.0756
  819SOL    MW4 3323   1.178   4.382   1.465 -0.1351 -0.3271 -0.0794
  820SOL     OW 3324   1.615   4.407   1.433  0.1802 -0.3670 -0.1192
  820SOL    HW2 3325   1.700   4.372   1.460  1.0157 -0.1107 -2.3066
  820SOL    HW3 3326   1.618   4.498   1.460  0.1725 -0.6176  0.7500
  820SOL    MW4 3327   1.627   4.414   1.440  0.2896 -0.3657 -0.2930
  821SOL     OW 3328   2.072   0.016   1.533  0.6280  0.5497  0.1578
  821SOL    HW2 3329   2.046  -0.009   1.622  0.4249  1.3590  0.3292
  821SOL    HW3 3330   1.992   0.048   1.492  0.5327 -0.6600 -0.6195
  821SOL    MW4 3331   2.058   0.017   1.540  0.5884  0.4969  0.0778
  822SOL     OW 3332   1.837   0.141   1.440 -0.0182  0.5565 -0.1111
  822SOL    HW2 3333   1.766   0.102   1.490  0.2452 -0.5507 -0.5906
  822SOL    HW3 3334   1.821   0.114   1.349  1.0188  0.2642 -0.2169
  822SOL    MW4 3335   1.826   0.132   1.434  0.1534  0.3719 -0.1884
  823SOL     OW 3336   1.598   0.472   1.462 -0.0693  0.0435 -0.2897
  823SOL    HW2 3337   1.682   0.432   1.484 -0.9482 -2.0857 -0.7413
  823SOL    HW3 3338   1.598   0.477   1.366 -0.3708  0.2486 -0.2811
  823SOL    MW4 3339   1.609   0.467   1.452 -0.2251 -0.2104 -0.3482
  824SOL     OW 3340   2.029   0.531   1.477  0.6395 -0.0281  0.2687
  824SOL    HW2 3341   2.112   0.492   1.504  0.6929 -0.4338 -0.4875
  824SOL    HW3 3342   2.043   0.625   1.485  0.4127 -0.1401  2.3935
  824SOL    MW4 3343   2.042   0.538   1.482  0.6166 -0.0964  0.4492
  825SOL     OW 3344   2.044   0.808   1.556  0.2121 -0.1996  0.3425
  825SOL    HW2 3345   2.115   0.871   1.543  0.1737 -0.1818  0.2108
  825SOL    HW3 3346   1.972   0.844   1.505 -0.2866  0.4246  1.4660
  825SOL    MW4 3347   2.044   0.821   1.547  0.1411 -0.1150  0.4733
  826SOL     OW 3348   1.772   0.872   1.151 -0.1791 -0.1637 -0.1968
  826SOL    HW2 3349   1.780   0.852   1.245  0.5125  1.0899  0.0254
  826SOL    HW3 3350   1.690   0.832   1.124 -1.1480  0.7772  1.3046
  826SOL    MW4 3351   1.763   0.864   1.160 -0.2156  0.1259  0.0306
  827SOL     OW 3352   1.784   1.073   1.585 -0.3967  0.1627  0.4448
  827SOL    HW2 3353   1.855   1.129   1.554  0.2497 -0.8823 -0.0165
  827SOL    HW3 3354   1.790   1.076   1.681  1.3869 -1.2768  0.4029
  827SOL    MW4 3355   1.794   1.081   1.594 -0.0759 -0.1650  0.3785
  828SOL     OW 3356   1.943   1.278   1.495 -0.3189 -0.2982 -0.3004
  828SOL    HW2 3357   1.959   1.371   1.513  0.4393 -0.3709 -0.6083
  828SOL    HW3 3358   1.950   1.270   1.400 -1.4089 -0.4803 -0.3712
  828SOL    MW4 3359   1.946   1.290   1.485 -0.3628 -0.3319 -0.3504
  829SOL     OW 3360   1.983   1.528   1.567  0.1317  0.1502 -0.2664
  829SOL    HW2 3361   2.059   1.585   1.551 -1.0836  1.8038 -0.3280
  829SOL    HW3 3362   1.911   1.571   1.519 -1.2419 -0.3855  1.2849
  829SOL    MW4 3363   1.983   1.541   1.558 -0.2099  0.2977 -0.0697
  830SOL     OW 3364   1.575   1.535   1.513 -0.1818 -0.0876 -0.3703
  830SOL    HW2 3365   1.568   1.528   1.608 -1.7262 -1.2862 -0.5662
  830SOL    HW3 3366   1.591   1.446   1.483 -0.4433  0.1724 -1.2928
  830SOL    MW4 3367   1.576   1.523   1.521 -0.4200 -0.2115 -0.5180
  831SOL     OW 3368   1.817   1.931   1.503  0.1503  0.3420  0.4495
  831SOL    HW2 3369   1.809   1.839   1.477  1.1006  0.8225 -1.6297
  831SOL    HW3 3370   1.732   1.969   1.481 -0.2299 -0.0192  1.2742
  831SOL    MW4 3371   1.804   1.924   1.497  0.2255  0.3576  0.2840
  832SOL     OW 3372   2.259   1.974   1.553  0.1166  0.1941  0.0521
  832SOL    HW2 3373   2.242   1.970   1.647 -1.2177  1.7440 -0.0916
  832SOL    HW3 3374   2.180   2.014   1.516  1.2373  0.9869 -1.5465
  832SOL    MW4 3375   2.246   1.979   1.561  0.0882  0.5032 -0.1777
  833SOL     OW 3376   2.037   2.048   1.394  0.1656 -0.1264  0.3952
  833SOL    HW2 3377   2.019   2.139   1.416  1.5353 -0.1285  1.5752
  833SOL    HW3 3378   1.966   1.999   1.435  0.1245  0.2920  0.8225
  833SOL    MW4 3379   2.025   2.053   1.402  0.3409 -0.0715  0.6074
  834SOL     OW 3380   1.799   2.457   1.461 -0.2355  0.4627  0.4217
  834SOL    HW2 3381   1.795   2.469   1.367 -1.7583  0.8309  0.5243
  834SOL    HW3 3382   1.876   2.402   1.475 -0.1453  0.2006 -1.0429
  834SOL    MW4 3383   1.808   2.452   1.451 -0.4245  0.4766  0.2420
  835SOL     OW 3384   1.764   2.719   1.549 -0.6267 -0.1242 -0.3070
  835SOL    HW2 3385   1.834   2.764   1.502  0.5136 -0.7980  0.7209
  835SOL    HW3 3386   1.760   2.632   1.509 -1.2290  0.0712 -0.6922
  835SOL    MW4 3387   1.773   2.714   1.537 -0.5558 -0.1872 -0.2222
  836SOL     OW 3388   1.972   2.842   1.436  0.3191  0.2080 -0.2855
  836SOL    HW2 3389   1.968   2.936   1.455 -0.9769  0.3500 -1.2068
  836SOL    HW3 3390   1.979   2.836   1.341  0.0531 -0.6342 -0.2586
  836SOL    MW4 3391   1.973   2.854   1.426  0.1130  0.1156 -0.4035
  837SOL     OW 3392   2.003   3.106   1.532 -0.3017  0.0900  0.2654
  837SOL    HW2 3393   2.003   3.113   1.627 -0.2454  1.4339  0.1724
  837SOL    HW3 3394   2.089   3.137   1.505 -0.8762  1.1768 -0.3205
  837SOL    MW4 3395   2.014   3.111   1.541 -0.3700  0.4106  0.1758
  838SOL     OW 3396   1.808   3.282   1.440  0.1735  0.0201  0.2295
  838SOL    HW2 3397   1.884   3.229   1.465 -0.0470  0.0596  1.0004
  838SOL    HW3 3398   1.802   3.349   1.508 -1.2300 -0.6624  0.7980
  838SOL    MW4 3399   1.818   3.284   1.452 -0.0408 -0.0648  0.4064
  839SOL     OW 3400   1.770   3.521   1.583 -0.7285  0.1748  0.0863
  839SOL    HW2 3401   1.772   3.525   1.678  0.3743  1.8721  0.0183
  839SOL    HW3 3402   1.690   3.568   1.559 -0.2649  0.9987  0.1358
  839SOL    MW4 3403   1.760   3.528   1.592 -0.5218  0.5071  0.0838
  840SOL     OW 3404   2.005   3.662   1.493 -0.0045 -0.5998 -0.3045
  840SOL    HW2 3405   2.079   3.606   1.515 -0.3763 -1.1296 -0.4107
  840SOL    HW3 3406   1.929   3.615   1.525 -0.2647  0.1718  0.2533
  840SOL    MW4 3407   2.005   3.649   1.500 -0.0880 -0.5682 -0.2447
  841SOL     OW 3408   2.061   3.907   1.615 -0.0052  0.3546 -0.2798
  841SOL    HW2 3409   2.127   3.938   1.553  1.3277 -0.0481  0.9118
  841SOL    HW3 3410   2.037   3.820   1.583 -0.5135  0.7996 -1.1266
  841SOL    MW4 3411   2.066   3.899   1.603  0.1037  0.3603 -0.2342
  842SOL     OW 3412   1.869   3.996   1.424  0.0913 -0.6097  0.0660
  842SOL    HW2 3413   1.932   3.955   1.483  0.8262  2.2790  1.3287
  842SOL    HW3 3414   1.786   3.992   1.472  0.0785 -0.9166  0.0241
  842SOL    MW4 3415   1.867   3.990   1.438  0.1867 -0.2692  0.2270
  843SOL     OW 3416   1.832   4.268   1.531 -0.7245 -0.7335  0.1453
  843SOL    HW2 3417   1.911   4.321   1.534 -1.5031  0.5028 -0.5874
  843SOL    HW3 3418   1.861   4.182   1.501  0.3684 -0.3835  0.1905
  843SOL    MW4 3419   1.846   4.264   1.528 -0.6831 -0.5245  0.0545
  844SOL     OW 3420   2.051   4.420   1.448 -0.7220  0.2282  0.4257
  844SOL    HW2 3421   2.128   4.370   1.475 -0.9922  0.0801  0.9171
  844SOL    HW3 3422   2.063   4.507   1.487 -0.7168  0.2609  0.3519
  844SOL    MW4 3423   2.063   4.425   1.456 -0.7570  0.2131  0.4808
  845SOL     OW 3424   2.480   4.624   1.529 -0.5395 -0.4644 -0.0123
  845SOL    HW2 3425   2.483   4.644   1.623  0.7620  0.3693 -0.2205
  845SOL    HW3 3426   2.414   4.683   1.494 -0.6287 -0.3921  0.2746
  845SOL    MW4 3427   2.472   4.634   1.537 -0.3796 -0.3452 -0.0020
  846SOL     OW 3428   2.297   0.161   1.456  0.2065  0.1436  0.1107
  846SOL    HW2 3429   2.215   0.131   1.496 -0.1385  0.9636  0.0337
  846SOL    HW3 3430   2.284   0.148   1.362  0.3182 -0.1063  0.1311
  846SOL    MW4 3431   2.284   0.156   1.449  0.1757  0.2188  0.1032
  847SOL     OW 3432   2.276   0.415   1.553 -0.2151  0.0505  0.0702
  847SOL    HW2 3433   2.254   0.405   1.645 -1.9238 -0.5624 -0.3920
  847SOL    HW3 3434   2.295   0.326   1.523  0.9058  0.3178 -0.0447
  847SOL    MW4 3435   2.276   0.402   1.561 -0.2925  0.0049 -0.0060
  848SOL     OW 3436   2.500   0.569   1.474  0.1647  0.1889 -0.5166
  848SOL    HW2 3437   2.554   0.496   1.504 -0.5768 -1.4453 -3.0202
  848SOL    HW3 3438   2.411   0.545   1.498 -0.2043 -0.2571 -2.2551
  848SOL    MW4 3439   2.496   0.556   1.481  0.0179 -0.0856 -1.0765
  849SOL     OW 3440   2.516   0.807   1.604  0.3833 -0.2794  0.1041
  849SOL    HW2 3441   2.445   0.842   1.551  0.5551 -0.0355  0.0402
  849SOL    HW3 3442   2.535   0.721   1.565  0.7758  0.0682 -0.4617
  849SOL    MW4 3443   2.509   0.800   1.592  0.4578 -0.2013  0.0210
  850SOL     OW 3444   2.337   0.954   1.470 -0.4382  0.0364 -0.3265
  850SOL    HW2 3445   2.290   1.032   1.501  0.0827  0.4875 -0.6577
  850SOL    HW3 3446   2.316   0.948   1.377  0.9737  0.8545 -0.7256
  850SOL    MW4 3447   2.328   0.964   1.462 -0.1829  0.2038 -0.4231
  851SOL     OW 3448   2.186   1.159   1.564 -0.1168 -0.4280 -0.2446
  851SOL    HW2 3449   2.185   1.169   1.659  2.5100  1.4147 -0.3434
  851SOL    HW3 3450   2.119   1.220   1.532 -2.0846 -2.1738  0.4612
  851SOL    MW4 3451   2.177   1.168   1.572 -0.0298 -0.4151 -0.1644
  852SOL     OW 3452   2.438   1.286   1.516 -0.1653  0.4674  0.2721
  852SOL    HW2 3453   2.364   1.230   1.540  0.1961  0.6240  1.8008
  852SOL    HW3 3454   2.427   1.301   1.422 -1.2174 -0.7659  0.1779
  852SOL    MW4 3455   2.427   1.281   1.507 -0.2565  0.3253  0.4615
  853SOL     OW 3456   2.473   1.561   1.572 -0.1484 -0.0606  0.0971
  853SOL    HW2 3457   2.535   1.587   1.503 -1.5333  0.0023 -1.1562
  853SOL    HW3 3458   2.458   1.468   1.557 -0.3772 -0.0660  0.3683
  853SOL    MW4 3459   2.480   1.552   1.561 -0.3614 -0.0529 -0.0324
  854SOL     OW 3460   2.277   1.617   1.248  0.0866 -0.0581 -0.2241
  854SOL    HW2 3461   2.275   1.625   1.343  0.3580 -0.8646 -0.1550
  854SOL    HW3 3462   2.186   1.635   1.221 -0.0682 -0.1902  0.2107
  854SOL    MW4 3463   2.265   1.620   1.257  0.1020 -0.1820 -0.1577
  855SOL     OW 3464   2.216   1.693   1.513 -0.0260 -0.2622  0.2794
  855SOL    HW2 3465   2.232   1.787   1.523  0.1252 -0.3655  1.0068
  855SOL    HW3 3466   2.285   1.651   1.564  0.2920 -0.7850 -0.5699
  855SOL    MW4 3467   2.227   1.700   1.521  0.0360 -0.3448  0.2633
  856SOL     OW 3468   2.513   2.033   1.397 -0.1417  0.4566  0.2843
  856SOL    HW2 3469   2.426   1.994   1.410  0.6135 -1.3203  0.1023
  856SOL    HW3 3470   2.523   2.035   1.302 -0.0598  0.8422  0.3021
  856SOL    MW4 3471   2.503   2.028   1.386 -0.0312  0.2730  0.2625
  857SOL     OW 3472   2.455   2.281   1.506 -0.1447  0.1633  0.1630
  857SOL    HW2 3473   2.468   2.273   1.601 -0.7272 -0.4137  0.1941
  857SOL    HW3 3474   2.472   2.194   1.472 -0.6188  0.2097 -0.1893
  857SOL    MW4 3475   2.459   2.269   1.514 -0.2840  0.0935  0.1206
  858SOL     OW 3476   2.025   2.289   1.511 -0.2514 -0.3868 -0.2543
  858SOL    HW2 3477   2.100   2.343   1.486  1.0809 -2.3759 -0.7088
  858SOL    HW3 3478   2.015   2.302   1.605  0.4559  0.1627 -0.2561
  858SOL    MW4 3479   2.034   2.298   1.520  0.0174 -0.5767 -0.3144
  859SOL     OW 3480   2.215   2.723   1.524 -0.2618 -0.6939 -0.1815
  859SOL    HW2 3481   2.215   2.629   1.502  1.4708 -0.4606 -1.2628
  859SOL    HW3 3482   2.132   2.756   1.488 -1.1416 -1.9132  0.6916
  859SOL    MW4 3483   2.204   2.715   1.516 -0.1493 -0.8240 -0.2091
  860SOL     OW 3484   2.520   2.838   1.154 -0.1112 -0.4153 -0.5208
  860SOL    HW2 3485   2.519   2.925   1.113  1.3752  0.1405  0.5857
  860SOL    HW3 3486   2.470   2.848   1.234  0.7727 -0.3637  0.0277
  860SOL    MW4 3487   2.513   2.851   1.159  0.2015 -0.3350 -0.3024
  861SOL     OW 3488   2.439   2.856   1.424  0.2261  0.2724  0.2312
  861SOL    HW2 3489   2.436   2.940   1.471 -1.9203  0.5370 -0.2914
  861SOL    HW3 3490   2.361   2.809   1.454  1.2919 -1.4681  0.3436
  861SOL    MW4 3491   2.428   2.861   1.434  0.0837  0.0777  0.1769
  862SOL     OW 3492   2.238   3.194   1.446  0.5943 -0.2258  0.0187
  862SOL    HW2 3493   2.247   3.216   1.353  0.7547  0.9063  0.2968
  862SOL    HW3 3494   2.235   3.278   1.491 -0.6001 -0.7343  0.9500
  862SOL    MW4 3495   2.238   3.208   1.440  0.4580 -0.1435  0.1783
  863SOL     OW 3496   2.228   3.462   1.542  0.0542  0.0346 -0.5195
  863SOL    HW2 3497   2.224   3.478   1.636 -1.4201 -0.2969 -0.5159
  863SOL    HW3 3498   2.304   3.512   1.513  1.1709 -0.7280  1.0043
  863SOL    MW4 3499   2.237   3.471   1.551  0.0072 -0.1097 -0.3179
  864SOL     OW 3500   2.443   3.614   1.451 -0.6181  0.4428  0.1095
  864SOL    HW2 3501   2.520   3.566   1.480  0.5591  0.9389 -2.1079
  864SOL    HW3 3502   2.445   3.695   1.501  0.7521  0.8049 -0.5231
  864SOL    MW4 3503   2.453   3.618   1.461 -0.2820  0.5562 -0.2666
  865SOL     OW 3504   2.446   3.882   1.555 -0.1363 -0.3484 -0.2744
  865SOL    HW2 3505   2.458   3.877   1.649 -0.4512 -0.1012 -0.2195
  865SOL    HW3 3506   2.524   3.927   1.522  0.2166 -0.9024 -0.1898
  865SOL    MW4 3507   2.458   3.887   1.563 -0.1316 -0.3889 -0.2561
  866SOL     OW 3508   2.221   3.993   1.421 -0.0729 -0.0678  0.2383
  866SOL    HW2 3509   2.296   3.944   1.454 -0.9563 -1.6359 -0.0646
  866SOL    HW3 3510   2.216   3.970   1.328 -0.3749  0.7590  0.0413
  866SOL    MW4 3511   2.230   3.984   1.413 -0.2291 -0.1655  0.1723
  867SOL     OW 3512   2.261   4.250   1.542 -0.2048  0.4047  0.0822
  867SOL    HW2 3513   2.342   4.280   1.500  0.7266 -0.1218  1.4599
  867SOL    HW3 3514   2.248   4.162   1.508 -0.6520  0.7975 -0.7688
  867SOL    MW4 3515   2.270   4.242   1.532 -0.1409  0.3877  0.1518
  868SOL     OW 3516   2.472   4.368   1.414 -0.5275  0.5139 -0.0512
  868SOL    HW2 3517   2.487   4.456   1.446  2.0083  0.7902 -1.8491
  868SOL    HW3 3518   2.476   4.376   1.318 -2.4796 -1.1816 -0.3270
  868SOL    MW4 3519   2.474   4.380   1.405 -0.4506  0.3271 -0.3248
  869SOL     OW 3520   2.931   4.601   1.529 -0.5427 -0.2039 -0.0444
  869SOL    HW2 3521   2.934   4.604   1.625  1.9113  3.3311 -0.1196
  869SOL    HW3 3522   2.863   4.664   1.505  0.1595  0.3355 -0.6483
  869SOL    MW4 3523   2.923   4.610   1.538 -0.1261  0.3333 -0.1341
  870SOL     OW 3524   2.700   0.115   1.487 -0.6962 -0.1733  0.4095
  870SOL    HW2 3525   2.685   0.205   1.516 -0.5831 -0.1315  0.3400
  870SOL    HW3 3526   2.618   0.069   1.507 -0.8335 -0.0026  0.2431
  870SOL    MW4 3527   2.687   0.121   1.494 -0.6995 -0.1453  0.3785
  871SOL     OW 3528   2.679   0.375   1.585  0.3027 -0.2100 -0.2815
  871SOL    HW2 3529   2.679   0.403   1.677 -0.3523  1.8497 -0.8760
  871SOL    HW3 3530   2.755   0.419   1.547  0.2574 -0.6213 -0.8437
  871SOL    MW4 3531   2.689   0.385   1.592  0.2103  0.0075 -0.4340
  872SOL     OW 3532   2.904   0.478   1.493  0.4052 -0.2889 -0.5642
  872SOL    HW2 3533   2.907   0.563   1.536  1.9904 -0.8404  0.4602
  872SOL    HW3 3534   2.898   0.498   1.400  0.7155  0.9358 -0.3240
  872SOL    MW4 3535   2.904   0.492   1.487  0.6557 -0.2001 -0.3973
  873SOL     OW 3536   2.916   0.763   1.573 -0.1298  0.0306  0.0901
  873SOL    HW2 3537   2.924   0.781   1.667 -1.3486 -0.1437  0.2349
  873SOL    HW3 3538   2.845   0.820   1.543  0.3444  0.1817 -0.7526
  873SOL    MW4 3539   2.908   0.773   1.581 -0.2277  0.0275 -0.0019
  874SOL     OW 3540   2.717   0.942   1.494  0.2181 -0.0538 -0.1515
  874SOL    HW2 3541   2.636   0.916   1.539  0.4233 -2.3439 -1.0574
  874SOL    HW3 3542   2.700   0.925   1.402  1.0699  1.2578 -0.5578
  874SOL    MW4 3543   2.704   0.936   1.488  0.3574 -0.1829 -0.3247
  875SOL     OW 3544   2.700   1.197   1.571 -0.5409 -0.2628 -0.2369
  875SOL    HW2 3545   2.709   1.106   1.543 -0.5643 -0.6717  1.0351
  875SOL    HW3 3546   2.606   1.215   1.565 -0.5651 -0.3992 -0.2592
  875SOL    MW4 3547   2.689   1.187   1.566 -0.5472 -0.3346 -0.0721
  876SOL     OW 3548   2.918   1.265   1.395  0.4757  0.0283  0.5655
  876SOL    HW2 3549   2.978   1.212   1.447 -0.3922  1.2066  2.8523
  876SOL    HW3 3550   2.834   1.255   1.439  0.3681  3.5521  1.3148
  876SOL    MW4 3551   2.915   1.257   1.408  0.3469  0.6487  0.9661
  877SOL     OW 3552   2.949   1.466   1.580  0.0327  0.1964 -0.6542
  877SOL    HW2 3553   2.865   1.506   1.559  0.2985  0.8581 -0.4529
  877SOL    HW3 3554   2.955   1.391   1.520 -1.7688 -1.2735  0.9534
  877SOL    MW4 3555   2.939   1.461   1.569 -0.1698  0.0898 -0.4154
  878SOL     OW 3556   2.704   1.609   1.436  0.3365  0.1569  0.2768
  878SOL    HW2 3557   2.715   1.700   1.463 -1.4595  0.3936  0.2689
  878SOL    HW3 3558   2.704   1.613   1.340 -1.2528  0.3600  0.2740
  878SOL    MW4 3559   2.705   1.622   1.427 -0.1101  0.2149  0.2754
  879SOL     OW 3560   2.724   1.875   1.515 -0.0161 -0.2192 -0.6964
  879SOL    HW2 3561   2.718   1.867   1.611 -1.8359 -0.9220 -0.8443
  879SOL    HW3 3562   2.651   1.932   1.492 -0.1357 -0.7921 -1.7556
  879SOL    MW4 3563   2.713   1.882   1.525 -0.2718 -0.3874 -0.8556
  880SOL     OW 3564   2.960   2.028   1.474 -0.2817 -0.3029  0.2006
  880SOL    HW2 3565   2.926   2.118   1.479 -0.1523 -0.0833 -2.2478
  880SOL    HW3 3566   2.888   1.973   1.504 -1.1245  0.4807 -0.3674
  880SOL    MW4 3567   2.946   2.033   1.479 -0.3757 -0.1707 -0.1974
  881SOL     OW 3568   2.920   2.310   1.516  0.1359 -0.1912  0.1446
  881SOL    HW2 3569   2.934   2.314   1.610 -0.9102  0.5297  0.2797
  881SOL    HW3 3570   2.836   2.354   1.502  0.0404 -0.7220 -1.0675
  881SOL    MW4 3571   2.910   2.316   1.526 -0.0145 -0.1662  0.0025
  882SOL     OW 3572   2.689   2.431   1.463 -0.0313  0.5081 -0.5464
  882SOL    HW2 3573   2.613   2.372   1.469 -0.1155  0.5003 -1.6890
  882SOL    HW3 3574   2.658   2.514   1.500 -0.8291  0.7284 -1.7000
  882SOL    MW4 3575   2.675   2.434   1.469 -0.1476  0.5362 -0.8494
  883SOL     OW 3576   2.650   2.710   1.520 -0.6373  0.0607  0.5998
  883SOL    HW2 3577   2.730   2.749   1.485 -0.0933 -1.1842  0.4599
  883SOL    HW3 3578   2.579   2.762   1.481  0.0781  0.9072  0.4091
  883SOL    MW4 3579   2.651   2.722   1.510 -0.4711  0.0081  0.5562
  884SOL     OW 3580   2.881   2.832   1.419 -0.1392  0.2436 -0.2613
  884SOL    HW2 3581   2.950   2.778   1.458 -0.7748 -0.8875 -0.6574
  884SOL    HW3 3582   2.888   2.917   1.463 -0.5828 -0.8573  2.0094
  884SOL    MW4 3583   2.891   2.836   1.430 -0.2813 -0.0510 -0.0139
  885SOL     OW 3584   2.873   3.085   1.529  0.2026  0.6369  0.6675
  885SOL    HW2 3585   2.882   3.101   1.623  0.4887 -0.7595  0.8864
  885SOL    HW3 3586   2.956   3.115   1.492  1.0004 -0.8972  1.1589
  885SOL    MW4 3587   2.885   3.091   1.537  0.3457  0.2501  0.7613
  886SOL     OW 3588   2.459   3.093   1.570  0.6132  0.0825 -0.0869
  886SOL    HW2 3589   2.525   3.143   1.522 -0.4535  0.9596 -0.6636
  886SOL    HW3 3590   2.376   3.116   1.528 -0.3400  0.8269  2.1451
  886SOL    MW4 3591   2.457   3.103   1.558  0.3464  0.2966  0.1315
  887SOL     OW 3592   2.684   3.482   1.519  0.5269 -0.3858 -0.8471
  887SOL    HW2 3593   2.688   3.457   1.611  2.8931  0.9219 -0.5504
  887SOL    HW3 3594   2.668   3.400   1.473  0.6384 -1.2639  0.6363
  887SOL    MW4 3595   2.682   3.468   1.525  0.8535 -0.3288 -0.6123
  888SOL     OW 3596   2.928   3.602   1.414 -0.3774  0.2992  0.0337
  888SOL    HW2 3597   2.854   3.549   1.444 -0.7330  0.4607 -0.5671
  888SOL    HW3 3598   2.925   3.595   1.319  0.3590  0.3366  0.0080
  888SOL    MW4 3599   2.918   3.594   1.405 -0.3273  0.3252 -0.0490
  889SOL     OW 3600   2.933   3.873   1.537  0.2094 -0.1843  0.2932
  889SOL    HW2 3601   2.850   3.917   1.520 -0.0116 -0.7853 -0.2443
  889SOL    HW3 3602   2.922   3.786   1.496  0.9459 -0.4124  0.5758
  889SOL    MW4 3603   2.920   3.867   1.529  0.2775 -0.2940  0.2596
  890SOL     OW 3604   2.687   4.002   1.467 -0.4736  0.0817  0.2222
  890SOL    HW2 3605   2.697   4.091   1.500 -0.9367  0.4765 -0.7075
  890SOL    HW3 3606   2.712   4.007   1.375  0.8424 -1.0326  0.4973
  890SOL    MW4 3607   2.692   4.014   1.460 -0.3612 -0.0129  0.1359
  891SOL     OW 3608   2.699   4.267   1.548  0.2424  0.0635 -0.1971
  891SOL    HW2 3609   2.774   4.295   1.496 -0.2930 -0.9945 -1.5421
  891SOL    HW3 3610   2.623   4.307   1.506 -0.1640 -0.5408 -0.0478
  891SOL    MW4 3611   2.699   4.276   1.536  0.1183 -0.1554 -0.3549
  892SOL     OW 3612   2.946   4.348   1.421  0.3828 -0.4917 -0.6045
  892SOL    HW2 3613   2.946   4.436   1.459 -2.7904 -0.3349 -0.8808
  892SOL    HW3 3614   2.971   4.362   1.330  0.4122  0.0635 -0.5130
  892SOL    MW4 3615   2.950   4.362   1.414 -0.0322 -0.3972 -0.6288
  893SOL     OW 3616   3.600   4.245   1.521 -0.7111 -0.2467  0.7738
  893SOL    HW2 3617   3.579   4.261   1.613  0.7348  2.3930  0.6784
  893SOL    HW3 3618   3.530   4.289   1.473 -0.5853 -0.2485  0.5885
  893SOL    MW4 3619   3.588   4.253   1.526 -0.5038  0.1011  0.7367
  894SOL     OW 3620   3.326   0.010   1.057  0.2294  0.5246 -0.0506
  894SOL    HW2 3621   3.265   0.062   1.109 -2.1325 -1.1015 -1.1000
  894SOL    HW3 3622   3.340  -0.069   1.108 -1.5021 -0.7434 -1.4850
  894SOL    MW4 3623   3.320   0.007   1.071 -0.3107  0.1428 -0.3784
  895SOL     OW 3624   3.140   0.365   1.559  0.1523  0.0184  0.2884
  895SOL    HW2 3625   3.145   0.273   1.533  2.4742  0.5215 -1.2374
  895SOL    HW3 3626   3.060   0.397   1.517  0.9059 -0.5953 -1.6703
  895SOL    MW4 3627   3.130   0.357   1.550  0.5581  0.0038 -0.1713
  896SOL     OW 3628   3.390   0.514   1.506 -0.2695 -0.4089  0.2187
  896SOL    HW2 3629   3.381   0.538   1.414  0.5381  0.1372  0.2777
  896SOL    HW3 3630   3.309   0.468   1.526 -0.8309  0.2275 -0.5267
  896SOL    MW4 3631   3.378   0.511   1.496 -0.2370 -0.2530  0.1283
  897SOL     OW 3632   3.414   0.770   1.601  0.1781  0.3579 -0.0756
  897SOL    HW2 3633   3.404   0.762   1.696 -0.1877  0.2924 -0.1198
  897SOL    HW3 3634   3.401   0.681   1.568  2.2460  0.0091 -0.0158
  897SOL    MW4 3635   3.411   0.757   1.609  0.4025  0.3032 -0.0734
  898SOL     OW 3636   3.176   0.890   1.506 -0.1685 -0.3891  0.0385
  898SOL    HW2 3637   3.246   0.869   1.568 -0.1663 -0.3418  0.0522
  898SOL    HW3 3638   3.099   0.847   1.542 -0.2915  0.1125  0.3767
  898SOL    MW4 3639   3.175   0.882   1.519 -0.1845 -0.3166  0.0849
  899SOL     OW 3640   3.111   1.158   1.574  0.4336 -0.1123  0.1384
  899SOL    HW2 3641   3.099   1.164   1.668  0.9772  1.1579  0.1373
  899SOL    HW3 3642   3.139   1.068   1.559  1.5038  0.0080  1.3206
  899SOL    MW4 3643   3.113   1.147   1.584  0.6464  0.0713  0.2943
  900SOL     OW 3644   3.347   1.294   1.504 -0.2191  0.2408  0.2224
  900SOL    HW2 3645   3.422   1.244   1.538  0.3670  0.3265 -0.9170
  900SOL    HW3 3646   3.270   1.247   1.537  0.3261  0.4764  1.8701
  900SOL    MW4 3647   3.347   1.281   1.513 -0.0696  0.2832  0.2893
  901SOL     OW 3648   3.382   1.567   1.596  0.0082  0.3698  0.5239
  901SOL    HW2 3649   3.402   1.567   1.690 -0.4243  0.0687  0.6198
  901SOL    HW3 3650   3.390   1.475   1.570 -0.4398  0.3670  0.3947
  901SOL    MW4 3651   3.385   1.555   1.605 -0.1080  0.3296  0.5194
  902SOL     OW 3652   3.138   1.662   1.531 -0.3002  0.1310 -0.1894
  902SOL    HW2 3653   3.221   1.618   1.546  0.2922  1.8840  1.8154
  902SOL    HW3 3654   3.073   1.591   1.531  0.8437 -0.9462  1.1149
  902SOL    MW4 3655   3.140   1.646   1.533 -0.0710  0.2203  0.2471
  903SOL     OW 3656   3.193   1.924   1.589 -0.2223  0.2276  0.6934
  903SOL    HW2 3657   3.195   1.828   1.578  1.0927  0.3271 -0.1258
  903SOL    HW3 3658   3.112   1.951   1.546  0.8682 -0.2334 -1.7433
  903SOL    MW4 3659   3.183   1.915   1.582  0.0951  0.1799  0.2640
  904SOL     OW 3660   2.030   3.166   1.082  0.3022 -0.0182  0.0633
  904SOL    HW2 3661   1.949   3.207   1.113 -1.0342 -2.3641 -0.1705
  904SOL    HW3 3662   2.018   3.159   0.987  1.0542  0.1924 -0.0488
  904SOL    MW4 3663   2.018   3.170   1.073  0.2248 -0.3002  0.0178
  905SOL     OW 3664   3.359   2.294   1.574  0.1978  0.0306  0.0778
  905SOL    HW2 3665   3.425   2.349   1.532  0.2670  0.2751  0.5090
  905SOL    HW3 3666   3.369   2.208   1.533  0.7956  0.0624  0.1590
  905SOL    MW4 3667   3.369   2.290   1.563  0.2859  0.0668  0.1454
  906SOL     OW 3668   3.154   2.427   1.436 -0.0957  0.1385  0.2914
  906SOL    HW2 3669   3.217   2.369   1.477  0.6329  0.1114 -0.8507
  906SOL    HW3 3670   3.069   2.387   1.454  0.1767  0.3848  2.1596
  906SOL    MW4 3671   3.151   2.414   1.444  0.0365  0.1674  0.3871
  907SOL     OW 3672   3.114   2.700   1.535 -0.2299  0.2599  0.3847
  907SOL    HW2 3673   3.199   2.738   1.514  0.4643 -0.0761  2.5240
  907SOL    HW3 3674   3.124   2.607   1.514  0.1686  0.0904  1.3076
  907SOL    MW4 3675   3.126   2.693   1.529 -0.0861  0.1931  0.7887
  908SOL     OW 3676   3.372   2.793   1.456 -0.0472  0.1221  0.0663
  908SOL    HW2 3677   3.379   2.886   1.480 -1.5521  0.3522 -0.3095
  908SOL    HW3 3678   3.384   2.792   1.361  1.9845 -0.3195  0.3162
  908SOL    MW4 3679   3.375   2.805   1.447  0.0222  0.0944  0.0497
  909SOL     OW 3680   3.370   3.099   1.507  0.5650 -0.2215  0.1820
  909SOL    HW2 3681   3.370   3.100   1.603  0.4231  0.5655  0.1743
  909SOL    HW3 3682   3.427   3.171   1.482  0.2316 -0.1313 -0.3300
  909SOL    MW4 3683   3.378   3.109   1.517  0.5023 -0.1059  0.1132
  910SOL     OW 3684   3.117   3.159   1.426  0.6431  0.1994 -0.0902
  910SOL    HW2 3685   3.119   3.164   1.331 -0.6661 -0.5768 -0.1649
  910SOL    HW3 3686   3.203   3.124   1.450  0.2700 -1.4453 -1.0962
  910SOL    MW4 3687   3.129   3.155   1.417  0.4213 -0.1199 -0.2328
  911SOL     OW 3688   3.155   3.425   1.523  0.5809 -0.0018  0.1909
  911SOL    HW2 3689   3.157   3.344   1.471  1.2992 -0.2877  0.6498
  911SOL    HW3 3690   3.087   3.479   1.481 -0.3246 -1.0804  0.2500
  911SOL    MW4 3691   3.146   3.421   1.510  0.5562 -0.1819  0.2593
  912SOL     OW 3692   3.356   3.598   1.489 -0.0331 -0.3429  0.7842
  912SOL    HW2 3693   3.442   3.568   1.519 -0.4579 -1.5823  0.7758
  912SOL    HW3 3694   3.297   3.526   1.509 -0.9317  0.1844  0.0615
  912SOL    MW4 3695   3.360   3.585   1.496 -0.2077 -0.4370  0.6878
  913SOL     OW 3696   3.393   3.861   1.577  0.3609  0.1646  0.2064
  913SOL    HW2 3697   3.319   3.903   1.533  0.2027  0.6841  0.9618
  913SOL    HW3 3698   3.390   3.770   1.548  1.0642  0.7840 -1.9404
  913SOL    MW4 3699   3.383   3.855   1.567  0.4327  0.3147  0.0228
  914SOL     OW 3700   3.185   3.967   1.467 -0.3162  0.1905  0.1036
  914SOL    HW2 3701   3.163   4.054   1.502 -0.8254  0.3937 -0.7269
  914SOL    HW3 3702   3.115   3.910   1.497 -0.8501  0.4016 -0.7279
  914SOL    MW4 3703   3.173   3.971   1.476 -0.4539  0.2456 -0.1156
  915SOL     OW 3704   3.187   4.235   1.526  0.4661  0.4068 -0.0797
  915SOL    HW2 3705   3.174   4.236   1.621  0.4344  0.3060 -0.0831
  915SOL    HW3 3706   3.103   4.263   1.490  0.3510  0.0484 -0.0912
  915SOL    MW4 3707   3.174   4.239   1.534  0.4468  0.3467 -0.0817
  916SOL     OW 3708   3.367   4.629   1.576  0.1627  0.2008 -0.0441
  916SOL    HW2 3709   3.368   4.546   1.528 -0.6863  1.2047 -1.8506
  916SOL    HW3 3710   3.448   4.673   1.550 -0.8259  1.2240 -1.4510
  916SOL    MW4 3711   3.378   4.624   1.566 -0.0796  0.4678 -0.4681
  917SOL     OW 3712   3.810   0.017   1.546 -0.1060 -0.0528 -0.4285
  917SOL    HW2 3713   3.804   0.022   1.642  0.7378 -1.0852 -0.3072
  917SOL    HW3 3714   3.904   0.025   1.528 -0.3419  0.9095 -1.2197
  917SOL    MW4 3715   3.822   0.018   1.557 -0.0257 -0.0620 -0.5169
  918SOL     OW 3716   3.558   0.109   1.451  0.1469  0.2722 -0.3362
  918SOL    HW2 3717   3.650   0.089   1.464  0.0249 -0.0894 -0.0239
  918SOL    HW3 3718   3.547   0.112   1.356  0.6209  0.9654 -0.3729
  918SOL    MW4 3719   3.568   0.107   1.441  0.1934  0.3159 -0.2998
  919SOL     OW 3720   3.613   0.353   1.578  0.2443  0.3641  0.3990
  919SOL    HW2 3721   3.592   0.269   1.538 -0.1924  0.1891  0.9837
  919SOL    HW3 3722   3.546   0.412   1.546  1.2143  0.7814 -0.9301
  919SOL    MW4 3723   3.602   0.350   1.569  0.3150  0.3961  0.3006
  920SOL     OW 3724   3.826   0.498   1.485  0.2644  0.1112  0.2645
  920SOL    HW2 3725   3.757   0.439   1.516  1.7396 -0.6676  2.2136
  920SOL    HW3 3726   3.811   0.506   1.391 -0.4673 -2.7111  0.0949
  920SOL    MW4 3727   3.815   0.491   1.477  0.3629 -0.3639  0.4992
  921SOL     OW 3728   3.818   0.743   1.620 -0.5653 -0.0843 -0.4238
  921SOL    HW2 3729   3.745   0.787   1.577  0.1726 -0.3955 -2.0677
  921SOL    HW3 3730   3.821   0.656   1.579  0.3814 -0.2661  0.0094
  921SOL    MW4 3731   3.809   0.737   1.609 -0.3431 -0.1494 -0.5835
  922SOL     OW 3732   3.635   0.897   1.460 -0.1820  0.1847 -0.0932
  922SOL    HW2 3733   3.600   0.910   1.372  0.0110 -1.3127 -0.4056
  922SOL    HW3 3734   3.564   0.854   1.508  0.8525 -2.0525 -0.4806
  922SOL    MW4 3735   3.621   0.893   1.455 -0.0203 -0.3080 -0.1856
  923SOL     OW 3736   3.596   1.147   1.579  0.0366 -0.0977 -0.3291
  923SOL    HW2 3737   3.673   1.195   1.547  0.0228  1.0678  1.3256
  923SOL    HW3 3738   3.601   1.062   1.534  1.1541  0.7122 -1.7975
  923SOL    MW4 3739   3.607   1.142   1.569  0.1822  0.1630 -0.3045
  924SOL     OW 3740   3.816   1.288   1.458  0.4199  0.6565  0.2313
  924SOL    HW2 3741   3.893   1.250   1.499  1.0357  0.1753 -1.3299
  924SOL    HW3 3742   3.795   1.364   1.512  2.7978  1.5691 -0.0844
  924SOL    MW4 3743   3.823   1.293   1.470  0.8147  0.7132 -0.0162
  925SOL     OW 3744   3.804   1.518   1.588  0.0569  0.4389  0.2037
  925SOL    HW2 3745   3.811   1.527   1.683  0.6191 -0.4009  0.2433
  925SOL    HW3 3746   3.738   1.583   1.563  0.6559  1.3953  1.0425
  925SOL    MW4 3747   3.796   1.528   1.597  0.2103  0.4542  0.3196
  926SOL     OW 3748   3.611   1.686   1.486 -0.2458 -0.1156  0.1131
  926SOL    HW2 3749   3.533   1.657   1.534  0.1466  0.5425  1.1765
  926SOL    HW3 3750   3.587   1.676   1.394 -2.1652  1.5265  0.3955
  926SOL    MW4 3751   3.597   1.681   1.481 -0.4473  0.1879  0.2905
  927SOL     OW 3752   3.611   1.945   1.555  0.2067  0.2692  0.6757
  927SOL    HW2 3753   3.626   1.861   1.511 -0.3730  0.3274  0.3587
  927SOL    HW3 3754   3.541   1.986   1.504 -0.6167  0.2525  1.7721
  927SOL    MW4 3755   3.603   1.939   1.542  0.0215  0.2747  0.7786
  928SOL     OW 3756   3.873   2.070   1.501 -0.0133 -0.0541 -0.2650
  928SOL    HW2 3757   3.863   2.165   1.507  0.0275 -0.0349 -0.5082
  928SOL    HW3 3758   3.794   2.035   1.543  0.4150  0.0796  0.6584
  928SOL    MW4 3759   3.861   2.078   1.507  0.0486 -0.0339 -0.1752
  929SOL     OW 3760   3.809   2.350   1.567  0.1549  0.7373  0.5047
  929SOL    HW2 3761   3.841   2.346   1.657  2.6687  0.6096 -0.3446
  929SOL    HW3 3762   3.874   2.404   1.521 -1.8639  2.0195 -0.9175
  929SOL    MW4 3763   3.822   2.357   1.573  0.2203  0.8895  0.2050
  930SOL     OW 3764   3.562   2.431   1.445  0.1613  0.0392  0.2267
  930SOL    HW2 3765   3.570   2.523   1.471 -0.7854  0.4304 -0.8401
  930SOL    HW3 3766   3.631   2.386   1.494  0.5990  1.3127  0.7877
  930SOL    MW4 3767   3.572   2.437   1.455  0.0944  0.2587  0.1600
  931SOL     OW 3768   3.608   2.684   1.541  0.1580 -0.6578 -0.0211
  931SOL    HW2 3769   3.624   2.662   1.632  2.8919 -1.0290 -0.5575
  931SOL    HW3 3770   3.517   2.715   1.539  0.4221  0.3981  2.9823
  931SOL    MW4 3771   3.598   2.685   1.553  0.5536 -0.5672  0.3045
  932SOL     OW 3772   3.797   2.876   1.457 -0.2382  0.1915 -0.6558
  932SOL    HW2 3773   3.731   2.821   1.501 -0.5082  0.7658 -0.3441
  932SOL    HW3 3774   3.881   2.837   1.483 -0.4683 -1.3523 -2.1093
  932SOL    MW4 3775   3.800   2.863   1.466 -0.3042  0.0637 -0.8063
  933SOL     OW 3776   3.825   3.118   1.576 -0.3395  0.1394 -0.5185
  933SOL    HW2 3777   3.912   3.152   1.554  0.1231 -0.6944 -0.0017
  933SOL    HW3 3778   3.813   3.042   1.520 -0.4257 -0.1892 -0.0591
  933SOL    MW4 3779   3.835   3.113   1.566 -0.2897 -0.0141 -0.3897
  934SOL     OW 3780   3.603   3.286   1.465  0.3121  0.4621  0.2560
  934SOL    HW2 3781   3.671   3.229   1.500  0.8447  1.5118  0.9679
  934SOL    HW3 3782   3.616   3.284   1.370  1.6235  0.9764  0.4111
  934SOL    MW4 3783   3.613   3.278   1.457  0.5553  0.6685  0.3704
  935SOL     OW 3784   3.621   3.542   1.552 -0.2801  0.0430 -0.5223
  935SOL    HW2 3785   3.680   3.592   1.496  1.8148  0.1372  1.7366
  935SOL    HW3 3786   3.636   3.451   1.526  1.5630 -0.0122  0.6754
  935SOL    MW4 3787   3.631   3.536   1.541  0.2394  0.0482 -0.0662
  936SOL     OW 3788   3.859   3.644   1.429 -0.1730  0.1836  0.0595
  936SOL    HW2 3789   3.869   3.715   1.493 -0.3407  0.5489 -0.3128
  936SOL    HW3 3790   3.918   3.575   1.459 -0.6916  0.1175  0.9372
  936SOL    MW4 3791   3.868   3.644   1.441 -0.2635  0.2232  0.1264
  937SOL     OW 3792   0.219   2.406   0.308  0.4532  0.2709 -0.1842
  937SOL    HW2 3793   0.140   2.357   0.328  0.2136  0.8676  0.3418
  937SOL    HW3 3794   0.189   2.478   0.252  0.4798  0.9982  0.7188
  937SOL    MW4 3795   0.205   2.409   0.303  0.4251  0.4456  0.0043
  938SOL     OW 3796   1.481   3.059   0.180  0.1654 -0.0291 -0.8691
  938SOL    HW2 3797   1.528   3.140   0.161 -1.0770  0.5823 -1.4035
  938SOL    HW3 3798   1.421   3.048   0.106  0.1749 -1.3311 -0.7036
  938SOL    MW4 3799   1.479   3.068   0.167  0.0026 -0.1202 -0.9178
  939SOL     OW 3800   3.630   3.986   1.470  0.4602  0.0673  0.1285
  939SOL    HW2 3801   3.555   3.940   1.507 -1.0504  1.3655 -1.2612
  939SOL    HW3 3802   3.623   4.075   1.505  2.2731 -0.2080  1.2567
  939SOL    MW4 3803   3.619   3.991   1.479  0.5004  0.2024  0.0939
  940SOL     OW 3804   3.821   4.401   1.538  0.1833 -0.0165 -0.1438
  940SOL    HW2 3805   3.735   4.362   1.526  0.0247  0.6092 -1.1645
  940SOL    HW3 3806   3.804   4.495   1.540  0.8208  0.1011 -0.1868
  940SOL    MW4 3807   3.807   4.408   1.537  0.2465  0.0815 -0.2842
  941SOL     OW 3808   4.295   4.633   1.586 -0.1100  0.2253  0.3321
  941SOL    HW2 3809   4.335   4.636   1.672  0.5513 -1.1473  0.0788
  941SOL    HW3 3810   4.303   4.542   1.558 -1.0186  0.4896 -0.8466
  941SOL    MW4 3811   4.301   4.622   1.593 -0.1421  0.0792  0.1433
  942SOL     OW 3812   4.074   0.093   1.461  0.1327  0.1065 -0.3298
  942SOL    HW2 3813   4.141   0.043   1.507 -0.5248 -1.2650 -0.8331
  942SOL    HW3 3814   4.073   0.178   1.504  2.3130  0.2068 -0.4231
  942SOL    MW4 3815   4.083   0.097   1.473  0.3333 -0.0612 -0.4085
  943SOL     OW 3816   4.063   0.355   1.534 -0.4130  0.2529 -0.2738
  943SOL    HW2 3817   4.067   0.355   1.629 -1.6950 -1.5727 -0.2054
  943SOL    HW3 3818   3.993   0.417   1.513  0.2177  1.0484 -0.0606
  943SOL    MW4 3819   4.054   0.363   1.544 -0.4992  0.1170 -0.2366
  944SOL     OW 3820   4.246   0.551   1.420 -0.3622  0.6826 -0.2104
  944SOL    HW2 3821   4.175   0.492   1.445 -0.0225  0.6377  0.6453
  944SOL    HW3 3822   4.322   0.520   1.468  0.2679  0.6967 -1.1689
  944SOL    MW4 3823   4.247   0.540   1.429 -0.2341  0.6785 -0.2241
  945SOL     OW 3824   4.261   0.796   1.534 -0.0067 -0.6854 -0.0928
  945SOL    HW2 3825   4.237   0.720   1.481  0.2671  0.1810 -1.4793
  945SOL    HW3 3826   4.354   0.810   1.515  0.2107 -0.6451  0.9767
  945SOL    MW4 3827   4.270   0.788   1.524  0.0582 -0.5658 -0.1346
  946SOL     OW 3828   4.003   0.890   1.456  0.5121 -0.1036 -0.1053
  946SOL    HW2 3829   4.083   0.860   1.499 -0.1069 -0.4470  0.8142
  946SOL    HW3 3830   3.932   0.848   1.504 -0.2273  0.1214 -0.9776
  946SOL    MW4 3831   4.004   0.880   1.468  0.3324 -0.1191 -0.0991
  947SOL     OW 3832   4.034   1.153   1.595  0.1660  0.1785  0.2597
  947SOL    HW2 3833   4.026   1.120   1.685  0.1566  0.0407  0.2085
  947SOL    HW3 3834   4.021   1.075   1.540 -0.4438  0.3769  0.1268
  947SOL    MW4 3835   4.031   1.138   1.600  0.0839  0.1866  0.2353
  948SOL     OW 3836   4.218   1.246   1.184  0.3935 -0.1251 -0.0445
  948SOL    HW2 3837   4.232   1.238   1.278  0.1736 -0.7274 -0.0595
  948SOL    HW3 3838   4.289   1.195   1.145 -0.0849 -0.6914 -0.1827
  948SOL    MW4 3839   4.229   1.238   1.191  0.3014 -0.2792 -0.0646
  949SOL     OW 3840   4.270   1.226   1.467  0.3725 -0.0850  0.1663
  949SOL    HW2 3841   4.201   1.210   1.531  0.4580 -0.0474  0.2666
  949SOL    HW3 3842   4.349   1.189   1.507  0.5030  0.2913  0.2516
  949SOL    MW4 3843   4.272   1.219   1.481  0.4015 -0.0304  0.1907
  950SOL     OW 3844   4.258   1.499   1.541  0.3832 -0.1496 -0.0028
  950SOL    HW2 3845   4.329   1.560   1.518  0.0989  0.1542 -0.0698
  950SOL    HW3 3846   4.291   1.414   1.512  1.6007 -0.3316  1.8699
  950SOL    MW4 3847   4.272   1.496   1.534  0.5059 -0.1335  0.2356
  951SOL     OW 3848   4.259   2.086   1.468  0.1423  0.3979 -0.0814
  951SOL    HW2 3849   4.269   2.085   1.373  0.7836 -0.2779 -0.0110
  951SOL    HW3 3850   4.203   2.011   1.488 -1.5300  1.6165 -0.0750
  951SOL    MW4 3851   4.253   2.076   1.458  0.0062  0.4694 -0.0713
  952SOL     OW 3852   4.247   2.356   1.570  0.1029  0.2769 -0.3409
  952SOL    HW2 3853   4.256   2.331   1.662  2.0495  0.2100 -0.5258
  952SOL    HW3 3854   4.248   2.274   1.522 -2.0442  0.2402 -0.3644
  952SOL    MW4 3855   4.248   2.342   1.576  0.0763  0.2635 -0.3684
  953SOL     OW 3856   4.483   1.919   1.506  0.3340 -0.0053  0.4817
  953SOL    HW2 3857   4.487   1.890   1.597 -0.6514 -1.2063  0.1702
  953SOL    HW3 3858   4.404   1.973   1.501  0.8442  0.7526  0.5169
  953SOL    MW4 3859   4.473   1.922   1.517  0.2718 -0.0638  0.4452
  954SOL     OW 3860   4.031   2.484   1.467  0.2194 -0.2731  0.1483
  954SOL    HW2 3861   4.048   2.576   1.487  1.3309  0.0485 -2.1370
  954SOL    HW3 3862   4.105   2.437   1.504  0.2727 -0.1191  0.2351
  954SOL    MW4 3863   4.043   2.490   1.475  0.3729 -0.2100 -0.1417
  955SOL     OW 3864   4.067   2.736   1.528  0.2079 -0.0699  0.1960
  955SOL    HW2 3865   4.067   2.757   1.622  2.1134 -1.5313  0.5444
  955SOL    HW3 3866   4.155   2.761   1.498 -0.5407  0.8013 -1.3007
  955SOL    MW4 3867   4.079   2.742   1.537  0.3605 -0.1478  0.0446
  956SOL     OW 3868   4.324   2.839   1.471 -0.0553  0.4767  0.1963
  956SOL    HW2 3869   4.316   2.930   1.499 -0.1142  0.6461 -0.3575
  956SOL    HW3 3870   4.287   2.838   1.383  1.0783  0.1733 -0.2887
  956SOL    MW4 3871   4.318   2.851   1.463  0.0868  0.4590  0.0594
  957SOL     OW 3872   4.273   3.093   1.558  0.3892  0.2313 -0.7484
  957SOL    HW2 3873   4.275   3.094   1.654 -1.1254  1.0809 -0.6988
  957SOL    HW3 3874   4.356   3.133   1.532  0.7093  0.2021  0.2172
  957SOL    MW4 3875   4.284   3.099   1.567  0.2313  0.3395 -0.6143
  958SOL     OW 3876   4.046   3.226   1.454 -0.5593 -0.7792  0.2201
  958SOL    HW2 3877   4.046   3.321   1.468 -0.0677 -0.7463 -0.0027
  958SOL    HW3 3878   4.126   3.196   1.495  0.1008 -0.8870 -1.0982
  958SOL    MW4 3879   4.056   3.235   1.461 -0.4077 -0.7892  0.0168
  959SOL     OW 3880   4.070   3.477   1.541  0.1865  0.3386 -0.1462
  959SOL    HW2 3881   4.083   3.470   1.636  0.7947 -0.2838 -0.2725
  959SOL    HW3 3882   4.153   3.510   1.507 -0.9560  3.2942 -0.1604
  959SOL    MW4 3883   4.083   3.480   1.549  0.1163  0.6464 -0.1647
  960SOL     OW 3884   0.107   1.490   0.372  0.2280 -0.1651 -0.0313
  960SOL    HW2 3885   0.169   1.501   0.444 -0.1825 -1.0868  0.4702
  960SOL    HW3 3886   0.158   1.509   0.293  1.7449 -3.0698  0.1938
  960SOL    MW4 3887   0.122   1.494   0.371  0.3740 -0.6700  0.0646
  961SOL     OW 3888   4.302   3.853   1.594  0.5136  0.0437  0.9095
  961SOL    HW2 3889   4.231   3.900   1.550  0.0459 -0.9715  0.5778
  961SOL    HW3 3890   4.378   3.911   1.586  0.3951 -0.0569 -1.0585
  961SOL    MW4 3891   4.303   3.867   1.587  0.4363 -0.1035  0.6062
  962SOL     OW 3892   4.082   3.992   1.478 -0.3194  0.5692  0.3496
  962SOL    HW2 3893   4.071   3.996   1.383  4.9178  0.4453 -0.4299
  962SOL    HW3 3894   4.086   4.084   1.505 -0.1267  0.6073  0.1949
  962SOL    MW4 3895   4.081   4.005   1.469  0.3972  0.5579  0.2265
  963SOL     OW 3896   4.053   4.260   1.565  0.1902 -0.4406 -0.0219
  963SOL    HW2 3897   4.031   4.238   1.655  1.2582  0.7230  0.5281
  963SOL    HW3 3898   3.978   4.311   1.533  0.0283 -0.4394  0.3676
  963SOL    MW4 3899   4.040   4.264   1.572  0.3099 -0.2871  0.1020
  964SOL     OW 3900   4.301   4.373   1.499 -0.0604 -0.0943 -0.3067
  964SOL    HW2 3901   4.227   4.319   1.528  1.5939 -2.5173 -0.4114
  964SOL    HW3 3902   4.305   4.359   1.404  2.4334 -2.5849  0.0924
  964SOL    MW4 3903   4.292   4.364   1.490  0.4873 -0.7429 -0.2679
  965SOL     OW 3904   0.198   4.630   1.876  0.4450 -0.3621  0.4675
  965SOL    HW2 3905   0.283   4.664   1.905  0.1696  0.9476 -0.2152
  965SOL    HW3 3906   0.200   4.638   1.780 -0.3430 -0.5700  0.4278
  965SOL    MW4 3907   0.210   4.635   1.867  0.3047 -0.2170  0.3722
  966SOL     OW 3908   0.023   0.144   1.990 -0.1253 -0.0689 -0.0292
  966SOL    HW2 3909   0.030   0.227   1.942  1.2304  0.6264  1.3427
  966SOL    HW3 3910   0.089   0.088   1.951 -0.2172 -0.0930 -0.1504
  966SOL    MW4 3911   0.032   0.148   1.979  0.0410  0.0197  0.1359
  967SOL     OW 3912   4.490   0.361   1.824  0.0141 -0.3156  0.1263
  967SOL    HW2 3913   4.409   0.402   1.855  0.3569  0.1978  0.3602
  967SOL    HW3 3914   4.560   0.418   1.859  0.5010 -1.1395  0.5049
  967SOL    MW4 3915   4.489   0.374   1.833  0.1235 -0.3565  0.2072
  968SOL     OW 3916   0.226   0.472   1.932 -0.7267 -0.3358 -0.5427
  968SOL    HW2 3917   0.313   0.434   1.919 -0.2575  0.9928 -1.4443
  968SOL    HW3 3918   0.236   0.563   1.903 -1.9530  0.3146  1.0577
  968SOL    MW4 3919   0.239   0.479   1.926 -0.8266 -0.0747 -0.4504
  969SOL     OW 3920   0.242   0.722   1.819 -0.0075  0.0903  0.3719
  969SOL    HW2 3921   0.262   0.722   1.725  0.5383 -3.1571  0.4466
  969SOL    HW3 3922   0.317   0.764   1.860  0.8780 -0.6791 -0.4470
  969SOL    MW4 3923   0.254   0.728   1.812  0.1813 -0.4396  0.2738
  970SOL     OW 3924   0.036   0.913   1.911 -0.4220 -0.5078  0.2663
  970SOL    HW2 3925  -0.048   0.882   1.878 -0.5653  1.2946 -1.1570
  970SOL    HW3 3926   0.100   0.851   1.875 -1.1471 -2.0624  1.6112
  970SOL    MW4 3927   0.034   0.900   1.902 -0.5366 -0.4751  0.2558
  971SOL     OW 3928   0.044   1.197   1.846 -0.0431 -0.6687 -0.0507
  971SOL    HW2 3929  -0.047   1.217   1.870  0.3401 -0.8690  1.5860
  971SOL    HW3 3930   0.059   1.109   1.879  1.3887  0.1406  1.5112
  971SOL    MW4 3931   0.034   1.188   1.854  0.1965 -0.5882  0.3711
  972SOL     OW 3932   0.259   1.308   1.968 -0.2211  0.4368  0.0837
  972SOL    HW2 3933   0.275   1.388   1.919 -1.2982  1.2705  1.0750
  972SOL    HW3 3934   0.175   1.276   1.936 -0.6211  0.6416  0.9197
  972SOL    MW4 3935   0.250   1.314   1.957 -0.4160  0.5738  0.3248
  973SOL     OW 3936   0.259   1.551   1.842 -0.4421 -0.0104 -0.0565
  973SOL    HW2 3937   0.331   1.602   1.880 -1.0644 -0.1904  1.4375
  973SOL    HW3 3938   0.181   1.582   1.889 -0.9724 -1.6158  0.1520
  973SOL    MW4 3939   0.258   1.562   1.854 -0.5942 -0.2459  0.1683
  974SOL     OW 3940   0.017   1.615   1.950  0.4137 -0.5474  0.0738
  974SOL    HW2 3941  -0.006   1.613   2.043  1.3469 -2.2053  0.2872
  974SOL    HW3 3942  -0.062   1.584   1.906  0.3990 -1.0249  0.4243
  974SOL    MW4 3943   0.003   1.610   1.956  0.5349 -0.8291  0.1482
  975SOL     OW 3944   4.490   1.848   1.811  0.6557  0.5223  0.0022
  975SOL    HW2 3945   4.433   1.915   1.848 -0.5164  0.8362 -2.3054
  975SOL    HW3 3946   4.483   1.774   1.872  1.5538  2.2793  2.2800
  975SOL    MW4 3947   4.482   1.847   1.824  0.6199  0.7957 -0.0017
  976SOL     OW 3948   0.215   1.970   1.967  0.4158  0.5174 -0.3698
  976SOL    HW2 3949   0.203   2.062   1.943  0.1894  0.5472 -0.1495
  976SOL    HW3 3950   0.146   1.923   1.920 -0.2059  0.6130  0.4284
  976SOL    MW4 3951   0.204   1.976   1.958  0.3039  0.5339 -0.2353
  977SOL     OW 3952   0.219   2.247   1.872  0.2051 -0.6183  0.0419
  977SOL    HW2 3953   0.303   2.288   1.895 -0.3039  0.3711  0.1553
  977SOL    HW3 3954   0.154   2.315   1.887 -0.6251 -1.3733 -0.0788
  977SOL    MW4 3955   0.222   2.261   1.877  0.0284 -0.5872  0.0411
  978SOL     OW 3956   0.018   2.422   1.927  0.2325 -0.7178  0.7384
  978SOL    HW2 3957  -0.015   2.410   2.016  1.0668  0.3505  1.1971
  978SOL    HW3 3958   0.009   2.516   1.910  0.4712 -0.8509 -0.1475
  978SOL    MW4 3959   0.013   2.433   1.936  0.3743 -0.5944  0.6821
  979SOL     OW 3960   4.488   2.692   1.861  0.0431 -0.0992 -0.5987
  979SOL    HW2 3961   4.412   2.750   1.861 -0.8507 -1.2160 -1.4602
  979SOL    HW3 3962   4.513   2.685   1.769  0.5816 -0.5053 -0.4293
  979SOL    MW4 3963   4.481   2.699   1.849 -0.0038 -0.3002 -0.6900
  980SOL     OW 3964   0.228   2.827   1.961  0.0857 -0.2286 -0.2272
  980SOL    HW2 3965   0.239   2.913   1.921  1.0379 -0.3579 -0.2713
  980SOL    HW3 3966   0.151   2.790   1.919 -0.1384  0.4761 -0.4387
  980SOL    MW4 3967   0.219   2.833   1.950  0.1818 -0.1526 -0.2611
  981SOL     OW 3968   0.211   3.074   1.844 -0.8622 -0.3087  0.2987
  981SOL    HW2 3969   0.279   3.129   1.885 -1.2940 -0.6403  1.5020
  981SOL    HW3 3970   0.232   3.076   1.751  0.1382  0.5120  0.5188
  981SOL    MW4 3971   0.223   3.082   1.837 -0.7872 -0.2444  0.4866
  982SOL     OW 3972   0.014   3.184   1.980 -0.5379 -0.1549  0.5594
  982SOL    HW2 3973  -0.071   3.143   1.966 -0.0881 -1.5753  1.8219
  982SOL    HW3 3974   0.075   3.134   1.926 -0.3662  0.3626  0.2634
  982SOL    MW4 3975   0.011   3.172   1.971 -0.4559 -0.2742  0.6869
  983SOL     OW 3976   0.008   3.451   1.881  0.0182  0.1407 -0.4780
  983SOL    HW2 3977   0.089   3.491   1.914  0.5323 -0.5457 -0.9153
  983SOL    HW3 3978   0.011   3.361   1.913 -0.0418 -0.2030 -1.4399
  983SOL    MW4 3979   0.019   3.445   1.890  0.0777  0.0048 -0.6626
  984SOL     OW 3980   0.240   3.571   1.953 -0.1112  0.3025 -0.0234
  984SOL    HW2 3981   0.225   3.569   2.047 -0.3590  2.4001  0.0089
  984SOL    HW3 3982   0.320   3.521   1.940 -0.6112 -0.8369  1.1744
  984SOL    MW4 3983   0.248   3.564   1.963 -0.2098  0.4289  0.1389
  985SOL     OW 3984   0.241   3.855   1.893 -0.4840 -0.0970 -0.1024
  985SOL    HW2 3985   0.319   3.902   1.924 -1.3940  0.9349  0.6980
  985SOL    HW3 3986   0.259   3.763   1.911  0.8095  0.0700 -0.5072
  985SOL    MW4 3987   0.254   3.849   1.899 -0.4334  0.0610 -0.0503
  986SOL     OW 3988   4.460   3.945   1.955 -0.1265 -0.3320  0.3243
  986SOL    HW2 3989   4.460   4.034   1.919 -0.5043 -0.8833 -1.0772
  986SOL    HW3 3990   4.550   3.915   1.945 -0.1065 -0.2835  0.3565
  986SOL    MW4 3991   4.472   3.953   1.949 -0.1731 -0.3984  0.1436
  987SOL     OW 3992   4.471   4.225   1.878  0.0321 -0.5886  0.3400
  987SOL    HW2 3993   4.398   4.277   1.911 -0.6817 -0.8757 -0.7174
  987SOL    HW3 3994   4.549   4.265   1.915 -0.7420 -1.0740  2.5547
  987SOL    MW4 3995   4.471   4.237   1.887 -0.1640 -0.6905  0.4927
  988SOL     OW 3996   0.210   4.376   1.982  0.3734 -0.1482 -0.1795
  988SOL    HW2 3997   0.226   4.383   2.076  0.9995  0.6443 -0.3464
  988SOL    HW3 3998   0.204   4.467   1.952 -1.2118 -0.3982 -0.6721
  988SOL    MW4 3999   0.211   4.389   1.991  0.2468 -0.0768 -0.2664
  989SOL     OW 4000   0.674   4.637   1.853  0.4171 -0.1972  0.2103
  989SOL    HW2 4001   0.681   4.546   1.881 -0.6692 -0.6641 -0.9536
  989SOL    HW3 4002   0.661   4.631   1.758  0.1876  1.1636  0.1499
  989SOL    MW4 4003   0.673   4.624   1.844  0.2435 -0.0792  0.0486
  990SOL     OW 4004   0.463   0.086   1.977 -0.0553  0.0327  0.2699
  990SOL    HW2 4005   0.483   0.178   1.959 -0.3438 -0.0254 -0.3727
  990SOL    HW3 4006   0.529   0.037   1.928 -1.9960 -0.1730 -2.2804
  990SOL    MW4 4007   0.474   0.092   1.968 -0.3494 -0.0021 -0.1513
  991SOL     OW 4008   0.474   0.360   1.859 -0.4031  0.0351 -0.1210
  991SOL    HW2 4009   0.549   0.419   1.867 -0.8344  0.5245  0.3448
  991SOL    HW3 4010   0.462   0.349   1.764  0.4116 -0.2600 -0.2008
  991SOL    MW4 4011   0.483   0.366   1.847 -0.3525  0.0607 -0.0700
  992SOL     OW 4012   0.678   0.539   1.902  0.4106 -0.1929 -0.3201
  992SOL    HW2 4013   0.660   0.542   1.996 -0.6794 -1.7674 -0.4530
  992SOL    HW3 4014   0.752   0.479   1.894 -0.5148 -1.3206 -0.5823
  992SOL    MW4 4015   0.685   0.532   1.914  0.1447 -0.5494 -0.3724
  993SOL     OW 4016   0.679   0.778   1.780 -0.2218 -0.3308  0.8614
  993SOL    HW2 4017   0.758   0.814   1.820  0.1348  0.3301 -0.3912
  993SOL    HW3 4018   0.669   0.692   1.819 -0.3272  0.6014  2.9318
  993SOL    MW4 4019   0.688   0.771   1.790 -0.1885 -0.1207  0.9694
  994SOL     OW 4020   0.442   0.861   1.925  0.0168 -0.7042  0.3626
  994SOL    HW2 4021   0.439   0.954   1.903  0.4631 -0.5688  0.8977
  994SOL    HW3 4022   0.519   0.828   1.879 -0.5036 -0.9468 -0.3527
  994SOL    MW4 4023   0.452   0.869   1.916  0.0071 -0.7183  0.3388
  995SOL     OW 4024   0.447   1.125   1.862  0.0704 -0.4192 -0.3090
  995SOL    HW2 4025   0.392   1.185   1.912 -0.0028 -1.2323  0.5920
  995SOL    HW3 4026   0.426   1.144   1.771 -2.0460 -1.0540  0.0352
  995SOL    MW4 4027   0.437   1.136   1.857 -0.2185 -0.6102 -0.1447
  996SOL     OW 4028   0.692   1.282   1.942 -0.1991  0.0777 -0.3203
  996SOL    HW2 4029   0.682   1.283   2.037 -2.3062  3.0460 -0.4884
  996SOL    HW3 4030   0.625   1.220   1.912  1.1019 -1.5796  0.1640
  996SOL    MW4 4031   0.682   1.274   1.951 -0.3055  0.2507 -0.2786
  997SOL     OW 4032   0.703   1.546   1.863 -0.0557 -0.1400 -0.3440
  997SOL    HW2 4033   0.704   1.453   1.886  2.0136  0.0536  0.4466
  997SOL    HW3 4034   0.685   1.548   1.769 -3.7502 -1.1459  0.2564
  997SOL    MW4 4035   0.701   1.534   1.854 -0.2700 -0.2471 -0.1605
  998SOL     OW 4036   0.479   1.664   1.949  0.4385 -0.1791 -0.4910
  998SOL    HW2 4037   0.473   1.655   2.044  0.0322 -1.3437 -0.6154
  998SOL    HW3 4038   0.563   1.625   1.926  0.6719  0.3717 -0.5834
  998SOL    MW4 4039   0.489   1.657   1.958  0.4157 -0.2601 -0.5195
  999SOL     OW 4040   0.448   1.902   1.834  0.6514  0.1161  0.2294
  999SOL    HW2 4041   0.471   1.812   1.860  0.9981  0.5474  1.4451
  999SOL    HW3 4042   0.364   1.918   1.877  1.3275  0.9154  1.2510
  999SOL    MW4 4043   0.440   1.892   1.843  0.7863  0.2784  0.5246
 1000SOL     OW 4044   0.657   2.065   1.937 -0.0273  0.5637  0.2271
 1000SOL    HW2 4045   0.644   2.077   2.031 -0.8353 -1.3792  0.3878
 1000SOL    HW3 4046   0.594   1.998   1.912  0.2941  0.9268 -1.6843
 1000SOL    MW4 4047   0.647   2.058   1.946 -0.0915  0.3550 -0.0038
 1001SOL     OW 4048   0.652   2.327   1.824  0.5087 -0.1970  0.1254
 1001SOL    HW2 4049   0.650   2.233   1.842 -1.4225 -0.4261 -1.0843
 1001SOL    HW3 4050   0.653   2.333   1.728 -0.4922  1.0181  0.1792
 1001SOL    MW4 4051   0.652   2.315   1.814  0.1218 -0.0668 -0.0271
 1002SOL     OW 4052   0.433   2.422   1.938 -0.0801  0.1062 -0.2699
 1002SOL    HW2 4053   0.448   2.416   2.033  1.3861  0.3351 -0.4845
 1002SOL    HW3 4054   0.511   2.383   1.899 -0.7824 -0.1963 -1.3912
 1002SOL    MW4 4055   0.445   2.416   1.946  0.0207  0.0966 -0.4462
 1003SOL     OW 4056   0.428   2.680   1.841 -0.3235  0.0168  0.4115
 1003SOL    HW2 4057   0.418   2.589   1.869  0.6092  0.1622  1.2030
 1003SOL    HW3 4058   0.348   2.722   1.871  0.5275  0.1074  2.6168
 1003SOL    MW4 4059   0.416   2.673   1.849 -0.0882  0.0479  0.8069
 1004SOL     OW 4060   0.665   2.796   1.909  0.0127 -0.4198 -0.1158
 1004SOL    HW2 4061   0.659   2.803   2.004  1.4733  1.1237 -0.1212
 1004SOL    HW3 4062   0.592   2.739   1.884 -0.2496 -1.0003  1.9400
 1004SOL    MW4 4063   0.655   2.789   1.918  0.1709 -0.2930  0.1547
 1005SOL     OW 4064   0.683   3.071   1.863 -0.1831  0.4407 -0.2811
 1005SOL    HW2 4065   0.672   2.976   1.873  0.8143  0.3343 -0.1528
 1005SOL    HW3 4066   0.669   3.086   1.769 -0.2309  0.1557 -0.3224
 1005SOL    MW4 4067   0.680   3.060   1.852 -0.0579  0.3889 -0.2697
 1006SOL     OW 4068   0.457   3.188   1.937  0.2468  0.6201  0.3505
 1006SOL    HW2 4069   0.480   3.275   1.907  1.1126  0.8740  1.7029
 1006SOL    HW3 4070   0.528   3.132   1.906 -0.1580  0.4435 -0.2628
 1006SOL    MW4 4071   0.470   3.192   1.929  0.3076  0.6301  0.4480
 1007SOL     OW 4072   0.497   3.471   1.870  0.4096  0.0444 -0.3400
 1007SOL    HW2 4073   0.559   3.540   1.895  0.9880  0.3129 -2.3933
 1007SOL    HW3 4074   0.489   3.479   1.775 -3.1733  0.3006 -0.0693
 1007SOL    MW4 4075   0.504   3.481   1.861  0.0131  0.1137 -0.5752
 1008SOL     OW 4076   0.686   3.645   1.954  0.3367  0.0443 -0.1753
 1008SOL    HW2 4077   0.748   3.590   1.906  0.1606 -1.6538  1.4591
 1008SOL    HW3 4078   0.691   3.730   1.912  2.7806 -0.4291 -0.9327
 1008SOL    MW4 4079   0.695   3.649   1.942  0.6359 -0.2422 -0.0596
 1009SOL     OW 4080   0.675   3.897   1.835  0.2287 -0.3417  0.2516
 1009SOL    HW2 4081   0.760   3.935   1.856  0.2881 -0.0506 -0.4981
 1009SOL    HW3 4082   0.673   3.896   1.739 -0.5512 -0.4840  0.2707
 1009SOL    MW4 4083   0.686   3.902   1.825  0.1336 -0.3221  0.1552
 1010SOL     OW 4084   0.479   4.002   1.980  0.0284  0.1586  0.0453
 1010SOL    HW2 4085   0.470   4.090   1.944 -0.4382 -0.4675 -1.4350
 1010SOL    HW3 4086   0.545   3.960   1.925  1.0449 -0.0746  1.4282
 1010SOL    MW4 4087   0.487   4.008   1.968  0.1009  0.0453  0.0325
 1011SOL     OW 4088   0.414   4.236   1.864 -0.1563  0.0211  0.1704
 1011SOL    HW2 4089   0.331   4.277   1.889 -1.1018 -1.9729  0.3928
 1011SOL    HW3 4090   0.427   4.263   1.773 -0.6847  0.9247  0.3557
 1011SOL    MW4 4091   0.405   4.245   1.855 -0.3507 -0.1225  0.2242
 1012SOL     OW 4092   0.648   4.377   1.938 -0.6004  0.3152  0.5202
 1012SOL    HW2 4093   0.719   4.335   1.889  0.2172  0.2760  1.7210
 1012SOL    HW3 4094   0.568   4.333   1.908  0.0044 -0.4752  0.0475
 1012SOL    MW4 4095   0.647   4.366   1.927 -0.4127  0.2060  0.6162
 1013SOL     OW 4096   1.124   4.626   1.851  0.4740 -0.2031 -0.8133
 1013SOL    HW2 4097   1.204   4.661   1.891 -1.9181  1.9442  2.2642
 1013SOL    HW3 4098   1.117   4.537   1.886  0.5852  0.2286  0.3177
 1013SOL    MW4 4099   1.134   4.619   1.861  0.1730  0.1373 -0.2581
 1014SOL     OW 4100   0.895   0.119   1.959  0.6412  0.0405 -0.1895
 1014SOL    HW2 4101   0.977   0.074   1.938  1.1662  0.9274 -0.1180
 1014SOL    HW3 4102   0.826   0.062   1.926  1.2121 -1.7073  1.6203
 1014SOL    MW4 4103   0.897   0.106   1.952  0.7858 -0.0731  0.0587
 1015SOL     OW 4104   0.909   0.361   1.853  0.1589 -0.1946 -0.1125
 1015SOL    HW2 4105   0.978   0.405   1.902  0.4602 -0.6545 -0.1209
 1015SOL    HW3 4106   0.894   0.280   1.901 -0.2439 -0.1841 -0.2172
 1015SOL    MW4 4107   0.916   0.356   1.866  0.1455 -0.2539 -0.1274
 1016SOL     OW 4108   1.132   0.524   1.959 -0.0160  0.2604  0.3802
 1016SOL    HW2 4109   1.200   0.477   1.912  1.3443  2.6667 -0.1680
 1016SOL    HW3 4110   1.124   0.607   1.912 -1.2999  1.1637  2.1474
 1016SOL    MW4 4111   1.140   0.529   1.947 -0.0058  0.6970  0.5410
 1017SOL     OW 4112   1.105   0.756   1.809  0.1283 -0.3625 -0.1383
 1017SOL    HW2 4113   1.176   0.799   1.857  0.3027 -0.8657  0.0577
 1017SOL    HW3 4114   1.027   0.805   1.833  0.2821 -0.3373  0.3111
 1017SOL    MW4 4115   1.104   0.768   1.818  0.1717 -0.4255 -0.0532
 1018SOL     OW 4116   0.898   0.895   1.900 -0.5336 -0.4096  0.2273
 1018SOL    HW2 4117   0.909   0.897   1.995 -0.9972 -1.1684  0.2985
 1018SOL    HW3 4118   0.911   0.986   1.872 -0.2210 -0.2198  0.9936
 1018SOL    MW4 4119   0.901   0.908   1.909 -0.5534 -0.4848  0.3377
 1019SOL     OW 4120   0.908   1.164   1.825  0.4350  0.7712  0.0645
 1019SOL    HW2 4121   0.830   1.206   1.863  0.7240  1.0722  0.3293
 1019SOL    HW3 4122   0.903   1.186   1.732 -0.1237  0.2709 -0.0300
 1019SOL    MW4 4123   0.897   1.173   1.817  0.3994  0.7449  0.0870
 1020SOL     OW 4124   1.121   1.272   1.937 -0.3387  0.6324  0.3852
 1020SOL    HW2 4125   1.113   1.363   1.910 -0.8408  0.5183  0.1405
 1020SOL    HW3 4126   1.052   1.226   1.889  0.1900  0.0466  0.1693
 1020SOL    MW4 4127   1.111   1.278   1.928 -0.3353  0.5401  0.3245
 1021SOL     OW 4128   1.129   1.532   1.861 -0.1324 -0.3720  0.1478
 1021SOL    HW2 4129   1.058   1.589   1.892  0.5018 -0.1420  1.1858
 1021SOL    HW3 4130   1.136   1.551   1.768 -0.3721  0.7651  0.3601
 1021SOL    MW4 4131   1.120   1.542   1.853 -0.0803 -0.1917  0.3128
 1022SOL     OW 4132   0.921   1.672   1.949  0.1910 -0.0315  0.1841
 1022SOL    HW2 4133   0.903   1.762   1.922  0.7546  0.4273  1.3241
 1022SOL    HW3 4134   0.844   1.623   1.920 -0.4716  0.9583  0.2440
 1022SOL    MW4 4135   0.908   1.678   1.941  0.1780  0.1596  0.3424
 1023SOL     OW 4136   0.895   1.941   1.863  0.0995  0.2471 -0.4272
 1023SOL    HW2 4137   0.813   1.979   1.894 -0.6791 -0.8876 -1.0501
 1023SOL    HW3 4138   0.886   1.939   1.768 -0.2807 -2.2783 -0.3844
 1023SOL    MW4 4139   0.883   1.945   1.855 -0.0534 -0.2358 -0.5037
 1024SOL     OW 4140   1.138   2.068   1.925  0.0779  0.7132  0.2536
 1024SOL    HW2 4141   1.124   2.152   1.881  1.4470  0.5872 -0.4479
 1024SOL    HW3 4142   1.059   2.017   1.904  0.7988  0.5638 -2.3320
 1024SOL    MW4 4143   1.126   2.072   1.916  0.3538  0.6769 -0.1802
 1025SOL     OW 4144   1.091   2.322   1.841 -0.0507 -0.0784 -0.0626
 1025SOL    HW2 4145   1.158   2.387   1.864 -1.4091  1.4521 -0.3693
 1025SOL    HW3 4146   1.086   2.326   1.745 -0.2659 -0.5200 -0.0730
 1025SOL    MW4 4147   1.099   2.331   1.831 -0.2582  0.0653 -0.1045
 1026SOL     OW 4148   0.864   2.432   1.972 -0.2569  0.2229 -0.2555
 1026SOL    HW2 4149   0.947   2.395   1.942 -0.5525 -0.7916  0.1474
 1026SOL    HW3 4150   0.798   2.389   1.917 -0.5681  0.5107 -0.1074
 1026SOL    MW4 4151   0.866   2.422   1.961 -0.3369  0.1273 -0.1829
 1027SOL     OW 4152   0.912   2.695   1.964 -0.4464  0.5245 -0.3425
 1027SOL    HW2 4153   0.894   2.601   1.977 -0.5627  0.5661 -0.2067
 1027SOL    HW3 4154   0.826   2.732   1.944 -0.8073  1.0319  2.0468
 1027SOL    MW4 4155   0.898   2.687   1.963 -0.5094  0.5970 -0.0093
 1028SOL     OW 4156   1.115   2.894   1.988  0.2250 -0.0558  0.3060
 1028SOL    HW2 4157   1.126   2.897   2.083  0.4146  0.8855  0.2650
 1028SOL    HW3 4158   1.052   2.824   1.972  1.0057 -0.9449  1.0468
 1028SOL    MW4 4159   1.108   2.885   1.998  0.3531 -0.0489  0.3984
 1029SOL     OW 4160   1.126   3.109   1.825 -0.5367 -0.2622 -0.0010
 1029SOL    HW2 4161   1.050   3.159   1.854  0.2718  0.3867  1.0360
 1029SOL    HW3 4162   1.118   3.025   1.870 -1.8229 -1.0450 -1.6370
 1029SOL    MW4 4163   1.115   3.104   1.835 -0.6000 -0.2799 -0.0802
 1030SOL     OW 4164   0.917   3.236   1.935 -0.1183  0.4921  0.1794
 1030SOL    HW2 4165   0.949   3.214   2.022  0.4941 -0.3964 -0.2713
 1030SOL    HW3 4166   0.857   3.165   1.913  0.8201 -0.0329 -0.7112
 1030SOL    MW4 4167   0.913   3.224   1.944  0.0862  0.3054  0.0024
 1031SOL     OW 4168   0.887   3.493   1.862 -0.7853 -0.2827 -0.5243
 1031SOL    HW2 4169   0.889   3.404   1.898 -1.8390 -0.9034 -1.9122
 1031SOL    HW3 4170   0.895   3.480   1.768  0.5877  1.2190 -0.6258
 1031SOL    MW4 4171   0.888   3.479   1.855 -0.7431 -0.1667 -0.7209
 1032SOL     OW 4172   1.114   3.605   1.976  0.1011 -0.4826 -0.3659
 1032SOL    HW2 4173   1.124   3.595   2.071 -0.3044  0.9632 -0.1679
 1032SOL    HW3 4174   1.037   3.551   1.955 -1.6645  1.5782  0.6023
 1032SOL    MW4 4175   1.105   3.596   1.986 -0.1853 -0.0200 -0.2120
 1033SOL     OW 4176   1.151   3.881   1.922 -0.2372  0.4186  0.1872
 1033SOL    HW2 4177   1.141   3.794   1.962  0.1188  0.2743 -0.0377
 1033SOL    HW3 4178   1.172   3.863   1.830  0.3948  0.7371  0.2679
 1033SOL    MW4 4179   1.152   3.867   1.915 -0.1069  0.4416  0.1683
 1034SOL     OW 4180   0.892   4.004   1.963  0.6593 -0.4782  0.2033
 1034SOL    HW2 4181   0.889   4.008   2.059 -0.8594 -1.0834  0.1993
 1034SOL    HW3 4182   0.974   3.960   1.943  0.3679 -1.5349  1.2827
 1034SOL    MW4 4183   0.902   3.999   1.973  0.4205 -0.6971  0.3451
 1035SOL     OW 4184   0.886   4.241   1.830 -0.6671  0.2152 -0.5053
 1035SOL    HW2 4185   0.965   4.276   1.870 -0.3170 -0.5762 -0.5011
 1035SOL    HW3 4186   0.876   4.154   1.867 -1.3961  0.2072 -0.7036
 1035SOL    MW4 4187   0.895   4.234   1.840 -0.7171  0.1097 -0.5310
 1036SOL     OW 4188   1.139   4.366   1.930 -0.3292  0.1621  0.1013
 1036SOL    HW2 4189   1.147   4.334   2.019 -0.0432 -1.2310 -0.4029
 1036SOL    HW3 4190   1.226   4.351   1.892 -0.3470  1.0705 -0.3005
 1036SOL    MW4 4191   1.152   4.360   1.936 -0.2937  0.0982 -0.0181
 1037SOL     OW 4192   1.586   0.030   1.824 -0.1110  0.1472  0.1913
 1037SOL    HW2 4193   1.641   0.066   1.892  2.1342 -1.3180 -0.7805
 1037SOL    HW3 4194   1.591  -0.065   1.837  0.3669 -0.1489 -1.9894
 1037SOL    MW4 4195   1.594   0.022   1.834  0.2483 -0.0852 -0.2247
 1038SOL     OW 4196   1.347   0.115   1.935 -0.2871 -0.0697 -0.0272
 1038SOL    HW2 4197   1.357   0.115   2.030 -0.3641 -1.2190 -0.0175
 1038SOL    HW3 4198   1.435   0.103   1.901 -0.2881  0.1203 -0.0983
 1038SOL    MW4 4199   1.360   0.114   1.943 -0.2977 -0.1963 -0.0353
 1039SOL     OW 4200   1.326   0.370   1.842 -0.4722 -0.5777  0.1904
 1039SOL    HW2 4201   1.323   0.280   1.874 -0.4627 -0.2454  1.1427
 1039SOL    HW3 4202   1.342   0.361   1.748 -0.5420 -1.5704  0.2636
 1039SOL    MW4 4203   1.328   0.357   1.834 -0.4802 -0.6649  0.3258
 1040SOL     OW 4204   1.525   0.512   1.967  0.2543  0.1581  0.1940
 1040SOL    HW2 4205   1.605   0.469   1.937  0.1948 -0.2175  0.5661
 1040SOL    HW3 4206   1.455   0.469   1.918  0.3210  0.8375 -0.5086
 1040SOL    MW4 4207   1.527   0.500   1.957  0.2552  0.1982  0.1503
 1041SOL     OW 4208   1.550   0.778   1.840  0.0275 -0.3237  0.0082
 1041SOL    HW2 4209   1.623   0.832   1.870 -0.1623 -0.1839  0.2295
 1041SOL    HW3 4210   1.539   0.712   1.909 -0.2018 -0.2017  0.0885
 1041SOL    MW4 4211   1.558   0.777   1.853 -0.0280 -0.2893  0.0479
 1042SOL     OW 4212   1.311   0.896   1.924  0.2632  0.3945 -0.0377
 1042SOL    HW2 4213   1.316   0.882   2.019  0.6759  1.9812  0.1817
 1042SOL    HW3 4214   1.395   0.862   1.891  0.2986  0.2354  0.2089
 1042SOL    MW4 4215   1.323   0.890   1.933  0.3223  0.5829  0.0238
 1043SOL     OW 4216   1.328   1.150   1.817 -0.2244 -0.3432 -0.0751
 1043SOL    HW2 4217   1.312   1.061   1.848 -0.4299  0.6105  2.6611
 1043SOL    HW3 4218   1.256   1.201   1.854  0.8008  1.2596 -0.2405
 1043SOL    MW4 4219   1.316   1.145   1.826 -0.1162 -0.0061  0.2640
 1044SOL     OW 4220   1.542   1.275   1.922  0.0684  0.2629 -0.4073
 1044SOL    HW2 4221   1.573   1.352   1.875 -0.4011  0.1104 -0.9795
 1044SOL    HW3 4222   1.471   1.241   1.868 -1.0774  0.5838  0.8606
 1044SOL    MW4 4223   1.537   1.280   1.909 -0.1446  0.2850 -0.3154
 1045SOL     OW 4224   1.566   1.522   1.813  0.1832  0.2647  0.2343
 1045SOL    HW2 4225   1.641   1.575   1.841  0.5852  0.1158 -0.5385
 1045SOL    HW3 4226   1.494   1.551   1.868  1.0794 -0.4137  1.8075
 1045SOL    MW4 4227   1.567   1.533   1.824  0.3545  0.1554  0.3399
 1046SOL     OW 4228   1.344   1.672   1.931 -0.0120  0.0523  0.5925
 1046SOL    HW2 4229   1.350   1.683   2.026  2.3148 -2.7852  0.8555
 1046SOL    HW3 4230   1.276   1.605   1.919  1.3122 -1.2766  0.4239
 1046SOL    MW4 4231   1.336   1.665   1.942  0.4697 -0.4972  0.6051
 1047SOL     OW 4232   1.363   1.948   1.810  0.2293  0.2499 -0.1342
 1047SOL    HW2 4233   1.356   1.864   1.856 -0.1825  0.0722 -0.5118
 1047SOL    HW3 4234   1.279   1.991   1.828 -0.5053 -0.4139 -1.8585
 1047SOL    MW4 4235   1.351   1.942   1.819  0.0780  0.1389 -0.4115
 1048SOL     OW 4236   1.605   2.070   1.879  0.3169 -0.6423 -0.0535
 1048SOL    HW2 4237   1.593   2.163   1.897  1.1567 -0.5903  0.2566
 1048SOL    HW3 4238   1.519   2.041   1.846 -0.1808  0.0516  0.6094
 1048SOL    MW4 4239   1.592   2.078   1.877  0.3620 -0.5441  0.0750
 1049SOL     OW 4240   1.531   2.342   1.820  0.3037  0.8014  0.2419
 1049SOL    HW2 4241   1.609   2.393   1.839  1.6075 -0.8104 -0.6713
 1049SOL    HW3 4242   1.539   2.318   1.728 -0.6983 -0.3221  0.4260
 1049SOL    MW4 4243   1.542   2.346   1.811  0.3436  0.4406  0.1456
 1050SOL     OW 4244   1.322   2.494   1.911  0.0966 -0.7335 -0.0520
 1050SOL    HW2 4245   1.340   2.582   1.877 -0.9074 -0.9123 -1.0945
 1050SOL    HW3 4246   1.382   2.437   1.863  0.4070 -0.6784  0.2707
 1050SOL    MW4 4247   1.332   2.498   1.900  0.0050 -0.7498 -0.1470
 1051SOL     OW 4248   1.341   2.760   1.859  0.2412  0.3734 -0.2208
 1051SOL    HW2 4249   1.263   2.804   1.894 -0.4466  0.4001 -1.7617
 1051SOL    HW3 4250   1.321   2.746   1.767  1.9354  0.0717 -0.5484
 1051SOL    MW4 4251   1.328   2.764   1.852  0.3740  0.3371 -0.4673
 1052SOL     OW 4252   1.580   2.912   1.957 -0.0913  0.4740 -0.0372
 1052SOL    HW2 4253   1.658   2.866   1.926  0.5983  2.6149 -1.5680
 1052SOL    HW3 4254   1.507   2.859   1.924  0.6351 -2.7798  3.2773
 1052SOL    MW4 4255   1.580   2.899   1.948  0.0955  0.3271  0.1982
 1053SOL     OW 4256   1.596   3.153   1.848 -0.9742 -0.3251  0.2922
 1053SOL    HW2 4257   1.606   3.066   1.887  2.1351  0.2900  1.0601
 1053SOL    HW3 4258   1.626   3.143   1.758  1.0983  0.2706  0.8802
 1053SOL    MW4 4259   1.601   3.140   1.841 -0.2905 -0.1652  0.4710
 1054SOL     OW 4260   1.361   3.255   1.930  0.3363  0.1086  0.5877
 1054SOL    HW2 4261   1.435   3.214   1.886  0.9643  0.5364  1.2285
 1054SOL    HW3 4262   1.284   3.207   1.899  0.8604 -0.1929 -0.2471
 1054SOL    MW4 4263   1.360   3.243   1.920  0.4884  0.1254  0.5621
 1055SOL     OW 4264   1.345   3.531   1.833 -0.3108  0.0923 -0.1197
 1055SOL    HW2 4265   1.354   3.446   1.876  1.0378  0.5361  0.5251
 1055SOL    HW3 4266   1.263   3.566   1.867  0.4310  0.1693  1.7096
 1055SOL    MW4 4267   1.336   3.524   1.843 -0.0350  0.1612  0.2068
 1056SOL     OW 4268   1.556   3.670   1.933  0.2305  0.2452 -0.0641
 1056SOL    HW2 4269   1.560   3.647   2.026  0.4856 -0.0511 -0.1487
 1056SOL    HW3 4270   1.478   3.626   1.901  0.6841 -0.4618 -0.2118
 1056SOL    MW4 4271   1.546   3.661   1.941  0.3239  0.1128 -0.0947
 1057SOL     OW 4272   1.615   3.932   1.854 -0.2549 -0.4705 -0.3341
 1057SOL    HW2 4273   1.693   3.956   1.904 -0.3364 -1.3222  0.2152
 1057SOL    HW3 4274   1.607   3.837   1.866  0.2945 -0.8729 -2.7630
 1057SOL    MW4 4275   1.624   3.922   1.862 -0.1931 -0.6359 -0.5820
 1058SOL     OW 4276   1.354   4.030   1.976  0.3389  0.3659 -0.2395
 1058SOL    HW2 4277   1.430   3.990   1.934 -0.3145 -0.3242 -0.7774
 1058SOL    HW3 4278   1.281   3.974   1.951 -0.9517  3.0403 -2.8150
 1058SOL    MW4 4279   1.354   4.018   1.967  0.0825  0.6275 -0.6502
 1059SOL     OW 4280   1.387   4.269   1.831  0.1788 -0.1500 -0.4652
 1059SOL    HW2 4281   1.378   4.186   1.878  1.5504  0.2054  0.4626
 1059SOL    HW3 4282   1.376   4.246   1.739 -0.5278 -1.1855 -0.1264
 1059SOL    MW4 4283   1.384   4.255   1.825  0.2667 -0.2398 -0.2980
 1060SOL     OW 4284   1.593   4.425   1.879 -0.0076 -0.2448 -0.0270
 1060SOL    HW2 4285   1.589   4.429   1.975  0.2047 -0.5106 -0.0053
 1060SOL    HW3 4286   1.522   4.365   1.856  0.1132 -0.3911 -0.0183
 1060SOL    MW4 4287   1.583   4.418   1.889  0.0362 -0.2985 -0.0230
 1061SOL     OW 4288   2.017   4.661   1.821  0.3119  0.4800 -0.0928
 1061SOL    HW2 4289   2.104   4.694   1.843  0.8293 -0.1457 -1.1824
 1061SOL    HW3 4290   2.011   4.577   1.868 -0.2344  1.1477  1.0630
 1061SOL    MW4 4291   2.028   4.654   1.830  0.3080  0.4855 -0.0840
 1062SOL     OW 4292   1.816   0.157   1.968  0.0847  0.0935 -0.0288
 1062SOL    HW2 4293   1.818   0.148   2.063  0.1585  0.4930  0.0096
 1062SOL    HW3 4294   1.887   0.100   1.937 -0.8260 -1.1048  0.0615
 1062SOL    MW4 4295   1.826   0.149   1.976 -0.0257 -0.0119 -0.0119
 1063SOL     OW 4296   1.755   0.412   1.877 -0.0867  0.0553 -0.0658
 1063SOL    HW2 4297   1.785   0.333   1.921  1.1903  0.3079 -0.4705
 1063SOL    HW3 4298   1.775   0.397   1.784 -1.2305  0.2173 -0.3486
 1063SOL    MW4 4299   1.761   0.400   1.870 -0.0691  0.1100 -0.1566
 1064SOL     OW 4300   2.005   0.546   1.952 -0.2139  0.1045  0.3732
 1064SOL    HW2 4301   2.024   0.632   1.913 -2.7172  1.7222  2.5768
 1064SOL    HW3 4302   1.911   0.535   1.941 -0.1632 -1.6754  1.5163
 1064SOL    MW4 4303   1.995   0.556   1.945 -0.5376  0.0831  0.8149
 1065SOL     OW 4304   2.032   0.795   1.835 -0.0182  0.2736 -0.2831
 1065SOL    HW2 4305   2.098   0.861   1.853 -0.3788  0.8886 -1.1907
 1065SOL    HW3 4306   2.023   0.796   1.740  0.1227 -1.2246 -0.3270
 1065SOL    MW4 4307   2.040   0.804   1.825 -0.0472  0.1571 -0.4088
 1066SOL     OW 4308   1.791   0.871   1.969 -0.4784 -0.5314 -0.0935
 1066SOL    HW2 4309   1.878   0.836   1.951  0.0773  0.8486 -0.1851
 1066SOL    HW3 4310   1.780   0.862   2.063 -0.0872 -0.3967 -0.0342
 1066SOL    MW4 4311   1.801   0.866   1.979 -0.3536 -0.3316 -0.0978
 1067SOL     OW 4312   1.771   1.127   1.868 -0.0418 -0.0914 -0.1416
 1067SOL    HW2 4313   1.691   1.177   1.882  0.2337  0.7973 -1.6730
 1067SOL    HW3 4314   1.763   1.051   1.926 -1.8763  0.1035 -0.1395
 1067SOL    MW4 4315   1.760   1.124   1.878 -0.2474  0.0516 -0.3436
 1068SOL     OW 4316   1.969   1.278   1.933 -0.1354 -0.3333  0.1854
 1068SOL    HW2 4317   2.049   1.240   1.895  0.1574  0.6595 -0.2231
 1068SOL    HW3 4318   1.899   1.218   1.907  0.4111 -0.9609  0.1430
 1068SOL    MW4 4319   1.971   1.265   1.925 -0.0247 -0.2849  0.1258
 1069SOL     OW 4320   1.968   1.542   1.837  0.4842  0.0288 -0.0878
 1069SOL    HW2 4321   1.982   1.451   1.863  0.8195  0.1881  0.3090
 1069SOL    HW3 4322   1.966   1.540   1.741 -1.1019 -0.6151 -0.0611
 1069SOL    MW4 4323   1.970   1.530   1.828  0.3191 -0.0353 -0.0318
 1070SOL     OW 4324   1.749   1.698   1.908  0.3411 -0.5918  0.0783
 1070SOL    HW2 4325   1.748   1.780   1.858 -1.2887 -0.8602 -0.3726
 1070SOL    HW3 4326   1.836   1.662   1.895  1.7209  1.9658  1.7641
 1070SOL    MW4 4327   1.760   1.704   1.900  0.3082 -0.2898  0.2412
 1071SOL     OW 4328   1.831   1.942   1.776  0.3500  0.0869 -0.0181
 1071SOL    HW2 4329   1.751   1.990   1.795  0.2392 -0.1402  0.1000
 1071SOL    HW3 4330   1.841   1.946   1.681  0.1739  0.0768 -0.0363
 1071SOL    MW4 4331   1.822   1.949   1.766  0.3121  0.0557 -0.0050
 1072SOL     OW 4332   2.006   2.077   1.950 -0.1961 -0.3821  0.3877
 1072SOL    HW2 4333   2.093   2.044   1.928  0.1131 -0.7675  2.0929
 1072SOL    HW3 4334   1.949   2.041   1.882  1.2214  1.2842 -1.7327
 1072SOL    MW4 4335   2.010   2.068   1.938  0.0317 -0.2134  0.3328
 1073SOL     OW 4336   2.004   2.296   1.797  0.3967 -0.1076 -0.0829
 1073SOL    HW2 4337   2.004   2.220   1.855 -0.4422  0.3772  0.5715
 1073SOL    HW3 4338   2.090   2.336   1.811  0.7739 -0.8332 -0.2988
 1073SOL    MW4 4339   2.016   2.291   1.807  0.3359 -0.1395 -0.0250
 1074SOL     OW 4340   1.799   2.459   1.882 -0.2194  0.8729  0.1021
 1074SOL    HW2 4341   1.804   2.449   1.977  0.3317 -0.0203 -0.0106
 1074SOL    HW3 4342   1.872   2.407   1.849  0.6186  2.5675 -0.7365
 1074SOL    MW4 4343   1.809   2.451   1.890 -0.0361  0.9787 -0.0232
 1075SOL     OW 4344   1.753   2.719   1.830 -0.7031 -0.2690  0.1695
 1075SOL    HW2 4345   1.773   2.627   1.844  0.0725 -0.1363 -0.0460
 1075SOL    HW3 4346   1.759   2.731   1.735  1.3791  0.4951  0.3846
 1075SOL    MW4 4347   1.756   2.709   1.819 -0.3262 -0.1507  0.1695
 1076SOL     OW 4348   2.002   2.834   1.923 -0.0197  0.4405 -0.6978
 1076SOL    HW2 4349   2.009   2.835   2.019 -1.9731  2.9736 -0.5131
 1076SOL    HW3 4350   1.920   2.788   1.906  0.4720 -0.2548 -1.1677
 1076SOL    MW4 4351   1.992   2.828   1.934 -0.2124  0.6831 -0.7354
 1077SOL     OW 4352   2.007   3.090   1.807  0.8389 -0.0242  0.2788
 1077SOL    HW2 4353   1.935   3.144   1.841  1.4373  0.9123  0.0783
 1077SOL    HW3 4354   2.004   3.010   1.859 -2.4607 -1.4348 -1.9285
 1077SOL    MW4 4355   1.997   3.087   1.819  0.4824 -0.0868 -0.0389
 1078SOL     OW 4356   1.815   3.272   1.941 -0.1068  0.1787 -0.3880
 1078SOL    HW2 4357   1.814   3.260   2.036 -0.3136  2.1616 -0.1211
 1078SOL    HW3 4358   1.730   3.238   1.912  0.1477 -0.8743  0.0537
 1078SOL    MW4 4359   1.804   3.266   1.950 -0.1005  0.3014 -0.2946
 1079SOL     OW 4360   1.783   3.543   1.868  0.1467  0.1518 -0.4459
 1079SOL    HW2 4361   1.692   3.571   1.876  0.0821 -0.0266 -0.5404
 1079SOL    HW3 4362   1.785   3.456   1.908  0.5340  0.6531  0.6345
 1079SOL    MW4 4363   1.771   3.535   1.874  0.1892  0.1941 -0.3158
 1080SOL     OW 4364   2.019   3.618   1.983  0.3999 -0.7695  0.3293
 1080SOL    HW2 4365   2.041   3.705   1.949  1.6840 -1.1552  0.1456
 1080SOL    HW3 4366   1.930   3.602   1.951  0.2701  0.3450  0.1057
 1080SOL    MW4 4367   2.010   3.627   1.974  0.5524 -0.6735  0.2755
 1081SOL     OW 4368   2.077   3.880   1.894 -0.4595 -0.3072 -0.1593
 1081SOL    HW2 4369   2.152   3.924   1.935 -1.4618 -0.7838  2.2996
 1081SOL    HW3 4370   2.084   3.903   1.801  1.0458  2.0967  0.4870
 1081SOL    MW4 4371   2.088   3.889   1.887 -0.3932 -0.0529  0.2503
 1082SOL     OW 4372   1.857   4.024   1.987 -0.0010 -0.0169  0.1741
 1082SOL    HW2 4373   1.839   4.091   1.922 -0.4327 -0.5917 -0.3001
 1082SOL    HW3 4374   1.935   3.979   1.955 -0.9885 -1.1647 -0.6295
 1082SOL    MW4 4375   1.865   4.027   1.975 -0.1882 -0.2446  0.0055
 1083SOL     OW 4376   1.820   4.265   1.840  0.1540  0.2204 -0.4713
 1083SOL    HW2 4377   1.746   4.318   1.867  0.3246 -0.3805  1.2613
 1083SOL    HW3 4378   1.812   4.258   1.745 -1.6445  0.6840 -0.3623
 1083SOL    MW4 4379   1.809   4.271   1.831 -0.0609  0.2022 -0.2283
 1084SOL     OW 4380   2.034   4.409   1.919  0.7161 -0.2501  0.6098
 1084SOL    HW2 4381   2.102   4.353   1.880 -0.5061 -1.0358 -0.4451
 1084SOL    HW3 4382   1.953   4.358   1.911 -0.4992  1.7615 -0.6702
 1084SOL    MW4 4383   2.032   4.395   1.912  0.3943 -0.0887  0.3017
 1085SOL     OW 4384   2.502   4.645   1.820 -0.3650 -0.2782 -0.0116
 1085SOL    HW2 4385   2.590   4.674   1.844 -0.4736 -0.2043  0.3080
 1085SOL    HW3 4386   2.488   4.567   1.874 -0.4744 -0.3204 -0.1005
 1085SOL    MW4 4387   2.512   4.638   1.831 -0.3939 -0.2742  0.0188
 1086SOL     OW 4388   2.262   0.085   1.910 -0.2563 -0.0442 -0.1265
 1086SOL    HW2 4389   2.271   0.108   2.002 -0.1100  0.3957 -0.2521
 1086SOL    HW3 4390   2.346   0.042   1.889  0.8068  2.2889 -0.7718
 1086SOL    MW4 4391   2.275   0.082   1.920 -0.0968  0.3217 -0.2284
 1087SOL     OW 4392   2.216   0.367   1.819  0.1314  0.0550  0.5262
 1087SOL    HW2 4393   2.215   0.274   1.840 -1.4204  0.0801  0.5855
 1087SOL    HW3 4394   2.151   0.406   1.878  0.0027  1.0138 -0.2396
 1087SOL    MW4 4395   2.207   0.360   1.830 -0.0901  0.1848  0.4328
 1088SOL     OW 4396   2.440   0.508   1.941  0.3024  0.6408  0.0523
 1088SOL    HW2 4397   2.514   0.459   1.905 -1.3745 -1.9032 -0.0728
 1088SOL    HW3 4398   2.364   0.474   1.894 -1.0073  2.9942  0.3867
 1088SOL    MW4 4399   2.440   0.497   1.930 -0.0918  0.6156  0.0800
 1089SOL     OW 4400   2.482   0.787   1.887  0.2583  0.1202 -0.1328
 1089SOL    HW2 4401   2.455   0.697   1.904 -2.2903  0.7505 -0.5588
 1089SOL    HW3 4402   2.491   0.792   1.791  1.2032  0.1015 -0.0451
 1089SOL    MW4 4403   2.479   0.776   1.876  0.0467  0.2009 -0.1774
 1090SOL     OW 4404   2.254   0.939   1.944  0.6384  0.0314 -0.1219
 1090SOL    HW2 4405   2.235   0.925   2.036  2.4252  1.0943  0.4268
 1090SOL    HW3 4406   2.337   0.893   1.929  0.0123 -0.7289 -1.3765
 1090SOL    MW4 4407   2.263   0.931   1.954  0.7918  0.0713 -0.2151
 1091SOL     OW 4408   2.208   1.186   1.837 -0.3359  0.4839  0.1739
 1091SOL    HW2 4409   2.278   1.242   1.870 -0.8054  0.6540  0.8905
 1091SOL    HW3 4410   2.225   1.101   1.876 -1.2319  0.8319  1.3551
 1091SOL    MW4 4411   2.220   1.182   1.846 -0.5159  0.5523  0.4243
 1092SOL     OW 4412   2.445   1.340   1.917  0.0148  0.0953 -0.1312
 1092SOL    HW2 4413   2.452   1.340   2.012  0.4990 -0.6386 -0.1659
 1092SOL    HW3 4414   2.446   1.433   1.893  0.3800  0.2685  0.5425
 1092SOL    MW4 4415   2.446   1.352   1.926  0.1268  0.0213 -0.0468
 1093SOL     OW 4416   2.467   1.603   1.836  0.1458  0.0321 -0.0739
 1093SOL    HW2 4417   2.377   1.637   1.838  0.7352  1.6292 -0.1213
 1093SOL    HW3 4418   2.483   1.587   1.743  0.3656  1.0273 -0.2169
 1093SOL    MW4 4419   2.457   1.605   1.824  0.2525  0.3742 -0.0992
 1094SOL     OW 4420   2.194   1.702   1.910 -0.1307 -0.2208  0.4648
 1094SOL    HW2 4421   2.209   1.690   2.003  0.2446 -1.3932  0.2594
 1094SOL    HW3 4422   2.119   1.647   1.890 -0.5637  0.4620  0.1809
 1094SOL    MW4 4423   2.186   1.693   1.919 -0.1383 -0.2854  0.4003
 1095SOL     OW 4424   2.233   1.963   1.835  0.1050 -0.4060 -0.2744
 1095SOL    HW2 4425   2.324   1.976   1.860 -0.2154  0.1883  0.6624
 1095SOL    HW3 4426   2.219   1.869   1.840  0.2029 -0.3558  1.3760
 1095SOL    MW4 4427   2.243   1.953   1.839  0.0761 -0.3209  0.0670
 1096SOL     OW 4428   2.514   2.046   1.912 -0.2985 -0.1520 -0.5392
 1096SOL    HW2 4429   2.604   2.028   1.885 -0.5204 -1.7228 -0.2561
 1096SOL    HW3 4430   2.492   2.128   1.867  1.1874  0.1218 -0.7974
 1096SOL    MW4 4431   2.523   2.055   1.902 -0.1321 -0.3231 -0.5360
 1097SOL     OW 4432   2.471   2.295   1.789 -0.1374  0.4941 -0.1359
 1097SOL    HW2 4433   2.542   2.350   1.822 -0.4768  0.5361  0.5294
 1097SOL    HW3 4434   2.392   2.346   1.804 -0.2421  0.8173 -1.6800
 1097SOL    MW4 4435   2.470   2.309   1.795 -0.1962  0.5424 -0.2519
 1098SOL     OW 4436   2.243   2.427   1.866 -0.0562  0.1301 -0.0933
 1098SOL    HW2 4437   2.259   2.433   1.961  1.4382 -0.8445 -0.2688
 1098SOL    HW3 4438   2.240   2.518   1.838  1.5934  0.4245  0.5828
 1098SOL    MW4 4439   2.245   2.440   1.875  0.3586  0.0405 -0.0272
 1099SOL     OW 4440   2.217   2.694   1.803 -0.6568  0.6859 -0.1392
 1099SOL    HW2 4441   2.137   2.737   1.835 -1.5157 -0.3230 -0.8932
 1099SOL    HW3 4442   2.218   2.714   1.709  0.7128  1.8264  0.0994
 1099SOL    MW4 4443   2.207   2.703   1.795 -0.5894  0.7033 -0.2072
 1100SOL     OW 4444   2.469   2.795   1.919 -0.4238 -0.8741  0.1650
 1100SOL    HW2 4445   2.455   2.886   1.894 -1.4201 -0.4403  2.1946
 1100SOL    HW3 4446   2.393   2.748   1.885 -0.6773 -0.6735  0.4565
 1100SOL    MW4 4447   2.457   2.800   1.911 -0.5887 -0.7904  0.4711
 1101SOL     OW 4448   2.455   3.064   1.844  0.0021 -0.3121 -0.4477
 1101SOL    HW2 4449   2.390   3.124   1.881 -2.8437 -1.8684 -2.6569
 1101SOL    HW3 4450   2.467   3.095   1.754  1.5890 -0.6464 -0.3519
 1101SOL    MW4 4451   2.448   3.076   1.837 -0.1638 -0.5615 -0.7266
 1102SOL     OW 4452   2.222   3.200   1.928 -0.1980  0.0768 -0.4632
 1102SOL    HW2 4453   2.209   3.206   2.023  0.9894 -0.1025 -0.2721
 1102SOL    HW3 4454   2.155   3.140   1.897 -0.0555 -0.5260  0.3948
 1102SOL    MW4 4455   2.212   3.193   1.936 -0.0226 -0.0265 -0.3248
 1103SOL     OW 4456   2.189   3.465   1.830 -0.5327  0.2359 -0.6504
 1103SOL    HW2 4457   2.189   3.384   1.880 -0.9828  0.3058 -0.5369
 1103SOL    HW3 4458   2.133   3.524   1.881  0.6424  0.9615 -0.1682
 1103SOL    MW4 4459   2.182   3.462   1.844 -0.4370  0.3409 -0.5717
 1104SOL     OW 4460   2.435   3.572   1.889 -0.0145 -0.1053  0.6166
 1104SOL    HW2 4461   2.424   3.572   1.984 -0.2455 -2.4790  0.6127
 1104SOL    HW3 4462   2.348   3.550   1.855 -0.2314  1.9233 -0.2171
 1104SOL    MW4 4463   2.422   3.569   1.897 -0.0737 -0.1507  0.5060
 1105SOL     OW 4464   2.507   3.861   1.822  0.4123 -0.2455 -0.4134
 1105SOL    HW2 4465   2.449   3.902   1.885  0.7277 -0.7608  0.2174
 1105SOL    HW3 4466   2.494   3.767   1.835  0.3371 -0.3515 -1.2459
 1105SOL    MW4 4467   2.498   3.854   1.832  0.4437 -0.3276 -0.4400
 1106SOL     OW 4468   2.314   3.997   1.979  0.2619  0.1621 -0.0887
 1106SOL    HW2 4469   2.309   4.032   2.068  1.4005 -1.4461  0.6234
 1106SOL    HW3 4470   2.319   4.075   1.923 -0.2187  1.1802  1.2596
 1106SOL    MW4 4471   2.314   4.012   1.983  0.3486  0.0844  0.1831
 1107SOL     OW 4472   2.263   4.256   1.823  0.4511 -0.6663 -0.4347
 1107SOL    HW2 4473   2.334   4.316   1.846 -0.6694  1.1807 -1.6997
 1107SOL    HW3 4474   2.266   4.250   1.728 -2.5514  1.3068 -0.7099
 1107SOL    MW4 4475   2.273   4.263   1.813 -0.0930 -0.1626 -0.6379
 1108SOL     OW 4476   2.492   4.376   1.923  0.3576 -0.6045 -0.5121
 1108SOL    HW2 4477   2.578   4.344   1.898  1.3541  2.6324 -1.4196
 1108SOL    HW3 4478   2.497   4.384   2.019  1.0656 -0.4616 -0.5560
 1108SOL    MW4 4479   2.504   4.373   1.933  0.5822 -0.1583 -0.6375
 1109SOL     OW 4480   2.938   4.629   1.794  0.0394 -0.5601  0.0471
 1109SOL    HW2 4481   3.019   4.665   1.829  0.3319 -1.0200 -0.1470
 1109SOL    HW3 4482   2.934   4.540   1.829 -0.5417 -0.4334  0.3107
 1109SOL    MW4 4483   2.948   4.622   1.803  0.0012 -0.6042  0.0561
 1110SOL     OW 4484   2.729   0.099   1.938  0.5495 -0.4886 -0.3713
 1110SOL    HW2 4485   2.740   0.098   2.033  1.1104 -0.4073 -0.4320
 1110SOL    HW3 4486   2.806   0.053   1.905 -0.7515 -2.4666 -0.6899
 1110SOL    MW4 4487   2.741   0.093   1.946  0.4520 -0.7388 -0.4213
 1111SOL     OW 4488   2.677   0.376   1.880 -0.0626  0.0902 -0.2048
 1111SOL    HW2 4489   2.738   0.424   1.937  0.4809 -1.1415  0.2695
 1111SOL    HW3 4490   2.699   0.284   1.894 -2.4538 -0.4126  0.4306
 1111SOL    MW4 4491   2.688   0.370   1.889 -0.3064 -0.1386 -0.0584
 1112SOL     OW 4492   2.916   0.511   1.952  0.1663 -0.1679 -0.2157
 1112SOL    HW2 4493   2.988   0.472   1.903 -2.0868 -1.0381 -2.9312
 1112SOL    HW3 4494   2.915   0.603   1.925  0.8232  0.0711  0.5481
 1112SOL    MW4 4495   2.925   0.518   1.942 -0.0443 -0.2512 -0.4731
 1113SOL     OW 4496   2.895   0.777   1.865  0.3117  0.2374 -0.5086
 1113SOL    HW2 4497   2.826   0.842   1.883  1.4374  1.1595  0.6019
 1113SOL    HW3 4498   2.972   0.812   1.910  0.9432 -1.8726  0.0760
 1113SOL    MW4 4499   2.896   0.790   1.873  0.5434  0.0808 -0.2848
 1114SOL     OW 4500   2.698   0.931   1.980  0.2417 -0.2865  0.1187
 1114SOL    HW2 4501   2.681   1.006   1.922  2.0667 -0.4654 -0.6678
 1114SOL    HW3 4502   2.621   0.875   1.968 -0.6601  0.9436 -0.0812
 1114SOL    MW4 4503   2.685   0.934   1.971  0.3638 -0.1478 -0.0116
 1115SOL     OW 4504   2.668   1.176   1.840 -0.0125 -0.3218 -0.4980
 1115SOL    HW2 4505   2.594   1.234   1.854 -0.4175 -0.6899 -1.1040
 1115SOL    HW3 4506   2.689   1.184   1.747  0.5959 -0.3533 -0.3708
 1115SOL    MW4 4507   2.661   1.184   1.830  0.0143 -0.3747 -0.5610
 1116SOL     OW 4508   2.901   1.281   1.953 -0.2029  0.5735  0.7322
 1116SOL    HW2 4509   2.895   1.371   1.920  2.0790  0.5183  0.0803
 1116SOL    HW3 4510   2.825   1.237   1.915 -1.0651  2.0924  0.6385
 1116SOL    MW4 4511   2.890   1.287   1.944 -0.0155  0.7666  0.6337
 1117SOL     OW 4512   2.901   1.526   1.838 -0.0219 -0.1031 -0.6151
 1117SOL    HW2 4513   2.977   1.575   1.870 -0.8750  1.9307 -1.6158
 1117SOL    HW3 4514   2.924   1.505   1.747 -0.7046  0.6529 -0.9672
 1117SOL    MW4 4515   2.914   1.530   1.830 -0.2246  0.2649 -0.7936
 1118SOL     OW 4516   2.695   1.707   1.951  0.3669  0.1018 -0.3140
 1118SOL    HW2 4517   2.764   1.648   1.918  0.9531 -0.3586  1.6731
 1118SOL    HW3 4518   2.614   1.670   1.916  0.9697 -0.2840 -1.3593
 1118SOL    MW4 4519   2.694   1.694   1.942  0.5236 -0.0098 -0.1898
 1119SOL     OW 4520   2.755   1.919   1.789 -0.0575 -0.0507 -0.1432
 1119SOL    HW2 4521   2.825   1.961   1.840  0.5451  0.7737 -1.6431
 1119SOL    HW3 4522   2.724   1.849   1.847  1.8712 -0.3159  0.6425
 1119SOL    MW4 4523   2.760   1.915   1.804  0.2763  0.0231 -0.2373
 1120SOL     OW 4524   2.910   2.114   1.934  0.0651  0.0893 -0.1095
 1120SOL    HW2 4525   2.998   2.081   1.922  0.6355  1.4156  0.2710
 1120SOL    HW3 4526   2.896   2.110   2.029  0.5212  1.8189  0.0517
 1120SOL    MW4 4527   2.920   2.109   1.945  0.2007  0.4923 -0.0380
 1121SOL     OW 4528   2.934   2.358   1.803 -0.0674  0.0811 -0.4404
 1121SOL    HW2 4529   3.010   2.388   1.852  0.1329  0.7491 -1.1473
 1121SOL    HW3 4530   2.908   2.277   1.845  0.4964  0.3182  0.3641
 1121SOL    MW4 4531   2.940   2.351   1.815  0.0334  0.2007 -0.4275
 1122SOL     OW 4532   2.680   2.469   1.881  0.5037 -0.2670 -0.0104
 1122SOL    HW2 4533   2.679   2.561   1.855 -0.7374 -0.6156 -1.2284
 1122SOL    HW3 4534   2.758   2.433   1.837  0.6266  0.0442 -0.0496
 1122SOL    MW4 4535   2.690   2.477   1.872  0.3560 -0.2720 -0.1762
 1123SOL     OW 4536   2.711   2.735   1.785  0.0810  0.2900 -0.0179
 1123SOL    HW2 4537   2.628   2.760   1.826 -0.2318 -0.7655  0.0219
 1123SOL    HW3 4538   2.690   2.727   1.692  0.0091 -0.4827  0.0624
 1123SOL    MW4 4539   2.697   2.737   1.778  0.0300  0.0486 -0.0020
 1124SOL     OW 4540   2.917   2.835   1.926  0.3468 -0.1947 -0.0887
 1124SOL    HW2 4541   2.909   2.924   1.891  0.1089 -0.2641 -0.2093
 1124SOL    HW3 4542   2.848   2.786   1.882  0.3565 -0.3959  0.1218
 1124SOL    MW4 4543   2.907   2.840   1.915  0.3166 -0.2303 -0.0768
 1125SOL     OW 4544   2.927   3.106   1.822 -0.3730 -0.4048  0.2459
 1125SOL    HW2 4545   3.010   3.132   1.861 -0.0229  0.6295 -1.1631
 1125SOL    HW3 4546   2.862   3.162   1.864 -0.3458 -1.0675  1.1922
 1125SOL    MW4 4547   2.929   3.117   1.833 -0.3233 -0.3557  0.1849
 1126SOL     OW 4548   2.699   3.198   1.915  0.1392 -0.0906  0.1431
 1126SOL    HW2 4549   2.626   3.136   1.908  0.3049 -0.3967  1.1113
 1126SOL    HW3 4550   2.665   3.279   1.877 -0.1311 -0.7207 -0.9841
 1126SOL    MW4 4551   2.685   3.201   1.909  0.1252 -0.2139  0.1222
 1127SOL     OW 4552   2.650   3.436   1.784  0.2575  0.1302 -0.0316
 1127SOL    HW2 4553   2.723   3.483   1.823 -0.5683 -0.1187  1.8905
 1127SOL    HW3 4554   2.572   3.480   1.818 -0.5079 -1.0478 -0.2157
 1127SOL    MW4 4555   2.649   3.448   1.793  0.0477 -0.0582  0.1976
 1128SOL     OW 4556   2.867   3.565   1.905 -0.0939  0.0086  0.4484
 1128SOL    HW2 4557   2.867   3.584   1.999 -1.2718 -2.2109  0.9370
 1128SOL    HW3 4558   2.956   3.533   1.887  0.8603  2.6556  0.2909
 1128SOL    MW4 4559   2.879   3.563   1.915 -0.1233  0.0648  0.4921
 1129SOL     OW 4560   2.934   3.823   1.840 -0.5068  0.0430  0.7635
 1129SOL    HW2 4561   2.904   3.737   1.869 -0.3101  0.2366  1.5383
 1129SOL    HW3 4562   2.926   3.819   1.744 -1.6274 -0.4151  0.8589
 1129SOL    MW4 4563   2.929   3.811   1.831 -0.6287  0.0079  0.8782
 1130SOL     OW 4564   2.737   3.995   1.917 -0.1356 -0.0290 -0.1508
 1130SOL    HW2 4565   2.812   3.942   1.890 -0.1694  0.2986 -0.8848
 1130SOL    HW3 4566   2.660   3.942   1.895 -0.1309 -0.2767  0.4148
 1130SOL    MW4 4567   2.737   3.981   1.911 -0.1395 -0.0184 -0.1731
 1131SOL     OW 4568   2.720   4.267   1.834 -0.1058  0.3094  0.1916
 1131SOL    HW2 4569   2.738   4.178   1.862  0.5377  0.3018 -0.2520
 1131SOL    HW3 4570   2.718   4.264   1.739 -2.9188  0.2270  0.2031
 1131SOL    MW4 4571   2.722   4.255   1.825 -0.3922  0.2975  0.1347
 1132SOL     OW 4572   2.971   4.367   1.892  0.3502  0.0330  0.4575
 1132SOL    HW2 4573   2.956   4.383   1.985 -1.4135  1.0272  0.0148
 1132SOL    HW3 4574   2.893   4.322   1.862  2.1794 -3.0668  0.0725
 1132SOL    MW4 4575   2.959   4.364   1.901  0.3588 -0.2446  0.3483
 1133SOL     OW 4576   3.385   0.001   1.851  0.0729 -0.5804  0.6396
 1133SOL    HW2 4577   3.381  -0.088   1.887  0.6944 -1.1677 -0.7124
 1133SOL    HW3 4578   3.380  -0.011   1.756 -0.5744  0.8841  0.4761
 1133SOL    MW4 4579   3.384  -0.013   1.843  0.0694 -0.4646  0.4398
 1134SOL     OW 4580   3.147   0.123   1.921  0.3724  0.0845 -0.6477
 1134SOL    HW2 4581   3.164   0.118   2.016  2.1488  1.3510 -0.8691
 1134SOL    HW3 4582   3.224   0.083   1.881 -0.2783 -0.2468 -1.5614
 1134SOL    MW4 4583   3.160   0.117   1.929  0.5209  0.2079 -0.7975
 1135SOL     OW 4584   3.142   0.396   1.834 -0.1413 -0.2157 -0.1867
 1135SOL    HW2 4585   3.147   0.302   1.856  1.6538 -0.2228 -0.5637
 1135SOL    HW3 4586   3.147   0.398   1.739  2.7381  0.3948 -0.0670
 1135SOL    MW4 4587   3.143   0.384   1.825  0.4754 -0.1361 -0.2208
 1136SOL     OW 4588   3.366   0.515   1.955  0.2749 -0.2699  0.2500
 1136SOL    HW2 4589   3.443   0.482   1.910 -0.4845 -2.1907  0.3111
 1136SOL    HW3 4590   3.292   0.478   1.906 -0.6578  2.4020 -0.4694
 1136SOL    MW4 4591   3.366   0.506   1.942  0.0517 -0.1708  0.1630
 1137SOL     OW 4592   3.356   0.789   1.875 -0.2915 -0.1665  0.5520
 1137SOL    HW2 4593   3.276   0.838   1.897  0.1866  0.5379  0.7186
 1137SOL    HW3 4594   3.339   0.700   1.909 -0.5853  0.2496  1.5178
 1137SOL    MW4 4595   3.343   0.783   1.883 -0.2670 -0.0187  0.7014
 1138SOL     OW 4596   3.107   0.923   1.956 -0.2931 -0.4250  0.0223
 1138SOL    HW2 4597   3.129   0.935   2.049 -1.1583  0.5427  0.1204
 1138SOL    HW3 4598   3.132   1.006   1.916  0.2393 -0.9086 -0.6479
 1138SOL    MW4 4599   3.113   0.936   1.963 -0.3369 -0.3611 -0.0532
 1139SOL     OW 4600   3.126   1.161   1.844  0.2887 -0.1271  0.0530
 1139SOL    HW2 4601   3.201   1.215   1.869  0.5051 -0.3197 -0.1736
 1139SOL    HW3 4602   3.054   1.193   1.899  0.1524  1.0739 -0.8066
 1139SOL    MW4 4603   3.126   1.172   1.855  0.2990  0.0060 -0.0902
 1140SOL     OW 4604   3.376   1.283   1.926  0.1553 -0.0806 -0.2575
 1140SOL    HW2 4605   3.361   1.277   2.021 -0.6492 -1.7854 -0.4737
 1140SOL    HW3 4606   3.404   1.374   1.912  1.0680 -0.0194  1.7179
 1140SOL    MW4 4607   3.378   1.294   1.937  0.1693 -0.2974 -0.0254
 1141SOL     OW 4608   3.385   1.556   1.877 -0.2903  0.8213 -0.1464
 1141SOL    HW2 4609   3.461   1.588   1.925 -1.0773  1.0848  0.9490
 1141SOL    HW3 4610   3.310   1.589   1.926 -1.1241  1.1769 -1.6219
 1141SOL    MW4 4611   3.385   1.564   1.890 -0.5043  0.9029 -0.1965
 1142SOL     OW 4612   3.120   1.675   1.947 -0.2494 -0.2452 -0.1370
 1142SOL    HW2 4613   3.125   1.683   2.042 -0.3915 -0.0714 -0.1435
 1142SOL    HW3 4614   3.112   1.765   1.916  1.8400 -0.1338 -0.4407
 1142SOL    MW4 4615   3.120   1.688   1.955  0.0074 -0.2075 -0.1781
 1143SOL     OW 4616   3.143   1.948   1.855  0.7959 -0.0923  0.3875
 1143SOL    HW2 4617   3.227   1.973   1.895  1.7476 -2.3816 -0.0977
 1143SOL    HW3 4618   3.162   1.942   1.762  0.3858 -1.6680  0.3912
 1143SOL    MW4 4619   3.157   1.951   1.848  0.8674 -0.6022  0.3240
 1144SOL     OW 4620   3.368   2.058   1.987  0.0046 -0.4342 -0.2573
 1144SOL    HW2 4621   3.443   2.010   1.953 -0.3466 -1.0434 -0.1869
 1144SOL    HW3 4622   3.373   2.144   1.945 -0.8212 -1.4183 -2.4487
 1144SOL    MW4 4623   3.378   2.063   1.977 -0.1504 -0.6442 -0.5373
 1145SOL     OW 4624   3.388   2.314   1.852  0.0179 -0.4374 -0.2460
 1145SOL    HW2 4625   3.313   2.369   1.873 -0.6070 -1.7667  1.0755
 1145SOL    HW3 4626   3.377   2.293   1.759  0.3711  1.7869 -0.8244
 1145SOL    MW4 4627   3.377   2.319   1.842 -0.0181 -0.3195 -0.1479
 1146SOL     OW 4628   3.158   2.464   1.925 -0.5643  0.2045  0.2995
 1146SOL    HW2 4629   3.183   2.471   2.017  0.0509 -0.9371  0.2226
 1146SOL    HW3 4630   3.173   2.552   1.890 -0.5378  0.5734  1.2164
 1146SOL    MW4 4631   3.163   2.476   1.932 -0.4797  0.1025  0.4104
 1147SOL     OW 4632   3.163   2.728   1.841 -0.0382  0.1307 -0.4623
 1147SOL    HW2 4633   3.074   2.755   1.859 -0.6626 -2.2796  0.2269
 1147SOL    HW3 4634   3.166   2.718   1.745 -0.9649 -1.2470 -0.3604
 1147SOL    MW4 4635   3.152   2.730   1.831 -0.2427 -0.3688 -0.3580
 1148SOL     OW 4636   3.395   2.858   1.908  0.0593  0.1305 -0.0400
 1148SOL    HW2 4637   3.391   2.852   2.004  0.7923 -0.5209 -0.0416
 1148SOL    HW3 4638   3.309   2.826   1.879 -0.4694  1.0978  0.4187
 1148SOL    MW4 4639   3.383   2.853   1.917  0.0861  0.1721  0.0203
 1149SOL     OW 4640   3.357   3.114   1.791  0.7705  0.6702  0.1718
 1149SOL    HW2 4641   3.430   3.160   1.831  1.0880 -0.9641  1.5439
 1149SOL    HW3 4642   3.365   3.024   1.822 -1.2805  0.2487 -0.4062
 1149SOL    MW4 4643   3.368   3.108   1.800  0.5417  0.3991  0.2767
 1150SOL     OW 4644   3.146   3.242   1.921  0.2983  0.1050 -0.0296
 1150SOL    HW2 4645   3.141   3.331   1.886 -1.0144  0.1574  0.2539
 1150SOL    HW3 4646   3.216   3.201   1.871  1.9494  1.7453  0.8776
 1150SOL    MW4 4647   3.155   3.249   1.910  0.3431  0.3283  0.1274
 1151SOL     OW 4648   3.112   3.488   1.796 -0.1993 -0.6113 -0.0137
 1151SOL    HW2 4649   3.189   3.534   1.829 -0.8962  1.0447 -0.6083
 1151SOL    HW3 4650   3.141   3.449   1.714 -0.3835  1.3902 -1.0831
 1151SOL    MW4 4651   3.126   3.489   1.790 -0.3157 -0.1287 -0.2333
 1152SOL     OW 4652   3.356   3.582   1.906  0.6106 -0.5332 -0.0549
 1152SOL    HW2 4653   3.435   3.546   1.863  0.8933  0.2158 -0.1719
 1152SOL    HW3 4654   3.365   3.676   1.896 -0.7410 -0.4672 -0.8436
 1152SOL    MW4 4655   3.368   3.589   1.899  0.4694 -0.4253 -0.1745
 1153SOL     OW 4656   3.377   3.866   1.857 -0.1682 -0.3107 -0.0601
 1153SOL    HW2 4657   3.295   3.911   1.876  0.5059  0.7879  0.3042
 1153SOL    HW3 4658   3.387   3.872   1.762  0.1443  0.7037  0.0371
 1153SOL    MW4 4659   3.367   3.873   1.847 -0.0379 -0.0319  0.0008
 1154SOL     OW 4660   3.150   3.981   1.941 -0.0200  0.0217 -0.2806
 1154SOL    HW2 4661   3.154   3.976   2.037  0.6030  0.2093 -0.2926
 1154SOL    HW3 4662   3.068   3.936   1.918  0.2193 -0.7190  0.2834
 1154SOL    MW4 4663   3.140   3.974   1.951  0.0937 -0.0513 -0.2078
 1155SOL     OW 4664   3.188   4.219   1.802  0.0209 -0.2020 -0.2849
 1155SOL    HW2 4665   3.188   4.139   1.855 -3.8925 -1.1105 -1.4631
 1155SOL    HW3 4666   3.111   4.268   1.831  0.9245  1.9338 -1.3352
 1155SOL    MW4 4667   3.177   4.215   1.813 -0.3762 -0.0405 -0.5789
 1156SOL     OW 4668   3.362   4.397   1.919 -0.2557 -0.1025 -0.1077
 1156SOL    HW2 4669   3.434   4.342   1.887 -1.2098 -0.4191 -1.8125
 1156SOL    HW3 4670   3.284   4.343   1.905 -1.0839  1.2286 -0.6976
 1156SOL    MW4 4671   3.361   4.382   1.913 -0.4911  0.0315 -0.4104
 1157SOL     OW 4672   3.816   0.009   1.832 -0.2939 -0.3259 -0.5731
 1157SOL    HW2 4673   3.823  -0.081   1.865  0.1708  0.0590  0.4135
 1157SOL    HW3 4674   3.735   0.043   1.870  0.0374 -0.0090 -0.1458
 1157SOL    MW4 4675   3.807   0.002   1.842 -0.1891 -0.2334 -0.3866
 1158SOL     OW 4676   3.598   0.144   1.939 -0.3275  0.0518 -0.3694
 1158SOL    HW2 4677   3.590   0.134   2.034  2.0258 -0.8297 -0.2318
 1158SOL    HW3 4678   3.514   0.115   1.904 -1.4727  1.0888  1.4825
 1158SOL    MW4 4679   3.586   0.139   1.947 -0.1681  0.0723 -0.1070
 1159SOL     OW 4680   3.604   0.419   1.849  0.3657 -0.6296  0.7260
 1159SOL    HW2 4681   3.623   0.398   1.757  0.4438 -0.5424  0.7224
 1159SOL    HW3 4682   3.605   0.335   1.894  2.1154 -0.4754  0.9854
 1159SOL    MW4 4683   3.606   0.405   1.843  0.6068 -0.5978  0.7597
 1160SOL     OW 4684   3.842   0.484   1.961 -0.3854  0.2290  0.4445
 1160SOL    HW2 4685   3.844   0.576   1.932 -0.0838 -0.0316 -0.3721
 1160SOL    HW3 4686   3.756   0.452   1.935 -0.0846 -0.0281 -0.2412
 1160SOL    MW4 4687   3.831   0.492   1.954 -0.3059  0.1608  0.2463
 1161SOL     OW 4688   3.860   0.757   1.882  0.4372  0.3563  0.2667
 1161SOL    HW2 4689   3.780   0.794   1.920 -0.7382 -1.8510  0.0395
 1161SOL    HW3 4690   3.843   0.756   1.788  1.4866  1.5702  0.0588
 1161SOL    MW4 4691   3.847   0.762   1.875  0.4208  0.2252  0.2092
 1162SOL     OW 4692   3.614   0.873   1.940  0.5181 -0.3493 -0.1603
 1162SOL    HW2 4693   3.628   0.957   1.896 -0.4803 -0.2788 -0.3556
 1162SOL    HW3 4694   3.531   0.842   1.905 -0.4157 -0.1881  1.8506
 1162SOL    MW4 4695   3.605   0.880   1.930  0.2635 -0.3187  0.0793
 1163SOL     OW 4696   3.596   1.141   1.850 -0.4687  0.0420  0.0732
 1163SOL    HW2 4697   3.516   1.187   1.876 -1.5849 -1.1839 -1.1064
 1163SOL    HW3 4698   3.598   1.147   1.755  1.5021  1.0926  0.1483
 1163SOL    MW4 4699   3.586   1.147   1.841 -0.3560  0.0188 -0.0724
 1164SOL     OW 4700   3.825   1.282   1.983  0.3689  0.5305 -0.0255
 1164SOL    HW2 4701   3.794   1.292   2.073 -2.3062 -0.4474 -0.7819
 1164SOL    HW3 4702   3.756   1.231   1.940  2.4099 -0.4494 -2.1993
 1164SOL    MW4 4703   3.812   1.277   1.989  0.2849  0.2723 -0.4121
 1165SOL     OW 4704   3.838   1.526   1.856 -0.2256 -0.1080 -0.3683
 1165SOL    HW2 4705   3.922   1.561   1.885 -0.0973 -0.2481 -0.5663
 1165SOL    HW3 4706   3.828   1.445   1.906 -1.3347  1.0688  1.3675
 1165SOL    MW4 4707   3.848   1.520   1.866 -0.3550  0.0287 -0.1653
 1166SOL     OW 4708   3.619   1.671   1.972  0.6283  0.1127  0.2306
 1166SOL    HW2 4709   3.599   1.750   1.922 -0.3857 -0.7174 -0.7102
 1166SOL    HW3 4710   3.708   1.648   1.947  0.2141 -0.1566 -1.0372
 1166SOL    MW4 4711   3.628   1.678   1.962  0.4396 -0.0323 -0.0608
 1167SOL     OW 4712   3.601   1.913   1.827 -0.0841  0.2897 -0.2185
 1167SOL    HW2 4713   3.693   1.931   1.850  0.1905 -1.5819  0.2056
 1167SOL    HW3 4714   3.597   1.927   1.733  0.6071  0.5263 -0.2163
 1167SOL    MW4 4715   3.613   1.917   1.818  0.0434  0.0740 -0.1621
 1168SOL     OW 4716   3.845   2.057   1.937 -0.0004 -0.8888  0.3152
 1168SOL    HW2 4717   3.922   2.006   1.912  0.1109 -1.0324  0.9399
 1168SOL    HW3 4718   3.859   2.143   1.896  1.0155 -0.5650  1.3010
 1168SOL    MW4 4719   3.857   2.062   1.928  0.1488 -0.8647  0.5277
 1169SOL     OW 4720   3.872   2.323   1.831  0.0148 -0.3452  0.2698
 1169SOL    HW2 4721   3.938   2.384   1.863 -0.3783  0.2967 -0.1364
 1169SOL    HW3 4722   3.788   2.368   1.846 -0.4023 -1.5897  1.7572
 1169SOL    MW4 4723   3.869   2.337   1.837 -0.0923 -0.4249  0.4126
 1170SOL     OW 4724   3.619   2.424   1.912 -0.3703  0.5913  0.0617
 1170SOL    HW2 4725   3.625   2.515   1.881  0.9864  0.7091  0.6320
 1170SOL    HW3 4726   3.544   2.388   1.866  0.1473  1.4905 -1.5354
 1170SOL    MW4 4727   3.610   2.431   1.902 -0.1233  0.7253 -0.0737
 1171SOL     OW 4728   3.606   2.685   1.830 -0.7096 -0.2442  0.5859
 1171SOL    HW2 4729   3.684   2.734   1.855 -0.5100  0.4107 -1.2193
 1171SOL    HW3 4730   3.533   2.742   1.854 -0.5205  0.3606 -0.2284
 1171SOL    MW4 4731   3.607   2.699   1.836 -0.6583 -0.0780  0.2404
 1172SOL     OW 4732   3.825   2.835   1.927  0.0338 -0.3499 -0.2273
 1172SOL    HW2 4733   3.835   2.842   2.022  0.6820  0.5789 -0.3561
 1172SOL    HW3 4734   3.830   2.926   1.896 -1.9348 -0.4864 -0.9832
 1172SOL    MW4 4735   3.827   2.848   1.935 -0.1404 -0.2451 -0.3442
 1173SOL     OW 4736   3.846   3.109   1.848 -0.0360 -0.3016  0.1758
 1173SOL    HW2 4737   3.766   3.129   1.896  0.0294  1.8294 -0.5565
 1173SOL    HW3 4738   3.823   3.123   1.756  2.0492  3.6661  0.1600
 1173SOL    MW4 4739   3.832   3.113   1.842  0.2477  0.5031  0.0772
 1174SOL     OW 4740   3.575   3.216   1.922 -0.3057 -0.5533 -0.5327
 1174SOL    HW2 4741   3.588   3.213   2.016  0.2429 -1.8940 -0.6469
 1174SOL    HW3 4742   3.588   3.308   1.899 -2.5763  0.2066  0.9938
 1174SOL    MW4 4743   3.578   3.228   1.931 -0.5329 -0.6301 -0.3463
 1175SOL     OW 4744   3.604   3.473   1.836 -0.1950 -0.3546  0.0678
 1175SOL    HW2 4745   3.673   3.522   1.881  0.7537 -1.6878  0.0510
 1175SOL    HW3 4746   3.610   3.501   1.745  1.4573 -1.7779 -0.2629
 1175SOL    MW4 4747   3.614   3.483   1.830  0.1481 -0.7184  0.0219
 1176SOL     OW 4748   3.810   3.598   1.962  0.2860 -0.2879  0.1097
 1176SOL    HW2 4749   3.884   3.568   1.910  0.1870 -0.1470 -0.1141
 1176SOL    HW3 4750   3.795   3.688   1.934 -0.3881 -0.5289 -0.3249
 1176SOL    MW4 4751   3.817   3.606   1.951  0.1841 -0.3009  0.0229
 1177SOL     OW 4752   3.785   3.865   1.885 -0.2858  0.6168 -0.4529
 1177SOL    HW2 4753   3.715   3.929   1.901 -1.5889 -0.6121 -1.0705
 1177SOL    HW3 4754   3.791   3.860   1.789 -1.9452 -1.9822 -0.4725
 1177SOL    MW4 4755   3.776   3.873   1.874 -0.6764  0.1116 -0.5369
 1178SOL     OW 4756   3.584   4.036   1.954 -0.0355 -0.4546  0.2544
 1178SOL    HW2 4757   3.597   4.019   2.048  0.8327 -0.6653  0.1048
 1178SOL    HW3 4758   3.516   3.975   1.928 -0.5080 -0.1706  0.8213
 1178SOL    MW4 4759   3.577   4.026   1.963  0.0169 -0.4444  0.3093
 1179SOL     OW 4760   3.599   4.274   1.827 -0.1718 -0.1510 -0.0930
 1179SOL    HW2 4761   3.680   4.313   1.861 -0.8555  1.4675 -0.2881
 1179SOL    HW3 4762   3.589   4.193   1.877  1.4236 -0.2317  0.1326
 1179SOL    MW4 4763   3.608   4.269   1.838 -0.0515  0.0520 -0.0889
 1180SOL     OW 4764   3.819   4.418   1.957  0.2854  0.1938  0.0527
 1180SOL    HW2 4765   3.822   4.417   2.052  0.5478  0.2212  0.0463
 1180SOL    HW3 4766   3.886   4.354   1.930  1.6741  1.7070 -0.1391
 1180SOL    MW4 4767   3.828   4.409   1.966  0.5033  0.3972  0.0266
 1181SOL     OW 4768   4.311   4.641   1.883  0.4895 -0.0683 -0.5237
 1181SOL    HW2 4769   4.233   4.686   1.918  0.1728 -1.9082  1.2209
 1181SOL    HW3 4770   4.385   4.687   1.924  0.1693 -1.0298  1.2050
 1181SOL    MW4 4771   4.310   4.653   1.893  0.4048 -0.4377 -0.0654
 1182SOL     OW 4772   4.046   0.131   1.963 -0.1918 -0.1010  0.7118
 1182SOL    HW2 4773   4.040   0.106   2.055 -1.0484  1.4582  1.0900
 1182SOL    HW3 4774   3.960   0.111   1.927 -0.4960  1.1715  0.7310
 1182SOL    MW4 4775   4.034   0.125   1.971 -0.3452  0.2726  0.7641
 1183SOL     OW 4776   4.067   0.370   1.810  0.0140  0.4299 -0.3649
 1183SOL    HW2 4777   4.071   0.284   1.851  0.1242  0.8581  0.5302
 1183SOL    HW3 4778   3.999   0.417   1.857  1.1769  1.4429  0.3450
 1183SOL    MW4 4779   4.059   0.365   1.821  0.1822  0.6200 -0.1531
 1184SOL     OW 4780   4.280   0.505   1.930 -0.2473  0.0799  0.0591
 1184SOL    HW2 4781   4.263   0.518   2.024 -0.2836  1.2087 -0.1007
 1184SOL    HW3 4782   4.199   0.467   1.896 -1.0750  1.7931  0.0566
 1184SOL    MW4 4783   4.267   0.501   1.938 -0.3610  0.4548  0.0378
 1185SOL     OW 4784   4.297   0.791   1.825 -0.0265 -0.3595  0.4877
 1185SOL    HW2 4785   4.286   0.698   1.848 -1.7987 -0.6057 -1.1970
 1185SOL    HW3 4786   4.284   0.793   1.730  3.2971  1.1539  0.0100
 1185SOL    MW4 4787   4.294   0.779   1.816  0.1783 -0.1922  0.2024
 1186SOL     OW 4788   4.068   0.890   1.978  0.0536  0.1176  0.2584
 1186SOL    HW2 4789   4.142   0.861   1.923 -0.2036  0.2404 -0.1561
 1186SOL    HW3 4790   4.000   0.825   1.962  0.0742  0.0031  0.6434
 1186SOL    MW4 4791   4.069   0.878   1.968  0.0219  0.1187  0.2546
 1187SOL     OW 4792   4.020   1.131   1.869  0.4135  0.9945  0.2612
 1187SOL    HW2 4793   4.027   1.046   1.912 -0.3317  0.5472 -0.4800
 1187SOL    HW3 4794   3.953   1.178   1.919  0.2609  0.8467  0.1974
 1187SOL    MW4 4795   4.012   1.126   1.881  0.2947  0.9160  0.1551
 1188SOL     OW 4796   4.261   1.219   1.912  0.0871 -0.8550 -0.3134
 1188SOL    HW2 4797   4.251   1.233   2.006  0.6159 -1.8898 -0.0942
 1188SOL    HW3 4798   4.176   1.185   1.883 -0.3882  0.3635 -0.3989
 1188SOL    MW4 4799   4.248   1.217   1.920  0.0939 -0.8308 -0.2959
 1189SOL     OW 4800   4.278   1.478   1.840  0.3042 -0.7520  0.2595
 1189SOL    HW2 4801   4.270   1.383   1.854 -1.2299 -0.8086 -0.8383
 1189SOL    HW3 4802   4.284   1.487   1.745 -0.0179  0.2774  0.3370
 1189SOL    MW4 4803   4.278   1.466   1.829  0.0596 -0.6237  0.1249
 1190SOL     OW 4804   4.075   1.636   1.948  0.6294  0.1022  0.1406
 1190SOL    HW2 4805   4.080   1.620   2.042 -1.5952 -0.2639  0.2291
 1190SOL    HW3 4806   4.137   1.575   1.909  0.7092 -0.5559  1.2970
 1190SOL    MW4 4807   4.084   1.626   1.955  0.3467 -0.0329  0.3049
 1191SOL     OW 4808   4.076   1.902   1.843  0.1126  0.2131 -0.5205
 1191SOL    HW2 4809   4.086   1.817   1.887  1.5819  0.5005 -0.2666
 1191SOL    HW3 4810   4.072   1.880   1.750 -0.5245 -0.2066 -0.4008
 1191SOL    MW4 4811   4.077   1.888   1.836  0.2222  0.1957 -0.4712
 1192SOL     OW 4812   4.325   2.042   1.922 -0.0621 -0.3900 -0.0010
 1192SOL    HW2 4813   4.312   2.039   2.017 -0.0530  0.4572  0.0266
 1192SOL    HW3 4814   4.244   2.006   1.886 -0.2326 -0.3283  0.3154
 1192SOL    MW4 4815   4.313   2.037   1.930 -0.0834 -0.2701  0.0446
 1193SOL     OW 4816   4.280   2.295   1.836  0.1381  0.1667  0.0744
 1193SOL    HW2 4817   4.295   2.205   1.864  2.1271  0.9134  1.5376
 1193SOL    HW3 4818   4.363   2.340   1.853  0.1769  1.6057 -3.3631
 1193SOL    MW4 4819   4.293   2.289   1.842  0.4053  0.4549 -0.1861
 1194SOL     OW 4820   4.083   2.438   1.933  0.1445  0.2836 -0.2796
 1194SOL    HW2 4821   4.087   2.432   2.029  1.0550 -1.5298 -0.4210
 1194SOL    HW3 4822   4.154   2.381   1.902 -0.6844  0.1892 -2.0551
 1194SOL    MW4 4823   4.093   2.430   1.942  0.1554  0.0319 -0.5324
 1195SOL     OW 4824   4.025   2.684   1.806 -0.1663  0.3041 -0.4364
 1195SOL    HW2 4825   4.041   2.602   1.853 -0.4750  0.3559 -0.2380
 1195SOL    HW3 4826   3.947   2.720   1.848 -0.6490  0.1780 -1.2180
 1195SOL    MW4 4827   4.017   2.678   1.817 -0.2708  0.2942 -0.5133
 1196SOL     OW 4828   4.260   2.831   1.918  0.0968  0.4943  0.3365
 1196SOL    HW2 4829   4.264   2.819   2.013  0.4776  0.6337  0.3373
 1196SOL    HW3 4830   4.188   2.775   1.891  1.1576 -0.9675  0.4814
 1196SOL    MW4 4831   4.251   2.822   1.927  0.2875  0.3197  0.3557
 1197SOL     OW 4832   4.259   3.104   1.850  0.1264 -0.0742  0.1160
 1197SOL    HW2 4833   4.178   3.143   1.883  0.3034 -0.3104  0.8213
 1197SOL    HW3 4834   4.255   3.012   1.878  0.0074 -0.4200 -0.9932
 1197SOL    MW4 4835   4.248   3.097   1.858  0.1340 -0.1512  0.0626
 1198SOL     OW 4836   4.049   3.230   1.980  0.5985  0.1721 -0.0233
 1198SOL    HW2 4837   4.042   3.234   2.076  1.1609  1.3999 -0.0292
 1198SOL    HW3 4838   3.978   3.172   1.954  0.7395 -0.5716  1.1798
 1198SOL    MW4 4839   4.039   3.223   1.989  0.6909  0.2360  0.1347
 1199SOL     OW 4840   4.036   3.472   1.839  0.5939  0.5961 -0.5635
 1199SOL    HW2 4841   4.102   3.517   1.891  1.4960 -0.0566 -1.1266
 1199SOL    HW3 4842   4.017   3.391   1.888 -0.0683  0.9603 -0.2114
 1199SOL    MW4 4843   4.042   3.467   1.852  0.6261  0.5579 -0.5914
 1200SOL     OW 4844   4.254   3.571   2.000  0.2384  0.5078 -0.2049
 1200SOL    HW2 4845   4.245   3.650   1.946 -1.2335  0.2209 -0.3830
 1200SOL    HW3 4846   4.333   3.528   1.965 -0.2446  0.7212 -1.6206
 1200SOL    MW4 4847   4.264   3.576   1.988 -0.0196  0.4981 -0.4152
 1201SOL     OW 4848   4.245   3.802   1.859  0.5898 -0.5073  0.9438
 1201SOL    HW2 4849   4.258   3.808   1.764  0.6479  1.4840  1.0552
 1201SOL    HW3 4850   4.316   3.854   1.897 -1.7459  2.1157  1.9032
 1201SOL    MW4 4851   4.256   3.809   1.852  0.2894  0.1018  1.0852
 1202SOL     OW 4852   4.035   3.973   1.954 -0.3564  0.3473  0.6014
 1202SOL    HW2 4853   4.097   3.908   1.919  0.7455 -0.1538  3.3148
 1202SOL    HW3 4854   3.949   3.937   1.933  0.2460 -0.4174 -0.6558
 1202SOL    MW4 4855   4.032   3.959   1.947 -0.1316  0.1805  0.7936
 1203SOL     OW 4856   4.004   4.227   1.850  0.5425 -0.1959 -0.4845
 1203SOL    HW2 4857   4.082   4.274   1.878  0.2190  0.2130 -0.2672
 1203SOL    HW3 4858   4.026   4.135   1.862  1.0181 -0.0845 -0.4974
 1203SOL    MW4 4859   4.017   4.221   1.855  0.5627 -0.1273 -0.4575
 1204SOL     OW 4860   4.232   4.378   1.944  0.6457 -0.4327 -0.9506
 1204SOL    HW2 4861   4.225   4.387   2.039 -1.7168 -1.7338 -0.9498
 1204SOL    HW3 4862   4.249   4.467   1.912 -1.0325  0.4399  0.5238
 1204SOL    MW4 4863   4.233   4.391   1.952  0.1130 -0.4892 -0.7558
 1205SOL     OW 4864   0.199   0.003   2.352  0.0778  0.2189 -0.3387
 1205SOL    HW2 4865   0.220  -0.016   2.444  0.6995  0.6870 -0.3874
 1205SOL    HW3 4866   0.283   0.022   2.311 -0.1006 -0.8107 -1.2008
 1205SOL    MW4 4867   0.213   0.003   2.359  0.1363  0.1448 -0.4590
 1206SOL     OW 4868   4.471   0.147   2.263 -0.0085  0.0930 -0.0604
 1206SOL    HW2 4869   4.550   0.096   2.279 -0.3113 -0.2795  0.2528
 1206SOL    HW3 4870   4.470   0.162   2.169  0.1179 -0.4222 -0.1425
 1206SOL    MW4 4871   4.481   0.142   2.253 -0.0319 -0.0241 -0.0300
 1207SOL     OW 4872   4.456   0.400   2.350  0.2198 -0.2031 -0.0967
 1207SOL    HW2 4873   4.528   0.442   2.304 -1.0054 -0.4632 -2.3733
 1207SOL    HW3 4874   4.466   0.307   2.330 -1.7074 -0.0614 -1.9509
 1207SOL    MW4 4875   4.467   0.393   2.341 -0.1965 -0.2187 -0.6418
 1208SOL     OW 4876   0.193   0.477   2.217 -0.2668 -0.0966  0.2354
 1208SOL    HW2 4877   0.278   0.445   2.249 -0.6436 -0.9262  0.4127
 1208SOL    HW3 4878   0.192   0.453   2.124  1.3485  3.3897 -0.7851
 1208SOL    MW4 4879   0.204   0.470   2.209 -0.1034  0.2539  0.1242
 1209SOL     OW 4880   0.217   0.755   2.287 -0.3134 -0.1334 -0.1672
 1209SOL    HW2 4881   0.231   0.749   2.381  2.3805 -1.2671 -0.5831
 1209SOL    HW3 4882   0.220   0.665   2.256 -0.5545  0.2721 -1.4165
 1209SOL    MW4 4883   0.219   0.743   2.295  0.0102 -0.2295 -0.3870
 1210SOL     OW 4884   0.014   0.933   2.182 -0.3961 -0.2122 -0.1236
 1210SOL    HW2 4885   0.077   0.869   2.215  0.1497 -0.3568 -1.3999
 1210SOL    HW3 4886   0.007   0.914   2.088 -1.2984  0.6940 -0.2580
 1210SOL    MW4 4887   0.021   0.922   2.174 -0.4431 -0.1117 -0.3097
 1211SOL     OW 4888   4.453   1.179   2.301 -0.0570 -0.0698 -0.3791
 1211SOL    HW2 4889   4.449   1.176   2.397 -0.4072  0.8254 -0.3577
 1211SOL    HW3 4890   4.471   1.089   2.275  0.2950 -0.2773  0.5423
 1211SOL    MW4 4891   4.455   1.167   2.310 -0.0567  0.0209 -0.2549
 1212SOL     OW 4892   0.217   1.292   2.253  0.0468  0.0588  0.4278
 1212SOL    HW2 4893   0.137   1.242   2.270 -0.0748  0.0222 -0.2544
 1212SOL    HW3 4894   0.225   1.294   2.158 -0.4350  2.0995  0.4075
 1212SOL    MW4 4895   0.208   1.286   2.243 -0.0328  0.3232  0.3352
 1213SOL     OW 4896   0.223   1.556   2.336 -0.3818 -0.0702 -0.2137
 1213SOL    HW2 4897   0.234   1.556   2.431  0.2341  0.0714 -0.2848
 1213SOL    HW3 4898   0.229   1.464   2.311  0.7112  0.0076 -0.2562
 1213SOL    MW4 4899   0.225   1.544   2.345 -0.1563 -0.0414 -0.2291
 1214SOL     OW 4900   4.471   1.652   2.211 -0.3254 -0.2353  0.1586
 1214SOL    HW2 4901   4.460   1.738   2.251  0.0489 -0.1513  0.0835
 1214SOL    HW3 4902   4.542   1.611   2.261  0.3763  0.0013 -0.6366
 1214SOL    MW4 4903   4.479   1.658   2.223 -0.1831 -0.1930  0.0436
 1215SOL     OW 4904   0.006   1.906   2.333 -0.0340  0.4760 -0.1601
 1215SOL    HW2 4905  -0.049   1.969   2.286 -0.4481 -0.0212 -0.3448
 1215SOL    HW3 4906   0.095   1.935   2.317 -0.2148  0.8353 -0.5066
 1215SOL    MW4 4907   0.010   1.918   2.325 -0.1121  0.4579 -0.2301
 1216SOL     OW 4908   0.243   2.016   2.240  0.1126 -0.3341 -0.4050
 1216SOL    HW2 4909   0.333   1.993   2.263  0.2544  0.8698  0.2688
 1216SOL    HW3 4910   0.232   1.982   2.152  1.5764  0.4439 -0.9021
 1216SOL    MW4 4911   0.254   2.008   2.232  0.3244 -0.0727 -0.3817
 1217SOL     OW 4912   0.166   2.281   2.320  0.1819  0.1908 -0.6440
 1217SOL    HW2 4913   0.185   2.291   2.413 -0.9833 -0.8760 -0.2676
 1217SOL    HW3 4914   0.186   2.189   2.301  0.2009  0.3440 -1.4017
 1217SOL    MW4 4915   0.171   2.270   2.330  0.0307  0.0703 -0.6943
 1218SOL     OW 4916   4.439   2.415   2.201 -0.0694 -0.0937 -0.0969
 1218SOL    HW2 4917   4.442   2.495   2.254  0.0582  0.4331 -0.8828
 1218SOL    HW3 4918   4.518   2.367   2.224  0.6596  0.7668 -0.7711
 1218SOL    MW4 4919   4.450   2.419   2.211  0.0443  0.0894 -0.2897
 1219SOL     OW 4920   4.476   2.638   2.346 -0.5482 -0.5271  0.3820
 1219SOL    HW2 4921   4.475   2.666   2.438 -1.7258  1.0514 -0.0954
 1219SOL    HW3 4922   4.546   2.690   2.306 -0.0832 -1.1608  0.3742
 1219SOL    MW4 4923   4.485   2.649   2.353 -0.6428 -0.4022  0.3181
 1220SOL     OW 4924   0.176   2.804   2.224 -0.3372 -0.1653  0.1289
 1220SOL    HW2 4925   0.249   2.747   2.246  0.7150  1.0409 -0.1455
 1220SOL    HW3 4926   0.188   2.825   2.132 -1.4899 -0.6071 -0.1298
 1220SOL    MW4 4927   0.187   2.799   2.215 -0.3504 -0.0644  0.0587
 1221SOL     OW 4928   0.238   3.061   2.322  0.2643 -0.1494  0.4059
 1221SOL    HW2 4929   0.153   3.096   2.294  0.3242 -0.5670 -0.3319
 1221SOL    HW3 4930   0.242   2.974   2.282  0.3254 -0.8020  1.8252
 1221SOL    MW4 4931   0.227   3.054   2.313  0.2803 -0.2906  0.4954
 1222SOL     OW 4932   4.487   3.200   2.251  0.0628  0.1410 -0.4030
 1222SOL    HW2 4933   4.483   3.294   2.268 -0.2086  0.1245 -0.3836
 1222SOL    HW3 4934   4.488   3.193   2.155 -0.0191  0.1591 -0.4054
 1222SOL    MW4 4935   4.487   3.212   2.240  0.0162  0.1414 -0.4008
 1223SOL     OW 4936   0.013   3.450   2.351  0.0091 -0.0895  0.0381
 1223SOL    HW2 4937   0.016   3.446   2.447 -1.6824  0.4709  0.1316
 1223SOL    HW3 4938  -0.063   3.505   2.332  0.8475  0.5330 -1.6172
 1223SOL    MW4 4939   0.003   3.457   2.361 -0.1035  0.0668 -0.1681
 1224SOL     OW 4940   0.227   3.589   2.215  0.4138  0.2522 -0.1844
 1224SOL    HW2 4941   0.313   3.552   2.236  0.9798  0.2647 -2.3239
 1224SOL    HW3 4942   0.165   3.530   2.256  1.4418  0.7406  2.1650
 1224SOL    MW4 4943   0.230   3.576   2.223  0.6241  0.3185 -0.1566
 1225SOL     OW 4944   0.191   3.852   2.336 -0.1102  0.3254 -0.0941
 1225SOL    HW2 4945   0.105   3.883   2.309 -0.0739 -0.2910 -0.9566
 1225SOL    HW3 4946   0.203   3.771   2.287  0.5917 -0.0536  0.6877
 1225SOL    MW4 4947   0.181   3.845   2.326 -0.0128  0.1941 -0.1047
 1226SOL     OW 4948   4.448   3.985   2.239 -0.1670 -0.4509  0.2313
 1226SOL    HW2 4949   4.490   4.070   2.247 -0.1524 -0.5216  0.9128
 1226SOL    HW3 4950   4.423   3.979   2.146 -0.5135  0.4501  0.2674
 1226SOL    MW4 4951   4.450   3.995   2.227 -0.2108 -0.3414  0.3259
 1227SOL     OW 4952   0.022   4.241   2.310  0.1501 -0.0564  0.0389
 1227SOL    HW2 4953   0.005   4.238   2.404  1.1672 -1.9078  0.1999
 1227SOL    HW3 4954   0.086   4.311   2.299 -0.7205  0.8317  0.5847
 1227SOL    MW4 4955   0.028   4.250   2.321  0.1694 -0.1831  0.1321
 1228SOL     OW 4956   0.224   4.418   2.261  0.3672 -0.4171 -0.0606
 1228SOL    HW2 4957   0.300   4.381   2.307  1.1537 -0.0663 -1.0545
 1228SOL    HW3 4958   0.218   4.508   2.293  0.4107 -0.4278 -0.0230
 1228SOL    MW4 4959   0.234   4.425   2.271  0.4767 -0.3724 -0.1867
 1229SOL     OW 4960   0.665   4.638   2.325 -0.2703 -0.3437 -0.7324
 1229SOL    HW2 4961   0.673   4.616   2.418  1.9150 -2.8375 -1.4460
 1229SOL    HW3 4962   0.742   4.691   2.306 -1.8965  2.1229 -0.6486
 1229SOL    MW4 4963   0.676   4.642   2.335 -0.1966 -0.3467 -0.8156
 1230SOL     OW 4964   0.440   0.099   2.263 -0.2989  0.3001 -0.0223
 1230SOL    HW2 4965   0.519   0.053   2.290  1.6910  3.5438 -0.0607
 1230SOL    HW3 4966   0.447   0.107   2.168 -0.6638  0.6163 -0.0288
 1230SOL    MW4 4967   0.451   0.094   2.254 -0.0845  0.7698 -0.0279
 1231SOL     OW 4968   0.439   0.375   2.312 -0.4852  0.2120 -0.2956
 1231SOL    HW2 4969   0.431   0.386   2.407 -1.2476  0.4917 -0.3857
 1231SOL    HW3 4970   0.442   0.280   2.299  2.3857  0.1922  0.2029
 1231SOL    MW4 4971   0.438   0.364   2.323 -0.2070  0.2463 -0.2418
 1232SOL     OW 4972   0.653   0.505   2.199 -0.0121  0.0392  0.6677
 1232SOL    HW2 4973   0.648   0.597   2.226 -1.2651  0.4262 -0.8306
 1232SOL    HW3 4974   0.581   0.463   2.246 -0.7845  0.2577 -0.3230
 1232SOL    MW4 4975   0.643   0.512   2.209 -0.2793  0.1190  0.3395
 1233SOL     OW 4976   0.681   0.767   2.276 -0.1805  0.2768 -0.2105
 1233SOL    HW2 4977   0.683   0.758   2.372 -0.2634  1.3475 -0.1033
 1233SOL    HW3 4978   0.600   0.814   2.258 -0.8681 -1.1584 -0.9299
 1233SOL    MW4 4979   0.671   0.772   2.286 -0.2822  0.2287 -0.2913
 1234SOL     OW 4980   0.428   0.900   2.208 -0.0104  0.1398  0.1195
 1234SOL    HW2 4981   0.349   0.861   2.244 -0.2509  0.1618 -0.3752
 1234SOL    HW3 4982   0.421   0.886   2.113 -0.3577  1.8181 -0.1281
 1234SOL    MW4 4983   0.417   0.893   2.200 -0.0880  0.3642  0.0215
 1235SOL     OW 4984   0.457   1.145   2.332  0.1846 -0.2282  0.1252
 1235SOL    HW2 4985   0.442   1.061   2.288  0.6649 -0.2655  0.0303
 1235SOL    HW3 4986   0.379   1.196   2.313  0.1572 -0.4348 -0.3275
 1235SOL    MW4 4987   0.445   1.140   2.324  0.2443 -0.2604  0.0532
 1236SOL     OW 4988   0.695   1.246   2.232  0.4837  0.2052  0.0513
 1236SOL    HW2 4989   0.697   1.333   2.272 -0.2741  0.0610  0.4049
 1236SOL    HW3 4990   0.613   1.208   2.261  0.2470 -0.1729 -1.0909
 1236SOL    MW4 4991   0.685   1.253   2.241  0.3524  0.1363 -0.0527
 1237SOL     OW 4992   0.679   1.504   2.349 -0.5304 -0.2765 -0.4265
 1237SOL    HW2 4993   0.682   1.516   2.444 -1.1710  0.6284 -0.5100
 1237SOL    HW3 4994   0.754   1.554   2.317  0.2066 -1.3155 -0.3323
 1237SOL    MW4 4995   0.689   1.512   2.357 -0.5177 -0.2941 -0.4253
 1238SOL     OW 4996   0.468   1.628   2.226  0.3432  0.4091  0.4700
 1238SOL    HW2 4997   0.537   1.581   2.272  0.0080 -0.8542 -0.2798
 1238SOL    HW3 4998   0.387   1.600   2.270  0.1183  0.0455 -0.1648
 1238SOL    MW4 4999   0.466   1.618   2.238  0.2693  0.1944  0.2871
 1239SOL     OW 5000   0.465   1.897   2.336  0.0202 -0.1418  0.2989
 1239SOL    HW2 5001   0.531   1.960   2.306  0.6356 -0.0634  1.8008
 1239SOL    HW3 5002   0.484   1.818   2.284 -0.3978  0.7065 -1.1796
 1239SOL    MW4 5003   0.476   1.895   2.325  0.0462 -0.0196  0.3021
 1240SOL     OW 5004   0.666   2.054   2.218 -0.0039  0.2054 -0.2031
 1240SOL    HW2 5005   0.741   2.012   2.260 -0.4423 -2.0756 -1.5903
 1240SOL    HW3 5006   0.663   2.142   2.256  1.4587 -0.7191  2.1983
 1240SOL    MW4 5007   0.675   2.060   2.229  0.1312 -0.2174 -0.0694
 1241SOL     OW 5008   0.639   2.300   2.325  0.2739  0.1768  0.5886
 1241SOL    HW2 5009   0.659   2.297   2.419  1.3041 -1.9025  0.3351
 1241SOL    HW3 5010   0.711   2.350   2.287  0.9172 -0.6716  0.6726
 1241SOL    MW4 5011   0.651   2.306   2.333  0.4947 -0.2093  0.5665
 1242SOL     OW 5012   0.399   2.426   2.242  0.7015  0.2853 -0.0104
 1242SOL    HW2 5013   0.460   2.371   2.290  0.6366  0.6421  0.4827
 1242SOL    HW3 5014   0.314   2.386   2.256  0.9173 -0.6982 -1.3898
 1242SOL    MW4 5015   0.396   2.414   2.250  0.7214  0.2027 -0.1273
 1243SOL     OW 5016   0.417   2.686   2.328  0.0933  0.5169 -0.1388
 1243SOL    HW2 5017   0.446   2.702   2.418  1.2138 -1.2185 -0.1622
 1243SOL    HW3 5018   0.409   2.591   2.322 -0.2485  0.6326 -1.7857
 1243SOL    MW4 5019   0.420   2.676   2.339  0.1960  0.3033 -0.3591
 1244SOL     OW 5020   0.629   2.804   2.175  0.3455 -0.0845  0.2676
 1244SOL    HW2 5021   0.700   2.771   2.229  0.4533  1.1034  0.8557
 1244SOL    HW3 5022   0.552   2.754   2.204  0.9358 -1.4333 -0.4352
 1244SOL    MW4 5023   0.628   2.793   2.186  0.4376 -0.1059  0.2527
 1245SOL     OW 5024   0.685   3.046   2.321  0.4603 -0.3253 -0.1648
 1245SOL    HW2 5025   0.601   3.085   2.296  2.0577  2.8376 -0.8519
 1245SOL    HW3 5026   0.688   2.962   2.276 -1.9634 -0.1046 -0.7764
 1245SOL    MW4 5027   0.674   3.040   2.312  0.3513  0.1209 -0.3364
 1246SOL     OW 5028   0.477   3.207   2.208 -0.4176  0.0262 -0.1611
 1246SOL    HW2 5029   0.389   3.191   2.241 -0.4893  1.8744  0.5745
 1246SOL    HW3 5030   0.470   3.194   2.114 -1.7116  1.1182 -0.2272
 1246SOL    MW4 5031   0.465   3.203   2.200 -0.5978  0.4141 -0.0727
 1247SOL     OW 5032   0.474   3.470   2.311 -0.0439  0.3928  0.1707
 1247SOL    HW2 5033   0.540   3.520   2.262  2.1395 -0.3740  2.2417
 1247SOL    HW3 5034   0.481   3.382   2.275  0.6695  0.1222  0.9549
 1247SOL    MW4 5035   0.484   3.465   2.300  0.3383  0.2561  0.5474
 1248SOL     OW 5036   0.721   3.621   2.221  0.3055 -0.3900  0.1923
 1248SOL    HW2 5037   0.711   3.707   2.261  0.6667 -0.2246 -0.0694
 1248SOL    HW3 5038   0.714   3.637   2.127 -3.1924 -1.1367  0.2561
 1248SOL    MW4 5039   0.718   3.634   2.214 -0.1084 -0.4671  0.1662
 1249SOL     OW 5040   0.684   3.902   2.360 -0.3160  0.4890 -0.1154
 1249SOL    HW2 5041   0.669   3.878   2.451  0.6824 -1.7495 -0.5127
 1249SOL    HW3 5042   0.599   3.934   2.329 -1.1720 -0.6235  1.0463
 1249SOL    MW4 5043   0.671   3.903   2.368 -0.2972  0.0467 -0.0145
 1250SOL     OW 5044   0.433   3.978   2.266  0.3876  0.2605 -0.2837
 1250SOL    HW2 5045   0.351   3.933   2.284  0.7038  0.2283  1.1848
 1250SOL    HW3 5046   0.440   3.979   2.171 -1.5777  0.7559 -0.4406
 1250SOL    MW4 5047   0.423   3.972   2.256  0.1700  0.3214 -0.1101
 1251SOL     OW 5048   0.449   4.240   2.347  0.0100  0.1340 -0.1977
 1251SOL    HW2 5049   0.526   4.280   2.307  0.3917 -0.2019  0.1962
 1251SOL    HW3 5050   0.458   4.147   2.329  0.0445  0.0127  0.4266
 1251SOL    MW4 5051   0.461   4.233   2.340  0.0649  0.0739 -0.0634
 1252SOL     OW 5052   0.668   4.356   2.215  0.1299 -0.2080  0.1446
 1252SOL    HW2 5053   0.684   4.448   2.232  1.8178 -0.4350 -0.0998
 1252SOL    HW3 5054   0.649   4.352   2.121 -0.7165 -0.0241  0.3022
 1252SOL    MW4 5055   0.668   4.367   2.205  0.2410 -0.2136  0.1330
 1253SOL     OW 5056   1.097   4.636   2.303  0.4781  0.4342  0.0767
 1253SOL    HW2 5057   1.092   4.615   2.396  1.5672 -0.4420 -0.0571
 1253SOL    HW3 5058   1.034   4.707   2.291 -0.5242 -0.2439  1.2516
 1253SOL    MW4 5059   1.088   4.643   2.314  0.4895  0.2289  0.2143
 1254SOL     OW 5060   0.895   0.143   2.253 -0.2217  0.0257  0.0081
 1254SOL    HW2 5061   0.882   0.236   2.274  1.0355  0.3624 -0.6766
 1254SOL    HW3 5062   0.888   0.139   2.158 -0.1018 -0.5654  0.0257
 1254SOL    MW4 5063   0.892   0.155   2.243 -0.0400 -0.0079 -0.0799
 1255SOL     OW 5064   0.871   0.399   2.305  0.7612 -0.5477  0.3369
 1255SOL    HW2 5065   0.951   0.445   2.280  1.4818 -1.9235  0.0839
 1255SOL    HW3 5066   0.801   0.450   2.264  1.5542  0.2266 -0.0764
 1255SOL    MW4 5067   0.872   0.412   2.296  0.9609 -0.6270  0.2489
 1256SOL     OW 5068   1.123   0.493   2.245 -0.2312 -0.0538  0.2569
 1256SOL    HW2 5069   1.194   0.436   2.275  0.1188  0.6012  0.6932
 1256SOL    HW3 5070   1.141   0.507   2.152  0.5277  0.5526  0.4875
 1256SOL    MW4 5071   1.135   0.487   2.237 -0.0849  0.1127  0.3448
 1257SOL     OW 5072   1.129   0.772   2.353  0.0900 -0.5001 -0.4907
 1257SOL    HW2 5073   1.070   0.803   2.284  0.7357 -0.5729 -1.0768
 1257SOL    HW3 5074   1.122   0.676   2.350 -0.7041 -0.4797  0.2752
 1257SOL    MW4 5075   1.120   0.763   2.344  0.0705 -0.5071 -0.4671
 1258SOL     OW 5076   0.930   0.900   2.201  0.3393 -0.2832  0.4508
 1258SOL    HW2 5077   0.948   0.985   2.242 -1.2988  1.4644 -2.2734
 1258SOL    HW3 5078   0.841   0.878   2.229 -0.0613 -0.0038 -0.5616
 1258SOL    MW4 5079   0.921   0.908   2.210  0.0704 -0.0158 -0.0422
 1259SOL     OW 5080   0.961   1.151   2.308  0.9228  0.4202 -0.1130
 1259SOL    HW2 5081   1.027   1.215   2.284  1.5400 -1.1147 -2.7367
 1259SOL    HW3 5082   0.878   1.191   2.280  0.8127  1.7842  2.0103
 1259SOL    MW4 5083   0.959   1.165   2.301  0.9897  0.3978 -0.1793
 1260SOL     OW 5084   1.147   1.328   2.202 -0.0729 -0.4268 -0.1318
 1260SOL    HW2 5085   1.227   1.281   2.226  1.2127  1.6064 -0.2975
 1260SOL    HW3 5086   1.135   1.308   2.109 -0.5814 -1.8740  0.2276
 1260SOL    MW4 5087   1.156   1.319   2.193  0.0296 -0.3495 -0.1061
 1261SOL     OW 5088   1.110   1.559   2.348 -0.0561 -0.3612  0.0433
 1261SOL    HW2 5089   1.028   1.599   2.319  0.1621  0.0213 -0.0449
 1261SOL    HW3 5090   1.114   1.475   2.301 -0.6565 -0.6289  0.4565
 1261SOL    MW4 5091   1.100   1.553   2.338 -0.1066 -0.3458  0.0861
 1262SOL     OW 5092   0.889   1.678   2.249 -0.0559  0.2312  0.1836
 1262SOL    HW2 5093   0.899   1.767   2.281  0.5353 -0.0718  0.8647
 1262SOL    HW3 5094   0.913   1.682   2.156  1.1490  0.5592  0.4960
 1262SOL    MW4 5095   0.894   1.690   2.241  0.1810  0.2345  0.3150
 1263SOL     OW 5096   0.894   1.933   2.322  0.2167  0.0201 -0.0709
 1263SOL    HW2 5097   0.897   1.936   2.418 -0.4458  1.3219 -0.0796
 1263SOL    HW3 5098   0.965   1.991   2.294  0.1785 -0.0758 -0.3677
 1263SOL    MW4 5099   0.904   1.941   2.331  0.1242  0.1792 -0.1113
 1264SOL     OW 5100   1.104   2.062   2.208  0.6160 -0.6888 -0.1436
 1264SOL    HW2 5101   1.179   2.010   2.238  1.0007 -0.7615 -1.2113
 1264SOL    HW3 5102   1.111   2.061   2.112  0.5409  1.1938 -0.1888
 1264SOL    MW4 5103   1.115   2.055   2.199  0.6568 -0.4499 -0.2904
 1265SOL     OW 5104   1.119   2.331   2.306 -0.2617 -0.0167 -0.5436
 1265SOL    HW2 5105   1.178   2.386   2.254 -1.9600  1.4535 -0.9601
 1265SOL    HW3 5106   1.121   2.245   2.262  0.7419  0.3124 -1.1575
 1265SOL    MW4 5107   1.127   2.327   2.294 -0.3533  0.2208 -0.6795
 1266SOL     OW 5108   0.864   2.450   2.235 -0.2263 -0.4813  0.2594
 1266SOL    HW2 5109   0.935   2.390   2.256  0.3732 -0.2784 -1.1713
 1266SOL    HW3 5110   0.853   2.443   2.140  0.1983  2.0569 -0.0182
 1266SOL    MW4 5111   0.872   2.441   2.226 -0.0911 -0.1197  0.0341
 1267SOL     OW 5112   0.870   2.735   2.327  0.3505  0.1186 -0.1959
 1267SOL    HW2 5113   0.885   2.727   2.421  1.0912 -0.4821 -0.3575
 1267SOL    HW3 5114   0.867   2.644   2.296 -0.2514  0.3086 -0.6940
 1267SOL    MW4 5115   0.872   2.722   2.335  0.3688  0.0646 -0.2828
 1268SOL     OW 5116   1.114   2.876   2.282  0.0424 -0.1274  0.2836
 1268SOL    HW2 5117   1.180   2.812   2.310  1.2191  1.7116  1.8752
 1268SOL    HW3 5118   1.033   2.826   2.276  1.1281 -1.9638  0.5660
 1268SOL    MW4 5119   1.112   2.861   2.285  0.3409 -0.1271  0.5310
 1269SOL     OW 5120   1.159   3.147   2.315 -0.2996 -0.2363  0.1095
 1269SOL    HW2 5121   1.070   3.172   2.291 -0.2873 -0.9153 -0.6909
 1269SOL    HW3 5122   1.163   3.053   2.297  0.6904 -0.1351 -0.2326
 1269SOL    MW4 5123   1.148   3.138   2.309 -0.1673 -0.3126 -0.0412
 1270SOL     OW 5124   0.913   3.208   2.229 -0.4233 -0.4924 -0.6472
 1270SOL    HW2 5125   0.916   3.302   2.247 -0.2475 -0.2815 -1.7687
 1270SOL    HW3 5126   0.826   3.182   2.259 -0.5265  0.0553 -0.4518
 1270SOL    MW4 5127   0.902   3.217   2.235 -0.4137 -0.3922 -0.7696
 1271SOL     OW 5128   0.924   3.472   2.316  0.4946  0.0911 -0.2758
 1271SOL    HW2 5129   0.901   3.475   2.409 -2.3298 -1.7294 -0.8479
 1271SOL    HW3 5130   0.854   3.520   2.273  1.5228  0.4828 -1.5368
 1271SOL    MW4 5131   0.912   3.478   2.323  0.2576 -0.0973 -0.5176
 1272SOL     OW 5132   1.151   3.599   2.237  0.1004 -0.4721 -0.2052
 1272SOL    HW2 5133   1.222   3.562   2.289 -0.8369 -0.5457  1.0434
 1272SOL    HW3 5134   1.072   3.555   2.269 -0.4942 -0.5350 -1.7130
 1272SOL    MW4 5135   1.150   3.589   2.248 -0.1018 -0.4902 -0.2394
 1273SOL     OW 5136   1.155   3.880   2.297 -0.1017 -0.3347 -0.6740
 1273SOL    HW2 5137   1.240   3.920   2.284  0.4058 -1.5767 -1.2361
 1273SOL    HW3 5138   1.171   3.786   2.292 -1.5297 -0.5841 -0.9834
 1273SOL    MW4 5139   1.168   3.873   2.295 -0.2230 -0.5314 -0.7889
 1274SOL     OW 5140   0.917   4.022   2.235 -0.3792 -0.5168  0.1066
 1274SOL    HW2 5141   0.997   3.974   2.258  0.4176  0.8651  0.2450
 1274SOL    HW3 5142   0.847   3.962   2.260  0.5682 -0.8714  2.0498
 1274SOL    MW4 5143   0.919   4.007   2.242 -0.1491 -0.3810  0.3812
 1275SOL     OW 5144   0.867   4.242   2.373 -0.3433 -0.0195 -0.4331
 1275SOL    HW2 5145   0.873   4.160   2.324 -0.5109  0.0674 -0.6005
 1275SOL    HW3 5146   0.802   4.293   2.325  0.1172  0.4003 -0.6025
 1275SOL    MW4 5147   0.859   4.238   2.360 -0.3047  0.0472 -0.4776
 1276SOL     OW 5148   1.127   4.353   2.260  0.2265 -0.2066  0.2870
 1276SOL    HW2 5149   1.042   4.310   2.267  0.6927 -1.1068  0.5227
 1276SOL    HW3 5150   1.107   4.447   2.265 -0.6012 -0.4477  2.1461
 1276SOL    MW4 5151   1.113   4.360   2.262  0.1788 -0.3572  0.5634
 1277SOL     OW 5152   1.565   4.637   2.313 -0.1305 -0.5107  0.0916
 1277SOL    HW2 5153   1.637   4.694   2.285  0.9267 -1.2456  1.2827
 1277SOL    HW3 5154   1.486   4.684   2.286  0.7106  1.8331  1.5670
 1277SOL    MW4 5155   1.564   4.651   2.306  0.1200 -0.2980  0.4432
 1278SOL     OW 5156   1.332   0.080   2.203 -0.5339  0.4304 -1.1469
 1278SOL    HW2 5157   1.325   0.166   2.245 -0.1937 -0.5154  0.8774
 1278SOL    HW3 5158   1.253   0.034   2.230 -0.3600 -0.1529 -1.6311
 1278SOL    MW4 5159   1.321   0.085   2.212 -0.4661  0.2287 -0.9437
 1279SOL     OW 5160   1.334   0.338   2.351  0.1175  0.2562  0.5775
 1279SOL    HW2 5161   1.327   0.335   2.446 -1.5471 -0.0901  0.4607
 1279SOL    HW3 5162   1.408   0.397   2.334 -0.3587  1.3094  2.0603
 1279SOL    MW4 5163   1.343   0.345   2.361 -0.1651  0.3495  0.7582
 1280SOL     OW 5164   1.545   0.478   2.246 -0.0401 -0.2678  0.4024
 1280SOL    HW2 5165   1.633   0.450   2.270  0.7710  2.0986  0.2583
 1280SOL    HW3 5166   1.547   0.485   2.151 -0.6324 -0.9564  0.3325
 1280SOL    MW4 5167   1.557   0.475   2.237 -0.0112 -0.0464  0.3741
 1281SOL     OW 5168   1.557   0.759   2.296 -0.3995  0.5898 -0.1306
 1281SOL    HW2 5169   1.570   0.764   2.390  1.4656  2.3521 -0.4540
 1281SOL    HW3 5170   1.549   0.665   2.278  0.7948  0.1506  1.5700
 1281SOL    MW4 5171   1.557   0.747   2.306  0.0042  0.7644  0.0510
 1282SOL     OW 5172   1.331   0.886   2.207 -0.0315 -0.0164 -0.0596
 1282SOL    HW2 5173   1.409   0.842   2.241  0.3468  1.2862  0.7771
 1282SOL    HW3 5174   1.258   0.843   2.252  0.3091 -0.0747  0.4434
 1282SOL    MW4 5175   1.332   0.874   2.218  0.0634  0.1478  0.1173
 1283SOL     OW 5176   1.352   1.169   2.298  0.3312  0.5738 -0.1728
 1283SOL    HW2 5177   1.359   1.163   2.393  0.2291 -0.5859 -0.2336
 1283SOL    HW3 5178   1.321   1.082   2.270  0.5525  0.8373 -1.2778
 1283SOL    MW4 5179   1.349   1.157   2.307  0.3470  0.4555 -0.3266
 1284SOL     OW 5180   1.589   1.265   2.201  0.4517  0.3467  0.8643
 1284SOL    HW2 5181   1.504   1.224   2.216  1.1806 -1.5560 -0.0314
 1284SOL    HW3 5182   1.596   1.271   2.106  1.9977 -1.0369  0.8691
 1284SOL    MW4 5183   1.579   1.260   2.190  0.7517 -0.0869  0.7467
 1285SOL     OW 5184   1.557   1.521   2.317  0.2836  0.2031  0.7755
 1285SOL    HW2 5185   1.627   1.572   2.277 -0.0382 -0.4658 -0.6760
 1285SOL    HW3 5186   1.567   1.433   2.280 -1.9490  0.3592 -0.2805
 1285SOL    MW4 5187   1.567   1.516   2.307 -0.0535  0.1354  0.4451
 1286SOL     OW 5188   1.319   1.664   2.205 -0.5906 -0.5355 -0.1270
 1286SOL    HW2 5189   1.390   1.605   2.232  0.1897  1.1105  1.5218
 1286SOL    HW3 5190   1.241   1.628   2.247 -0.4893 -1.5829 -0.8317
 1286SOL    MW4 5191   1.318   1.651   2.214 -0.4742 -0.4565 -0.0021
 1287SOL     OW 5192   1.339   1.941   2.260  0.0272  0.0141 -0.1283
 1287SOL    HW2 5193   1.418   1.986   2.229 -0.6985  0.5471 -1.2469
 1287SOL    HW3 5194   1.354   1.849   2.238  0.0829  0.1976 -0.8836
 1287SOL    MW4 5195   1.352   1.935   2.253 -0.0612  0.1086 -0.3753
 1288SOL     OW 5196   1.572   2.048   2.146  0.1837 -0.7186  0.3647
 1288SOL    HW2 5197   1.644   2.011   2.196  0.2291 -2.6254 -1.0591
 1288SOL    HW3 5198   1.604   2.052   2.056 -1.1432 -0.6845 -0.1319
 1288SOL    MW4 5199   1.585   2.044   2.141  0.0145 -0.9656  0.1113
 1289SOL     OW 5200   1.552   2.302   2.249 -0.2937 -0.3301  0.1192
 1289SOL    HW2 5201   1.534   2.294   2.342  0.6176 -1.4765  0.2151
 1289SOL    HW3 5202   1.547   2.212   2.215  1.2466 -0.1776 -0.5667
 1289SOL    MW4 5203   1.549   2.289   2.256  0.0297 -0.4611  0.0412
 1290SOL     OW 5204   1.332   2.477   2.177  0.0747 -0.2182  0.1949
 1290SOL    HW2 5205   1.400   2.414   2.200 -0.9794 -1.0526  1.0685
 1290SOL    HW3 5206   1.344   2.491   2.083  1.6811 -0.0587  0.4005
 1290SOL    MW4 5207   1.343   2.471   2.167  0.1476 -0.3073  0.3371
 1291SOL     OW 5208   1.335   2.701   2.321 -0.6386  0.2309  0.8696
 1291SOL    HW2 5209   1.405   2.756   2.285  0.4848 -0.6273  1.6869
 1291SOL    HW3 5210   1.337   2.622   2.266 -0.4452 -0.1242  1.3896
 1291SOL    MW4 5211   1.345   2.697   2.309 -0.4648  0.0708  1.0459
 1292SOL     OW 5212   1.537   2.864   2.239 -0.1420  0.4972  0.1644
 1292SOL    HW2 5213   1.528   2.956   2.266 -0.5708  0.5522 -0.1678
 1292SOL    HW3 5214   1.565   2.868   2.148 -0.2372  0.2980  0.1264
 1292SOL    MW4 5215   1.539   2.877   2.231 -0.2111  0.4780  0.1159
 1293SOL     OW 5216   1.560   3.136   2.334 -0.1071  0.2697  0.5004
 1293SOL    HW2 5217   1.537   3.106   2.422  1.1292  2.9156  1.7736
 1293SOL    HW3 5218   1.477   3.168   2.297 -0.6058 -0.7473  0.7357
 1293SOL    MW4 5219   1.546   3.137   2.340 -0.0099  0.4847  0.6995
 1294SOL     OW 5220   1.370   3.281   2.209  0.4200 -0.3468  0.0291
 1294SOL    HW2 5221   1.283   3.250   2.232 -0.1655  0.8445 -0.5742
 1294SOL    HW3 5222   1.372   3.281   2.113  1.1426 -0.5409  0.0381
 1294SOL    MW4 5223   1.359   3.277   2.199  0.4380 -0.2151 -0.0491
 1295SOL     OW 5224   1.361   3.505   2.361  0.2513  0.0515 -0.0288
 1295SOL    HW2 5225   1.371   3.494   2.456 -0.7407  0.5820  0.1446
 1295SOL    HW3 5226   1.388   3.421   2.324  0.2523 -0.2945  0.7471
 1295SOL    MW4 5227   1.366   3.492   2.369  0.1205  0.0758  0.0963
 1296SOL     OW 5228   1.566   3.640   2.218  0.1014 -0.1965 -0.1833
 1296SOL    HW2 5229   1.573   3.735   2.233 -0.8238 -0.2268  0.4970
 1296SOL    HW3 5230   1.485   3.615   2.262 -0.4943 -1.0299 -1.7209
 1296SOL    MW4 5231   1.556   3.649   2.226 -0.0994 -0.3107 -0.2966
 1297SOL     OW 5232   1.650   3.888   2.314  0.1903  0.0725  0.1323
 1297SOL    HW2 5233   1.652   3.889   2.410 -1.2706  0.6700  0.1706
 1297SOL    HW3 5234   1.719   3.949   2.287  0.4340  0.0957  0.8036
 1297SOL    MW4 5235   1.659   3.896   2.323  0.0297  0.1547  0.2260
 1298SOL     OW 5236   1.400   3.989   2.249 -0.2833 -0.1690  0.0980
 1298SOL    HW2 5237   1.488   3.954   2.264 -0.4899  0.5483  3.1770
 1298SOL    HW3 5238   1.397   4.005   2.154  2.3731 -1.5410 -0.2772
 1298SOL    MW4 5239   1.411   3.986   2.238  0.0399 -0.2553  0.4544
 1299SOL     OW 5240   1.378   4.269   2.329 -0.1065 -0.0033 -0.0368
 1299SOL    HW2 5241   1.383   4.175   2.310  1.1425  0.0399  0.0518
 1299SOL    HW3 5242   1.290   4.294   2.300  0.7911 -0.4864 -3.4067
 1299SOL    MW4 5243   1.367   4.260   2.323  0.1768 -0.0615 -0.4697
 1300SOL     OW 5244   1.535   4.422   2.159  0.2482 -0.2904 -0.4234
 1300SOL    HW2 5245   1.462   4.379   2.202 -0.3163 -0.1688 -1.2504
 1300SOL    HW3 5246   1.546   4.505   2.205  0.5057 -0.7367  0.3345
 1300SOL    MW4 5247   1.527   4.427   2.170  0.2077 -0.3328 -0.4323
 1301SOL     OW 5248   2.053   0.043   2.300 -0.1658 -0.3363 -0.3171
 1301SOL    HW2 5249   2.126   0.083   2.254 -0.2418  0.0663 -0.0933
 1301SOL    HW3 5250   2.061  -0.050   2.283 -0.1537 -0.1965 -1.0881
 1301SOL    MW4 5251   2.063   0.036   2.292 -0.1740 -0.2648 -0.3896
 1302SOL     OW 5252   1.768   0.149   2.256 -0.0406 -0.0557 -0.4906
 1302SOL    HW2 5253   1.781   0.234   2.297 -0.4598 -0.5015  0.5898
 1302SOL    HW3 5254   1.843   0.097   2.286  0.0154 -0.1793 -0.8438
 1302SOL    MW4 5255   1.780   0.153   2.265 -0.0883 -0.1309 -0.3946
 1303SOL     OW 5256   1.802   0.406   2.349  0.0190  0.0238  0.2157
 1303SOL    HW2 5257   1.813   0.418   2.443 -1.6062  0.2331  0.3984
 1303SOL    HW3 5258   1.871   0.460   2.310 -0.1225  0.9822  1.2658
 1303SOL    MW4 5259   1.813   0.415   2.356 -0.2140  0.1778  0.3786
 1304SOL     OW 5260   2.037   0.513   2.233  0.1457 -0.4967 -0.1145
 1304SOL    HW2 5261   2.053   0.599   2.271 -1.8037 -0.8294  1.5270
 1304SOL    HW3 5262   2.003   0.532   2.145 -0.6182  0.4094  0.3725
 1304SOL    MW4 5263   2.035   0.527   2.226 -0.2124 -0.4210  0.1664
 1305SOL     OW 5264   2.060   0.765   2.373 -0.3859  0.3887 -0.7959
 1305SOL    HW2 5265   2.102   0.826   2.312  0.9222 -1.1939 -1.5136
 1305SOL    HW3 5266   1.969   0.761   2.343 -0.6033  2.2784 -0.4783
 1305SOL    MW4 5267   2.053   0.773   2.361 -0.2418  0.4292 -0.8488
 1306SOL     OW 5268   1.813   0.840   2.246 -0.1629  0.0780  0.0620
 1306SOL    HW2 5269   1.810   0.928   2.285  1.3362 -0.0745  0.5639
 1306SOL    HW3 5270   1.729   0.801   2.268 -0.3027  0.8936  1.0260
 1306SOL    MW4 5271   1.802   0.847   2.254  0.0163  0.1655  0.2553
 1307SOL     OW 5272   1.805   1.122   2.328  0.3956  0.0563 -0.2591
 1307SOL    HW2 5273   1.880   1.167   2.290 -0.4086 -0.5283 -2.6380
 1307SOL    HW3 5274   1.729   1.161   2.286 -0.7173  0.9064  2.4016
 1307SOL    MW4 5275   1.805   1.133   2.318  0.1427  0.0913 -0.2217
 1308SOL     OW 5276   1.999   1.261   2.196  0.4165 -0.0061  0.2727
 1308SOL    HW2 5277   1.982   1.345   2.239 -0.0680  0.5430 -0.9879
 1308SOL    HW3 5278   1.984   1.277   2.103  0.5240 -1.4370 -0.0090
 1308SOL    MW4 5279   1.995   1.274   2.190  0.3668 -0.1224  0.0689
 1309SOL     OW 5280   1.989   1.549   2.260  0.5647 -0.7460 -0.3050
 1309SOL    HW2 5281   2.007   1.568   2.352 -1.3279 -1.5998  0.2569
 1309SOL    HW3 5282   1.905   1.591   2.243  1.6666  0.7867 -2.1031
 1309SOL    MW4 5283   1.980   1.557   2.270  0.4604 -0.6565 -0.4680
 1310SOL     OW 5284   1.753   1.684   2.193  0.2162 -0.1683  0.1148
 1310SOL    HW2 5285   1.747   1.773   2.228 -0.3226  0.5586 -1.7644
 1310SOL    HW3 5286   1.752   1.695   2.098 -1.7087 -2.2912 -0.1665
 1310SOL    MW4 5287   1.752   1.697   2.185 -0.1090 -0.3524 -0.1702
 1311SOL     OW 5288   1.777   1.949   2.287 -0.8865  0.1000  0.0680
 1311SOL    HW2 5289   1.780   1.928   2.380 -1.2399 -1.6192 -0.2915
 1311SOL    HW3 5290   1.848   2.011   2.273  0.1846 -0.8530  1.1963
 1311SOL    MW4 5291   1.787   1.954   2.297 -0.7918 -0.2525  0.1693
 1312SOL     OW 5292   2.018   2.079   2.220 -0.1592 -0.1486 -0.1087
 1312SOL    HW2 5293   2.085   2.013   2.240  1.3165  1.6132  0.8497
 1312SOL    HW3 5294   2.005   2.072   2.125  0.3129 -1.4809 -0.0899
 1312SOL    MW4 5295   2.025   2.069   2.210  0.0980 -0.0920  0.0205
 1313SOL     OW 5296   2.036   2.355   2.249 -0.1829  0.0742  1.0174
 1313SOL    HW2 5297   2.113   2.382   2.199  0.2612 -0.4455  1.4163
 1313SOL    HW3 5298   2.035   2.259   2.242 -0.5675  0.0524  1.3392
 1313SOL    MW4 5299   2.046   2.346   2.241 -0.1750  0.0026  1.1127
 1314SOL     OW 5300   1.782   2.446   2.167 -0.3740  0.1376 -0.3854
 1314SOL    HW2 5301   1.860   2.408   2.207  0.4256 -1.4394 -3.2893
 1314SOL    HW3 5302   1.710   2.391   2.196 -0.2204  0.7211  1.1352
 1314SOL    MW4 5303   1.783   2.434   2.176 -0.2482  0.0062 -0.5677
 1315SOL     OW 5304   1.767   2.713   2.314 -0.2209 -0.2805 -0.1917
 1315SOL    HW2 5305   1.757   2.625   2.278 -1.8892 -0.7939  1.4622
 1315SOL    HW3 5306   1.681   2.753   2.304 -0.3466  0.0414  1.8774
 1315SOL    MW4 5307   1.754   2.706   2.308 -0.4575 -0.3057  0.2995
 1316SOL     OW 5308   1.982   2.819   2.182  0.2571 -0.8244 -0.3961
 1316SOL    HW2 5309   2.058   2.767   2.209 -1.0800 -2.0987  0.9788
 1316SOL    HW3 5310   1.909   2.783   2.232 -0.8239  1.9682  0.1359
 1316SOL    MW4 5311   1.983   2.807   2.192 -0.0619 -0.6242 -0.1447
 1317SOL     OW 5312   2.005   3.060   2.302  0.3414  0.0496  0.0364
 1317SOL    HW2 5313   2.080   3.095   2.255  1.4437 -1.0960  0.9061
 1317SOL    HW3 5314   1.988   2.976   2.260 -0.2478  0.1473  0.0708
 1317SOL    MW4 5315   2.012   3.054   2.290  0.4091 -0.0887  0.1557
 1318SOL     OW 5316   1.797   3.247   2.225 -0.1644  0.4381  0.4743
 1318SOL    HW2 5317   1.851   3.172   2.248  0.0026  0.5848  0.5630
 1318SOL    HW3 5318   1.716   3.234   2.273  0.0238  0.5267  0.8162
 1318SOL    MW4 5319   1.794   3.235   2.234 -0.1177  0.4692  0.5312
 1319SOL     OW 5320   1.806   3.517   2.281 -0.3691  0.2727  0.2923
 1319SOL    HW2 5321   1.817   3.427   2.250 -0.8315  0.3218 -0.0081
 1319SOL    HW3 5322   1.716   3.540   2.259 -0.4742  0.5573  1.0241
 1319SOL    MW4 5323   1.796   3.508   2.274 -0.4439  0.3166  0.3490
 1320SOL     OW 5324   2.039   3.681   2.250 -0.2148  0.0232  0.3121
 1320SOL    HW2 5325   1.959   3.642   2.286 -0.4439  0.5259  0.3528
 1320SOL    HW3 5326   2.044   3.646   2.161 -1.1683  0.9645 -0.1340
 1320SOL    MW4 5327   2.029   3.671   2.243 -0.3710  0.2141  0.2587
 1321SOL     OW 5328   2.069   3.949   2.341  0.1613  0.5308 -0.0532
 1321SOL    HW2 5329   2.062   3.913   2.429  1.4967  0.9585  0.2482
 1321SOL    HW3 5330   2.078   3.872   2.284 -0.6707  0.2565  0.1791
 1321SOL    MW4 5331   2.070   3.934   2.345  0.2277  0.5510  0.0174
 1322SOL     OW 5332   1.829   4.077   2.241  0.0278 -0.4468  0.6864
 1322SOL    HW2 5333   1.909   4.047   2.285  0.7671 -0.3899 -0.5612
 1322SOL    HW3 5334   1.846   4.059   2.148 -0.4057  1.8136  0.1464
 1322SOL    MW4 5335   1.842   4.070   2.234  0.0681 -0.1411  0.4506
 1323SOL     OW 5336   1.784   4.358   2.288  0.3671  0.6955 -0.6651
 1323SOL    HW2 5337   1.783   4.266   2.264  1.0225 -0.0122  1.8790
 1323SOL    HW3 5338   1.706   4.395   2.247 -1.5506 -1.6663  0.7640
 1323SOL    MW4 5339   1.774   4.351   2.280  0.2006  0.2904 -0.1409
 1324SOL     OW 5340   2.043   4.450   2.210  0.2461  0.4626 -0.2791
 1324SOL    HW2 5341   1.971   4.392   2.234  0.1843  0.6421 -0.0284
 1324SOL    HW3 5342   2.047   4.445   2.114 -1.2540  1.8091 -0.4344
 1324SOL    MW4 5343   2.034   4.442   2.201  0.0401  0.6647 -0.2666
 1325SOL     OW 5344   2.502   4.651   2.277  0.0876 -0.1062 -0.2255
 1325SOL    HW2 5345   2.580   4.698   2.246 -1.0427  0.7856 -1.7669
 1325SOL    HW3 5346   2.523   4.559   2.265  0.4047  0.1706 -1.9027
 1325SOL    MW4 5347   2.515   4.645   2.272 -0.0198  0.0486 -0.6502
 1326SOL     OW 5348   2.282   0.142   2.180 -0.2926 -0.3279 -0.1989
 1326SOL    HW2 5349   2.283   0.219   2.238  2.2849  0.8762 -1.7119
 1326SOL    HW3 5350   2.341   0.080   2.223  0.9244  0.2179 -1.0573
 1326SOL    MW4 5351   2.290   0.144   2.194  0.2081 -0.0971 -0.5121
 1327SOL     OW 5352   2.252   0.380   2.330 -0.0604 -0.0210 -0.2031
 1327SOL    HW2 5353   2.326   0.424   2.290 -0.6478  2.1801  1.0424
 1327SOL    HW3 5354   2.175   0.422   2.291 -0.6263  0.2262  1.1447
 1327SOL    MW4 5355   2.252   0.391   2.320 -0.2124  0.3020  0.1390
 1328SOL     OW 5356   2.470   0.501   2.216  0.1995 -0.4919  0.1227
 1328SOL    HW2 5357   2.560   0.471   2.229  0.4313  0.5243  0.9120
 1328SOL    HW3 5358   2.460   0.506   2.121  1.2766  0.2388  0.0310
 1328SOL    MW4 5359   2.481   0.498   2.205  0.3724 -0.2614  0.2143
 1329SOL     OW 5360   2.420   0.752   2.336 -0.4579  0.0974  0.0799
 1329SOL    HW2 5361   2.492   0.809   2.307 -0.3880 -0.2071 -0.3402
 1329SOL    HW3 5362   2.442   0.666   2.302 -2.2084  0.4573 -2.0558
 1329SOL    MW4 5363   2.432   0.748   2.328 -0.6797  0.1047 -0.2573
 1330SOL     OW 5364   2.224   0.904   2.224 -0.0870 -0.0920  0.0396
 1330SOL    HW2 5365   2.235   0.993   2.258 -0.5456  0.0422 -0.1613
 1330SOL    HW3 5366   2.285   0.851   2.276 -0.7357  0.1186  1.0304
 1330SOL    MW4 5367   2.234   0.909   2.235 -0.2329 -0.0465  0.1435
 1331SOL     OW 5368   2.245   1.167   2.328 -0.2603 -0.0276 -0.1861
 1331SOL    HW2 5369   2.323   1.207   2.291  0.1993 -0.6822  0.0739
 1331SOL    HW3 5370   2.174   1.196   2.271  0.1669  0.6055 -0.3932
 1331SOL    MW4 5371   2.246   1.176   2.316 -0.1433 -0.0304 -0.1791
 1332SOL     OW 5372   2.486   1.296   2.196  0.0888 -0.0323  0.2055
 1332SOL    HW2 5373   2.559   1.253   2.241 -0.0012 -0.4227 -0.0234
 1332SOL    HW3 5374   2.475   1.378   2.243 -0.6123 -0.8530  1.5085
 1332SOL    MW4 5375   2.494   1.301   2.208 -0.0155 -0.1920  0.3471
 1333SOL     OW 5376   2.441   1.560   2.319  0.2078 -0.0239  0.1852
 1333SOL    HW2 5377   2.444   1.565   2.414  0.4497 -0.9099  0.2187
 1333SOL    HW3 5378   2.518   1.609   2.289 -1.5083  2.9403  0.3553
 1333SOL    MW4 5379   2.451   1.567   2.327  0.0134  0.2505  0.2120
 1334SOL     OW 5380   2.215   1.670   2.183  0.6028  0.2598  0.3236
 1334SOL    HW2 5381   2.290   1.623   2.220 -0.5328 -0.4518  1.7258
 1334SOL    HW3 5382   2.138   1.621   2.211 -0.4437  1.2525 -0.7198
 1334SOL    MW4 5383   2.215   1.657   2.191  0.3150  0.2970  0.3710
 1335SOL     OW 5384   2.251   1.939   2.273 -0.0821  0.1863 -0.0064
 1335SOL    HW2 5385   2.324   1.990   2.237  0.7375 -0.1287  1.1730
 1335SOL    HW3 5386   2.253   1.856   2.226 -0.2498  0.5191 -0.6095
 1335SOL    MW4 5387   2.261   1.935   2.262  0.0041  0.1886  0.0696
 1336SOL     OW 5388   2.457   2.079   2.183 -0.1421  0.1215 -0.1653
 1336SOL    HW2 5389   2.544   2.058   2.216  1.2703  2.9671 -1.8571
 1336SOL    HW3 5390   2.460   2.055   2.090 -1.5692 -0.8977  0.0394
 1336SOL    MW4 5391   2.469   2.073   2.175 -0.1438  0.3626 -0.3614
 1337SOL     OW 5392   2.477   2.348   2.265  0.1296  0.3565  0.0619
 1337SOL    HW2 5393   2.564   2.376   2.237  0.4889 -1.1121 -0.3777
 1337SOL    HW3 5394   2.468   2.259   2.230 -0.4697 -0.5454  2.3961
 1337SOL    MW4 5395   2.487   2.340   2.257  0.0982  0.0436  0.3116
 1338SOL     OW 5396   2.268   2.444   2.134 -0.1627 -0.3589 -0.6888
 1338SOL    HW2 5397   2.233   2.523   2.174  1.3457  0.1168 -0.3217
 1338SOL    HW3 5398   2.349   2.425   2.182  0.1188 -1.4416 -1.5636
 1338SOL    MW4 5399   2.274   2.452   2.146  0.0734 -0.4389 -0.7558
 1339SOL     OW 5400   2.215   2.701   2.262  0.3538  0.2503 -0.0282
 1339SOL    HW2 5401   2.230   2.726   2.353  0.7004 -0.9438  0.2470
 1339SOL    HW3 5402   2.287   2.741   2.213  0.9134 -0.2194  0.4110
 1339SOL    MW4 5403   2.226   2.710   2.267  0.4730  0.0310  0.0660
 1340SOL     OW 5404   2.454   2.833   2.182  0.0847 -0.4902  0.0901
 1340SOL    HW2 5405   2.528   2.790   2.225  1.4318  1.2031 -0.4948
 1340SOL    HW3 5406   2.466   2.813   2.089 -0.7709 -1.0668  0.1008
 1340SOL    MW4 5407   2.465   2.824   2.175  0.1497 -0.3428  0.0141
 1341SOL     OW 5408   2.458   3.110   2.255  0.2542  0.4367 -0.1993
 1341SOL    HW2 5409   2.531   3.156   2.213  0.0553  0.1070 -0.9142
 1341SOL    HW3 5410   2.473   3.017   2.235  0.7944  0.1560  1.4476
 1341SOL    MW4 5411   2.470   3.104   2.247  0.2992  0.3564 -0.0765
 1342SOL     OW 5412   2.217   3.204   2.196 -0.1741  0.5538  0.1852
 1342SOL    HW2 5413   2.204   3.290   2.238 -0.1880  0.8383 -0.3998
 1342SOL    HW3 5414   2.298   3.171   2.235 -1.9497 -0.7238  2.9863
 1342SOL    MW4 5415   2.226   3.211   2.207 -0.4103  0.4227  0.4778
 1343SOL     OW 5416   2.218   3.474   2.313 -0.3118 -0.2053  0.0602
 1343SOL    HW2 5417   2.230   3.486   2.407  1.4126  1.7720 -0.3659
 1343SOL    HW3 5418   2.155   3.542   2.289  0.7365  0.5911 -0.5030
 1343SOL    MW4 5419   2.211   3.485   2.322  0.0539  0.1602 -0.0701
 1344SOL     OW 5420   2.419   3.612   2.189 -0.1917 -0.4480 -0.2375
 1344SOL    HW2 5421   2.436   3.695   2.235 -0.4321 -0.6003  0.1265
 1344SOL    HW3 5422   2.348   3.572   2.238 -0.2840 -0.7295 -0.6003
 1344SOL    MW4 5423   2.412   3.618   2.201 -0.2358 -0.5052 -0.2377
 1345SOL     OW 5424   2.485   3.840   2.313  0.4637 -0.1137 -0.2513
 1345SOL    HW2 5425   2.484   3.827   2.408  0.4719  1.3369 -0.0390
 1345SOL    HW3 5426   2.428   3.915   2.298 -0.0538 -0.7386 -1.4681
 1345SOL    MW4 5427   2.478   3.848   2.323  0.3967 -0.0048 -0.3836
 1346SOL     OW 5428   2.313   4.056   2.266  0.0572  0.3357 -0.2055
 1346SOL    HW2 5429   2.301   4.148   2.289  0.0940 -0.0982  1.5684
 1346SOL    HW3 5430   2.241   4.011   2.309  1.5427 -0.8074  1.1347
 1346SOL    MW4 5431   2.302   4.062   2.275  0.2580  0.1278  0.2055
 1347SOL     OW 5432   2.286   4.323   2.339  0.4312 -0.5907 -0.2999
 1347SOL    HW2 5433   2.278   4.320   2.434  1.7554 -1.1826 -0.1934
 1347SOL    HW3 5434   2.201   4.356   2.308 -0.3105 -1.2114  1.0309
 1347SOL    MW4 5435   2.273   4.327   2.347  0.5078 -0.7510 -0.1101
 1348SOL     OW 5436   2.532   4.386   2.206 -0.0657  0.8962 -0.0983
 1348SOL    HW2 5437   2.605   4.339   2.245  1.6960  2.1006 -1.8817
 1348SOL    HW3 5438   2.454   4.350   2.249  1.5704 -0.3259  1.8714
 1348SOL    MW4 5439   2.531   4.375   2.217  0.3824  0.8936 -0.0734
 1349SOL     OW 5440   2.962   4.641   2.297 -0.2737  0.1072  0.4373
 1349SOL    HW2 5441   3.034   4.692   2.259 -1.6914  0.6366 -1.5865
 1349SOL    HW3 5442   2.962   4.559   2.248 -0.2265 -0.4393  1.3379
 1349SOL    MW4 5443   2.971   4.637   2.286 -0.4544  0.1054  0.2894
 1350SOL     OW 5444   2.740   0.128   2.222  0.0217 -0.2071 -0.5780
 1350SOL    HW2 5445   2.748   0.220   2.247 -1.2106 -0.4040  0.5558
 1350SOL    HW3 5446   2.804   0.082   2.277 -1.3457 -0.3897  0.8782
 1350SOL    MW4 5447   2.750   0.134   2.232 -0.3211 -0.2571 -0.2363
 1351SOL     OW 5448   2.721   0.407   2.274  0.4237  0.2862  0.1297
 1351SOL    HW2 5449   2.719   0.410   2.370 -0.4609  1.9431  0.0719
 1351SOL    HW3 5450   2.808   0.442   2.252 -0.3589  2.3985  0.2684
 1351SOL    MW4 5451   2.732   0.412   2.284  0.2036  0.7835  0.1404
 1352SOL     OW 5452   2.987   0.515   2.221 -0.7942 -0.2725 -0.0450
 1352SOL    HW2 5453   2.973   0.604   2.251  0.2310 -0.0085 -0.3418
 1352SOL    HW3 5454   2.965   0.517   2.128  0.4205 -0.0351 -0.3354
 1352SOL    MW4 5455   2.982   0.527   2.213 -0.4988 -0.2064 -0.1225
 1353SOL     OW 5456   2.929   0.764   2.302 -0.3317  0.0039  0.2774
 1353SOL    HW2 5457   2.934   0.770   2.397 -0.1758  1.6013  0.1785
 1353SOL    HW3 5458   2.846   0.806   2.279  0.3159  0.9550 -0.3858
 1353SOL    MW4 5459   2.919   0.771   2.312 -0.2258  0.3401  0.1769
 1354SOL     OW 5460   2.660   0.900   2.248 -0.6859  0.1009  0.1807
 1354SOL    HW2 5461   2.671   0.984   2.293  0.5719 -0.4645  0.9522
 1354SOL    HW3 5462   2.668   0.922   2.155  1.2110  0.6048  0.4482
 1354SOL    MW4 5463   2.662   0.914   2.242 -0.2697  0.0928  0.3176
 1355SOL     OW 5464   2.689   1.178   2.318  0.1076 -0.3468  0.2264
 1355SOL    HW2 5465   2.674   1.190   2.412 -2.5949  1.0128 -0.3253
 1355SOL    HW3 5466   2.774   1.219   2.302  0.1404  0.2873  1.9122
 1355SOL    MW4 5467   2.698   1.185   2.328 -0.2444 -0.0838  0.3762
 1356SOL     OW 5468   2.927   1.292   2.229 -0.0779 -0.2598 -0.0127
 1356SOL    HW2 5469   3.007   1.247   2.255  0.1540  0.1554 -0.0219
 1356SOL    HW3 5470   2.916   1.270   2.137  0.5181  0.4446 -0.2484
 1356SOL    MW4 5471   2.936   1.283   2.220  0.0312 -0.1122 -0.0451
 1357SOL     OW 5472   2.898   1.556   2.337  0.1651  0.0745 -0.0403
 1357SOL    HW2 5473   2.895   1.556   2.433 -2.3952  0.8680 -0.0823
 1357SOL    HW3 5474   2.901   1.463   2.314  1.5062 -0.1063  0.8187
 1357SOL    MW4 5475   2.898   1.544   2.347  0.0043  0.1553  0.0677
 1358SOL     OW 5476   2.679   1.696   2.241  0.2650 -0.4175  0.0718
 1358SOL    HW2 5477   2.747   1.638   2.276 -1.0736 -1.5890  0.7727
 1358SOL    HW3 5478   2.695   1.698   2.147  0.5675 -1.5860  0.0977
 1358SOL    MW4 5479   2.690   1.689   2.233  0.1283 -0.7262  0.1678
 1359SOL     OW 5480   2.681   1.972   2.316  0.5412 -0.0095  0.0430
 1359SOL    HW2 5481   2.673   1.969   2.411 -1.5825  0.8653 -0.0984
 1359SOL    HW3 5482   2.696   1.881   2.290 -2.2103 -0.7441  0.9498
 1359SOL    MW4 5483   2.682   1.959   2.325 -0.1020  0.0089  0.1442
 1360SOL     OW 5484   2.916   2.069   2.206  0.0847 -0.2989 -0.2593
 1360SOL    HW2 5485   2.991   2.034   2.254 -0.4899 -1.4837 -0.2349
 1360SOL    HW3 5486   2.840   2.043   2.257 -0.4021  0.1875 -0.7332
 1360SOL    MW4 5487   2.916   2.061   2.219 -0.0556 -0.3912 -0.3188
 1361SOL     OW 5488   2.922   2.360   2.267 -0.1188 -0.2657 -0.1699
 1361SOL    HW2 5489   2.902   2.358   2.361 -0.2825 -0.5653 -0.2119
 1361SOL    HW3 5490   2.912   2.270   2.238  1.4013 -0.4418 -0.1769
 1361SOL    MW4 5491   2.918   2.348   2.276  0.0601 -0.3283 -0.1762
 1362SOL     OW 5492   2.680   2.461   2.159  0.0825  0.5815  0.0802
 1362SOL    HW2 5493   2.759   2.419   2.194 -0.8256 -0.6614  0.7031
 1362SOL    HW3 5494   2.691   2.458   2.064  0.6420  0.1414  0.1522
 1362SOL    MW4 5495   2.692   2.455   2.151  0.0365  0.3595  0.1714
 1363SOL     OW 5496   2.685   2.715   2.282  0.0804  0.4201  0.1394
 1363SOL    HW2 5497   2.776   2.740   2.264  0.5828 -1.4325 -0.0613
 1363SOL    HW3 5498   2.676   2.628   2.241 -2.0944  1.0397 -0.7648
 1363SOL    MW4 5499   2.696   2.707   2.274 -0.1404  0.2575 -0.0064
 1364SOL     OW 5500   2.922   2.826   2.198 -0.3458 -0.1264 -0.0383
 1364SOL    HW2 5501   2.936   2.914   2.232  1.6302  0.2123 -1.6581
 1364SOL    HW3 5502   2.923   2.837   2.103 -0.3313 -1.8663 -0.2473
 1364SOL    MW4 5503   2.924   2.839   2.190 -0.0834 -0.3116 -0.2797
 1365SOL     OW 5504   2.914   3.085   2.301  0.4012  0.4368  0.0806
 1365SOL    HW2 5505   2.983   3.128   2.251  0.5656 -1.3437 -1.2661
 1365SOL    HW3 5506   2.833   3.121   2.267  0.5307 -0.4456 -1.1737
 1365SOL    MW4 5507   2.913   3.095   2.290  0.4401  0.0854 -0.2625
 1366SOL     OW 5508   2.700   3.213   2.183 -0.1106  0.2749 -0.4866
 1366SOL    HW2 5509   2.706   3.303   2.215 -2.1313  0.1037  0.4370
 1366SOL    HW3 5510   2.710   3.220   2.088 -0.3676  1.4897 -0.4257
 1366SOL    MW4 5511   2.702   3.225   2.175 -0.4110  0.4127 -0.3567
 1367SOL     OW 5512   2.679   3.478   2.264 -0.5018 -0.1251  0.1040
 1367SOL    HW2 5513   2.754   3.522   2.224  0.0532 -1.5715 -0.5229
 1367SOL    HW3 5514   2.603   3.529   2.237  0.1265  0.4600 -0.5717
 1367SOL    MW4 5515   2.679   3.490   2.255 -0.3457 -0.2391 -0.0679
 1368SOL     OW 5516   2.903   3.605   2.182 -0.1451 -0.3127  0.5124
 1368SOL    HW2 5517   2.976   3.550   2.212  0.1120  0.4911  1.3854
 1368SOL    HW3 5518   2.928   3.694   2.209 -0.2067  0.3416 -1.5651
 1368SOL    MW4 5519   2.916   3.609   2.190 -0.1192 -0.1204  0.3538
 1369SOL     OW 5520   2.929   3.862   2.279  0.1595 -0.2699  0.4942
 1369SOL    HW2 5521   2.921   3.846   2.373 -1.2951 -0.4993  0.3329
 1369SOL    HW3 5522   2.850   3.911   2.255  1.6483  1.9165 -0.1689
 1369SOL    MW4 5523   2.918   3.867   2.288  0.1638 -0.0119  0.3855
 1370SOL     OW 5524   2.701   4.004   2.199  0.1159 -0.3725  0.0118
 1370SOL    HW2 5525   2.632   3.941   2.217  0.4349 -0.5821  0.5087
 1370SOL    HW3 5526   2.697   4.017   2.104 -0.7876 -0.1679  0.0759
 1370SOL    MW4 5527   2.692   3.997   2.188  0.0389 -0.3731  0.0856
 1371SOL     OW 5528   2.748   4.262   2.312 -0.5075 -0.1669 -0.2060
 1371SOL    HW2 5529   2.758   4.271   2.407 -0.4774 -1.5341 -0.0574
 1371SOL    HW3 5530   2.736   4.168   2.299  0.7286 -0.1407 -1.6690
 1371SOL    MW4 5531   2.748   4.250   2.323 -0.3407 -0.3438 -0.3796
 1372SOL     OW 5532   2.976   4.404   2.163  0.3912 -0.0166 -0.1021
 1372SOL    HW2 5533   3.046   4.380   2.223 -0.2603 -1.3520  0.1473
 1372SOL    HW3 5534   2.898   4.361   2.199 -0.1286 -0.3177 -1.5550
 1372SOL    MW4 5535   2.975   4.396   2.176  0.2365 -0.2322 -0.2608
 1373SOL     OW 5536   3.403   4.629   2.299 -0.3290 -0.3539  0.1172
 1373SOL    HW2 5537   3.390   4.657   2.390 -2.2245  0.0963 -0.2599
 1373SOL    HW3 5538   3.467   4.691   2.264 -1.5611  1.1432  0.4222
 1373SOL    MW4 5539   3.409   4.641   2.306 -0.7417 -0.0973  0.1078
 1374SOL     OW 5540   3.182   0.107   2.206 -0.3749 -0.2991  0.0196
 1374SOL    HW2 5541   3.169   0.195   2.242  0.0164 -0.4389  0.5236
 1374SOL    HW3 5542   3.265   0.078   2.244 -0.6930 -1.0392  0.1731
 1374SOL    MW4 5543   3.191   0.114   2.216 -0.3653 -0.4152  0.1063
 1375SOL     OW 5544   3.176   0.358   2.351  0.2268 -0.0199 -0.0080
 1375SOL    HW2 5545   3.239   0.422   2.317  0.0071  0.2050  0.0091
 1375SOL    HW3 5546   3.091   0.389   2.321  0.2254 -0.9004 -0.9078
 1375SOL    MW4 5547   3.173   0.371   2.343  0.1976 -0.1064 -0.1245
 1376SOL     OW 5548   3.370   0.534   2.237  0.2411 -0.4334  0.2151
 1376SOL    HW2 5549   3.458   0.508   2.262  1.6024  2.6280 -1.0838
 1376SOL    HW3 5550   3.365   0.514   2.143  0.3392  1.2189 -0.1716
 1376SOL    MW4 5551   3.381   0.528   2.228  0.4337  0.1885 -0.0074
 1377SOL     OW 5552   3.387   0.792   2.321 -0.3609 -0.5099 -0.1419
 1377SOL    HW2 5553   3.466   0.828   2.282  0.5956 -1.2227  1.1019
 1377SOL    HW3 5554   3.377   0.706   2.280 -0.5762 -0.3631 -0.4008
 1377SOL    MW4 5555   3.396   0.785   2.311 -0.2635 -0.5845 -0.0119
 1378SOL     OW 5556   3.144   0.911   2.228  0.1480 -0.3196  0.3683
 1378SOL    HW2 5557   3.220   0.867   2.266  0.8329 -0.2589 -0.8974
 1378SOL    HW3 5558   3.070   0.856   2.252  0.6191 -0.5369  1.3696
 1378SOL    MW4 5559   3.144   0.898   2.237  0.3006 -0.3403  0.3333
 1379SOL     OW 5560   3.138   1.151   2.361 -0.5510 -0.0498  0.0080
 1379SOL    HW2 5561   3.219   1.185   2.322  0.0581 -0.9341  0.4910
 1379SOL    HW3 5562   3.131   1.062   2.328  0.2398 -0.9806  2.3000
 1379SOL    MW4 5563   3.148   1.144   2.351 -0.3662 -0.2893  0.3741
 1380SOL     OW 5564   3.333   1.270   2.207 -0.4788  0.3659 -0.0839
 1380SOL    HW2 5565   3.416   1.239   2.241  0.0768  2.0747  0.1917
 1380SOL    HW3 5566   3.320   1.355   2.249 -2.4050  0.0844 -0.0621
 1380SOL    MW4 5567   3.342   1.277   2.217 -0.6599  0.5542 -0.0446
 1381SOL     OW 5568   3.326   1.515   2.323 -0.0045  0.0552  0.4529
 1381SOL    HW2 5569   3.332   1.517   2.418 -0.1213 -1.0065  0.4838
 1381SOL    HW3 5570   3.248   1.568   2.303  1.2051  2.0402  0.8072
 1381SOL    MW4 5571   3.316   1.522   2.333  0.1400  0.1770  0.5038
 1382SOL     OW 5572   3.125   1.668   2.225  0.0680 -0.2091 -0.1728
 1382SOL    HW2 5573   3.133   1.741   2.286 -0.4641  1.0522 -1.5700
 1382SOL    HW3 5574   3.040   1.628   2.246  0.2777 -0.3191  0.4711
 1382SOL    MW4 5575   3.114   1.672   2.236  0.0250 -0.0572 -0.2723
 1383SOL     OW 5576   3.117   1.920   2.336  0.2986 -0.4100 -0.1625
 1383SOL    HW2 5577   3.113   1.910   2.431 -0.5744 -0.5010 -0.2055
 1383SOL    HW3 5578   3.202   1.962   2.320  1.2365 -2.0239  0.5041
 1383SOL    MW4 5579   3.128   1.925   2.346  0.3071 -0.6349 -0.0801
 1384SOL     OW 5580   3.359   2.070   2.272 -0.0755  0.2495 -0.3140
 1384SOL    HW2 5581   3.438   2.027   2.304 -1.2917 -0.7415  1.4291
 1384SOL    HW3 5582   3.371   2.073   2.177  1.1077 -1.8618 -0.2770
 1384SOL    MW4 5583   3.371   2.065   2.263 -0.0801 -0.1597 -0.0794
 1385SOL     OW 5584   3.403   2.334   2.305  0.9899 -0.0418 -0.5316
 1385SOL    HW2 5585   3.319   2.370   2.277  0.9538 -0.0222 -0.3998
 1385SOL    HW3 5586   3.394   2.240   2.291  0.6186 -0.1406  0.3153
 1385SOL    MW4 5587   3.390   2.326   2.300  0.9360 -0.0525 -0.4025
 1386SOL     OW 5588   3.177   2.448   2.235  0.4530 -0.3230 -0.1511
 1386SOL    HW2 5589   3.182   2.535   2.275 -0.6749 -0.7411  0.9453
 1386SOL    HW3 5590   3.084   2.426   2.237  0.6619 -1.3223 -0.9260
 1386SOL    MW4 5591   3.165   2.456   2.241  0.3314 -0.5100 -0.1087
 1387SOL     OW 5592   3.185   2.718   2.279 -0.3526 -0.0537 -0.1839
 1387SOL    HW2 5593   3.165   2.729   2.372 -1.8519  0.8878 -0.5903
 1387SOL    HW3 5594   3.099   2.714   2.237  0.3168  0.0444 -1.5909
 1387SOL    MW4 5595   3.171   2.719   2.286 -0.4623  0.0837 -0.4232
 1388SOL     OW 5596   3.397   2.855   2.178  0.3266  0.0155 -0.2563
 1388SOL    HW2 5597   3.393   2.942   2.219 -0.8020  0.7180 -1.8163
 1388SOL    HW3 5598   3.320   2.809   2.212  0.2042  0.0758 -0.4554
 1388SOL    MW4 5599   3.386   2.861   2.188  0.1614  0.1159 -0.4883
 1389SOL     OW 5600   3.363   3.104   2.332  0.2365 -0.3364  0.4365
 1389SOL    HW2 5601   3.442   3.152   2.309  0.0719 -0.0592  0.4558
 1389SOL    HW3 5602   3.291   3.156   2.296  0.0715 -0.6734  0.2721
 1389SOL    MW4 5603   3.364   3.117   2.324  0.1931 -0.3443  0.4172
 1390SOL     OW 5604   3.147   3.231   2.197  0.5434 -0.0215  0.0955
 1390SOL    HW2 5605   3.155   3.323   2.220  1.0604 -0.3790  1.3746
 1390SOL    HW3 5606   3.178   3.226   2.107  1.9690  0.8130  0.5316
 1390SOL    MW4 5607   3.152   3.242   2.188  0.7997  0.0415  0.3216
 1391SOL     OW 5608   3.153   3.492   2.287 -0.7959 -0.0270  0.1140
 1391SOL    HW2 5609   3.172   3.478   2.380 -2.5806 -1.2398  0.3152
 1391SOL    HW3 5610   3.229   3.541   2.254 -0.5127  1.1168  2.3737
 1391SOL    MW4 5611   3.166   3.497   2.295 -0.9940 -0.0360  0.4389
 1392SOL     OW 5612   3.365   3.618   2.170  0.1592  0.3546  0.1136
 1392SOL    HW2 5613   3.444   3.591   2.216  0.2918  0.0325 -0.3025
 1392SOL    HW3 5614   3.378   3.588   2.080 -0.5277  0.1150  0.0913
 1392SOL    MW4 5615   3.377   3.611   2.164  0.0861  0.2806  0.0556
 1393SOL     OW 5616   3.384   3.858   2.321 -0.2407 -1.2066  0.2625
 1393SOL    HW2 5617   3.447   3.922   2.289 -1.5781  0.1181  0.2093
 1393SOL    HW3 5618   3.372   3.798   2.247  1.1718 -1.6641  0.3844
 1393SOL    MW4 5619   3.391   3.859   2.307 -0.2308 -1.0922  0.2713
 1394SOL     OW 5620   3.167   4.018   2.285 -0.0252  0.1666 -0.3354
 1394SOL    HW2 5621   3.239   3.956   2.299 -0.1583  0.0677 -0.0889
 1394SOL    HW3 5622   3.088   3.964   2.291 -0.1510  0.4019  0.1129
 1394SOL    MW4 5623   3.166   4.002   2.287 -0.0594  0.1845 -0.2439
 1395SOL     OW 5624   3.163   4.286   2.339 -0.3139  0.5021 -0.0705
 1395SOL    HW2 5625   3.246   4.308   2.297  0.2597  1.1254  1.3588
 1395SOL    HW3 5626   3.155   4.191   2.329 -0.0140  0.5914 -1.2485
 1395SOL    MW4 5627   3.173   4.276   2.332 -0.1988  0.5960 -0.0372
 1396SOL     OW 5628   3.386   4.373   2.194  0.0547 -0.3367  0.0206
 1396SOL    HW2 5629   3.404   4.455   2.240 -0.8314  0.0598 -0.3247
 1396SOL    HW3 5630   3.362   4.401   2.105  0.9945 -1.0434 -0.4648
 1396SOL    MW4 5631   3.385   4.387   2.188  0.0618 -0.3772 -0.0889
 1397SOL     OW 5632   3.803   0.000   2.335 -0.0435  0.2073  0.3086
 1397SOL    HW2 5633   3.802  -0.010   2.430  0.9550  0.7257  0.3783
 1397SOL    HW3 5634   3.895   0.016   2.313 -0.4443  1.3726 -0.6056
 1397SOL    MW4 5635   3.815   0.001   2.344  0.0355  0.4292  0.1974
 1398SOL     OW 5636   3.596   0.130   2.223  0.0182  0.3578 -0.1598
 1398SOL    HW2 5637   3.594   0.216   2.265 -1.1140  0.7108 -0.9319
 1398SOL    HW3 5638   3.670   0.085   2.264 -1.4920  0.4155  2.7492
 1398SOL    MW4 5639   3.606   0.135   2.234 -0.3304  0.4120  0.1223
 1399SOL     OW 5640   3.577   0.379   2.341 -0.3888 -0.0867  0.2533
 1399SOL    HW2 5641   3.581   0.376   2.436 -0.6289 -1.0715  0.2385
 1399SOL    HW3 5642   3.664   0.409   2.314 -0.5676  0.9248  0.8112
 1399SOL    MW4 5643   3.589   0.382   2.350 -0.4444 -0.0832  0.3250
 1400SOL     OW 5644   3.828   0.487   2.251  0.2086 -0.3658  0.5349
 1400SOL    HW2 5645   3.847   0.575   2.284  1.1358 -0.3302 -0.0725
 1400SOL    HW3 5646   3.829   0.496   2.156 -1.1623 -0.7362  0.4780
 1400SOL    MW4 5647   3.831   0.500   2.243  0.1500 -0.4099  0.4473
 1401SOL     OW 5648   3.860   0.762   2.316  0.7380  0.1989 -0.5281
 1401SOL    HW2 5649   3.860   0.780   2.410  0.1464 -1.2208 -0.2482
 1401SOL    HW3 5650   3.938   0.807   2.284  0.8874  0.7901  0.6284
 1401SOL    MW4 5651   3.871   0.770   2.324  0.6795  0.0896 -0.3386
 1402SOL     OW 5652   3.627   0.900   2.220 -0.2362 -0.4454  0.0329
 1402SOL    HW2 5653   3.700   0.838   2.229 -0.2793 -0.5355 -0.2322
 1402SOL    HW3 5654   3.612   0.906   2.125  1.1174  1.5174 -0.0969
 1402SOL    MW4 5655   3.635   0.893   2.208 -0.0632 -0.1984 -0.0191
 1403SOL     OW 5656   3.570   1.178   2.303  0.1132 -0.6392 -0.9424
 1403SOL    HW2 5657   3.587   1.179   2.397  2.5130 -0.4682 -1.3447
 1403SOL    HW3 5658   3.586   1.087   2.277 -1.0211 -0.7988 -1.1335
 1403SOL    MW4 5659   3.574   1.166   2.312  0.2804 -0.6377 -1.0202
 1404SOL     OW 5660   3.807   1.302   2.262 -0.3347 -0.6447  0.5416
 1404SOL    HW2 5661   3.796   1.391   2.297 -0.2276 -0.6331  0.5483
 1404SOL    HW3 5662   3.722   1.261   2.273 -1.1680  0.3436 -1.9754
 1404SOL    MW4 5663   3.795   1.309   2.268 -0.4303 -0.5128  0.2105
 1405SOL     OW 5664   3.819   1.579   2.346  0.3919 -0.3378 -0.3641
 1405SOL    HW2 5665   3.821   1.583   2.441  1.3713  0.6927 -0.4178
 1405SOL    HW3 5666   3.736   1.620   2.322 -0.2163 -1.2889  0.0574
 1405SOL    MW4 5667   3.808   1.585   2.355  0.4408 -0.3275 -0.3157
 1406SOL     OW 5668   3.578   1.663   2.253 -0.4416 -0.3419  0.2041
 1406SOL    HW2 5669   3.504   1.606   2.276 -0.1956 -0.7765 -0.0652
 1406SOL    HW3 5670   3.566   1.680   2.159 -0.3995 -0.1196  0.2404
 1406SOL    MW4 5671   3.566   1.658   2.243 -0.4034 -0.3699  0.1736
 1407SOL     OW 5672   3.630   1.922   2.320 -0.0849 -0.3612 -0.0093
 1407SOL    HW2 5673   3.711   1.962   2.289  0.3871 -1.5104 -0.2870
 1407SOL    HW3 5674   3.628   1.835   2.278 -0.9259 -0.7595  0.8324
 1407SOL    MW4 5675   3.640   1.916   2.310 -0.1338 -0.5654  0.0653
 1408SOL     OW 5676   3.842   2.052   2.227 -0.2207  0.3224 -0.4525
 1408SOL    HW2 5677   3.925   2.016   2.258 -0.1116  1.2381  0.3570
 1408SOL    HW3 5678   3.855   2.064   2.133  0.2443 -0.3814 -0.4845
 1408SOL    MW4 5679   3.855   2.049   2.219 -0.1450  0.3502 -0.3498
 1409SOL     OW 5680   3.855   2.319   2.329 -0.3880 -0.0974  0.2733
 1409SOL    HW2 5681   3.786   2.369   2.287  1.4931  1.8765 -0.5688
 1409SOL    HW3 5682   3.852   2.233   2.286 -1.1230  0.5646 -1.0228
 1409SOL    MW4 5683   3.846   2.314   2.318 -0.2367  0.2506 -0.0086
 1410SOL     OW 5684   3.654   2.451   2.211 -0.3386  0.7686 -0.3910
 1410SOL    HW2 5685   3.576   2.404   2.242 -0.5760  1.8551  0.6977
 1410SOL    HW3 5686   3.646   2.452   2.116 -0.2533 -1.5203 -0.4499
 1410SOL    MW4 5687   3.643   2.445   2.202 -0.3586  0.6104 -0.2553
 1411SOL     OW 5688   3.609   2.718   2.311 -0.1562  0.2732 -0.3919
 1411SOL    HW2 5689   3.592   2.626   2.289 -0.3892 -0.1328  1.4016
 1411SOL    HW3 5690   3.535   2.766   2.274 -0.0335 -0.2695 -1.3400
 1411SOL    MW4 5691   3.597   2.712   2.304 -0.1705  0.1483 -0.2804
 1412SOL     OW 5692   3.834   2.843   2.210  0.0954 -0.5652  0.0000
 1412SOL    HW2 5693   3.824   2.920   2.265 -1.7144  0.6416 -1.9299
 1412SOL    HW3 5694   3.765   2.783   2.239  0.5535 -0.8478  0.5090
 1412SOL    MW4 5695   3.824   2.845   2.221 -0.0830 -0.4430 -0.1874
 1413SOL     OW 5696   3.811   3.088   2.342 -0.0466  0.4330  0.4734
 1413SOL    HW2 5697   3.803   3.094   2.437  0.1297  1.9346  0.3979
 1413SOL    HW3 5698   3.899   3.119   2.323  0.4080 -1.1288 -0.0833
 1413SOL    MW4 5699   3.822   3.093   2.352  0.0367  0.4249  0.3898
 1414SOL     OW 5700   3.587   3.225   2.213  0.3738 -0.7844  0.0862
 1414SOL    HW2 5701   3.576   3.319   2.230  0.0960 -0.9555  0.8416
 1414SOL    HW3 5702   3.672   3.204   2.253 -0.0292 -1.0707  0.7859
 1414SOL    MW4 5703   3.597   3.235   2.221  0.2842 -0.8447  0.2780
 1415SOL     OW 5704   3.616   3.488   2.286 -0.4452  0.3447  0.3232
 1415SOL    HW2 5705   3.615   3.484   2.381 -1.1640  1.5925  0.3743
 1415SOL    HW3 5706   3.703   3.521   2.264 -0.4394  0.4899  0.5685
 1415SOL    MW4 5707   3.627   3.492   2.295 -0.5393  0.5286  0.3624
 1416SOL     OW 5708   3.865   3.615   2.239 -0.1873  0.1202  0.4736
 1416SOL    HW2 5709   3.844   3.707   2.252 -1.6066 -0.2563  0.9954
 1416SOL    HW3 5710   3.858   3.602   2.145 -0.7134  0.3861  0.4739
 1416SOL    MW4 5711   3.861   3.625   2.229 -0.4437  0.1056  0.5429
 1417SOL     OW 5712   3.818   3.882   2.310  0.2006 -0.6440  0.2023
 1417SOL    HW2 5713   3.816   3.884   2.405 -0.4740  0.2363  0.1823
 1417SOL    HW3 5714   3.897   3.931   2.286  0.6844 -1.3616  0.3128
 1417SOL    MW4 5715   3.828   3.889   2.319  0.1755 -0.6225  0.2141
 1418SOL     OW 5716   3.599   4.008   2.216 -0.0368 -0.2291 -0.3098
 1418SOL    HW2 5717   3.603   4.095   2.256  0.5034  0.1363 -1.1281
 1418SOL    HW3 5718   3.674   3.961   2.253 -0.7627 -0.6083  0.7041
 1418SOL    MW4 5719   3.609   4.014   2.226 -0.0613 -0.2308 -0.2842
 1419SOL     OW 5720   3.592   4.247   2.345  0.1345 -0.0328 -0.4681
 1419SOL    HW2 5721   3.667   4.304   2.325 -0.0806  0.8531  1.1370
 1419SOL    HW3 5722   3.520   4.283   2.295  0.1585  0.7122  0.0320
 1419SOL    MW4 5723   3.593   4.259   2.336  0.1090  0.1817 -0.1903
 1420SOL     OW 5724   3.787   4.420   2.239 -0.4659 -0.5479  0.1223
 1420SOL    HW2 5725   3.862   4.383   2.284  0.1400  0.4660 -0.0249
 1420SOL    HW3 5726   3.786   4.512   2.265 -1.6055 -0.5298  0.0533
 1420SOL    MW4 5727   3.797   4.427   2.248 -0.5362 -0.4125  0.0932
 1421SOL     OW 5728   4.278   4.631   2.320 -0.2732 -0.1280  0.0601
 1421SOL    HW2 5729   4.265   4.641   2.414 -1.6636  1.9472 -0.3389
 1421SOL    HW3 5730   4.344   4.697   2.297  0.2871 -0.8287 -0.3843
 1421SOL    MW4 5731   4.285   4.641   2.329 -0.3834  0.0539 -0.0513
 1422SOL     OW 5732   4.039   0.084   2.237  0.7042  0.7838  0.0749
 1422SOL    HW2 5733   4.052   0.166   2.285  1.2230  0.3373  0.6949
 1422SOL    HW3 5734   4.114   0.030   2.261 -0.8448 -0.7750  1.4826
 1422SOL    MW4 5735   4.051   0.088   2.246  0.5684  0.5192  0.3424
 1423SOL     OW 5736   4.064   0.370   2.338  0.2890  0.1155 -0.8596
 1423SOL    HW2 5737   4.129   0.425   2.294  0.2475  0.3356 -0.6430
 1423SOL    HW3 5738   3.981   0.392   2.296  0.4103 -0.4460 -1.4037
 1423SOL    MW4 5739   4.061   0.380   2.327  0.2999  0.0704 -0.9027
 1424SOL     OW 5740   4.242   0.530   2.211  0.3887  0.1208  0.0505
 1424SOL    HW2 5741   4.252   0.619   2.247 -1.0292 -0.2521  1.4281
 1424SOL    HW3 5742   4.315   0.481   2.248 -0.0538  0.1860  1.0229
 1424SOL    MW4 5743   4.253   0.536   2.220  0.1431  0.0803  0.3603
 1425SOL     OW 5744   4.314   0.777   2.308 -0.0921 -0.2368 -0.1059
 1425SOL    HW2 5745   4.230   0.823   2.307  0.9595  1.7126 -0.9420
 1425SOL    HW3 5746   4.375   0.837   2.266  1.8083 -1.4947  0.7778
 1425SOL    MW4 5747   4.311   0.791   2.303  0.2975 -0.1456 -0.0997
 1426SOL     OW 5748   4.087   0.920   2.261  0.0231 -0.0758 -0.1186
 1426SOL    HW2 5749   4.052   0.998   2.303  0.3172 -0.2466  0.4536
 1426SOL    HW3 5750   4.075   0.935   2.167 -1.7276 -0.2102  0.0768
 1426SOL    MW4 5751   4.081   0.932   2.254 -0.1693 -0.1161 -0.0174
 1427SOL     OW 5752   4.029   1.166   2.380  0.8135 -0.2608  0.4487
 1427SOL    HW2 5753   4.035   1.173   2.475  0.1611 -0.6926  0.5319
 1427SOL    HW3 5754   3.955   1.222   2.357 -0.9130 -2.4254  0.5319
 1427SOL    MW4 5755   4.020   1.174   2.390  0.5002 -0.6032  0.4706
 1428SOL     OW 5756   4.212   1.261   2.197  0.4979  0.1401  0.1217
 1428SOL    HW2 5757   4.146   1.232   2.261  0.7456  0.0689  0.3458
 1428SOL    HW3 5758   4.295   1.226   2.230  0.7158  0.6231  0.0874
 1428SOL    MW4 5759   4.214   1.253   2.210  0.5593  0.1945  0.1469
 1429SOL     OW 5760   4.261   1.500   2.340 -0.1304  0.1265 -0.5220
 1429SOL    HW2 5761   4.239   1.418   2.295  0.3351 -0.3630  0.1340
 1429SOL    HW3 5762   4.315   1.548   2.277  0.2062 -0.3894 -0.6318
 1429SOL    MW4 5763   4.265   1.496   2.325 -0.0243 -0.0061 -0.4499
 1430SOL     OW 5764   4.067   1.662   2.223  0.4547 -0.2943  0.7104
 1430SOL    HW2 5765   4.132   1.618   2.277 -0.2133 -1.7773  0.3202
 1430SOL    HW3 5766   3.983   1.623   2.249  0.1672 -1.3260 -1.6525
 1430SOL    MW4 5767   4.064   1.651   2.234  0.3285 -0.6261  0.3471
 1431SOL     OW 5768   4.070   1.916   2.318 -0.3608 -0.4074 -0.0113
 1431SOL    HW2 5769   4.035   1.909   2.406 -0.0294 -0.6813  0.1006
 1431SOL    HW3 5770   4.081   1.826   2.289  0.2600 -0.3305 -0.0367
 1431SOL    MW4 5771   4.067   1.904   2.326 -0.2351 -0.4333  0.0002
 1432SOL     OW 5772   4.288   2.044   2.206  0.1630 -0.0020  0.2787
 1432SOL    HW2 5773   4.261   2.123   2.253 -0.6654  0.2183 -0.5330
 1432SOL    HW3 5774   4.224   1.977   2.233  0.5996 -0.2749  0.6314
 1432SOL    MW4 5775   4.276   2.046   2.215  0.1106 -0.0091  0.2179
 1433SOL     OW 5776   4.237   2.274   2.352 -0.0867  0.0033 -0.5460
 1433SOL    HW2 5777   4.172   2.320   2.298 -0.1191  0.3298 -0.2326
 1433SOL    HW3 5778   4.321   2.309   2.322 -0.2175  1.7277  1.0428
 1433SOL    MW4 5779   4.240   2.285   2.341 -0.1078  0.2742 -0.2954
 1434SOL     OW 5780   4.055   2.443   2.219 -0.1214 -0.4151 -0.1784
 1434SOL    HW2 5781   4.054   2.534   2.250 -0.9743  0.1117 -1.6781
 1434SOL    HW3 5782   3.989   2.399   2.272  0.1788 -0.1204  0.4443
 1434SOL    MW4 5783   4.046   2.449   2.230 -0.1941 -0.3071 -0.2942
 1435SOL     OW 5784   4.049   2.712   2.336  0.1659  0.3439  0.5800
 1435SOL    HW2 5785   4.026   2.720   2.428 -0.0480  0.2738  0.5324
 1435SOL    HW3 5786   3.978   2.755   2.289  0.0762  0.0334  0.4299
 1435SOL    MW4 5787   4.037   2.719   2.342  0.1264  0.2935  0.5538
 1436SOL     OW 5788   4.272   2.810   2.200  0.0443 -0.5945 -0.1687
 1436SOL    HW2 5789   4.203   2.760   2.245 -0.2054 -0.5206 -0.4707
 1436SOL    HW3 5790   4.354   2.772   2.233 -0.1418 -0.8037  0.0545
 1436SOL    MW4 5791   4.274   2.798   2.211 -0.0138 -0.6123 -0.1793
 1437SOL     OW 5792   4.291   3.044   2.375 -0.4923 -0.0056  0.3791
 1437SOL    HW2 5793   4.285   2.968   2.317 -1.0045  0.6641 -0.4437
 1437SOL    HW3 5794   4.358   3.099   2.334  0.3278 -0.2968  1.3087
 1437SOL    MW4 5795   4.299   3.041   2.362 -0.4516  0.0441  0.3934
 1438SOL     OW 5796   4.055   3.185   2.272  0.3402 -0.0933  0.7376
 1438SOL    HW2 5797   4.061   3.273   2.308  1.0859 -0.2651  1.0431
 1438SOL    HW3 5798   4.134   3.140   2.304  0.8153 -0.3733 -0.7734
 1438SOL    MW4 5799   4.066   3.190   2.281  0.5007 -0.1528  0.5784
 1439SOL     OW 5800   4.071   3.438   2.364  0.4013  0.3099  0.7397
 1439SOL    HW2 5801   4.154   3.473   2.333  0.4007 -1.9948 -2.0224
 1439SOL    HW3 5802   4.005   3.497   2.326  0.5391 -1.0370 -1.7201
 1439SOL    MW4 5803   4.073   3.450   2.355  0.4191 -0.1719  0.0510
 1440SOL     OW 5804   4.285   3.603   2.288 -0.7166  0.1802  0.5563
 1440SOL    HW2 5805   4.242   3.683   2.317 -1.4287 -0.0900  0.2632
 1440SOL    HW3 5806   4.298   3.615   2.194 -2.4334 -0.7698  0.1794
 1440SOL    MW4 5807   4.281   3.615   2.279 -1.0371  0.0193  0.4678
 1441SOL     OW 5808   4.218   3.889   2.358  0.3138 -0.0433 -0.1108
 1441SOL    HW2 5809   4.218   3.869   2.452 -0.1005  0.9808  0.1075
 1441SOL    HW3 5810   4.308   3.914   2.338  0.2518  0.3770  0.1464
 1441SOL    MW4 5811   4.230   3.890   2.368  0.2508  0.1471 -0.0482
 1442SOL     OW 5812   4.024   4.049   2.230  0.2230 -0.2893 -0.0592
 1442SOL    HW2 5813   4.093   4.006   2.281 -1.1224 -0.9849  1.2362
 1442SOL    HW3 5814   4.039   4.020   2.140  1.9766  0.0654  0.1168
 1442SOL    MW4 5815   4.035   4.039   2.225  0.2766 -0.3338  0.1352
 1443SOL     OW 5816   4.028   4.308   2.341 -0.0016  0.0655  0.0714
 1443SOL    HW2 5817   4.112   4.341   2.308 -0.3777  0.0561 -0.9226
 1443SOL    HW3 5818   4.017   4.223   2.298 -1.2778  0.7930 -1.0813
 1443SOL    MW4 5819   4.038   4.301   2.331 -0.2193  0.1607 -0.2117
 1444SOL     OW 5820   4.284   4.382   2.226  0.2095  0.3390  0.2141
 1444SOL    HW2 5821   4.292   4.472   2.260  1.6151 -0.3897  1.8582
 1444SOL    HW3 5822   4.367   4.340   2.248 -1.3103 -2.0761  1.5618
 1444SOL    MW4 5823   4.296   4.389   2.233  0.1941 -0.0753  0.6087
 1445SOL     OW 5824   0.233   4.666   2.643 -0.4516 -0.0584 -0.0016
 1445SOL    HW2 5825   0.226   4.572   2.663  0.9106 -0.1096  0.2878
 1445SOL    HW3 5826   0.146   4.701   2.663 -0.4490 -0.9266  1.6719
 1445SOL    MW4 5827   0.221   4.658   2.649 -0.2716 -0.1798  0.2573
 1446SOL     OW 5828   4.463   0.102   2.708 -0.0063 -0.2657 -0.0429
 1446SOL    HW2 5829   4.440   0.098   2.801 -1.5916  0.2869 -0.4025
 1446SOL    HW3 5830   4.460   0.195   2.686  0.1896 -0.4088 -0.6979
 1446SOL    MW4 5831   4.460   0.114   2.717 -0.1898 -0.2116 -0.1769
 1447SOL     OW 5832   4.468   0.379   2.639 -0.0742  0.5492 -0.4218
 1447SOL    HW2 5833   4.550   0.421   2.663  0.4190 -1.5889  1.9572
 1447SOL    HW3 5834   4.464   0.384   2.544  3.1417  0.0790 -0.6123
 1447SOL    MW4 5835   4.478   0.385   2.630  0.4152  0.2051 -0.1330
 1448SOL     OW 5836   0.241   0.489   2.692 -0.0417 -0.2576 -0.1673
 1448SOL    HW2 5837   0.235   0.475   2.787  1.1878 -1.7532 -0.2731
 1448SOL    HW3 5838   0.306   0.425   2.664 -1.7875 -1.1388 -2.3053
 1448SOL    MW4 5839   0.249   0.478   2.701 -0.1098 -0.5712 -0.4632
 1449SOL     OW 5840   0.240   0.742   2.569 -0.4294  0.3304 -0.0940
 1449SOL    HW2 5841   0.251   0.652   2.600  0.8316  0.4417 -0.1876
 1449SOL    HW3 5842   0.310   0.791   2.613 -0.3502  1.0263 -0.9714
 1449SOL    MW4 5843   0.251   0.736   2.579 -0.2526  0.4368 -0.2222
 1450SOL     OW 5844   0.031   0.895   2.672 -0.0035  0.5271 -0.0389
 1450SOL    HW2 5845  -0.049   0.859   2.632  0.5928 -0.1419 -0.6441
 1450SOL    HW3 5846   0.102   0.845   2.631  0.5624 -1.2394  2.9865
 1450SOL    MW4 5847   0.029   0.883   2.661  0.1498  0.2057  0.2804
 1451SOL     OW 5848   4.474   1.163   2.578  0.3075 -0.3999  0.2362
 1451SOL    HW2 5849   4.554   1.192   2.622  1.5574 -2.4017 -0.6487
 1451SOL    HW3 5850   4.469   1.070   2.598 -0.9189 -0.6294 -1.0926
 1451SOL    MW4 5851   4.484   1.155   2.587  0.3106 -0.6943 -0.0558
 1452SOL     OW 5852   0.220   1.276   2.663 -0.1432 -0.1228 -0.3286
 1452SOL    HW2 5853   0.299   1.233   2.629 -0.5367 -0.6887 -0.5216
 1452SOL    HW3 5854   0.234   1.369   2.643  0.7771 -0.1266  0.2272
 1452SOL    MW4 5855   0.232   1.283   2.656 -0.0737 -0.1980 -0.2809
 1453SOL     OW 5856   0.239   1.544   2.609 -0.4762  0.0213  0.1335
 1453SOL    HW2 5857   0.311   1.589   2.652 -0.9515  1.6426 -0.7013
 1453SOL    HW3 5858   0.160   1.583   2.647 -0.8947  0.8051 -1.4967
 1453SOL    MW4 5859   0.238   1.555   2.620 -0.5942  0.3387 -0.1917
 1454SOL     OW 5860   0.010   1.645   2.721 -0.6724 -0.5638 -0.0281
 1454SOL    HW2 5861  -0.002   1.636   2.816  0.0988 -0.3265  0.0964
 1454SOL    HW3 5862   0.005   1.739   2.705 -0.1735 -0.5477 -0.1244
 1454SOL    MW4 5863   0.008   1.656   2.732 -0.5048 -0.5304 -0.0241
 1455SOL     OW 5864   4.487   1.918   2.655 -0.5913 -0.2640  0.0392
 1455SOL    HW2 5865   4.503   1.896   2.563 -0.4153 -0.8873  0.2125
 1455SOL    HW3 5866   4.558   1.977   2.679  0.9775 -2.2766  0.5437
 1455SOL    MW4 5867   4.498   1.923   2.646 -0.3610 -0.6118  0.1287
 1456SOL     OW 5868   0.216   2.088   2.736  0.0311  0.1091  0.2335
 1456SOL    HW2 5869   0.286   2.043   2.690 -0.7531 -1.7678  0.8102
 1456SOL    HW3 5870   0.209   2.173   2.694  1.0235 -0.6200 -1.4159
 1456SOL    MW4 5871   0.224   2.093   2.725  0.0586 -0.2351  0.0920
 1457SOL     OW 5872   0.197   2.326   2.587  0.2688 -0.2955  0.5539
 1457SOL    HW2 5873   0.273   2.375   2.619 -0.1456  1.2020 -0.6847
 1457SOL    HW3 5874   0.122   2.368   2.627 -0.0555 -0.2451 -0.0942
 1457SOL    MW4 5875   0.197   2.338   2.596  0.1713 -0.0913  0.3052
 1458SOL     OW 5876   4.462   2.437   2.725  0.1230  0.1936 -0.0165
 1458SOL    HW2 5877   4.463   2.443   2.821 -0.1706  0.6339 -0.0391
 1458SOL    HW3 5878   4.380   2.393   2.705  0.1303  0.2028 -0.0681
 1458SOL    MW4 5879   4.451   2.432   2.735  0.0854  0.2530 -0.0260
 1459SOL     OW 5880   4.478   2.709   2.611  0.0388  0.3228  0.1602
 1459SOL    HW2 5881   4.400   2.742   2.656  0.0112 -1.3147  1.3576
 1459SOL    HW3 5882   4.487   2.619   2.642  1.1897 -0.1828 -1.6066
 1459SOL    MW4 5883   4.469   2.702   2.621  0.1869  0.0401  0.0851
 1460SOL     OW 5884   0.226   2.822   2.705 -0.2618  0.2420 -0.0483
 1460SOL    HW2 5885   0.254   2.907   2.672  0.8786 -0.4844 -0.9825
 1460SOL    HW3 5886   0.146   2.802   2.656  0.6669 -0.2066 -1.4094
 1460SOL    MW4 5887   0.219   2.831   2.694  0.0112  0.0870 -0.3510
 1461SOL     OW 5888   0.257   3.075   2.606 -0.0831  0.4042 -0.0804
 1461SOL    HW2 5889   0.332   3.132   2.624  0.1010  0.2329 -0.3129
 1461SOL    HW3 5890   0.260   3.060   2.512  0.6071 -1.0121  0.1548
 1461SOL    MW4 5891   0.268   3.081   2.596  0.0323  0.1948 -0.0801
 1462SOL     OW 5892   0.024   3.189   2.720 -0.0626  0.3566 -0.2395
 1462SOL    HW2 5893  -0.058   3.152   2.688  0.2165 -1.5272  1.1237
 1462SOL    HW3 5894   0.092   3.143   2.670  0.2480 -0.1505  0.6354
 1462SOL    MW4 5895   0.022   3.178   2.710  0.0152  0.0415  0.0558
 1463SOL     OW 5896   0.033   3.458   2.626  0.0773  0.1205  0.2043
 1463SOL    HW2 5897   0.109   3.507   2.656  0.2568  0.3006 -0.5148
 1463SOL    HW3 5898   0.042   3.372   2.665  2.1659 -0.7578 -2.0877
 1463SOL    MW4 5899   0.044   3.453   2.635  0.3766  0.0284 -0.1926
 1464SOL     OW 5900   0.222   3.615   2.747 -0.2281 -0.8536  0.4679
 1464SOL    HW2 5901   0.217   3.613   2.842 -2.5238 -0.5565  0.3791
 1464SOL    HW3 5902   0.303   3.567   2.726 -0.0329 -1.4617  2.5223
 1464SOL    MW4 5903   0.232   3.608   2.757 -0.5052 -0.8948  0.7274
 1465SOL     OW 5904   0.193   3.874   2.601  0.1585  0.0806 -0.2454
 1465SOL    HW2 5905   0.190   3.781   2.623 -1.1041  0.1595 -0.0655
 1465SOL    HW3 5906   0.197   3.876   2.506 -2.1806 -0.1351 -0.3748
 1465SOL    MW4 5907   0.194   3.862   2.591 -0.3167  0.0625 -0.2389
 1466SOL     OW 5908   4.471   4.020   2.701 -0.1510 -0.4689 -0.3211
 1466SOL    HW2 5909   4.485   4.105   2.659  0.6539 -0.1506  0.5579
 1466SOL    HW3 5910   4.543   3.965   2.668 -0.1790 -0.5614 -0.2291
 1466SOL    MW4 5911   4.483   4.024   2.691 -0.0486 -0.4392 -0.1931
 1467SOL     OW 5912   4.477   4.263   2.581 -0.2139 -0.0075 -0.4165
 1467SOL    HW2 5913   4.412   4.310   2.633  0.0181 -1.4125  1.1608
 1467SOL    HW3 5914   4.561   4.302   2.608 -0.1509 -0.2418 -0.2758
 1467SOL    MW4 5915   4.480   4.274   2.591 -0.1750 -0.2232 -0.1900
 1468SOL     OW 5916   0.200   4.396   2.710  0.2010  0.0510 -0.1554
 1468SOL    HW2 5917   0.220   4.404   2.803  0.7999  2.6583 -0.4818
 1468SOL    HW3 5918   0.274   4.349   2.673  0.4611 -0.0618  0.5121
 1468SOL    MW4 5919   0.212   4.391   2.717  0.3143  0.3800 -0.1104
 1469SOL     OW 5920   0.666   4.646   2.596  0.5070 -0.3655  0.1942
 1469SOL    HW2 5921   0.750   4.691   2.608 -0.1088  0.9925 -0.4286
 1469SOL    HW3 5922   0.603   4.697   2.648 -0.1009 -0.8555 -0.0484
 1469SOL    MW4 5923   0.669   4.659   2.604  0.3455 -0.2508  0.0799
 1470SOL     OW 5924   0.469   0.138   2.726  0.1658  0.2513 -0.4594
 1470SOL    HW2 5925   0.474   0.132   2.822  0.4289 -0.1993 -0.4994
 1470SOL    HW3 5926   0.384   0.100   2.704 -1.3173  3.2546 -0.1686
 1470SOL    MW4 5927   0.458   0.132   2.736  0.0048  0.5881 -0.4263
 1471SOL     OW 5928   0.476   0.368   2.590 -0.5269 -0.4866 -0.1360
 1471SOL    HW2 5929   0.552   0.416   2.624 -1.9153  1.1356  0.7791
 1471SOL    HW3 5930   0.472   0.289   2.644 -0.8645  0.5682  1.4268
 1471SOL    MW4 5931   0.485   0.364   2.602 -0.7546 -0.1334  0.1912
 1472SOL     OW 5932   0.677   0.519   2.717 -0.1580  0.2597  0.0274
 1472SOL    HW2 5933   0.685   0.500   2.811 -1.2963 -2.6693 -0.4241
 1472SOL    HW3 5934   0.745   0.464   2.676 -1.0901 -0.1135 -1.0313
 1472SOL    MW4 5935   0.687   0.509   2.724 -0.4312 -0.1760 -0.1719
 1473SOL     OW 5936   0.679   0.752   2.559  0.4191 -0.4439  0.0591
 1473SOL    HW2 5937   0.761   0.794   2.587  0.2035 -0.3526  0.5532
 1473SOL    HW3 5938   0.673   0.673   2.612  0.1223 -0.3882  0.1055
 1473SOL    MW4 5939   0.689   0.747   2.570  0.3515 -0.4245  0.1304
 1474SOL     OW 5940   0.446   0.858   2.708 -0.2164 -0.3958 -0.3707
 1474SOL    HW2 5941   0.473   0.949   2.697 -0.4897 -0.2544  0.1115
 1474SOL    HW3 5942   0.505   0.808   2.651  0.3602  0.0144 -0.1343
 1474SOL    MW4 5943   0.458   0.863   2.699 -0.1764 -0.3231 -0.2759
 1475SOL     OW 5944   0.465   1.144   2.613  0.0647 -0.4883 -0.0387
 1475SOL    HW2 5945   0.539   1.200   2.636  0.8862 -1.8996  0.8716
 1475SOL    HW3 5946   0.471   1.134   2.517  0.5608  0.0842 -0.0676
 1475SOL    MW4 5947   0.476   1.150   2.603  0.2385 -0.5990  0.0777
 1476SOL     OW 5948   0.696   1.278   2.684 -0.0443 -0.1112  0.3151
 1476SOL    HW2 5949   0.714   1.276   2.778 -1.7261 -1.7682  0.6448
 1476SOL    HW3 5950   0.772   1.237   2.644  0.2205 -0.3439  1.0476
 1476SOL    MW4 5951   0.708   1.272   2.691 -0.2313 -0.3604  0.4554
 1477SOL     OW 5952   0.702   1.565   2.616 -0.8039 -0.0039 -0.1956
 1477SOL    HW2 5953   0.631   1.618   2.651  0.1953  0.0358  1.8831
 1477SOL    HW3 5954   0.677   1.475   2.637 -1.2564 -0.1653 -1.3924
 1477SOL    MW4 5955   0.689   1.560   2.623 -0.7318 -0.0201 -0.0794
 1478SOL     OW 5956   0.451   1.698   2.714 -0.1041 -0.4853  0.4777
 1478SOL    HW2 5957   0.444   1.699   2.810  0.8012 -0.3429  0.5464
 1478SOL    HW3 5958   0.440   1.790   2.689  0.4511 -0.4039  0.5136
 1478SOL    MW4 5959   0.449   1.710   2.723  0.0886 -0.4557  0.4914
 1479SOL     OW 5960   0.401   1.946   2.607  0.5555 -0.0665  0.4740
 1479SOL    HW2 5961   0.486   1.985   2.631  0.7186 -0.3747  0.3933
 1479SOL    HW3 5962   0.409   1.927   2.514  1.3068 -2.3841  0.9790
 1479SOL    MW4 5963   0.414   1.949   2.598  0.6762 -0.4129  0.5298
 1480SOL     OW 5964   0.642   2.052   2.699  0.3052 -0.1459  0.0927
 1480SOL    HW2 5965   0.665   2.053   2.792  0.8573 -0.6313 -0.0323
 1480SOL    HW3 5966   0.710   1.998   2.659 -0.3009 -0.4737 -0.4964
 1480SOL    MW4 5967   0.654   2.045   2.706  0.2980 -0.2532 -0.0014
 1481SOL     OW 5968   0.671   2.309   2.606 -0.4885  0.2265  0.0429
 1481SOL    HW2 5969   0.742   2.351   2.656 -0.8186 -0.9306  1.5463
 1481SOL    HW3 5970   0.664   2.222   2.645 -1.8685 -0.1304 -0.9750
 1481SOL    MW4 5971   0.680   2.303   2.618 -0.7141  0.0267  0.1070
 1482SOL     OW 5972   0.429   2.422   2.701 -0.6919 -0.2130  0.5356
 1482SOL    HW2 5973   0.427   2.512   2.669 -1.3163  0.6260  2.8464
 1482SOL    HW3 5974   0.514   2.388   2.672 -0.5898  1.0014 -0.6408
 1482SOL    MW4 5975   0.440   2.430   2.693 -0.7608  0.0579  0.6852
 1483SOL     OW 5976   0.465   2.725   2.600  0.0397  0.2615  0.2582
 1483SOL    HW2 5977   0.536   2.768   2.648 -0.0971 -0.1163  0.8016
 1483SOL    HW3 5978   0.386   2.752   2.645  0.0061 -1.2161  1.1158
 1483SOL    MW4 5979   0.464   2.734   2.612  0.0172  0.0167  0.4430
 1484SOL     OW 5980   0.666   2.829   2.751 -0.0009 -0.1535 -0.2810
 1484SOL    HW2 5981   0.680   2.833   2.846 -1.0793 -1.6469 -0.0398
 1484SOL    HW3 5982   0.684   2.918   2.720 -1.4448  0.8146  1.5634
 1484SOL    MW4 5983   0.671   2.841   2.760 -0.3337 -0.2229 -0.0060
 1485SOL     OW 5984   0.691   3.075   2.623 -0.0095 -0.1892 -0.1868
 1485SOL    HW2 5985   0.776   3.112   2.649 -0.6734 -0.1070  1.9252
 1485SOL    HW3 5986   0.699   3.061   2.529  2.5539 -0.6992  0.0751
 1485SOL    MW4 5987   0.703   3.078   2.614  0.2412 -0.2456  0.1264
 1486SOL     OW 5988   0.476   3.228   2.690 -0.1870  0.1463 -0.1630
 1486SOL    HW2 5989   0.474   3.235   2.785 -1.1894  0.2616 -0.1868
 1486SOL    HW3 5990   0.553   3.175   2.671 -0.3922 -0.4739  0.7439
 1486SOL    MW4 5991   0.486   3.222   2.700 -0.3463  0.0796 -0.0465
 1487SOL     OW 5992   0.470   3.483   2.624 -0.5472  0.1022 -0.0748
 1487SOL    HW2 5993   0.465   3.390   2.644 -1.1715  0.1374 -0.0624
 1487SOL    HW3 5994   0.483   3.486   2.529 -2.0469  0.0308 -0.2916
 1487SOL    MW4 5995   0.471   3.471   2.614 -0.8275  0.0975 -0.1020
 1488SOL     OW 5996   0.687   3.605   2.719 -0.2246 -0.4504 -0.2920
 1488SOL    HW2 5997   0.671   3.624   2.812  1.2868 -0.3803 -0.0260
 1488SOL    HW3 5998   0.610   3.557   2.690 -0.4912 -0.9011  1.1409
 1488SOL    MW4 5999   0.675   3.601   2.728 -0.0604 -0.5004 -0.0679
 1489SOL     OW 6000   0.660   3.872   2.634 -0.3216 -0.1448  0.0471
 1489SOL    HW2 6001   0.579   3.901   2.675 -0.4593  0.4672 -0.6511
 1489SOL    HW3 6002   0.664   3.778   2.654 -0.6582  0.0415  0.9868
 1489SOL    MW4 6003   0.650   3.863   2.642 -0.3842 -0.0393  0.0792
 1490SOL     OW 6004   0.428   3.979   2.744  0.1070 -0.3372 -0.0982
 1490SOL    HW2 6005   0.421   4.055   2.686 -0.4409  0.2226  0.6926
 1490SOL    HW3 6006   0.351   3.926   2.724 -0.1293 -0.0996  0.1680
 1490SOL    MW4 6007   0.417   3.982   2.734  0.0035 -0.2320  0.0415
 1491SOL     OW 6008   0.411   4.233   2.617  0.3256 -0.3347 -0.6850
 1491SOL    HW2 6009   0.494   4.271   2.647 -0.7237  2.7041 -1.4607
 1491SOL    HW3 6010   0.418   4.235   2.521 -0.3312 -0.7453 -0.7419
 1491SOL    MW4 6011   0.423   4.239   2.608  0.1005  0.0124 -0.7949
 1492SOL     OW 6012   0.642   4.385   2.688  0.2599  0.2159  0.0744
 1492SOL    HW2 6013   0.724   4.341   2.668  0.3143  0.4288 -0.1780
 1492SOL    HW3 6014   0.654   4.474   2.656  0.0296  0.3236  0.2817
 1492SOL    MW4 6015   0.654   4.391   2.681  0.2367  0.2584  0.0687
 1493SOL     OW 6016   1.113   4.623   2.570  0.2888 -0.2135 -0.2418
 1493SOL    HW2 6017   1.194   4.662   2.603 -0.1778 -1.2136  2.2078
 1493SOL    HW3 6018   1.114   4.534   2.603 -3.0947  0.5711  2.2246
 1493SOL    MW4 6019   1.124   4.617   2.579 -0.2192 -0.2418  0.4067
 1494SOL     OW 6020   0.903   0.095   2.647  0.1693  0.6887 -0.0748
 1494SOL    HW2 6021   0.889   0.082   2.741 -0.5129 -0.2177 -0.2939
 1494SOL    HW3 6022   0.993   0.066   2.631 -0.5644 -1.6283 -0.1469
 1494SOL    MW4 6023   0.913   0.089   2.657 -0.0175  0.2635 -0.1135
 1495SOL     OW 6024   0.881   0.367   2.575  0.3245 -0.2990  0.2747
 1495SOL    HW2 6025   0.885   0.276   2.603  1.4077 -0.6768 -1.0527
 1495SOL    HW3 6026   0.884   0.363   2.480 -1.0902  1.0663  0.1473
 1495SOL    MW4 6027   0.882   0.354   2.567  0.2808 -0.1687  0.0825
 1496SOL     OW 6028   1.112   0.489   2.630  0.2050 -0.6432  0.4304
 1496SOL    HW2 6029   1.088   0.582   2.635 -0.3127 -0.7138 -0.4853
 1496SOL    HW3 6030   1.031   0.446   2.602  0.4894 -1.3481  0.6959
 1496SOL    MW4 6031   1.098   0.496   2.627  0.1742 -0.7456  0.3448
 1497SOL     OW 6032   1.146   0.777   2.632  0.1158  0.2487  0.5018
 1497SOL    HW2 6033   1.231   0.817   2.649  0.8489 -0.8378 -0.4925
 1497SOL    HW3 6034   1.138   0.775   2.537 -1.4307  1.1411  0.5857
 1497SOL    MW4 6035   1.156   0.782   2.622  0.0085  0.2231  0.3817
 1498SOL     OW 6036   0.906   0.886   2.678 -0.1515 -0.1761  0.3951
 1498SOL    HW2 6037   0.896   0.891   2.773  0.2491 -2.0617  0.5518
 1498SOL    HW3 6038   0.987   0.838   2.664 -1.6710 -2.4610 -0.8768
 1498SOL    MW4 6039   0.915   0.880   2.689 -0.2992 -0.7263  0.2480
 1499SOL     OW 6040   0.923   1.165   2.603 -0.0768  0.0072  0.4763
 1499SOL    HW2 6041   0.906   1.073   2.623 -0.8758 -0.2162 -1.0875
 1499SOL    HW3 6042   0.946   1.165   2.510  0.3995  1.3350  0.5826
 1499SOL    MW4 6043   0.924   1.153   2.593 -0.1193  0.1529  0.2840
 1500SOL     OW 6044   1.151   1.267   2.735  0.4883  0.0522 -0.0836
 1500SOL    HW2 6045   1.164   1.360   2.718 -0.0799 -0.2677 -2.5229
 1500SOL    HW3 6046   1.067   1.246   2.694  1.0317 -1.7008 -0.3544
 1500SOL    MW4 6047   1.142   1.277   2.727  0.4848 -0.2215 -0.4413
 1501SOL     OW 6048   1.112   1.523   2.624 -0.2022 -0.0367  0.4168
 1501SOL    HW2 6049   1.047   1.579   2.667  1.3550  1.5623  0.7762
 1501SOL    HW3 6050   1.100   1.541   2.530  0.0518  0.6599  0.5103
 1501SOL    MW4 6051   1.102   1.533   2.617  0.0367  0.2662  0.4766
 1502SOL     OW 6052   0.919   1.682   2.724  0.0411  0.5280  0.1347
 1502SOL    HW2 6053   0.920   1.668   2.819  0.1997 -2.5256 -0.2657
 1502SOL    HW3 6054   0.837   1.642   2.695  0.3628  0.7633 -1.1143
 1502SOL    MW4 6055   0.908   1.675   2.733  0.1045  0.1560 -0.0830
 1503SOL     OW 6056   0.908   1.925   2.591 -0.0135 -0.8397 -0.4107
 1503SOL    HW2 6057   0.975   1.976   2.637 -1.2827  1.3281 -0.9349
 1503SOL    HW3 6058   0.915   1.838   2.630  0.6421  0.2914  2.1405
 1503SOL    MW4 6059   0.918   1.920   2.602 -0.0944 -0.4045 -0.1433
 1504SOL     OW 6060   1.127   2.042   2.708 -0.0459  0.3566  0.1823
 1504SOL    HW2 6061   1.200   1.993   2.669 -0.4584  0.1758 -0.3679
 1504SOL    HW3 6062   1.135   2.130   2.670  1.2169  0.9823  1.8355
 1504SOL    MW4 6063   1.138   2.047   2.697  0.0665  0.4153  0.3278
 1505SOL     OW 6064   1.128   2.306   2.580 -0.2845  0.1927  0.6070
 1505SOL    HW2 6065   1.203   2.358   2.608  0.1227 -0.0682 -0.0053
 1505SOL    HW3 6066   1.119   2.323   2.487 -1.8111  1.2611  0.9333
 1505SOL    MW4 6067   1.137   2.315   2.572 -0.4323  0.2995  0.5691
 1506SOL     OW 6068   0.896   2.429   2.717  0.3540  0.1242  0.0118
 1506SOL    HW2 6069   0.897   2.518   2.682  0.1287  0.3240  0.5130
 1506SOL    HW3 6070   0.954   2.380   2.659  0.8555  0.7022  0.0236
 1506SOL    MW4 6071   0.904   2.435   2.705  0.3905  0.2267  0.0792
 1507SOL     OW 6072   0.891   2.695   2.603 -0.3664  0.9848 -0.3886
 1507SOL    HW2 6073   0.971   2.738   2.631 -0.5185  0.5516  0.7212
 1507SOL    HW3 6074   0.823   2.733   2.658 -0.6861  0.2012 -0.2382
 1507SOL    MW4 6075   0.892   2.705   2.614 -0.4286  0.8242 -0.2224
 1508SOL     OW 6076   1.122   2.845   2.695 -0.3967  0.1454 -0.3988
 1508SOL    HW2 6077   1.132   2.852   2.790 -2.0973  0.2807 -0.2223
 1508SOL    HW3 6078   1.204   2.804   2.666  0.4280  0.7243  1.0379
 1508SOL    MW4 6079   1.134   2.841   2.704 -0.5122  0.2396 -0.1860
 1509SOL     OW 6080   1.148   3.096   2.595  0.0000  0.0000  0.0604
 1509SOL    HW2 6081   1.122   3.007   2.618  0.0000  0.0000  0.0521
 1509SOL    HW3 6082   1.136   3.101   2.500  0.0000  0.0000  0.0604
 1509SOL    MW4 6083   1.143   3.085   2.585  0.0000  0.0000  0.0594
 1510SOL     OW 6084   0.919   3.208   2.725  0.0000  0.0000 -0.1505
 1510SOL    HW2 6085   0.903   3.287   2.673  0.0000  0.0000 -0.1404
 1510SOL    HW3 6086   1.006   3.179   2.698  0.0000  0.0000 -0.1760
 1510SOL    MW4 6087   0.928   3.215   2.715  0.0000  0.0000 -0.1523
 1511SOL     OW 6088   0.887   3.462   2.612  0.0000  0.0000  0.4256
 1511SOL    HW2 6089   0.961   3.509   2.651  0.0000  0.0000  0.3811
 1511SOL    HW3 6090   0.810   3.512   2.641  0.0000  0.0000  0.4580
 1511SOL    MW4 6091   0.887   3.475   2.621  0.0000  0.0000  0.4239
 1512SOL     OW 6092   1.102   3.599   2.710  0.0000  0.0000  0.0097
 1512SOL    HW2 6093   1.101   3.626   2.802  0.0000  0.0000  0.0091
 1512SOL    HW3 6094   1.100   3.681   2.661  0.0000  0.0000  0.0077
 1512SOL    MW4 6095   1.102   3.613   2.716  0.0000  0.0000  0.0091
 1513SOL     OW 6096   1.098   3.851   2.579  0.0000  0.0000  0.2846
 1513SOL    HW2 6097   1.178   3.889   2.617  0.0000  0.0000  0.2783
 1513SOL    HW3 6098   1.110   3.859   2.485  0.0000  0.0000  0.2837
 1513SOL    MW4 6099   1.110   3.857   2.572  0.0000  0.0000  0.2842
 1514SOL     OW 6100   0.893   4.008   2.699  0.0000  0.0000  0.4864
 1514SOL    HW2 6101   0.957   3.963   2.644  0.0000  0.0000  0.4809
 1514SOL    HW3 6102   0.809   3.969   2.674  0.0000  0.0000  0.4871
 1514SOL    MW4 6103   0.890   3.997   2.688  0.0000  0.0000  0.4859
 1515SOL     OW 6104   0.888   4.266   2.644  0.0000  0.0000  0.0702
 1515SOL    HW2 6105   0.892   4.173   2.669  0.0000  0.0000  0.0657
 1515SOL    HW3 6106   0.884   4.265   2.549  0.0000  0.0000  0.0702
 1515SOL    MW4 6107   0.888   4.254   2.635  0.0000  0.0000  0.0694
 1516SOL     OW 6108   1.144   4.351   2.702  0.0000  0.0000 -0.2148
 1516SOL    HW2 6109   1.137   4.378   2.794  0.0000  0.0000 -0.2139
 1516SOL    HW3 6110   1.055   4.327   2.678  0.0000  0.0000 -0.2167
 1516SOL    MW4 6111   1.131   4.351   2.711  0.0000  0.0000 -0.2153
 1517SOL     OW 6112   1.593   4.643   2.594  0.0000  0.0000 -0.0553
 1517SOL    HW2 6113   1.588   4.549   2.610  0.0000  0.0000 -0.0555
 1517SOL    HW3 6114   1.581   4.652   2.499  0.0000  0.0000 -0.0553
 1517SOL    MW4 6115   1.591   4.632   2.584  0.0000  0.0000 -0.0553
 1518SOL     OW 6116   1.365   0.068   2.679  0.2468  0.0767  0.0897
 1518SOL    HW2 6117   1.380   0.161   2.663 -1.1794  0.2685 -0.2040
 1518SOL    HW3 6118   1.446   0.025   2.652  1.9041  1.4603  2.6136
 1518SOL    MW4 6119   1.378   0.075   2.674  0.2775  0.2846  0.3841
 1519SOL     OW 6120   1.353   0.345   2.625  0.0851 -0.2435  0.4300
 1519SOL    HW2 6121   1.420   0.410   2.645 -0.7153  0.2039  1.6941
 1519SOL    HW3 6122   1.270   0.392   2.630 -0.5616 -1.4760  2.0376
 1519SOL    MW4 6123   1.351   0.359   2.628 -0.1059 -0.3471  0.8087
 1520SOL     OW 6124   1.563   0.530   2.664  0.5939  0.0926  0.2390
 1520SOL    HW2 6125   1.648   0.487   2.662  0.8729  0.6618 -0.8317
 1520SOL    HW3 6126   1.581   0.619   2.631  0.1076  1.1494  2.6817
 1520SOL    MW4 6127   1.577   0.536   2.659  0.5665  0.3071  0.4199
 1521SOL     OW 6128   1.617   0.775   2.572 -0.2267  0.4356 -0.0980
 1521SOL    HW2 6129   1.537   0.813   2.609 -0.1336  0.0611  0.5017
 1521SOL    HW3 6130   1.687   0.830   2.608  0.0032 -0.9980  1.7380
 1521SOL    MW4 6131   1.616   0.788   2.582 -0.1842  0.1970  0.2234
 1522SOL     OW 6132   1.397   0.900   2.695 -0.1991  0.2773 -0.0308
 1522SOL    HW2 6133   1.393   0.909   2.790  3.1141  0.1873  0.1646
 1522SOL    HW3 6134   1.393   0.990   2.662  0.1064  0.3957  0.2571
 1522SOL    MW4 6135   1.396   0.913   2.703  0.2782  0.2810  0.0329
 1523SOL     OW 6136   1.376   1.154   2.602  0.0432 -0.1384 -0.0247
 1523SOL    HW2 6137   1.442   1.207   2.647 -0.1877  0.0832  0.0543
 1523SOL    HW3 6138   1.292   1.192   2.628 -0.1533 -0.9384  0.5412
 1523SOL    MW4 6139   1.374   1.166   2.611 -0.0132 -0.2148  0.0606
 1524SOL     OW 6140   1.584   1.285   2.718  0.2927  0.5854 -0.2471
 1524SOL    HW2 6141   1.593   1.260   2.810 -0.4870  0.0737 -0.3022
 1524SOL    HW3 6142   1.655   1.240   2.674 -0.0939 -0.2011 -0.0829
 1524SOL    MW4 6143   1.594   1.275   2.724  0.1388  0.4140 -0.2325
 1525SOL     OW 6144   1.587   1.543   2.583 -0.1907  0.0528  0.0307
 1525SOL    HW2 6145   1.576   1.463   2.634 -2.0130  0.2587 -0.0077
 1525SOL    HW3 6146   1.581   1.515   2.492  1.9336 -0.1532 -0.0541
 1525SOL    MW4 6147   1.585   1.529   2.578 -0.1509  0.0528  0.0145
 1526SOL     OW 6148   1.343   1.666   2.633  0.1889 -0.3177  0.1014
 1526SOL    HW2 6149   1.421   1.612   2.617 -0.3972 -1.3527  0.6608
 1526SOL    HW3 6150   1.269   1.608   2.616 -0.4502  0.0234  1.6062
 1526SOL    MW4 6151   1.344   1.651   2.629  0.0271 -0.4094  0.3738
 1527SOL     OW 6152   1.336   1.936   2.558  0.8648  0.6517  0.7274
 1527SOL    HW2 6153   1.347   1.841   2.562  0.8651  0.5417 -1.4133
 1527SOL    HW3 6154   1.310   1.954   2.468 -0.7338  2.5362  1.5170
 1527SOL    MW4 6155   1.334   1.926   2.547  0.6537  0.8857  0.5488
 1528SOL     OW 6156   1.579   2.055   2.670 -0.2669  0.0687  0.0182
 1528SOL    HW2 6157   1.657   2.007   2.642  0.2832  0.7345  0.4109
 1528SOL    HW3 6158   1.506   2.009   2.628  0.1965 -1.4977  0.8867
 1528SOL    MW4 6159   1.580   2.042   2.661 -0.1333 -0.0503  0.1845
 1529SOL     OW 6160   1.556   2.307   2.543 -0.0492 -0.7045  0.0290
 1529SOL    HW2 6161   1.639   2.352   2.558 -1.0173  0.4434  2.1802
 1529SOL    HW3 6162   1.564   2.224   2.590  0.4186 -1.2618 -1.0134
 1529SOL    MW4 6163   1.568   2.302   2.551 -0.1152 -0.6266  0.1755
 1530SOL     OW 6164   1.348   2.449   2.673  0.0373  0.4066  0.5332
 1530SOL    HW2 6165   1.352   2.540   2.643 -0.2963 -0.3690 -1.9435
 1530SOL    HW3 6166   1.426   2.408   2.635 -0.0941 -0.4798  1.2012
 1530SOL    MW4 6167   1.359   2.456   2.664 -0.0241  0.1874  0.2944
 1531SOL     OW 6168   1.354   2.734   2.590  0.0751  0.0266  0.0446
 1531SOL    HW2 6169   1.445   2.751   2.613  0.2114 -1.3364  0.5371
 1531SOL    HW3 6170   1.354   2.727   2.495  0.4559  0.1852  0.0336
 1531SOL    MW4 6171   1.366   2.735   2.581  0.1432 -0.1323  0.1080
 1532SOL     OW 6172   1.588   2.820   2.689  0.5896 -0.1221 -0.0218
 1532SOL    HW2 6173   1.606   2.838   2.781  0.3078 -1.1214  0.2340
 1532SOL    HW3 6174   1.666   2.773   2.658  0.9568  0.7656 -0.4608
 1532SOL    MW4 6175   1.601   2.816   2.697  0.6008 -0.1366 -0.0458
 1533SOL     OW 6176   1.569   3.083   2.614 -0.1326 -0.1542  0.1611
 1533SOL    HW2 6177   1.627   3.136   2.669  2.4008 -1.8497 -0.7959
 1533SOL    HW3 6178   1.583   2.993   2.643 -0.7766 -0.7987 -1.4788
 1533SOL    MW4 6179   1.578   3.078   2.625  0.1166 -0.4630 -0.1814
 1534SOL     OW 6180   1.354   3.222   2.713  0.1353  0.1219 -0.0837
 1534SOL    HW2 6181   1.429   3.172   2.678  0.0775 -1.5570  2.0980
 1534SOL    HW3 6182   1.278   3.183   2.670  0.1420 -1.3238  1.1641
 1534SOL    MW4 6183   1.354   3.210   2.702  0.1286 -0.2904  0.3686
 1535SOL     OW 6184   1.349   3.484   2.626  0.6239  0.1059  0.7441
 1535SOL    HW2 6185   1.338   3.397   2.664 -1.0942  0.2567  0.6203
 1535SOL    HW3 6186   1.272   3.533   2.656  0.4654  0.9310 -0.9538
 1535SOL    MW4 6187   1.337   3.479   2.635  0.3763  0.2348  0.5038
 1536SOL     OW 6188   1.602   3.627   2.674  0.3143 -0.2152 -0.1360
 1536SOL    HW2 6189   1.670   3.566   2.645 -0.1707 -0.3657 -0.9580
 1536SOL    HW3 6190   1.520   3.582   2.658 -0.0304  0.4591 -0.3004
 1536SOL    MW4 6191   1.600   3.613   2.668  0.2049 -0.1459 -0.2661
 1537SOL     OW 6192   1.598   3.899   2.590 -0.0989 -0.3462 -0.4026
 1537SOL    HW2 6193   1.517   3.934   2.625  0.8079  0.6148  0.7675
 1537SOL    HW3 6194   1.604   3.810   2.626  0.2542  0.2256  0.9671
 1537SOL    MW4 6195   1.588   3.892   2.600  0.0674 -0.1440 -0.0675
 1538SOL     OW 6196   1.329   3.954   2.698  0.3099 -0.0022 -0.5298
 1538SOL    HW2 6197   1.345   3.976   2.790  0.5617 -1.2341 -0.2735
 1538SOL    HW3 6198   1.337   4.038   2.652 -1.0142  0.8255  0.7191
 1538SOL    MW4 6199   1.333   3.968   2.704  0.1683 -0.0556 -0.3314
 1539SOL     OW 6200   1.356   4.210   2.610 -0.3861 -0.0791  0.1290
 1539SOL    HW2 6201   1.283   4.259   2.649 -1.3865 -0.4833 -1.2151
 1539SOL    HW3 6202   1.362   4.243   2.520 -0.2972 -1.5921 -0.4267
 1539SOL    MW4 6203   1.347   4.221   2.603 -0.5063 -0.3319 -0.1218
 1540SOL     OW 6204   1.560   4.375   2.665  0.2144 -0.4797 -0.0022
 1540SOL    HW2 6205   1.572   4.365   2.760  0.6758 -1.0922 -0.1209
 1540SOL    HW3 6206   1.487   4.317   2.644 -1.6479  1.6384  0.3792
 1540SOL    MW4 6207   1.552   4.366   2.675  0.0296 -0.2813  0.0324
 1541SOL     OW 6208   2.007   0.011   2.572 -0.0980 -0.6672  0.0568
 1541SOL    HW2 6209   2.088   0.025   2.620  0.0376  0.6230 -0.5342
 1541SOL    HW3 6210   2.032   0.018   2.480 -1.0281  0.5725 -0.1104
 1541SOL    MW4 6211   2.021   0.014   2.566 -0.2027 -0.3333 -0.0432
 1542SOL     OW 6212   1.790   0.139   2.715 -0.1491 -0.3629  0.1047
 1542SOL    HW2 6213   1.868   0.098   2.678 -0.4935  1.4424 -2.7356
 1542SOL    HW3 6214   1.717   0.089   2.679 -0.4531  0.7498 -0.8525
 1542SOL    MW4 6215   1.790   0.127   2.706 -0.2346  0.0221 -0.3963
 1543SOL     OW 6216   1.803   0.414   2.619 -0.2547  0.1022  0.0402
 1543SOL    HW2 6217   1.875   0.457   2.665  1.1529 -1.3215 -0.8047
 1543SOL    HW3 6218   1.799   0.326   2.657  1.6243 -1.4583 -3.2188
 1543SOL    MW4 6219   1.812   0.408   2.630  0.1789 -0.2915 -0.5012
 1544SOL     OW 6220   2.027   0.497   2.733  0.1290  0.0191 -0.1376
 1544SOL    HW2 6221   2.100   0.454   2.689  0.3987 -0.2177  0.5415
 1544SOL    HW3 6222   2.027   0.586   2.698  0.4682 -0.1064 -0.4619
 1544SOL    MW4 6223   2.036   0.503   2.723  0.2093 -0.0287 -0.0906
 1545SOL     OW 6224   2.048   0.761   2.652 -0.3185  0.3479  0.1832
 1545SOL    HW2 6225   1.970   0.815   2.668  0.0938  0.8102  0.6383
 1545SOL    HW3 6226   2.055   0.757   2.556 -0.9614  0.2223  0.1417
 1545SOL    MW4 6227   2.038   0.768   2.641 -0.3490  0.3923  0.2379
 1546SOL     OW 6228   1.827   0.928   2.692 -0.5058 -0.4303 -0.2893
 1546SOL    HW2 6229   1.808   1.018   2.665 -2.5132 -1.0278 -0.9629
 1546SOL    HW3 6230   1.808   0.927   2.786  0.9382  0.2022  0.0218
 1546SOL    MW4 6231   1.822   0.940   2.701 -0.5802 -0.4257 -0.3369
 1547SOL     OW 6232   1.816   1.187   2.614  0.2857  0.4153  0.4245
 1547SOL    HW2 6233   1.891   1.246   2.622  0.1680  0.6305 -0.0295
 1547SOL    HW3 6234   1.811   1.167   2.521 -0.7129  1.0433  0.3325
 1547SOL    MW4 6235   1.825   1.192   2.603  0.1386  0.5265  0.3524
 1548SOL     OW 6236   2.028   1.333   2.686 -0.2304 -0.4388  0.2025
 1548SOL    HW2 6237   2.027   1.323   2.782  0.3435  1.0879  0.3774
 1548SOL    HW3 6238   2.097   1.274   2.657 -0.0655 -0.5332  0.7733
 1548SOL    MW4 6239   2.037   1.324   2.695 -0.1330 -0.2497  0.3009
 1549SOL     OW 6240   2.043   1.576   2.536  0.3603 -0.1533  0.0193
 1549SOL    HW2 6241   1.964   1.608   2.579  1.6179  1.5421  1.1617
 1549SOL    HW3 6242   2.069   1.499   2.587 -1.1108 -1.3559 -1.0070
 1549SOL    MW4 6243   2.036   1.570   2.549  0.3321 -0.0883  0.0348
 1550SOL     OW 6244   1.817   1.688   2.655  0.3829 -0.1720 -0.0178
 1550SOL    HW2 6245   1.815   1.685   2.751 -0.4576 -0.9971 -0.0564
 1550SOL    HW3 6246   1.742   1.635   2.628  0.6582  0.0059 -1.1334
 1550SOL    MW4 6247   1.807   1.680   2.664  0.3085 -0.2575 -0.1698
 1551SOL     OW 6248   1.816   1.931   2.560  0.1014  0.1700 -0.4910
 1551SOL    HW2 6249   1.901   1.974   2.569  0.2304 -0.1162 -0.3356
 1551SOL    HW3 6250   1.831   1.841   2.590 -0.3365  0.2083 -0.1546
 1551SOL    MW4 6251   1.829   1.924   2.565  0.0604  0.1371 -0.4261
 1552SOL     OW 6252   2.056   2.032   2.621  0.4815 -0.3384 -0.1776
 1552SOL    HW2 6253   2.038   2.048   2.714  0.5027 -1.2060 -0.0201
 1552SOL    HW3 6254   2.046   2.118   2.580  0.5450  0.0666  0.6372
 1552SOL    MW4 6255   2.052   2.045   2.628  0.4926 -0.3994 -0.0491
 1553SOL     OW 6256   2.009   2.305   2.511  0.0432 -0.5669  0.1955
 1553SOL    HW2 6257   2.093   2.336   2.546  0.4921 -1.4321 -0.1037
 1553SOL    HW3 6258   2.014   2.321   2.417 -0.8047  0.9215  0.3903
 1553SOL    MW4 6259   2.021   2.312   2.503 -0.0098 -0.4847  0.1817
 1554SOL     OW 6260   1.784   2.438   2.629 -0.1913 -0.8093  0.1469
 1554SOL    HW2 6261   1.784   2.430   2.725  1.4035  1.3405  0.3571
 1554SOL    HW3 6262   1.862   2.390   2.601  0.1711 -0.1762  0.0587
 1554SOL    MW4 6263   1.794   2.431   2.638  0.0669 -0.4423  0.1628
 1555SOL     OW 6264   1.813   2.706   2.593 -0.0369 -0.1468 -0.1084
 1555SOL    HW2 6265   1.826   2.619   2.630  1.5810  0.3651  0.5685
 1555SOL    HW3 6266   1.811   2.692   2.498  1.2050 -0.8105 -0.0448
 1555SOL    MW4 6267   1.815   2.693   2.585  0.3406 -0.1669 -0.0107
 1556SOL     OW 6268   2.027   2.874   2.653 -0.1521 -0.2531  1.1322
 1556SOL    HW2 6269   2.100   2.828   2.613  0.5437 -0.0176  2.1230
 1556SOL    HW3 6270   1.950   2.824   2.627  0.2536  0.1131 -0.8093
 1556SOL    MW4 6271   2.026   2.862   2.644 -0.0067 -0.1733  1.0066
 1557SOL     OW 6272   2.008   3.129   2.576 -0.3971 -0.1706  0.4425
 1557SOL    HW2 6273   2.008   3.042   2.616 -0.5493 -0.5955 -0.4852
 1557SOL    HW3 6274   2.014   3.113   2.482 -0.3070  0.8253  0.2729
 1557SOL    MW4 6275   2.009   3.116   2.569 -0.4053 -0.0954  0.2975
 1558SOL     OW 6276   1.789   3.211   2.699 -0.2613 -0.2167  0.4695
 1558SOL    HW2 6277   1.776   3.303   2.677 -1.2674 -0.5811 -0.5044
 1558SOL    HW3 6278   1.857   3.181   2.639 -0.4945 -0.3079  0.2503
 1558SOL    MW4 6279   1.796   3.219   2.688 -0.4247 -0.2766  0.3123
 1559SOL     OW 6280   1.817   3.493   2.590  0.4015 -0.1459 -0.0096
 1559SOL    HW2 6281   1.907   3.512   2.615  0.0291  2.5966 -0.5127
 1559SOL    HW3 6282   1.816   3.503   2.495 -0.3214 -0.6750 -0.0642
 1559SOL    MW4 6283   1.828   3.497   2.581  0.2570  0.1459 -0.0832
 1560SOL     OW 6284   2.047   3.600   2.697  0.1922 -0.2265  0.2100
 1560SOL    HW2 6285   2.039   3.604   2.793 -0.5157 -0.0775  0.1483
 1560SOL    HW3 6286   2.132   3.558   2.682  0.6995  0.5254  0.9058
 1560SOL    MW4 6287   2.057   3.595   2.708  0.1655 -0.1073  0.2935
 1561SOL     OW 6288   2.040   3.872   2.601 -0.0975  0.2409 -0.5474
 1561SOL    HW2 6289   1.961   3.911   2.639 -0.9252 -2.1517  0.2939
 1561SOL    HW3 6290   2.026   3.778   2.608  2.8247 -0.2335 -0.4091
 1561SOL    MW4 6291   2.028   3.865   2.607  0.1786 -0.1373 -0.4182
 1562SOL     OW 6292   1.816   4.030   2.687 -0.1226 -0.2532 -0.4667
 1562SOL    HW2 6293   1.814   4.118   2.649 -0.0239  0.1058  0.3631
 1562SOL    HW3 6294   1.735   3.989   2.657 -0.0762  0.0496 -1.0192
 1562SOL    MW4 6295   1.805   4.036   2.678 -0.1035 -0.1659 -0.4301
 1563SOL     OW 6296   1.797   4.288   2.561 -0.1559  0.3200 -0.1132
 1563SOL    HW2 6297   1.714   4.306   2.607 -0.8749 -0.7186 -0.9839
 1563SOL    HW3 6298   1.782   4.319   2.472  1.0107  1.7194  0.1722
 1563SOL    MW4 6299   1.784   4.294   2.556 -0.0969  0.3672 -0.1905
 1564SOL     OW 6300   2.008   4.423   2.686 -0.4583  0.8222 -0.5720
 1564SOL    HW2 6301   1.939   4.375   2.641 -0.4960  2.1641 -1.9823
 1564SOL    HW3 6302   2.000   4.513   2.653  1.9063  1.0140 -0.7114
 1564SOL    MW4 6303   1.998   4.428   2.676 -0.1513  1.0252 -0.7765
 1565SOL     OW 6304   2.439   0.002   2.583  0.2520 -0.0812 -0.0890
 1565SOL    HW2 6305   2.511   0.048   2.626 -0.0722  0.7124 -0.3763
 1565SOL    HW3 6306   2.465  -0.004   2.491 -0.8828  1.9214 -0.5674
 1565SOL    MW4 6307   2.452   0.007   2.576  0.0596  0.2876 -0.1900
 1566SOL     OW 6308   2.228   0.111   2.708  0.3703  0.4142  0.0186
 1566SOL    HW2 6309   2.238   0.123   2.803 -0.9424  0.5326  0.1578
 1566SOL    HW3 6310   2.310   0.072   2.680  0.9757  0.8573  1.1303
 1566SOL    MW4 6311   2.240   0.107   2.717  0.2770  0.4883  0.1836
 1567SOL     OW 6312   2.245   0.373   2.616  0.1855  0.2397  0.1675
 1567SOL    HW2 6313   2.235   0.282   2.644  0.7143 -0.0020 -0.4344
 1567SOL    HW3 6314   2.247   0.369   2.521  0.2397  0.8791  0.1384
 1567SOL    MW4 6315   2.244   0.360   2.607  0.2625  0.2922  0.0842
 1568SOL     OW 6316   2.479   0.506   2.678 -0.0721  0.0396  0.2920
 1568SOL    HW2 6317   2.481   0.595   2.642 -0.0155 -0.3025 -0.5681
 1568SOL    HW3 6318   2.393   0.472   2.654  0.8032 -0.9916 -1.5233
 1568SOL    MW4 6319   2.468   0.513   2.670  0.0508 -0.1416 -0.0608
 1569SOL     OW 6320   2.470   0.762   2.607  0.0833  0.5628  0.1276
 1569SOL    HW2 6321   2.407   0.822   2.648  0.7662  1.5937 -0.2966
 1569SOL    HW3 6322   2.436   0.748   2.519 -0.8524 -0.8507  0.7065
 1569SOL    MW4 6323   2.457   0.768   2.601  0.0498  0.5123  0.1481
 1570SOL     OW 6324   2.270   0.922   2.717 -0.4229  0.2307 -0.4260
 1570SOL    HW2 6325   2.272   0.925   2.813  1.2275 -1.5797 -0.3505
 1570SOL    HW3 6326   2.188   0.877   2.696  0.2094 -1.2848  0.2487
 1570SOL    MW4 6327   2.260   0.916   2.727 -0.1218 -0.2081 -0.3271
 1571SOL     OW 6328   2.240   1.183   2.609  0.0422 -0.0124  0.6004
 1571SOL    HW2 6329   2.243   1.094   2.643  1.4881  0.0186  0.6125
 1571SOL    HW3 6330   2.248   1.173   2.514  0.3495  0.1005  0.6121
 1571SOL    MW4 6331   2.242   1.170   2.601  0.2737  0.0066  0.6037
 1572SOL     OW 6332   2.471   1.315   2.745 -0.5702 -0.1158  0.5337
 1572SOL    HW2 6333   2.550   1.279   2.705  0.2182  1.2123  0.8541
 1572SOL    HW3 6334   2.400   1.262   2.711  0.3664 -0.6791 -0.5612
 1572SOL    MW4 6335   2.472   1.304   2.735 -0.3426 -0.0148  0.4315
 1573SOL     OW 6336   2.470   1.561   2.614 -0.3892 -0.0119 -0.3936
 1573SOL    HW2 6337   2.391   1.610   2.634 -0.0963  0.3064 -0.0022
 1573SOL    HW3 6338   2.460   1.479   2.664 -0.1514  0.3263  0.2137
 1573SOL    MW4 6339   2.458   1.557   2.623 -0.3190  0.0747 -0.2620
 1574SOL     OW 6340   2.246   1.705   2.692 -0.1181  0.2811 -0.8110
 1574SOL    HW2 6341   2.281   1.779   2.643 -0.8393 -0.4174 -2.4130
 1574SOL    HW3 6342   2.171   1.675   2.641 -0.4697 -0.9003  0.3612
 1574SOL    MW4 6343   2.241   1.711   2.678 -0.2596  0.0331 -0.8678
 1575SOL     OW 6344   2.291   1.938   2.550  0.2790 -0.0055  0.2261
 1575SOL    HW2 6345   2.207   1.969   2.582 -0.0443 -0.5484 -0.0889
 1575SOL    HW3 6346   2.282   1.941   2.454  0.4110 -0.6260  0.1958
 1575SOL    MW4 6347   2.279   1.943   2.541  0.2539 -0.1590  0.1807
 1576SOL     OW 6348   2.454   2.114   2.688  0.0338  0.0632 -0.1377
 1576SOL    HW2 6349   2.450   2.199   2.644  0.1613  0.1589  0.0369
 1576SOL    HW3 6350   2.399   2.057   2.633 -0.2275  0.3098 -0.1382
 1576SOL    MW4 6351   2.446   2.118   2.675  0.0160  0.1085 -0.1144
 1577SOL     OW 6352   2.475   2.382   2.555 -0.2217 -0.0609 -0.5109
 1577SOL    HW2 6353   2.565   2.407   2.573 -0.6660  1.9556 -0.9212
 1577SOL    HW3 6354   2.471   2.373   2.459 -0.5299  0.1967 -0.5259
 1577SOL    MW4 6355   2.486   2.384   2.545 -0.3209  0.2389 -0.5670
 1578SOL     OW 6356   2.233   2.468   2.635  0.4997 -0.4866  0.8135
 1578SOL    HW2 6357   2.236   2.450   2.729  0.9473 -2.1538  0.5014
 1578SOL    HW3 6358   2.322   2.450   2.604  0.3215 -0.0883  0.0577
 1578SOL    MW4 6359   2.245   2.463   2.643  0.5350 -0.6542  0.6723
 1579SOL     OW 6360   2.235   2.746   2.531 -0.2228 -0.4460 -0.1453
 1579SOL    HW2 6361   2.310   2.798   2.562  0.0372 -0.3435 -0.9222
 1579SOL    HW3 6362   2.232   2.671   2.590 -0.0286 -0.0130  0.4178
 1579SOL    MW4 6363   2.245   2.743   2.543 -0.1628 -0.3755 -0.1736
 1580SOL     OW 6364   2.464   2.879   2.625 -0.0777  0.0159  0.5981
 1580SOL    HW2 6365   2.545   2.833   2.600 -0.8376 -0.8995 -0.2472
 1580SOL    HW3 6366   2.463   2.957   2.570  0.1295 -0.0814  0.4540
 1580SOL    MW4 6367   2.475   2.883   2.614 -0.1507 -0.1180  0.4673
 1581SOL     OW 6368   2.453   3.135   2.525 -0.0067 -0.3126  0.0364
 1581SOL    HW2 6369   2.368   3.169   2.550  1.0639  1.9256  0.7495
 1581SOL    HW3 6370   2.448   3.127   2.429  0.1681  3.2833 -0.3310
 1581SOL    MW4 6371   2.441   3.139   2.515  0.1576  0.4570  0.0820
 1582SOL     OW 6372   2.252   3.238   2.666  0.3155 -0.2022 -0.1656
 1582SOL    HW2 6373   2.240   3.235   2.761 -0.5554  0.8754 -0.2207
 1582SOL    HW3 6374   2.168   3.208   2.631 -0.1009  1.3858 -0.5836
 1582SOL    MW4 6375   2.239   3.234   2.674  0.1457  0.1497 -0.2282
 1583SOL     OW 6376   2.288   3.492   2.587 -0.0684  0.3237 -0.2292
 1583SOL    HW2 6377   2.372   3.529   2.614 -0.6668  1.5120  0.0433
 1583SOL    HW3 6378   2.288   3.404   2.625  0.9833  0.3702 -0.0967
 1583SOL    MW4 6379   2.299   3.485   2.596 -0.0086  0.4866 -0.1757
 1584SOL     OW 6380   2.504   3.631   2.698  0.5732  0.1105  0.3254
 1584SOL    HW2 6381   2.511   3.638   2.793 -0.6749 -0.5617  0.4740
 1584SOL    HW3 6382   2.496   3.722   2.668 -1.1329  0.2263  1.0505
 1584SOL    MW4 6383   2.504   3.644   2.706  0.1833  0.0372  0.4406
 1585SOL     OW 6384   2.469   3.887   2.597  0.5999  0.2504  0.0579
 1585SOL    HW2 6385   2.538   3.911   2.660  0.0259 -0.0606  0.8061
 1585SOL    HW3 6386   2.391   3.931   2.629 -0.1646 -1.5590  0.7170
 1585SOL    MW4 6387   2.468   3.896   2.610  0.4232 -0.0291  0.2437
 1586SOL     OW 6388   2.235   4.034   2.691  0.5001  0.4523 -0.2044
 1586SOL    HW2 6389   2.242   4.027   2.786  1.6598  1.9972 -0.1672
 1586SOL    HW3 6390   2.163   3.975   2.668  1.0521 -0.9180  1.4811
 1586SOL    MW4 6391   2.226   4.025   2.700  0.7260  0.4754  0.0231
 1587SOL     OW 6392   2.250   4.306   2.629 -0.0536 -0.4832 -0.2033
 1587SOL    HW2 6393   2.244   4.215   2.658 -0.9259  0.1511  1.6804
 1587SOL    HW3 6394   2.164   4.344   2.646  0.4142  0.8127 -0.5928
 1587SOL    MW4 6395   2.238   4.299   2.635 -0.1068 -0.2284 -0.0062
 1588SOL     OW 6396   2.485   4.411   2.672 -0.2338 -0.1108 -0.4188
 1588SOL    HW2 6397   2.397   4.383   2.647 -1.0625  1.4765  0.6130
 1588SOL    HW3 6398   2.488   4.504   2.648  0.7959  0.1112  0.5072
 1588SOL    MW4 6399   2.474   4.420   2.666 -0.2074  0.1278 -0.1607
 1589SOL     OW 6400   2.877   4.624   2.559  0.0390 -0.0782  0.5550
 1589SOL    HW2 6401   2.960   4.654   2.596 -0.0880  1.6697 -0.4692
 1589SOL    HW3 6402   2.893   4.622   2.465 -0.6447 -1.1592  0.4630
 1589SOL    MW4 6403   2.890   4.628   2.552 -0.0679  0.0095  0.4079
 1590SOL     OW 6404   2.675   0.122   2.658 -0.5192  0.0670 -0.2281
 1590SOL    HW2 6405   2.708   0.130   2.748 -2.7582  0.8100  0.5886
 1590SOL    HW3 6406   2.729   0.055   2.618  0.3794 -0.4510  1.7724
 1590SOL    MW4 6407   2.686   0.115   2.665 -0.6957  0.0966  0.1438
 1591SOL     OW 6408   2.695   0.391   2.568 -0.4542 -0.2198 -0.0004
 1591SOL    HW2 6409   2.683   0.297   2.580 -0.9254 -0.5650 -2.7827
 1591SOL    HW3 6410   2.618   0.431   2.607 -1.3372 -1.1622 -0.7575
 1591SOL    MW4 6411   2.684   0.384   2.574 -0.6330 -0.3897 -0.4671
 1592SOL     OW 6412   2.930   0.512   2.650 -0.3781  0.2584 -0.2606
 1592SOL    HW2 6413   2.936   0.607   2.642 -0.5724  0.2426 -0.5929
 1592SOL    HW3 6414   2.844   0.490   2.614 -0.0285 -0.1162 -0.8904
 1592SOL    MW4 6415   2.920   0.521   2.644 -0.3576  0.2069 -0.3877
 1593SOL     OW 6416   2.938   0.783   2.576  0.3015 -0.1445  0.5469
 1593SOL    HW2 6417   3.012   0.832   2.611  0.6066  0.3108 -0.6929
 1593SOL    HW3 6418   2.861   0.835   2.599  0.6771  1.3403 -1.3998
 1593SOL    MW4 6419   2.938   0.796   2.584  0.3912  0.1116  0.1264
 1594SOL     OW 6420   2.717   0.921   2.652  0.4022  0.0590  0.0639
 1594SOL    HW2 6421   2.725   0.904   2.746 -0.2449 -1.2283 -0.1104
 1594SOL    HW3 6422   2.636   0.879   2.626  0.8718 -0.0959 -1.1932
 1594SOL    MW4 6423   2.708   0.913   2.661  0.3788 -0.1314 -0.1249
 1595SOL     OW 6424   2.701   1.190   2.624 -0.2844 -0.0605 -0.7532
 1595SOL    HW2 6425   2.781   1.229   2.660 -0.3227  0.0047 -0.7378
 1595SOL    HW3 6426   2.710   1.096   2.639 -0.8631  0.0831  0.5544
 1595SOL    MW4 6427   2.713   1.183   2.631 -0.3657 -0.0329 -0.5789
 1596SOL     OW 6428   2.932   1.306   2.724  0.1028 -0.3844 -0.4801
 1596SOL    HW2 6429   2.930   1.301   2.820  1.4271  4.3013 -0.1244
 1596SOL    HW3 6430   3.013   1.260   2.700  0.9992  0.4777  0.8217
 1596SOL    MW4 6431   2.942   1.299   2.734  0.3958  0.3475 -0.2615
 1597SOL     OW 6432   2.930   1.562   2.601  0.6752 -0.6686  0.5872
 1597SOL    HW2 6433   2.863   1.606   2.653  0.7975 -0.4968  0.5994
 1597SOL    HW3 6434   2.946   1.479   2.647  1.4322 -0.1191  1.3229
 1597SOL    MW4 6435   2.923   1.557   2.614  0.7913 -0.5735  0.6857
 1598SOL     OW 6436   2.699   1.697   2.702 -0.1286  0.3225  0.1663
 1598SOL    HW2 6437   2.629   1.641   2.667  1.3051 -1.0763 -0.4817
 1598SOL    HW3 6438   2.684   1.696   2.797 -1.7300  1.0669 -0.0458
 1598SOL    MW4 6439   2.688   1.689   2.710 -0.1504  0.2363  0.0527
 1599SOL     OW 6440   2.670   1.973   2.607 -0.5770  0.0028  0.7498
 1599SOL    HW2 6441   2.655   1.883   2.635  0.8176  0.3847  2.8089
 1599SOL    HW3 6442   2.593   2.022   2.639 -1.6200 -0.5199 -0.8753
 1599SOL    MW4 6443   2.658   1.968   2.615 -0.5307 -0.0159  0.8070
 1600SOL     OW 6444   2.920   2.090   2.690 -0.7402  0.1174 -0.1949
 1600SOL    HW2 6445   2.935   2.173   2.645 -0.5655  0.3559  0.2982
 1600SOL    HW3 6446   2.835   2.060   2.658 -0.4060  0.0615 -1.0250
 1600SOL    MW4 6447   2.911   2.097   2.680 -0.6731  0.1414 -0.2396
 1601SOL     OW 6448   2.961   2.317   2.543 -0.2785 -0.3550  0.4142
 1601SOL    HW2 6449   3.035   2.367   2.580 -0.4249  0.2205 -0.0721
 1601SOL    HW3 6450   2.884   2.367   2.570 -0.3966 -0.0048 -0.5439
 1601SOL    MW4 6451   2.961   2.330   2.552 -0.3133 -0.2327  0.2236
 1602SOL     OW 6452   2.740   2.470   2.600  0.3338  0.1413 -0.0410
 1602SOL    HW2 6453   2.741   2.443   2.692  2.4775 -0.5566 -0.2531
 1602SOL    HW3 6454   2.711   2.561   2.602 -1.1274 -0.3193  1.1841
 1602SOL    MW4 6455   2.736   2.478   2.613  0.4239 -0.0112  0.0927
 1603SOL     OW 6456   2.681   2.726   2.561  0.5775 -0.6368  0.0857
 1603SOL    HW2 6457   2.759   2.775   2.584  1.2228 -1.1733 -0.9300
 1603SOL    HW3 6458   2.692   2.705   2.468 -1.0955 -0.1018 -0.2457
 1603SOL    MW4 6459   2.692   2.729   2.551  0.4418 -0.6366 -0.0923
 1604SOL     OW 6460   2.925   2.830   2.664 -0.1607 -0.6107  0.3137
 1604SOL    HW2 6461   2.920   2.833   2.760 -0.7961  0.9661  0.2531
 1604SOL    HW3 6462   2.912   2.921   2.637 -1.0546 -1.1970 -1.3106
 1604SOL    MW4 6463   2.922   2.842   2.673 -0.3626 -0.4797  0.0913
 1605SOL     OW 6464   2.925   3.114   2.559  0.2915 -0.5782  0.2945
 1605SOL    HW2 6465   2.847   3.163   2.585 -0.4288 -1.9386  0.7854
 1605SOL    HW3 6466   2.919   3.110   2.463  1.1129  1.4816  0.1420
 1605SOL    MW4 6467   2.914   3.120   2.550  0.3047 -0.4857  0.3390
 1606SOL     OW 6468   2.683   3.240   2.639  0.0028  0.0415 -0.2947
 1606SOL    HW2 6469   2.691   3.330   2.608 -0.9045  0.5696  0.9668
 1606SOL    HW3 6470   2.609   3.204   2.589  0.2905  0.0302 -0.7135
 1606SOL    MW4 6471   2.674   3.247   2.628 -0.0787  0.1094 -0.1833
 1607SOL     OW 6472   2.714   3.499   2.554 -0.0137 -0.1997  0.2209
 1607SOL    HW2 6473   2.646   3.537   2.609 -0.1244  0.2836 -0.2482
 1607SOL    HW3 6474   2.678   3.501   2.465  0.3647 -0.5029  0.0576
 1607SOL    MW4 6475   2.700   3.505   2.549  0.0217 -0.1757  0.1376
 1608SOL     OW 6476   2.959   3.601   2.646 -0.2852 -0.3093 -0.0970
 1608SOL    HW2 6477   2.965   3.589   2.741 -0.1641 -0.5315 -0.1297
 1608SOL    HW3 6478   2.874   3.566   2.623 -1.3495  1.9787  0.2484
 1608SOL    MW4 6479   2.949   3.594   2.656 -0.4094 -0.0370 -0.0556
 1609SOL     OW 6480   2.944   3.858   2.554 -0.2045 -0.0071  0.0178
 1609SOL    HW2 6481   3.009   3.905   2.605 -0.7367  0.9114 -0.1490
 1609SOL    HW3 6482   2.937   3.773   2.597 -0.4581  0.6623  1.3240
 1609SOL    MW4 6483   2.952   3.853   2.566 -0.3080  0.2022  0.1683
 1610SOL     OW 6484   2.739   3.973   2.677  0.8000 -0.8544  0.0755
 1610SOL    HW2 6485   2.724   4.058   2.634 -0.6190 -0.6380  0.9566
 1610SOL    HW3 6486   2.805   3.930   2.623  1.5350  0.8183 -0.3911
 1610SOL    MW4 6487   2.746   3.979   2.664  0.7098 -0.6051  0.1304
 1611SOL     OW 6488   2.684   4.251   2.590  0.0382 -0.2725  0.1853
 1611SOL    HW2 6489   2.758   4.297   2.631 -0.3586 -0.4944  1.1502
 1611SOL    HW3 6490   2.607   4.302   2.614  0.0716  1.2073 -2.6233
 1611SOL    MW4 6491   2.684   4.264   2.599 -0.0095 -0.1063 -0.0577
 1612SOL     OW 6492   2.893   4.406   2.725  0.1070 -0.3181 -0.1503
 1612SOL    HW2 6493   2.901   4.423   2.819  0.4081  0.2936 -0.2838
 1612SOL    HW3 6494   2.882   4.492   2.685 -1.6962 -0.7102 -0.5265
 1612SOL    MW4 6495   2.893   4.419   2.732 -0.0911 -0.2894 -0.2174
 1613SOL     OW 6496   3.379   4.652   2.594  0.1677 -0.1245 -0.0869
 1613SOL    HW2 6497   3.388   4.578   2.653  0.0892  0.8043  1.0993
 1613SOL    HW3 6498   3.287   4.675   2.597 -0.1715 -1.1263 -1.8871
 1613SOL    MW4 6499   3.368   4.645   2.602  0.1123 -0.1340 -0.1678
 1614SOL     OW 6500   3.118   0.070   2.640 -0.0342  0.4033  0.4938
 1614SOL    HW2 6501   3.137   0.078   2.733  2.0397 -0.5338  0.1909
 1614SOL    HW3 6502   3.121   0.160   2.607 -0.1209  0.6720  1.2198
 1614SOL    MW4 6503   3.121   0.083   2.648  0.2277  0.3151  0.5498
 1615SOL     OW 6504   3.160   0.346   2.614 -0.1508 -0.1373 -0.1935
 1615SOL    HW2 6505   3.093   0.411   2.635 -0.2476 -0.6219  1.0457
 1615SOL    HW3 6506   3.171   0.353   2.519 -2.2560 -0.3530 -0.4682
 1615SOL    MW4 6507   3.153   0.356   2.604 -0.4411 -0.2297 -0.0660
 1616SOL     OW 6508   3.393   0.502   2.700  0.1305  0.3419 -0.4413
 1616SOL    HW2 6509   3.383   0.592   2.669  0.1605  0.3851 -0.3274
 1616SOL    HW3 6510   3.318   0.455   2.664 -0.6606  0.7344  0.6647
 1616SOL    MW4 6511   3.382   0.507   2.691  0.0303  0.3994 -0.2801
 1617SOL     OW 6512   3.387   0.752   2.590 -0.7644 -0.5777  0.0575
 1617SOL    HW2 6513   3.462   0.805   2.616 -0.1383 -1.4341  0.0148
 1617SOL    HW3 6514   3.388   0.754   2.494 -0.7696 -0.6152  0.0563
 1617SOL    MW4 6515   3.397   0.759   2.581 -0.6826 -0.6956  0.0515
 1618SOL     OW 6516   3.159   0.893   2.694  0.1640  0.0448  0.3155
 1618SOL    HW2 6517   3.179   0.900   2.787 -0.3663 -1.1367  0.5355
 1618SOL    HW3 6518   3.230   0.840   2.658  0.0592  0.0002  0.1704
 1618SOL    MW4 6519   3.171   0.887   2.702  0.0803 -0.1170  0.3254
 1619SOL     OW 6520   3.143   1.155   2.635  0.3874 -0.1760 -0.1607
 1619SOL    HW2 6521   3.126   1.062   2.653 -0.8606  0.2194  0.7177
 1619SOL    HW3 6522   3.158   1.159   2.541  1.5944 -1.4412 -0.0414
 1619SOL    MW4 6523   3.143   1.143   2.625  0.3819 -0.2908 -0.0288
 1620SOL     OW 6524   3.385   1.258   2.710 -0.1588 -0.2771  0.2903
 1620SOL    HW2 6525   3.370   1.267   2.804  0.0955  0.0557  0.3017
 1620SOL    HW3 6526   3.315   1.201   2.679  0.5687 -1.5329  0.9231
 1620SOL    MW4 6527   3.374   1.252   2.718 -0.0291 -0.3990  0.3750
 1621SOL     OW 6528   3.395   1.519   2.597  0.0370  0.5376 -0.2451
 1621SOL    HW2 6529   3.321   1.568   2.632 -1.7393 -1.7342 -0.7085
 1621SOL    HW3 6530   3.389   1.433   2.639  1.6080 -0.1180 -1.3062
 1621SOL    MW4 6531   3.384   1.514   2.607  0.0100  0.1514 -0.4463
 1622SOL     OW 6532   3.180   1.670   2.693  0.2715  0.4706 -0.3278
 1622SOL    HW2 6533   3.177   1.762   2.667 -1.5051  0.4604 -0.2188
 1622SOL    HW3 6534   3.100   1.632   2.657  0.9896 -1.0465 -0.3851
 1622SOL    MW4 6535   3.169   1.677   2.685  0.1318  0.2692 -0.3209
 1623SOL     OW 6536   3.147   1.926   2.612  0.7855  0.3520 -0.3808
 1623SOL    HW2 6537   3.224   1.978   2.636  0.5902  0.4874 -0.0423
 1623SOL    HW3 6538   3.073   1.976   2.647  0.5920 -0.1334 -0.0911
 1623SOL    MW4 6539   3.148   1.940   2.620  0.7343  0.3058 -0.2978
 1624SOL     OW 6540   3.367   2.071   2.677  0.2636  0.2032  0.0414
 1624SOL    HW2 6541   3.344   2.083   2.769  0.4477 -0.5313  0.1847
 1624SOL    HW3 6542   3.375   2.160   2.642 -0.3931  0.4804  0.5862
 1624SOL    MW4 6543   3.365   2.084   2.684  0.2010  0.1426  0.1321
 1625SOL     OW 6544   3.383   2.328   2.581  0.3591 -0.0945  0.1261
 1625SOL    HW2 6545   3.399   2.328   2.487 -0.0831  0.3657  0.0504
 1625SOL    HW3 6546   3.455   2.379   2.618  0.3867 -0.0518  0.0137
 1625SOL    MW4 6547   3.395   2.334   2.574  0.3047 -0.0284  0.1011
 1626SOL     OW 6548   3.166   2.464   2.654 -0.2420 -0.2146 -0.8292
 1626SOL    HW2 6549   3.248   2.423   2.628 -0.4186 -1.4736  0.5745
 1626SOL    HW3 6550   3.180   2.557   2.636  1.7471 -0.3178  0.0348
 1626SOL    MW4 6551   3.179   2.471   2.648 -0.0029 -0.3946 -0.5300
 1627SOL     OW 6552   3.160   2.722   2.566  0.1924  0.3671 -0.0615
 1627SOL    HW2 6553   3.224   2.772   2.616 -0.7685  0.6886  0.8525
 1627SOL    HW3 6554   3.075   2.758   2.592 -0.6483 -2.9992  2.0319
 1627SOL    MW4 6555   3.157   2.734   2.576 -0.0453 -0.0346  0.3355
 1628SOL     OW 6556   3.353   2.830   2.729 -0.3930  0.0634  0.3062
 1628SOL    HW2 6557   3.358   2.799   2.820  0.0567 -1.1972 -0.1371
 1628SOL    HW3 6558   3.444   2.829   2.698 -0.6265 -0.2311 -0.3856
 1628SOL    MW4 6559   3.366   2.826   2.737 -0.3645 -0.1416  0.1564
 1629SOL     OW 6560   3.371   3.093   2.608 -0.2827  1.2330 -0.1656
 1629SOL    HW2 6561   3.354   3.005   2.642 -5.5414  1.6067 -1.3639
 1629SOL    HW3 6562   3.376   3.081   2.513  1.4768  1.9456 -0.1847
 1629SOL    MW4 6563   3.370   3.080   2.600 -0.7443  1.3764 -0.3262
 1630SOL     OW 6564   3.142   3.235   2.705  0.5503 -0.5519 -0.2542
 1630SOL    HW2 6565   3.224   3.191   2.682  0.6132 -0.4402 -0.2421
 1630SOL    HW3 6566   3.075   3.189   2.654  0.5946 -0.7696 -0.1178
 1630SOL    MW4 6567   3.144   3.223   2.695  0.5641 -0.5658 -0.2344
 1631SOL     OW 6568   3.181   3.478   2.559 -0.1289 -0.3703 -0.1936
 1631SOL    HW2 6569   3.169   3.395   2.606 -0.8862  0.0304  0.3294
 1631SOL    HW3 6570   3.107   3.532   2.587  0.8762  0.8120  0.1675
 1631SOL    MW4 6571   3.169   3.474   2.569 -0.0961 -0.1614 -0.0770
 1632SOL     OW 6572   3.360   3.644   2.711 -0.1888  0.7706 -0.0583
 1632SOL    HW2 6573   3.355   3.623   2.804 -0.7079  0.9505 -0.0444
 1632SOL    HW3 6574   3.289   3.593   2.671  0.5210  0.0796 -0.4705
 1632SOL    MW4 6575   3.350   3.635   2.718 -0.1636  0.7033 -0.1109
 1633SOL     OW 6576   3.343   3.897   2.608  0.5080 -0.4236  0.3590
 1633SOL    HW2 6577   3.345   3.808   2.641 -0.7835 -0.0875  1.3447
 1633SOL    HW3 6578   3.346   3.887   2.512  0.7576 -1.4939  0.4721
 1633SOL    MW4 6579   3.344   3.884   2.599  0.3707 -0.5205  0.5040
 1634SOL     OW 6580   3.144   4.017   2.728 -0.2536 -0.3043  0.4139
 1634SOL    HW2 6581   3.128   4.107   2.700 -1.4365 -0.7162 -0.2889
 1634SOL    HW3 6582   3.219   3.988   2.676 -0.4182 -0.0089  0.0167
 1634SOL    MW4 6583   3.152   4.025   2.717 -0.4313 -0.3195  0.2687
 1635SOL     OW 6584   3.129   4.291   2.632 -0.2989  0.3226 -0.3832
 1635SOL    HW2 6585   3.044   4.325   2.657 -1.0513 -0.1058 -2.2283
 1635SOL    HW3 6586   3.138   4.313   2.539  0.5426 -1.7002 -0.8294
 1635SOL    MW4 6587   3.119   4.298   2.623 -0.2871  0.0000 -0.6855
 1636SOL     OW 6588   3.376   4.408   2.728  0.0159 -0.1677  0.0953
 1636SOL    HW2 6589   3.388   4.378   2.818 -0.5446 -1.1671 -0.1552
 1636SOL    HW3 6590   3.295   4.365   2.699 -0.4826  1.1392 -0.4677
 1636SOL    MW4 6591   3.367   4.398   2.736 -0.1240 -0.1268 -0.0119
 1637SOL     OW 6592   3.800   4.654   2.624 -0.2136  0.2979 -0.2181
 1637SOL    HW2 6593   3.787   4.565   2.655 -0.0105  0.6407  0.8537
 1637SOL    HW3 6594   3.722   4.702   2.654 -1.0406  0.1470 -2.0679
 1637SOL    MW4 6595   3.788   4.649   2.632 -0.2956  0.3232 -0.3207
 1638SOL     OW 6596   3.582   0.111   2.752  0.1186 -0.3231 -0.2785
 1638SOL    HW2 6597   3.590   0.194   2.704  3.3587  0.2180  1.1175
 1638SOL    HW3 6598   3.517   0.061   2.702  0.6398  1.6918 -3.0951
 1638SOL    MW4 6599   3.574   0.115   2.739  0.6149  0.0141 -0.4661
 1639SOL     OW 6600   3.623   0.357   2.615  0.3423  0.1322  0.1458
 1639SOL    HW2 6601   3.697   0.413   2.639 -0.4715  0.8707  0.9824
 1639SOL    HW3 6602   3.547   0.401   2.653 -0.3749 -1.2737  0.3502
 1639SOL    MW4 6603   3.623   0.370   2.623  0.1404  0.0441  0.2832
 1640SOL     OW 6604   3.842   0.510   2.680 -0.4386  0.1561  0.1916
 1640SOL    HW2 6605   3.847   0.510   2.776 -0.5917 -0.1038  0.1988
 1640SOL    HW3 6606   3.927   0.478   2.651  0.0202  1.3257  0.2204
 1640SOL    MW4 6607   3.854   0.506   2.689 -0.3982  0.2761  0.1962
 1641SOL     OW 6608   3.847   0.791   2.582  0.0800  0.0515 -0.1727
 1641SOL    HW2 6609   3.759   0.817   2.609  0.0639 -1.0237  0.8588
 1641SOL    HW3 6610   3.855   0.700   2.612  2.3094  0.8153  1.6542
 1641SOL    MW4 6611   3.836   0.782   2.590  0.3719  0.0105  0.2041
 1642SOL     OW 6612   3.606   0.903   2.653  0.2936 -0.2858 -0.5160
 1642SOL    HW2 6613   3.608   0.911   2.749  0.1583 -0.6381 -0.4843
 1642SOL    HW3 6614   3.628   0.991   2.622  0.2807 -0.1542 -0.1609
 1642SOL    MW4 6615   3.609   0.916   2.662  0.2742 -0.3149 -0.4649
 1643SOL     OW 6616   3.619   1.178   2.571 -0.4256  0.3032  0.2096
 1643SOL    HW2 6617   3.692   1.218   2.617 -0.5130  0.5613  0.1252
 1643SOL    HW3 6618   3.541   1.207   2.618 -0.5405  0.8837 -0.3288
 1643SOL    MW4 6619   3.618   1.187   2.583 -0.4518  0.4138  0.1276
 1644SOL     OW 6620   3.825   1.288   2.724  0.1903 -0.6347 -0.0018
 1644SOL    HW2 6621   3.911   1.251   2.701  0.8308  0.0738  1.1903
 1644SOL    HW3 6622   3.820   1.369   2.672 -0.4832 -1.5176 -1.3298
 1644SOL    MW4 6623   3.836   1.294   2.714  0.1855 -0.6578 -0.0198
 1645SOL     OW 6624   3.817   1.545   2.613  0.3653 -0.1610 -0.4960
 1645SOL    HW2 6625   3.893   1.566   2.667 -0.4904 -2.3648  1.6556
 1645SOL    HW3 6626   3.745   1.594   2.652  0.0406 -0.6133 -0.5133
 1645SOL    MW4 6627   3.817   1.554   2.625  0.2093 -0.5113 -0.2148
 1646SOL     OW 6628   3.596   1.644   2.740  0.2156  0.2283 -0.1449
 1646SOL    HW2 6629   3.565   1.729   2.707  0.3952  0.6227  0.6838
 1646SOL    HW3 6630   3.540   1.580   2.698  0.3332  0.7347 -1.0948
 1646SOL    MW4 6631   3.585   1.647   2.730  0.2546  0.3471 -0.1607
 1647SOL     OW 6632   3.566   1.903   2.603 -0.1698 -0.3167  0.2525
 1647SOL    HW2 6633   3.505   1.970   2.633  0.7694  0.7276 -0.1198
 1647SOL    HW3 6634   3.578   1.921   2.509  1.4358  0.1056  0.5136
 1647SOL    MW4 6635   3.560   1.914   2.594  0.1662 -0.1234  0.2377
 1648SOL     OW 6636   3.782   2.066   2.695 -0.1625 -0.1430  0.5759
 1648SOL    HW2 6637   3.859   2.019   2.663 -1.5517 -2.2648  0.3069
 1648SOL    HW3 6638   3.707   2.012   2.669 -1.7226  1.5260  1.4598
 1648SOL    MW4 6639   3.782   2.053   2.687 -0.5512 -0.2029  0.6573
 1649SOL     OW 6640   3.837   2.325   2.627 -0.6890 -0.0189  0.0663
 1649SOL    HW2 6641   3.821   2.236   2.657  1.1648 -0.3874  0.0251
 1649SOL    HW3 6642   3.831   2.321   2.532  1.0705 -0.4695 -0.0388
 1649SOL    MW4 6643   3.834   2.313   2.619 -0.2120 -0.1271  0.0472
 1650SOL     OW 6644   3.609   2.485   2.679 -0.2711 -0.0866 -0.1466
 1650SOL    HW2 6645   3.605   2.474   2.774 -0.2083  1.3815  0.0303
 1650SOL    HW3 6646   3.697   2.456   2.655  0.2718  1.0504  0.4478
 1650SOL    MW4 6647   3.620   2.480   2.689 -0.1910  0.2570 -0.0448
 1651SOL     OW 6648   3.595   2.761   2.610  0.2506  0.0305  0.5813
 1651SOL    HW2 6649   3.588   2.671   2.641 -0.2217 -0.3904 -0.6867
 1651SOL    HW3 6650   3.604   2.752   2.515 -1.3596  1.3665  0.2763
 1651SOL    MW4 6651   3.595   2.748   2.601 -0.0241  0.1514  0.3738
 1652SOL     OW 6652   3.825   2.897   2.720 -0.6298  0.7053 -0.4472
 1652SOL    HW2 6653   3.894   2.840   2.688 -0.2528 -0.6442  2.6185
 1652SOL    HW3 6654   3.744   2.851   2.697 -0.3673 -0.1893  0.3724
 1652SOL    MW4 6655   3.823   2.883   2.713 -0.5455  0.4091  0.0651
 1653SOL     OW 6656   3.815   3.163   2.640  0.0560 -0.1940  0.2845
 1653SOL    HW2 6657   3.728   3.200   2.659  0.4740 -0.3698  2.6641
 1653SOL    HW3 6658   3.808   3.072   2.669  0.2714 -0.9383 -1.8928
 1653SOL    MW4 6659   3.802   3.156   2.646  0.1397 -0.3154  0.3111
 1654SOL     OW 6660   3.571   3.255   2.700 -0.0125  0.1242 -0.1382
 1654SOL    HW2 6661   3.573   3.348   2.677  0.2452 -0.4411 -2.5960
 1654SOL    HW3 6662   3.492   3.221   2.657 -0.1155 -0.7875  0.7511
 1654SOL    MW4 6663   3.561   3.262   2.691  0.0081 -0.0706 -0.3452
 1655SOL     OW 6664   3.593   3.514   2.571 -0.0223  0.3389 -0.6873
 1655SOL    HW2 6665   3.675   3.535   2.615  0.1005  1.1396 -1.2921
 1655SOL    HW3 6666   3.529   3.572   2.611 -0.0934  0.4256 -0.9290
 1655SOL    MW4 6667   3.596   3.524   2.582 -0.0153  0.4559 -0.7992
 1656SOL     OW 6668   3.805   3.612   2.717  0.1512  0.0866 -0.4687
 1656SOL    HW2 6669   3.891   3.573   2.704 -0.0247 -0.1380 -0.9575
 1656SOL    HW3 6670   3.810   3.697   2.674  0.3093  0.3200 -0.0017
 1656SOL    MW4 6671   3.817   3.618   2.710  0.1490  0.0875 -0.4718
 1657SOL     OW 6672   3.807   3.845   2.578  0.7741 -0.4993 -0.3467
 1657SOL    HW2 6673   3.889   3.880   2.614  0.7817 -0.6099 -0.2564
 1657SOL    HW3 6674   3.739   3.893   2.624  0.7956  1.0110 -1.8234
 1657SOL    MW4 6675   3.809   3.856   2.589  0.7780 -0.3145 -0.5295
 1658SOL     OW 6676   3.578   3.987   2.721  0.3157  0.0058 -0.1207
 1658SOL    HW2 6677   3.582   4.078   2.691 -1.7897  0.9676  2.2764
 1658SOL    HW3 6678   3.491   3.957   2.696  0.0505 -0.4888  1.3198
 1658SOL    MW4 6679   3.567   3.995   2.714  0.0033  0.0675  0.3855
 1659SOL     OW 6680   3.579   4.251   2.627 -0.2435 -0.1416 -0.0260
 1659SOL    HW2 6681   3.508   4.312   2.646  0.4422  0.5793  0.2411
 1659SOL    HW3 6682   3.568   4.230   2.534 -0.8902 -0.1418  0.0513
 1659SOL    MW4 6683   3.568   4.256   2.617 -0.2382 -0.0467  0.0196
 1660SOL     OW 6684   3.781   4.391   2.746 -0.5796 -0.6786 -0.0722
 1660SOL    HW2 6685   3.858   4.358   2.698  0.4457  0.3722  0.8113
 1660SOL    HW3 6686   3.709   4.335   2.716  0.2016 -0.6633 -2.1260
 1660SOL    MW4 6687   3.782   4.379   2.735 -0.3412 -0.5379 -0.2267
 1661SOL     OW 6688   4.239   4.648   2.602 -0.0203 -0.3708  0.2985
 1661SOL    HW2 6689   4.157   4.688   2.631  0.7941  0.9725  0.7954
 1661SOL    HW3 6690   4.306   4.691   2.654  0.9459 -1.9926  0.4177
 1661SOL    MW4 6691   4.237   4.659   2.612  0.2151 -0.4077  0.3798
 1662SOL     OW 6692   4.033   0.121   2.707 -0.2957  0.2884 -0.2985
 1662SOL    HW2 6693   4.032   0.121   2.802 -1.1928 -0.6308 -0.3048
 1662SOL    HW3 6694   3.949   0.081   2.682  0.5385 -0.7659 -1.4573
 1662SOL    MW4 6695   4.022   0.116   2.716 -0.3042  0.0280 -0.4523
 1663SOL     OW 6696   4.064   0.385   2.622 -0.4256 -0.5770 -0.4837
 1663SOL    HW2 6697   4.047   0.298   2.658  2.3988 -2.0587 -2.5177
 1663SOL    HW3 6698   4.051   0.375   2.527 -0.2927  1.2686 -0.7286
 1663SOL    MW4 6699   4.060   0.372   2.614 -0.0358 -0.5290 -0.7844
 1664SOL     OW 6700   4.260   0.546   2.726 -0.2533  0.1984  0.2591
 1664SOL    HW2 6701   4.183   0.498   2.696 -0.0777  0.2412 -0.2540
 1664SOL    HW3 6702   4.335   0.494   2.695 -0.0736  0.2990  0.5212
 1664SOL    MW4 6703   4.260   0.533   2.718 -0.2065  0.2173  0.2260
 1665SOL     OW 6704   4.294   0.786   2.602 -0.1273  0.1893 -0.1589
 1665SOL    HW2 6705   4.290   0.702   2.648 -0.7174  0.2648 -0.0571
 1665SOL    HW3 6706   4.309   0.764   2.511 -0.2092 -0.0290 -0.1200
 1665SOL    MW4 6707   4.295   0.772   2.596 -0.2160  0.1705 -0.1402
 1666SOL     OW 6708   4.056   0.899   2.708 -0.3586  0.1154  0.1043
 1666SOL    HW2 6709   4.128   0.854   2.664  0.6594  2.2877 -0.5457
 1666SOL    HW3 6710   3.977   0.858   2.673  0.5311 -1.2198 -0.3693
 1666SOL    MW4 6711   4.055   0.888   2.697 -0.1068  0.2258 -0.0441
 1667SOL     OW 6712   4.071   1.172   2.659  0.1932 -0.0462  0.0622
 1667SOL    HW2 6713   4.144   1.209   2.708 -0.4232  0.4956  0.5762
 1667SOL    HW3 6714   4.078   1.077   2.672  1.2120 -0.0533 -0.4778
 1667SOL    MW4 6715   4.081   1.164   2.667  0.2465  0.0244  0.0589
 1668SOL     OW 6716   4.304   1.286   2.762  0.1415  0.6205  0.5823
 1668SOL    HW2 6717   4.306   1.372   2.722  1.1807  1.2425  1.9315
 1668SOL    HW3 6718   4.348   1.229   2.700 -1.3808  0.8525 -0.7469
 1668SOL    MW4 6719   4.310   1.289   2.749  0.0772  0.7333  0.5848
 1669SOL     OW 6720   4.269   1.519   2.626 -0.1821  0.1661 -0.3238
 1669SOL    HW2 6721   4.352   1.563   2.643  0.2505 -0.5866 -0.4914
 1669SOL    HW3 6722   4.267   1.508   2.532 -0.2496 -0.2633 -0.2706
 1669SOL    MW4 6723   4.280   1.523   2.616 -0.1340  0.0101 -0.3390
 1670SOL     OW 6724   4.052   1.673   2.709  0.0364  0.1781 -0.1195
 1670SOL    HW2 6725   4.037   1.663   2.803  3.4168  0.0348  0.4699
 1670SOL    HW3 6726   4.127   1.616   2.690 -0.6826  0.0940 -2.9330
 1670SOL    MW4 6727   4.060   1.664   2.719  0.3877  0.1482 -0.4129
 1671SOL     OW 6728   4.008   1.931   2.592  0.4942  0.2454 -0.1166
 1671SOL    HW2 6729   4.080   1.977   2.635 -1.2716  0.6295  2.5881
 1671SOL    HW3 6730   4.018   1.840   2.619 -0.4732  0.4421  0.9537
 1671SOL    MW4 6731   4.019   1.925   2.601  0.1335  0.3221  0.3817
 1672SOL     OW 6732   4.244   2.050   2.736 -0.0262 -0.2442  0.4248
 1672SOL    HW2 6733   4.251   2.136   2.694  0.0803  0.5167  1.9735
 1672SOL    HW3 6734   4.331   2.012   2.728 -0.3694 -0.7527 -1.3387
 1672SOL    MW4 6735   4.256   2.056   2.729 -0.0572 -0.2108  0.3965
 1673SOL     OW 6736   4.240   2.296   2.619 -0.1422 -0.1031 -0.1648
 1673SOL    HW2 6737   4.173   2.358   2.646  0.7237  1.0137 -0.5277
 1673SOL    HW3 6738   4.228   2.286   2.525  0.1460  0.0443 -0.2187
 1673SOL    MW4 6739   4.230   2.303   2.610  0.0100  0.0634 -0.2198
 1674SOL     OW 6740   4.049   2.467   2.709  0.4383  0.2914 -0.2440
 1674SOL    HW2 6741   4.056   2.459   2.804  0.4178  0.2720 -0.2441
 1674SOL    HW3 6742   3.974   2.412   2.686  0.6886 -0.0236 -0.3141
 1674SOL    MW4 6743   4.040   2.458   2.718  0.4692  0.2472 -0.2532
 1675SOL     OW 6744   3.997   2.709   2.616 -0.0506  0.2782  0.2062
 1675SOL    HW2 6745   4.080   2.743   2.649  0.0946  0.0915  0.0311
 1675SOL    HW3 6746   3.995   2.618   2.644  0.3595 -0.0580 -0.8400
 1675SOL    MW4 6747   4.008   2.702   2.624  0.0224  0.2093  0.0451
 1676SOL     OW 6748   4.225   2.789   2.750  0.3881 -0.2443  0.1071
 1676SOL    HW2 6749   4.218   2.793   2.845  0.1928  0.6005  0.0619
 1676SOL    HW3 6750   4.250   2.878   2.724  0.4371 -0.4706 -0.6262
 1676SOL    MW4 6751   4.227   2.801   2.759  0.3681 -0.1628  0.0043
 1677SOL     OW 6752   4.287   3.039   2.666  0.3309 -0.3336 -0.2938
 1677SOL    HW2 6753   4.216   3.099   2.688  1.6708  0.5103  1.7576
 1677SOL    HW3 6754   4.291   3.042   2.570 -0.8224  1.4182 -0.3118
 1677SOL    MW4 6755   4.278   3.047   2.656  0.3552  0.0088 -0.0255
 1678SOL     OW 6756   4.085   3.224   2.723  0.2344  0.2581 -0.0606
 1678SOL    HW2 6757   4.085   3.319   2.714  3.5202  0.1224 -2.2579
 1678SOL    HW3 6758   4.002   3.195   2.685  0.3127  2.0820 -1.6542
 1678SOL    MW4 6759   4.074   3.232   2.717  0.6785  0.4809 -0.5608
 1679SOL     OW 6760   4.029   3.484   2.644  0.3032  0.4529 -0.0515
 1679SOL    HW2 6761   4.120   3.507   2.660  0.3904  0.7648 -0.9422
 1679SOL    HW3 6762   4.022   3.476   2.549 -1.3136  3.6279 -0.2912
 1679SOL    MW4 6763   4.040   3.486   2.634  0.1016  0.9129 -0.2005
 1680SOL     OW 6764   4.291   3.571   2.730  0.0216  0.1637 -0.2523
 1680SOL    HW2 6765   4.303   3.599   2.821  0.9761 -1.1867  0.0464
 1680SOL    HW3 6766   4.377   3.540   2.703 -0.2257  0.7044 -1.6758
 1680SOL    MW4 6767   4.304   3.570   2.739  0.1144  0.0570 -0.4008
 1681SOL     OW 6768   4.262   3.851   2.634 -0.1194  0.4584 -0.6987
 1681SOL    HW2 6769   4.276   3.763   2.669 -0.4896  0.7902  0.3121
 1681SOL    HW3 6770   4.339   3.901   2.662 -0.0685  0.5399 -0.9815
 1681SOL    MW4 6771   4.274   3.846   2.643 -0.1612  0.5131 -0.6025
 1682SOL     OW 6772   4.020   3.996   2.678 -0.2213  0.0471  0.0850
 1682SOL    HW2 6773   4.015   3.984   2.773 -0.4745 -0.2544  0.0320
 1682SOL    HW3 6774   4.108   3.965   2.655  0.3849  1.4458  0.4159
 1682SOL    MW4 6775   4.031   3.991   2.688 -0.1750  0.1919  0.1216
 1683SOL     OW 6776   4.009   4.281   2.622  0.2658 -0.8319 -0.2118
 1683SOL    HW2 6777   4.021   4.187   2.639  0.7719 -0.9693 -1.3570
 1683SOL    HW3 6778   3.995   4.287   2.528 -0.0175  0.2260 -0.1062
 1683SOL    MW4 6779   4.008   4.269   2.612  0.2952 -0.7105 -0.3493
 1684SOL     OW 6780   4.248   4.393   2.711  0.3928  0.4742  0.2326
 1684SOL    HW2 6781   4.164   4.353   2.687  1.0795 -0.6754 -0.3503
 1684SOL    HW3 6782   4.243   4.483   2.678 -0.7636  0.5286  0.5663
 1684SOL    MW4 6783   4.237   4.399   2.703  0.3304  0.3300  0.1996
 1685SOL     OW 6784   0.239   4.651   3.095 -0.0246 -0.0172 -0.1669
 1685SOL    HW2 6785   0.229   4.647   3.190  0.1297  0.6845 -0.1200
 1685SOL    HW3 6786   0.162   4.698   3.064 -0.4455 -0.8939 -0.4605
 1685SOL    MW4 6787   0.227   4.657   3.103 -0.0597 -0.0410 -0.1996
 1686SOL     OW 6788   4.476   0.078   2.998  0.2797  0.6883  0.7534
 1686SOL    HW2 6789   4.397   0.038   3.035 -1.3108  1.5422 -1.5898
 1686SOL    HW3 6790   4.465   0.172   3.012  0.0934  0.9449 -0.9774
 1686SOL    MW4 6791   4.464   0.085   3.004  0.0458  0.8348  0.2158
 1687SOL     OW 6792   4.471   0.342   3.080  0.6769  0.4680 -0.0386
 1687SOL    HW2 6793   4.458   0.360   3.173  1.7545  2.6422 -0.2897
 1687SOL    HW3 6794   4.413   0.403   3.036  0.9743  0.1823 -0.8284
 1687SOL    MW4 6795   4.462   0.352   3.087  0.8583  0.7172 -0.1757
 1688SOL     OW 6796   0.205   0.484   2.968 -0.4504 -0.3851 -0.6979
 1688SOL    HW2 6797   0.287   0.474   3.016 -0.6891  1.6884  0.1964
 1688SOL    HW3 6798   0.145   0.422   3.009  0.2893 -0.9785 -0.5031
 1688SOL    MW4 6799   0.208   0.475   2.980 -0.3843 -0.1898 -0.5543
 1689SOL     OW 6800   0.212   0.752   3.073 -0.1320 -0.1972  0.8990
 1689SOL    HW2 6801   0.199   0.739   3.167 -1.4720 -2.1457  0.4813
 1689SOL    HW3 6802   0.206   0.664   3.036 -1.0619  0.7159 -1.1775
 1689SOL    MW4 6803   0.209   0.739   3.081 -0.4315 -0.3338  0.5701
 1690SOL     OW 6804   0.032   0.904   2.965  0.1127  0.2412 -0.3348
 1690SOL    HW2 6805   0.106   0.861   3.007 -0.6193 -0.7820 -0.0403
 1690SOL    HW3 6806   0.041   0.882   2.872  0.0350 -0.1268 -0.2583
 1690SOL    MW4 6807   0.043   0.895   2.958  0.0058  0.0576 -0.2859
 1691SOL     OW 6808   0.071   1.154   3.069  0.0835 -0.2784  0.0616
 1691SOL    HW2 6809  -0.008   1.205   3.049  0.5159 -0.5881 -2.5607
 1691SOL    HW3 6810   0.062   1.074   3.018  2.1774 -0.2623 -0.3855
 1691SOL    MW4 6811   0.059   1.150   3.060  0.4169 -0.3171 -0.3433
 1692SOL     OW 6812   0.278   1.276   2.947 -0.4883 -0.5868  0.2325
 1692SOL    HW2 6813   0.206   1.232   2.991 -1.4122 -0.0302 -0.6766
 1692SOL    HW3 6814   0.247   1.287   2.857  0.0280  1.2062  0.2524
 1692SOL    MW4 6815   0.264   1.272   2.941 -0.5421 -0.2767  0.1152
 1693SOL     OW 6816   0.228   1.499   3.095 -0.1131  0.2564 -0.0522
 1693SOL    HW2 6817   0.151   1.543   3.058 -1.4186 -1.7442  0.2559
 1693SOL    HW3 6818   0.234   1.417   3.047  0.2985 -0.7542  1.7071
 1693SOL    MW4 6819   0.219   1.494   3.084 -0.2311 -0.1409  0.2208
 1694SOL     OW 6820   4.488   1.644   3.003  0.2756  0.1851  0.2793
 1694SOL    HW2 6821   4.409   1.602   3.037  1.4677 -2.2352  0.1633
 1694SOL    HW3 6822   4.488   1.731   3.041 -0.9981 -0.7713  2.5363
 1694SOL    MW4 6823   4.478   1.650   3.012  0.2646 -0.2605  0.5620
 1695SOL     OW 6824   4.476   1.909   3.108 -0.2048 -0.0066 -0.0879
 1695SOL    HW2 6825   4.402   1.963   3.080  0.2118  0.8643  0.4664
 1695SOL    HW3 6826   4.552   1.948   3.064 -0.2107 -1.5272 -1.4781
 1695SOL    MW4 6827   4.477   1.921   3.098 -0.1506 -0.0924 -0.1981
 1696SOL     OW 6828   0.218   2.036   3.000  0.7017  0.2290 -0.2646
 1696SOL    HW2 6829   0.234   2.128   3.024  0.7445  0.5000 -1.3239
 1696SOL    HW3 6830   0.210   2.037   2.905 -0.7427 -0.6500 -0.1733
 1696SOL    MW4 6831   0.219   2.048   2.991  0.5168  0.1488 -0.3927
 1697SOL     OW 6832   0.229   2.321   3.088 -0.3275 -0.3963 -0.5192
 1697SOL    HW2 6833   0.230   2.331   3.183  0.5438  2.1230 -0.7526
 1697SOL    HW3 6834   0.311   2.362   3.059 -0.5168 -1.2567 -2.3480
 1697SOL    MW4 6835   0.240   2.328   3.097 -0.2375 -0.1776 -0.7913
 1698SOL     OW 6836   4.485   2.464   3.007  0.1819  0.0904  0.1777
 1698SOL    HW2 6837   4.487   2.545   3.058  1.8189 -0.1381  0.5111
 1698SOL    HW3 6838   4.570   2.423   3.024 -0.2172 -1.1824 -0.8163
 1698SOL    MW4 6839   4.497   2.470   3.016  0.3453 -0.1075  0.0906
 1699SOL     OW 6840   4.480   2.737   3.112 -0.2450 -0.1667  0.3751
 1699SOL    HW2 6841   4.490   2.753   3.206  0.1107 -0.8833  0.4623
 1699SOL    HW3 6842   4.554   2.782   3.072  0.3622 -0.9894  0.5584
 1699SOL    MW4 6843   4.491   2.745   3.119 -0.1180 -0.3700  0.4108
 1700SOL     OW 6844   0.223   2.838   2.994  0.0068  0.3021 -0.1537
 1700SOL    HW2 6845   0.285   2.776   3.031  0.1821  0.6516  0.1394
 1700SOL    HW3 6846   0.231   2.826   2.899  0.5490  0.3740 -0.1197
 1700SOL    MW4 6847   0.232   2.828   2.986  0.1015  0.3579 -0.1106
 1701SOL     OW 6848   0.239   3.107   3.111  0.0793  0.0693  0.2895
 1701SOL    HW2 6849   0.155   3.136   3.077 -0.0325  0.2491  0.7134
 1701SOL    HW3 6850   0.247   3.016   3.082 -0.3023  0.0250  0.3210
 1701SOL    MW4 6851   0.229   3.098   3.103  0.0142  0.0870  0.3493
 1702SOL     OW 6852   4.486   3.176   3.002 -0.2297 -0.3726 -0.1324
 1702SOL    HW2 6853   4.404   3.128   3.014 -1.1939  0.9606 -1.2950
 1702SOL    HW3 6854   4.500   3.176   2.907 -0.6700  2.3263 -0.2317
 1702SOL    MW4 6855   4.477   3.170   2.991 -0.4148  0.1595 -0.2987
 1703SOL     OW 6856   0.007   3.433   3.099  0.4484  0.3766 -0.7499
 1703SOL    HW2 6857  -0.064   3.488   3.065 -0.2493  0.0426  0.1533
 1703SOL    HW3 6858  -0.014   3.345   3.067 -0.0934  0.0989  0.3582
 1703SOL    MW4 6859  -0.005   3.428   3.090  0.2848  0.2959 -0.4845
 1704SOL     OW 6860   0.231   3.614   3.037 -0.5751  0.2083  0.6700
 1704SOL    HW2 6861   0.211   3.706   3.056 -0.6022  0.4924 -0.6913
 1704SOL    HW3 6862   0.173   3.565   3.094 -1.0081  1.0454  0.9615
 1704SOL    MW4 6863   0.221   3.620   3.047 -0.6358  0.3560  0.5291
 1705SOL     OW 6864   0.191   3.878   3.116 -0.1921  0.3118 -0.4226
 1705SOL    HW2 6865   0.192   3.885   3.211  2.6554 -0.7801 -0.2964
 1705SOL    HW3 6866   0.268   3.928   3.087 -0.6076  0.0377 -2.0902
 1705SOL    MW4 6867   0.202   3.885   3.125  0.1287  0.1316 -0.6261
 1706SOL     OW 6868   4.468   4.030   2.995 -0.0057 -0.1156  0.6137
 1706SOL    HW2 6869   4.533   3.970   3.031 -0.1917 -0.4367  0.4170
 1706SOL    HW3 6870   4.481   4.025   2.900 -0.8622 -0.8051  0.5278
 1706SOL    MW4 6871   4.478   4.021   2.987 -0.1431 -0.2489  0.5765
 1707SOL     OW 6872   0.010   4.274   3.100  0.6893  0.2598 -0.2155
 1707SOL    HW2 6873  -0.002   4.268   3.195 -0.6538  0.6689 -0.3490
 1707SOL    HW3 6874  -0.016   4.187   3.067 -0.2196  0.5677 -0.3324
 1707SOL    MW4 6875   0.005   4.261   3.108  0.3920  0.3543 -0.2484
 1708SOL     OW 6876   0.229   4.408   2.982  0.3466 -0.2170 -0.0098
 1708SOL    HW2 6877   0.152   4.365   3.019 -0.3147 -0.1556 -1.2777
 1708SOL    HW3 6878   0.235   4.492   3.028 -1.3089  0.4824 -1.0210
 1708SOL    MW4 6879   0.220   4.413   2.993  0.0409 -0.1163 -0.3109
 1709SOL     OW 6880   0.697   4.649   3.104  0.1028  0.3614 -0.1773
 1709SOL    HW2 6881   0.711   4.562   3.068 -0.6691  0.3041 -0.3530
 1709SOL    HW3 6882   0.617   4.680   3.062  0.2903  1.0940 -0.0047
 1709SOL    MW4 6883   0.688   4.642   3.094  0.0257  0.4506 -0.1779
 1710SOL     OW 6884   0.480   0.101   2.985 -0.5377  0.3210 -0.4947
 1710SOL    HW2 6885   0.463   0.190   3.016  2.2853 -0.2086  2.9681
 1710SOL    HW3 6886   0.407   0.050   3.019 -0.2784  0.7148  0.6991
 1710SOL    MW4 6887   0.468   0.106   2.994 -0.1311  0.3031  0.1199
 1711SOL     OW 6888   0.451   0.373   3.053 -0.1093 -0.3836  0.3905
 1711SOL    HW2 6889   0.469   0.372   3.147  1.8326 -1.8680  0.0424
 1711SOL    HW3 6890   0.536   0.393   3.013 -1.0674  0.9324 -1.0275
 1711SOL    MW4 6891   0.465   0.375   3.060  0.0206 -0.4059  0.1576
 1712SOL     OW 6892   0.708   0.437   2.971 -0.0829 -0.1368 -0.4385
 1712SOL    HW2 6893   0.797   0.405   2.979 -0.3135 -0.6740 -0.0110
 1712SOL    HW3 6894   0.710   0.524   3.011  0.0869 -0.4459  0.2419
 1712SOL    MW4 6895   0.720   0.444   2.977 -0.0910 -0.2485 -0.2928
 1713SOL     OW 6896   0.704   0.710   3.048 -0.2729  0.4396  0.0446
 1713SOL    HW2 6897   0.723   0.719   3.142  0.1766  0.9627 -0.0946
 1713SOL    HW3 6898   0.637   0.775   3.031  0.1640  0.8456 -0.1444
 1713SOL    MW4 6899   0.698   0.720   3.058 -0.1559  0.5621  0.0014
 1714SOL     OW 6900   0.481   0.862   2.995 -0.0586 -0.4339 -0.3088
 1714SOL    HW2 6901   0.399   0.827   3.030  0.8547 -0.8273  1.4489
 1714SOL    HW3 6902   0.478   0.840   2.902 -1.7029 -0.9010 -0.1601
 1714SOL    MW4 6903   0.470   0.855   2.987 -0.1551 -0.5473 -0.0575
 1715SOL     OW 6904   0.478   1.126   3.036  0.0799  0.2086 -0.2412
 1715SOL    HW2 6905   0.474   1.038   2.999 -0.2336 -0.4701  1.3586
 1715SOL    HW3 6906   0.406   1.173   2.994 -1.7259 -1.2175  1.1547
 1715SOL    MW4 6907   0.468   1.121   3.025 -0.1997 -0.0691  0.1540
 1716SOL     OW 6908   0.703   1.256   2.961  0.0256 -0.1250  0.1929
 1716SOL    HW2 6909   0.766   1.213   3.020  0.6221 -0.7937 -0.9132
 1716SOL    HW3 6910   0.619   1.217   2.983  0.2719 -0.4900  0.4932
 1716SOL    MW4 6911   0.700   1.245   2.972  0.1368 -0.2613  0.0868
 1717SOL     OW 6912   0.698   1.500   3.078 -0.1883  0.1177  0.1667
 1717SOL    HW2 6913   0.693   1.471   3.169  1.9163 -0.0182  0.2629
 1717SOL    HW3 6914   0.698   1.419   3.027  1.0691  0.1151  0.1766
 1717SOL    MW4 6915   0.697   1.485   3.083  0.2553  0.0994  0.1807
 1718SOL     OW 6916   0.450   1.614   2.976  0.2907 -0.6412  0.0299
 1718SOL    HW2 6917   0.529   1.572   3.010  0.7418 -1.3637 -1.8673
 1718SOL    HW3 6918   0.378   1.572   3.022  0.9618 -0.6225  1.1083
 1718SOL    MW4 6919   0.451   1.603   2.987  0.4387 -0.7341 -0.0780
 1719SOL     OW 6920   0.466   1.898   3.095  0.3120  0.1206 -0.7088
 1719SOL    HW2 6921   0.455   1.807   3.067 -1.7585 -0.1449  0.8556
 1719SOL    HW3 6922   0.388   1.943   3.063 -0.2453  0.6331  1.2873
 1719SOL    MW4 6923   0.454   1.892   3.087 -0.0347  0.1531 -0.2389
 1720SOL     OW 6924   0.677   2.032   2.973 -0.0217  0.0759  0.2541
 1720SOL    HW2 6925   0.761   1.995   2.999 -0.5510 -0.1110  1.7258
 1720SOL    HW3 6926   0.612   1.970   3.007 -0.7122 -0.7451 -2.4279
 1720SOL    MW4 6927   0.679   2.019   2.981 -0.1826 -0.0572  0.0942
 1721SOL     OW 6928   0.675   2.294   3.053 -0.1443  0.0459 -0.3040
 1721SOL    HW2 6929   0.697   2.295   3.146 -0.4171  1.2119 -0.2475
 1721SOL    HW3 6930   0.675   2.201   3.029 -1.4247 -0.3609  1.1907
 1721SOL    MW4 6931   0.678   2.282   3.062 -0.3492  0.1459 -0.0994
 1722SOL     OW 6932   0.454   2.461   2.980 -0.2835 -0.0015  0.3004
 1722SOL    HW2 6933   0.534   2.415   3.004 -0.3636 -0.2085  0.1729
 1722SOL    HW3 6934   0.445   2.446   2.886 -0.9517 -0.7449  0.4698
 1722SOL    MW4 6935   0.463   2.453   2.971 -0.3822 -0.1271  0.3059
 1723SOL     OW 6936   0.433   2.704   3.098 -0.7187  0.0755 -0.4524
 1723SOL    HW2 6937   0.507   2.759   3.072 -2.0487  1.2035 -2.0215
 1723SOL    HW3 6938   0.444   2.623   3.048 -1.6846  1.1024 -2.4172
 1723SOL    MW4 6939   0.444   2.701   3.088 -1.0217  0.3598 -0.9186
 1724SOL     OW 6940   0.653   2.860   3.038 -0.0087  0.5120  0.5200
 1724SOL    HW2 6941   0.735   2.828   3.074  0.7728  2.3596  0.4160
 1724SOL    HW3 6942   0.662   2.956   3.037 -1.3980  0.6532 -1.2902
 1724SOL    MW4 6943   0.665   2.869   3.043 -0.0889  0.7746  0.2673
 1725SOL     OW 6944   0.661   3.146   3.085  0.4385 -0.3573  0.0644
 1725SOL    HW2 6945   0.628   3.123   3.171  2.2966 -3.2112  0.0943
 1725SOL    HW3 6946   0.585   3.176   3.036 -1.3262 -2.3386  1.5326
 1725SOL    MW4 6947   0.647   3.147   3.090  0.4508 -0.9954  0.2618
 1726SOL     OW 6948   0.438   3.239   2.992 -0.2101 -0.2150 -0.5129
 1726SOL    HW2 6949   0.437   3.326   3.031  0.8888 -0.4793  0.1317
 1726SOL    HW3 6950   0.368   3.192   3.037 -0.2386  0.0715 -0.2542
 1726SOL    MW4 6951   0.429   3.244   3.003 -0.0688 -0.2122 -0.3939
 1727SOL     OW 6952   0.469   3.492   3.125  0.1174 -0.2153  0.2731
 1727SOL    HW2 6953   0.473   3.491   3.221  1.5738  0.7850  0.2419
 1727SOL    HW3 6954   0.396   3.549   3.105 -0.9249 -1.3427  0.7923
 1727SOL    MW4 6955   0.460   3.500   3.135  0.1720 -0.2320  0.3376
 1728SOL     OW 6956   0.674   3.641   3.005  0.1999 -0.7895  0.5976
 1728SOL    HW2 6957   0.758   3.608   3.036  0.5714 -1.2849 -0.9000
 1728SOL    HW3 6958   0.609   3.583   3.046  0.7525 -2.2689 -0.5835
 1728SOL    MW4 6959   0.676   3.629   3.015  0.3219 -1.0498  0.2444
 1729SOL     OW 6960   0.679   3.889   3.108  0.0085  0.3217 -0.4453
 1729SOL    HW2 6961   0.669   3.888   3.204 -0.7880 -0.9927 -0.5253
 1729SOL    HW3 6962   0.668   3.797   3.083  0.6814  0.5973 -1.7568
 1729SOL    MW4 6963   0.676   3.876   3.118 -0.0078  0.1843 -0.6287
 1730SOL     OW 6964   0.428   3.986   3.012 -0.1647  0.3614 -0.1920
 1730SOL    HW2 6965   0.507   3.945   3.047  0.2075  0.5676 -0.7992
 1730SOL    HW3 6966   0.439   3.985   2.917 -1.0973 -0.0303 -0.3067
 1730SOL    MW4 6967   0.440   3.980   3.004 -0.2386  0.3366 -0.2873
 1731SOL     OW 6968   0.444   4.269   3.124  0.0836  0.0708  0.0024
 1731SOL    HW2 6969   0.474   4.183   3.096 -0.1953  0.1069 -0.4118
 1731SOL    HW3 6970   0.362   4.282   3.077  0.2116  0.6359 -0.0648
 1731SOL    MW4 6971   0.437   4.259   3.114  0.0637  0.1502 -0.0610
 1732SOL     OW 6972   0.673   4.395   2.977  0.4714 -0.0516  0.3720
 1732SOL    HW2 6973   0.582   4.380   3.002  0.6495  0.5996  1.4396
 1732SOL    HW3 6974   0.672   4.391   2.881 -0.6170 -0.3801  0.3864
 1732SOL    MW4 6975   0.660   4.393   2.968  0.3513 -0.0086  0.5145
 1733SOL     OW 6976   1.135   4.658   3.068  0.2251 -0.5124 -0.6511
 1733SOL    HW2 6977   1.213   4.695   3.025 -0.5663  2.2982  0.1684
 1733SOL    HW3 6978   1.061   4.693   3.017 -0.5543 -1.3688 -0.1111
 1733SOL    MW4 6979   1.136   4.668   3.055  0.0178 -0.2546 -0.4718
 1734SOL     OW 6980   0.896   0.096   2.937 -0.0497 -0.2844  0.5795
 1734SOL    HW2 6981   0.919   0.186   2.961  1.4420 -0.5727  0.2849
 1734SOL    HW3 6982   0.817   0.078   2.987 -1.1092  1.6322 -0.3304
 1734SOL    MW4 6983   0.889   0.106   2.946  0.0073 -0.0695  0.4208
 1735SOL     OW 6984   0.967   0.344   3.030  0.1414 -0.0801  0.5538
 1735SOL    HW2 6985   0.958   0.332   3.125 -0.6727  0.3977  0.5481
 1735SOL    HW3 6986   1.040   0.404   3.020  0.5609 -0.5346  0.8517
 1735SOL    MW4 6987   0.975   0.350   3.041  0.0893 -0.0770  0.5922
 1736SOL     OW 6988   1.189   0.498   2.935  0.3269  0.2599  0.4923
 1736SOL    HW2 6989   1.261   0.441   2.959  1.3047  1.1257 -0.3445
 1736SOL    HW3 6990   1.167   0.474   2.845 -0.3470  0.0927  0.6940
 1736SOL    MW4 6991   1.195   0.488   2.926  0.3670  0.3521  0.4086
 1737SOL     OW 6992   1.143   0.756   3.046  0.4449  0.1776  0.8193
 1737SOL    HW2 6993   1.147   0.732   3.138  0.8852  1.5067  1.1448
 1737SOL    HW3 6994   1.166   0.675   3.000  2.3543  0.0600  1.9373
 1737SOL    MW4 6995   1.147   0.742   3.052  0.7550  0.3375  1.0097
 1738SOL     OW 6996   0.915   0.879   2.955  0.1541 -0.5053 -0.0171
 1738SOL    HW2 6997   0.987   0.824   2.986  0.3954  0.5603  1.3618
 1738SOL    HW3 6998   0.837   0.835   2.989  0.3702  0.2051  1.4446
 1738SOL    MW4 6999   0.914   0.866   2.964  0.2144 -0.2710  0.3576
 1739SOL     OW 7000   0.919   1.116   3.110 -0.0203  0.5074  0.4818
 1739SOL    HW2 7001   0.984   1.176   3.074 -0.2995  2.0221  2.3878
 1739SOL    HW3 7002   0.914   1.045   3.047  2.2174  1.2215 -0.5548
 1739SOL    MW4 7003   0.927   1.115   3.097  0.2380  0.8014  0.5965
 1740SOL     OW 7004   1.108   1.281   3.019 -0.0615 -0.0439  0.3507
 1740SOL    HW2 7005   1.196   1.253   3.045  0.6092  0.1463 -1.6316
 1740SOL    HW3 7006   1.109   1.276   2.923 -1.6982  1.5237  0.2393
 1740SOL    MW4 7007   1.120   1.277   3.009 -0.1889  0.1880  0.0746
 1741SOL     OW 7008   1.156   1.546   3.118  0.3470  0.6065 -0.1533
 1741SOL    HW2 7009   1.220   1.571   3.051  1.5013 -0.5640  0.4916
 1741SOL    HW3 7010   1.139   1.453   3.101  0.3427  0.4040  0.9358
 1741SOL    MW4 7011   1.162   1.537   3.107  0.4988  0.4253  0.0756
 1742SOL     OW 7012   0.926   1.652   3.002  0.3585  0.0239  0.0115
 1742SOL    HW2 7013   1.003   1.624   3.050  0.1110 -0.5803  0.0625
 1742SOL    HW3 7014   0.853   1.612   3.049  0.1017 -0.4204 -0.7517
 1742SOL    MW4 7015   0.926   1.643   3.014  0.2919 -0.1146 -0.0827
 1743SOL     OW 7016   0.919   1.913   3.059 -0.1774  0.1824  0.0564
 1743SOL    HW2 7017   0.934   1.907   3.154  0.6734  1.6350  0.0331
 1743SOL    HW3 7018   0.921   1.822   3.029 -1.1516 -0.3494  1.5249
 1743SOL    MW4 7019   0.921   1.900   3.068 -0.1937  0.3039  0.2472
 1744SOL     OW 7020   1.085   2.108   2.958 -0.0349  0.5757 -0.6703
 1744SOL    HW2 7021   1.034   2.033   2.987 -0.7440  1.4039  0.2924
 1744SOL    HW3 7022   1.101   2.093   2.865  1.0365 -1.4482 -0.1756
 1744SOL    MW4 7023   1.081   2.096   2.950  0.0129  0.4177 -0.4783
 1745SOL     OW 7024   1.121   2.362   3.062  0.2353  0.5181 -0.4188
 1745SOL    HW2 7025   1.035   2.404   3.055 -0.1961 -0.2211  0.4076
 1745SOL    HW3 7026   1.107   2.274   3.025  0.2513 -0.1362  1.1034
 1745SOL    MW4 7027   1.108   2.356   3.056  0.1806  0.3343 -0.1087
 1746SOL     OW 7028   0.872   2.489   2.989  0.0779 -0.5793  0.4363
 1746SOL    HW2 7029   0.801   2.433   3.020 -1.3907  0.8714 -0.2278
 1746SOL    HW3 7030   0.880   2.469   2.896  0.9265 -1.1443  0.6274
 1746SOL    MW4 7031   0.863   2.479   2.981 -0.0039 -0.4625  0.3741
 1747SOL     OW 7032   0.908   2.755   3.074  0.1791 -0.1662 -0.2613
 1747SOL    HW2 7033   0.922   2.748   3.169  0.8212 -2.1535 -0.4850
 1747SOL    HW3 7034   0.900   2.664   3.044  2.1008  0.3500 -2.4307
 1747SOL    MW4 7035   0.909   2.742   3.083  0.5174 -0.3605 -0.5772
 1748SOL     OW 7036   1.145   2.845   2.973 -0.1635  0.8524 -0.4845
 1748SOL    HW2 7037   1.140   2.933   3.010 -1.5846  0.7467 -0.3847
 1748SOL    HW3 7038   1.063   2.803   2.999 -0.2291  0.0453 -1.9102
 1748SOL    MW4 7039   1.133   2.851   2.981 -0.3598  0.7319 -0.6597
 1749SOL     OW 7040   1.094   3.083   3.080 -0.1282  0.2009 -0.0020
 1749SOL    HW2 7041   1.151   3.157   3.060 -0.8759  0.6155 -0.6313
 1749SOL    HW3 7042   1.006   3.113   3.054 -0.5676 -0.5712  0.5798
 1749SOL    MW4 7043   1.090   3.097   3.074 -0.2848  0.1538 -0.0086
 1750SOL     OW 7044   0.900   3.252   3.001  0.4678  0.0736 -0.5477
 1750SOL    HW2 7045   0.812   3.230   3.030  1.1199 -0.8707  0.7973
 1750SOL    HW3 7046   0.894   3.256   2.906 -0.6520 -1.7107 -0.5870
 1750SOL    MW4 7047   0.888   3.249   2.993  0.4061 -0.2861 -0.3755
 1751SOL     OW 7048   0.898   3.511   3.100 -0.3001  0.5964 -0.3700
 1751SOL    HW2 7049   0.975   3.538   3.050 -0.1570  0.9162  0.0221
 1751SOL    HW3 7050   0.889   3.418   3.081  1.9465 -0.1260  1.9271
 1751SOL    MW4 7051   0.907   3.503   3.091  0.0153  0.5431 -0.0153
 1752SOL     OW 7052   1.118   3.644   2.979  0.2859  0.1489  0.3353
 1752SOL    HW2 7053   1.202   3.616   3.017 -0.4121 -0.0925  1.7356
 1752SOL    HW3 7054   1.115   3.738   2.994  0.8852  0.3784 -0.8998
 1752SOL    MW4 7055   1.129   3.653   2.986  0.2728  0.1473  0.3572
 1753SOL     OW 7056   1.137   3.928   3.065 -0.0490 -0.9530  0.2965
 1753SOL    HW2 7057   1.133   3.916   3.160 -1.8890 -1.8339  0.1250
 1753SOL    HW3 7058   1.052   3.966   3.043  1.6156  2.4947 -0.5762
 1753SOL    MW4 7059   1.125   3.932   3.075 -0.0721 -0.6142  0.1588
 1754SOL     OW 7060   0.895   4.021   2.982 -0.2280  0.0842  0.4551
 1754SOL    HW2 7061   0.825   3.969   3.021 -1.7130  0.0524 -2.1275
 1754SOL    HW3 7062   0.886   4.007   2.888  1.0742  2.8088 -0.1422
 1754SOL    MW4 7063   0.884   4.013   2.974 -0.2521  0.4392  0.0358
 1755SOL     OW 7064   0.873   4.269   3.111 -0.2471 -0.2617 -0.2919
 1755SOL    HW2 7065   0.890   4.184   3.070 -0.5023 -0.5990  0.2850
 1755SOL    HW3 7066   0.796   4.302   3.065  0.7056  0.3209 -1.4914
 1755SOL    MW4 7067   0.865   4.262   3.100 -0.1552 -0.2289 -0.3743
 1756SOL     OW 7068   1.118   4.398   2.984  0.0956  0.1854 -0.1164
 1756SOL    HW2 7069   1.043   4.352   3.022 -0.0383  0.2001 -0.3634
 1756SOL    HW3 7070   1.123   4.480   3.032  0.4925 -0.1936  0.5057
 1756SOL    MW4 7071   1.109   4.403   2.995  0.1302  0.1373 -0.0672
 1757SOL     OW 7072   1.578   4.610   3.066 -0.5298  0.4525 -0.1688
 1757SOL    HW2 7073   1.586   4.618   3.161  0.2479  1.9363 -0.3440
 1757SOL    HW3 7074   1.502   4.663   3.044 -0.0526  1.0026 -0.4948
 1757SOL    MW4 7075   1.569   4.618   3.076 -0.3642  0.7205 -0.2351
 1758SOL     OW 7076   1.376   0.092   2.969 -0.3532  0.2734 -0.1139
 1758SOL    HW2 7077   1.386   0.187   2.976 -2.0638  0.4563 -0.0792
 1758SOL    HW3 7078   1.364   0.077   2.876  0.2162  0.0497 -0.1541
 1758SOL    MW4 7079   1.376   0.103   2.958 -0.5038  0.2680 -0.1147
 1759SOL     OW 7080   1.405   0.355   3.030  0.0339 -0.2453 -1.0234
 1759SOL    HW2 7081   1.392   0.382   3.121 -0.7328 -0.7168 -0.9922
 1759SOL    HW3 7082   1.480   0.406   3.001  0.8106 -0.7018  0.1361
 1759SOL    MW4 7083   1.413   0.365   3.038  0.0353 -0.3677 -0.8664
 1760SOL     OW 7084   1.594   0.544   2.940 -0.2617 -0.2580  0.1595
 1760SOL    HW2 7085   1.612   0.631   2.977 -0.4354 -0.2108  0.1310
 1760SOL    HW3 7086   1.582   0.559   2.847 -1.2300 -0.1790  0.2928
 1760SOL    MW4 7087   1.595   0.557   2.933 -0.4125 -0.2413  0.1736
 1761SOL     OW 7088   1.587   0.798   3.058 -0.2145  0.3714 -0.1373
 1761SOL    HW2 7089   1.593   0.815   3.152 -0.3580 -0.7963  0.0996
 1761SOL    HW3 7090   1.497   0.821   3.035 -0.1675  0.6965  0.0011
 1761SOL    MW4 7091   1.576   0.803   3.067 -0.2272  0.2602 -0.0877
 1762SOL     OW 7092   1.351   0.928   2.968  0.2403 -0.2257 -0.0089
 1762SOL    HW2 7093   1.360   1.003   3.027  0.4899  2.0575 -2.8475
 1762SOL    HW3 7094   1.268   0.888   2.993 -1.6031  3.0400 -0.6451
 1762SOL    MW4 7095   1.341   0.932   2.979  0.0300  0.5064 -0.4673
 1763SOL     OW 7096   1.367   1.191   3.100  0.2016  0.2248  0.0255
 1763SOL    HW2 7097   1.372   1.185   3.196  1.3937 -0.1897 -0.0446
 1763SOL    HW3 7098   1.449   1.234   3.075 -0.2018  0.5211 -0.7953
 1763SOL    MW4 7099   1.379   1.196   3.110  0.3057  0.2091 -0.0920
 1764SOL     OW 7100   1.594   1.265   3.000 -0.3625 -0.5443  0.0333
 1764SOL    HW2 7101   1.674   1.232   3.041 -1.4903 -0.1341  2.6169
 1764SOL    HW3 7102   1.606   1.360   2.996 -0.7005 -0.4895  0.3492
 1764SOL    MW4 7103   1.606   1.273   3.005 -0.5559 -0.4832  0.4156
 1765SOL     OW 7104   1.571   1.537   3.022  0.3830 -0.6967  0.0502
 1765SOL    HW2 7105   1.652   1.578   2.992 -0.4173  0.3976 -0.6735
 1765SOL    HW3 7106   1.502   1.577   2.968 -0.4935 -2.6231 -0.3070
 1765SOL    MW4 7107   1.572   1.548   3.011  0.1618 -0.8065 -0.0925
 1766SOL     OW 7108   1.324   1.644   2.932 -0.2141  0.4406  0.1298
 1766SOL    HW2 7109   1.309   1.736   2.956  0.1220  0.5151  0.0584
 1766SOL    HW3 7110   1.308   1.641   2.838  1.6628  0.8418 -0.2354
 1766SOL    MW4 7111   1.320   1.656   2.923  0.0778  0.5034  0.0722
 1767SOL     OW 7112   1.308   1.949   3.012 -0.1089  0.1989 -0.2021
 1767SOL    HW2 7113   1.325   1.964   3.105 -0.0695 -1.0510  0.0067
 1767SOL    HW3 7114   1.232   2.003   2.992 -1.7368 -1.5371  1.2038
 1767SOL    MW4 7115   1.300   1.958   3.022 -0.3186 -0.1950  0.0110
 1768SOL     OW 7116   1.554   2.070   2.948  0.1344 -0.3352  0.4539
 1768SOL    HW2 7117   1.474   2.020   2.965  0.3146 -0.7995 -0.0662
 1768SOL    HW3 7118   1.560   2.074   2.853  0.0523  0.7894  0.4852
 1768SOL    MW4 7119   1.544   2.064   2.938  0.1475 -0.2480  0.3896
 1769SOL     OW 7120   1.614   2.330   3.010  0.1281 -0.0090  0.3247
 1769SOL    HW2 7121   1.527   2.370   3.011  0.5637  0.9910 -0.7568
 1769SOL    HW3 7122   1.597   2.236   3.005 -0.9140 -0.0222  3.0778
 1769SOL    MW4 7123   1.601   2.323   3.010  0.0480  0.1214  0.5455
 1770SOL     OW 7124   1.370   2.440   2.959 -0.5374  0.5095 -0.3768
 1770SOL    HW2 7125   1.285   2.436   3.005 -0.0162 -0.8754  0.5070
 1770SOL    HW3 7126   1.347   2.442   2.867 -1.5450  0.2140 -0.1397
 1770SOL    MW4 7127   1.355   2.440   2.953 -0.6015  0.2875 -0.2286
 1771SOL     OW 7128   1.402   2.759   3.062  0.5515  0.1266 -0.3660
 1771SOL    HW2 7129   1.421   2.672   3.025 -1.7994 -0.9091  0.7907
 1771SOL    HW3 7130   1.315   2.780   3.030  0.3479  1.2557  0.8872
 1771SOL    MW4 7131   1.393   2.750   3.053  0.2145  0.1390 -0.0477
 1772SOL     OW 7132   1.621   2.883   2.957  0.5438 -0.4194 -0.4957
 1772SOL    HW2 7133   1.687   2.825   2.996  1.0677  0.1564 -0.5179
 1772SOL    HW3 7134   1.538   2.855   2.996  1.1031  0.3537  1.2962
 1772SOL    MW4 7135   1.619   2.872   2.967  0.6869 -0.2415 -0.2623
 1773SOL     OW 7136   1.596   3.138   3.062 -0.1781 -0.0963  0.0071
 1773SOL    HW2 7137   1.609   3.133   3.156  2.3440  0.4118 -0.2663
 1773SOL    HW3 7138   1.620   3.052   3.029 -0.3176 -0.0429 -0.2370
 1773SOL    MW4 7139   1.601   3.126   3.070  0.1363 -0.0219 -0.0613
 1774SOL     OW 7140   1.320   3.248   2.990  0.0943 -0.0384 -0.6097
 1774SOL    HW2 7141   1.392   3.193   3.020 -0.3349 -0.3421 -0.1220
 1774SOL    HW3 7142   1.324   3.244   2.895 -0.1136 -1.1567 -0.5809
 1774SOL    MW4 7143   1.330   3.240   2.982  0.0103 -0.2263 -0.5417
 1775SOL     OW 7144   1.342   3.519   3.071 -0.0947  0.1559  0.0149
 1775SOL    HW2 7145   1.329   3.508   3.165 -0.1332 -2.2300 -0.2353
 1775SOL    HW3 7146   1.335   3.430   3.035 -1.1268  1.1466 -2.3668
 1775SOL    MW4 7147   1.339   3.506   3.078 -0.2360 -0.0281 -0.3324
 1776SOL     OW 7148   1.595   3.630   2.992  0.2773  0.0933  0.6829
 1776SOL    HW2 7149   1.511   3.592   3.016  0.3644 -1.0791 -0.7696
 1776SOL    HW3 7150   1.594   3.632   2.896  1.3062  1.4265  0.6834
 1776SOL    MW4 7151   1.584   3.625   2.982  0.4244  0.1144  0.4911
 1777SOL     OW 7152   1.582   3.880   3.116 -0.0589 -0.3633 -0.0395
 1777SOL    HW2 7153   1.653   3.924   3.069  0.9722  0.1625  1.9232
 1777SOL    HW3 7154   1.578   3.792   3.078  1.3079 -0.2275 -0.5198
 1777SOL    MW4 7155   1.591   3.874   3.105  0.2575 -0.2759  0.1562
 1778SOL     OW 7156   1.373   4.012   2.966  0.6351  0.2322  0.0718
 1778SOL    HW2 7157   1.431   3.966   3.026 -0.9756 -0.5314  1.0643
 1778SOL    HW3 7158   1.285   3.985   2.991 -0.0647 -0.8209 -3.2049
 1778SOL    MW4 7159   1.369   4.003   2.977  0.3302 -0.0081 -0.2296
 1779SOL     OW 7160   1.359   4.270   3.076  0.1008  0.4128 -0.1720
 1779SOL    HW2 7161   1.350   4.177   3.055  0.6306  0.8165 -2.2579
 1779SOL    HW3 7162   1.272   4.307   3.059 -0.2190  0.2571  1.0310
 1779SOL    MW4 7163   1.346   4.263   3.071  0.1284  0.4458 -0.2885
 1780SOL     OW 7164   1.576   4.366   2.942 -0.0550  0.8302 -0.2807
 1780SOL    HW2 7165   1.506   4.314   2.982  1.1313 -0.1801  0.5053
 1780SOL    HW3 7166   1.570   4.451   2.984 -0.6904  0.6865 -0.0740
 1780SOL    MW4 7167   1.566   4.370   2.953  0.0176  0.6776 -0.1497
 1781SOL     OW 7168   2.021   0.011   3.067  0.3858  0.0260  0.0486
 1781SOL    HW2 7169   2.017   0.009   3.162 -1.0291 -1.0235 -0.0227
 1781SOL    HW3 7170   1.932   0.032   3.039  0.8002  0.3625 -1.0329
 1781SOL    MW4 7171   2.009   0.013   3.076  0.2539 -0.0681 -0.1035
 1782SOL     OW 7172   1.782   0.102   2.971  0.0328  0.1723  0.1263
 1782SOL    HW2 7173   1.708   0.042   2.981  0.3363 -0.2307 -0.0375
 1782SOL    HW3 7174   1.776   0.133   2.881  0.4746 -0.4152 -0.1135
 1782SOL    MW4 7175   1.772   0.098   2.961  0.1311  0.0416  0.0737
 1783SOL     OW 7176   1.792   0.383   3.070  0.2407 -0.3073  0.1453
 1783SOL    HW2 7177   1.773   0.292   3.045  0.0432 -0.2546  0.1051
 1783SOL    HW3 7178   1.727   0.435   3.022 -0.0769 -0.1946  0.6902
 1783SOL    MW4 7179   1.781   0.378   3.060  0.1727 -0.2855  0.2120
 1784SOL     OW 7180   2.043   0.517   3.006  0.4429  0.7949 -0.2994
 1784SOL    HW2 7181   1.962   0.471   3.026  1.6943 -1.0213  0.7874
 1784SOL    HW3 7182   2.043   0.527   2.911 -0.2034 -0.7840 -0.4704
 1784SOL    MW4 7183   2.032   0.512   2.996  0.5226  0.3469 -0.1788
 1785SOL     OW 7184   2.034   0.781   3.128 -0.2869 -0.0757 -0.3514
 1785SOL    HW2 7185   2.036   0.782   3.224 -1.0524  0.7823 -0.3256
 1785SOL    HW3 7186   2.029   0.689   3.105 -2.1565 -0.2238  0.5189
 1785SOL    MW4 7187   2.033   0.769   3.138 -0.6344  0.0179 -0.2334
 1786SOL     OW 7188   1.835   0.925   2.985 -0.1034  0.3153 -0.2654
 1786SOL    HW2 7189   1.756   0.874   3.003 -0.0167  0.3571  0.2595
 1786SOL    HW3 7190   1.904   0.880   3.034  0.2951  0.0007 -1.1067
 1786SOL    MW4 7191   1.834   0.912   2.994 -0.0395  0.2794 -0.3068
 1787SOL     OW 7192   1.832   1.174   3.110  0.1671 -0.6893 -0.0584
 1787SOL    HW2 7193   1.833   1.163   3.206  2.2761 -2.3583 -0.2283
 1787SOL    HW3 7194   1.826   1.085   3.076  0.3970 -0.1628 -1.4957
 1787SOL    MW4 7195   1.832   1.161   3.118  0.4756 -0.8399 -0.2708
 1788SOL     OW 7196   2.050   1.276   2.952  0.1773  0.1316  0.0362
 1788SOL    HW2 7197   2.128   1.231   2.984  0.2226 -0.6521 -1.1499
 1788SOL    HW3 7198   1.977   1.229   2.994  0.2512 -0.6256 -0.6757
 1788SOL    MW4 7199   2.051   1.264   2.962  0.1929 -0.0718 -0.2141
 1789SOL     OW 7200   2.032   1.549   3.018 -0.5000  0.1971  0.0728
 1789SOL    HW2 7201   2.037   1.550   3.113 -1.6059  0.7023  0.1278
 1789SOL    HW3 7202   2.035   1.456   2.995  0.5658  0.1040  0.5445
 1789SOL    MW4 7203   2.033   1.537   3.027 -0.5054  0.2514  0.1423
 1790SOL     OW 7204   1.793   1.653   2.922 -0.0270 -0.4343  0.2281
 1790SOL    HW2 7205   1.794   1.740   2.961  2.1237  0.7800 -2.4559
 1790SOL    HW3 7206   1.871   1.610   2.956 -0.5284 -0.9765  0.7195
 1790SOL    MW4 7207   1.803   1.659   2.932  0.1907 -0.3456 -0.0610
 1791SOL     OW 7208   1.802   1.930   3.008  0.2908  0.0836  0.0046
 1791SOL    HW2 7209   1.872   1.973   2.959 -1.1274  0.7451 -1.5089
 1791SOL    HW3 7210   1.725   1.985   2.993 -0.3600 -0.1204  2.3980
 1791SOL    MW4 7211   1.801   1.943   2.999  0.0179  0.1440  0.1206
 1792SOL     OW 7212   2.019   2.069   2.911  0.1931 -0.6184  0.3653
 1792SOL    HW2 7213   2.083   2.026   2.968  1.0650 -0.5787 -0.5716
 1792SOL    HW3 7214   2.015   2.159   2.943 -0.8381 -1.1066  1.6512
 1792SOL    MW4 7215   2.027   2.075   2.923  0.1721 -0.6776  0.4113
 1793SOL     OW 7216   2.022   2.336   3.002 -0.5336 -0.7820 -0.2848
 1793SOL    HW2 7217   2.110   2.362   2.973 -0.5035 -0.8943 -0.2975
 1793SOL    HW3 7218   1.964   2.401   2.965 -0.5186 -1.0548 -0.7946
 1793SOL    MW4 7219   2.026   2.348   2.993 -0.5274 -0.8328 -0.3536
 1794SOL     OW 7220   1.807   2.490   2.908  0.1002  0.0007 -0.0227
 1794SOL    HW2 7221   1.803   2.564   2.969 -0.4595  0.5861 -0.7497
 1794SOL    HW3 7222   1.748   2.425   2.946  1.7582 -0.7053  1.4175
 1794SOL    MW4 7223   1.799   2.491   2.921  0.2451 -0.0150  0.0715
 1795SOL     OW 7224   1.815   2.734   3.060 -0.0394 -0.3254  0.2812
 1795SOL    HW2 7225   1.827   2.737   3.155  0.6170  0.4457  0.1769
 1795SOL    HW3 7226   1.899   2.762   3.025 -0.5876  0.3266 -0.5229
 1795SOL    MW4 7227   1.828   2.738   3.068 -0.0253 -0.1376  0.1612
 1796SOL     OW 7228   2.065   2.832   2.940 -0.0938 -0.0137 -0.0685
 1796SOL    HW2 7229   2.042   2.915   2.982  2.4379  1.0264 -0.6372
 1796SOL    HW3 7230   2.043   2.845   2.848 -2.5133 -1.1032  0.3064
 1796SOL    MW4 7231   2.059   2.845   2.934 -0.0792 -0.0203 -0.0942
 1797SOL     OW 7232   2.023   3.086   3.048  0.1542  0.8408  0.1729
 1797SOL    HW2 7233   2.020   3.080   3.143  0.1870 -0.3432  0.1100
 1797SOL    HW3 7234   1.943   3.133   3.024 -0.4543  0.0960  0.7168
 1797SOL    MW4 7235   2.012   3.092   3.057  0.0782  0.5863  0.2365
 1798SOL     OW 7236   1.826   3.244   2.961  0.0773 -0.2759  0.4544
 1798SOL    HW2 7237   1.744   3.206   2.993  0.6921 -1.6827  0.3865
 1798SOL    HW3 7238   1.825   3.230   2.867  0.5178 -0.5549  0.4860
 1798SOL    MW4 7239   1.815   3.237   2.953  0.2166 -0.4983  0.4497
 1799SOL     OW 7240   1.828   3.486   3.094  0.0378  0.0468 -0.1153
 1799SOL    HW2 7241   1.821   3.404   3.044  0.8622  0.9939 -1.8261
 1799SOL    HW3 7242   1.745   3.531   3.077  0.2836  0.3322 -0.5462
 1799SOL    MW4 7243   1.816   3.481   3.085  0.1791  0.2093 -0.3979
 1800SOL     OW 7244   2.022   3.623   2.964 -0.1453 -0.3386  0.4995
 1800SOL    HW2 7245   2.019   3.706   3.012 -0.1982 -0.2168  0.2855
 1800SOL    HW3 7246   1.943   3.577   2.992 -0.4460 -0.0495  0.1392
 1800SOL    MW4 7247   2.011   3.628   2.974 -0.1919 -0.2844  0.4234
 1801SOL     OW 7248   2.021   3.884   3.082  0.2542 -0.2562 -0.3012
 1801SOL    HW2 7249   2.002   3.902   3.174 -1.8096 -1.8846 -0.3657
 1801SOL    HW3 7250   1.947   3.923   3.034  2.1567  2.0925 -1.4653
 1801SOL    MW4 7251   2.009   3.892   3.088  0.2329 -0.1614 -0.4635
 1802SOL     OW 7252   1.812   4.003   2.956  0.2746 -0.2254 -0.3821
 1802SOL    HW2 7253   1.818   4.094   2.984  1.6677 -0.7984  1.3271
 1802SOL    HW3 7254   1.809   4.007   2.860  0.4871  1.6014 -0.3246
 1802SOL    MW4 7255   1.813   4.015   2.947  0.4865 -0.0596 -0.1490
 1803SOL     OW 7256   1.819   4.263   3.031 -0.3993  0.1345  0.0905
 1803SOL    HW2 7257   1.889   4.329   3.023 -0.9695  0.7525  0.1618
 1803SOL    HW3 7258   1.740   4.309   3.005 -1.1487  0.1047  2.2384
 1803SOL    MW4 7259   1.818   4.278   3.026 -0.5734  0.2122  0.3834
 1804SOL     OW 7260   2.033   4.441   2.955  0.5496 -0.2247 -0.2265
 1804SOL    HW2 7261   2.033   4.528   2.994  0.6944 -0.9694  1.5297
 1804SOL    HW3 7262   2.018   4.455   2.862 -0.4942  1.5949  0.1958
 1804SOL    MW4 7263   2.031   4.454   2.948  0.4311 -0.0830  0.0610
 1805SOL     OW 7264   2.499   0.015   3.020 -0.0135  0.2242 -0.1998
 1805SOL    HW2 7265   2.521  -0.077   3.010  1.8027  0.3840  2.0571
 1805SOL    HW3 7266   2.404   0.019   3.007 -0.4218 -2.2568  1.7824
 1805SOL    MW4 7267   2.489   0.004   3.017  0.1721 -0.0821  0.3593
 1806SOL     OW 7268   2.248   0.136   2.987 -0.0838 -0.3757 -0.0119
 1806SOL    HW2 7269   2.264   0.222   3.026  0.3784  0.5442 -2.1806
 1806SOL    HW3 7270   2.164   0.108   3.023 -1.6967  2.2987 -1.5489
 1806SOL    MW4 7271   2.239   0.143   2.997 -0.2353  0.0986 -0.5009
 1807SOL     OW 7272   2.279   0.388   3.055 -0.1301 -0.2943  0.3073
 1807SOL    HW2 7273   2.278   0.415   3.147 -2.9459 -0.6322  0.4152
 1807SOL    HW3 7274   2.200   0.428   3.018  0.1246 -1.4970 -1.5622
 1807SOL    MW4 7275   2.268   0.397   3.062 -0.4678 -0.4975  0.0746
 1808SOL     OW 7276   2.504   0.506   2.951 -0.1463  0.1624  0.1832
 1808SOL    HW2 7277   2.418   0.473   2.977  0.1284  0.2730  1.2759
 1808SOL    HW3 7278   2.503   0.503   2.855 -0.6288 -1.7206  0.2186
 1808SOL    MW4 7279   2.493   0.501   2.942 -0.1738 -0.0714  0.3324
 1809SOL     OW 7280   2.491   0.754   3.075  0.2577  0.6566 -0.0997
 1809SOL    HW2 7281   2.566   0.802   3.040  0.7944  1.7623  2.3814
 1809SOL    HW3 7282   2.495   0.668   3.034  0.8050  1.8831 -2.6845
 1809SOL    MW4 7283   2.501   0.749   3.065  0.4008  0.9643 -0.1132
 1810SOL     OW 7284   2.266   0.885   3.002  0.0067  0.4816 -0.2494
 1810SOL    HW2 7285   2.349   0.846   3.031 -0.4191 -1.2010 -1.2489
 1810SOL    HW3 7286   2.200   0.844   3.059 -0.0977  2.2879  0.9728
 1810SOL    MW4 7287   2.268   0.874   3.014 -0.0634  0.4979 -0.2201
 1811SOL     OW 7288   2.242   1.141   3.076  0.1512  0.0913 -0.0019
 1811SOL    HW2 7289   2.221   1.138   3.169  2.5721 -0.2388  0.5653
 1811SOL    HW3 7290   2.253   1.049   3.051  2.2304  0.2977  0.0677
 1811SOL    MW4 7291   2.241   1.128   3.085  0.7448  0.0749  0.0823
 1812SOL     OW 7292   2.467   1.294   3.024 -0.3182  0.7286  0.1306
 1812SOL    HW2 7293   2.390   1.240   3.037 -0.3659  0.8134  0.2000
 1812SOL    HW3 7294   2.477   1.298   2.929  0.0496  0.0874  0.1410
 1812SOL    MW4 7295   2.458   1.288   3.013 -0.2756  0.6552  0.1409
 1813SOL     OW 7296   2.459   1.572   3.091  0.1023  0.3424 -0.1989
 1813SOL    HW2 7297   2.387   1.598   3.034 -1.5613 -0.6745  1.3829
 1813SOL    HW3 7298   2.464   1.477   3.082  0.0647  0.2068  1.0410
 1813SOL    MW4 7299   2.450   1.563   3.082 -0.1221  0.1903  0.1733
 1814SOL     OW 7300   2.256   1.719   2.967 -0.4437 -0.2873 -0.3296
 1814SOL    HW2 7301   2.179   1.663   2.978 -0.6878  0.3028  1.2388
 1814SOL    HW3 7302   2.260   1.738   2.874 -1.4920 -1.3293 -0.5900
 1814SOL    MW4 7303   2.246   1.714   2.956 -0.6144 -0.3470 -0.1574
 1815SOL     OW 7304   2.200   1.958   3.075 -0.0995 -0.0093  0.3474
 1815SOL    HW2 7305   2.267   2.014   3.035 -1.5167  1.1663 -0.4099
 1815SOL    HW3 7306   2.206   1.876   3.026  2.4012 -0.7881  1.8683
 1815SOL    MW4 7307   2.210   1.955   3.063  0.0436  0.0430  0.4482
 1816SOL     OW 7308   2.466   2.058   2.993  0.1841  0.4713 -0.3084
 1816SOL    HW2 7309   2.536   2.002   3.028  0.0497  1.1333  1.0228
 1816SOL    HW3 7310   2.485   2.063   2.899  1.7529  0.3973 -0.0072
 1816SOL    MW4 7311   2.478   2.051   2.985  0.3736  0.5488 -0.0930
 1817SOL     OW 7312   2.504   2.321   3.016 -0.4754 -0.0203 -0.0151
 1817SOL    HW2 7313   2.497   2.337   3.111 -1.0534 -1.3178  0.1716
 1817SOL    HW3 7314   2.473   2.231   3.005 -0.4333  0.1371 -1.4483
 1817SOL    MW4 7315   2.499   2.311   3.027 -0.5465 -0.1705 -0.1795
 1818SOL     OW 7316   2.281   2.437   2.910  0.4516 -0.6789  0.4689
 1818SOL    HW2 7317   2.297   2.527   2.937  0.1046 -0.6407  0.5423
 1818SOL    HW3 7318   2.355   2.388   2.948 -1.0921 -0.9557  3.2604
 1818SOL    MW4 7319   2.293   2.442   2.919  0.2022 -0.7102  0.8466
 1819SOL     OW 7320   2.271   2.694   3.037  0.2549  0.1529  0.1784
 1819SOL    HW2 7321   2.350   2.740   3.006  0.1426  0.8464  0.9016
 1819SOL    HW3 7322   2.198   2.746   3.003  0.1329  1.3363  2.1884
 1819SOL    MW4 7323   2.272   2.707   3.029  0.2244  0.4008  0.5391
 1820SOL     OW 7324   2.498   2.815   2.908 -0.8049 -0.1258 -0.7807
 1820SOL    HW2 7325   2.486   2.895   2.959 -1.0673 -1.0216  0.5799
 1820SOL    HW3 7326   2.492   2.844   2.817 -1.6914  1.2779 -0.2930
 1820SOL    MW4 7327   2.496   2.829   2.903 -0.9563 -0.0591 -0.5372
 1821SOL     OW 7328   2.466   3.055   3.022  0.0930  0.0908  0.1569
 1821SOL    HW2 7329   2.535   3.114   2.991 -0.4558 -0.1073 -1.4623
 1821SOL    HW3 7330   2.385   3.092   2.986 -0.4259 -0.7644  0.4362
 1821SOL    MW4 7331   2.464   3.068   3.013 -0.0479 -0.0482 -0.0200
 1822SOL     OW 7332   2.231   3.217   2.942 -0.0819  0.1116  0.5404
 1822SOL    HW2 7333   2.163   3.167   2.985 -0.5279  0.9984  0.8830
 1822SOL    HW3 7334   2.234   3.300   2.990 -0.2751  0.9287 -0.8402
 1822SOL    MW4 7335   2.223   3.222   2.954 -0.1662  0.3364  0.4036
 1823SOL     OW 7336   2.245   3.457   3.087 -0.2641 -0.1318 -0.0961
 1823SOL    HW2 7337   2.315   3.509   3.047  0.2793 -0.5705  0.2805
 1823SOL    HW3 7338   2.165   3.490   3.046  0.2562 -0.3614 -1.3262
 1823SOL    MW4 7339   2.244   3.468   3.076 -0.1237 -0.2201 -0.2086
 1824SOL     OW 7340   2.449   3.612   2.971  0.6863  0.0794 -0.2525
 1824SOL    HW2 7341   2.520   3.553   2.996 -1.1793 -1.0841  2.5648
 1824SOL    HW3 7342   2.469   3.694   3.016  0.9122  0.1799 -0.5314
 1824SOL    MW4 7343   2.461   3.615   2.980  0.4697 -0.0610  0.0825
 1825SOL     OW 7344   2.480   3.878   3.059  0.0055 -0.2422  0.2223
 1825SOL    HW2 7345   2.498   3.867   3.152  0.8149 -0.1637  0.0789
 1825SOL    HW3 7346   2.551   3.934   3.027 -1.0365  0.9151 -0.1583
 1825SOL    MW4 7347   2.492   3.884   3.067 -0.0250 -0.0792  0.1533
 1826SOL     OW 7348   2.262   4.032   2.966 -0.1270  0.1685  0.0508
 1826SOL    HW2 7349   2.332   3.980   3.006 -0.4890 -0.9842 -0.7856
 1826SOL    HW3 7350   2.181   3.994   3.000 -0.3659  1.1450  0.5902
 1826SOL    MW4 7351   2.260   4.020   2.976 -0.2062  0.1454  0.0114
 1827SOL     OW 7352   2.267   4.293   3.036  0.6869  0.1220 -0.2934
 1827SOL    HW2 7353   2.267   4.209   2.991  0.5778 -0.4187  0.7043
 1827SOL    HW3 7354   2.187   4.336   3.007  0.6204 -0.2217 -0.6168
 1827SOL    MW4 7355   2.257   4.288   3.027  0.6638  0.0052 -0.2043
 1828SOL     OW 7356   2.514   4.420   2.962  0.6007 -0.1358 -0.2707
 1828SOL    HW2 7357   2.428   4.387   2.988  0.4027 -1.0695 -2.0496
 1828SOL    HW3 7358   2.512   4.421   2.867  1.8934  1.6604 -0.3085
 1828SOL    MW4 7359   2.502   4.416   2.953  0.7453 -0.0215 -0.5105
 1829SOL     OW 7360   2.999   4.655   3.096 -0.6657  0.3712  0.1859
 1829SOL    HW2 7361   3.069   4.684   3.037 -2.3814  0.5879 -1.7906
 1829SOL    HW3 7362   2.978   4.566   3.067 -0.4360 -0.1244  1.5088
 1829SOL    MW4 7363   3.005   4.647   3.084 -0.8619  0.3347  0.0999
 1830SOL     OW 7364   2.749   0.125   2.954 -0.3470 -0.6252 -0.4539
 1830SOL    HW2 7365   2.823   0.093   3.006 -0.6809  0.2432  0.5618
 1830SOL    HW3 7366   2.672   0.090   2.999 -0.6659  0.6779  0.0225
 1830SOL    MW4 7367   2.748   0.116   2.967 -0.4332 -0.3387 -0.2570
 1831SOL     OW 7368   2.720   0.385   3.071  0.4398 -0.2682 -0.0077
 1831SOL    HW2 7369   2.723   0.307   3.016 -1.5080 -0.9251  0.7780
 1831SOL    HW3 7370   2.641   0.431   3.043  0.2986  0.2044  1.1416
 1831SOL    MW4 7371   2.710   0.381   3.060  0.1643 -0.2925  0.2475
 1832SOL     OW 7372   2.937   0.526   2.956 -0.2755  0.2977 -0.3778
 1832SOL    HW2 7373   2.869   0.480   3.005  0.3368 -1.4932 -1.1719
 1832SOL    HW3 7374   2.916   0.511   2.864  0.0143  1.5124 -0.6617
 1832SOL    MW4 7375   2.926   0.518   2.950 -0.1564  0.2217 -0.5198
 1833SOL     OW 7376   2.933   0.774   3.329 -0.0926 -0.1419  0.0323
 1833SOL    HW2 7377   2.860   0.808   3.381  0.0933  0.7229 -0.2733
 1833SOL    HW3 7378   3.011   0.811   3.370  0.0661  0.3688 -0.7406
 1833SOL    MW4 7379   2.933   0.783   3.341 -0.0474  0.0396 -0.1101
 1834SOL     OW 7380   2.707   0.882   2.954  0.0056  0.1682  0.0459
 1834SOL    HW2 7381   2.708   0.960   3.009 -0.1498 -1.2688  2.1707
 1834SOL    HW3 7382   2.787   0.835   2.977  0.1675 -0.2368 -1.3085
 1834SOL    MW4 7383   2.717   0.886   2.965  0.0064 -0.0749  0.1473
 1835SOL     OW 7384   2.695   1.137   3.095  0.4290  0.0810  0.3207
 1835SOL    HW2 7385   2.770   1.189   3.066  0.8223  0.4060  1.8913
 1835SOL    HW3 7386   2.620   1.182   3.057  0.7940  1.5859  1.3425
 1835SOL    MW4 7387   2.695   1.150   3.086  0.5291  0.3225  0.6626
 1836SOL     OW 7388   2.917   1.270   2.994 -0.4904  0.1966 -0.1336
 1836SOL    HW2 7389   2.997   1.226   3.022 -1.6800 -1.7313  0.3486
 1836SOL    HW3 7390   2.920   1.355   3.037  1.0483 -0.0455  0.2809
 1836SOL    MW4 7391   2.928   1.275   3.003 -0.4442 -0.0898 -0.0153
 1837SOL     OW 7392   2.910   1.522   3.115 -0.1587  0.1642 -0.1448
 1837SOL    HW2 7393   2.918   1.541   3.208  0.3660 -0.6009 -0.0244
 1837SOL    HW3 7394   2.980   1.572   3.074  0.5534 -0.6670  0.0471
 1837SOL    MW4 7395   2.920   1.531   3.122  0.0043 -0.0463 -0.1037
 1838SOL     OW 7396   2.672   1.669   2.975  0.7118 -0.2418  0.8268
 1838SOL    HW2 7397   2.747   1.622   3.011 -0.2209 -2.4065  0.0589
 1838SOL    HW3 7398   2.596   1.631   3.019 -0.1990 -0.6781 -1.0613
 1838SOL    MW4 7399   2.671   1.658   2.986  0.4685 -0.5850  0.4766
 1839SOL     OW 7400   2.725   1.952   3.063 -0.3571 -0.3959 -0.3695
 1839SOL    HW2 7401   2.797   2.004   3.029  0.0823  0.6586  2.0183
 1839SOL    HW3 7402   2.739   1.865   3.028  1.8832 -0.1176 -0.2419
 1839SOL    MW4 7403   2.736   1.948   3.054 -0.0036 -0.2201 -0.0377
 1840SOL     OW 7404   2.949   2.071   2.950 -0.0126  0.3608 -0.4485
 1840SOL    HW2 7405   2.946   2.164   2.971  1.6750  0.0892  1.1517
 1840SOL    HW3 7406   2.938   2.067   2.855  0.8562  2.2577 -0.6483
 1840SOL    MW4 7407   2.947   2.083   2.940  0.3245  0.5751 -0.2637
 1841SOL     OW 7408   2.934   2.337   3.021  0.3827 -0.1534  0.0792
 1841SOL    HW2 7409   2.914   2.340   3.115 -0.6891  0.0488 -0.1494
 1841SOL    HW3 7410   2.856   2.374   2.979  0.5163 -1.0104 -0.9375
 1841SOL    MW4 7411   2.921   2.342   3.028  0.2589 -0.2401 -0.0851
 1842SOL     OW 7412   2.723   2.426   2.872  0.2977  0.2014 -0.1464
 1842SOL    HW2 7413   2.718   2.518   2.898  0.7959 -0.1539  1.2639
 1842SOL    HW3 7414   2.648   2.386   2.915  0.6424 -0.2351  0.0502
 1842SOL    MW4 7415   2.712   2.433   2.881  0.4091  0.0968  0.0658
 1843SOL     OW 7416   2.712   2.675   3.015  0.4087  0.5328 -0.2911
 1843SOL    HW2 7417   2.704   2.695   3.108  1.3066  0.0516 -0.1088
 1843SOL    HW3 7418   2.642   2.725   2.974  0.7229  1.6500  0.5078
 1843SOL    MW4 7419   2.702   2.684   3.022  0.5686  0.6170 -0.1616
 1844SOL     OW 7420   2.916   2.839   2.942 -0.5143 -0.0273 -0.0106
 1844SOL    HW2 7421   2.993   2.790   2.971  0.7541  0.3259 -2.6704
 1844SOL    HW3 7422   2.842   2.783   2.966  0.6783 -1.3416  0.6894
 1844SOL    MW4 7423   2.916   2.825   2.949 -0.1898 -0.1540 -0.2692
 1845SOL     OW 7424   2.929   3.100   2.983  0.0110  0.3141  0.2523
 1845SOL    HW2 7425   2.854   3.140   2.940 -0.0937 -1.2700 -1.0858
 1845SOL    HW3 7426   2.914   3.006   2.976  0.9320 -0.0012  2.1172
 1845SOL    MW4 7427   2.917   3.093   2.977  0.1187  0.0634  0.3216
 1846SOL     OW 7428   2.668   3.208   2.925  0.0348 -0.6715  0.2581
 1846SOL    HW2 7429   2.657   3.289   2.974  0.1487 -0.8397  0.5646
 1846SOL    HW3 7430   2.663   3.235   2.833  0.8668 -0.1930  0.3435
 1846SOL    MW4 7431   2.666   3.222   2.919  0.1593 -0.6304  0.3102
 1847SOL     OW 7432   2.659   3.440   3.045 -0.0494  0.5490 -0.2082
 1847SOL    HW2 7433   2.675   3.445   3.140  0.1019 -0.6799 -0.1619
 1847SOL    HW3 7434   2.738   3.476   3.006  0.0032  0.8063  0.1332
 1847SOL    MW4 7435   2.672   3.445   3.052 -0.0224  0.4206 -0.1571
 1848SOL     OW 7436   2.901   3.571   2.931  0.1901 -0.4131  0.0060
 1848SOL    HW2 7437   2.917   3.657   2.970  1.9084  0.1406 -1.8503
 1848SOL    HW3 7438   2.978   3.519   2.956  0.3415 -0.6529 -0.9494
 1848SOL    MW4 7439   2.914   3.575   2.940  0.4363 -0.3717 -0.3648
 1849SOL     OW 7440   2.927   3.819   3.034  0.0045 -0.2292 -0.1463
 1849SOL    HW2 7441   2.933   3.818   3.130  0.1852 -2.0341 -0.1554
 1849SOL    HW3 7442   2.849   3.870   3.015 -0.9691 -1.2477  1.0418
 1849SOL    MW4 7443   2.918   3.826   3.044 -0.1001 -0.6015  0.0093
 1850SOL     OW 7444   2.705   3.991   2.957 -0.2461  0.0029  0.2931
 1850SOL    HW2 7445   2.701   4.086   2.969 -0.4085 -0.0666  0.8002
 1850SOL    HW3 7446   2.729   3.980   2.865 -1.8742  0.5298 -0.2171
 1850SOL    MW4 7447   2.707   4.002   2.946 -0.4823  0.0634  0.2928
 1851SOL     OW 7448   2.701   4.259   3.059 -0.1527  0.0283  0.2582
 1851SOL    HW2 7449   2.690   4.251   3.154 -0.6844  0.0571  0.1993
 1851SOL    HW3 7450   2.624   4.307   3.030  0.4601  0.8346 -0.0716
 1851SOL    MW4 7451   2.690   4.264   3.068 -0.1419  0.1388  0.2069
 1852SOL     OW 7452   2.920   4.402   3.024  0.2111  0.7065  0.2089
 1852SOL    HW2 7453   2.997   4.358   3.059  0.9686  1.2200 -0.7803
 1852SOL    HW3 7454   2.847   4.345   3.047  0.9555 -0.0765  0.6486
 1852SOL    MW4 7455   2.921   4.389   3.032  0.4091  0.6714  0.1361
 1853SOL     OW 7456   3.350   4.607   3.076 -0.3051  0.3875 -0.7305
 1853SOL    HW2 7457   3.432   4.656   3.069  0.7184 -0.9943  0.9909
 1853SOL    HW3 7458   3.369   4.522   3.037 -1.9221  1.1428 -3.2592
 1853SOL    MW4 7459   3.363   4.602   3.070 -0.3834  0.3042 -0.8371
 1854SOL     OW 7460   3.180   0.096   2.930 -0.2577  0.0283  0.1955
 1854SOL    HW2 7461   3.165   0.182   2.968 -0.5041  0.6490 -1.2478
 1854SOL    HW3 7462   3.249   0.057   2.984 -0.1085  1.1479  0.8266
 1854SOL    MW4 7463   3.187   0.102   2.942 -0.2704  0.2579  0.0882
 1855SOL     OW 7464   3.384   0.507   3.002 -0.2783 -0.3244 -0.0163
 1855SOL    HW2 7465   3.463   0.462   3.032  1.3424  1.9031 -0.8341
 1855SOL    HW3 7466   3.398   0.520   2.908 -1.2560  0.7700 -0.0254
 1855SOL    MW4 7467   3.396   0.503   2.993 -0.1936  0.1139 -0.1254
 1856SOL     OW 7468   3.148   0.346   3.052  0.2056  0.6348  0.0926
 1856SOL    HW2 7469   3.222   0.402   3.030 -0.3561  0.5295 -2.1044
 1856SOL    HW3 7470   3.072   0.392   3.016 -0.5405 -0.3420  0.4231
 1856SOL    MW4 7471   3.148   0.360   3.045  0.0331  0.4920 -0.1538
 1857SOL     OW 7472   3.402   0.767   3.069 -0.1205  0.0243  0.0460
 1857SOL    HW2 7473   3.437   0.773   3.158  1.1006  1.4017 -0.5222
 1857SOL    HW3 7474   3.392   0.673   3.054  0.5329 -0.2566  1.3056
 1857SOL    MW4 7475   3.405   0.755   3.079  0.1268  0.1690  0.1373
 1858SOL     OW 7476   2.956   0.776   3.060 -0.0555 -0.5616 -0.4268
 1858SOL    HW2 7477   2.951   0.685   3.032 -2.2030 -0.8889  0.8969
 1858SOL    HW3 7478   2.938   0.774   3.154  0.2607  1.1904 -0.3038
 1858SOL    MW4 7479   2.953   0.764   3.069 -0.2971 -0.3737 -0.2360
 1859SOL     OW 7480   3.174   0.904   2.975  0.1120 -0.1556  0.2090
 1859SOL    HW2 7481   3.238   0.841   3.011 -0.8041 -0.4554  1.3510
 1859SOL    HW3 7482   3.089   0.867   2.998 -0.4420  1.6861  1.1992
 1859SOL    MW4 7483   3.171   0.891   2.983 -0.0820  0.0479  0.4904
 1860SOL     OW 7484   3.362   1.275   2.979 -0.0681 -0.2532 -0.5854
 1860SOL    HW2 7485   3.426   1.236   3.039  0.5267 -0.5164 -1.3869
 1860SOL    HW3 7486   3.359   1.367   3.005  2.7171  0.3975 -2.3077
 1860SOL    MW4 7487   3.370   1.282   2.991  0.3777 -0.2019 -0.9184
 1861SOL     OW 7488   3.360   1.532   3.084  0.0506 -0.3322 -0.7563
 1861SOL    HW2 7489   3.361   1.523   3.180 -0.8766  0.9074 -0.6133
 1861SOL    HW3 7490   3.443   1.574   3.063 -0.3607  0.7125 -0.3397
 1861SOL    MW4 7491   3.371   1.537   3.094 -0.1259 -0.0308 -0.6821
 1862SOL     OW 7492   3.127   1.637   2.963 -0.1626  0.0607  0.4479
 1862SOL    HW2 7493   3.197   1.588   3.006  0.0235 -0.2847 -0.2462
 1862SOL    HW3 7494   3.156   1.647   2.872  0.0777  1.9897  0.7257
 1862SOL    MW4 7495   3.140   1.632   2.956 -0.1063  0.2695  0.3929
 1863SOL     OW 7496   3.140   1.912   3.068 -0.3151  0.5597  0.4506
 1863SOL    HW2 7497   3.123   1.826   3.030  0.4018  0.4620  0.3374
 1863SOL    HW3 7498   3.076   1.970   3.026  0.1085  0.3468 -0.4966
 1863SOL    MW4 7499   3.129   1.908   3.058 -0.1645  0.5187  0.3107
 1864SOL     OW 7500   3.376   2.061   2.990  0.1079  0.1706 -0.0760
 1864SOL    HW2 7501   3.446   2.020   3.040  0.5114  0.2655 -0.5527
 1864SOL    HW3 7502   3.298   2.010   3.011  0.4653 -0.3959 -0.1038
 1864SOL    MW4 7503   3.375   2.049   2.999  0.2079  0.1085 -0.1428
 1865SOL     OW 7504   3.380   2.331   3.055 -0.6082  0.5172 -0.0328
 1865SOL    HW2 7505   3.297   2.370   3.027  0.7902  2.1065 -2.0820
 1865SOL    HW3 7506   3.370   2.238   3.034 -1.5511  0.8483 -1.1455
 1865SOL    MW4 7507   3.367   2.324   3.048 -0.5481  0.7701 -0.4499
 1866SOL     OW 7508   3.161   2.464   2.940 -0.4597  0.0940  0.4799
 1866SOL    HW2 7509   3.086   2.410   2.965  0.5732 -1.6454 -0.1469
 1866SOL    HW3 7510   3.163   2.459   2.845  0.9866 -0.6168  0.5355
 1866SOL    MW4 7511   3.151   2.456   2.931 -0.1328 -0.2291  0.4046
 1867SOL     OW 7512   3.137   2.719   3.036 -0.4031  0.2882  0.0857
 1867SOL    HW2 7513   3.133   2.721   3.131 -1.6494  1.2701  0.0228
 1867SOL    HW3 7514   3.135   2.626   3.014  2.6521 -0.0681  1.0968
 1867SOL    MW4 7515   3.136   2.707   3.045 -0.1645  0.3710  0.2105
 1868SOL     OW 7516   3.390   2.814   3.003  0.3573 -0.5297  1.1880
 1868SOL    HW2 7517   3.382   2.902   3.041 -2.8138 -0.1926 -0.1233
 1868SOL    HW3 7518   3.304   2.775   3.013  1.1284 -2.7093 -0.2213
 1868SOL    MW4 7519   3.378   2.821   3.010  0.0410 -0.7727  0.8290
 1869SOL     OW 7520   3.374   3.063   3.120 -0.6691  0.4983  0.7909
 1869SOL    HW2 7521   3.366   3.080   3.214 -1.5340 -1.2575  1.0500
 1869SOL    HW3 7522   3.302   3.111   3.080  0.1763  1.9104  0.9168
 1869SOL    MW4 7523   3.364   3.072   3.127 -0.6716  0.4528  0.8416
 1870SOL     OW 7524   3.190   3.199   2.978  0.2544  0.3371 -0.1581
 1870SOL    HW2 7525   3.106   3.158   2.998 -0.3056  1.7154  0.3660
 1870SOL    HW3 7526   3.188   3.216   2.884 -0.1482  0.5637 -0.1100
 1870SOL    MW4 7527   3.179   3.196   2.969  0.1273  0.5488 -0.0827
 1871SOL     OW 7528   3.137   3.459   3.089  0.0591 -0.1443  0.0358
 1871SOL    HW2 7529   3.209   3.513   3.055 -0.4560 -0.1615 -1.1238
 1871SOL    HW3 7530   3.158   3.370   3.059 -1.1341  0.0720 -1.4863
 1871SOL    MW4 7531   3.149   3.454   3.080 -0.1664 -0.1183 -0.3178
 1872SOL     OW 7532   3.364   3.589   2.981  0.4063  0.3062 -0.2378
 1872SOL    HW2 7533   3.442   3.550   3.021 -0.3128  1.1904  2.1469
 1872SOL    HW3 7534   3.359   3.676   3.020 -1.6027  0.3597 -0.5745
 1872SOL    MW4 7535   3.373   3.595   2.991  0.0463  0.4296  0.0324
 1873SOL     OW 7536   3.341   3.850   3.085 -0.7967 -0.2247 -0.1745
 1873SOL    HW2 7537   3.342   3.882   3.175 -0.1317  1.9921 -0.9390
 1873SOL    HW3 7538   3.272   3.900   3.042  0.4585  0.4274 -1.4779
 1873SOL    MW4 7539   3.332   3.861   3.091 -0.5434  0.1540 -0.4475
 1874SOL     OW 7540   3.127   4.019   3.010  0.3285 -0.3683 -0.3572
 1874SOL    HW2 7541   3.055   3.959   3.025 -1.3150  1.8067  0.7164
 1874SOL    HW3 7542   3.131   4.028   2.914 -2.0524  0.8837 -0.3778
 1874SOL    MW4 7543   3.118   4.013   2.999 -0.2027  0.0839 -0.2182
 1875SOL     OW 7544   3.146   4.272   3.109  0.3270  0.0231 -0.4864
 1875SOL    HW2 7545   3.159   4.258   3.203  1.1053 -0.4481 -0.6542
 1875SOL    HW3 7546   3.142   4.184   3.073 -0.3613  0.2038 -0.8467
 1875SOL    MW4 7547   3.147   4.259   3.117  0.3388 -0.0148 -0.5562
 1876SOL     OW 7548   3.384   4.341   2.993 -0.3813  0.4563 -0.2261
 1876SOL    HW2 7549   3.452   4.296   3.043 -0.4359  1.4591  0.7508
 1876SOL    HW3 7550   3.301   4.311   3.032 -0.4598  0.2754 -0.5312
 1876SOL    MW4 7551   3.382   4.331   3.005 -0.3991  0.5651 -0.1373
 1877SOL     OW 7552   3.832   4.650   3.097 -0.3648 -0.0199  0.3695
 1877SOL    HW2 7553   3.826   4.556   3.081 -0.0903  0.0125  0.0671
 1877SOL    HW3 7554   3.748   4.685   3.068 -0.4179 -0.1538  0.3634
 1877SOL    MW4 7555   3.820   4.642   3.091 -0.3352 -0.0334  0.3288
 1878SOL     OW 7556   3.573   0.081   3.026 -0.5211 -0.2741  0.0920
 1878SOL    HW2 7557   3.571   0.173   3.051  0.2763 -0.2439  0.0654
 1878SOL    HW3 7558   3.569   0.081   2.931  0.1720 -0.2356  0.0606
 1878SOL    MW4 7559   3.573   0.093   3.017 -0.3245 -0.2650  0.0844
 1879SOL     OW 7560   3.587   0.352   3.089  0.0145  0.4674 -0.0050
 1879SOL    HW2 7561   3.599   0.355   3.184  1.3686 -0.0624 -0.1470
 1879SOL    HW3 7562   3.669   0.386   3.053 -0.0142 -0.5022 -1.0097
 1879SOL    MW4 7563   3.599   0.357   3.097  0.1893  0.2696 -0.1562
 1880SOL     OW 7564   3.810   0.483   2.985  0.1313  0.3515  0.1302
 1880SOL    HW2 7565   3.892   0.440   3.011 -0.3392  0.1556  1.3004
 1880SOL    HW3 7566   3.821   0.574   3.010 -0.6541 -0.0059  1.8156
 1880SOL    MW4 7567   3.822   0.489   2.992 -0.0346  0.2785  0.5071
 1881SOL     OW 7568   3.826   0.747   3.067  0.1091  0.3110  0.3395
 1881SOL    HW2 7569   3.834   0.750   3.163  1.3505  0.5946  0.2297
 1881SOL    HW3 7570   3.901   0.797   3.035 -0.7205  0.8584 -0.7788
 1881SOL    MW4 7571   3.837   0.754   3.076  0.1633  0.4206  0.1779
 1882SOL     OW 7572   3.613   0.871   2.923  0.6831  0.3703  0.1627
 1882SOL    HW2 7573   3.690   0.833   2.965  0.7182 -2.7010 -2.5168
 1882SOL    HW3 7574   3.539   0.824   2.960  0.3920  0.6033 -0.1172
 1882SOL    MW4 7575   3.613   0.860   2.934  0.6492 -0.0042 -0.2275
 1883SOL     OW 7576   3.596   1.144   3.092  0.0165  0.0855  0.2778
 1883SOL    HW2 7577   3.679   1.176   3.057 -0.1038  0.0731 -0.0260
 1883SOL    HW3 7578   3.588   1.055   3.057  0.2782 -0.2174  0.9961
 1883SOL    MW4 7579   3.606   1.137   3.083  0.0350  0.0439  0.3326
 1884SOL     OW 7580   3.823   1.284   3.003 -0.2541 -0.0853  0.3319
 1884SOL    HW2 7581   3.830   1.371   3.041  1.6782 -0.2891  0.5301
 1884SOL    HW3 7582   3.831   1.298   2.909  0.0334 -0.0338  0.3627
 1884SOL    MW4 7583   3.825   1.297   2.996  0.0386 -0.1054  0.3619
 1885SOL     OW 7584   3.808   1.531   3.126 -0.3242 -0.3825  0.0839
 1885SOL    HW2 7585   3.814   1.533   3.221 -2.9665  1.1276  0.2532
 1885SOL    HW3 7586   3.740   1.595   3.104 -0.1641 -1.1080 -2.7869
 1885SOL    MW4 7587   3.800   1.540   3.136 -0.6521 -0.2789 -0.2723
 1886SOL     OW 7588   3.590   1.684   3.033 -0.2101  0.1455  0.0988
 1886SOL    HW2 7589   3.590   1.778   3.051  1.8521  0.1908  0.0257
 1886SOL    HW3 7590   3.604   1.679   2.938 -0.2603 -0.2460  0.1135
 1886SOL    MW4 7591   3.592   1.696   3.023  0.0553  0.0998  0.0913
 1887SOL     OW 7592   3.594   1.960   3.129 -0.2959 -0.4786  0.4089
 1887SOL    HW2 7593   3.607   1.970   3.223 -0.0819  1.2639  0.2153
 1887SOL    HW3 7594   3.677   1.991   3.091 -0.9369  0.2522 -0.4025
 1887SOL    MW4 7595   3.607   1.966   3.136 -0.3521 -0.1523  0.2766
 1888SOL     OW 7596   3.838   2.074   3.037 -0.0846 -0.2357  0.0254
 1888SOL    HW2 7597   3.831   2.169   3.048 -1.2449 -0.4597  1.4031
 1888SOL    HW3 7598   3.837   2.061   2.942 -1.4383  1.0298 -0.1541
 1888SOL    MW4 7599   3.837   2.085   3.026 -0.4163 -0.0982  0.1838
 1889SOL     OW 7600   3.831   2.354   3.098  0.1255 -0.1649 -0.2749
 1889SOL    HW2 7601   3.818   2.337   3.191  0.4736  0.3279 -0.1356
 1889SOL    HW3 7602   3.760   2.412   3.073 -1.2128 -1.9963 -0.8093
 1889SOL    MW4 7603   3.820   2.359   3.107 -0.0048 -0.3414 -0.3271
 1890SOL     OW 7604   3.600   2.483   2.986 -0.1982 -0.0995 -0.0710
 1890SOL    HW2 7605   3.597   2.571   3.026 -1.4571  0.2956 -0.9926
 1890SOL    HW3 7606   3.514   2.445   3.006  0.1583 -0.9261 -0.1066
 1890SOL    MW4 7607   3.588   2.490   2.994 -0.3173 -0.1569 -0.1974
 1891SOL     OW 7608   3.597   2.729   3.165 -0.0796 -1.1997 -0.0890
 1891SOL    HW2 7609   3.664   2.777   3.115 -1.4943  0.7646 -0.1786
 1891SOL    HW3 7610   3.514   2.764   3.132 -1.0937 -1.9571  1.6263
 1891SOL    MW4 7611   3.595   2.740   3.154 -0.3998 -1.0402  0.1256
 1892SOL     OW 7612   3.804   2.840   2.992  0.7073 -0.7331  0.1208
 1892SOL    HW2 7613   3.779   2.926   3.028  0.2267 -0.6798 -0.3254
 1892SOL    HW3 7614   3.817   2.857   2.898 -3.5291 -1.9518 -0.8070
 1892SOL    MW4 7615   3.802   2.854   2.984  0.0851 -0.8869 -0.0606
 1893SOL     OW 7616   3.788   3.099   3.083 -0.6143 -0.2619  0.0583
 1893SOL    HW2 7617   3.868   3.143   3.054 -0.5558  0.1119  0.7678
 1893SOL    HW3 7618   3.717   3.148   3.042 -0.6085  1.3367  1.8949
 1893SOL    MW4 7619   3.789   3.111   3.074 -0.6058 -0.0017  0.3943
 1894SOL     OW 7620   3.559   3.219   2.979  0.7357 -0.1416  0.4521
 1894SOL    HW2 7621   3.485   3.169   3.013  0.2095  0.4779  0.2424
 1894SOL    HW3 7622   3.549   3.215   2.884  2.7384 -2.6632  0.3136
 1894SOL    MW4 7623   3.548   3.212   2.971  0.9305 -0.3924  0.4063
 1895SOL     OW 7624   3.548   3.452   3.119  0.0968 -0.1881 -0.0680
 1895SOL    HW2 7625   3.621   3.497   3.075 -0.1526  0.1439 -0.1455
 1895SOL    HW3 7626   3.543   3.367   3.076  0.6119 -0.3173  0.1177
 1895SOL    MW4 7627   3.557   3.447   3.107  0.1321 -0.1614 -0.0539
 1896SOL     OW 7628   3.765   3.586   2.989  0.2064  0.2527  0.2409
 1896SOL    HW2 7629   3.789   3.669   3.030  1.1767  0.2648 -0.3318
 1896SOL    HW3 7630   3.777   3.601   2.896  1.3368 -0.8282  0.2035
 1896SOL    MW4 7631   3.770   3.599   2.982  0.4838  0.1116  0.1605
 1897SOL     OW 7632   3.811   3.826   3.100 -0.3224  0.0653 -0.4651
 1897SOL    HW2 7633   3.816   3.840   3.195 -0.3967  3.0727 -0.8428
 1897SOL    HW3 7634   3.730   3.869   3.074 -0.3117 -0.7621 -1.8978
 1897SOL    MW4 7635   3.801   3.834   3.109 -0.3307  0.3529 -0.7043
 1898SOL     OW 7636   3.600   3.977   3.017  0.1844 -0.1289  0.3882
 1898SOL    HW2 7637   3.515   3.939   3.041 -1.1303  1.9456 -0.8578
 1898SOL    HW3 7638   3.606   3.966   2.922  0.7651  0.8233  0.3105
 1898SOL    MW4 7639   3.590   3.970   3.008  0.0873  0.2704  0.2136
 1899SOL     OW 7640   3.605   4.244   3.111  0.0474  0.0130 -0.5374
 1899SOL    HW2 7641   3.684   4.286   3.079 -0.2293  0.7371 -0.2765
 1899SOL    HW3 7642   3.614   4.152   3.085  0.0263  0.4927 -2.2825
 1899SOL    MW4 7643   3.617   4.237   3.104  0.0083  0.1721 -0.7331
 1900SOL     OW 7644   3.873   4.369   3.043  0.2931  0.0084  0.2537
 1900SOL    HW2 7645   3.958   4.327   3.053 -1.5013 -3.3639  2.0853
 1900SOL    HW3 7646   3.857   4.368   2.948  1.1959 -1.6273  0.1037
 1900SOL    MW4 7647   3.882   4.363   3.032  0.1752 -0.6518  0.4756
 1901SOL     OW 7648   4.251   4.644   3.132 -0.0994  0.3089 -0.6257
 1901SOL    HW2 7649   4.260   4.656   3.227  0.5052  2.2957 -0.8988
 1901SOL    HW3 7650   4.270   4.552   3.117 -0.0859  0.0000  1.1790
 1901SOL    MW4 7651   4.255   4.633   3.143 -0.0181  0.5302 -0.4234
 1902SOL     OW 7652   4.056   0.108   2.983  0.5080 -0.5887 -0.7664
 1902SOL    HW2 7653   4.116   0.050   3.028  2.0333 -0.4053 -2.4782
 1902SOL    HW3 7654   3.970   0.090   3.022  1.8187 -0.0122  2.5333
 1902SOL    MW4 7655   4.053   0.098   2.994  0.8826 -0.4884 -0.5569
 1903SOL     OW 7656   4.049   0.358   3.088 -0.4052  0.1424  0.2626
 1903SOL    HW2 7657   4.119   0.413   3.053 -0.1813  0.6986  1.5502
 1903SOL    HW3 7658   4.053   0.278   3.036 -0.8668  1.4059 -1.7942
 1903SOL    MW4 7659   4.059   0.355   3.076 -0.4358  0.3825  0.1612
 1904SOL     OW 7660   4.274   0.513   2.990 -0.4621  0.2027 -0.4479
 1904SOL    HW2 7661   4.283   0.601   3.028 -0.5380  0.3507 -0.7749
 1904SOL    HW3 7662   4.277   0.527   2.896  2.1371 -0.4131 -0.4986
 1904SOL    MW4 7663   4.276   0.526   2.983 -0.1292  0.1410 -0.4978
 1905SOL     OW 7664   4.291   0.783   3.060 -0.3137  0.0222 -0.3583
 1905SOL    HW2 7665   4.207   0.815   3.029 -0.4041  0.2779  0.1404
 1905SOL    HW3 7666   4.355   0.844   3.022 -0.4725  0.7120  0.4557
 1905SOL    MW4 7667   4.289   0.796   3.051 -0.3467  0.1470 -0.1853
 1906SOL     OW 7668   4.035   0.910   2.972 -0.8769 -0.1115 -0.0276
 1906SOL    HW2 7669   4.020   0.999   3.005 -1.0033 -0.1195 -0.0658
 1906SOL    HW3 7670   4.041   0.920   2.878 -1.8194 -0.2761 -0.1112
 1906SOL    MW4 7671   4.034   0.923   2.964 -1.0176 -0.1342 -0.0436
 1907SOL     OW 7672   4.056   1.170   3.074  0.2407  0.1717  0.8985
 1907SOL    HW2 7673   4.032   1.151   3.165  0.1746 -0.1728  0.8084
 1907SOL    HW3 7674   3.992   1.234   3.045 -0.4712 -0.6294  0.7044
 1907SOL    MW4 7675   4.045   1.176   3.082  0.1378  0.0206  0.8612
 1908SOL     OW 7676   4.288   1.297   3.041 -0.1546  0.0023 -0.3386
 1908SOL    HW2 7677   4.207   1.250   3.059 -0.5574  0.9359  0.2896
 1908SOL    HW3 7678   4.284   1.315   2.947 -0.2791 -0.6911 -0.4681
 1908SOL    MW4 7679   4.277   1.293   3.031 -0.2236  0.0340 -0.2728
 1909SOL     OW 7680   4.256   1.543   3.145 -0.1926 -0.3013  0.1806
 1909SOL    HW2 7681   4.185   1.576   3.090  0.7438  0.0683 -0.8441
 1909SOL    HW3 7682   4.260   1.449   3.126 -0.9379 -0.4710  0.8606
 1909SOL    MW4 7683   4.247   1.535   3.135 -0.1669 -0.2749  0.1352
 1910SOL     OW 7684   4.024   1.669   2.981 -0.1741  0.2802  0.1512
 1910SOL    HW2 7685   4.025   1.758   3.017  0.5798  0.1104  0.5728
 1910SOL    HW3 7686   3.950   1.627   3.023 -1.1585  1.0118 -0.8143
 1910SOL    MW4 7687   4.015   1.675   2.991 -0.2046  0.3544  0.0794
 1911SOL     OW 7688   4.052   1.921   3.116 -0.1996  0.0305  0.2522
 1911SOL    HW2 7689   4.126   1.979   3.097 -0.2283 -0.0996 -0.2615
 1911SOL    HW3 7690   3.975   1.971   3.086 -0.2203 -0.2932 -0.2301
 1911SOL    MW4 7691   4.052   1.936   3.110 -0.2060 -0.0294  0.1206
 1912SOL     OW 7692   4.261   2.079   3.018 -0.0487  0.1767  0.4243
 1912SOL    HW2 7693   4.279   2.169   3.044 -1.4838  0.6666 -0.2387
 1912SOL    HW3 7694   4.250   2.082   2.923  3.2318 -1.2775 -0.0765
 1912SOL    MW4 7695   4.262   2.091   3.009  0.1950  0.0496  0.2706
 1913SOL     OW 7696   4.264   2.321   3.116  0.1259  0.4545  0.2221
 1913SOL    HW2 7697   4.182   2.341   3.071  0.6322 -0.4883 -1.1554
 1913SOL    HW3 7698   4.327   2.383   3.078  0.3722  0.2089  0.2297
 1913SOL    MW4 7699   4.262   2.332   3.105  0.2255  0.2978  0.0412
 1914SOL     OW 7700   4.052   2.450   2.981 -0.2503  0.3653 -0.1135
 1914SOL    HW2 7701   4.060   2.533   3.028  0.3701 -0.0419  0.5238
 1914SOL    HW3 7702   3.969   2.413   3.011 -0.7550  0.9684 -0.7517
 1914SOL    MW4 7703   4.042   2.456   2.991 -0.2356  0.3912 -0.1140
 1915SOL     OW 7704   4.023   2.698   3.112 -0.5600  0.1224  0.0470
 1915SOL    HW2 7705   4.011   2.685   3.206 -1.1213  1.0030  0.1045
 1915SOL    HW3 7706   3.948   2.751   3.085  0.3543  1.0978 -0.6352
 1915SOL    MW4 7707   4.011   2.703   3.121 -0.5131  0.3672 -0.0355
 1916SOL     OW 7708   4.236   2.829   3.048 -0.0007 -0.0901 -0.1036
 1916SOL    HW2 7709   4.168   2.786   3.099  0.7262 -1.4092 -0.2433
 1916SOL    HW3 7710   4.318   2.790   3.077  0.6792  1.1815 -0.2395
 1916SOL    MW4 7711   4.238   2.818   3.058  0.1845 -0.0966 -0.1400
 1917SOL     OW 7712   4.247   3.090   3.093  0.1856  0.0891 -0.1593
 1917SOL    HW2 7713   4.172   3.125   3.046  2.0555  2.0806 -1.7880
 1917SOL    HW3 7714   4.245   2.996   3.075 -1.1079  0.3271 -1.3362
 1917SOL    MW4 7715   4.237   3.083   3.084  0.2618  0.3834 -0.5293
 1918SOL     OW 7716   4.016   3.218   2.998  0.2197 -0.2480 -0.0547
 1918SOL    HW2 7717   4.006   3.310   3.024 -2.8634 -0.4422 -0.3963
 1918SOL    HW3 7718   4.041   3.221   2.905 -0.3787  0.2304 -0.1985
 1918SOL    MW4 7719   4.018   3.230   2.989 -0.2666 -0.2105 -0.1187
 1919SOL     OW 7720   4.066   3.541   3.068 -0.4591  0.4156  0.3135
 1919SOL    HW2 7721   4.032   3.552   3.157 -0.9961  1.3789 -0.0027
 1919SOL    HW3 7722   3.997   3.575   3.012  0.1726  0.4689 -0.4421
 1919SOL    MW4 7723   4.052   3.547   3.073 -0.4468  0.5498  0.1721
 1920SOL     OW 7724   4.316   3.629   3.010 -0.6057  0.1855  0.2700
 1920SOL    HW2 7725   4.230   3.594   3.031 -0.7508 -0.2682 -1.0499
 1920SOL    HW3 7726   4.314   3.720   3.039 -1.2923 -0.0282  0.8734
 1920SOL    MW4 7727   4.305   3.636   3.016 -0.7157  0.0973  0.1755
 1921SOL     OW 7728   4.256   3.884   3.084  0.5756 -0.0295 -0.3556
 1921SOL    HW2 7729   4.186   3.911   3.026  0.1529  1.0647  0.6524
 1921SOL    HW3 7730   4.330   3.940   3.061  0.7781 -0.4062 -0.6382
 1921SOL    MW4 7731   4.257   3.895   3.073  0.5465  0.0656 -0.2599
 1922SOL     OW 7732   4.027   3.952   2.954 -0.3821 -0.5025  0.0883
 1922SOL    HW2 7733   4.046   4.039   2.988 -0.1791 -0.1764 -0.8282
 1922SOL    HW3 7734   3.965   3.914   3.016 -2.3406  1.2127 -0.7511
 1922SOL    MW4 7735   4.021   3.958   2.967 -0.6137 -0.2332 -0.1433
 1923SOL     OW 7736   4.091   4.201   3.062  0.1908  0.5036 -0.4869
 1923SOL    HW2 7737   4.102   4.194   3.157 -0.0754 -0.0287 -0.4970
 1923SOL    HW3 7738   4.158   4.264   3.035  0.9829 -0.1501 -0.0882
 1923SOL    MW4 7739   4.101   4.208   3.071  0.2599  0.3467 -0.4358
 1924SOL     OW 7740   4.281   4.391   2.993 -0.0509  0.3061 -0.1044
 1924SOL    HW2 7741   4.363   4.349   3.017  0.1880  0.6637 -0.2881
 1924SOL    HW3 7742   4.280   4.391   2.897 -0.8565 -0.8395 -0.1074
 1924SOL    MW4 7743   4.291   4.386   2.983 -0.1254  0.2022 -0.1290
 1925SOL     OW 7744   0.228   4.632   3.368  0.1731 -0.2947 -0.6407
 1925SOL    HW2 7745   0.223   4.545   3.407  1.9945 -0.4823 -0.7879
 1925SOL    HW3 7746   0.307   4.671   3.404 -0.4224  1.1810 -0.8553
 1925SOL    MW4 7747   0.237   4.626   3.378  0.3348 -0.1245 -0.6883
 1926SOL     OW 7748   4.105   1.632   4.242 -0.6135  0.4485  0.1598
 1926SOL    HW2 7749   4.058   1.572   4.300 -0.0628  0.3702  0.5289
 1926SOL    HW3 7750   4.036   1.674   4.190 -1.0076 -0.3944 -0.0014
 1926SOL    MW4 7751   4.090   1.629   4.243 -0.5927  0.3270  0.1874
 1927SOL     OW 7752   4.485   0.099   3.461 -0.2825  0.0110 -0.6919
 1927SOL    HW2 7753   4.483   0.186   3.422 -0.0856  0.4538  0.2762
 1927SOL    HW3 7754   4.571   0.064   3.439 -0.2731  0.1594 -0.8839
 1927SOL    MW4 7755   4.496   0.106   3.453 -0.2551  0.0890 -0.5896
 1928SOL     OW 7756   0.008   0.351   3.396  0.2606  0.0115  0.1661
 1928SOL    HW2 7757  -0.061   0.416   3.410 -1.2112 -1.8313  1.6651
 1928SOL    HW3 7758   0.087   0.394   3.430 -0.9188  0.5703  2.3243
 1928SOL    MW4 7759   0.009   0.365   3.403 -0.0892 -0.1579  0.6485
 1929SOL     OW 7760   0.220   0.511   3.481 -0.0799  0.1829  0.0221
 1929SOL    HW2 7761   0.223   0.598   3.442  0.9331  0.7885  1.4436
 1929SOL    HW3 7762   0.287   0.461   3.433 -0.2932  0.3380 -0.4339
 1929SOL    MW4 7763   0.230   0.516   3.469  0.0256  0.2832  0.1495
 1930SOL     OW 7764   0.020   0.938   3.452  0.3150 -0.5629 -0.3120
 1930SOL    HW2 7765   0.015   1.028   3.419  0.0375 -0.4735 -0.0265
 1930SOL    HW3 7766   0.016   0.947   3.547 -0.4167 -0.9191 -0.3039
 1930SOL    MW4 7767   0.019   0.951   3.460  0.1817 -0.5980 -0.2732
 1931SOL     OW 7768   0.006   1.208   3.345 -0.1369 -0.3988  1.0056
 1931SOL    HW2 7769   0.047   1.198   3.259 -1.2183  0.3301  0.3917
 1931SOL    HW3 7770   0.078   1.227   3.404  0.3213  1.9396 -0.2347
 1931SOL    MW4 7771   0.021   1.209   3.341 -0.2191  0.0057  0.7610
 1932SOL     OW 7772   0.265   1.249   3.462  0.0366  0.1488  0.4428
 1932SOL    HW2 7773   0.330   1.195   3.416 -1.6412 -1.6746  0.1537
 1932SOL    HW3 7774   0.265   1.332   3.416  3.0132  0.6117  1.1768
 1932SOL    MW4 7775   0.274   1.253   3.450  0.2079 -0.0308  0.5016
 1933SOL     OW 7776   0.279   1.516   3.376 -0.5161  0.2822  0.0054
 1933SOL    HW2 7777   0.361   1.558   3.401 -1.0147  1.2571  0.0385
 1933SOL    HW3 7778   0.280   1.518   3.280  0.3076 -1.3100 -0.0243
 1933SOL    MW4 7779   0.290   1.522   3.367 -0.4733  0.2006  0.0057
 1934SOL     OW 7780   0.057   1.664   3.501 -0.1517 -0.3024  0.0969
 1934SOL    HW2 7781  -0.013   1.627   3.448  0.8439 -0.3986 -1.1720
 1934SOL    HW3 7782   0.131   1.605   3.490  0.7122  0.7795 -0.0509
 1934SOL    MW4 7783   0.058   1.651   3.493  0.0935 -0.1724 -0.0896
 1935SOL     OW 7784   0.028   1.917   3.376 -0.0938  0.0326 -0.3153
 1935SOL    HW2 7785   0.051   1.834   3.419  0.9126  0.5280  0.1160
 1935SOL    HW3 7786   0.011   1.892   3.285  0.2170 -0.6515 -0.1950
 1935SOL    MW4 7787   0.029   1.902   3.369  0.0800  0.0076 -0.2425
 1936SOL     OW 7788   0.262   2.058   3.456 -0.2134 -0.0109 -0.2498
 1936SOL    HW2 7789   0.262   2.038   3.550  0.2354  0.4825 -0.1463
 1936SOL    HW3 7790   0.178   2.023   3.425 -0.5364  0.1646  0.4041
 1936SOL    MW4 7791   0.251   2.051   3.464 -0.1968  0.0772 -0.1502
 1937SOL     OW 7792   0.246   2.328   3.374  0.4907  0.1200 -0.2437
 1937SOL    HW2 7793   0.165   2.364   3.410  0.5435 -0.2355  0.2403
 1937SOL    HW3 7794   0.247   2.237   3.403  1.4342  0.3205  0.3944
 1937SOL    MW4 7795   0.236   2.321   3.383  0.6221  0.0994 -0.0956
 1938SOL     OW 7796   4.488   2.458   3.477  0.0217  0.2069  0.3350
 1938SOL    HW2 7797   4.489   2.438   3.571  0.3304 -2.0594 -0.1414
 1938SOL    HW3 7798   4.421   2.400   3.441  1.8504 -0.9469 -1.2644
 1938SOL    MW4 7799   4.480   2.448   3.485  0.3037 -0.2444  0.0613
 1939SOL     OW 7800   0.002   2.734   3.392 -0.2046 -0.1161  0.0030
 1939SOL    HW2 7801   0.086   2.766   3.426 -0.8019  2.5850 -0.9105
 1939SOL    HW3 7802  -0.006   2.645   3.426  3.4022 -0.7301 -0.5831
 1939SOL    MW4 7803   0.012   2.727   3.401  0.1925  0.1593 -0.1948
 1940SOL     OW 7804   0.247   2.834   3.531  0.1450  0.7877 -0.1654
 1940SOL    HW2 7805   0.321   2.789   3.489  0.2966  0.8435  0.0416
 1940SOL    HW3 7806   0.234   2.912   3.478 -0.7622 -0.0023 -1.1202
 1940SOL    MW4 7807   0.255   2.838   3.518  0.0453  0.6909 -0.2639
 1941SOL     OW 7808   0.206   3.056   3.378  0.0346 -0.4117 -0.0382
 1941SOL    HW2 7809   0.129   3.103   3.407  0.6756  0.6424 -0.0128
 1941SOL    HW3 7810   0.209   3.071   3.283  1.3433  1.2866  0.2511
 1941SOL    MW4 7811   0.197   3.064   3.369  0.2919 -0.0486  0.0031
 1942SOL     OW 7812   4.461   3.179   3.452 -0.5530  0.1339 -0.2748
 1942SOL    HW2 7813   4.368   3.166   3.431 -0.3241  0.6650 -1.6314
 1942SOL    HW3 7814   4.476   3.272   3.438  0.3517 -0.0733 -0.7067
 1942SOL    MW4 7815   4.450   3.189   3.448 -0.4034  0.1767 -0.5105
 1943SOL     OW 7816   4.015   0.642   4.180  0.2682 -0.1902  0.1038
 1943SOL    HW2 7817   4.094   0.697   4.177  0.0877  0.0275 -0.9054
 1943SOL    HW3 7818   4.049   0.554   4.196  0.7683 -0.1737 -0.8071
 1943SOL    MW4 7819   4.030   0.638   4.181  0.3109 -0.1593 -0.1497
 1944SOL     OW 7820   4.385   3.778   4.472 -1.1902 -0.2899  0.0069
 1944SOL    HW2 7821   4.312   3.722   4.499 -1.9349  0.6388 -0.0624
 1944SOL    HW3 7822   4.351   3.867   4.478  0.8848  0.3730  2.9639
 1944SOL    MW4 7823   4.371   3.783   4.476 -1.0147 -0.0796  0.3877
 1945SOL     OW 7824   0.211   3.884   3.391  0.0049 -0.0663 -0.2165
 1945SOL    HW2 7825   0.285   3.931   3.429  0.8797 -0.3296 -1.5594
 1945SOL    HW3 7826   0.230   3.792   3.407  0.9928 -0.2552 -2.3188
 1945SOL    MW4 7827   0.223   3.878   3.398  0.2507 -0.1259 -0.6707
 1946SOL     OW 7828   4.464   3.960   3.473 -0.2479  0.6234  0.0315
 1946SOL    HW2 7829   4.547   3.922   3.446 -0.5342 -0.5264  0.7479
 1946SOL    HW3 7830   4.465   4.048   3.436  0.0948 -0.3218 -2.3153
 1946SOL    MW4 7831   4.475   3.967   3.465 -0.2403  0.3467 -0.1836
 1947SOL     OW 7832   4.461   4.230   3.388 -0.0127 -0.4077  0.1688
 1947SOL    HW2 7833   4.388   4.282   3.421 -1.3119 -1.1674 -1.4026
 1947SOL    HW3 7834   4.537   4.259   3.439 -1.4410  0.2450  1.9818
 1947SOL    MW4 7835   4.461   4.240   3.399 -0.3719 -0.4215  0.2007
 1948SOL     OW 7836   2.373   3.965   4.053  0.2326 -0.2120  0.2003
 1948SOL    HW2 7837   2.411   3.921   4.129 -2.0168 -1.1897  0.8241
 1948SOL    HW3 7838   2.403   3.914   3.978 -0.2944 -1.3171  0.7267
 1948SOL    MW4 7839   2.382   3.952   4.053 -0.1340 -0.4866  0.3519
 1949SOL     OW 7840   0.679   4.624   3.380 -0.0260  0.1871 -0.1615
 1949SOL    HW2 7841   0.758   4.672   3.401 -1.0532  1.7206  0.3111
 1949SOL    HW3 7842   0.677   4.621   3.284 -0.1027  1.3800 -0.2031
 1949SOL    MW4 7843   0.689   4.630   3.370 -0.1716  0.5465 -0.1044
 1950SOL     OW 7844   0.457   0.103   3.436 -0.1299  0.2065 -0.0504
 1950SOL    HW2 7845   0.459   0.093   3.531 -0.5503 -1.1153 -0.1718
 1950SOL    HW3 7846   0.540   0.066   3.407 -0.3187 -0.0546 -0.2571
 1950SOL    MW4 7847   0.468   0.097   3.445 -0.2103 -0.0023 -0.0937
 1951SOL     OW 7848   0.440   0.375   3.337 -0.6605 -0.0613 -0.4294
 1951SOL    HW2 7849   0.523   0.421   3.348 -0.6900 -0.0130 -0.4050
 1951SOL    HW3 7850   0.453   0.290   3.377 -1.3293  0.7506  1.5809
 1951SOL    MW4 7851   0.453   0.370   3.344 -0.7526  0.0522 -0.1612
 1952SOL     OW 7852   0.702   0.462   3.416 -0.0235 -0.2360  0.4467
 1952SOL    HW2 7853   0.692   0.472   3.510 -0.1290 -0.7376  0.4913
 1952SOL    HW3 7854   0.788   0.420   3.406 -0.3764 -0.9467  0.3680
 1952SOL    MW4 7855   0.712   0.458   3.427 -0.0839 -0.3960  0.4425
 1953SOL     OW 7856   0.730   0.738   3.315  0.4470 -0.0447  0.2099
 1953SOL    HW2 7857   0.643   0.772   3.334  1.1826  1.0997  1.6279
 1953SOL    HW3 7858   0.731   0.652   3.357  0.3807  0.4052  1.1347
 1953SOL    MW4 7859   0.719   0.731   3.323  0.5352  0.1657  0.5188
 1954SOL     OW 7860   0.223   0.769   3.370  0.3398  0.7058 -0.2633
 1954SOL    HW2 7861   0.167   0.843   3.396  1.0014  0.6370  1.4332
 1954SOL    HW3 7862   0.312   0.803   3.376  0.5653  0.2748 -1.1691
 1954SOL    MW4 7863   0.227   0.784   3.374  0.4568  0.6398 -0.1590
 1955SOL     OW 7864   0.456   1.107   3.311 -0.1798  0.2833 -0.1516
 1955SOL    HW2 7865   0.537   1.143   3.347  0.4242 -1.0304 -0.1749
 1955SOL    HW3 7866   0.463   1.122   3.217  0.9181 -1.5134 -0.3813
 1955SOL    MW4 7867   0.468   1.114   3.304  0.0448 -0.1270 -0.1850
 1956SOL     OW 7868   0.672   1.222   3.419  0.0475 -0.0749  0.3171
 1956SOL    HW2 7869   0.762   1.194   3.398  0.0865  0.4145 -0.1895
 1956SOL    HW3 7870   0.677   1.318   3.423 -0.2731 -0.0930  1.1540
 1956SOL    MW4 7871   0.685   1.231   3.417  0.0103 -0.0128  0.3607
 1957SOL     OW 7872   0.714   1.501   3.402 -0.0319  0.4319 -0.2435
 1957SOL    HW2 7873   0.799   1.528   3.436 -0.4952  2.2911 -0.5120
 1957SOL    HW3 7874   0.651   1.556   3.449 -0.9345  0.4467 -1.4405
 1957SOL    MW4 7875   0.717   1.512   3.413 -0.2120  0.6790 -0.4368
 1958SOL     OW 7876   0.505   1.654   3.483 -0.0490 -0.0073 -0.1693
 1958SOL    HW2 7877   0.490   1.742   3.450  0.7732 -0.2917 -1.3384
 1958SOL    HW3 7878   0.480   1.658   3.576 -1.0353  1.1629 -0.4744
 1958SOL    MW4 7879   0.500   1.666   3.491 -0.0707  0.1097 -0.3638
 1959SOL     OW 7880   0.482   1.917   3.401  0.3918 -0.6227  0.3724
 1959SOL    HW2 7881   0.398   1.950   3.431 -0.3012 -2.9067  1.0517
 1959SOL    HW3 7882   0.479   1.926   3.306  0.2464  1.2758  0.5529
 1959SOL    MW4 7883   0.471   1.922   3.392  0.2812 -0.6737  0.4859
 1960SOL     OW 7884   0.713   2.063   3.421  0.1836 -0.1265  0.0187
 1960SOL    HW2 7885   0.714   2.099   3.510  1.1222 -1.1057  0.4167
 1960SOL    HW3 7886   0.630   2.015   3.416 -1.0810  2.0975 -0.5285
 1960SOL    MW4 7887   0.702   2.061   3.432  0.1406  0.0377 -0.0010
 1961SOL     OW 7888   0.728   2.324   3.315  0.0818 -0.4304  0.0655
 1961SOL    HW2 7889   0.808   2.362   3.353  1.5430 -1.2006 -2.1361
 1961SOL    HW3 7890   0.716   2.242   3.363 -0.8379  0.8626  2.1157
 1961SOL    MW4 7891   0.737   2.318   3.326  0.1532 -0.3614  0.0455
 1962SOL     OW 7892   0.480   2.460   3.418  0.0940  0.6831  0.3120
 1962SOL    HW2 7893   0.556   2.423   3.373 -0.8298  1.3273 -1.8131
 1962SOL    HW3 7894   0.407   2.403   3.395 -0.1584  0.2383  2.1058
 1962SOL    MW4 7895   0.480   2.448   3.409 -0.0612  0.7095  0.2682
 1963SOL     OW 7896   0.485   2.730   3.386  0.5254  0.8666 -0.1431
 1963SOL    HW2 7897   0.495   2.639   3.414 -1.8137  0.2390 -1.1973
 1963SOL    HW3 7898   0.462   2.724   3.294  0.2766  2.5230 -0.1922
 1963SOL    MW4 7899   0.483   2.717   3.378  0.1839  1.0021 -0.2890
 1964SOL     OW 7900   0.702   2.839   3.483  0.0624 -0.2617  0.6144
 1964SOL    HW2 7901   0.780   2.794   3.452 -0.3552 -2.0179  2.0098
 1964SOL    HW3 7902   0.631   2.800   3.432  0.1388  1.8093 -1.1365
 1964SOL    MW4 7903   0.703   2.828   3.472  0.0175 -0.2203  0.5677
 1965SOL     OW 7904   0.653   3.093   3.376 -0.5909  0.2897 -0.4191
 1965SOL    HW2 7905   0.577   3.127   3.424 -0.4454 -0.2834  0.2324
 1965SOL    HW3 7906   0.669   3.007   3.415 -0.9084 -0.4926 -1.9901
 1965SOL    MW4 7907   0.645   3.086   3.388 -0.6136  0.1109 -0.5403
 1966SOL     OW 7908   0.421   3.186   3.506 -0.4706 -0.3868  0.1449
 1966SOL    HW2 7909   0.392   3.175   3.596  1.1493  1.6238  0.9633
 1966SOL    HW3 7910   0.363   3.130   3.454 -0.7320 -2.4079  2.5317
 1966SOL    MW4 7911   0.410   3.177   3.511 -0.2914 -0.3884  0.5677
 1967SOL     OW 7912   0.222   3.612   3.457 -0.0928  0.1362  0.0351
 1967SOL    HW2 7913   0.144   3.583   3.411 -0.8795  2.5840 -0.2285
 1967SOL    HW3 7914   0.204   3.594   3.549 -1.0131  0.7555 -0.0175
 1967SOL    MW4 7915   0.209   3.606   3.463 -0.3180  0.5407 -0.0067
 1968SOL     OW 7916   0.440   3.461   3.416  0.3922  0.3690  0.2425
 1968SOL    HW2 7917   0.354   3.499   3.435 -1.0956 -2.0543 -1.3948
 1968SOL    HW3 7918   0.456   3.400   3.488  0.5390  0.4785  0.3037
 1968SOL    MW4 7919   0.431   3.458   3.428  0.2153  0.0637  0.0348
 1969SOL     OW 7920   0.621   3.908   3.365 -0.3139 -0.0336 -0.0615
 1969SOL    HW2 7921   0.698   3.950   3.403 -0.5932 -1.0624  1.7147
 1969SOL    HW3 7922   0.628   3.816   3.393 -1.5249 -0.4008 -0.9293
 1969SOL    MW4 7923   0.632   3.901   3.374 -0.5106 -0.2177  0.0582
 1970SOL     OW 7924   0.410   4.022   3.512  0.0975 -0.1725 -0.1413
 1970SOL    HW2 7925   0.483   3.980   3.465 -0.5001  0.4045 -1.6379
 1970SOL    HW3 7926   0.405   4.110   3.474 -0.5901  0.2197  0.8358
 1970SOL    MW4 7927   0.419   4.028   3.500 -0.0721 -0.0443 -0.2098
 1971SOL     OW 7928   0.455   4.276   3.402 -0.0885  0.1403 -0.1430
 1971SOL    HW2 7929   0.531   4.332   3.421  0.6709 -0.3874 -1.5582
 1971SOL    HW3 7930   0.441   4.284   3.308 -1.1261 -0.6092 -0.0655
 1971SOL    MW4 7931   0.463   4.284   3.392 -0.1252 -0.0281 -0.3197
 1972SOL     OW 7932   0.694   4.404   3.525  0.4889  0.0005  0.2220
 1972SOL    HW2 7933   0.785   4.383   3.502  0.3606 -0.6008  0.2457
 1972SOL    HW3 7934   0.678   4.489   3.485  1.3567  0.5319  0.9843
 1972SOL    MW4 7935   0.704   4.412   3.517  0.5865 -0.0086  0.3257
 1973SOL     OW 7936   1.168   4.646   3.333 -0.0714  0.1803 -0.0754
 1973SOL    HW2 7937   1.255   4.685   3.336  0.4394 -0.8596 -0.8816
 1973SOL    HW3 7938   1.142   4.653   3.241 -0.0649 -1.1805 -0.1836
 1973SOL    MW4 7939   1.176   4.652   3.321 -0.0032 -0.1364 -0.1960
 1974SOL     OW 7940   2.096   3.584   4.394 -0.3466 -0.5868  0.1933
 1974SOL    HW2 7941   2.165   3.622   4.448 -1.4390  0.3437  0.9744
 1974SOL    HW3 7942   2.017   3.632   4.420 -1.3305 -1.8295 -0.4706
 1974SOL    MW4 7943   2.095   3.596   4.405 -0.6201 -0.6280  0.2093
 1975SOL     OW 7944   0.953   0.324   3.316  0.0316  0.2665 -0.2085
 1975SOL    HW2 7945   1.008   0.373   3.378  1.1492 -0.0019 -0.9784
 1975SOL    HW3 7946   0.949   0.236   3.353 -1.4305  0.7446  0.8252
 1975SOL    MW4 7947   0.960   0.319   3.329 -0.0139  0.2941 -0.1738
 1976SOL     OW 7948   1.165   0.517   3.406 -0.2981 -0.1034  0.2195
 1976SOL    HW2 7949   1.159   0.528   3.501 -2.2077  1.0606  0.0083
 1976SOL    HW3 7950   1.173   0.606   3.372  0.1800 -0.4972 -0.7302
 1976SOL    MW4 7951   1.165   0.530   3.414 -0.4869 -0.0017  0.0663
 1977SOL     OW 7952   1.150   0.789   3.337 -0.0212  0.0751 -0.2813
 1977SOL    HW2 7953   1.213   0.845   3.381  0.2894  0.0803 -0.7366
 1977SOL    HW3 7954   1.066   0.810   3.378  0.0028  1.2631 -0.8325
 1977SOL    MW4 7955   1.147   0.799   3.348  0.0230  0.2325 -0.4141
 1978SOL     OW 7956   0.917   0.868   3.461 -0.2889 -0.6412  0.2942
 1978SOL    HW2 7957   0.931   0.961   3.440 -1.2885 -0.5374  0.0702
 1978SOL    HW3 7958   0.857   0.837   3.393 -0.0008 -1.4430  0.4043
 1978SOL    MW4 7959   0.911   0.876   3.449 -0.3827 -0.7333  0.2792
 1979SOL     OW 7960   0.938   1.123   3.382  0.3284  0.0895 -0.0752
 1979SOL    HW2 7961   0.948   1.125   3.287  0.3575  0.3151 -0.0698
 1979SOL    HW3 7962   1.006   1.183   3.414  0.1821  0.1749  0.0746
 1979SOL    MW4 7963   0.948   1.131   3.374  0.3129  0.1305 -0.0546
 1980SOL     OW 7964   1.130   1.286   3.476 -0.5624 -0.2548 -0.3264
 1980SOL    HW2 7965   1.132   1.298   3.571 -0.9006 -2.2398 -0.0386
 1980SOL    HW3 7966   1.153   1.372   3.440  0.6866  0.2372  1.5592
 1980SOL    MW4 7967   1.134   1.299   3.484 -0.4421 -0.4518 -0.0398
 1981SOL     OW 7968   1.207   1.529   3.399 -0.3334 -0.2832  0.0328
 1981SOL    HW2 7969   1.288   1.576   3.418 -0.0257 -1.2007  1.0391
 1981SOL    HW3 7970   1.188   1.549   3.307  1.0146 -0.0459 -0.1965
 1981SOL    MW4 7971   1.215   1.538   3.389 -0.1149 -0.3729  0.1354
 1982SOL     OW 7972   0.953   1.668   3.510  0.0298  0.2412  0.1064
 1982SOL    HW2 7973   1.034   1.621   3.490  0.4929  0.3106  1.7518
 1982SOL    HW3 7974   0.962   1.752   3.464  0.7873  0.1465  0.0715
 1982SOL    MW4 7975   0.965   1.673   3.501  0.1909  0.2379  0.3185
 1983SOL     OW 7976   0.950   1.916   3.339  0.2390  0.1374  0.1637
 1983SOL    HW2 7977   1.031   1.959   3.367  0.1941 -0.1299  0.7314
 1983SOL    HW3 7978   0.880   1.973   3.372  0.1805 -0.3350  0.8753
 1983SOL    MW4 7979   0.952   1.929   3.347  0.2253  0.0398  0.3326
 1984SOL     OW 7980   1.171   2.066   3.428 -0.0886  0.1160 -0.1667
 1984SOL    HW2 7981   1.177   2.161   3.417 -0.3564  0.0581 -0.8778
 1984SOL    HW3 7982   1.201   2.050   3.517 -1.3643  1.0086  0.4448
 1984SOL    MW4 7983   1.175   2.076   3.438 -0.2923  0.2263 -0.1800
 1985SOL     OW 7984   1.169   2.322   3.338  0.2754  0.0950 -0.7926
 1985SOL    HW2 7985   1.260   2.349   3.353 -0.1800 -0.0281  2.4197
 1985SOL    HW3 7986   1.162   2.315   3.242  3.5682  0.3480 -1.1165
 1985SOL    MW4 7987   1.180   2.324   3.327  0.6497  0.1123 -0.4115
 1986SOL     OW 7988   0.944   2.444   3.449 -0.5314 -0.0539  0.5367
 1986SOL    HW2 7989   0.944   2.435   3.545 -0.4993  0.3351  0.5748
 1986SOL    HW3 7990   1.014   2.386   3.419 -1.1890 -0.9250  0.6772
 1986SOL    MW4 7991   0.953   2.435   3.458 -0.6139 -0.1175  0.5603
 1987SOL     OW 7992   0.929   2.713   3.354 -0.0285  0.6515  0.4463
 1987SOL    HW2 7993   1.000   2.756   3.401 -0.6490 -0.8656  2.8769
 1987SOL    HW3 7994   0.945   2.620   3.366 -1.5875  0.2704 -0.2549
 1987SOL    MW4 7995   0.940   2.707   3.362 -0.3160  0.4008  0.6742
 1988SOL     OW 7996   1.165   2.827   3.462  0.2809  0.1289 -0.2403
 1988SOL    HW2 7997   1.247   2.788   3.431  0.2160 -0.9318  0.8495
 1988SOL    HW3 7998   1.158   2.797   3.553 -1.7591 -0.5288 -0.5928
 1988SOL    MW4 7999   1.175   2.818   3.470  0.0031 -0.0978 -0.1431
 1989SOL     OW 8000   1.104   3.084   3.368 -0.2421 -0.1350 -0.1546
 1989SOL    HW2 8001   1.092   3.076   3.273 -0.0686  0.1359 -0.1996
 1989SOL    HW3 8002   1.121   2.994   3.397 -1.4278 -0.3939 -0.2173
 1989SOL    MW4 8003   1.104   3.071   3.359 -0.3757 -0.1333 -0.1688
 1990SOL     OW 8004   0.867   3.228   3.474 -0.2115  0.6555  0.0203
 1990SOL    HW2 8005   0.948   3.184   3.450  0.1393  0.6896  1.1456
 1990SOL    HW3 8006   0.800   3.185   3.421  0.5094  0.5216 -0.7893
 1990SOL    MW4 8007   0.869   3.217   3.464 -0.0701  0.6425  0.0620
 1991SOL     OW 8008   0.916   3.493   3.376 -0.2714  0.5417  0.2353
 1991SOL    HW2 8009   0.891   3.406   3.407 -1.7697  0.9321  0.1569
 1991SOL    HW3 8010   0.899   3.490   3.282 -0.0141  0.8168  0.1815
 1991SOL    MW4 8011   0.910   3.481   3.368 -0.4352  0.6297  0.2179
 1992SOL     OW 8012   1.123   3.684   3.461 -0.0523 -0.6548  0.2503
 1992SOL    HW2 8013   1.125   3.688   3.557 -1.4221  2.4725  0.2127
 1992SOL    HW3 8014   1.054   3.620   3.442 -0.9256 -0.0897  1.3926
 1992SOL    MW4 8015   1.114   3.676   3.471 -0.3482 -0.1676  0.3960
 1993SOL     OW 8016   1.099   3.933   3.338  0.2139  0.1634 -0.5873
 1993SOL    HW2 8017   1.171   3.987   3.369  0.3578  1.1644 -2.6091
 1993SOL    HW3 8018   1.105   3.853   3.390  0.9153  1.4378  1.3835
 1993SOL    MW4 8019   1.109   3.930   3.349  0.3256  0.4635 -0.5941
 1994SOL     OW 8020   0.846   4.014   3.480  0.1223 -0.0506  0.1181
 1994SOL    HW2 8021   0.933   4.001   3.443  0.1739  1.4180 -0.2868
 1994SOL    HW3 8022   0.859   4.015   3.575  0.7153  1.3954  0.0213
 1994SOL    MW4 8023   0.859   4.012   3.488  0.2074  0.3343  0.0517
 1995SOL     OW 8024   0.913   4.282   3.395 -0.1084  0.0019  0.3489
 1995SOL    HW2 8025   0.883   4.197   3.429  0.5903 -0.8714 -1.1738
 1995SOL    HW3 8026   0.904   4.274   3.300 -2.1473  2.4492  0.2898
 1995SOL    MW4 8027   0.907   4.270   3.387 -0.2851  0.2093  0.1400
 1996SOL     OW 8028   1.161   4.405   3.451  0.0193  0.5444  0.1105
 1996SOL    HW2 8029   1.089   4.360   3.405  1.3057 -2.5470  0.9642
 1996SOL    HW3 8030   1.167   4.490   3.408 -2.0231 -0.3840 -2.1555
 1996SOL    MW4 8031   1.152   4.410   3.439 -0.0803  0.0143 -0.0756
 1997SOL     OW 8032   1.649   4.661   3.339 -0.0263 -0.1399 -0.0362
 1997SOL    HW2 8033   1.576   4.713   3.371 -0.2386 -0.4857  0.0501
 1997SOL    HW3 8034   1.641   4.578   3.386 -0.3580 -0.6629 -0.9980
 1997SOL    MW4 8035   1.638   4.657   3.349 -0.0981 -0.2546 -0.1516
 1998SOL     OW 8036   1.404   0.123   3.387  0.1487  0.3706  0.0356
 1998SOL    HW2 8037   1.387   0.147   3.478 -0.9416  1.6176 -0.4912
 1998SOL    HW3 8038   1.427   0.205   3.344  0.7525 -0.2309 -0.7982
 1998SOL    MW4 8039   1.405   0.137   3.394  0.0844  0.4558 -0.1442
 1999SOL     OW 8040   1.410   0.408   3.303 -0.1011  0.4240  0.5114
 1999SOL    HW2 8041   1.490   0.450   3.336 -0.2060  0.4534  0.7298
 1999SOL    HW3 8042   1.339   0.458   3.343 -0.2702 -2.6024  4.2631
 1999SOL    MW4 8043   1.411   0.420   3.313 -0.1372  0.0286  1.0355
 2000SOL     OW 8044   1.649   0.548   3.399 -0.0584  0.0378  0.1651
 2000SOL    HW2 8045   1.664   0.558   3.493 -2.5937 -1.6375  0.7718
 2000SOL    HW3 8046   1.729   0.506   3.366  0.2925 -0.5628  1.7808
 2000SOL    MW4 8047   1.662   0.544   3.407 -0.3465 -0.2625  0.4582
 2001SOL     OW 8048   1.595   0.821   3.340  0.3743  0.3038 -0.1471
 2001SOL    HW2 8049   1.518   0.851   3.389 -0.2199 -0.3204 -0.6867
 2001SOL    HW3 8050   1.604   0.729   3.364  0.0616 -0.0144 -1.2418
 2001SOL    MW4 8051   1.586   0.813   3.350  0.2545  0.1795 -0.3626
 2002SOL     OW 8052   1.366   0.916   3.466 -0.1007  0.1491 -0.1379
 2002SOL    HW2 8053   1.373   0.907   3.561  0.7346 -0.8423 -0.2829
 2002SOL    HW3 8054   1.359   1.010   3.451 -0.9449  0.2630  0.9453
 2002SOL    MW4 8055   1.366   0.927   3.477 -0.1019  0.0333 -0.0143
 2003SOL     OW 8056   1.375   1.183   3.396 -0.1197 -0.5672 -0.4303
 2003SOL    HW2 8057   1.453   1.238   3.406 -0.3560 -0.4519  0.8723
 2003SOL    HW3 8058   1.305   1.232   3.440 -0.7486 -1.0708 -0.8446
 2003SOL    MW4 8059   1.376   1.197   3.403 -0.2339 -0.6183 -0.3133
 2004SOL     OW 8060   1.626   1.299   3.431  0.0675  0.1301  0.0517
 2004SOL    HW2 8061   1.694   1.237   3.404  1.1741  0.5748  1.7900
 2004SOL    HW3 8062   1.651   1.326   3.519 -1.8987  0.9753  0.3760
 2004SOL    MW4 8063   1.638   1.294   3.439 -0.0459  0.3003  0.3240
 2005SOL     OW 8064   1.427   1.743   3.407 -0.3948  0.6297  0.4090
 2005SOL    HW2 8065   1.483   1.775   3.477  0.8550  0.4027 -0.4653
 2005SOL    HW3 8066   1.480   1.676   3.363 -0.7830  1.4547 -1.3562
 2005SOL    MW4 8067   1.441   1.738   3.410 -0.2811  0.7086  0.0606
 2006SOL     OW 8068   1.600   2.099   3.417  0.6123 -0.1155 -0.7358
 2006SOL    HW2 8069   1.664   2.032   3.392 -0.3612 -1.4028  0.1996
 2006SOL    HW3 8070   1.515   2.062   3.393 -0.1532 -0.3081  2.0663
 2006SOL    MW4 8071   1.597   2.085   3.410  0.3829 -0.3107 -0.2427
 2007SOL     OW 8072   1.393   1.974   3.284 -0.3137 -0.1714 -0.2029
 2007SOL    HW2 8073   1.314   2.022   3.309  1.1389  1.7546  0.8678
 2007SOL    HW3 8074   1.376   1.884   3.309 -2.3171  0.1465 -0.3580
 2007SOL    MW4 8075   1.380   1.969   3.291 -0.3865  0.1247 -0.0820
 2008SOL     OW 8076   1.613   2.357   3.284 -0.4736 -0.0062  0.0540
 2008SOL    HW2 8077   1.595   2.266   3.308 -0.9050 -0.1078 -0.6251
 2008SOL    HW3 8078   1.624   2.354   3.189  0.3538  0.5171  0.1316
 2008SOL    MW4 8079   1.612   2.345   3.274 -0.4212  0.0494 -0.0253
 2009SOL     OW 8080   1.849   2.468   3.396 -0.0993 -0.3139  0.0374
 2009SOL    HW2 8081   1.773   2.421   3.360 -0.5291  0.7721 -0.4895
 2009SOL    HW3 8082   1.925   2.420   3.362 -0.5244 -0.2253 -1.0435
 2009SOL    MW4 8083   1.849   2.455   3.387 -0.2121 -0.1590 -0.1745
 2010SOL     OW 8084   1.399   2.459   3.441 -0.1922  0.0571  0.2752
 2010SOL    HW2 8085   1.481   2.441   3.395 -0.5093  0.6977 -0.5683
 2010SOL    HW3 8086   1.380   2.551   3.421 -0.3499  0.3368  1.6884
 2010SOL    MW4 8087   1.407   2.469   3.432 -0.2549  0.1786  0.3502
 2011SOL     OW 8088   1.395   2.721   3.345  0.1559  1.1320  0.1557
 2011SOL    HW2 8089   1.477   2.759   3.377  1.8681 -1.2955 -1.2150
 2011SOL    HW3 8090   1.385   2.756   3.257  0.3665  0.4807 -0.1285
 2011SOL    MW4 8091   1.404   2.731   3.338  0.4097  0.7260 -0.0629
 2012SOL     OW 8092   1.582   2.872   3.472  0.4445 -0.3692 -0.0803
 2012SOL    HW2 8093   1.667   2.842   3.441  0.2360 -0.8242 -0.2302
 2012SOL    HW3 8094   1.577   2.964   3.446  0.3824 -0.6733 -1.1940
 2012SOL    MW4 8095   1.592   2.880   3.465  0.4088 -0.4694 -0.2470
 2013SOL     OW 8096   1.557   3.133   3.332  0.0240  0.2539 -0.3979
 2013SOL    HW2 8097   1.631   3.176   3.375 -0.5066 -0.4218  1.2258
 2013SOL    HW3 8098   1.481   3.187   3.355 -0.4195 -0.6965  0.4079
 2013SOL    MW4 8099   1.557   3.146   3.341 -0.1045  0.0393 -0.0772
 2014SOL     OW 8100   1.127   2.578   3.894  0.2754 -0.5389 -0.0342
 2014SOL    HW2 8101   1.061   2.531   3.842  0.1433  0.5911 -0.9181
 2014SOL    HW3 8102   1.196   2.514   3.909  0.1270 -1.0138 -1.2726
 2014SOL    MW4 8103   1.127   2.563   3.889  0.2385 -0.4525 -0.3142
 2015SOL     OW 8104   1.587   3.613   3.421 -0.1989  0.0717 -0.0157
 2015SOL    HW2 8105   1.567   3.634   3.512  0.2322 -1.1644  0.3822
 2015SOL    HW3 8106   1.511   3.565   3.389 -1.7592  3.2581 -1.3298
 2015SOL    MW4 8107   1.575   3.609   3.429 -0.3479  0.3290 -0.1369
 2016SOL     OW 8108   2.730   0.534   4.264 -0.7972  0.5878 -0.1461
 2016SOL    HW2 8109   2.763   0.518   4.352  0.3512 -1.5475 -0.9311
 2016SOL    HW3 8110   2.636   0.520   4.270 -0.5841 -0.5782  0.5181
 2016SOL    MW4 8111   2.722   0.530   4.276 -0.6175  0.1522 -0.1616
 2017SOL     OW 8112   1.525   3.886   3.407 -0.6487 -0.1411 -0.1555
 2017SOL    HW2 8113   1.545   3.793   3.423  1.1076  0.1535 -0.4489
 2017SOL    HW3 8114   1.526   3.894   3.311  1.1256  0.5456 -0.0999
 2017SOL    MW4 8115   1.528   3.875   3.396 -0.1827 -0.0117 -0.1869
 2018SOL     OW 8116   1.311   4.052   3.493  0.1327 -0.0854  0.3583
 2018SOL    HW2 8117   1.378   3.988   3.472 -2.5712 -2.3536 -1.8931
 2018SOL    HW3 8118   1.345   4.135   3.460  3.0017 -0.6261  1.8494
 2018SOL    MW4 8119   1.324   4.054   3.486  0.1545 -0.4563  0.2582
 2019SOL     OW 8120   1.992   2.862   3.696 -0.2637  0.1904 -0.0296
 2019SOL    HW2 8121   1.995   2.943   3.747  0.1312 -0.3384  0.7973
 2019SOL    HW3 8122   1.919   2.813   3.733 -0.0156 -0.1692 -0.0136
 2019SOL    MW4 8123   1.983   2.866   3.707 -0.1788  0.0737  0.0815
 2020SOL     OW 8124   1.396   4.283   3.382  0.1031 -0.1480  0.6732
 2020SOL    HW2 8125   1.401   4.267   3.288 -0.3693 -1.0004  0.7828
 2020SOL    HW3 8126   1.317   4.335   3.395 -0.1178 -0.4781  0.6526
 2020SOL    MW4 8127   1.386   4.287   3.371  0.0116 -0.3037  0.6850
 2021SOL     OW 8128   2.028   0.004   3.351  0.3968  0.1605  0.2415
 2021SOL    HW2 8129   2.117   0.038   3.339  0.9728 -1.0552  0.9652
 2021SOL    HW3 8130   1.979   0.078   3.386  0.7880  1.2297 -1.4080
 2021SOL    MW4 8131   2.034   0.018   3.354  0.5243  0.1412  0.1192
 2022SOL     OW 8132   1.834   0.182   3.451  0.1585 -0.2134 -0.0463
 2022SOL    HW2 8133   1.837   0.157   3.544 -0.6986  0.5741  0.1951
 2022SOL    HW3 8134   1.780   0.115   3.410  1.0767 -0.9341 -0.1026
 2022SOL    MW4 8135   1.828   0.170   3.458  0.1665 -0.2046 -0.0219
 2023SOL     OW 8136   1.881   0.425   3.323 -0.2176  0.1855 -0.5652
 2023SOL    HW2 8137   1.872   0.339   3.363 -1.2428  0.2292 -0.6976
 2023SOL    HW3 8138   1.849   0.413   3.234 -1.6690  1.0320 -0.1624
 2023SOL    MW4 8139   1.876   0.412   3.316 -0.5444  0.3029 -0.5295
 2024SOL     OW 8140   2.117   0.520   3.445 -0.7966 -0.3736  0.3018
 2024SOL    HW2 8141   2.183   0.477   3.391 -0.0998 -0.9638  1.6090
 2024SOL    HW3 8142   2.033   0.491   3.408 -0.3407 -2.3328  0.7423
 2024SOL    MW4 8143   2.115   0.511   3.433 -0.6444 -0.7100  0.5326
 2025SOL     OW 8144   2.051   0.777   3.400 -0.4684 -0.0164  0.4230
 2025SOL    HW2 8145   2.120   0.838   3.428 -0.4630  0.5176 -0.7381
 2025SOL    HW3 8146   2.089   0.690   3.415  0.4150  0.2739 -0.0798
 2025SOL    MW4 8147   2.065   0.774   3.406 -0.3512  0.0923  0.2036
 2026SOL     OW 8148   1.805   0.801   3.523  0.3924 -0.2960 -0.2757
 2026SOL    HW2 8149   1.890   0.796   3.478 -0.1630 -0.2306 -1.3492
 2026SOL    HW3 8150   1.741   0.807   3.452 -0.4933 -0.0770  0.5391
 2026SOL    MW4 8151   1.808   0.801   3.508  0.2022 -0.2586 -0.3102
 2027SOL     OW 8152   1.816   1.117   3.389  0.0744  0.2144 -0.0009
 2027SOL    HW2 8153   1.884   1.175   3.423  1.9504 -0.7200 -2.0161
 2027SOL    HW3 8154   1.820   1.040   3.445 -1.6922  1.4971  2.0027
 2027SOL    MW4 8155   1.825   1.115   3.401  0.0887  0.2605 -0.0026
 2028SOL     OW 8156   2.005   1.299   3.449 -0.2272 -0.0302 -0.2494
 2028SOL    HW2 8157   1.993   1.377   3.395  0.9099 -0.3580 -0.9887
 2028SOL    HW3 8158   2.029   1.333   3.535  1.4151  0.4355 -0.8607
 2028SOL    MW4 8159   2.007   1.314   3.453  0.1400 -0.0120 -0.4277
 2029SOL     OW 8160   2.007   1.524   3.292  0.1832 -0.6752 -0.3981
 2029SOL    HW2 8161   2.084   1.542   3.346  0.1299 -2.5877  0.3868
 2029SOL    HW3 8162   1.942   1.590   3.320  0.9703 -0.1219  0.1458
 2029SOL    MW4 8163   2.008   1.535   3.303  0.2801 -0.8545 -0.2227
 2030SOL     OW 8164   1.583   1.553   3.313  0.1407 -0.2916  0.2505
 2030SOL    HW2 8165   1.566   1.544   3.219  0.5474  1.2845  0.0088
 2030SOL    HW3 8166   1.596   1.463   3.344 -0.3335 -0.8518 -1.1312
 2030SOL    MW4 8167   1.582   1.540   3.305  0.1318 -0.1576  0.0362
 2031SOL     OW 8168   4.427   1.270   4.046 -0.0135 -0.1348  0.0681
 2031SOL    HW2 8169   4.446   1.271   3.952 -0.2858 -0.3911  0.0106
 2031SOL    HW3 8170   4.336   1.298   4.053  0.2425  0.6607  0.3157
 2031SOL    MW4 8171   4.418   1.274   4.034 -0.0157 -0.0637  0.0935
 2032SOL     OW 8172   0.389   1.247   4.352  0.0779  0.3396 -0.2375
 2032SOL    HW2 8173   0.441   1.249   4.432  0.0780 -2.0155 -0.1449
 2032SOL    HW3 8174   0.305   1.209   4.379 -0.0616 -0.1066 -1.2849
 2032SOL    MW4 8175   0.385   1.243   4.366  0.0595 -0.0299 -0.3633
 2033SOL     OW 8176   2.041   2.305   3.280 -0.4245 -0.1013  0.2747
 2033SOL    HW2 8177   2.112   2.360   3.314  0.9491 -0.8779 -1.2885
 2033SOL    HW3 8178   2.041   2.321   3.185 -1.7498 -0.7972  0.1415
 2033SOL    MW4 8179   2.050   2.315   3.272 -0.4184 -0.2956  0.0508
 2034SOL     OW 8180   0.477   0.894   3.683 -0.2430 -0.0086  0.0660
 2034SOL    HW2 8181   0.547   0.841   3.719  0.1280 -0.0541 -0.6965
 2034SOL    HW3 8182   0.488   0.980   3.723 -0.1124 -0.1772  0.3916
 2034SOL    MW4 8183   0.488   0.898   3.693 -0.1768 -0.0367  0.0086
 2035SOL     OW 8184   1.804   2.731   3.350 -0.2673 -0.0707 -0.4515
 2035SOL    HW2 8185   1.883   2.751   3.400 -0.6664 -0.4856  0.3551
 2035SOL    HW3 8186   1.794   2.636   3.357 -0.7463 -0.0424 -0.6856
 2035SOL    MW4 8187   1.813   2.721   3.357 -0.3831 -0.1221 -0.3760
 2036SOL     OW 8188   2.052   2.854   3.410  0.0524  0.0785 -0.4588
 2036SOL    HW2 8189   2.037   2.945   3.383  1.4177  1.0557  1.9666
 2036SOL    HW3 8190   2.044   2.856   3.505  2.8917 -1.8061 -0.1430
 2036SOL    MW4 8191   2.049   2.866   3.419  0.6070 -0.0410 -0.0973
 2037SOL     OW 8192   1.999   3.116   3.314  0.2821 -0.3296  0.1048
 2037SOL    HW2 8193   2.066   3.170   3.357 -0.5120  0.7464  0.0124
 2037SOL    HW3 8194   1.916   3.150   3.347 -0.2589 -0.9043 -0.6585
 2037SOL    MW4 8195   1.997   3.128   3.324  0.1061 -0.2635 -0.0081
 2038SOL     OW 8196   1.786   3.216   3.457  0.1980  0.1134 -0.0204
 2038SOL    HW2 8197   1.792   3.208   3.553 -1.1267  1.1910  0.1657
 2038SOL    HW3 8198   1.802   3.309   3.440  0.1171 -0.0181 -0.8254
 2038SOL    MW4 8199   1.789   3.227   3.468  0.0125  0.2387 -0.1018
 2039SOL     OW 8200   1.815   3.467   3.367  0.2022  0.3379 -0.1688
 2039SOL    HW2 8201   1.733   3.513   3.388 -0.0187  0.1442 -0.6029
 2039SOL    HW3 8202   1.818   3.467   3.271 -0.2627 -1.3904 -0.1859
 2039SOL    MW4 8203   1.804   3.473   3.357  0.1117  0.0842 -0.2282
 2040SOL     OW 8204   2.021   3.656   3.407 -0.2657 -0.2077  0.1670
 2040SOL    HW2 8205   2.097   3.600   3.390 -0.7299 -1.0753  0.8664
 2040SOL    HW3 8206   1.946   3.602   3.382 -0.7330  0.0058  1.0638
 2040SOL    MW4 8207   2.021   3.641   3.402 -0.3884 -0.2940  0.3774
 2041SOL     OW 8208   2.024   3.923   3.387  0.1004 -0.2394  0.3635
 2041SOL    HW2 8209   1.934   3.947   3.409 -0.6693 -1.4836 -1.2250
 2041SOL    HW3 8210   2.026   3.828   3.397  1.1969 -0.2379  0.2238
 2041SOL    MW4 8211   2.012   3.914   3.391  0.1438 -0.4034  0.1357
 2042SOL     OW 8212   1.774   4.024   3.412 -0.0602 -0.0496 -0.0202
 2042SOL    HW2 8213   1.782   4.050   3.504  0.5454 -0.4155  0.0362
 2042SOL    HW3 8214   1.688   3.982   3.406 -0.6338  1.0958  0.1009
 2042SOL    MW4 8215   1.764   4.022   3.423 -0.0559  0.0534  0.0033
 2043SOL     OW 8216   1.794   4.277   3.307 -0.4305  0.0141  0.1854
 2043SOL    HW2 8217   1.778   4.184   3.324  0.5761 -0.0106  1.0037
 2043SOL    HW3 8218   1.795   4.283   3.211  1.6715 -1.2011  0.1102
 2043SOL    MW4 8219   1.792   4.265   3.296 -0.0204 -0.1493  0.2837
 2044SOL     OW 8220   2.035   4.404   3.398 -0.2538 -0.1390  0.1444
 2044SOL    HW2 8221   1.962   4.370   3.347 -1.6279 -0.5934  2.3259
 2044SOL    HW3 8222   2.042   4.496   3.372 -0.8092 -0.4104 -0.9863
 2044SOL    MW4 8223   2.026   4.412   3.388 -0.5083 -0.2346  0.2830
 2045SOL     OW 8224   2.544   4.653   3.300 -0.2023  0.2777 -0.3585
 2045SOL    HW2 8225   2.521   4.567   3.336 -0.4635  0.5402  0.1135
 2045SOL    HW3 8226   2.551   4.638   3.206  0.1673 -0.3493 -0.2343
 2045SOL    MW4 8227   2.542   4.639   3.293 -0.1884  0.2298 -0.2799
 2046SOL     OW 8228   2.289   0.138   3.646  0.0359 -0.8638  0.0580
 2046SOL    HW2 8229   2.351   0.072   3.677 -0.5375 -0.9071  1.1314
 2046SOL    HW3 8230   2.203   0.105   3.674 -0.3541 -0.1915 -0.3437
 2046SOL    MW4 8231   2.286   0.125   3.653 -0.0913 -0.7808  0.1469
 2047SOL     OW 8232   2.285   0.116   3.350  0.5968  0.3997 -0.3495
 2047SOL    HW2 8233   2.367   0.092   3.307  0.2984 -0.8684 -0.2342
 2047SOL    HW3 8234   2.301   0.099   3.443 -0.4603 -1.8667 -0.5442
 2047SOL    MW4 8235   2.298   0.111   3.356  0.4177 -0.0666 -0.3600
 2048SOL     OW 8236   0.037   0.114   3.730  0.4163  0.2048  0.3257
 2048SOL    HW2 8237   0.023   0.126   3.636  0.6212  0.3935  0.3181
 2048SOL    HW3 8238   0.046   0.203   3.765 -0.8882  0.1832  0.7232
 2048SOL    MW4 8239   0.037   0.127   3.722  0.2712  0.2268  0.3774
 2049SOL     OW 8240   2.496   0.744   3.367 -0.0734 -0.3287 -0.0555
 2049SOL    HW2 8241   2.576   0.779   3.406 -0.2535  0.6594 -0.5499
 2049SOL    HW3 8242   2.508   0.758   3.273 -0.6517 -0.5408 -0.1610
 2049SOL    MW4 8243   2.508   0.751   3.359 -0.1733 -0.2263 -0.1347
 2050SOL     OW 8244   2.273   0.900   3.471 -0.2791  0.2988 -0.1725
 2050SOL    HW2 8245   2.268   0.983   3.423 -0.9758  0.2152 -0.2485
 2050SOL    HW3 8246   2.358   0.863   3.446  0.1279  1.0831  0.0194
 2050SOL    MW4 8247   2.284   0.906   3.461 -0.3173  0.3912 -0.1571
 2051SOL     OW 8248   2.229   1.155   3.347  0.3802 -0.4126  0.3823
 2051SOL    HW2 8249   2.308   1.201   3.376 -0.5796  0.4028  1.7391
 2051SOL    HW3 8250   2.157   1.203   3.387 -0.7497 -1.9228  0.1924
 2051SOL    MW4 8251   2.230   1.167   3.356  0.1047 -0.5043  0.5364
 2052SOL     OW 8252   2.460   1.273   3.454  0.1055  0.4572 -0.0633
 2052SOL    HW2 8253   2.473   1.271   3.549 -0.0576  2.6600  0.0479
 2052SOL    HW3 8254   2.541   1.238   3.417 -0.3537 -1.6660  0.8936
 2052SOL    MW4 8255   2.472   1.268   3.461  0.0234  0.4678  0.0777
 2053SOL     OW 8256   2.427   1.543   3.373  0.4061  0.6255  0.3389
 2053SOL    HW2 8257   2.453   1.452   3.388 -1.8131 -0.0671  0.1922
 2053SOL    HW3 8258   2.418   1.550   3.278 -0.8981  0.5624  0.4526
 2053SOL    MW4 8259   2.429   1.532   3.362 -0.0589  0.5257  0.3345
 2054SOL     OW 8260   2.224   1.906   3.365  0.0113 -0.0353 -0.2397
 2054SOL    HW2 8261   2.149   1.954   3.400 -0.6576 -1.6804  0.6696
 2054SOL    HW3 8262   2.205   1.896   3.272 -1.5732 -1.5695  0.2168
 2054SOL    MW4 8263   2.212   1.911   3.357 -0.2863 -0.4547 -0.0591
 2055SOL     OW 8264   2.019   2.063   3.440 -0.3682  0.0063  0.6870
 2055SOL    HW2 8265   2.039   2.146   3.395  0.1148 -0.6341 -0.2880
 2055SOL    HW3 8266   2.015   2.087   3.533  0.3527  1.0221  0.4670
 2055SOL    MW4 8267   2.021   2.077   3.447 -0.2096  0.0558  0.5295
 2056SOL     OW 8268   2.423   2.070   3.390 -0.6643  0.2236 -0.1132
 2056SOL    HW2 8269   2.442   2.068   3.484 -0.1551  1.7447 -0.1680
 2056SOL    HW3 8270   2.351   2.009   3.378 -1.9232  1.3451  1.5605
 2056SOL    MW4 8271   2.416   2.062   3.401 -0.7632  0.5720  0.1004
 2057SOL     OW 8272   2.483   2.348   3.321  0.2885  0.5034 -0.3336
 2057SOL    HW2 8273   2.560   2.375   3.372 -0.0321  0.8170 -0.0183
 2057SOL    HW3 8274   2.473   2.255   3.340  0.2397  0.5954  0.0850
 2057SOL    MW4 8275   2.492   2.339   3.330  0.2398  0.5569 -0.2370
 2058SOL     OW 8276   2.243   2.451   3.382  0.7549 -0.0897 -0.1704
 2058SOL    HW2 8277   2.257   2.542   3.356  2.0855 -0.3015 -0.2371
 2058SOL    HW3 8278   2.329   2.409   3.371  0.9629 -0.5952  2.9642
 2058SOL    MW4 8279   2.256   2.457   3.377  0.9580 -0.1843  0.2346
 2059SOL     OW 8280   2.260   2.718   3.302  0.2754 -0.3334  0.3066
 2059SOL    HW2 8281   2.175   2.754   3.326  0.8147 -0.0710  1.8566
 2059SOL    HW3 8282   2.263   2.725   3.207 -0.5233  1.6991  0.4149
 2059SOL    MW4 8283   2.249   2.724   3.293  0.2410 -0.0305  0.5255
 2060SOL     OW 8284   2.445   2.836   3.465  0.3168  0.1662 -0.3473
 2060SOL    HW2 8285   2.449   2.926   3.434 -1.2794  1.2355  2.3699
 2060SOL    HW3 8286   2.369   2.798   3.420 -0.0364  0.7012 -0.2053
 2060SOL    MW4 8287   2.435   2.843   3.455  0.0596  0.3779  0.0300
 2061SOL     OW 8288   2.443   3.080   3.332  0.1592 -0.0782 -0.0042
 2061SOL    HW2 8289   2.529   3.120   3.345  0.5152 -0.9552  0.4078
 2061SOL    HW3 8290   2.438   3.063   3.238 -0.0386  1.0030 -0.2005
 2061SOL    MW4 8291   2.454   3.083   3.321  0.1800 -0.0513  0.0243
 2062SOL     OW 8292   2.207   3.224   3.438 -0.2685  0.0333 -0.1741
 2062SOL    HW2 8293   2.212   3.210   3.532  0.9668  0.6480 -0.1489
 2062SOL    HW3 8294   2.284   3.180   3.402  0.2279  1.3206 -0.7160
 2062SOL    MW4 8295   2.218   3.217   3.446 -0.0398  0.2842 -0.2422
 2063SOL     OW 8296   2.239   3.484   3.349 -0.3511 -0.1207 -0.2377
 2063SOL    HW2 8297   2.216   3.395   3.375  1.1139 -1.4393 -3.2369
 2063SOL    HW3 8298   2.254   3.479   3.255 -0.4275  3.3622 -0.5193
 2063SOL    MW4 8299   2.238   3.472   3.340 -0.1678  0.1647 -0.6707
 2064SOL     OW 8300   2.489   3.583   3.417  0.1275 -0.3408  0.1332
 2064SOL    HW2 8301   2.500   3.673   3.385  0.8473 -0.9193 -1.2872
 2064SOL    HW3 8302   2.405   3.556   3.382  1.2327 -1.2175 -1.9066
 2064SOL    MW4 8303   2.479   3.592   3.408  0.3684 -0.5326 -0.3233
 2065SOL     OW 8304   2.521   3.839   3.342 -0.8290  0.4357 -0.1390
 2065SOL    HW2 8305   2.590   3.888   3.387  0.5006 -1.4173 -0.1008
 2065SOL    HW3 8306   2.441   3.889   3.359  0.5141  2.7179 -0.3302
 2065SOL    MW4 8307   2.519   3.852   3.350 -0.4766  0.4923 -0.1593
 2066SOL     OW 8308   2.284   4.003   3.388 -0.3831  0.4002 -0.4827
 2066SOL    HW2 8309   2.268   4.087   3.343  0.1325  0.5624 -0.3622
 2066SOL    HW3 8310   2.197   3.962   3.392 -1.0892  2.0496  1.7304
 2066SOL    MW4 8311   2.270   4.009   3.382 -0.4082  0.6390 -0.1750
 2067SOL     OW 8312   2.235   4.249   3.301  0.4016 -0.0756 -0.0234
 2067SOL    HW2 8313   2.155   4.289   3.334  0.4886  0.0351  0.0512
 2067SOL    HW3 8314   2.227   4.253   3.206 -0.3036 -1.2805 -0.0365
 2067SOL    MW4 8315   2.223   4.255   3.293  0.3200 -0.2198 -0.0153
 2068SOL     OW 8316   2.459   4.388   3.403 -0.0312 -0.0864  0.1610
 2068SOL    HW2 8317   2.462   4.382   3.499  1.5409  0.2609  0.1565
 2068SOL    HW3 8318   2.377   4.345   3.378  0.1665 -1.3268  1.5866
 2068SOL    MW4 8319   2.449   4.382   3.412  0.2024 -0.2041  0.3483
 2069SOL     OW 8320   2.959   4.638   3.369 -0.1530  0.2270  0.1959
 2069SOL    HW2 8321   2.878   4.685   3.386 -1.9183 -1.6707 -2.3960
 2069SOL    HW3 8322   2.979   4.657   3.277  1.6297 -0.3935  0.4288
 2069SOL    MW4 8323   2.951   4.646   3.359 -0.1507 -0.1049 -0.1156
 2070SOL     OW 8324   2.736   0.097   3.447 -0.3827 -0.2002 -0.1821
 2070SOL    HW2 8325   2.662   0.065   3.395 -0.4020  0.3322 -0.4834
 2070SOL    HW3 8326   2.744   0.190   3.423 -1.3296  0.4408  1.8496
 2070SOL    MW4 8327   2.727   0.105   3.437 -0.5102 -0.0454  0.0458
 2071SOL     OW 8328   2.739   0.351   3.338 -0.3230  0.5967 -0.3220
 2071SOL    HW2 8329   2.822   0.381   3.376 -0.9091  1.8706 -0.0276
 2071SOL    HW3 8330   2.752   0.358   3.244 -0.2510  1.2344 -0.2673
 2071SOL    MW4 8331   2.752   0.356   3.331 -0.3908  0.8489 -0.2759
 2072SOL     OW 8332   2.954   0.503   3.420 -0.1158  0.1840 -0.3785
 2072SOL    HW2 8333   2.955   0.532   3.511  0.9238  1.0342 -0.6460
 2072SOL    HW3 8334   2.941   0.583   3.369  1.6318  0.0583 -1.0731
 2072SOL    MW4 8335   2.953   0.517   3.425  0.2520  0.2797 -0.5054
 2073SOL     OW 8336   2.707   0.894   3.486 -0.3217  0.1128  0.0796
 2073SOL    HW2 8337   2.712   0.989   3.476  0.9483  0.0493  0.0568
 2073SOL    HW3 8338   2.701   0.880   3.580  0.2426  0.1906  0.1303
 2073SOL    MW4 8339   2.707   0.905   3.497 -0.0799  0.1147  0.0834
 2074SOL     OW 8340   3.969   1.878   4.108  0.2281  0.0108 -0.5821
 2074SOL    HW2 8341   4.039   1.932   4.145  0.4277 -0.4639 -0.2701
 2074SOL    HW3 8342   3.973   1.894   4.014 -0.3520  1.3145 -0.3964
 2074SOL    MW4 8343   3.979   1.887   4.101  0.1776  0.1203 -0.5164
 2075SOL     OW 8344   3.374   0.627   4.135 -0.0174 -0.3022  0.1261
 2075SOL    HW2 8345   3.371   0.646   4.041 -1.7571  2.3420  0.6641
 2075SOL    HW3 8346   3.323   0.547   4.145 -1.6528  0.5786 -0.9495
 2075SOL    MW4 8347   3.367   0.619   4.124 -0.4628  0.1629  0.0553
 2076SOL     OW 8348   2.700   1.160   3.376 -0.2271  0.4437  0.1721
 2076SOL    HW2 8349   2.788   1.193   3.397  0.3923 -1.1692  0.2270
 2076SOL    HW3 8350   2.703   1.140   3.283  0.3046 -1.9724  0.6616
 2076SOL    MW4 8351   2.712   1.162   3.367 -0.0751 -0.0880  0.2441
 2077SOL     OW 8352   2.939   1.552   3.381  0.1616 -0.0303 -0.0288
 2077SOL    HW2 8353   2.851   1.578   3.408  0.4627  0.7066  0.2474
 2077SOL    HW3 8354   2.948   1.463   3.416 -0.2059  0.1640  0.5863
 2077SOL    MW4 8355   2.928   1.543   3.389  0.1526  0.0926  0.0887
 2078SOL     OW 8356   2.681   1.638   3.449 -0.2332  0.2364 -0.2020
 2078SOL    HW2 8357   2.671   1.723   3.405  1.4665 -0.2716 -1.6182
 2078SOL    HW3 8358   2.607   1.586   3.418 -0.2918  0.6267 -0.7290
 2078SOL    MW4 8359   2.670   1.642   3.439 -0.0167  0.2209 -0.4585
 2079SOL     OW 8360   2.689   1.902   3.341  0.3731  0.4802  0.0695
 2079SOL    HW2 8361   2.707   1.916   3.248  0.8931  0.4275  0.1584
 2079SOL    HW3 8362   2.616   1.960   3.361 -0.0484  0.1468 -0.4815
 2079SOL    MW4 8363   2.682   1.911   3.332  0.3862  0.4293  0.0083
 2080SOL     OW 8364   0.265   1.754   4.411  0.3487  0.0054  0.3689
 2080SOL    HW2 8365   0.253   1.715   4.325  0.8802  0.7278 -0.0393
 2080SOL    HW3 8366   0.235   1.687   4.472 -0.9803 -0.1225 -0.4094
 2080SOL    MW4 8367   0.260   1.740   4.408  0.2435  0.0840  0.2122
 2081SOL     OW 8368   2.918   2.329   3.295  0.1686 -0.4344 -0.4350
 2081SOL    HW2 8369   3.001   2.368   3.323 -0.0603 -0.7288  0.7000
 2081SOL    HW3 8370   2.912   2.248   3.345 -0.9670 -0.2331 -0.2245
 2081SOL    MW4 8371   2.928   2.324   3.305 -0.0114 -0.4466 -0.2573
 2082SOL     OW 8372   2.710   2.443   3.443 -0.1652  0.3433  0.1651
 2082SOL    HW2 8373   2.691   2.524   3.396 -0.7113 -0.5044 -1.1065
 2082SOL    HW3 8374   2.794   2.413   3.407 -1.5327 -1.3436 -1.7669
 2082SOL    MW4 8375   2.719   2.450   3.432 -0.4175  0.0093 -0.2577
 2083SOL     OW 8376   2.641   2.741   3.270  0.3464  0.0225  0.0846
 2083SOL    HW2 8377   2.718   2.789   3.303  0.1378  0.9132 -0.7065
 2083SOL    HW3 8378   2.569   2.772   3.325  0.3562 -0.0062  0.1140
 2083SOL    MW4 8379   2.642   2.752   3.282  0.3204  0.1364 -0.0160
 2084SOL     OW 8380   2.655   2.693   3.827 -0.3793  0.0824 -0.2654
 2084SOL    HW2 8381   2.579   2.749   3.809  0.7537  1.9441  0.4956
 2084SOL    HW3 8382   2.722   2.724   3.766  0.3884 -0.1807  0.4406
 2084SOL    MW4 8383   2.654   2.705   3.816 -0.1285  0.2935 -0.0720
 2085SOL     OW 8384   3.136   3.250   3.454  0.1604 -0.0589  0.6812
 2085SOL    HW2 8385   3.101   3.247   3.543  1.6470  1.5919  1.3677
 2085SOL    HW3 8386   3.149   3.343   3.437  1.8536 -0.4830 -0.4591
 2085SOL    MW4 8387   3.133   3.262   3.464  0.5798  0.1030  0.6213
 2086SOL     OW 8388   2.712   3.166   3.383 -0.5036 -1.0496  0.1878
 2086SOL    HW2 8389   2.720   3.161   3.479  0.5273  0.3974  0.1919
 2086SOL    HW3 8390   2.791   3.121   3.351  1.3320  2.0984  0.0923
 2086SOL    MW4 8391   2.724   3.159   3.392 -0.1254 -0.4430  0.1755
 2087SOL     OW 8392   2.707   3.438   3.324  0.0219 -0.5673 -0.2208
 2087SOL    HW2 8393   2.723   3.353   3.364  0.9848  0.1429  0.9377
 2087SOL    HW3 8394   2.634   3.474   3.373  0.4162 -0.2083  0.1050
 2087SOL    MW4 8395   2.700   3.431   3.335  0.2012 -0.4261 -0.0250
 2088SOL     OW 8396   2.896   3.600   3.441  0.2444  0.1974 -0.6028
 2088SOL    HW2 8397   2.835   3.548   3.388  0.4107 -0.5436 -0.0722
 2088SOL    HW3 8398   2.898   3.686   3.398 -0.9726  0.1451 -0.7663
 2088SOL    MW4 8399   2.889   3.604   3.428  0.1056  0.0927 -0.5543
 2089SOL     OW 8400   2.941   3.880   3.313  0.4260  0.2229  0.1127
 2089SOL    HW2 8401   3.007   3.903   3.378 -0.1594  0.4608  0.6206
 2089SOL    HW3 8402   2.861   3.923   3.343  0.2390  0.6406 -0.9567
 2089SOL    MW4 8403   2.940   3.889   3.325  0.3240  0.3095  0.0386
 2090SOL     OW 8404   2.716   3.979   3.438 -0.2445  0.2617 -0.3182
 2090SOL    HW2 8405   2.714   3.990   3.533  0.1095  2.0029 -0.5069
 2090SOL    HW3 8406   2.693   4.065   3.402  0.4221 -0.1504 -1.8121
 2090SOL    MW4 8407   2.713   3.992   3.446 -0.1097  0.4370 -0.5400
 2091SOL     OW 8408   2.678   4.222   3.322  0.0176 -0.4814  0.3977
 2091SOL    HW2 8409   2.747   4.273   3.365 -0.3687  0.3373  0.0532
 2091SOL    HW3 8410   2.597   4.261   3.353 -0.2787 -0.7498 -0.0410
 2091SOL    MW4 8411   2.677   4.234   3.332 -0.0722 -0.4091  0.2942
 2092SOL     OW 8412   2.905   4.367   3.420  0.1844  0.4148  0.3514
 2092SOL    HW2 8413   2.925   4.362   3.513  0.7742  1.6620  0.2960
 2092SOL    HW3 8414   2.915   4.459   3.398  3.3922 -0.3683 -1.6822
 2092SOL    MW4 8415   2.909   4.378   3.429  0.6857  0.4759  0.0758
 2093SOL     OW 8416   3.376   4.637   3.384 -0.1599  0.3639 -0.1115
 2093SOL    HW2 8417   3.315   4.707   3.405  0.3182  0.5087  0.7987
 2093SOL    HW3 8418   3.368   4.626   3.289 -0.8171  1.1000 -0.1439
 2093SOL    MW4 8419   3.367   4.644   3.374 -0.1836  0.4797  0.0043
 2094SOL     OW 8420   3.171   0.147   3.476 -0.4963 -0.0898 -0.1782
 2094SOL    HW2 8421   3.108   0.102   3.421  0.6616  0.2590 -1.8345
 2094SOL    HW3 8422   3.178   0.235   3.439  1.3659 -0.2910 -0.3971
 2094SOL    MW4 8423   3.164   0.153   3.464 -0.0980 -0.0704 -0.4256
 2095SOL     OW 8424   3.179   0.378   3.334 -0.3277  0.0363  0.3668
 2095SOL    HW2 8425   3.097   0.428   3.341 -1.5493 -1.6514 -1.2113
 2095SOL    HW3 8426   3.186   0.359   3.240  1.1236 -1.0829  0.6995
 2095SOL    MW4 8427   3.169   0.382   3.322 -0.2973 -0.3340  0.2027
 2096SOL     OW 8428   3.397   0.530   3.461  0.4713 -0.6801  0.0430
 2096SOL    HW2 8429   3.394   0.518   3.556  0.2696 -1.3641 -0.0446
 2096SOL    HW3 8430   3.319   0.486   3.428  0.9079 -1.0750 -0.4982
 2096SOL    MW4 8431   3.387   0.522   3.469  0.5021 -0.8225 -0.0401
 2097SOL     OW 8432   3.400   0.790   3.364 -0.0365 -0.0751  0.1707
 2097SOL    HW2 8433   3.460   0.840   3.420  1.1208 -0.7791 -0.4035
 2097SOL    HW3 8434   3.397   0.703   3.404  0.0124 -0.2917 -0.2916
 2097SOL    MW4 8435   3.408   0.785   3.377  0.1225 -0.1965  0.0339
 2098SOL     OW 8436   3.157   0.895   3.438 -0.1291  0.4892  0.3761
 2098SOL    HW2 8437   3.155   0.914   3.531  0.7608 -0.2269  0.5355
 2098SOL    HW3 8438   3.244   0.860   3.421  0.2702  2.0331 -1.0038
 2098SOL    MW4 8439   3.168   0.893   3.448  0.0408  0.5984  0.2153
 2099SOL     OW 8440   3.140   1.158   3.086  0.0870  0.0668  0.1166
 2099SOL    HW2 8441   3.152   1.066   3.061 -0.3361  0.0194  0.0858
 2099SOL    HW3 8442   3.216   1.203   3.048  0.2508 -0.2567  0.0609
 2099SOL    MW4 8443   3.152   1.152   3.077  0.0527  0.0179  0.1051
 2100SOL     OW 8444   3.627   1.178   3.380  0.5472 -0.5462  0.0857
 2100SOL    HW2 8445   3.537   1.204   3.400  0.4972 -0.4734 -0.2297
 2100SOL    HW3 8446   3.634   1.187   3.285  1.6471  1.9284  0.3720
 2100SOL    MW4 8447   3.616   1.183   3.370  0.6857 -0.2102  0.0820
 2101SOL     OW 8448   3.385   1.551   3.369  0.4807 -0.1067  0.3225
 2101SOL    HW2 8449   3.471   1.586   3.394  0.3201 -0.6853  1.7499
 2101SOL    HW3 8450   3.322   1.605   3.418 -0.1183  1.8697 -2.5343
 2101SOL    MW4 8451   3.388   1.563   3.379  0.3805  0.0778  0.1340
 2102SOL     OW 8452   3.142   1.712   3.466  0.0365  0.6324  0.0799
 2102SOL    HW2 8453   3.155   1.695   3.559 -0.9187  0.2805  0.1474
 2102SOL    HW3 8454   3.062   1.666   3.444  0.8664 -0.2250 -1.1758
 2102SOL    MW4 8455   3.133   1.704   3.475  0.0198  0.4728 -0.0770
 2103SOL     OW 8456   3.133   1.967   3.350 -0.0210  0.2098  0.7409
 2103SOL    HW2 8457   3.135   1.884   3.398 -2.2458 -0.5484 -0.4222
 2103SOL    HW3 8458   3.158   1.944   3.261  1.4021  1.1604  0.8817
 2103SOL    MW4 8459   3.137   1.953   3.345 -0.1266  0.2352  0.6061
 2104SOL     OW 8460   3.359   2.083   3.485 -0.3975  0.3935 -0.1054
 2104SOL    HW2 8461   3.377   2.165   3.439 -0.5923  0.1168 -0.6748
 2104SOL    HW3 8462   3.297   2.037   3.429  0.6160 -0.6660 -0.3749
 2104SOL    MW4 8463   3.353   2.088   3.472 -0.2897  0.2172 -0.2160
 2105SOL     OW 8464   3.412   2.309   3.327  0.2228 -0.0465  0.0643
 2105SOL    HW2 8465   3.460   2.373   3.380 -0.0483 -0.0787  0.3593
 2105SOL    HW3 8466   3.428   2.334   3.237  0.5482  0.1212  0.1699
 2105SOL    MW4 8467   3.420   2.321   3.322  0.2301 -0.0286  0.1173
 2106SOL     OW 8468   3.164   2.424   3.375  0.4787  0.2785  0.2149
 2106SOL    HW2 8469   3.242   2.371   3.359  0.3957  0.1375  0.2739
 2106SOL    HW3 8470   3.153   2.422   3.470 -0.6401 -1.2018  0.0701
 2106SOL    MW4 8471   3.173   2.417   3.385  0.3200  0.0646  0.2036
 2107SOL     OW 8472   3.358   3.101   3.393  0.7465  0.2704 -0.0972
 2107SOL    HW2 8473   3.428   3.144   3.442 -0.2232  0.3162  1.2856
 2107SOL    HW3 8474   3.280   3.153   3.411 -0.0680 -0.9833  0.1352
 2107SOL    MW4 8475   3.357   3.113   3.402  0.5107  0.1111  0.1161
 2108SOL     OW 8476   3.326   2.829   3.477 -0.3260 -0.0190 -0.4657
 2108SOL    HW2 8477   3.411   2.786   3.464 -0.3430  0.3104 -1.6256
 2108SOL    HW3 8478   3.339   2.919   3.447 -1.3437 -0.2164 -1.5171
 2108SOL    MW4 8479   3.339   2.835   3.472 -0.4625 -0.0017 -0.7575
 2109SOL     OW 8480   2.901   3.031   3.819  0.4851 -0.5218  0.4799
 2109SOL    HW2 8481   2.916   3.020   3.913 -0.2575  0.9891  0.7822
 2109SOL    HW3 8482   2.941   3.115   3.798  0.8260 -0.9512 -0.6057
 2109SOL    MW4 8483   2.908   3.040   3.829  0.4323 -0.3791  0.3767
 2110SOL     OW 8484   2.933   3.080   3.246  0.0228 -0.3852  0.0286
 2110SOL    HW2 8485   2.944   3.088   3.151  2.7194 -2.9334  0.0611
 2110SOL    HW3 8486   2.993   3.145   3.282  1.1954 -1.4325 -0.0055
 2110SOL    MW4 8487   2.943   3.090   3.238  0.5331 -0.8597  0.0284
 2111SOL     OW 8488   3.142   3.513   3.366 -0.8311  0.0793 -0.8156
 2111SOL    HW2 8489   3.052   3.536   3.388 -1.5810 -1.1697 -2.5023
 2111SOL    HW3 8490   3.139   3.490   3.273  0.6582 -2.6828 -0.2401
 2111SOL    MW4 8491   3.130   3.513   3.357 -0.7334 -0.4497 -0.9625
 2112SOL     OW 8492   3.366   3.648   3.499 -0.2605  0.3120 -0.4043
 2112SOL    HW2 8493   3.290   3.603   3.462 -0.3185  0.3088 -0.2820
 2112SOL    HW3 8494   3.365   3.735   3.458  0.4963 -0.1812 -1.4887
 2112SOL    MW4 8495   3.356   3.654   3.489 -0.1683  0.2465 -0.5317
 2113SOL     OW 8496   3.357   3.909   3.374  0.2131 -0.2767 -0.1741
 2113SOL    HW2 8497   3.439   3.935   3.417 -0.0968 -0.6626  0.6528
 2113SOL    HW3 8498   3.289   3.934   3.436 -0.1804 -1.6708 -0.0339
 2113SOL    MW4 8499   3.359   3.916   3.388  0.1204 -0.5119 -0.0465
 2114SOL     OW 8500   3.121   3.965   3.503 -0.0969 -0.1314 -0.3442
 2114SOL    HW2 8501   3.135   3.989   3.594  0.1083 -0.1588 -0.3690
 2114SOL    HW3 8502   3.124   4.049   3.456  0.7300 -0.2091 -0.4446
 2114SOL    MW4 8503   3.123   3.979   3.509  0.0396 -0.1450 -0.3607
 2115SOL     OW 8504   3.139   4.228   3.383  0.1201 -0.3286 -0.2669
 2115SOL    HW2 8505   3.212   4.281   3.415 -0.2465 -0.2886  0.5088
 2115SOL    HW3 8506   3.062   4.284   3.395 -0.1461 -0.6853 -0.3072
 2115SOL    MW4 8507   3.138   4.243   3.389  0.0365 -0.3700 -0.1700
 2116SOL     OW 8508   3.346   4.384   3.478 -0.0848  0.1582 -0.0340
 2116SOL    HW2 8509   3.345   4.382   3.573  1.1473 -1.4542 -0.0342
 2116SOL    HW3 8510   3.351   4.478   3.456  0.2519  0.5047  1.4795
 2116SOL    MW4 8511   3.347   4.396   3.487  0.1221 -0.0091  0.1659
 2117SOL     OW 8512   3.849   4.644   3.378  0.6615  0.1548  0.4726
 2117SOL    HW2 8513   3.767   4.681   3.409  1.1928  2.0766 -0.2976
 2117SOL    HW3 8514   3.842   4.646   3.282  1.1942 -0.6317  0.4102
 2117SOL    MW4 8515   3.838   4.649   3.369  0.8018  0.3047  0.3629
 2118SOL     OW 8516   3.598   0.093   3.491 -0.1987 -0.1722  0.7168
 2118SOL    HW2 8517   3.582   0.187   3.479  3.5059  0.4834  0.4877
 2118SOL    HW3 8518   3.521   0.051   3.452 -2.6982  2.7626  2.2350
 2118SOL    MW4 8519   3.586   0.100   3.484 -0.0398  0.3015  0.8867
 2119SOL     OW 8520   3.618   0.380   3.383 -0.0010 -0.1492  0.3230
 2119SOL    HW2 8521   3.680   0.427   3.438 -0.2629 -1.8711  2.1476
 2119SOL    HW3 8522   3.538   0.433   3.386 -0.3275 -0.7443  2.4335
 2119SOL    MW4 8523   3.616   0.393   3.390 -0.0787 -0.4549  0.8423
 2120SOL     OW 8524   3.824   0.510   3.491  0.1588  0.2605 -0.1531
 2120SOL    HW2 8525   3.841   0.516   3.585 -0.0188 -1.5297  0.0220
 2120SOL    HW3 8526   3.895   0.454   3.458 -0.1644  0.3259 -0.9696
 2120SOL    MW4 8527   3.836   0.503   3.499  0.0930  0.0330 -0.2379
 2121SOL     OW 8528   3.803   0.747   3.352  0.0821  0.2652 -0.5693
 2121SOL    HW2 8529   3.873   0.801   3.389 -2.7651  1.6465  3.1185
 2121SOL    HW3 8530   3.803   0.668   3.405 -0.3881 -0.2507 -1.3261
 2121SOL    MW4 8531   3.812   0.744   3.363 -0.3555  0.3793 -0.1829
 2122SOL     OW 8532   3.622   0.920   3.484 -0.1097 -0.2484  0.4301
 2122SOL    HW2 8533   3.680   0.860   3.435 -1.1372  1.0735 -2.5273
 2122SOL    HW3 8534   3.633   1.004   3.441 -2.4399  0.5675  1.3580
 2122SOL    MW4 8535   3.631   0.923   3.472 -0.5527  0.0337  0.1621
 2123SOL     OW 8536   3.299   1.565   4.093  0.0662 -0.1295 -0.1904
 2123SOL    HW2 8537   3.226   1.526   4.141 -1.1959  0.1655 -1.8502
 2123SOL    HW3 8538   3.375   1.511   4.117 -1.0951 -1.7887 -0.1813
 2123SOL    MW4 8539   3.300   1.553   4.103 -0.2532 -0.3093 -0.4077
 2124SOL     OW 8540   3.831   1.277   3.515 -0.2539  0.7527  0.2115
 2124SOL    HW2 8541   3.806   1.277   3.607  0.2287  0.0005  0.3479
 2124SOL    HW3 8542   3.752   1.248   3.469 -0.1475 -0.0013  0.4927
 2124SOL    MW4 8543   3.817   1.273   3.521 -0.1760  0.5540  0.2663
 2125SOL     OW 8544   3.818   1.540   3.415  0.0137  0.1492 -0.0244
 2125SOL    HW2 8545   3.900   1.581   3.444 -0.4302  0.5921  0.6324
 2125SOL    HW3 8546   3.809   1.463   3.471 -0.7752  0.9306  0.9579
 2125SOL    MW4 8547   3.828   1.535   3.427 -0.1488  0.3107  0.1919
 2126SOL     OW 8548   3.591   1.671   3.509 -0.4579  0.1263  0.2521
 2126SOL    HW2 8549   3.607   1.764   3.489  1.4815  0.0973  1.5619
 2126SOL    HW3 8550   3.665   1.625   3.470  0.5019 -0.4828  2.6835
 2126SOL    MW4 8551   3.603   1.678   3.501 -0.0753  0.0422  0.7458
 2127SOL     OW 8552   3.597   1.939   3.411  0.2315 -0.0654  0.3860
 2127SOL    HW2 8553   3.674   1.984   3.447  0.1723  0.2963  0.0565
 2127SOL    HW3 8554   3.523   1.977   3.459  0.2071 -0.0048  0.3003
 2127SOL    MW4 8555   3.597   1.950   3.422  0.2205 -0.0095  0.3309
 2128SOL     OW 8556   3.808   2.082   3.494 -0.6009  0.0732  0.2031
 2128SOL    HW2 8557   3.808   2.087   3.590 -0.4106 -0.9487  0.2525
 2128SOL    HW3 8558   3.891   2.041   3.472 -0.8289 -0.0693 -0.3844
 2128SOL    MW4 8559   3.819   2.077   3.504 -0.6061 -0.0803  0.1321
 2129SOL     OW 8560   3.802   2.341   3.386  0.0208 -0.7068 -0.5567
 2129SOL    HW2 8561   3.884   2.371   3.427 -0.0383 -1.4525  0.1132
 2129SOL    HW3 8562   3.778   2.263   3.435 -1.2440 -0.3404 -0.5788
 2129SOL    MW4 8563   3.810   2.335   3.398 -0.1538 -0.7567 -0.4709
 2130SOL     OW 8564   3.580   2.477   3.474  0.7471 -0.2194  0.6750
 2130SOL    HW2 8565   3.664   2.446   3.440  0.1823 -0.0851 -0.8957
 2130SOL    HW3 8566   3.584   2.572   3.464  0.5411 -0.1872  0.8979
 2130SOL    MW4 8567   3.592   2.485   3.468  0.6456 -0.1976  0.4971
 2131SOL     OW 8568   3.585   2.747   3.439  0.0132  0.2814 -0.1019
 2131SOL    HW2 8569   3.672   2.777   3.467  0.5542 -0.6251 -0.7760
 2131SOL    HW3 8570   3.587   2.753   3.343  0.1166 -1.8022 -0.2540
 2131SOL    MW4 8571   3.597   2.751   3.430  0.0980 -0.1130 -0.2108
 2132SOL     OW 8572   3.838   2.815   3.524  0.1330 -0.3489 -0.5738
 2132SOL    HW2 8573   3.820   2.827   3.618 -0.4422 -1.6054 -0.5180
 2132SOL    HW3 8574   3.819   2.901   3.485  3.8907  1.2799  0.9501
 2132SOL    MW4 8575   3.833   2.828   3.531  0.5527 -0.2999 -0.3655
 2133SOL     OW 8576   3.783   3.062   3.371 -0.8495  0.5330 -0.3855
 2133SOL    HW2 8577   3.769   3.054   3.276 -1.6642  1.3105 -0.3298
 2133SOL    HW3 8578   3.865   3.109   3.379 -0.1372 -0.6260 -0.7035
 2133SOL    MW4 8579   3.792   3.067   3.359 -0.8631  0.4826 -0.4203
 2134SOL     OW 8580   3.583   3.196   3.503 -0.4232 -0.0894  0.4809
 2134SOL    HW2 8581   3.658   3.158   3.457 -2.8200 -2.3421 -1.7478
 2134SOL    HW3 8582   3.573   3.283   3.465 -1.7039 -1.5175 -2.6297
 2134SOL    MW4 8583   3.591   3.202   3.492 -0.9086 -0.5751 -0.2234
 2135SOL     OW 8584   3.567   3.455   3.405 -0.2645 -0.0271 -0.4429
 2135SOL    HW2 8585   3.489   3.508   3.422 -0.8522 -0.8818 -0.4255
 2135SOL    HW3 8586   3.563   3.437   3.311  1.6766  2.6610 -1.0730
 2135SOL    MW4 8587   3.556   3.459   3.395 -0.0858  0.2148 -0.5236
 2136SOL     OW 8588   3.786   3.619   3.549  0.2947 -0.0669  0.0274
 2136SOL    HW2 8589   3.784   3.599   3.643 -1.1221 -0.3852 -0.0590
 2136SOL    HW3 8590   3.696   3.602   3.519  0.6242  0.4813 -1.2928
 2136SOL    MW4 8591   3.774   3.614   3.558  0.1509 -0.0365 -0.1583
 2137SOL     OW 8592   3.791   3.840   3.377 -0.5330 -0.0797 -0.0387
 2137SOL    HW2 8593   3.723   3.895   3.416  0.0059 -0.4575  1.4944
 2137SOL    HW3 8594   3.790   3.760   3.430  0.0585 -0.7065 -0.9660
 2137SOL    MW4 8595   3.782   3.837   3.389 -0.3841 -0.2120  0.0412
 2138SOL     OW 8596   3.628   4.257   3.405  0.2779  0.6485  0.7143
 2138SOL    HW2 8597   3.553   4.307   3.436  0.2626  1.5215 -0.6854
 2138SOL    HW3 8598   3.624   4.264   3.310  1.4341 -0.3308  0.5761
 2138SOL    MW4 8599   3.618   4.265   3.397  0.4287  0.6342  0.5112
 2139SOL     OW 8600   3.873   4.362   3.468 -0.2082  0.1687 -0.3368
 2139SOL    HW2 8601   3.789   4.320   3.453 -0.8308  0.5488  1.9112
 2139SOL    HW3 8602   3.867   4.447   3.425 -1.3371  0.5982  0.6720
 2139SOL    MW4 8603   3.861   4.368   3.461 -0.4389  0.2751  0.0927
 2140SOL     OW 8604   0.049   4.236   4.143 -0.1856 -0.1727  0.1046
 2140SOL    HW2 8605   0.103   4.158   4.134  0.3741  0.2218  0.0374
 2140SOL    HW3 8606   0.076   4.294   4.072  0.7469  0.8694  1.2804
 2140SOL    MW4 8607   0.059   4.234   4.133  0.0113  0.0172  0.2508
 2141SOL     OW 8608   4.267   4.625   3.397  0.8318  0.2478  0.1328
 2141SOL    HW2 8609   4.193   4.680   3.425  0.8124  0.1345  0.3076
 2141SOL    HW3 8610   4.345   4.676   3.420  0.8793 -0.8516  2.5689
 2141SOL    MW4 8611   4.267   4.639   3.404  0.8349  0.0882  0.4771
 2142SOL     OW 8612   4.057   0.140   3.480 -0.2097  0.4582  0.1617
 2142SOL    HW2 8613   4.065   0.139   3.576 -0.3274 -0.7020  0.1744
 2142SOL    HW3 8614   3.980   0.086   3.463  0.7380 -0.6640 -0.6570
 2142SOL    MW4 8615   4.048   0.133   3.491 -0.1006  0.1570  0.0553
 2143SOL     OW 8616   4.044   0.390   3.362  0.3047  0.1354  0.3302
 2143SOL    HW2 8617   4.065   0.302   3.394 -0.0018  0.1656  0.6078
 2143SOL    HW3 8618   4.059   0.385   3.267  0.4347 -0.1731  0.3672
 2143SOL    MW4 8619   4.049   0.377   3.353  0.2813  0.0987  0.3717
 2144SOL     OW 8620   4.281   0.524   3.474 -0.2007 -0.0046  0.0950
 2144SOL    HW2 8621   4.286   0.609   3.432  1.2179 -0.8782 -1.5525
 2144SOL    HW3 8622   4.200   0.486   3.442 -1.3049  1.0606  1.5432
 2144SOL    MW4 8623   4.271   0.530   3.464 -0.1597  0.0206  0.0689
 2145SOL     OW 8624   4.270   0.773   3.329 -0.7040  0.6143 -0.2041
 2145SOL    HW2 8625   4.345   0.820   3.364  0.0554 -1.2449  0.7239
 2145SOL    HW3 8626   4.281   0.778   3.234  2.6898 -2.7667 -0.1377
 2145SOL    MW4 8627   4.281   0.780   3.321 -0.1559 -0.0771 -0.0730
 2146SOL     OW 8628   4.043   0.870   3.453 -0.1767 -0.1875  0.0255
 2146SOL    HW2 8629   4.035   0.959   3.419 -0.2313  0.4544  1.6753
 2146SOL    HW3 8630   4.116   0.832   3.404  0.2549  0.9710 -0.2472
 2146SOL    MW4 8631   4.051   0.877   3.442 -0.1268  0.0501  0.2072
 2147SOL     OW 8632   4.016   1.141   3.352 -0.2912  0.4202 -0.2277
 2147SOL    HW2 8633   4.104   1.168   3.378 -0.7359 -0.8995  2.8972
 2147SOL    HW3 8634   3.957   1.200   3.399 -1.1018  1.1246 -2.0884
 2147SOL    MW4 8635   4.020   1.152   3.362 -0.4568  0.3389 -0.0610
 2148SOL     OW 8636   4.242   1.268   3.454  0.1395 -0.0768 -0.1257
 2148SOL    HW2 8637   4.249   1.362   3.437  1.2081 -0.0791  0.2240
 2148SOL    HW3 8638   4.320   1.231   3.412  1.3357 -0.4264  2.3083
 2148SOL    MW4 8639   4.253   1.275   3.446  0.4387 -0.1233  0.2418
 2149SOL     OW 8640   4.294   1.549   3.421  0.3166 -0.3267 -0.6369
 2149SOL    HW2 8641   4.212   1.584   3.458  1.2277  0.5978  0.5319
 2149SOL    HW3 8642   4.283   1.560   3.326 -2.1242 -2.8853 -0.7237
 2149SOL    MW4 8643   4.281   1.555   3.413  0.1149 -0.5422 -0.4940
 2150SOL     OW 8644   4.049   1.649   3.503 -0.6159 -0.1456 -0.1944
 2150SOL    HW2 8645   4.013   1.664   3.590  0.9015 -1.3148  0.6673
 2150SOL    HW3 8646   4.050   1.735   3.461 -1.3282  0.4219  0.9558
 2150SOL    MW4 8647   4.045   1.662   3.509 -0.5097 -0.2249  0.0713
 2151SOL     OW 8648   4.060   1.897   3.398 -0.1210 -0.2356 -0.7150
 2151SOL    HW2 8649   4.145   1.935   3.421 -1.4545  2.2261  0.2144
 2151SOL    HW3 8650   4.051   1.913   3.304 -0.5026  1.4325 -0.4014
 2151SOL    MW4 8651   4.070   1.904   3.389 -0.3471  0.3092 -0.5512
 2152SOL     OW 8652   4.294   2.043   3.473  0.1659  0.0655 -0.2848
 2152SOL    HW2 8653   4.281   2.130   3.435 -0.0742 -0.0030 -0.3584
 2152SOL    HW3 8654   4.373   2.009   3.429  0.8164  0.6256  0.4313
 2152SOL    MW4 8655   4.303   2.050   3.462  0.2203  0.1304 -0.2000
 2153SOL     OW 8656   4.274   2.296   3.375 -0.3654 -0.4294 -0.2339
 2153SOL    HW2 8657   4.193   2.336   3.406 -0.0022 -0.6935  1.1159
 2153SOL    HW3 8658   4.271   2.304   3.280 -2.2194 -0.9220 -0.2235
 2153SOL    MW4 8659   4.263   2.302   3.367 -0.5617 -0.5295 -0.0544
 2154SOL     OW 8660   4.056   2.409   3.514 -0.1796  0.2551  0.2794
 2154SOL    HW2 8661   4.034   2.411   3.607  0.4951  0.2346  0.4446
 2154SOL    HW3 8662   4.040   2.498   3.483 -1.0343  0.1014  0.2595
 2154SOL    MW4 8663   4.051   2.421   3.522 -0.2031  0.2320  0.2987
 2155SOL     OW 8664   4.035   2.673   3.386  0.3369  0.1888 -0.1731
 2155SOL    HW2 8665   4.110   2.732   3.389 -0.4039  1.1666 -0.5064
 2155SOL    HW3 8666   3.965   2.720   3.432 -0.3212 -0.3305 -0.6302
 2155SOL    MW4 8667   4.036   2.687   3.392  0.1521  0.2489 -0.2773
 2156SOL     OW 8668   4.242   2.843   3.443 -0.0534  0.0378  0.6423
 2156SOL    HW2 8669   4.220   2.840   3.536 -1.3490  0.6310  0.3715
 2156SOL    HW3 8670   4.332   2.810   3.438 -0.1931 -0.5893  2.0268
 2156SOL    MW4 8671   4.251   2.838   3.455 -0.2427  0.0331  0.7894
 2157SOL     OW 8672   4.196   3.103   3.360  0.3859 -0.0568 -0.1626
 2157SOL    HW2 8673   4.208   3.011   3.382 -0.1608  0.1790  1.1752
 2157SOL    HW3 8674   4.211   3.108   3.266  2.6974 -1.1301  0.1289
 2157SOL    MW4 8675   4.200   3.092   3.350  0.6185 -0.1674  0.0522
 2158SOL     OW 8676   3.710   2.785   4.427  0.2035 -0.3098  0.2781
 2158SOL    HW2 8677   3.671   2.870   4.405  1.2025 -0.0445 -0.5007
 2158SOL    HW3 8678   3.689   2.729   4.352 -0.0807 -0.6316  0.5973
 2158SOL    MW4 8679   3.702   2.789   4.414  0.2978 -0.3173  0.2179
 2159SOL     OW 8680   4.231   3.559   3.463  0.0304 -0.5445 -0.2489
 2159SOL    HW2 8681   4.241   3.647   3.427 -1.4958 -0.5854 -0.8391
 2159SOL    HW3 8682   4.259   3.567   3.554 -0.7030  0.7170 -0.1159
 2159SOL    MW4 8683   4.236   3.572   3.470 -0.2675 -0.3831 -0.3092
 2160SOL     OW 8684   4.479   3.455   3.377  0.0864 -0.4014  0.3078
 2160SOL    HW2 8685   4.391   3.490   3.389  0.5734  0.8734  0.2440
 2160SOL    HW3 8686   4.486   3.438   3.283 -0.6025 -1.9342  0.5126
 2160SOL    MW4 8687   4.468   3.457   3.366  0.0596 -0.4356  0.3262
 2161SOL     OW 8688   4.263   3.807   3.366 -0.0330  0.2727 -0.1815
 2161SOL    HW2 8689   4.336   3.856   3.404  1.5383 -1.1899 -1.1927
 2161SOL    HW3 8690   4.253   3.844   3.278 -0.4436  0.4182 -0.0708
 2161SOL    MW4 8691   4.271   3.818   3.359  0.1202  0.0989 -0.3004
 2162SOL     OW 8692   4.051   3.970   3.448  0.5666 -0.1002  0.2882
 2162SOL    HW2 8693   4.132   3.918   3.440 -0.3647 -1.4647 -0.4493
 2162SOL    HW3 8694   3.981   3.907   3.433 -0.6501  1.0889  0.8901
 2162SOL    MW4 8695   4.053   3.955   3.445  0.2832 -0.1233  0.2701
 2163SOL     OW 8696   4.085   4.221   3.351 -0.0965  0.2240 -0.1152
 2163SOL    HW2 8697   4.079   4.137   3.395 -0.9693 -0.5445 -1.6698
 2163SOL    HW3 8698   4.018   4.275   3.394  1.1707  0.4883  1.5907
 2163SOL    MW4 8699   4.075   4.217   3.363 -0.0443  0.1578 -0.0954
 2164SOL     OW 8700   4.251   4.365   3.509  0.1221 -0.2105  0.2460
 2164SOL    HW2 8701   4.193   4.325   3.445  2.4626 -1.6326 -1.0640
 2164SOL    HW3 8702   4.264   4.454   3.477  1.1447 -0.8592 -1.2372
 2164SOL    MW4 8703   4.245   4.371   3.496  0.5660 -0.4840 -0.1225
 2165SOL     OW 8704   0.947   0.134   3.735  0.3934 -0.0971 -0.0424
 2165SOL    HW2 8705   0.864   0.090   3.753  1.0908 -1.3473  0.1833
 2165SOL    HW3 8706   0.937   0.221   3.774 -0.4978 -0.5215  0.7116
 2165SOL    MW4 8707   0.935   0.140   3.742  0.3678 -0.3181  0.0868
 2166SOL     OW 8708   1.331   4.257   3.887  0.4847 -0.5850  0.2530
 2166SOL    HW2 8709   1.419   4.295   3.881 -0.2324  0.9931 -0.5509
 2166SOL    HW3 8710   1.275   4.318   3.838 -1.4357 -0.4067  2.5587
 2166SOL    MW4 8711   1.335   4.270   3.880  0.1366 -0.3533  0.4511
 2167SOL     OW 8712   4.325   3.055   4.112  0.2864  0.1435  0.0526
 2167SOL    HW2 8713   4.414   3.086   4.097  0.5701 -0.6480  0.0485
 2167SOL    HW3 8714   4.287   3.046   4.025 -0.4797  2.4050  0.1389
 2167SOL    MW4 8715   4.331   3.058   4.099  0.2227  0.3371  0.0634
 2168SOL     OW 8716   0.227   0.546   3.773  0.3360 -0.3854  0.0835
 2168SOL    HW2 8717   0.230   0.642   3.779  1.2068 -0.3274 -1.1994
 2168SOL    HW3 8718   0.226   0.528   3.679 -2.8083 -1.5657  0.2771
 2168SOL    MW4 8719   0.227   0.556   3.762  0.0360 -0.5335 -0.0603
 2169SOL     OW 8720   0.897   4.281   3.875 -0.0816  0.0099 -0.2640
 2169SOL    HW2 8721   0.815   4.326   3.857  0.0214  0.7438  1.0242
 2169SOL    HW3 8722   0.884   4.192   3.842 -1.4637  0.0601  0.1431
 2169SOL    MW4 8723   0.885   4.275   3.868 -0.2503  0.1135 -0.0403
 2170SOL     OW 8724   1.809   3.052   4.194 -0.2881  0.0935 -0.1035
 2170SOL    HW2 8725   1.834   3.128   4.140  0.1507  1.0564  1.4373
 2170SOL    HW3 8726   1.715   3.060   4.205 -0.2604  0.3371 -0.0494
 2170SOL    MW4 8727   1.800   3.063   4.188 -0.2265  0.2525  0.1068
 2171SOL     OW 8728   2.767   1.205   4.273  0.4140  0.1514 -0.4359
 2171SOL    HW2 8729   2.685   1.208   4.222 -0.4012  0.3650  0.8772
 2171SOL    HW3 8730   2.778   1.113   4.294 -0.4983  0.3611  0.9974
 2171SOL    MW4 8731   2.757   1.193   4.269  0.1860  0.2072 -0.0744
 2172SOL     OW 8732   3.531   0.898   4.600  0.2112  0.0380 -0.0344
 2172SOL    HW2 8733   3.486   0.826   4.555 -0.7443 -0.1383  1.1762
 2172SOL    HW3 8734   3.469   0.971   4.596  0.8959  0.5991 -0.6528
 2172SOL    MW4 8735   3.517   0.898   4.593  0.1752  0.0888  0.0434
 2173SOL     OW 8736   0.303   1.278   3.745  0.0766 -0.5659  0.0580
 2173SOL    HW2 8737   0.288   1.370   3.763  0.0155 -0.4316 -0.6883
 2173SOL    HW3 8738   0.298   1.270   3.650  1.6006 -1.0702 -0.0030
 2173SOL    MW4 8739   0.300   1.289   3.735  0.2697 -0.6146 -0.0486
 2174SOL     OW 8740   2.893   4.593   4.064  0.3712 -0.4614  0.0739
 2174SOL    HW2 8741   2.918   4.624   3.977  0.7262  0.6820  0.5765
 2174SOL    HW3 8742   2.840   4.664   4.101  0.3782 -0.8587  0.8560
 2174SOL    MW4 8743   2.890   4.607   4.057  0.4189 -0.3629  0.2432
 2175SOL     OW 8744   3.046   2.640   4.589 -0.2916 -0.0354 -0.0657
 2175SOL    HW2 8745   3.037   2.551   4.557 -0.3408 -0.0328 -0.0591
 2175SOL    HW3 8746   3.131   2.670   4.556 -0.2517 -0.1030 -0.0227
 2175SOL    MW4 8747   3.056   2.632   4.581 -0.2928 -0.0439 -0.0596
 2176SOL     OW 8748   0.270   2.030   3.734  0.2545 -0.0296  0.3111
 2176SOL    HW2 8749   0.269   2.119   3.769 -1.4286 -0.1607  0.6427
 2176SOL    HW3 8750   0.332   1.983   3.790 -0.1120  0.5206  1.1914
 2176SOL    MW4 8751   0.278   2.036   3.746 -0.0159  0.0255  0.4711
 2177SOL     OW 8752   0.668   2.134   3.685 -0.3122 -0.1678 -0.3826
 2177SOL    HW2 8753   0.735   2.170   3.743 -1.3160 -0.4285  0.9553
 2177SOL    HW3 8754   0.593   2.193   3.695 -0.1100  0.4817 -2.3413
 2177SOL    MW4 8755   0.667   2.147   3.694 -0.4179 -0.1168 -0.4644
 2178SOL     OW 8756   0.856   3.495   3.770  0.2759 -0.4783  0.2440
 2178SOL    HW2 8757   0.774   3.544   3.772  0.0377 -0.8847  0.3124
 2178SOL    HW3 8758   0.881   3.486   3.862  0.9071  0.5022  0.1819
 2178SOL    MW4 8759   0.849   3.501   3.783  0.3278 -0.4027  0.2449
 2179SOL     OW 8760   2.297   0.900   3.772  0.2532  0.0645 -0.3664
 2179SOL    HW2 8761   2.284   0.897   3.677  0.1080 -0.5618 -0.3311
 2179SOL    HW3 8762   2.364   0.834   3.789  0.4595  0.3509 -0.0613
 2179SOL    MW4 8763   2.304   0.891   3.762  0.2615  0.0196 -0.3216
 2180SOL     OW 8764   2.139   2.325   4.349 -0.3815 -0.1085 -0.3086
 2180SOL    HW2 8765   2.136   2.327   4.253  0.1162  0.0307 -0.3218
 2180SOL    HW3 8766   2.225   2.360   4.371 -1.2788  1.8015  0.2575
 2180SOL    MW4 8767   2.150   2.330   4.339 -0.4342  0.1619 -0.2356
 2181SOL     OW 8768   1.537   1.836   3.689 -0.4352  0.3376 -0.0813
 2181SOL    HW2 8769   1.552   1.920   3.732 -0.7307 -0.3315  1.3755
 2181SOL    HW3 8770   1.484   1.786   3.752  0.0542 -1.0760 -0.7615
 2181SOL    MW4 8771   1.532   1.840   3.703 -0.4096  0.0627  0.0212
 2182SOL     OW 8772   3.297   2.683   4.475 -0.2673 -0.3032 -0.0463
 2182SOL    HW2 8773   3.343   2.754   4.520 -0.0835 -0.9946  0.8810
 2182SOL    HW3 8774   3.304   2.705   4.382 -1.1822  1.4603  0.2922
 2182SOL    MW4 8775   3.304   2.695   4.468 -0.3638 -0.1616  0.1211
 2183SOL     OW 8776   2.605   3.474   4.509  0.1345  0.1889 -0.1337
 2183SOL    HW2 8777   2.528   3.438   4.465  0.0200 -0.0057  0.2287
 2183SOL    HW3 8778   2.646   3.530   4.442 -0.6583  0.7876 -0.1368
 2183SOL    MW4 8779   2.600   3.477   4.494  0.0148  0.2425 -0.0863
 2184SOL     OW 8780   3.742   1.644   4.456 -0.4527 -0.2243  0.5514
 2184SOL    HW2 8781   3.795   1.618   4.531 -0.2855  0.2540  0.5976
 2184SOL    HW3 8782   3.746   1.568   4.397 -1.1124 -0.8505  1.3088
 2184SOL    MW4 8783   3.750   1.631   4.458 -0.5176 -0.2438  0.6571
 2185SOL     OW 8784   3.150   0.877   3.715 -0.2137  0.6479  0.1901
 2185SOL    HW2 8785   3.071   0.847   3.760 -0.2945  0.9826  0.2741
 2185SOL    HW3 8786   3.157   0.969   3.738  0.3667  0.5497  0.4145
 2185SOL    MW4 8787   3.140   0.885   3.724 -0.1481  0.6791  0.2308
 2186SOL     OW 8788   3.593   3.984   3.499  0.2090  0.0063  0.0881
 2186SOL    HW2 8789   3.606   3.967   3.592 -1.2161  1.3578  0.5610
 2186SOL    HW3 8790   3.619   4.076   3.488  0.9040 -0.3043 -0.9714
 2186SOL    MW4 8791   3.598   3.994   3.510  0.1130  0.1438  0.0110
 2187SOL     OW 8792   0.928   1.123   3.816  0.1322  0.5349 -0.0011
 2187SOL    HW2 8793   1.010   1.171   3.809  0.4073 -0.0555 -0.7846
 2187SOL    HW3 8794   0.864   1.180   3.774  0.2617  0.6768 -0.0078
 2187SOL    MW4 8795   0.930   1.137   3.810  0.1856  0.4756 -0.1051
 2188SOL     OW 8796   4.265   0.758   4.124  0.3452 -0.3288 -0.3370
 2188SOL    HW2 8797   4.257   0.846   4.160  0.8327 -0.0716 -0.8396
 2188SOL    HW3 8798   4.336   0.718   4.175  0.3954 -0.2885 -0.3744
 2188SOL    MW4 8799   4.273   0.764   4.136  0.4158 -0.2896 -0.4086
 2189SOL     OW 8800   3.410   4.609   4.146  0.4339 -0.1586  0.6115
 2189SOL    HW2 8801   3.417   4.695   4.188  0.2824  0.0157  0.2865
 2189SOL    HW3 8802   3.384   4.629   4.056 -1.4366 -0.6483  1.0273
 2189SOL    MW4 8803   3.408   4.623   4.140  0.1669 -0.1993  0.6237
 2190SOL     OW 8804   0.658   4.395   3.801  0.2051 -0.3364  0.1850
 2190SOL    HW2 8805   0.660   4.490   3.806 -0.8950 -0.3063  0.1549
 2190SOL    HW3 8806   0.663   4.376   3.708  0.1460 -0.3079  0.1766
 2190SOL    MW4 8807   0.659   4.405   3.790  0.0522 -0.3285  0.1802
 2191SOL     OW 8808   4.447   3.432   4.115  0.0132  0.2056 -0.4115
 2191SOL    HW2 8809   4.489   3.368   4.172 -3.1655 -1.2123  0.4535
 2191SOL    HW3 8810   4.466   3.517   4.156  0.5201 -0.5414  0.9304
 2191SOL    MW4 8811   4.455   3.435   4.128 -0.3395 -0.0801 -0.1202
 2192SOL     OW 8812   3.362   3.876   3.841 -0.1016 -0.1308 -0.7972
 2192SOL    HW2 8813   3.344   3.788   3.808 -0.0802 -0.1710 -0.7010
 2192SOL    HW3 8814   3.355   3.868   3.936  1.6028 -0.3985 -0.6902
 2192SOL    MW4 8815   3.359   3.864   3.849  0.1264 -0.1714 -0.7703
 2193SOL     OW 8816   3.113   4.532   4.252  0.5115  0.1995 -0.4849
 2193SOL    HW2 8817   3.068   4.564   4.174  0.5829  2.0345  0.2102
 2193SOL    HW3 8818   3.206   4.537   4.230  0.5127  0.1935 -0.4818
 2193SOL    MW4 8819   3.119   4.537   4.239  0.5212  0.4416 -0.3929
 2194SOL     OW 8820   3.837   2.087   4.444 -0.4822 -0.3911  0.1707
 2194SOL    HW2 8821   3.748   2.120   4.456 -0.0789  0.7646  0.0028
 2194SOL    HW3 8822   3.827   2.015   4.381 -1.4486 -1.0387  1.0371
 2194SOL    MW4 8823   3.824   2.082   4.437 -0.5565 -0.3242  0.2627
 2195SOL     OW 8824   1.139   3.171   4.105  0.1212  0.0515 -0.2445
 2195SOL    HW2 8825   1.059   3.189   4.154 -0.9341 -1.3545 -1.3953
 2195SOL    HW3 8826   1.170   3.088   4.141  0.6477  0.2169 -0.3170
 2195SOL    MW4 8827   1.133   3.162   4.116  0.0515 -0.1123 -0.4058
 2196SOL     OW 8828   0.483   4.053   4.754  0.3181  0.7961 -0.2277
 2196SOL    HW2 8829   0.415   4.120   4.765  0.5337  0.9892 -0.0562
 2196SOL    HW3 8830   0.564   4.098   4.777  0.3703  0.2595  0.6445
 2196SOL    MW4 8831   0.485   4.068   4.759  0.3535  0.7505 -0.0901
 2197SOL     OW 8832   0.285   1.587   4.147 -0.3741  0.3493 -0.0494
 2197SOL    HW2 8833   0.368   1.543   4.166 -0.7643  0.3158  1.6325
 2197SOL    HW3 8834   0.265   1.563   4.056  1.3523  0.1994 -0.4018
 2197SOL    MW4 8835   0.293   1.578   4.138 -0.1979  0.3250  0.1264
 2198SOL     OW 8836   3.966   1.666   3.766 -0.5070 -0.1497  0.0788
 2198SOL    HW2 8837   3.975   1.757   3.796 -0.6266 -0.1151  0.0076
 2198SOL    HW3 8838   3.905   1.626   3.827  0.3921 -0.4839  0.7786
 2198SOL    MW4 8839   3.959   1.673   3.778 -0.4044 -0.1892  0.1619
 2199SOL     OW 8840   1.160   0.045   4.510 -0.4074  0.3126  0.2349
 2199SOL    HW2 8841   1.197  -0.032   4.553 -0.4858 -0.1094 -0.4457
 2199SOL    HW3 8842   1.236   0.092   4.477 -0.3330  0.7450  1.0010
 2199SOL    MW4 8843   1.175   0.041   4.512 -0.4079  0.3139  0.2465
 2200SOL     OW 8844   1.655   1.840   4.262  0.2224  0.3352  0.0040
 2200SOL    HW2 8845   1.680   1.887   4.342 -0.4287 -0.4574  0.6762
 2200SOL    HW3 8846   1.700   1.888   4.191  0.7050  1.1093  0.8237
 2200SOL    MW4 8847   1.665   1.853   4.263  0.2003  0.3327  0.2007
 2201SOL     OW 8848   1.358   1.126   3.866 -0.2285 -0.0200 -0.1334
 2201SOL    HW2 8849   1.338   1.122   3.959 -0.5681 -1.6281 -0.2543
 2201SOL    HW3 8850   1.453   1.139   3.862 -0.2637  0.3994  0.4320
 2201SOL    MW4 8851   1.368   1.127   3.878 -0.2780 -0.1769 -0.0749
 2202SOL     OW 8852   1.740   1.344   3.687 -0.4888 -0.4755  0.1190
 2202SOL    HW2 8853   1.702   1.405   3.750 -0.6234  0.9986 -1.3798
 2202SOL    HW3 8854   1.833   1.343   3.708 -0.4269  0.5382 -0.1076
 2202SOL    MW4 8855   1.747   1.352   3.698 -0.4984 -0.1472 -0.1087
 2203SOL     OW 8856   3.062   1.760   4.357 -0.1567 -0.1064  0.4543
 2203SOL    HW2 8857   3.056   1.790   4.266  0.5563 -1.6747 -0.1350
 2203SOL    HW3 8858   3.156   1.752   4.373 -0.3040 -1.1949  0.8486
 2203SOL    MW4 8859   3.074   1.763   4.347 -0.0820 -0.4569  0.4287
 2204SOL     OW 8860   0.347   2.809   3.792 -0.1212 -0.3963  0.1619
 2204SOL    HW2 8861   0.320   2.799   3.701  0.7769  0.4976 -0.2082
 2204SOL    HW3 8862   0.443   2.808   3.788 -0.0778 -1.2039  1.1947
 2204SOL    MW4 8863   0.356   2.807   3.779  0.0030 -0.3848  0.2494
 2205SOL     OW 8864   0.430   4.329   4.398  0.5774 -0.2254  0.0605
 2205SOL    HW2 8865   0.458   4.412   4.359 -0.1938  0.4444  0.9191
 2205SOL    HW3 8866   0.414   4.350   4.490 -0.5327 -1.1172  0.0786
 2205SOL    MW4 8867   0.432   4.343   4.405  0.3292 -0.2546  0.1764
 2206SOL     OW 8868   1.942   0.134   4.398  0.1456 -0.2291  0.6644
 2206SOL    HW2 8869   1.986   0.168   4.321 -0.6912 -1.3482 -0.3254
 2206SOL    HW3 8870   1.888   0.206   4.430  2.0309  0.8840  1.3981
 2206SOL    MW4 8871   1.941   0.148   4.392  0.2840 -0.2299  0.6309
 2207SOL     OW 8872   1.723   3.248   4.554  0.1722  0.0230  0.0512
 2207SOL    HW2 8873   1.813   3.217   4.544  0.3634 -0.1024  1.9854
 2207SOL    HW3 8874   1.729   3.342   4.541  0.6303  0.0496  0.4378
 2207SOL    MW4 8875   1.736   3.256   4.551  0.2578  0.0103  0.3576
 2208SOL     OW 8876   0.848   4.030   3.766 -0.0949  0.5868 -0.1660
 2208SOL    HW2 8877   0.781   3.974   3.805 -0.7866 -0.4717 -2.7428
 2208SOL    HW3 8878   0.929   4.004   3.809 -0.7415 -0.8832  0.2020
 2208SOL    MW4 8879   0.850   4.019   3.777 -0.2714  0.2532 -0.4578
 2209SOL     OW 8880   0.166   0.251   4.468  0.4531  0.3721 -0.5539
 2209SOL    HW2 8881   0.076   0.271   4.492  0.6267  1.2505 -0.6204
 2209SOL    HW3 8882   0.184   0.167   4.510 -0.2306  0.4318 -0.1311
 2209SOL    MW4 8883   0.157   0.243   4.476  0.3858  0.4959 -0.5074
 2210SOL     OW 8884   0.651   3.859   3.844  0.5616  0.0372  0.2038
 2210SOL    HW2 8885   0.648   3.774   3.801 -1.7822 -1.3265  2.8594
 2210SOL    HW3 8886   0.570   3.903   3.816  1.1050  0.8639 -0.0935
 2210SOL    MW4 8887   0.640   3.854   3.835  0.3240 -0.0339  0.5147
 2211SOL     OW 8888   1.287   2.008   3.661  0.3460 -0.0838 -0.2786
 2211SOL    HW2 8889   1.304   2.031   3.752 -0.4103  0.3689 -0.2477
 2211SOL    HW3 8890   1.353   1.941   3.641 -0.0944 -0.8890  0.8861
 2211SOL    MW4 8891   1.298   2.002   3.670  0.1881 -0.1302 -0.1209
 2212SOL     OW 8892   4.000   3.179   3.765  0.0563 -0.3149  0.1115
 2212SOL    HW2 8893   4.090   3.148   3.770  0.5658  0.8699 -1.4778
 2212SOL    HW3 8894   3.988   3.205   3.674 -1.0711  1.9370  0.8697
 2212SOL    MW4 8895   4.010   3.179   3.754 -0.0248  0.1385  0.0019
 2213SOL     OW 8896   4.169   3.371   4.516  0.2990  0.0934  0.0926
 2213SOL    HW2 8897   4.254   3.367   4.559 -0.0693  0.3641  0.8468
 2213SOL    HW3 8898   4.188   3.353   4.424  1.4322  2.0969 -0.0974
 2213SOL    MW4 8899   4.183   3.368   4.510  0.3996  0.3934  0.1664
 2214SOL     OW 8900   1.711   4.074   4.229 -0.3539 -0.5468 -0.4098
 2214SOL    HW2 8901   1.638   4.136   4.241 -0.5337 -1.1358  1.7379
 2214SOL    HW3 8902   1.679   4.011   4.164 -1.3202 -0.1528 -0.3229
 2214SOL    MW4 8903   1.697   4.074   4.222 -0.5052 -0.5727 -0.1149
 2215SOL     OW 8904   1.450   3.731   4.229  0.1793 -0.2379  0.2822
 2215SOL    HW2 8905   1.366   3.685   4.230  0.2392 -0.3777 -0.7383
 2215SOL    HW3 8906   1.450   3.782   4.310 -0.7430 -0.4973  0.4541
 2215SOL    MW4 8907   1.439   3.731   4.240  0.0654 -0.2904  0.1698
 2216SOL     OW 8908   1.606   0.554   3.694  0.3234 -0.1309  0.4509
 2216SOL    HW2 8909   1.533   0.513   3.739 -0.2018 -0.3144 -0.5597
 2216SOL    HW3 8910   1.610   0.643   3.730 -0.4363 -0.1001  0.4633
 2216SOL    MW4 8911   1.597   0.561   3.704  0.1538 -0.1510  0.3192
 2217SOL     OW 8912   0.915   1.880   4.555  0.1199 -0.0235  0.1612
 2217SOL    HW2 8913   1.006   1.909   4.567 -0.1290  0.8571 -0.0532
 2217SOL    HW3 8914   0.916   1.832   4.472  0.5575 -0.7343  0.5734
 2217SOL    MW4 8915   0.927   1.877   4.546  0.1448 -0.0011  0.1874
 2218SOL     OW 8916   2.223   1.103   4.498 -0.2292 -0.4223 -0.1767
 2218SOL    HW2 8917   2.288   1.099   4.568  1.7568 -0.0362 -1.9617
 2218SOL    HW3 8918   2.159   1.167   4.529  0.4232 -0.5122  1.4310
 2218SOL    MW4 8919   2.223   1.111   4.511  0.1190 -0.3833 -0.2003
 2219SOL     OW 8920   0.091   4.280   3.751  0.4613  0.0312  0.1290
 2219SOL    HW2 8921   0.129   4.324   3.826  1.3415  2.4869 -1.7144
 2219SOL    HW3 8922  -0.003   4.298   3.757  0.7052  1.3809 -0.1142
 2219SOL    MW4 8923   0.083   4.288   3.761  0.6096  0.5336 -0.1466
 2220SOL     OW 8924   2.212   1.150   3.829  0.4155 -0.1907  0.0990
 2220SOL    HW2 8925   2.229   1.059   3.806  1.2049  0.0837 -0.4078
 2220SOL    HW3 8926   2.224   1.154   3.924 -1.1015 -0.9364  0.3347
 2220SOL    MW4 8927   2.216   1.139   3.838  0.3197 -0.2531  0.0634
 2221SOL     OW 8928   3.022   3.023   4.353  0.0344 -0.2928 -0.3808
 2221SOL    HW2 8929   3.006   3.085   4.425 -0.6456 -0.1041 -0.6862
 2221SOL    HW3 8930   2.977   2.943   4.380  0.3353 -0.4311 -0.2952
 2221SOL    MW4 8931   3.014   3.021   4.366 -0.0155 -0.2861 -0.4096
 2222SOL     OW 8932   0.661   4.206   4.479  0.5046  0.2627 -0.1052
 2222SOL    HW2 8933   0.578   4.242   4.447  1.1557  0.9443 -1.0499
 2222SOL    HW3 8934   0.649   4.111   4.474  0.0654  0.3577 -1.0134
 2222SOL    MW4 8935   0.649   4.199   4.474  0.5325  0.3653 -0.3495
 2223SOL     OW 8936   1.963   3.072   4.421  0.3767  0.2748  0.4044
 2223SOL    HW2 8937   2.041   3.018   4.406 -0.4929 -1.2198  1.1226
 2223SOL    HW3 8938   1.914   3.066   4.339  0.6823  0.6339  0.1976
 2223SOL    MW4 8939   1.967   3.064   4.408  0.3024  0.1247  0.4716
 2224SOL     OW 8940   1.534   3.103   3.870  0.6667 -0.0099 -0.3914
 2224SOL    HW2 8941   1.534   3.105   3.966  1.0790  2.3520 -0.4262
 2224SOL    HW3 8942   1.504   3.015   3.848  2.0046 -1.0903  1.9211
 2224SOL    MW4 8943   1.530   3.092   3.880  0.8975  0.1593 -0.0911
 2225SOL     OW 8944   1.882   2.427   4.325  0.7102  0.0098 -0.4672
 2225SOL    HW2 8945   1.889   2.522   4.336  0.8017 -0.0540  0.0305
 2225SOL    HW3 8946   1.966   2.393   4.356  0.6425 -0.2415 -0.5623
 2225SOL    MW4 8947   1.894   2.435   4.330  0.7132 -0.0317 -0.4139
 2226SOL     OW 8948   0.689   2.561   3.810  0.0185  0.1626  0.4485
 2226SOL    HW2 8949   0.616   2.510   3.775  0.2473  0.5625 -0.6334
 2226SOL    HW3 8950   0.689   2.542   3.904 -1.9777  0.7878  0.6076
 2226SOL    MW4 8951   0.679   2.552   3.818 -0.2148  0.2980  0.3266
 2227SOL     OW 8952   0.275   3.082   3.729 -0.1111 -0.1172 -0.0516
 2227SOL    HW2 8953   0.180   3.090   3.731 -0.2574 -0.6591 -3.1121
 2227SOL    HW3 8954   0.292   2.991   3.753 -0.4406 -0.3373 -0.6443
 2227SOL    MW4 8955   0.265   3.071   3.733 -0.1738 -0.2177 -0.5338
 2228SOL     OW 8956   3.751   3.419   4.505  0.6572 -0.1838  0.5777
 2228SOL    HW2 8957   3.773   3.504   4.543  2.2670 -0.3733  0.0991
 2228SOL    HW3 8958   3.776   3.427   4.413  0.3817 -1.0289  0.4291
 2228SOL    MW4 8959   3.757   3.432   4.498  0.8333 -0.3202  0.4950
 2229SOL     OW 8960   1.351   3.530   3.345 -0.3777  0.2400 -0.2470
 2229SOL    HW2 8961   1.281   3.580   3.387 -0.1376  1.2534 -1.0427
 2229SOL    HW3 8962   1.345   3.443   3.385 -1.2209  0.7034  0.6684
 2229SOL    MW4 8963   1.341   3.525   3.356 -0.4572  0.4349 -0.2310
 2230SOL     OW 8964   0.524   1.465   4.248 -0.5156 -0.2776 -0.3587
 2230SOL    HW2 8965   0.572   1.497   4.324 -0.0760 -0.6954 -0.4613
 2230SOL    HW3 8966   0.473   1.390   4.280  0.2450 -0.9193 -0.6413
 2230SOL    MW4 8967   0.523   1.459   4.262 -0.3572 -0.4174 -0.4096
 2231SOL     OW 8968   0.632   3.646   3.456  0.0631  0.0339  0.5199
 2231SOL    HW2 8969   0.572   3.581   3.417 -0.5730  0.6540  0.4590
 2231SOL    HW3 8970   0.719   3.612   3.436 -0.2617 -0.7275  0.3498
 2231SOL    MW4 8971   0.635   3.633   3.448 -0.0636  0.0150  0.4892
 2232SOL     OW 8972   2.749   4.350   4.046 -0.2778 -0.4202 -0.0803
 2232SOL    HW2 8973   2.755   4.296   4.125 -2.2808  0.5076  0.7614
 2232SOL    HW3 8974   2.796   4.430   4.069 -0.4649 -0.3371  0.0187
 2232SOL    MW4 8975   2.756   4.354   4.060 -0.5667 -0.2866  0.0439
 2233SOL     OW 8976   0.213   0.634   4.647  0.1113  0.1685 -0.6473
 2233SOL    HW2 8977   0.125   0.600   4.629  0.1800  0.6939 -2.1033
 2233SOL    HW3 8978   0.212   0.722   4.610  0.6893  0.8661  0.9601
 2233SOL    MW4 8979   0.201   0.641   4.639  0.1967  0.3297 -0.6270
 2234SOL     OW 8980   1.145   2.712   4.398 -0.1470 -0.0605 -0.1639
 2234SOL    HW2 8981   1.073   2.766   4.365 -0.8497 -1.5695 -1.1474
 2234SOL    HW3 8982   1.119   2.689   4.487 -0.2312  0.5557 -0.0314
 2234SOL    MW4 8983   1.132   2.716   4.405 -0.2511 -0.1783 -0.2766
 2235SOL     OW 8984   4.358   2.843   4.313  0.1172 -0.0965  0.5407
 2235SOL    HW2 8985   4.357   2.901   4.237  1.2777 -0.7491  0.0167
 2235SOL    HW3 8986   4.321   2.896   4.384  0.5304  1.0572 -0.0983
 2235SOL    MW4 8987   4.353   2.858   4.313  0.3252 -0.0303  0.3872
 2236SOL     OW 8988   1.140   4.429   3.755  0.0746  0.3415 -0.5531
 2236SOL    HW2 8989   1.131   4.421   3.660 -0.1912  2.5402 -0.7404
 2236SOL    HW3 8990   1.055   4.403   3.789  0.5237 -1.5611 -0.8179
 2236SOL    MW4 8991   1.128   4.425   3.747  0.0987  0.3805 -0.6130
 2237SOL     OW 8992   2.580   2.214   4.565 -0.2563 -0.2597  0.1404
 2237SOL    HW2 8993   2.618   2.155   4.631 -0.2288 -0.6738 -0.2397
 2237SOL    HW3 8994   2.556   2.156   4.492  1.8182  0.4795 -1.1729
 2237SOL    MW4 8995   2.582   2.198   4.564  0.0210 -0.2167 -0.0830
 2238SOL     OW 8996   0.855   1.926   4.195 -0.1145 -0.0208  0.1235
 2238SOL    HW2 8997   0.764   1.947   4.174 -0.9611 -2.8689  0.6070
 2238SOL    HW3 8998   0.894   1.902   4.111 -0.2328 -0.2291  0.1269
 2238SOL    MW4 8999   0.848   1.925   4.181 -0.2419 -0.4240  0.1879
 2239SOL     OW 9000   1.253   0.439   4.324 -0.5578 -0.1642  0.2752
 2239SOL    HW2 9001   1.282   0.530   4.323 -2.0329  0.3260 -0.2083
 2239SOL    HW3 9002   1.173   0.439   4.378  0.1691 -1.4222  1.4075
 2239SOL    MW4 9003   1.246   0.451   4.331 -0.6565 -0.2655  0.3614
 2240SOL     OW 9004   0.856   4.536   4.216  0.3987  0.4100 -0.2477
 2240SOL    HW2 9005   0.855   4.505   4.307 -1.1715  0.2321 -0.3121
 2240SOL    HW3 9006   0.879   4.459   4.165  0.8691  0.4113 -0.0431
 2240SOL    MW4 9007   0.859   4.522   4.222  0.2536  0.3867 -0.2294
 2241SOL     OW 9008   1.610   4.105   4.625 -0.1390 -0.3087  0.2883
 2241SOL    HW2 9009   1.618   4.102   4.721 -1.2799  0.1030  0.3943
 2241SOL    HW3 9010   1.657   4.184   4.599 -0.6107  0.0641  0.5822
 2241SOL    MW4 9011   1.618   4.115   4.634 -0.3518 -0.2055  0.3414
 2242SOL     OW 9012   0.592   1.980   4.100 -0.6140 -1.1077  0.3888
 2242SOL    HW2 9013   0.586   2.072   4.127 -1.8398 -0.9398 -0.3882
 2242SOL    HW3 9014   0.558   1.931   4.174 -0.5194 -0.8919  0.5770
 2242SOL    MW4 9015   0.587   1.986   4.113 -0.7632 -1.0570  0.3109
 2243SOL     OW 9016   0.961   1.668   3.778  0.1032 -0.2322 -0.6968
 2243SOL    HW2 9017   0.952   1.671   3.682 -1.2180  2.2661 -0.5472
 2243SOL    HW3 9018   0.884   1.619   3.807 -0.1192  0.0229 -0.8518
 2243SOL    MW4 9019   0.949   1.662   3.769 -0.1004  0.1310 -0.6974
 2244SOL     OW 9020   2.562   4.165   4.459 -0.2261  0.2147 -0.1398
 2244SOL    HW2 9021   2.613   4.115   4.523 -1.8999 -0.2876  0.8337
 2244SOL    HW3 9022   2.581   4.256   4.480  1.9265  0.0283 -1.1662
 2244SOL    MW4 9023   2.572   4.170   4.471 -0.1628  0.1240 -0.1464
 2245SOL     OW 9024   2.560   0.264   4.505 -0.2324 -0.5619 -0.2521
 2245SOL    HW2 9025   2.474   0.228   4.525 -0.9617  0.7990 -0.8291
 2245SOL    HW3 9026   2.547   0.313   4.424  0.7913  0.6710  0.3075
 2245SOL    MW4 9027   2.547   0.266   4.497 -0.1936 -0.2196 -0.2546
 2246SOL     OW 9028   1.667   2.750   4.386 -0.3839 -0.0795  0.4115
 2246SOL    HW2 9029   1.646   2.737   4.293  1.5528  0.9835 -0.1947
 2246SOL    HW3 9030   1.762   2.749   4.389 -0.4410 -0.9420  2.5290
 2246SOL    MW4 9031   1.677   2.748   4.374 -0.1359 -0.0532  0.6108
 2247SOL     OW 9032   1.566   4.622   3.705  0.3593  0.6464 -0.3624
 2247SOL    HW2 9033   1.635   4.683   3.734  0.9925  0.0270 -0.5444
 2247SOL    HW3 9034   1.610   4.565   3.642  0.0069 -0.5942  0.4978
 2247SOL    MW4 9035   1.581   4.623   3.700  0.3963  0.4001 -0.2728
 2248SOL     OW 9036   0.936   2.158   4.383 -0.0902  0.3146 -0.7418
 2248SOL    HW2 9037   0.907   2.087   4.326  0.3002  1.1064 -1.9511
 2248SOL    HW3 9038   1.031   2.148   4.388  0.1287  1.5066 -2.0010
 2248SOL    MW4 9039   0.945   2.147   4.376 -0.0098  0.5763 -1.0681
 2249SOL     OW 9040   3.748   2.361   3.871 -0.3621 -0.4510  0.2032
 2249SOL    HW2 9041   3.688   2.426   3.834 -0.0774  0.5484  1.4929
 2249SOL    HW3 9042   3.835   2.393   3.849 -0.2305 -0.5639  0.5655
 2249SOL    MW4 9043   3.752   2.374   3.863 -0.3071 -0.3343  0.4213
 2250SOL     OW 9044   2.324   4.245   4.065 -0.1881 -0.0660  0.2380
 2250SOL    HW2 9045   2.392   4.313   4.065 -1.2012  0.9707 -0.1244
 2250SOL    HW3 9046   2.370   4.165   4.041  0.8208  0.7202 -0.5058
 2250SOL    MW4 9047   2.339   4.243   4.062 -0.1888  0.1740  0.0920
 2251SOL     OW 9048   1.809   1.933   3.312  0.3050  0.1139 -0.4236
 2251SOL    HW2 9049   1.890   1.973   3.343  0.6890 -1.4706  0.6715
 2251SOL    HW3 9050   1.816   1.936   3.216  0.8533  1.5737 -0.3469
 2251SOL    MW4 9051   1.821   1.939   3.303  0.4280  0.0975 -0.2689
 2252SOL     OW 9052   0.544   1.834   4.360 -0.0113 -0.2869  0.5413
 2252SOL    HW2 9053   0.460   1.799   4.390  0.0299 -1.4499 -0.6495
 2252SOL    HW3 9054   0.608   1.764   4.380  0.3719 -0.1517 -0.1883
 2252SOL    MW4 9055   0.542   1.820   4.367  0.0447 -0.4225  0.2880
 2253SOL     OW 9056   3.473   0.445   4.646 -0.2156 -0.4380  0.0892
 2253SOL    HW2 9057   3.432   0.437   4.732  0.8159 -1.5912  0.4974
 2253SOL    HW3 9058   3.472   0.356   4.611  1.3597 -0.3825 -0.1385
 2253SOL    MW4 9059   3.468   0.432   4.653  0.1285 -0.5828  0.1135
 2254SOL     OW 9060   1.079   3.910   3.877 -0.0767 -0.5477  0.1374
 2254SOL    HW2 9061   1.072   3.821   3.841  0.9406 -1.3078  1.7352
 2254SOL    HW3 9062   1.150   3.950   3.828  0.1063 -0.9566  0.0660
 2254SOL    MW4 9063   1.088   3.903   3.866  0.0817 -0.7019  0.3390
 2255SOL     OW 9064   1.448   0.096   4.125  0.1654  0.1775 -0.0210
 2255SOL    HW2 9065   1.374   0.042   4.096 -0.4015  0.6154  0.5894
 2255SOL    HW3 9066   1.440   0.098   4.221  0.2858  1.1766 -0.0215
 2255SOL    MW4 9067   1.437   0.089   4.134  0.1066  0.3671  0.0596
 2256SOL     OW 9068   2.694   1.771   4.042 -0.2173  0.5274  0.3002
 2256SOL    HW2 9069   2.789   1.777   4.050 -0.1751  1.0403 -0.5092
 2256SOL    HW3 9070   2.662   1.776   4.132  0.4759  1.2487  0.5151
 2256SOL    MW4 9071   2.702   1.772   4.055 -0.1204  0.6901  0.2213
 2257SOL     OW 9072   1.521   3.624   3.698  0.0246  0.4999 -0.0930
 2257SOL    HW2 9073   1.511   3.715   3.723 -3.0006  0.3938 -0.6773
 2257SOL    HW3 9074   1.443   3.581   3.733  1.1406 -1.7470 -0.2816
 2257SOL    MW4 9075   1.509   3.630   3.706 -0.2272  0.1893 -0.1950
 2258SOL     OW 9076   1.639   4.418   3.481  0.6413  0.2292  0.4117
 2258SOL    HW2 9077   1.549   4.391   3.461  0.9231  1.3083 -2.5367
 2258SOL    HW3 9078   1.693   4.363   3.425  1.6290  1.8435 -0.2400
 2258SOL    MW4 9079   1.634   4.407   3.471  0.8087  0.5846 -0.0634
 2259SOL     OW 9080   3.358   4.388   3.768 -0.5951 -0.2449 -0.4838
 2259SOL    HW2 9081   3.427   4.324   3.782 -0.7357 -0.3637 -0.3318
 2259SOL    HW3 9082   3.282   4.352   3.814 -0.8497 -0.2765 -0.9250
 2259SOL    MW4 9083   3.357   4.375   3.776 -0.6471 -0.2646 -0.5221
 2260SOL     OW 9084   1.768   4.594   4.379 -0.0185 -0.0544  0.6941
 2260SOL    HW2 9085   1.846   4.541   4.393 -0.3582 -0.4952  0.9184
 2260SOL    HW3 9086   1.802   4.683   4.367  0.5621 -0.3461  0.1292
 2260SOL    MW4 9087   1.783   4.599   4.379  0.0134 -0.1512  0.6495
 2261SOL     OW 9088   1.830   3.514   4.027 -0.0564  0.4122  0.0082
 2261SOL    HW2 9089   1.825   3.507   3.932 -0.4828 -0.2522  0.0753
 2261SOL    HW3 9090   1.740   3.499   4.057  0.6263 -2.7029  0.7005
 2261SOL    MW4 9091   1.817   3.511   4.018 -0.0225 -0.0865  0.1082
 2262SOL     OW 9092   0.210   4.368   3.504  0.2780  0.2072 -0.4390
 2262SOL    HW2 9093   0.195   4.349   3.597 -0.4746 -2.1045 -1.0193
 2262SOL    HW3 9094   0.303   4.348   3.491 -0.0050 -1.0560 -0.5533
 2262SOL    MW4 9095   0.220   4.363   3.515  0.1413 -0.2646 -0.5305
 2263SOL     OW 9096   0.703   4.664   3.833  0.6249  0.5178  0.1457
 2263SOL    HW2 9097   0.692   4.651   3.927 -0.3379  1.4962  0.1708
 2263SOL    HW3 9098   0.626   4.712   3.806  1.4677  1.2790 -0.9484
 2263SOL    MW4 9099   0.692   4.668   3.842  0.6091  0.7473  0.0045
 2264SOL     OW 9100   0.924   0.079   3.450 -0.3582  0.3591 -0.4350
 2264SOL    HW2 9101   0.947   0.104   3.540 -0.4638 -1.2894  0.0828
 2264SOL    HW3 9102   1.001   0.032   3.418  0.0072  1.6896 -1.5223
 2264SOL    MW4 9103   0.937   0.076   3.458 -0.3239  0.3172 -0.5100
 2265SOL     OW 9104   2.494   1.710   4.230  0.6512 -0.1429  0.2691
 2265SOL    HW2 9105   2.542   1.703   4.313  0.7303 -0.0908  0.2272
 2265SOL    HW3 9106   2.403   1.696   4.255  0.2207  3.3011  0.9462
 2265SOL    MW4 9107   2.488   1.707   4.244  0.6049  0.3183  0.3533
 2266SOL     OW 9108   0.212   2.672   4.622 -0.1562 -0.4101 -0.2214
 2266SOL    HW2 9109   0.263   2.593   4.606  0.3068 -0.1737  0.0719
 2266SOL    HW3 9110   0.278   2.740   4.637 -0.4909  0.4451 -2.3322
 2266SOL    MW4 9111   0.228   2.671   4.622 -0.1393 -0.2658 -0.4616
 2267SOL     OW 9112   2.935   2.090   4.451  0.4083 -0.1939  0.3931
 2267SOL    HW2 9113   2.903   2.092   4.361  1.8340 -0.4386 -0.1177
 2267SOL    HW3 9114   3.008   2.029   4.450 -0.4614 -1.2953  2.0202
 2267SOL    MW4 9115   2.940   2.083   4.439  0.4814 -0.3712  0.5403
 2268SOL     OW 9116   2.627   2.444   3.694  0.1426  0.4386  0.0779
 2268SOL    HW2 9117   2.634   2.529   3.737 -0.9321  1.3496 -1.5372
 2268SOL    HW3 9118   2.633   2.463   3.601 -0.3700 -1.2333 -0.3139
 2268SOL    MW4 9119   2.629   2.458   3.687 -0.0665  0.3383 -0.1869
 2269SOL     OW 9120   3.794   3.136   4.177  0.0228  0.1890  0.0155
 2269SOL    HW2 9121   3.792   3.115   4.083  1.9480 -0.0373  0.0147
 2269SOL    HW3 9122   3.881   3.110   4.206 -0.2850  0.9731  1.7130
 2269SOL    MW4 9123   3.805   3.130   4.168  0.2363  0.2627  0.2394
 2270SOL     OW 9124   0.253   0.724   4.256  0.0720 -0.7890 -0.4814
 2270SOL    HW2 9125   0.297   0.643   4.283  1.1548 -0.3878 -1.0219
 2270SOL    HW3 9126   0.259   0.781   4.332  0.2500 -0.8235 -0.4705
 2270SOL    MW4 9127   0.259   0.721   4.269  0.2384 -0.7406 -0.5512
 2271SOL     OW 9128   2.974   0.901   4.584  0.1495 -0.0488  0.3929
 2271SOL    HW2 9129   3.040   0.833   4.572  0.1923  0.1238 -0.3606
 2271SOL    HW3 9130   3.024   0.983   4.589 -0.0620  0.1966 -1.1979
 2271SOL    MW4 9131   2.989   0.903   4.583  0.1273  0.0064  0.0830
 2272SOL     OW 9132   3.446   1.349   4.465 -0.0843 -0.1742  0.1071
 2272SOL    HW2 9133   3.436   1.350   4.369 -0.3289  0.7366  0.1376
 2272SOL    HW3 9134   3.540   1.338   4.478 -0.0322 -0.1599 -0.2407
 2272SOL    MW4 9135   3.457   1.348   4.454 -0.1097 -0.0521  0.0653
 2273SOL     OW 9136   0.277   0.869   4.498 -0.3027  0.0264  0.1114
 2273SOL    HW2 9137   0.365   0.906   4.499 -0.1707 -0.2780 -0.0343
 2273SOL    HW3 9138   0.219   0.945   4.494 -0.0324  0.2042 -0.4245
 2273SOL    MW4 9139   0.281   0.884   4.498 -0.2496  0.0098  0.0219
 2274SOL     OW 9140   0.913   3.747   4.605  0.0567 -0.2413  0.2502
 2274SOL    HW2 9141   0.828   3.712   4.577  0.1140  2.1379 -3.2957
 2274SOL    HW3 9142   0.977   3.689   4.564  0.1251 -0.1977  0.2950
 2274SOL    MW4 9143   0.911   3.735   4.596  0.0733  0.0784 -0.2117
 2275SOL     OW 9144   0.137   3.044   4.105  0.0416  0.3214  0.5747
 2275SOL    HW2 9145   0.214   3.087   4.068  2.2711 -1.4375  2.9356
 2275SOL    HW3 9146   0.128   2.963   4.055 -1.2415  1.2417 -0.7122
 2275SOL    MW4 9147   0.146   3.039   4.093  0.1664  0.2108  0.7167
 2276SOL     OW 9148   2.196   3.185   3.706 -0.3070 -0.1227  0.0376
 2276SOL    HW2 9149   2.190   3.276   3.735  0.2422 -0.3662  0.9426
 2276SOL    HW3 9150   2.131   3.138   3.759 -0.3869 -0.3015 -0.2195
 2276SOL    MW4 9151   2.187   3.191   3.717 -0.2451 -0.1783  0.1230
 2277SOL     OW 9152   1.400   1.761   4.167  0.1991  0.0694  0.2877
 2277SOL    HW2 9153   1.364   1.719   4.245  0.9862 -0.1252  0.5577
 2277SOL    HW3 9154   1.489   1.785   4.192  0.9138 -1.1745 -0.9697
 2277SOL    MW4 9155   1.407   1.758   4.181  0.3973 -0.1205  0.1574
 2278SOL     OW 9156   2.681   3.443   3.775  0.3253 -0.5758  0.2985
 2278SOL    HW2 9157   2.690   3.371   3.712  0.6257 -0.3563  0.0881
 2278SOL    HW3 9158   2.595   3.482   3.755 -0.4599 -1.7600  1.3432
 2278SOL    MW4 9159   2.671   3.439   3.764  0.2611 -0.7031  0.4086
 2279SOL     OW 9160   3.410   0.218   4.263  0.0631 -0.3264 -0.1308
 2279SOL    HW2 9161   3.336   0.278   4.254 -0.2510 -0.5022  1.1470
 2279SOL    HW3 9162   3.479   0.257   4.210 -1.0831 -0.4038 -1.7169
 2279SOL    MW4 9163   3.409   0.231   4.255 -0.1295 -0.3598 -0.1712
 2280SOL     OW 9164   1.800   4.012   3.705 -0.0735  0.5235 -0.4065
 2280SOL    HW2 9165   1.808   4.099   3.744  1.1709 -0.0299  0.5854
 2280SOL    HW3 9166   1.885   3.971   3.720 -0.6219 -0.8338 -0.9597
 2280SOL    MW4 9167   1.812   4.018   3.712  0.0184  0.2713 -0.3488
 2281SOL     OW 9168   2.373   1.312   4.388 -0.1976 -0.1222  0.2485
 2281SOL    HW2 9169   2.390   1.316   4.294  0.3187 -1.5229  0.2820
 2281SOL    HW3 9170   2.330   1.228   4.402 -2.8219  1.2653  0.8691
 2281SOL    MW4 9171   2.370   1.302   4.378 -0.4756 -0.1239  0.3347
 2282SOL     OW 9172   0.159   4.373   4.373 -0.5453  0.5407 -0.1742
 2282SOL    HW2 9173   0.121   4.325   4.299  1.1199  0.7901 -1.2235
 2282SOL    HW3 9174   0.252   4.349   4.372 -0.3251  1.2732  1.2885
 2282SOL    MW4 9175   0.166   4.363   4.363 -0.2965  0.6704 -0.1197
 2283SOL     OW 9176   4.002   0.638   4.458 -0.2405  0.1205  0.1047
 2283SOL    HW2 9177   3.926   0.679   4.500 -1.1941 -0.3214 -1.1707
 2283SOL    HW3 9178   3.992   0.657   4.365  0.0236 -1.8578 -0.3459
 2283SOL    MW4 9179   3.991   0.646   4.452 -0.3314 -0.1988 -0.1230
 2284SOL     OW 9180   1.630   4.523   4.151  0.3981  0.1259  0.0422
 2284SOL    HW2 9181   1.677   4.558   4.228  1.4520  0.3904 -0.7101
 2284SOL    HW3 9182   1.576   4.596   4.121 -0.0327  0.0162  0.5356
 2284SOL    MW4 9183   1.629   4.537   4.157  0.4803  0.1459  0.0081
 2285SOL     OW 9184   2.452   4.624   3.765  0.1931  0.1434 -0.4261
 2285SOL    HW2 9185   2.441   4.540   3.720  0.0995 -0.7366  1.1916
 2285SOL    HW3 9186   2.547   4.636   3.769  0.2085  0.0954 -0.6199
 2285SOL    MW4 9187   2.463   4.614   3.759  0.1829  0.0205 -0.2384
 2286SOL     OW 9188   4.156   1.101   4.502  0.4498  0.0186  0.1813
 2286SOL    HW2 9189   4.158   1.195   4.521 -0.0732  0.2067 -0.6689
 2286SOL    HW3 9190   4.063   1.080   4.493  0.5844 -0.4895 -0.0504
 2286SOL    MW4 9191   4.144   1.110   4.503  0.3982 -0.0236  0.0386
 2287SOL     OW 9192   3.350   4.653   3.864  0.3640 -0.1678  0.5443
 2287SOL    HW2 9193   3.440   4.685   3.855 -0.3764  1.2507 -2.6085
 2287SOL    HW3 9194   3.351   4.568   3.819 -0.2402  0.6618 -1.0783
 2287SOL    MW4 9195   3.362   4.646   3.857  0.1867  0.1292 -0.0858
 2288SOL     OW 9196   1.650   1.117   3.810  0.2436  0.3044  0.4109
 2288SOL    HW2 9197   1.675   1.181   3.744  1.3418  1.5317  1.9524
 2288SOL    HW3 9198   1.706   1.041   3.792 -0.9389 -0.1748 -1.3160
 2288SOL    MW4 9199   1.661   1.116   3.799  0.2325  0.4029  0.3862
 2289SOL     OW 9200   2.459   0.696   3.837  0.0862 -0.2155 -0.1907
 2289SOL    HW2 9201   2.418   0.680   3.922 -0.3369 -2.0541 -0.7159
 2289SOL    HW3 9202   2.501   0.613   3.815  0.5853  0.3917 -1.5600
 2289SOL    MW4 9203   2.459   0.683   3.846  0.0961 -0.3780 -0.4406
 2290SOL     OW 9204   1.295   3.510   3.813 -0.0422  0.2818  0.1296
 2290SOL    HW2 9205   1.310   3.475   3.900 -1.6457  0.3926  0.4557
 2290SOL    HW3 9206   1.293   3.433   3.756 -0.5764  0.0897  0.4128
 2290SOL    MW4 9207   1.297   3.495   3.817 -0.3242  0.2711  0.2100
 2291SOL     OW 9208   3.906   1.453   4.669  0.2054  0.2604 -0.2308
 2291SOL    HW2 9209   3.905   1.404   4.752 -2.3241  1.2930  0.3853
 2291SOL    HW3 9210   3.988   1.502   4.672  0.0854  0.3836  1.7326
 2291SOL    MW4 9211   3.917   1.453   4.680 -0.1445  0.4129  0.1092
 2292SOL     OW 9212   1.516   4.276   4.233 -0.5065 -0.4043 -0.3521
 2292SOL    HW2 9213   1.434   4.281   4.283 -0.6632  0.5195 -0.6989
 2292SOL    HW3 9214   1.542   4.367   4.221 -1.0335 -0.5570 -2.8648
 2292SOL    MW4 9215   1.508   4.289   4.238 -0.5966 -0.3018 -0.7296
 2293SOL     OW 9216   1.054   0.064   4.259  0.1548  0.0447 -0.0081
 2293SOL    HW2 9217   1.090   0.037   4.343  2.1319 -0.5384 -1.0007
 2293SOL    HW3 9218   0.978   0.006   4.246 -0.6936  0.7261  1.7390
 2293SOL    MW4 9219   1.048   0.053   4.268  0.3037  0.0577  0.0916
 2294SOL     OW 9220   1.955   2.078   3.705  0.1400  0.1158 -0.1525
 2294SOL    HW2 9221   1.922   1.991   3.684 -0.5934  0.3948 -0.1806
 2294SOL    HW3 9222   1.937   2.089   3.798 -0.8521  0.6932 -0.4045
 2294SOL    MW4 9223   1.948   2.068   3.714 -0.0876  0.2286 -0.1898
 2295SOL     OW 9224   0.196   3.566   3.726  0.1016  0.0790  0.0001
 2295SOL    HW2 9225   0.117   3.526   3.763 -0.3918 -0.5026 -1.6685
 2295SOL    HW3 9226   0.191   3.658   3.753  0.1437 -0.4931  2.0229
 2295SOL    MW4 9227   0.185   3.573   3.735  0.0421 -0.0732  0.0467
 2296SOL     OW 9228   3.388   1.280   3.765 -0.4726 -0.8778  0.3958
 2296SOL    HW2 9229   3.363   1.370   3.789  2.1679 -0.3880  1.4765
 2296SOL    HW3 9230   3.396   1.282   3.670 -0.0153  0.1529  0.4449
 2296SOL    MW4 9231   3.386   1.292   3.756 -0.0641 -0.6772  0.5448
 2297SOL     OW 9232   0.833   2.778   4.715 -0.0900 -1.0348  0.4170
 2297SOL    HW2 9233   0.761   2.826   4.756 -0.7498 -1.9213  0.2861
 2297SOL    HW3 9234   0.791   2.714   4.658  0.8094 -0.5067 -0.8806
 2297SOL    MW4 9235   0.818   2.776   4.713 -0.0584 -1.0819  0.2284
 2298SOL     OW 9236   3.842   3.960   4.672  0.3413 -0.5687  0.2455
 2298SOL    HW2 9237   3.889   3.987   4.751  0.6630  0.1868 -0.1966
 2298SOL    HW3 9238   3.888   4.005   4.601 -0.7815 -0.1815 -0.2410
 2298SOL    MW4 9239   3.855   3.970   4.673  0.2356 -0.4179  0.1235
 2299SOL     OW 9240   0.505   0.320   4.813 -0.3658  0.3113 -0.1513
 2299SOL    HW2 9241   0.589   0.275   4.810 -0.9829 -0.7678 -2.0713
 2299SOL    HW3 9242   0.445   0.256   4.853 -0.5537  0.6154  0.0584
 2299SOL    MW4 9243   0.508   0.306   4.818 -0.4719  0.2090 -0.3767
 2300SOL     OW 9244   4.080   4.533   4.207  0.4004  0.4420  0.0891
 2300SOL    HW2 9245   3.997   4.566   4.172  0.2945  0.0907  0.0025
 2300SOL    HW3 9246   4.065   4.523   4.301 -0.1294 -0.9835 -0.1290
 2300SOL    MW4 9247   4.067   4.536   4.215  0.3171  0.2079  0.0491
 2301SOL     OW 9248   3.834   4.389   3.742 -0.2101 -0.1738  0.3572
 2301SOL    HW2 9249   3.864   4.392   3.651  1.8427  1.0162  1.0244
 2301SOL    HW3 9250   3.904   4.343   3.789 -0.7232  0.2074  1.5161
 2301SOL    MW4 9251   3.847   4.384   3.737 -0.0069  0.0334  0.5977
 2302SOL     OW 9252   4.317   4.626   3.828 -0.0534 -0.0327  0.0699
 2302SOL    HW2 9253   4.329   4.627   3.923 -1.1084  0.8575  0.2159
 2302SOL    HW3 9254   4.393   4.674   3.794 -1.0189  2.0165  0.6779
 2302SOL    MW4 9255   4.328   4.633   3.836 -0.3200  0.3552  0.1695
 2303SOL     OW 9256   1.746   1.721   3.922  0.0344 -0.1438 -0.2036
 2303SOL    HW2 9257   1.736   1.804   3.968  0.3808 -0.3920  0.3419
 2303SOL    HW3 9258   1.781   1.744   3.836  0.6300  0.2342  0.1374
 2303SOL    MW4 9259   1.749   1.735   3.917  0.1587 -0.1266 -0.0868
 2304SOL     OW 9260   3.550   3.431   3.845 -0.5330  0.3458 -0.0957
 2304SOL    HW2 9261   3.555   3.347   3.798 -0.0913 -0.9978  2.2522
 2304SOL    HW3 9262   3.639   3.466   3.841 -0.6956  0.6433 -1.0031
 2304SOL    MW4 9263   3.563   3.424   3.839 -0.4964  0.2081  0.0944
 2305SOL     OW 9264   1.283   2.245   4.707 -0.1378  0.4781 -0.0807
 2305SOL    HW2 9265   1.202   2.289   4.680 -0.1534  0.9138  0.6523
 2305SOL    HW3 9266   1.348   2.315   4.712 -0.3667  0.5860  1.9191
 2305SOL    MW4 9267   1.281   2.260   4.704 -0.1700  0.5498  0.2804
 2306SOL     OW 9268   2.664   0.117   4.145 -0.6356 -0.1221  0.5176
 2306SOL    HW2 9269   2.698   0.087   4.230  0.1820  2.1332  1.0137
 2306SOL    HW3 9270   2.716   0.195   4.125 -0.7469 -0.7062 -2.1303
 2306SOL    MW4 9271   2.676   0.123   4.154 -0.5426  0.0984  0.2337
 2307SOL     OW 9272   1.145   1.983   4.646 -0.0178  0.6323 -0.5444
 2307SOL    HW2 9273   1.207   1.946   4.583 -0.2080 -0.3237 -0.1739
 2307SOL    HW3 9274   1.184   2.068   4.669  1.7854 -0.4416  0.5511
 2307SOL    MW4 9275   1.159   1.989   4.641  0.1950  0.3645 -0.3510
 2308SOL     OW 9276   3.773   0.765   4.132 -0.0026 -0.1122 -0.0656
 2308SOL    HW2 9277   3.768   0.832   4.200 -0.1885 -2.0183  1.8812
 2308SOL    HW3 9278   3.849   0.712   4.158 -1.5587 -2.3373  0.0906
 2308SOL    MW4 9279   3.783   0.767   4.145 -0.2325 -0.6573  0.2117
 2309SOL     OW 9280   3.134   1.933   3.849  0.1169 -0.0835 -0.4700
 2309SOL    HW2 9281   3.057   1.975   3.809  1.0022  0.9213 -1.1378
 2309SOL    HW3 9282   3.208   1.987   3.821  1.0735 -1.0597  0.1546
 2309SOL    MW4 9283   3.133   1.946   3.840  0.3598 -0.0796 -0.4756
 2310SOL     OW 9284   0.046   1.461   4.223  0.3705  0.2959 -0.2027
 2310SOL    HW2 9285   0.118   1.507   4.179 -1.1344  1.8183 -1.1348
 2310SOL    HW3 9286   0.000   1.416   4.153 -0.5420  0.6684  0.1452
 2310SOL    MW4 9287   0.050   1.461   4.208  0.0515  0.5460 -0.2799
 2311SOL     OW 9288   1.016   4.409   4.657 -0.1262  0.1520 -0.3090
 2311SOL    HW2 9289   1.012   4.322   4.697  0.4516  0.2638 -0.0086
 2311SOL    HW3 9290   1.110   4.427   4.649 -0.2347  0.2556 -1.4273
 2311SOL    MW4 9291   1.028   4.400   4.661 -0.0644  0.1807 -0.4163
 2312SOL     OW 9292   2.499   3.859   3.809 -0.4465  0.2498  0.0729
 2312SOL    HW2 9293   2.588   3.889   3.790 -0.2844  1.9561  3.2079
 2312SOL    HW3 9294   2.443   3.916   3.756  0.2032  1.0586  0.2390
 2312SOL    MW4 9295   2.503   3.870   3.799 -0.3393  0.5820  0.5083
 2313SOL     OW 9296   1.184   1.528   3.871 -0.0353 -0.0158  0.0508
 2313SOL    HW2 9297   1.122   1.586   3.827 -0.2532 -0.4088 -0.1624
 2313SOL    HW3 9298   1.251   1.587   3.906 -0.2282  0.3594 -0.2044
 2313SOL    MW4 9299   1.184   1.544   3.870 -0.0894 -0.0182 -0.0107
 2314SOL     OW 9300   1.187   2.808   3.740  0.5219 -0.0979 -0.3415
 2314SOL    HW2 9301   1.164   2.732   3.794 -0.4110  0.9570  0.7561
 2314SOL    HW3 9302   1.148   2.882   3.785 -0.3487  0.7991 -2.5292
 2314SOL    MW4 9303   1.179   2.808   3.753  0.2840  0.1597 -0.4852
 2315SOL     OW 9304   3.175   1.166   3.369  0.0191  0.2854  0.3270
 2315SOL    HW2 9305   3.176   1.073   3.393 -0.7719  0.4995  1.1860
 2315SOL    HW3 9306   3.160   1.166   3.274 -1.6517 -0.4266  0.5786
 2315SOL    MW4 9307   3.174   1.154   3.360 -0.3054  0.2197  0.4737
 2316SOL     OW 9308   2.415   0.042   4.021 -0.0322 -0.2512 -0.1768
 2316SOL    HW2 9309   2.497   0.076   4.058 -0.1969  0.8261 -0.7783
 2316SOL    HW3 9310   2.436   0.022   3.930 -0.2693 -0.5845 -0.1577
 2316SOL    MW4 9311   2.429   0.044   4.014 -0.0854 -0.1530 -0.2537
 2317SOL     OW 9312   0.446   4.593   4.245 -0.6334 -0.3911 -0.2402
 2317SOL    HW2 9313   0.363   4.632   4.217 -1.0034  0.0808  1.4317
 2317SOL    HW3 9314   0.472   4.646   4.321  1.2336 -0.4912 -0.8030
 2317SOL    MW4 9315   0.438   4.606   4.251 -0.4359 -0.3419 -0.0939
 2318SOL     OW 9316   3.994   1.166   3.867  0.1350  0.3545  0.2139
 2318SOL    HW2 9317   3.996   1.089   3.809 -0.4335 -1.4800  2.5447
 2318SOL    HW3 9318   4.081   1.204   3.859  0.4849 -0.6418 -0.8540
 2318SOL    MW4 9319   4.005   1.161   3.858  0.1059 -0.0191  0.3805
 2319SOL     OW 9320   0.388   2.880   4.349  0.0626  0.0548  0.5141
 2319SOL    HW2 9321   0.401   2.884   4.444 -2.3299  0.4458  0.8524
 2319SOL    HW3 9322   0.438   2.954   4.315 -0.3363  0.8580  1.6390
 2319SOL    MW4 9323   0.396   2.890   4.357 -0.3057  0.2127  0.7067
 2320SOL     OW 9324   2.117   4.654   4.032 -0.3449  0.3601 -0.0749
 2320SOL    HW2 9325   2.104   4.735   4.080 -0.0231  0.6154 -0.4176
 2320SOL    HW3 9326   2.211   4.653   4.011 -0.5280  0.3904 -0.9410
 2320SOL    MW4 9327   2.128   4.664   4.035 -0.3266  0.3977 -0.2337
 2321SOL     OW 9328   2.065   4.392   3.689 -0.0390  0.1680  0.0343
 2321SOL    HW2 9329   2.049   4.378   3.596 -0.8685 -1.8252  0.4535
 2321SOL    HW3 9330   1.987   4.360   3.733  0.3221  1.1168  1.4370
 2321SOL    MW4 9331   2.053   4.386   3.683 -0.1009  0.0305  0.2744
 2322SOL     OW 9332   2.748   1.944   4.623  0.6092 -0.2089 -0.0771
 2322SOL    HW2 9333   2.801   2.011   4.580  0.2282 -0.4310 -0.9055
 2322SOL    HW3 9334   2.807   1.868   4.630  0.4602 -0.3936 -0.8224
 2322SOL    MW4 9335   2.763   1.943   4.618  0.5393 -0.2625 -0.2842
 2323SOL     OW 9336   2.701   3.967   4.625 -0.6142  0.2128  0.1538
 2323SOL    HW2 9337   2.795   3.957   4.612  0.1978 -0.1000  5.0732
 2323SOL    HW3 9338   2.671   3.880   4.651 -1.9053  0.7421  0.4700
 2323SOL    MW4 9339   2.709   3.954   4.627 -0.6773  0.2413  0.8445
 2324SOL     OW 9340   2.625   1.341   4.504  0.2190 -0.0556  0.1453
 2324SOL    HW2 9341   2.535   1.325   4.475  0.5063  0.2608 -0.9293
 2324SOL    HW3 9342   2.680   1.296   4.439  0.9366  2.5404 -1.1089
 2324SOL    MW4 9343   2.620   1.333   4.492  0.3517  0.3287 -0.1616
 2325SOL     OW 9344   0.151   0.018   4.639 -0.1579  0.2899 -0.4035
 2325SOL    HW2 9345   0.207  -0.053   4.606  2.5040  2.1448  0.0264
 2325SOL    HW3 9346   0.178   0.030   4.730 -1.9619  0.5649  0.1181
 2325SOL    MW4 9347   0.162   0.010   4.646 -0.0447  0.5713 -0.2780
 2326SOL     OW 9348   1.605   1.497   3.869  0.5148  0.4486 -0.5555
 2326SOL    HW2 9349   1.665   1.566   3.896 -0.0053  0.7508 -0.1728
 2326SOL    HW3 9350   1.628   1.422   3.923  0.6038  0.5368 -0.4711
 2326SOL    MW4 9351   1.616   1.496   3.879  0.4578  0.5002 -0.4938
 2327SOL     OW 9352   3.634   4.217   4.120 -0.2135 -0.3602  0.6087
 2327SOL    HW2 9353   3.556   4.163   4.131  0.5000 -1.4201  0.4816
 2327SOL    HW3 9354   3.706   4.163   4.153  0.9268 -0.6805 -2.3090
 2327SOL    MW4 9355   3.633   4.203   4.126  0.0312 -0.5422  0.2069
 2328SOL     OW 9356   2.291   3.988   3.661  0.4572  0.2905 -0.0207
 2328SOL    HW2 9357   2.285   4.011   3.569 -0.3562  1.1309  0.2362
 2328SOL    HW3 9358   2.268   4.068   3.708 -0.9777 -0.6101  0.8857
 2328SOL    MW4 9359   2.287   4.001   3.655  0.1605  0.2823  0.1328
 2329SOL     OW 9360   2.900   2.832   3.351  0.4178  0.0920 -0.3672
 2329SOL    HW2 9361   2.974   2.775   3.332 -0.4821 -0.9056 -0.8996
 2329SOL    HW3 9362   2.924   2.916   3.312  0.9172 -0.4493 -1.2513
 2329SOL    MW4 9363   2.913   2.836   3.344  0.3650 -0.1111 -0.5541
 2330SOL     OW 9364   3.680   0.951   4.340 -0.1982  0.0431  0.3010
 2330SOL    HW2 9365   3.627   0.944   4.418 -0.4123  1.7987  0.3230
 2330SOL    HW3 9366   3.630   1.006   4.280  0.9914  0.6448 -0.1767
 2330SOL    MW4 9367   3.667   0.957   4.342 -0.0699  0.3542  0.2408
 2331SOL     OW 9368   2.280   0.668   4.626 -0.2135 -0.5510 -0.2461
 2331SOL    HW2 9369   2.233   0.722   4.564 -0.5313  0.5950  0.9713
 2331SOL    HW3 9370   2.215   0.643   4.692  0.6473  0.2646  0.9446
 2331SOL    MW4 9371   2.265   0.672   4.627 -0.1419 -0.2922  0.0715
 2332SOL     OW 9372   1.446   3.896   4.487 -0.2307  0.0573  0.1356
 2332SOL    HW2 9373   1.356   3.928   4.480 -0.7067 -0.6449  2.4452
 2332SOL    HW3 9374   1.495   3.969   4.525 -0.1225 -0.0503  0.2027
 2332SOL    MW4 9375   1.440   3.910   4.491 -0.2792 -0.0496  0.4487
 2333SOL     OW 9376   3.618   4.221   3.833  0.0686  0.6225  0.0205
 2333SOL    HW2 9377   3.642   4.239   3.924  0.9051 -0.6139  0.0671
 2333SOL    HW3 9378   3.677   4.277   3.781  1.4016 -0.5661  0.2006
 2333SOL    MW4 9379   3.629   4.231   3.838  0.3550  0.3028  0.0505
 2334SOL     OW 9380   4.231   2.303   4.591 -0.2251 -0.0315 -0.0071
 2334SOL    HW2 9381   4.161   2.369   4.598 -0.5372 -0.1807 -1.6253
 2334SOL    HW3 9382   4.284   2.332   4.517 -0.6819 -1.8778 -1.0954
 2334SOL    MW4 9383   4.229   2.316   4.582 -0.3266 -0.2947 -0.3638
 2335SOL     OW 9384   0.559   0.968   4.502 -0.0177  0.2478  0.3734
 2335SOL    HW2 9385   0.609   0.968   4.420  0.6277 -0.6939  0.7646
 2335SOL    HW3 9386   0.560   1.060   4.531  0.1531  0.4988 -0.4209
 2335SOL    MW4 9387   0.565   0.980   4.495  0.0899  0.1566  0.3195
 2336SOL     OW 9388   1.356   2.682   4.707 -0.5709  0.2244 -0.2659
 2336SOL    HW2 9389   1.394   2.735   4.637  0.8370  0.0468  0.3594
 2336SOL    HW3 9390   1.358   2.739   4.784 -0.6806 -0.1343  0.0025
 2336SOL    MW4 9391   1.361   2.696   4.708 -0.3996  0.1535 -0.1478
 2337SOL     OW 9392   4.081   0.901   3.724 -0.0245  0.0391  0.3733
 2337SOL    HW2 9393   4.065   0.886   3.631  0.8843 -0.4534  0.2989
 2337SOL    HW3 9394   4.151   0.841   3.747 -0.7903 -0.4123  1.5740
 2337SOL    MW4 9395   4.088   0.891   3.714 -0.0052 -0.0854  0.5219
 2338SOL     OW 9396   1.897   3.768   4.157  0.0587  0.4204  0.0727
 2338SOL    HW2 9397   1.909   3.682   4.116  0.8575  0.7191 -0.3179
 2338SOL    HW3 9398   1.813   3.799   4.121 -0.0410 -0.0209 -0.0858
 2338SOL    MW4 9399   1.887   3.761   4.147  0.1510  0.4015  0.0005
 2339SOL     OW 9400   0.998   0.444   4.452  0.1586 -0.2163 -0.4889
 2339SOL    HW2 9401   0.971   0.533   4.478  0.0419  0.2154 -2.0446
 2339SOL    HW3 9402   0.916   0.400   4.432  0.2358 -0.6127  0.0610
 2339SOL    MW4 9403   0.984   0.450   4.453  0.1534 -0.2116 -0.6208
 2340SOL     OW 9404   2.391   0.657   4.092  0.0082 -0.2957  0.0409
 2340SOL    HW2 9405   2.432   0.595   4.152 -0.8162 -0.5186  0.3786
 2340SOL    HW3 9406   2.388   0.739   4.141 -0.1227 -0.3281  0.0871
 2340SOL    MW4 9407   2.396   0.659   4.106 -0.1178 -0.3294  0.0916
 2341SOL     OW 9408   1.181   0.531   3.702 -0.2000  0.0506 -0.1564
 2341SOL    HW2 9409   1.174   0.622   3.731  0.0668 -0.0862  0.3420
 2341SOL    HW3 9410   1.256   0.496   3.750 -0.9254 -0.7261  0.4189
 2341SOL    MW4 9411   1.190   0.539   3.712 -0.2604 -0.0699 -0.0148
 2342SOL     OW 9412   3.392   1.279   3.491  0.7084  0.7056 -0.3038
 2342SOL    HW2 9413   3.317   1.237   3.448  1.5050 -0.2380 -0.7971
 2342SOL    HW3 9414   3.391   1.369   3.457  0.1867  0.5116 -0.8197
 2342SOL    MW4 9415   3.382   1.285   3.481  0.7448  0.5556 -0.4368
 2343SOL     OW 9416   0.767   0.216   4.815  0.0358  0.0507  0.2211
 2343SOL    HW2 9417   0.787   0.124   4.831 -1.2611 -0.3919 -0.5908
 2343SOL    HW3 9418   0.853   0.257   4.801  0.6369 -0.9799  0.8522
 2343SOL    MW4 9419   0.781   0.209   4.815 -0.0560 -0.1437  0.1974
 2344SOL     OW 9420   2.065   0.227   4.154  0.5586  0.5324 -0.4704
 2344SOL    HW2 9421   2.151   0.265   4.137  0.4878  0.8566 -0.0990
 2344SOL    HW3 9422   2.003   0.291   4.120  0.4000  1.4326  1.4743
 2344SOL    MW4 9423   2.068   0.240   4.147  0.5281  0.6940 -0.1650
 2345SOL     OW 9424   3.592   1.973   3.858 -0.0935  0.0771 -0.0023
 2345SOL    HW2 9425   3.578   1.965   3.952 -0.3682  0.2964 -0.0242
 2345SOL    HW3 9426   3.611   1.884   3.829  0.1780  0.0395  0.2905
 2345SOL    MW4 9427   3.593   1.960   3.866 -0.0939  0.1012  0.0334
 2346SOL     OW 9428   2.599   2.917   4.503  0.0994 -0.4390 -0.1090
 2346SOL    HW2 9429   2.681   2.871   4.522  1.1265  1.0667 -0.7428
 2346SOL    HW3 9430   2.617   3.008   4.527 -2.0496 -0.4245  1.6285
 2346SOL    MW4 9431   2.612   2.923   4.509 -0.0486 -0.2384  0.0362
 2347SOL     OW 9432   1.414   0.714   4.564 -0.3334  0.1544 -0.4044
 2347SOL    HW2 9433   1.350   0.783   4.583  0.0465  0.7638 -1.2820
 2347SOL    HW3 9434   1.412   0.705   4.468  1.7920  1.0715 -0.5687
 2347SOL    MW4 9435   1.405   0.722   4.553 -0.0030  0.3558 -0.5417
 2348SOL     OW 9436   0.407   4.253   3.938 -0.0061  0.1036 -0.4766
 2348SOL    HW2 9437   0.380   4.172   3.895  1.4124 -0.2039 -0.8211
 2348SOL    HW3 9438   0.479   4.285   3.884 -0.6813  1.6972 -0.4438
 2348SOL    MW4 9439   0.413   4.246   3.925  0.0920  0.2732 -0.5176
 2349SOL     OW 9440   0.167   1.561   4.614  0.2788  0.3919 -0.4946
 2349SOL    HW2 9441   0.087   1.609   4.633  0.5640  1.0564 -0.9392
 2349SOL    HW3 9442   0.137   1.477   4.580 -0.2383  1.1135 -1.8519
 2349SOL    MW4 9443   0.153   1.557   4.612  0.2482  0.5748 -0.7324
 2350SOL     OW 9444   3.146   2.701   3.326 -0.7084 -0.6502  0.0733
 2350SOL    HW2 9445   3.215   2.743   3.377 -0.6615 -0.6616  0.0188
 2350SOL    HW3 9446   3.155   2.608   3.345 -1.3427 -0.5609  0.8471
 2350SOL    MW4 9447   3.157   2.695   3.335 -0.7861 -0.6397  0.1681
 2351SOL     OW 9448   1.247   1.085   4.124  0.6823  0.2921 -0.0679
 2351SOL    HW2 9449   1.227   0.992   4.114  0.1596  0.4025 -0.0688
 2351SOL    HW3 9450   1.195   1.113   4.200 -0.4552  0.9649 -1.0798
 2351SOL    MW4 9451   1.237   1.077   4.133  0.4631  0.3954 -0.2012
 2352SOL     OW 9452   0.160   2.571   4.147  0.3060  0.7464  0.2451
 2352SOL    HW2 9453   0.092   2.596   4.209  0.1176  1.6248 -0.2988
 2352SOL    HW3 9454   0.242   2.597   4.190  0.2841 -0.1287  0.8143
 2352SOL    MW4 9455   0.162   2.578   4.161  0.2783  0.7467  0.2484
 2353SOL     OW 9456   1.684   2.241   3.662  0.2550 -0.1688 -0.1795
 2353SOL    HW2 9457   1.775   2.268   3.672  0.0926  0.5536 -0.6729
 2353SOL    HW3 9458   1.683   2.187   3.583  0.5123 -1.3493  0.6084
 2353SOL    MW4 9459   1.696   2.237   3.653  0.2676 -0.2291 -0.1407
 2354SOL     OW 9460   4.431   3.257   4.555  0.1893 -0.2263 -0.1096
 2354SOL    HW2 9461   4.484   3.214   4.622  0.8928 -0.2841 -0.7009
 2354SOL    HW3 9462   4.364   3.193   4.532  0.6166 -0.6171 -0.2568
 2354SOL    MW4 9463   4.429   3.243   4.561  0.3386 -0.2856 -0.2074
 2355SOL     OW 9464   4.037   3.700   4.214 -0.0874  0.4363 -0.3772
 2355SOL    HW2 9465   3.957   3.747   4.194 -0.7407  0.1202  1.3991
 2355SOL    HW3 9466   4.029   3.617   4.167 -0.3147  0.8376 -1.0489
 2355SOL    MW4 9467   4.026   3.695   4.205 -0.2036  0.4473 -0.2308
 2356SOL     OW 9468   4.074   0.097   3.770  0.9709 -0.0817  0.1495
 2356SOL    HW2 9469   4.149   0.045   3.800  0.2022 -0.6846  1.0857
 2356SOL    HW3 9470   4.088   0.184   3.808  0.2287 -0.7235  1.9495
 2356SOL    MW4 9471   4.085   0.102   3.779  0.7715 -0.2459  0.5107
 2357SOL     OW 9472   4.037   2.530   4.622  0.2210 -0.2694  0.4514
 2357SOL    HW2 9473   3.982   2.544   4.700 -2.6322  0.1678 -1.5501
 2357SOL    HW3 9474   3.981   2.481   4.562  1.0008  2.5582 -2.7515
 2357SOL    MW4 9475   4.022   2.525   4.624 -0.0525  0.1614 -0.2351
 2358SOL     OW 9476   3.134   0.696   4.491  0.0323 -0.3793  0.0662
 2358SOL    HW2 9477   3.100   0.607   4.480 -0.2425 -0.1369 -1.0889
 2358SOL    HW3 9478   3.226   0.684   4.513 -0.0511 -0.9487  0.1078
 2358SOL    MW4 9479   3.142   0.683   4.493 -0.0148 -0.4225 -0.0806
 2359SOL     OW 9480   2.849   2.817   3.644 -0.3264  0.1254 -0.2733
 2359SOL    HW2 9481   2.831   2.826   3.550  1.6591 -0.1821 -0.7205
 2359SOL    HW3 9482   2.868   2.907   3.673 -1.8826  0.3531  0.0477
 2359SOL    MW4 9483   2.849   2.830   3.635 -0.2701  0.1149 -0.2897
 2360SOL     OW 9484   2.114   3.307   4.284 -0.2408  0.3811  0.1455
 2360SOL    HW2 9485   2.098   3.392   4.325  1.0646  0.6962  0.0258
 2360SOL    HW3 9486   2.073   3.244   4.343  0.0137  0.9859  0.9835
 2360SOL    MW4 9487   2.107   3.310   4.297 -0.0348  0.5021  0.2403
 2361SOL     OW 9488   0.219   2.062   4.496  0.0450 -0.0243  0.2289
 2361SOL    HW2 9489   0.250   1.976   4.466 -0.7683 -0.4991  0.7340
 2361SOL    HW3 9490   0.184   2.104   4.417 -1.7413 -1.1181  0.4291
 2361SOL    MW4 9491   0.219   2.056   4.481 -0.2980 -0.2310  0.3223
 2362SOL     OW 9492   2.181   2.440   3.652  0.4103  0.2613 -0.2576
 2362SOL    HW2 9493   2.087   2.442   3.667  0.6205  0.2700  1.1384
 2362SOL    HW3 9494   2.191   2.452   3.557 -0.9743  0.4199 -0.3885
 2362SOL    MW4 9495   2.170   2.442   3.641  0.2553  0.2832 -0.0906
 2363SOL     OW 9496   1.360   2.090   3.908 -0.5761  0.0225  0.2217
 2363SOL    HW2 9497   1.333   2.181   3.920  0.5111  0.6167 -1.6073
 2363SOL    HW3 9498   1.456   2.092   3.910 -0.5427 -1.0901  0.2903
 2363SOL    MW4 9499   1.369   2.102   3.910 -0.4282 -0.0458 -0.0105
 2364SOL     OW 9500   1.172   1.146   4.418 -0.2013  0.0465  0.2102
 2364SOL    HW2 9501   1.248   1.199   4.441  0.0633 -0.0462 -0.4455
 2364SOL    HW3 9502   1.119   1.143   4.498  1.1236 -0.9802  1.0674
 2364SOL    MW4 9503   1.175   1.152   4.432  0.0086 -0.1013  0.2365
 2365SOL     OW 9504   2.608   3.684   4.686  0.0804 -0.1567 -0.2109
 2365SOL    HW2 9505   2.620   3.594   4.654 -0.5123 -0.7666  1.2320
 2365SOL    HW3 9506   2.520   3.683   4.724  0.2675  0.9058  0.2454
 2365SOL    MW4 9507   2.598   3.672   4.687  0.0269 -0.0968  0.0396
 2366SOL     OW 9508   2.745   0.458   4.543 -0.2259 -0.2827 -0.6844
 2366SOL    HW2 9509   2.680   0.387   4.547  0.2316 -0.5748  3.0156
 2366SOL    HW3 9510   2.694   0.538   4.556 -0.0096 -0.4232  1.0887
 2366SOL    MW4 9511   2.729   0.459   4.545 -0.1369 -0.3397  0.0381
 2367SOL     OW 9512   3.755   1.555   3.912  0.1771 -0.8006  0.0303
 2367SOL    HW2 9513   3.689   1.615   3.879 -0.1237 -0.7161  0.7839
 2367SOL    HW3 9514   3.737   1.472   3.866 -1.3259 -1.1697  1.2592
 2367SOL    MW4 9515   3.744   1.552   3.901 -0.0608 -0.8383  0.2918
 2368SOL     OW 9516   1.085   3.181   4.605 -0.1597 -0.0841 -0.5603
 2368SOL    HW2 9517   1.140   3.146   4.535 -1.0149 -0.4996 -1.0287
 2368SOL    HW3 9518   1.011   3.121   4.610  0.2066 -0.4058  1.1223
 2368SOL    MW4 9519   1.082   3.169   4.596 -0.2241 -0.1812 -0.4005
 2369SOL     OW 9520   2.246   3.661   4.159 -0.0921 -0.1452  0.1521
 2369SOL    HW2 9521   2.263   3.584   4.104  0.3846  0.2931 -0.3119
 2369SOL    HW3 9522   2.195   3.626   4.233  0.7117 -1.0261  0.3022
 2369SOL    MW4 9523   2.241   3.646   4.162  0.0768 -0.2036  0.1111
 2370SOL     OW 9524   1.328   3.243   3.714  0.3623 -0.3360 -0.0259
 2370SOL    HW2 9525   1.395   3.201   3.767  0.3640  1.3466  1.3566
 2370SOL    HW3 9526   1.246   3.202   3.742  0.7608 -2.3321 -1.6580
 2370SOL    MW4 9527   1.326   3.232   3.725  0.4151 -0.3772 -0.0587
 2371SOL     OW 9528   0.701   2.578   4.522 -0.1386  0.4579 -0.2380
 2371SOL    HW2 9529   0.712   2.586   4.427  1.0084  0.3586 -0.1184
 2371SOL    HW3 9530   0.712   2.485   4.540  1.1333  0.6809  0.1723
 2371SOL    MW4 9531   0.704   2.567   4.512  0.1805  0.4740 -0.1683
 2372SOL     OW 9532   4.009   4.099   4.500  0.1965 -0.5042 -0.0467
 2372SOL    HW2 9533   4.000   4.194   4.511  0.0157 -0.5334  0.0700
 2372SOL    HW3 9534   4.103   4.084   4.495  0.2905 -0.4750  1.3479
 2372SOL    MW4 9535   4.020   4.110   4.501  0.1850 -0.5040  0.1526
 2373SOL     OW 9536   0.956   3.988   4.526  0.1787 -0.0793 -0.1200
 2373SOL    HW2 9537   0.904   3.989   4.446  0.5168  1.2109 -0.3287
 2373SOL    HW3 9538   0.941   3.901   4.563 -0.7026 -0.3551 -1.1064
 2373SOL    MW4 9539   0.947   3.977   4.520  0.1070  0.0546 -0.2770
 2374SOL     OW 9540   4.104   0.355   3.887 -0.2768  0.1252  0.2743
 2374SOL    HW2 9541   4.178   0.396   3.843 -0.3596  0.1490  0.1549
 2374SOL    HW3 9542   4.028   0.407   3.858 -0.6403 -1.3147 -1.4335
 2374SOL    MW4 9543   4.104   0.367   3.877 -0.3362 -0.0617  0.0331
 2375SOL     OW 9544   3.472   3.347   4.460 -0.2498 -0.1435 -0.4046
 2375SOL    HW2 9545   3.564   3.355   4.485 -0.1363  0.8150 -1.1231
 2375SOL    HW3 9546   3.470   3.273   4.399 -0.1457 -0.9036  0.4897
 2375SOL    MW4 9547   3.484   3.338   4.455 -0.2210 -0.1173 -0.3815
 2376SOL     OW 9548   2.328   0.299   4.089 -0.0924  0.4355  0.4317
 2376SOL    HW2 9549   2.311   0.319   3.997  0.5317  1.4073  0.5120
 2376SOL    HW3 9550   2.347   0.205   4.090  0.3631  0.5034 -0.5064
 2376SOL    MW4 9551   2.328   0.290   4.077  0.0503  0.5727  0.3190
 2377SOL     OW 9552   3.775   1.301   3.777  0.0639  0.0815  0.1885
 2377SOL    HW2 9553   3.863   1.278   3.806 -0.4221 -0.1977  1.4469
 2377SOL    HW3 9554   3.718   1.240   3.823 -0.6356 -1.2529 -2.3437
 2377SOL    MW4 9555   3.779   1.290   3.787 -0.0925 -0.1314  0.0203
 2378SOL     OW 9556   2.196   2.680   3.805  0.4686  0.1676  0.0885
 2378SOL    HW2 9557   2.120   2.731   3.775  1.1733  0.1168 -1.8557
 2378SOL    HW3 9558   2.195   2.601   3.750  2.0041  0.2323 -0.0554
 2378SOL    MW4 9559   2.185   2.676   3.794  0.7641  0.1693 -0.1869
 2379SOL     OW 9560   0.260   3.483   4.340  0.0795  0.4044  0.6646
 2379SOL    HW2 9561   0.187   3.422   4.346 -0.5165  1.1335  0.9859
 2379SOL    HW3 9562   0.233   3.558   4.393  0.2216  1.5255 -0.8142
 2379SOL    MW4 9563   0.247   3.485   4.348  0.0196  0.6483  0.5116
 2380SOL     OW 9564   2.646   1.941   3.818 -0.1034 -0.2188  0.2359
 2380SOL    HW2 9565   2.723   1.991   3.790  0.1919 -1.3299 -0.9934
 2380SOL    HW3 9566   2.671   1.904   3.902 -0.3987  1.8449  1.2528
 2380SOL    MW4 9567   2.660   1.943   3.825 -0.1035 -0.0931  0.2081
 2381SOL     OW 9568   2.504   1.823   4.573 -0.5179  0.3432 -0.2964
 2381SOL    HW2 9569   2.585   1.865   4.601  0.4583 -0.5367 -1.7180
 2381SOL    HW3 9570   2.479   1.872   4.494 -0.8757  0.0329 -0.3730
 2381SOL    MW4 9571   2.511   1.835   4.566 -0.4363  0.1861 -0.4945
 2382SOL     OW 9572   2.390   3.338   4.400 -0.1313  0.0069  0.0166
 2382SOL    HW2 9573   2.319   3.325   4.337  0.5148  0.9353 -0.9035
 2382SOL    HW3 9574   2.346   3.352   4.484 -1.0418  1.2786 -0.6767
 2382SOL    MW4 9575   2.375   3.338   4.403 -0.1664  0.2973 -0.1960
 2383SOL     OW 9576   1.131   0.773   3.826 -0.1946 -0.0143  0.0678
 2383SOL    HW2 9577   1.206   0.831   3.810 -0.9728  0.8437 -0.5035
 2383SOL    HW3 9578   1.055   0.822   3.795 -1.1471 -0.4345  1.6678
 2383SOL    MW4 9579   1.131   0.787   3.820 -0.4228  0.0435  0.2034
 2384SOL     OW 9580   3.222   2.424   4.042  0.0911  0.4582  0.4663
 2384SOL    HW2 9581   3.266   2.356   4.092  1.1499  0.0932 -0.9174
 2384SOL    HW3 9582   3.130   2.398   4.042  0.1293  0.3179  1.9577
 2384SOL    MW4 9583   3.215   2.412   4.048  0.2360  0.3912  0.4807
 2385SOL     OW 9584   2.883   0.765   4.140 -0.1468  0.4237  0.1368
 2385SOL    HW2 9585   2.839   0.693   4.184  0.3276 -0.9299 -1.5530
 2385SOL    HW3 9586   2.977   0.748   4.152  0.0279 -0.7266 -2.5029
 2385SOL    MW4 9587   2.890   0.754   4.147 -0.0610  0.0933 -0.4344
 2386SOL     OW 9588   2.453   3.096   3.787 -0.0852 -0.2350  0.0653
 2386SOL    HW2 9589   2.431   3.004   3.780  1.1587 -0.5834  0.5891
 2386SOL    HW3 9590   2.372   3.142   3.765 -1.0515 -1.4603  1.0136
 2386SOL    MW4 9591   2.440   3.090   3.783 -0.0486 -0.4425  0.2594
 2387SOL     OW 9592   3.633   0.898   3.762 -0.4911  0.1030 -0.1681
 2387SOL    HW2 9593   3.722   0.869   3.783 -1.0859 -0.8668  1.0524
 2387SOL    HW3 9594   3.628   0.894   3.666  0.5185 -0.6089 -0.1939
 2387SOL    MW4 9595   3.644   0.894   3.752 -0.4363 -0.1189 -0.0105
 2388SOL     OW 9596   2.708   3.224   4.191 -0.1899  0.1516 -0.1886
 2388SOL    HW2 9597   2.658   3.291   4.144 -0.4174 -0.4434 -0.8087
 2388SOL    HW3 9598   2.643   3.157   4.213  0.0173  0.1771  0.5126
 2388SOL    MW4 9599   2.693   3.224   4.188 -0.1924  0.0763 -0.1779
 2389SOL     OW 9600   1.084   3.671   3.744 -0.2383 -0.3244 -0.5054
 2389SOL    HW2 9601   1.006   3.617   3.758  0.0442 -0.3791  0.9286
 2389SOL    HW3 9602   1.157   3.615   3.771  0.1320  0.4438  0.1207
 2389SOL    MW4 9603   1.084   3.656   3.750 -0.1522 -0.2303 -0.2337
 2390SOL     OW 9604   2.016   1.335   3.747  0.2984  0.0317 -0.3429
 2390SOL    HW2 9605   2.062   1.419   3.747 -0.4991  0.4685 -0.0195
 2390SOL    HW3 9606   2.080   1.272   3.781  0.5453  0.6973  0.4243
 2390SOL    MW4 9607   2.031   1.338   3.751  0.2258  0.1771 -0.1991
 2391SOL     OW 9608   2.624   3.441   4.043  0.4679 -0.2576 -0.4553
 2391SOL    HW2 9609   2.529   3.441   4.046  0.4667  1.6957  0.3381
 2391SOL    HW3 9610   2.645   3.434   3.950 -0.4492 -0.3096 -0.6630
 2391SOL    MW4 9611   2.615   3.440   4.031  0.3467 -0.0067 -0.3772
 2392SOL     OW 9612   1.741   0.333   4.457 -0.1569  0.4613 -0.1350
 2392SOL    HW2 9613   1.770   0.406   4.512 -0.7879 -1.0017  2.2208
 2392SOL    HW3 9614   1.700   0.374   4.381 -0.8736  2.5706  1.3613
 2392SOL    MW4 9615   1.739   0.348   4.454 -0.3349  0.5466  0.3729
 2393SOL     OW 9616   2.051   2.545   4.019 -0.7038 -0.0217 -0.0958
 2393SOL    HW2 9617   1.965   2.512   3.994 -0.1929 -1.5154  0.0579
 2393SOL    HW3 9618   2.082   2.592   3.942 -1.7290  0.7209 -0.0772
 2393SOL    MW4 9619   2.044   2.547   4.006 -0.7718 -0.1209 -0.0730
 2394SOL     OW 9620   4.049   3.968   3.757 -0.3195  0.2735  0.1748
 2394SOL    HW2 9621   4.126   3.920   3.787 -0.2924  0.3264  0.1871
 2394SOL    HW3 9622   4.051   3.959   3.661 -0.2018  0.4259  0.1636
 2394SOL    MW4 9623   4.059   3.960   3.748 -0.3009  0.3006  0.1748
 2395SOL     OW 9624   2.356   3.975   4.454 -0.2272 -0.1543  0.1686
 2395SOL    HW2 9625   2.270   4.011   4.435  0.8431  1.7823 -1.2384
 2395SOL    HW3 9626   2.410   4.052   4.474  0.6243 -1.5244  3.4084
 2395SOL    MW4 9627   2.352   3.990   4.454  0.0262 -0.0796  0.4106
 2396SOL     OW 9628   0.679   1.611   4.442  0.1952 -0.1596 -0.4660
 2396SOL    HW2 9629   0.677   1.642   4.532 -0.2600 -0.9339 -0.2125
 2396SOL    HW3 9630   0.768   1.630   4.412 -0.3627  2.3822 -0.6623
 2396SOL    MW4 9631   0.690   1.618   4.450  0.0615  0.0737 -0.4582
 2397SOL     OW 9632   0.833   4.528   4.850  0.8406 -0.1150 -0.0513
 2397SOL    HW2 9633   0.904   4.482   4.807 -0.6004 -2.0938 -0.3500
 2397SOL    HW3 9634   0.834   4.495   4.940  0.0091 -0.5076 -0.1815
 2397SOL    MW4 9635   0.843   4.518   4.857  0.5409 -0.4277 -0.1082
 2398SOL     OW 9636   0.623   3.626   3.736  0.0864 -0.4017  0.3893
 2398SOL    HW2 9637   0.589   3.633   3.647  1.4258 -0.0055 -0.1006
 2398SOL    HW3 9638   0.563   3.566   3.780 -0.3252 -0.9586 -0.9124
 2398SOL    MW4 9639   0.611   3.619   3.730  0.2089 -0.4230  0.1528
 2399SOL     OW 9640   3.014   0.272   4.292 -0.3526 -0.0958  0.0438
 2399SOL    HW2 9641   3.020   0.185   4.331 -2.8117 -0.5945 -0.5816
 2399SOL    HW3 9642   3.027   0.332   4.365  4.1428 -0.8975  0.0212
 2399SOL    MW4 9643   3.017   0.268   4.307 -0.0842 -0.2674 -0.0420
 2400SOL     OW 9644   1.067   3.580   4.454 -0.0595  0.0147 -0.3802
 2400SOL    HW2 9645   1.153   3.542   4.470 -0.3894 -1.2551 -1.5383
 2400SOL    HW3 9646   1.007   3.505   4.453 -0.8547  0.6423 -1.8220
 2400SOL    MW4 9647   1.070   3.565   4.456 -0.2079 -0.0703 -0.7234
 2401SOL     OW 9648   4.372   2.349   4.344 -0.3723 -0.0686 -0.3753
 2401SOL    HW2 9649   4.407   2.438   4.336  0.9814 -0.6533 -1.1572
 2401SOL    HW3 9650   4.328   2.334   4.261 -0.4788 -0.1808 -0.2975
 2401SOL    MW4 9651   4.371   2.359   4.332 -0.2074 -0.1609 -0.4678
 2402SOL     OW 9652   3.330   1.979   4.499  0.1498 -0.0430 -0.7985
 2402SOL    HW2 9653   3.331   1.927   4.580  0.5122  0.8063 -0.2545
 2402SOL    HW3 9654   3.365   1.919   4.433 -0.1688 -0.7542 -0.3411
 2402SOL    MW4 9655   3.335   1.964   4.501  0.1554 -0.0248 -0.6657
 2403SOL     OW 9656   0.467   0.639   4.782  0.0424  0.5186  0.7111
 2403SOL    HW2 9657   0.481   0.551   4.817 -0.6990 -0.2246 -0.8050
 2403SOL    HW3 9658   0.376   0.639   4.754  0.4738  1.2503 -0.7443
 2403SOL    MW4 9659   0.457   0.628   4.783  0.0015  0.5171  0.3190
 2404SOL     OW 9660   0.109   2.174   4.278 -0.0074  0.0332  0.0312
 2404SOL    HW2 9661   0.036   2.232   4.299  0.6644  0.4498  1.2951
 2404SOL    HW3 9662   0.069   2.098   4.237 -1.1583  0.2147  0.7965
 2404SOL    MW4 9663   0.094   2.172   4.275 -0.0706  0.1123  0.2985
 2405SOL     OW 9664   3.950   1.331   4.317  0.1658  0.0388 -0.6468
 2405SOL    HW2 9665   3.978   1.257   4.263 -1.5010 -0.1536 -1.2714
 2405SOL    HW3 9666   3.885   1.294   4.377  0.7750  0.6011  0.3868
 2405SOL    MW4 9667   3.945   1.317   4.318  0.0260  0.0876 -0.5932
 2406SOL     OW 9668   1.703   1.611   4.399  0.7848 -0.1951 -0.1507
 2406SOL    HW2 9669   1.779   1.579   4.349  1.5425  0.6222  0.4458
 2406SOL    HW3 9670   1.675   1.690   4.352  1.2511  0.3510  0.4667
 2406SOL    MW4 9671   1.710   1.617   4.386  0.9463 -0.0153  0.0091
 2407SOL     OW 9672   0.248   0.928   4.051 -0.0517  0.2068 -0.2799
 2407SOL    HW2 9673   0.261   0.846   4.097 -0.0829 -0.6465 -1.7734
 2407SOL    HW3 9674   0.330   0.975   4.063  0.0973 -0.1825  0.2651
 2407SOL    MW4 9675   0.260   0.924   4.059 -0.0362  0.0429 -0.4053
 2408SOL     OW 9676   0.999   1.356   4.285  0.7912 -0.1814 -0.6098
 2408SOL    HW2 9677   1.019   1.263   4.293  1.3199  0.0657  1.1771
 2408SOL    HW3 9678   1.070   1.391   4.232  1.2707 -0.5820 -0.2411
 2408SOL    MW4 9679   1.011   1.348   4.279  0.9242 -0.2018 -0.3257
 2409SOL     OW 9680   3.618   0.587   4.274 -0.2165  0.4275 -0.3165
 2409SOL    HW2 9681   3.539   0.582   4.220 -1.2428  0.9333  1.0912
 2409SOL    HW3 9682   3.666   0.662   4.241 -0.2759  0.0683 -1.2371
 2409SOL    MW4 9683   3.614   0.596   4.263 -0.3600  0.4469 -0.2527
 2410SOL     OW 9684   0.415   3.538   4.115  0.0538 -0.1140 -0.4050
 2410SOL    HW2 9685   0.485   3.595   4.148 -0.2780 -0.2324  0.5186
 2410SOL    HW3 9686   0.368   3.509   4.193 -1.2182  0.1991 -1.0321
 2410SOL    MW4 9687   0.418   3.542   4.130 -0.1578 -0.0882 -0.3657
 2411SOL     OW 9688   3.155   0.407   3.870  0.4645 -0.1440 -0.2232
 2411SOL    HW2 9689   3.233   0.440   3.826 -0.1587 -0.0027 -1.2156
 2411SOL    HW3 9690   3.141   0.320   3.833  0.0202 -0.0803 -0.2040
 2411SOL    MW4 9691   3.164   0.400   3.860  0.3238 -0.1169 -0.3514
 2412SOL     OW 9692   3.784   3.407   4.230 -0.1641 -0.2967 -0.3899
 2412SOL    HW2 9693   3.796   3.314   4.214 -1.8968 -0.5851 -0.1902
 2412SOL    HW3 9694   3.699   3.427   4.190  0.1661  1.1847 -0.3903
 2412SOL    MW4 9695   3.774   3.398   4.223 -0.3490 -0.1392 -0.3638
 2413SOL     OW 9696   2.170   0.844   4.432 -0.1292  0.1449 -0.2773
 2413SOL    HW2 9697   2.085   0.857   4.388  0.2979 -0.5633 -1.3432
 2413SOL    HW3 9698   2.183   0.923   4.483 -1.7606 -0.0181  0.4386
 2413SOL    MW4 9699   2.160   0.856   4.433 -0.2882  0.0299 -0.3233
 2414SOL     OW 9700   2.461   3.585   3.693 -0.2035  0.9717  0.2355
 2414SOL    HW2 9701   2.469   3.590   3.598 -0.3293  1.9389  0.2733
 2414SOL    HW3 9702   2.473   3.675   3.723  0.4239  0.5786  1.1776
 2414SOL    MW4 9703   2.464   3.598   3.684 -0.1373  1.0476  0.3645
 2415SOL     OW 9704   4.486   2.428   3.760 -0.0865  0.2358 -0.4232
 2415SOL    HW2 9705   4.461   2.516   3.790  0.4083 -0.2814  1.5991
 2415SOL    HW3 9706   4.409   2.374   3.777  0.2299 -0.0827  0.0114
 2415SOL    MW4 9707   4.473   2.433   3.766  0.0205  0.1256 -0.0994
 2416SOL     OW 9708   2.945   4.348   3.694  0.0372 -0.1129  0.2057
 2416SOL    HW2 9709   2.921   4.436   3.723 -0.4137 -0.8068  2.0094
 2416SOL    HW3 9710   3.015   4.322   3.753  0.2546 -0.9149 -0.4003
 2416SOL    MW4 9711   2.951   4.356   3.705  0.0062 -0.3104  0.3636
 2417SOL     OW 9712   3.854   0.759   3.864 -0.2663 -0.4652 -1.0037
 2417SOL    HW2 9713   3.933   0.810   3.844 -0.2361 -0.4965 -0.9628
 2417SOL    HW3 9714   3.840   0.772   3.958 -0.0636 -0.8159 -0.9276
 2417SOL    MW4 9715   3.862   0.768   3.874 -0.2356 -0.5156 -0.9882
 2418SOL     OW 9716   3.266   2.239   4.439  0.2735 -0.1193 -0.2154
 2418SOL    HW2 9717   3.312   2.232   4.356 -1.3442 -2.0839 -0.9842
 2418SOL    HW3 9718   3.249   2.149   4.465 -0.1736  0.4939  1.7266
 2418SOL    MW4 9719   3.269   2.226   4.432  0.0007 -0.2978 -0.0601
 2419SOL     OW 9720   0.645   0.017   4.097 -0.0431 -0.0812 -0.3361
 2419SOL    HW2 9721   0.722  -0.031   4.128  0.3245 -0.3125 -1.5642
 2419SOL    HW3 9722   0.575  -0.009   4.157  0.6205 -0.6033  0.2241
 2419SOL    MW4 9723   0.646   0.007   4.109  0.0930 -0.1806 -0.4244
 2420SOL     OW 9724   1.199   4.012   4.398  0.7064 -0.0041 -0.2388
 2420SOL    HW2 9725   1.173   3.972   4.315  1.6256 -0.2684 -0.3975
 2420SOL    HW3 9726   1.125   3.993   4.457 -0.0898  0.4648 -1.0760
 2420SOL    MW4 9727   1.186   4.004   4.395  0.7225  0.0224 -0.3705
 2421SOL     OW 9728   3.627   2.350   4.129 -0.1420 -0.2158 -0.6130
 2421SOL    HW2 9729   3.623   2.435   4.172  0.4118 -0.7743  0.5647
 2421SOL    HW3 9730   3.667   2.368   4.044  1.5190  0.4450  0.2913
 2421SOL    MW4 9731   3.632   2.363   4.124  0.1502 -0.2024 -0.3381
 2422SOL     OW 9732   2.856   2.798   4.495  0.3270  0.0071 -0.0184
 2422SOL    HW2 9733   2.862   2.762   4.407  0.6067  0.2335 -0.0921
 2422SOL    HW3 9734   2.923   2.752   4.545  0.1170 -0.1764  0.0956
 2422SOL    MW4 9735   2.865   2.787   4.490  0.3364  0.0129 -0.0129
 2423SOL     OW 9736   0.790   1.438   4.081 -0.0657 -0.1876 -0.1504
 2423SOL    HW2 9737   0.858   1.452   4.147  0.1100 -0.6960 -0.2242
 2423SOL    HW3 9738   0.708   1.443   4.130  0.0196  0.4747 -0.0685
 2423SOL    MW4 9739   0.788   1.440   4.096 -0.0313 -0.1674 -0.1493
 2424SOL     OW 9740   4.269   2.308   3.841  0.0015 -0.2206 -0.0757
 2424SOL    HW2 9741   4.240   2.289   3.930 -2.3391  1.6046 -0.4036
 2424SOL    HW3 9742   4.279   2.222   3.800  0.5056 -1.0540  1.7331
 2424SOL    MW4 9743   4.267   2.294   3.847 -0.2408 -0.0896  0.1199
 2425SOL     OW 9744   2.581   1.485   4.072  0.1972  0.2033  0.1936
 2425SOL    HW2 9745   2.546   1.508   3.986 -1.5259 -0.0262  0.8090
 2425SOL    HW3 9746   2.568   1.564   4.125 -0.0694 -0.1328  0.6317
 2425SOL    MW4 9747   2.574   1.499   4.067 -0.0651  0.1287  0.3328
 2426SOL     OW 9748   0.410   2.508   4.505  0.2311  0.2137  0.2558
 2426SOL    HW2 9749   0.498   2.530   4.534 -0.3434  0.4659  1.8972
 2426SOL    HW3 9750   0.411   2.412   4.496  0.7019  0.2288  0.1590
 2426SOL    MW4 9751   0.422   2.498   4.508  0.2173  0.2489  0.4601
 2427SOL     OW 9752   2.040   4.378   4.594  0.1214 -0.3751  0.0381
 2427SOL    HW2 9753   2.051   4.366   4.688  1.3554  0.8161  0.0778
 2427SOL    HW3 9754   2.074   4.298   4.555  1.1096 -0.2124  0.5517
 2427SOL    MW4 9755   2.046   4.366   4.601  0.4146 -0.1960  0.1111
 2428SOL     OW 9756   3.703   2.773   4.716  0.0530 -0.2355 -0.1987
 2428SOL    HW2 9757   3.621   2.769   4.766 -0.5677  1.6147 -1.0519
 2428SOL    HW3 9758   3.675   2.785   4.625  1.2566 -0.8651 -0.6696
 2428SOL    MW4 9759   3.688   2.774   4.710  0.1299 -0.0744 -0.3729
 2429SOL     OW 9760   3.877   0.507   3.774 -0.1220  0.5338 -0.2018
 2429SOL    HW2 9761   3.800   0.455   3.796 -0.7999  1.1366 -1.0792
 2429SOL    HW3 9762   3.858   0.594   3.809  0.2476  0.6291 -0.2384
 2429SOL    MW4 9763   3.865   0.511   3.781 -0.1626  0.6258 -0.3223
 2430SOL     OW 9764   1.718   1.041   4.704 -0.2233 -0.0804  0.1613
 2430SOL    HW2 9765   1.714   1.113   4.642  1.6995 -0.8074 -0.8227
 2430SOL    HW3 9766   1.805   1.047   4.744 -0.9175 -0.4465  1.8008
 2430SOL    MW4 9767   1.729   1.052   4.701 -0.0613 -0.2245  0.2475
 2431SOL     OW 9768   3.752   1.868   4.293 -0.2281 -0.5336  0.0512
 2431SOL    HW2 9769   3.760   1.787   4.342  0.9165 -1.1360 -1.1059
 2431SOL    HW3 9770   3.826   1.868   4.233 -0.2120  1.3716  0.0290
 2431SOL    MW4 9771   3.763   1.858   4.291 -0.0751 -0.3617 -0.1040
 2432SOL     OW 9772   0.189   3.822   3.807  0.1882  0.2134 -0.2355
 2432SOL    HW2 9773   0.116   3.884   3.812  0.3153  0.3094  0.4811
 2432SOL    HW3 9774   0.194   3.784   3.894  1.9302  1.2843  0.1533
 2432SOL    MW4 9775   0.180   3.825   3.819  0.4348  0.3672 -0.0896
 2433SOL     OW 9776   4.324   0.518   3.757  0.6365 -0.3315  0.1991
 2433SOL    HW2 9777   4.397   0.464   3.787  0.8509 -0.0534  0.1784
 2433SOL    HW3 9778   4.320   0.504   3.662 -0.7942 -2.1499  0.4838
 2433SOL    MW4 9779   4.333   0.509   3.748  0.4764 -0.5347  0.2337
 2434SOL     OW 9780   0.835   0.081   4.537  0.1732 -0.3416  0.0294
 2434SOL    HW2 9781   0.897   0.137   4.585 -1.3781  0.9330  0.5980
 2434SOL    HW3 9782   0.869  -0.008   4.548  1.2948  0.2241  1.2740
 2434SOL    MW4 9783   0.848   0.077   4.545  0.1165 -0.0988  0.2680
 2435SOL     OW 9784   2.891   2.738   4.225  0.1703 -0.0773  0.0697
 2435SOL    HW2 9785   2.976   2.737   4.182  0.3408  0.9324  0.3623
 2435SOL    HW3 9786   2.850   2.656   4.200  0.4855  0.2437 -1.5645
 2435SOL    MW4 9787   2.896   2.727   4.216  0.2344  0.0985 -0.1068
 2436SOL     OW 9788   0.008   1.953   3.848 -0.2593 -0.7662  0.1098
 2436SOL    HW2 9789   0.094   1.981   3.816 -1.0600  1.2569 -0.3398
 2436SOL    HW3 9790  -0.007   1.869   3.803  0.7993 -0.3865 -0.9960
 2436SOL    MW4 9791   0.018   1.945   3.838 -0.2260 -0.4493 -0.0954
 2437SOL     OW 9792   0.342   3.188   3.998 -0.0118 -0.1493  0.1626
 2437SOL    HW2 9793   0.365   3.278   3.974 -0.5709 -0.1436 -0.3588
 2437SOL    HW3 9794   0.334   3.142   3.914  0.8100 -0.8200  0.4487
 2437SOL    MW4 9795   0.344   3.194   3.984  0.0229 -0.2370  0.1316
 2438SOL     OW 9796   1.319   4.019   3.751  0.6004  0.2493 -0.3871
 2438SOL    HW2 9797   1.320   4.105   3.794  2.5815  0.3164 -0.5031
 2438SOL    HW3 9798   1.303   4.038   3.659 -0.8051  0.3387 -0.1298
 2438SOL    MW4 9799   1.317   4.033   3.745  0.6764  0.2699 -0.3684
 2439SOL     OW 9800   3.348   1.766   4.303  0.8345  0.4564 -0.0828
 2439SOL    HW2 9801   3.389   1.729   4.381 -1.7686  1.2231  1.7258
 2439SOL    HW3 9802   3.335   1.691   4.245  2.4399 -0.1858  0.3594
 2439SOL    MW4 9803   3.352   1.751   4.305  0.7026  0.4728  0.2146
 2440SOL     OW 9804   0.608   3.023   4.688 -0.3492  0.1648 -0.4762
 2440SOL    HW2 9805   0.676   3.050   4.626  0.6954 -1.0485  0.1223
 2440SOL    HW3 9806   0.585   3.104   4.734  1.2442  0.4454 -0.1383
 2440SOL    MW4 9807   0.614   3.038   4.686 -0.0011  0.0417 -0.3524
 2441SOL     OW 9808   4.249   3.042   4.492  0.3628  0.3588 -0.0310
 2441SOL    HW2 9809   4.181   3.042   4.425 -0.6577  1.3128  0.9814
 2441SOL    HW3 9810   4.220   2.976   4.556  1.0504 -0.1628 -0.2558
 2441SOL    MW4 9811   4.236   3.033   4.492  0.3185  0.4156  0.0730
 2442SOL     OW 9812   0.501   2.353   3.692 -0.6779  0.4766  0.2583
 2442SOL    HW2 9813   0.416   2.333   3.729 -0.2664  2.1241  2.1983
 2442SOL    HW3 9814   0.482   2.391   3.606 -1.8022 -0.6778 -0.0082
 2442SOL    MW4 9815   0.488   2.355   3.686 -0.7720  0.5417  0.4792
 2443SOL     OW 9816   3.089   1.169   4.572 -0.0709  0.0104 -0.1906
 2443SOL    HW2 9817   3.076   1.174   4.478 -1.1167 -0.0490 -0.0583
 2443SOL    HW3 9818   3.040   1.244   4.607  2.3239  1.4859  0.1356
 2443SOL    MW4 9819   3.080   1.180   4.565  0.1070  0.1972 -0.1302
 2444SOL     OW 9820   2.279   0.354   3.825 -0.4893 -0.7406  0.4342
 2444SOL    HW2 9821   2.360   0.397   3.798 -1.0237  0.9349  1.4040
 2444SOL    HW3 9822   2.275   0.275   3.772  1.6998 -0.7733  0.2663
 2444SOL    MW4 9823   2.289   0.349   3.815 -0.2708 -0.5239  0.5403
 2445SOL     OW 9824   3.977   3.241   3.462 -0.1329  0.2812  0.4085
 2445SOL    HW2 9825   3.978   3.330   3.426  2.0917 -0.5810 -1.8343
 2445SOL    HW3 9826   4.055   3.199   3.425 -0.0929 -2.0335  2.9391
 2445SOL    MW4 9827   3.987   3.247   3.452  0.1662 -0.1380  0.4463
 2446SOL     OW 9828   2.901   2.084   4.165 -0.6691 -0.0312  0.2341
 2446SOL    HW2 9829   2.919   2.168   4.122  0.2945 -1.0077 -1.2893
 2446SOL    HW3 9830   2.806   2.077   4.164 -0.7647  1.1699  0.5979
 2446SOL    MW4 9831   2.891   2.094   4.159 -0.5546 -0.0014  0.0815
 2447SOL     OW 9832   0.088   4.142   4.534 -0.2576 -0.4692  0.1865
 2447SOL    HW2 9833   0.151   4.077   4.502 -0.9419 -0.6403 -0.8645
 2447SOL    HW3 9834   0.100   4.217   4.475 -0.9355 -0.4552  0.0619
 2447SOL    MW4 9835   0.098   4.143   4.522 -0.4374 -0.4897  0.0310
 2448SOL     OW 9836   3.315   3.621   3.759 -0.1508 -0.2485  0.0564
 2448SOL    HW2 9837   3.339   3.626   3.667 -1.1897 -0.5814 -0.2318
 2448SOL    HW3 9838   3.392   3.582   3.802  0.3432 -0.0555 -0.6581
 2448SOL    MW4 9839   3.329   3.616   3.753 -0.2227 -0.2673 -0.0758
 2449SOL     OW 9840   3.834   4.640   3.849  0.6149 -0.1177  0.4747
 2449SOL    HW2 9841   3.923   4.666   3.822  0.6331 -2.0472 -1.4842
 2449SOL    HW3 9842   3.826   4.549   3.818 -1.7980 -0.1913  1.2711
 2449SOL    MW4 9843   3.845   4.631   3.841  0.2990 -0.3819  0.3211
 2450SOL     OW 9844   1.568   0.738   4.137 -0.1467 -0.2765 -0.2662
 2450SOL    HW2 9845   1.620   0.660   4.161  2.1181  0.4227 -2.6918
 2450SOL    HW3 9846   1.623   0.812   4.164 -0.6619  0.4798 -1.2772
 2450SOL    MW4 9847   1.582   0.737   4.144  0.0842 -0.0845 -0.7200
 2451SOL     OW 9848   3.176   1.137   3.873 -0.1411 -0.6148  0.8698
 2451SOL    HW2 9849   3.201   1.098   3.957 -1.3584 -1.4310  0.8822
 2451SOL    HW3 9850   3.255   1.180   3.841 -0.0203  0.8478  3.0552
 2451SOL    MW4 9851   3.190   1.137   3.880 -0.2859 -0.5295  1.1597
 2452SOL     OW 9852   0.034   1.052   4.182 -0.2312  0.5052 -0.1212
 2452SOL    HW2 9853   0.011   1.127   4.126 -1.9870 -0.7059 -1.0519
 2452SOL    HW3 9854   0.110   1.013   4.139 -0.0828  1.0016 -0.3201
 2452SOL    MW4 9855   0.041   1.057   4.169 -0.4433  0.4108 -0.2704
 2453SOL     OW 9856   3.220   0.401   4.150 -0.0274  1.0215 -0.2999
 2453SOL    HW2 9857   3.150   0.360   4.201 -1.4793  3.7036 -0.0448
 2453SOL    HW3 9858   3.186   0.402   4.060  1.0138 -0.4295 -0.7363
 2453SOL    MW4 9859   3.206   0.396   4.145 -0.0818  1.1839 -0.3238
 2454SOL     OW 9860   4.277   3.835   3.819  0.0906 -0.6597  0.2774
 2454SOL    HW2 9861   4.263   3.841   3.913  0.0895 -0.7483  0.2825
 2454SOL    HW3 9862   4.348   3.897   3.801 -1.5132  1.1616 -0.0136
 2454SOL    MW4 9863   4.285   3.844   3.829 -0.1211 -0.4311  0.2394
 2455SOL     OW 9864   3.932   2.939   4.678 -0.8469 -0.2392 -0.0644
 2455SOL    HW2 9865   3.849   2.905   4.710 -0.9331  0.5977  0.6215
 2455SOL    HW3 9866   3.912   3.029   4.651 -0.3718 -0.3369 -0.7706
 2455SOL    MW4 9867   3.919   2.947   4.678 -0.7954 -0.1421 -0.0672
 2456SOL     OW 9868   0.360   4.445   4.638  0.2129  0.2448  0.0661
 2456SOL    HW2 9869   0.439   4.470   4.685  1.0179 -0.1012 -1.0705
 2456SOL    HW3 9870   0.317   4.381   4.694  0.3466  0.9794  1.0219
 2456SOL    MW4 9871   0.365   4.440   4.651  0.3368  0.2961  0.0415
 2457SOL     OW 9872   1.228   4.597   4.063  0.1339  0.2694  0.1220
 2457SOL    HW2 9873   1.208   4.624   3.973  0.9801 -0.9774 -0.4483
 2457SOL    HW3 9874   1.173   4.654   4.118 -1.3576  0.1544 -1.2324
 2457SOL    MW4 9875   1.218   4.608   4.058  0.0488  0.0896 -0.1321
 2458SOL     OW 9876   2.528   0.433   3.746  0.3916 -0.2189  0.1127
 2458SOL    HW2 9877   2.608   0.386   3.772  0.8308  0.1123 -0.6333
 2458SOL    HW3 9878   2.528   0.428   3.651  0.1221  0.7779  0.0609
 2458SOL    MW4 9879   2.539   0.426   3.737  0.4139 -0.0436  0.0076
 2459SOL     OW 9880   3.366   3.080   4.310  0.3625  0.1276  0.1673
 2459SOL    HW2 9881   3.310   3.120   4.243  0.1210  0.3814  0.5231
 2459SOL    HW3 9882   3.311   3.076   4.388  0.2099 -1.3491  0.0114
 2459SOL    MW4 9883   3.351   3.084   4.311  0.3107 -0.0339  0.1931
 2460SOL     OW 9884   0.731   3.009   4.176  0.1502 -0.5367 -0.2934
 2460SOL    HW2 9885   0.791   2.948   4.220  3.6615  3.1480  0.2835
 2460SOL    HW3 9886   0.764   3.014   4.087 -0.4197  0.1372 -0.4675
 2460SOL    MW4 9887   0.744   3.002   4.170  0.5382  0.0384 -0.2408
 2461SOL     OW 9888   0.227   1.540   3.877 -0.4523 -0.3398  0.1061
 2461SOL    HW2 9889   0.292   1.592   3.831  0.1244 -1.8787 -0.8636
 2461SOL    HW3 9890   0.143   1.578   3.851 -0.1202 -1.0608 -2.0621
 2461SOL    MW4 9891   0.225   1.552   3.868 -0.3324 -0.6380 -0.3080
 2462SOL     OW 9892   1.010   2.357   4.089  0.2897  0.2949  0.1146
 2462SOL    HW2 9893   1.060   2.429   4.051 -0.2635  1.0697  0.8680
 2462SOL    HW3 9894   1.024   2.364   4.183 -1.0912  0.4048  0.3197
 2462SOL    MW4 9895   1.019   2.367   4.096  0.0346  0.4115  0.2413
 2463SOL     OW 9896   4.478   1.673   3.777  0.3639  0.2044 -0.3262
 2463SOL    HW2 9897   4.393   1.632   3.795  0.5545  0.1885  0.5678
 2463SOL    HW3 9898   4.487   1.670   3.682 -0.2742 -0.5270 -0.3646
 2463SOL    MW4 9899   4.468   1.667   3.767  0.3049  0.1057 -0.2134
 2464SOL     OW 9900   2.494   4.447   4.131  0.0755 -0.3482  0.4578
 2464SOL    HW2 9901   2.580   4.426   4.093 -0.2405 -0.2647 -0.3198
 2464SOL    HW3 9902   2.464   4.524   4.083 -1.1299 -1.3162 -0.3901
 2464SOL    MW4 9903   2.501   4.454   4.120 -0.1252 -0.4649  0.2437
 2465SOL     OW 9904   3.373   0.763   3.861  0.9704 -0.5150  0.1402
 2465SOL    HW2 9905   3.302   0.800   3.808  0.9891  0.0019  0.4684
 2465SOL    HW3 9906   3.451   0.813   3.835  1.3533 -1.5007 -0.6776
 2465SOL    MW4 9907   3.374   0.775   3.850  1.0233 -0.5769  0.0758
 2466SOL     OW 9908   2.931   4.621   3.789 -0.1327  0.2266 -0.5844
 2466SOL    HW2 9909   2.852   4.670   3.763 -0.3796 -0.1827 -0.6044
 2466SOL    HW3 9910   3.003   4.681   3.769 -0.4087  0.4330 -0.9795
 2466SOL    MW4 9911   2.930   4.636   3.783 -0.2017  0.2003 -0.6394
 2467SOL     OW 9912   0.453   4.132   4.184 -0.4935  0.3420 -0.3933
 2467SOL    HW2 9913   0.461   4.189   4.107  0.3387  0.3931 -0.2731
 2467SOL    HW3 9914   0.467   4.191   4.258  0.3450 -0.0066 -0.2667
 2467SOL    MW4 9915   0.456   4.147   4.184 -0.2731  0.3028 -0.3610
 2468SOL     OW 9916   3.493   1.380   4.179 -0.4139  0.0983  0.5066
 2468SOL    HW2 9917   3.581   1.419   4.176 -0.2953 -0.1260  0.9408
 2468SOL    HW3 9918   3.510   1.285   4.180 -0.6142  0.0719  1.9383
 2468SOL    MW4 9919   3.507   1.373   4.178 -0.4244  0.0652  0.7524
 2469SOL     OW 9920   4.301   3.568   3.720  0.5450 -0.2380  0.1121
 2469SOL    HW2 9921   4.215   3.530   3.737  0.1841  0.0133 -1.0987
 2469SOL    HW3 9922   4.298   3.654   3.763  0.9582 -1.0717  1.8714
 2469SOL    MW4 9923   4.289   3.575   3.728  0.5522 -0.3150  0.1841
 2470SOL     OW 9924   4.183   1.996   4.240  0.5350 -0.5315 -0.1111
 2470SOL    HW2 9925   4.191   2.013   4.334  0.9850  0.4266 -0.3168
 2470SOL    HW3 9926   4.273   1.995   4.208  0.4216 -1.6566 -0.4023
 2470SOL    MW4 9927   4.196   1.998   4.249  0.5789 -0.5534 -0.1769
 2471SOL     OW 9928   2.196   1.642   3.458  0.1510  0.4235 -0.1867
 2471SOL    HW2 9929   2.198   1.731   3.424  1.1433 -0.3682 -2.3041
 2471SOL    HW3 9930   2.285   1.609   3.443 -0.1897 -0.9186  0.6205
 2471SOL    MW4 9931   2.208   1.649   3.452  0.2367  0.1420 -0.3593
 2472SOL     OW 9932   3.346   2.070   3.760  0.0440 -0.6118  0.1787
 2472SOL    HW2 9933   3.424   2.020   3.783  0.8220 -0.2326 -1.4930
 2472SOL    HW3 9934   3.351   2.077   3.664 -1.8671 -0.3006  0.0960
 2472SOL    MW4 9935   3.357   2.064   3.750 -0.1059 -0.5207 -0.0527
 2473SOL     OW 9936   3.122   0.155   3.759 -0.1337 -0.4497 -0.1882
 2473SOL    HW2 9937   3.135   0.158   3.665 -1.4360 -0.5404 -0.3799
 2473SOL    HW3 9938   3.197   0.104   3.792  0.2879 -0.4738 -1.1701
 2473SOL    MW4 9939   3.134   0.148   3.751 -0.2501 -0.4649 -0.3431
 2474SOL     OW 9940   0.487   1.119   3.840 -0.7339  0.2051 -0.0919
 2474SOL    HW2 9941   0.413   1.177   3.823 -1.5437 -0.5861  0.6600
 2474SOL    HW3 9942   0.484   1.103   3.935  0.3366  0.0791 -0.0706
 2474SOL    MW4 9943   0.477   1.124   3.851 -0.6995  0.0842  0.0098
 2475SOL     OW 9944   2.284   0.204   4.506  0.2407 -0.2702  0.5634
 2475SOL    HW2 9945   2.308   0.150   4.431 -0.8805 -1.2041  0.8722
 2475SOL    HW3 9946   2.218   0.154   4.552 -0.6815  1.2757  0.9647
 2475SOL    MW4 9947   2.278   0.190   4.502 -0.0286 -0.1895  0.6571
 2476SOL     OW 9948   0.227   0.833   3.789 -0.8082  0.6498 -0.0361
 2476SOL    HW2 9949   0.303   0.862   3.739 -0.6341 -0.0421 -0.1796
 2476SOL    HW3 9950   0.236   0.876   3.873 -1.3560  2.2008 -0.7575
 2476SOL    MW4 9951   0.238   0.842   3.793 -0.8575  0.7632 -0.1500
 2477SOL     OW 9952   0.876   0.864   3.739 -0.2836  0.2874  0.0433
 2477SOL    HW2 9953   0.884   0.862   3.644 -1.7107  0.6852 -0.0961
 2477SOL    HW3 9954   0.892   0.955   3.763  1.2220 -0.0388  0.3006
 2477SOL    MW4 9955   0.879   0.875   3.730 -0.2732  0.2968  0.0589
 2478SOL     OW 9956   3.801   3.541   3.813  0.2129  0.5397 -0.1808
 2478SOL    HW2 9957   3.836   3.622   3.849  0.5779  0.1233  0.4031
 2478SOL    HW3 9958   3.877   3.485   3.800 -0.0292  0.3154 -0.6569
 2478SOL    MW4 9959   3.815   3.545   3.816  0.2291  0.4549 -0.1664
 2479SOL     OW 9960   1.189   0.029   3.796 -0.0177  0.0887 -0.2174
 2479SOL    HW2 9961   1.103   0.071   3.789  0.2631  0.9811  1.4335
 2479SOL    HW3 9962   1.172  -0.063   3.778 -1.3833  0.1909  0.4915
 2479SOL    MW4 9963   1.175   0.023   3.792 -0.1608  0.2199  0.0939
 2480SOL     OW 9964   0.970   1.891   3.948  0.4131 -0.2777 -0.0069
 2480SOL    HW2 9965   1.062   1.886   3.975  0.2332  0.7016  0.7912
 2480SOL    HW3 9966   0.963   1.827   3.877  2.1678  1.0425 -1.4006
 2480SOL    MW4 9967   0.982   1.882   3.942  0.6209  0.0257 -0.0851
 2481SOL     OW 9968   3.891   0.252   4.504 -0.6444 -0.3882 -0.3394
 2481SOL    HW2 9969   3.841   0.332   4.519  2.3987  1.7157 -0.9696
 2481SOL    HW3 9970   3.895   0.243   4.409  2.1657  0.8660 -0.3998
 2481SOL    MW4 9971   3.885   0.261   4.493  0.1280  0.0548 -0.4306
 2482SOL     OW 9972   2.849   1.454   4.083  0.3562  0.5116 -0.3530
 2482SOL    HW2 9973   2.756   1.471   4.068  0.3985  0.3736 -0.7914
 2482SOL    HW3 9974   2.851   1.365   4.118  0.3847  0.1839 -1.1648
 2482SOL    MW4 9975   2.837   1.444   4.086  0.3653  0.4501 -0.5183
 2483SOL     OW 9976   2.412   2.829   3.755 -0.1042  0.3300 -0.0375
 2483SOL    HW2 9977   2.406   2.840   3.660  0.4038 -2.0383 -0.3753
 2483SOL    HW3 9978   2.338   2.773   3.778 -0.8693  1.7869  1.1401
 2483SOL    MW4 9979   2.401   2.823   3.746 -0.1383  0.2100  0.0734
 2484SOL     OW 9980   2.889   3.630   3.718  0.0442 -0.2368 -0.1744
 2484SOL    HW2 9981   2.892   3.618   3.623 -1.4860  0.7642 -0.3846
 2484SOL    HW3 9982   2.810   3.583   3.746  0.9967 -1.3035  0.7325
 2484SOL    MW4 9983   2.879   3.622   3.709 -0.0319 -0.2453 -0.0823
 2485SOL     OW 9984   2.981   0.038   4.437  0.2339 -0.5154 -0.3197
 2485SOL    HW2 9985   2.887   0.022   4.449  0.1530 -0.2795 -0.6266
 2485SOL    HW3 9986   3.011  -0.035   4.382  0.3765 -0.9769  0.3550
 2485SOL    MW4 9987   2.973   0.026   4.432  0.2420 -0.5452 -0.2708
 2486SOL     OW 9988   0.401   3.423   3.873  0.1407 -0.3580  0.7001
 2486SOL    HW2 9989   0.335   3.471   3.823 -0.0127  0.1028  1.3426
 2486SOL    HW3 9990   0.411   3.473   3.954  1.0639 -0.5875  0.7320
 2486SOL    MW4 9991   0.394   3.436   3.877  0.2423 -0.3273  0.7892
 2487SOL     OW 9992   3.452   2.912   4.593 -0.2896  0.2052  0.4182
 2487SOL    HW2 9993   3.504   2.977   4.545 -1.6675  0.4318 -0.8126
 2487SOL    HW3 9994   3.372   2.958   4.616 -0.4227 -0.4729  1.3263
 2487SOL    MW4 9995   3.449   2.927   4.590 -0.4890  0.1454  0.3753
 2488SOL     OW 9996   3.974   1.098   4.176 -0.2236  0.2475 -0.0355
 2488SOL    HW2 9997   4.057   1.056   4.200 -0.5704  0.2808  1.2925
 2488SOL    HW3 9998   3.974   1.101   4.081  1.2615  0.1649 -0.0370
 2488SOL    MW4 9999   3.985   1.093   4.167 -0.0734  0.2409  0.1392
 2489SOL     OW10000   2.419   2.728   4.146 -0.3776  0.2015 -0.2411
 2489SOL    HW210001   2.500   2.768   4.115 -0.0271  0.9166  1.5516
 2489SOL    HW310002   2.437   2.634   4.145 -0.1675  0.2410 -1.5643
 2489SOL    MW410003   2.432   2.721   4.142 -0.3037  0.3011 -0.1793
 2490SOL     OW10004   0.738   2.438   4.065 -0.3596 -0.2740  0.0724
 2490SOL    HW210005   0.678   2.376   4.107  0.3642  0.4678  2.2641
 2490SOL    HW310006   0.825   2.400   4.079  0.0063  0.7509  0.5885
 2490SOL    MW410007   0.741   2.425   4.072 -0.2158 -0.0410  0.4301
 2491SOL     OW10008   1.577   0.780   3.855  0.3427  0.5390  0.0213
 2491SOL    HW210009   1.667   0.812   3.849  0.1063  1.2635  0.2929
 2491SOL    HW310010   1.564   0.763   3.949  0.7666 -1.2328 -0.2286
 2491SOL    MW410011   1.587   0.782   3.867  0.3675  0.4008  0.0241
 2492SOL     OW10012   3.825   3.886   4.170  0.0465  0.1660  0.2309
 2492SOL    HW210013   3.818   3.904   4.076  1.3063 -0.1408  0.0694
 2492SOL    HW310014   3.835   3.972   4.211 -1.8909  0.4066  0.2221
 2492SOL    MW410015   3.825   3.900   4.163 -0.0429  0.1574  0.2079
 2493SOL     OW10016   1.089   2.632   4.665  0.2072  0.3843 -0.4047
 2493SOL    HW210017   1.180   2.639   4.694  0.7218  2.1255 -2.3020
 2493SOL    HW310018   1.046   2.710   4.701 -0.6886 -0.7070  0.9441
 2493SOL    MW410019   1.095   2.643   4.674  0.1569  0.4704 -0.4764
 2494SOL     OW10020   4.456   1.949   4.149 -0.1357  0.0750  0.5625
 2494SOL    HW210021   4.441   1.863   4.190  0.7429 -0.6218 -0.5444
 2494SOL    HW310022   4.479   1.928   4.059 -0.1588  1.5035  0.2191
 2494SOL    MW410023   4.457   1.935   4.143 -0.0224  0.1717  0.3710
 2495SOL     OW10024   2.348   3.407   4.024 -0.2586  0.3021 -0.3129
 2495SOL    HW210025   2.322   3.320   4.053  0.9197  0.1840  0.4274
 2495SOL    HW310026   2.296   3.423   3.946 -1.8241 -0.3111  0.5819
 2495SOL    MW410027   2.338   3.398   4.018 -0.3097  0.2055 -0.0973
 2496SOL     OW10028   3.023   3.805   4.114 -0.2193  0.2615  0.4549
 2496SOL    HW210029   2.998   3.737   4.176 -1.2332  0.1996 -0.0168
 2496SOL    HW310030   3.027   3.885   4.165  0.1085  0.0068  0.8313
 2496SOL    MW410031   3.021   3.807   4.129 -0.3097  0.2198  0.4420
 2497SOL     OW10032   4.238   2.036   3.751  0.1771 -0.5206 -0.3895
 2497SOL    HW210033   4.328   2.018   3.777 -0.4355 -1.9077  0.8364
 2497SOL    HW310034   4.238   2.027   3.655  1.4106 -0.1172 -0.4298
 2497SOL    MW410035   4.249   2.032   3.742  0.2589 -0.6504 -0.2329
 2498SOL     OW10036   1.145   3.626   4.183  0.5671 -0.1738  0.6165
 2498SOL    HW210037   1.134   3.607   4.277  0.2816 -0.9278  0.4385
 2498SOL    HW310038   1.123   3.719   4.175  0.3194 -0.1682  1.2576
 2498SOL    MW410039   1.140   3.636   4.195  0.4969 -0.2725  0.6781
 2499SOL     OW10040   1.178   1.514   4.588  0.3985  0.2000 -0.1334
 2499SOL    HW210041   1.091   1.534   4.622  0.5232 -0.8691  0.8315
 2499SOL    HW310042   1.236   1.575   4.633  0.1548  0.9470 -0.8133
 2499SOL    MW410043   1.174   1.525   4.598  0.3828  0.1574 -0.0954
 2500SOL     OW10044   0.922   1.690   4.342 -0.1414 -0.6399  0.0680
 2500SOL    HW210045   1.013   1.662   4.335 -0.0217 -0.0913 -0.5780
 2500SOL    HW310046   0.909   1.748   4.267 -0.6425  0.3457  0.9080
 2500SOL    MW410047   0.932   1.694   4.331 -0.1917 -0.4374  0.0935
 2501SOL     OW10048   3.262   3.135   4.585 -0.3994 -0.0262 -0.3299
 2501SOL    HW210049   3.309   3.217   4.598 -0.9233 -0.0371  1.7905
 2501SOL    HW310050   3.170   3.157   4.602 -0.4988 -1.1105  0.5941
 2501SOL    MW410051   3.256   3.149   4.589 -0.4814 -0.1709  0.0720
 2502SOL     OW10052   0.861   3.008   4.560  0.0034 -0.6686 -0.0737
 2502SOL    HW210053   0.855   2.936   4.623 -0.1936  0.9154  1.7504
 2502SOL    HW310054   0.888   2.966   4.479  1.3084 -2.6257  1.3140
 2502SOL    MW410055   0.864   2.993   4.558  0.1495 -0.7179  0.3500
 2503SOL     OW10056   0.925   4.247   4.172 -0.0943 -0.0702 -0.1270
 2503SOL    HW210057   0.908   4.243   4.078 -1.4518 -2.8456  0.2002
 2503SOL    HW310058   1.016   4.276   4.178 -0.0053  0.2311 -2.2670
 2503SOL    MW410059   0.935   4.250   4.160 -0.2616 -0.3967 -0.3662
 2504SOL     OW10060   1.400   1.689   3.887 -0.0502  0.1991 -0.5166
 2504SOL    HW210061   1.457   1.618   3.858  1.2535  0.8138  0.5162
 2504SOL    HW310062   1.421   1.702   3.979 -0.9322  1.3159 -0.4548
 2504SOL    MW410063   1.410   1.681   3.895  0.0055  0.4274 -0.3722
 2505SOL     OW10064   3.429   0.191   4.549 -0.2011 -0.2808  0.2165
 2505SOL    HW210065   3.511   0.155   4.581 -1.1484 -1.9164  0.8206
 2505SOL    HW310066   3.438   0.190   4.453  0.1613 -1.2183  0.2576
 2505SOL    MW410067   3.441   0.186   4.540 -0.2782 -0.6203  0.3014
 2506SOL     OW10068   2.459   3.802   4.255  0.3206 -0.2527 -0.2381
 2506SOL    HW210069   2.378   3.753   4.239  0.0691 -0.0558  0.4104
 2506SOL    HW310070   2.434   3.869   4.318  0.8975  0.0792 -0.3540
 2506SOL    MW410071   2.445   3.804   4.261  0.3636 -0.1829 -0.1678
 2507SOL     OW10072   3.026   1.868   4.089  0.2237  0.5470 -0.3264
 2507SOL    HW210073   3.074   1.891   4.009  2.2364  1.6004  1.1337
 2507SOL    HW310074   2.974   1.946   4.108 -0.8177  0.0212 -1.0039
 2507SOL    MW410075   3.026   1.882   4.081  0.3517  0.6166 -0.2227
 2508SOL     OW10076   3.749   1.493   4.190 -0.1730 -0.0771 -0.0171
 2508SOL    HW210077   3.819   1.431   4.212  0.0649  0.2061  0.0350
 2508SOL    HW310078   3.771   1.524   4.102 -0.5270 -0.3849 -0.2165
 2508SOL    MW410079   3.761   1.489   4.181 -0.1884 -0.0803 -0.0367
 2509SOL     OW10080   3.890   0.252   4.221 -0.1854  0.2293  0.3914
 2509SOL    HW210081   3.889   0.170   4.173 -0.6279  0.6513 -0.3288
 2509SOL    HW310082   3.975   0.291   4.199  0.3632 -0.3899  1.3596
 2509SOL    MW410083   3.901   0.247   4.212 -0.1717  0.2033  0.4239
 2510SOL     OW10084   0.014   1.355   4.475  0.3757  0.3610 -0.3052
 2510SOL    HW210085  -0.079   1.368   4.493  0.5895  2.5575 -0.6038
 2510SOL    HW310086   0.029   1.400   4.391  2.0625  1.6915  0.6570
 2510SOL    MW410087   0.004   1.363   4.466  0.6266  0.8262 -0.2174
 2511SOL     OW10088   2.097   3.912   4.028  0.2892  0.3503  0.1547
 2511SOL    HW210089   2.073   3.841   4.087  0.4824  0.5541  0.4760
 2511SOL    HW310090   2.192   3.918   4.034  0.2730  0.6532  0.1480
 2511SOL    MW410091   2.106   3.904   4.036  0.3126  0.4170  0.1969
 2512SOL     OW10092   1.459   2.881   3.759 -0.4375 -0.0590  0.0195
 2512SOL    HW210093   1.365   2.863   3.760 -0.5682  0.5353 -0.8811
 2512SOL    HW310094   1.481   2.887   3.666  0.4605 -0.0260  0.2313
 2512SOL    MW410095   1.450   2.880   3.747 -0.3363  0.0238 -0.0710
 2513SOL     OW10096   2.700   0.046   4.409 -0.0297 -0.0578 -0.3608
 2513SOL    HW210097   2.640   0.112   4.443  0.8015 -0.0784  1.1642
 2513SOL    HW310098   2.656  -0.037   4.423 -0.2159  0.0203 -0.4747
 2513SOL    MW410099   2.686   0.044   4.415  0.0553 -0.0502 -0.1750
 2514SOL     OW10100   2.157   2.874   4.371 -0.1016  0.3385  0.0369
 2514SOL    HW210101   2.160   2.886   4.276  0.7921 -0.8548 -0.1076
 2514SOL    HW310102   2.234   2.819   4.390 -1.6428 -1.4988  1.1069
 2514SOL    MW410103   2.168   2.868   4.361 -0.1867 -0.0615  0.1588
 2515SOL     OW10104   3.504   1.091   4.179  0.0708 -0.4661 -0.1248
 2515SOL    HW210105   3.411   1.099   4.163  0.7097  2.1179 -3.0236
 2515SOL    HW310106   3.542   1.070   4.094  2.1962 -0.8755  0.8773
 2515SOL    MW410107   3.497   1.089   4.166  0.4356 -0.1793 -0.3753
 2516SOL     OW10108   3.776   2.817   3.812 -0.4523 -0.1542  0.0996
 2516SOL    HW210109   3.685   2.793   3.834 -1.0580  0.3024 -1.8308
 2516SOL    HW310110   3.782   2.909   3.834 -0.8372  0.1189 -0.9047
 2516SOL    MW410111   3.765   2.826   3.818 -0.5832 -0.0579 -0.2875
 2517SOL     OW10112   3.558   2.515   3.747 -0.3433 -0.2535  0.1601
 2517SOL    HW210113   3.493   2.449   3.771 -3.0985  1.5678 -1.9773
 2517SOL    HW310114   3.572   2.501   3.653  2.3668 -0.6006  0.5983
 2517SOL    MW410115   3.551   2.505   3.738 -0.3493 -0.0591 -0.0639
 2518SOL     OW10116   1.680   0.819   4.538  0.3303 -0.2050  0.7395
 2518SOL    HW210117   1.666   0.900   4.586 -2.8015  0.4376 -1.1381
 2518SOL    HW310118   1.598   0.770   4.548  0.7892 -1.4575 -1.2766
 2518SOL    MW410119   1.667   0.823   4.546 -0.0224 -0.2856  0.2255
 2519SOL     OW10120   2.352   0.902   4.250 -0.4967  0.1140 -0.1523
 2519SOL    HW210121   2.431   0.928   4.298  1.0600 -2.2087 -1.3625
 2519SOL    HW310122   2.290   0.877   4.318  0.0357  1.2809  0.7918
 2519SOL    MW410123   2.354   0.902   4.265 -0.2208 -0.0386 -0.1874
 2520SOL     OW10124   3.851   3.820   3.881 -0.1082 -0.1447 -0.0137
 2520SOL    HW210125   3.923   3.867   3.838 -0.1265  1.3489  1.5494
 2520SOL    HW310126   3.772   3.866   3.853 -0.1619  0.4993  1.1885
 2520SOL    MW410127   3.850   3.832   3.871 -0.1178  0.1373  0.3512
 2521SOL     OW10128   2.554   0.684   4.536 -0.3944 -0.2589 -0.1480
 2521SOL    HW210129   2.472   0.656   4.575 -0.4375 -0.1046 -0.1284
 2521SOL    HW310130   2.533   0.765   4.489 -0.0994  0.1874  0.4796
 2521SOL    MW410131   2.541   0.691   4.535 -0.3612 -0.1796 -0.0625
 2522SOL     OW10132   4.231   2.805   3.713 -0.3659  0.3152  0.2745
 2522SOL    HW210133   4.146   2.778   3.745  0.0219  0.0873  1.1094
 2522SOL    HW310134   4.294   2.770   3.776  0.3512  0.4448 -0.3515
 2522SOL    MW410135   4.228   2.797   3.725 -0.2208  0.3023  0.3021
 2523SOL     OW10136   0.580   0.047   4.467 -0.1827 -0.2890  0.0704
 2523SOL    HW210137   0.553   0.136   4.490 -0.3871 -0.3751  0.1618
 2523SOL    HW310138   0.676   0.049   4.471 -0.2097 -0.3059  0.9589
 2523SOL    MW410139   0.589   0.059   4.471 -0.2132 -0.3026  0.1998
 2524SOL     OW10140   1.922   4.152   4.066  0.2105  0.5214  0.5793
 2524SOL    HW210141   1.874   4.141   4.149 -0.7488  0.5111  0.0264
 2524SOL    HW310142   1.970   4.070   4.056  1.4094  1.0392  1.7969
 2524SOL    MW410143   1.922   4.140   4.076  0.2422  0.5879  0.6671
 2525SOL     OW10144   2.073   0.528   3.717 -0.1619 -0.5872  0.0610
 2525SOL    HW210145   2.147   0.477   3.749 -0.0261  0.1066  0.8719
 2525SOL    HW310146   2.077   0.520   3.622 -0.0467 -1.9435  0.1810
 2525SOL    MW410147   2.083   0.520   3.709 -0.1287 -0.6745  0.1838
 2526SOL     OW10148   2.522   0.472   3.472  0.0145 -0.1615  0.2005
 2526SOL    HW210149   2.595   0.450   3.415 -1.4413 -0.9086 -1.4367
 2526SOL    HW310150   2.503   0.564   3.452  0.9240  0.2338  1.1226
 2526SOL    MW410151   2.529   0.481   3.462 -0.0577 -0.2079  0.1063
 2527SOL     OW10152   0.935   2.184   3.864 -0.0917 -0.1458  0.0902
 2527SOL    HW210153   0.950   2.222   3.950 -1.5836  0.7190 -0.0028
 2527SOL    HW310154   0.942   2.090   3.877 -1.6329 -0.0972  1.4585
 2527SOL    MW410155   0.938   2.177   3.877 -0.4919 -0.0250  0.2582
 2528SOL     OW10156   1.576   2.656   3.851  0.0432 -0.1521 -0.6612
 2528SOL    HW210157   1.549   2.594   3.782 -0.3869 -1.4778  0.6783
 2528SOL    HW310158   1.544   2.741   3.820 -2.0484 -1.0576 -1.0918
 2528SOL    MW410159   1.568   2.659   3.838 -0.2894 -0.4463 -0.5410
 2529SOL     OW10160   1.329   3.268   4.722  0.0881 -0.3287  0.2724
 2529SOL    HW210161   1.239   3.236   4.716 -0.5230  1.0818  1.4002
 2529SOL    HW310162   1.384   3.192   4.703 -1.3426 -1.3051 -0.0004
 2529SOL    MW410163   1.325   3.254   4.719 -0.1812 -0.2716  0.3858
 2530SOL     OW10164   1.303   4.486   4.608 -0.0255  0.5054 -0.0056
 2530SOL    HW210165   1.383   4.533   4.633  0.2879  0.2107 -0.4375
 2530SOL    HW310166   1.326   4.442   4.526 -0.2989 -0.4246  0.4028
 2530SOL    MW410167   1.317   4.486   4.601 -0.0203  0.3428 -0.0086
 2531SOL     OW10168   1.844   3.716   4.415 -0.1238 -0.2882  0.3531
 2531SOL    HW210169   1.862   3.727   4.322  1.5692 -0.4225  0.6501
 2531SOL    HW310170   1.849   3.805   4.451  0.9331 -0.4412  0.5990
 2531SOL    MW410171   1.847   3.730   4.407  0.2389 -0.3259  0.4249
 2532SOL     OW10172   1.409   2.317   4.318  0.3382 -0.2732  0.5716
 2532SOL    HW210173   1.465   2.383   4.358  1.3432 -0.4096 -0.5702
 2532SOL    HW310174   1.320   2.348   4.335  0.7900  1.6030 -0.2801
 2532SOL    MW410175   1.405   2.330   4.325  0.5304 -0.0436  0.3085
 2533SOL     OW10176   3.680   0.095   4.638  0.2775 -0.0328 -0.2735
 2533SOL    HW210177   3.757   0.148   4.614 -0.0900  0.3118 -0.7005
 2533SOL    HW310178   3.689   0.016   4.585  0.4662 -0.0949 -0.1473
 2533SOL    MW410179   3.691   0.092   4.628  0.2539  0.0045 -0.3133
 2534SOL     OW10180   3.647   0.352   3.817  0.4417  0.1570  0.2382
 2534SOL    HW210181   3.654   0.260   3.793  1.8799  0.4486 -0.4735
 2534SOL    HW310182   3.650   0.352   3.913 -0.5104 -0.5976  0.2847
 2534SOL    MW410183   3.648   0.340   3.827  0.5062  0.0959  0.1507
 2535SOL     OW10184   2.819   0.941   4.353 -0.1254  0.1873  0.0574
 2535SOL    HW210185   2.843   0.879   4.284  0.4766  1.2675 -0.7206
 2535SOL    HW310186   2.888   0.930   4.419  0.7632  0.9989 -0.7139
 2535SOL    MW410187   2.832   0.932   4.353  0.0713  0.4370 -0.1469
 2536SOL     OW10188   2.682   1.163   3.880 -0.0053  0.6858  0.4833
 2536SOL    HW210189   2.615   1.195   3.820 -0.1917 -0.5566  0.0260
 2536SOL    HW310190   2.763   1.204   3.850 -0.1797  0.4443 -0.3208
 2536SOL    MW410191   2.684   1.172   3.868 -0.0529  0.4901  0.3171
 2537SOL     OW10192   2.544   4.466   4.409  0.1044  0.0438  0.1902
 2537SOL    HW210193   2.471   4.515   4.447 -1.5533 -2.4083  0.2770
 2537SOL    HW310194   2.527   4.466   4.315  1.1737  1.2764 -0.0237
 2537SOL    MW410195   2.532   4.472   4.402  0.0267 -0.1173  0.1731
 2538SOL     OW10196   0.916   2.844   4.313  0.9159 -0.0948  0.2487
 2538SOL    HW210197   0.962   2.849   4.229  1.0615 -0.2516  0.3171
 2538SOL    HW310198   0.843   2.784   4.297  1.7232 -1.1964  0.5820
 2538SOL    MW410199   0.913   2.837   4.300  1.0416 -0.2606  0.3018
 2539SOL     OW10200   3.785   3.074   3.911 -0.0095  0.2461  0.0114
 2539SOL    HW210201   3.866   3.103   3.869 -0.7372 -0.2067 -1.7715
 2539SOL    HW310202   3.717   3.130   3.872 -0.8660 -1.0124 -0.3432
 2539SOL    MW410203   3.787   3.085   3.900 -0.2184  0.0205 -0.2706
 2540SOL     OW10204   1.122   3.080   3.834  0.2638 -0.3554  0.2319
 2540SOL    HW210205   1.129   3.095   3.928 -0.4792  1.2296  0.0458
 2540SOL    HW310206   1.042   3.125   3.808  0.7508 -0.3181 -1.2569
 2540SOL    MW410207   1.112   3.088   3.843  0.2301 -0.1411  0.0107
 2541SOL     OW10208   3.054   3.412   4.375  0.0088  0.0286 -0.7233
 2541SOL    HW210209   3.003   3.491   4.357 -0.0725 -0.1131 -1.1019
 2541SOL    HW310210   3.078   3.378   4.289  0.4753 -0.0791 -0.5492
 2541SOL    MW410211   3.050   3.418   4.362  0.0596 -0.0043 -0.7505
 2542SOL     OW10212   1.050   2.356   4.600 -0.3508  0.4109 -0.4974
 2542SOL    HW210213   1.055   2.447   4.628 -0.9907  0.3354 -0.1341
 2542SOL    HW310214   0.956   2.338   4.593 -0.2770 -0.7546  1.1887
 2542SOL    MW410215   1.038   2.365   4.603 -0.4256  0.2472 -0.2270
 2543SOL     OW10216   0.929   0.398   3.823  0.1190 -0.2963 -0.4672
 2543SOL    HW210217   0.940   0.407   3.917  0.7498 -1.5603 -0.4191
 2543SOL    HW310218   1.009   0.435   3.786 -0.5220  1.0429 -0.5579
 2543SOL    MW410219   0.941   0.404   3.830  0.1177 -0.2864 -0.4725
 2544SOL     OW10220   2.407   2.303   3.763 -0.0884  0.0454  0.3908
 2544SOL    HW210221   2.482   2.350   3.727 -0.1179 -0.7517 -0.7174
 2544SOL    HW310222   2.333   2.361   3.747 -0.0690 -0.2144 -0.6353
 2544SOL    MW410223   2.407   2.317   3.756 -0.0896 -0.0939  0.1090
 2545SOL     OW10224   2.057   0.594   4.766 -0.3055 -0.0089  0.3101
 2545SOL    HW210225   2.010   0.567   4.845 -1.7254  1.5277  0.0191
 2545SOL    HW310226   1.990   0.597   4.698  0.8026 -0.7759 -0.8271
 2545SOL    MW410227   2.042   0.591   4.767 -0.3469  0.0926  0.1211
 2546SOL     OW10228   3.344   1.114   4.546  0.4441  0.1752 -0.4664
 2546SOL    HW210229   3.374   1.193   4.501  0.0938  0.1291 -0.7822
 2546SOL    HW310230   3.251   1.130   4.563  0.3168 -0.2615 -0.7320
 2546SOL    MW410231   3.335   1.127   4.542  0.3812  0.1116 -0.5431
 2547SOL     OW10232   3.792   0.769   4.601  0.0659 -0.1835 -0.0892
 2547SOL    HW210233   3.758   0.681   4.616 -0.1555  0.0464  0.7997
 2547SOL    HW310234   3.714   0.825   4.601  0.4009  0.3205  1.7750
 2547SOL    MW410235   3.777   0.764   4.603  0.0808 -0.0867  0.2737
 2548SOL     OW10236   1.351   0.891   3.738 -0.2237 -0.3781  0.4669
 2548SOL    HW210237   1.358   0.977   3.779 -0.6702  0.0899 -0.4107
 2548SOL    HW310238   1.424   0.841   3.774 -0.6165  0.0167  1.8148
 2548SOL    MW410239   1.362   0.896   3.748 -0.3343 -0.2643  0.5288
 2549SOL     OW10240   3.055   3.228   3.711 -0.1582 -0.5498  0.0635
 2549SOL    HW210241   3.070   3.312   3.754 -0.7259  0.6133 -1.9231
 2549SOL    HW310242   3.132   3.176   3.731  0.6344  0.7918  0.5443
 2549SOL    MW410243   3.067   3.232   3.719 -0.1285 -0.2191 -0.1352
 2550SOL     OW10244   2.007   3.614   3.676  0.0100  0.0099 -0.3685
 2550SOL    HW210245   1.997   3.700   3.719 -0.7002 -0.4441  0.3957
 2550SOL    HW310246   2.022   3.635   3.584 -0.7403  0.9526 -0.2935
 2550SOL    MW410247   2.008   3.628   3.670 -0.1826  0.0744 -0.2580
 2551SOL     OW10248   2.110   4.141   4.482  0.1069 -0.0037 -0.1846
 2551SOL    HW210249   2.025   4.098   4.483  0.6176 -1.0242  1.5530
 2551SOL    HW310250   2.122   4.168   4.391 -1.0468 -1.9111 -0.9448
 2551SOL    MW410251   2.100   4.139   4.470  0.0219 -0.3901 -0.0553
 2552SOL     OW10252   2.667   2.846   4.092 -0.1002 -0.2728  0.0276
 2552SOL    HW210253   2.684   2.808   4.006 -0.7124  0.5495 -0.4750
 2552SOL    HW310254   2.748   2.834   4.141 -0.3933 -2.5018 -0.0036
 2552SOL    MW410255   2.680   2.839   4.087 -0.2196 -0.4585 -0.0429
 2553SOL     OW10256   4.487   4.017   3.759 -0.2836 -0.7338  0.2863
 2553SOL    HW210257   4.516   4.107   3.771 -1.5420 -0.5034  1.7413
 2553SOL    HW310258   4.494   4.002   3.665  0.6540  0.6273  0.1235
 2553SOL    MW410259   4.492   4.027   3.748 -0.3259 -0.5236  0.4568
 2554SOL     OW10260   0.434   0.358   3.808 -0.2795  0.0361  0.1514
 2554SOL    HW210261   0.507   0.397   3.760 -1.2614 -1.3570 -2.5250
 2554SOL    HW310262   0.361   0.417   3.792 -0.1175  0.6779  1.6844
 2554SOL    MW410263   0.434   0.371   3.800 -0.3877 -0.0630  0.0005
 2555SOL     OW10264   0.469   0.090   3.731 -0.2920  0.2930  0.1955
 2555SOL    HW210265   0.398   0.043   3.774  0.5026 -0.1705  1.0233
 2555SOL    HW310266   0.456   0.181   3.756  0.9048 -0.1229  2.5704
 2555SOL    MW410267   0.458   0.096   3.740 -0.0292  0.1770  0.6182
 2556SOL     OW10268   3.584   2.181   4.514  0.4346  0.1093  0.5911
 2556SOL    HW210269   3.520   2.115   4.488  0.9986  0.1045 -0.8367
 2556SOL    HW310270   3.533   2.246   4.564 -0.8408  0.5097 -1.1913
 2556SOL    MW410271   3.569   2.181   4.517  0.3405  0.1616  0.1678
 2557SOL     OW10272   0.905   3.216   3.747 -0.1683 -0.0343 -0.2437
 2557SOL    HW210273   0.894   3.310   3.760 -0.3501 -0.2567  1.2936
 2557SOL    HW310274   0.885   3.202   3.654 -1.8977  1.1826 -0.0788
 2557SOL    MW410275   0.901   3.227   3.736 -0.4205  0.0968 -0.0188
 2558SOL     OW10276   4.031   3.036   4.305  0.1939 -0.4511  0.0617
 2558SOL    HW210277   3.991   3.075   4.383 -0.1870  0.9886 -0.8328
 2558SOL    HW310278   4.025   2.942   4.319  0.0576 -0.2051  1.7353
 2558SOL    MW410279   4.025   3.029   4.317  0.1259 -0.2286  0.1645
 2559SOL     OW10280   1.340   0.393   4.624 -0.0208 -0.0733 -0.1855
 2559SOL    HW210281   1.254   0.401   4.665  0.4448  0.0863  0.7768
 2559SOL    HW310282   1.360   0.481   4.590 -0.8677 -0.4534 -1.7087
 2559SOL    MW410283   1.332   0.406   4.625 -0.0710 -0.1024 -0.2599
 2560SOL     OW10284   0.776   2.283   4.574  0.1645 -0.1617 -0.1062
 2560SOL    HW210285   0.743   2.220   4.639  0.3752  0.1751  0.3339
 2560SOL    HW310286   0.820   2.229   4.508  0.4250 -0.4715  0.3166
 2560SOL    MW410287   0.777   2.268   4.574  0.2267 -0.1581  0.0076
 2561SOL     OW10288   0.724   4.200   4.740  0.0598 -0.4449  0.5263
 2561SOL    HW210289   0.714   4.205   4.645  0.5350 -0.6917  0.4588
 2561SOL    HW310290   0.818   4.186   4.753  0.3772  2.1255  1.1325
 2561SOL    MW410291   0.735   4.199   4.729  0.1643 -0.1383  0.5970
 2562SOL     OW10292   1.788   0.138   3.747 -0.4041 -0.0127  0.3772
 2562SOL    HW210293   1.804   0.230   3.769 -1.1214 -0.1023  1.3112
 2562SOL    HW310294   1.871   0.095   3.767  0.0582  0.4846 -0.4240
 2562SOL    MW410295   1.801   0.145   3.753 -0.4377  0.0411  0.3946
 2563SOL     OW10296   3.601   0.088   3.779 -0.1355  0.1501 -0.0537
 2563SOL    HW210297   3.591   0.089   3.684  0.4250  0.8496 -0.1109
 2563SOL    HW310298   3.681   0.038   3.794 -0.3065 -0.0923  0.0653
 2563SOL    MW410299   3.610   0.081   3.768 -0.0842  0.2104 -0.0455
 2564SOL     OW10300   3.137   2.698   4.097  0.1287 -0.2406 -0.6126
 2564SOL    HW210301   3.162   2.751   4.021 -2.0356 -0.1495 -1.3022
 2564SOL    HW310302   3.159   2.609   4.072  0.7739 -0.0428 -0.7580
 2564SOL    MW410303   3.143   2.693   4.083 -0.0720 -0.2022 -0.7224
 2565SOL     OW10304   1.283   4.317   4.372  0.9628 -0.3571  0.3973
 2565SOL    HW210305   1.242   4.332   4.286  0.1179  0.6539  0.9712
 2565SOL    HW310306   1.244   4.235   4.402  1.6986 -1.0321 -0.4271
 2565SOL    MW410307   1.272   4.308   4.364  0.9484 -0.3123  0.3643
 2566SOL     OW10308   3.133   4.254   4.187  0.4288 -0.3703  0.3394
 2566SOL    HW210309   3.212   4.205   4.210 -0.2085 -1.1652  0.8689
 2566SOL    HW310310   3.141   4.337   4.235  1.5514  0.1063 -0.6319
 2566SOL    MW410311   3.144   4.259   4.196  0.4928 -0.4125  0.2809
 2567SOL     OW10312   0.659   2.001   4.562 -0.2620 -0.7633  0.2339
 2567SOL    HW210313   0.752   1.989   4.543 -0.0758  0.1041  0.6060
 2567SOL    HW310314   0.614   1.948   4.496  0.4939 -1.3276  0.1619
 2567SOL    MW410315   0.665   1.992   4.551 -0.1376 -0.7235  0.2737
 2568SOL     OW10316   0.216   0.065   4.150 -0.7324 -0.5042 -0.0697
 2568SOL    HW210317   0.242   0.155   4.174 -0.1617 -0.2602 -1.5601
 2568SOL    HW310318   0.147   0.043   4.212 -0.4832  0.7621  0.6800
 2568SOL    MW410319   0.210   0.074   4.162 -0.6243 -0.3049 -0.1678
 2569SOL     OW10320   2.707   0.085   3.725  0.3194 -0.3458 -0.1427
 2569SOL    HW210321   2.735   0.172   3.751 -0.2247 -0.3036  0.3079
 2569SOL    HW310322   2.725   0.081   3.631  0.8636  0.0477 -0.0570
 2569SOL    MW410323   2.713   0.096   3.716  0.3195 -0.2883 -0.0722
 2570SOL     OW10324   3.158   0.785   4.223 -0.1816 -1.0929  0.1158
 2570SOL    HW210325   3.230   0.728   4.196  0.5739 -0.3405  0.5308
 2570SOL    HW310326   3.150   0.769   4.317  2.1753  1.8413  0.8837
 2570SOL    MW410327   3.167   0.775   4.232  0.2291 -0.6065  0.2718
 2571SOL     OW10328   3.698   2.478   4.628  0.0201  0.0599 -0.0978
 2571SOL    HW210329   3.608   2.469   4.597 -0.5681  0.7468  1.3616
 2571SOL    HW310330   3.703   2.567   4.663  0.9639 -0.3186  0.7700
 2571SOL    MW410331   3.687   2.489   4.628  0.0670  0.1006  0.2089
 2572SOL     OW10332   0.446   1.490   4.673 -0.0182 -0.0310  0.1576
 2572SOL    HW210333   0.492   1.550   4.731 -0.0465  1.0065 -0.8626
 2572SOL    HW310334   0.354   1.518   4.677  0.1543  0.8026 -1.2563
 2572SOL    MW410335   0.440   1.502   4.681  0.0008  0.2159 -0.1631
 2573SOL     OW10336   3.937   2.364   4.164 -0.5225 -0.2947  0.2829
 2573SOL    HW210337   3.908   2.367   4.255  1.4814 -2.8200  1.0480
 2573SOL    HW310338   3.865   2.322   4.117 -1.5844  1.0680  0.6753
 2573SOL    MW410339   3.924   2.359   4.170 -0.3982 -0.4480  0.4358
 2574SOL     OW10340   4.000   3.448   4.071 -0.1540  0.2822  0.2847
 2574SOL    HW210341   3.913   3.442   4.109 -0.1272 -0.1972  0.2666
 2574SOL    HW310342   4.055   3.396   4.130 -0.2042 -0.9015 -0.7131
 2574SOL    MW410343   3.996   3.440   4.084 -0.1571  0.0629  0.1497
 2575SOL     OW10344   3.506   3.948   4.450 -0.2095 -0.0853 -0.2728
 2575SOL    HW210345   3.570   3.885   4.419 -0.6290 -0.5181 -0.2643
 2575SOL    HW310346   3.534   3.969   4.539 -1.5826 -2.3218  0.7389
 2575SOL    MW410347   3.518   3.943   4.458 -0.4461 -0.4375 -0.1383
 2576SOL     OW10348   4.382   0.305   4.527  0.1172  0.0080  0.2351
 2576SOL    HW210349   4.299   0.322   4.571 -0.0927 -1.4031  0.4218
 2576SOL    HW310350   4.358   0.294   4.435  0.1800  0.2253  0.1927
 2576SOL    MW410351   4.368   0.306   4.521  0.0978 -0.1495  0.2546
 2577SOL     OW10352   4.163   2.794   4.597  0.2652  0.4240 -0.2867
 2577SOL    HW210353   4.084   2.827   4.639  0.4295  0.6529 -0.1542
 2577SOL    HW310354   4.165   2.700   4.620  0.2571  0.5075  0.0683
 2577SOL    MW410355   4.153   2.786   4.606  0.2856  0.4654 -0.2222
 2578SOL     OW10356   2.244   4.210   3.794 -0.2687 -0.2446 -0.6483
 2578SOL    HW210357   2.170   4.256   3.755 -0.2028  0.4105 -0.0271
 2578SOL    HW310358   2.239   4.234   3.887  0.0037 -1.1778 -0.3908
 2578SOL    MW410359   2.233   4.219   3.801 -0.2241 -0.2818 -0.5324
 2579SOL     OW10360   2.988   4.039   4.259 -0.2548 -1.0558 -0.3247
 2579SOL    HW210361   3.047   4.112   4.241  1.5077 -1.9788  1.5627
 2579SOL    HW310362   2.901   4.080   4.263  0.6613  0.8891  0.3615
 2579SOL    MW410363   2.984   4.054   4.257  0.0985 -0.9212  0.0148
 2580SOL     OW10364   1.485   3.268   4.382  0.0270 -0.1930 -0.0773
 2580SOL    HW210365   1.551   3.256   4.450  0.1385  0.0220 -0.1462
 2580SOL    HW310366   1.429   3.338   4.415  0.4377  0.3316 -0.4710
 2580SOL    MW410367   1.487   3.276   4.395  0.0960 -0.0954 -0.1383
 2581SOL     OW10368   1.140   2.435   4.334 -0.0130  0.0387 -0.1886
 2581SOL    HW210369   1.093   2.406   4.413 -0.5807  1.7083  0.1019
 2581SOL    HW310370   1.151   2.529   4.346  2.5607 -0.1596 -0.7116
 2581SOL    MW410371   1.135   2.444   4.346  0.2517  0.2329 -0.2198
 2582SOL     OW10372   0.382   3.997   3.792 -0.2937 -0.0116  0.2313
 2582SOL    HW210373   0.313   3.931   3.803 -1.0413  0.9970  1.9267
 2582SOL    HW310374   0.379   4.021   3.700 -0.9029 -1.3974 -0.1115
 2582SOL    MW410375   0.372   3.992   3.782 -0.4728 -0.0613  0.4101
 2583SOL     OW10376   4.450   2.816   4.721  0.3822 -0.0265 -0.1332
 2583SOL    HW210377   4.499   2.734   4.717 -0.4020 -0.3900 -2.7290
 2583SOL    HW310378   4.366   2.795   4.681 -0.1144  1.8445 -0.0840
 2583SOL    MW410379   4.445   2.802   4.716  0.2136  0.1726 -0.4692
 2584SOL     OW10380   2.881   1.669   4.593  0.1546  0.3228  0.3283
 2584SOL    HW210381   2.797   1.644   4.553  0.3472 -0.9665  0.7122
 2584SOL    HW310382   2.936   1.694   4.519  0.0127 -0.5725 -0.0941
 2584SOL    MW410383   2.877   1.669   4.578  0.1612  0.0347  0.3233
 2585SOL     OW10384   4.144   3.652   4.465 -0.0239 -0.2974 -0.2423
 2585SOL    HW210385   4.119   3.672   4.375  0.0813  0.5480 -0.0949
 2585SOL    HW310386   4.142   3.557   4.471  0.7766 -0.3852 -1.3656
 2585SOL    MW410387   4.140   3.642   4.454  0.0958 -0.1976 -0.3710
 2586SOL     OW10388   2.124   4.243   4.234 -0.0703 -0.4150 -0.5609
 2586SOL    HW210389   2.059   4.209   4.172 -0.0389  1.6839 -1.7645
 2586SOL    HW310390   2.207   4.240   4.187  0.4907 -1.6732  0.4629
 2586SOL    MW410391   2.126   4.238   4.220  0.0079 -0.3042 -0.5851
 2587SOL     OW10392   4.470   3.704   4.216  0.0086 -0.1145  0.0271
 2587SOL    HW210393   4.454   3.729   4.307 -3.0187  0.2310 -0.5589
 2587SOL    HW310394   4.388   3.721   4.171 -0.0645 -4.5964 -1.8301
 2587SOL    MW410395   4.457   3.709   4.222 -0.4010 -0.6604 -0.2952
 2588SOL     OW10396   4.333   4.639   4.123 -0.3036 -0.2004  0.0176
 2588SOL    HW210397   4.400   4.588   4.168 -1.0180 -0.8391  0.3784
 2588SOL    HW310398   4.250   4.603   4.155 -0.8176 -0.0478 -1.1094
 2588SOL    MW410399   4.331   4.627   4.133 -0.4654 -0.2646 -0.0830
 2589SOL     OW10400   0.515   0.488   4.056  0.4031 -0.4027  0.6650
 2589SOL    HW210401   0.482   0.451   3.974  0.5010  0.1142  0.3933
 2589SOL    HW310402   0.570   0.418   4.092  0.9268 -0.3746 -0.0548
 2589SOL    MW410403   0.518   0.474   4.050  0.4851 -0.3308  0.5341
 2590SOL     OW10404   4.018   1.915   4.605  0.0206  0.4212 -0.2755
 2590SOL    HW210405   4.100   1.950   4.570 -0.6951  3.6222  1.1357
 2590SOL    HW310406   3.950   1.973   4.570 -1.4852 -1.0279  0.1569
 2590SOL    MW410407   4.020   1.927   4.596 -0.2723  0.6523 -0.0319
 2591SOL     OW10408   0.487   0.853   3.410  0.4712  0.0847 -0.4238
 2591SOL    HW210409   0.475   0.858   3.504  1.0342 -0.9957 -0.2913
 2591SOL    HW310410   0.486   0.944   3.380 -1.4774  0.3623  0.3981
 2591SOL    MW410411   0.485   0.865   3.418  0.2884 -0.0212 -0.2980
 2592SOL     OW10412   1.495   3.059   4.636 -0.1958  0.1388  0.1889
 2592SOL    HW210413   1.472   3.002   4.563 -2.4813  2.4344 -0.9481
 2592SOL    HW310414   1.577   3.101   4.610 -1.2048  1.2474 -1.2832
 2592SOL    MW410415   1.503   3.057   4.623 -0.6304  0.5879 -0.1550
 2593SOL     OW10416   0.714   1.535   3.837  0.0599  0.1126 -0.0109
 2593SOL    HW210417   0.733   1.499   3.923  0.9873 -0.8102 -0.5769
 2593SOL    HW310418   0.697   1.459   3.782  1.3880  0.5560 -1.0758
 2593SOL    MW410419   0.715   1.521   3.841  0.3575  0.0492 -0.2260
 2594SOL     OW10420   3.092   3.354   4.096  0.0408  0.2634  0.2086
 2594SOL    HW210421   3.026   3.288   4.076 -0.0888 -0.2302  2.1403
 2594SOL    HW310422   3.087   3.416   4.024  0.4161 -2.0228 -1.8233
 2594SOL    MW410423   3.083   3.353   4.084  0.0732 -0.1035  0.1960
 2595SOL     OW10424   2.330   3.118   4.056 -0.3339 -0.0999  0.0052
 2595SOL    HW210425   2.395   3.083   4.118 -0.5948  1.1566  1.0114
 2595SOL    HW310426   2.370   3.106   3.970  0.0144 -1.9371  0.3890
 2595SOL    MW410427   2.344   3.112   4.053 -0.3223 -0.1764  0.1888
 2596SOL     OW10428   3.571   2.576   4.276  0.0493  0.2578  0.0693
 2596SOL    HW210429   3.533   2.537   4.354  0.1921  0.1055  0.0623
 2596SOL    HW310430   3.503   2.635   4.243 -0.0405  0.2621  0.2629
 2596SOL    MW410431   3.557   2.579   4.282  0.0563  0.2379  0.0939
 2597SOL     OW10432   0.740   0.320   4.412 -0.6566  0.2703 -0.4380
 2597SOL    HW210433   0.664   0.342   4.466  0.8926  1.1268  1.4518
 2597SOL    HW310434   0.753   0.226   4.424 -1.6223  0.0404 -1.0859
 2597SOL    MW410435   0.732   0.311   4.420 -0.5796  0.3529 -0.2737
 2598SOL     OW10436   0.927   3.349   4.463  0.6529  0.0399 -0.0895
 2598SOL    HW210437   0.976   3.295   4.525  0.6920 -0.5361 -0.6208
 2598SOL    HW310438   0.841   3.359   4.504  1.1958  1.0453  0.8418
 2598SOL    MW410439   0.922   3.343   4.477  0.7297  0.0966 -0.0367
 2599SOL     OW10440   2.944   3.870   3.855 -0.4383  0.5743  0.0179
 2599SOL    HW210441   2.922   3.790   3.807 -0.2776 -0.6065  1.8664
 2599SOL    HW310442   2.993   3.839   3.932 -1.7662  2.3186  1.5953
 2599SOL    MW410443   2.948   3.855   3.859 -0.5922  0.6487  0.4699
 2600SOL     OW10444   0.125   2.794   3.946  0.0074 -0.3055 -0.3709
 2600SOL    HW210445   0.200   2.817   3.891  0.9151  1.3554  1.4993
 2600SOL    HW310446   0.157   2.725   4.004 -0.3781 -0.6911 -0.6117
 2600SOL    MW410447   0.139   2.788   3.946  0.0763 -0.1371 -0.1559
 2601SOL     OW10448   3.857   3.683   4.566 -0.3492 -0.2677 -0.0971
 2601SOL    HW210449   3.946   3.662   4.535 -0.9528 -1.8686 -0.8372
 2601SOL    HW310450   3.866   3.768   4.608  1.6416 -0.6121  0.2476
 2601SOL    MW410451   3.870   3.691   4.567 -0.1664 -0.5245 -0.1488
 2602SOL     OW10452   1.425   0.368   4.108  0.1184  0.0889  0.4479
 2602SOL    HW210453   1.436   0.273   4.115 -1.4369 -0.1744 -0.4080
 2602SOL    HW310454   1.364   0.391   4.178  0.6427  0.4994  0.7796
 2602SOL    MW410455   1.419   0.359   4.118 -0.0176  0.1084  0.3781
 2603SOL     OW10456   1.838   0.421   3.787 -0.6869 -0.1061  0.3387
 2603SOL    HW210457   1.916   0.467   3.755 -0.1336 -1.4914 -0.3757
 2603SOL    HW310458   1.766   0.455   3.733 -0.5242  0.9006  0.7444
 2603SOL    MW410459   1.839   0.431   3.776 -0.5924 -0.1561  0.2983
 2604SOL     OW10460   0.856   2.983   3.911 -0.3138 -0.1413  0.4628
 2604SOL    HW210461   0.858   3.066   3.863 -0.0019 -0.0068  0.7051
 2604SOL    HW310462   0.786   2.933   3.870  0.5199 -0.3741 -0.7075
 2604SOL    MW410463   0.847   2.988   3.900 -0.1626 -0.1545  0.3405
 2605SOL     OW10464   4.482   3.410   3.839  0.5554  0.2835  0.1757
 2605SOL    HW210465   4.451   3.417   3.929  0.1329 -0.7025  0.1181
 2605SOL    HW310466   4.420   3.461   3.787  1.1066  1.2921  0.5091
 2605SOL    MW410467   4.470   3.417   3.844  0.5727  0.2863  0.2120
 2606SOL     OW10468   1.549   0.211   4.628  0.0102  0.1344  0.0019
 2606SOL    HW210469   1.621   0.255   4.582 -0.0334 -0.6165 -0.7860
 2606SOL    HW310470   1.487   0.282   4.646  0.2790  0.5341 -0.6014
 2606SOL    MW410471   1.551   0.226   4.624  0.0398  0.0880 -0.1817
 2607SOL     OW10472   0.530   3.935   4.503  0.2147  0.4176 -0.0432
 2607SOL    HW210473   0.518   3.963   4.593 -0.2592 -2.2216  0.7548
 2607SOL    HW310474   0.563   3.846   4.509  1.7221  0.7523 -2.4763
 2607SOL    MW410475   0.532   3.927   4.515  0.3510  0.1137 -0.2589
 2608SOL     OW10476   2.308   4.591   4.410  0.4491  0.2601 -0.0969
 2608SOL    HW210477   2.255   4.608   4.488 -0.4349 -0.7378 -0.4612
 2608SOL    HW310478   2.246   4.553   4.348  1.6862 -1.3146 -0.3849
 2608SOL    MW410479   2.293   4.588   4.412  0.4957 -0.0792 -0.1831
 2609SOL     OW10480   4.389   1.722   4.307  0.1978  0.2906  0.2067
 2609SOL    HW210481   4.449   1.663   4.261 -0.4653 -0.1794 -0.0780
 2609SOL    HW310482   4.302   1.683   4.291 -0.2511  1.3858 -0.0493
 2609SOL    MW410483   4.385   1.709   4.299  0.0515  0.3732  0.1359
 2610SOL     OW10484   2.802   0.336   3.808 -0.2057 -0.3374 -0.1366
 2610SOL    HW210485   2.823   0.330   3.901 -0.0687  0.1593 -0.1334
 2610SOL    HW310486   2.860   0.405   3.775 -0.6809 -0.0993 -0.4667
 2610SOL    MW410487   2.813   0.344   3.816 -0.2501 -0.2404 -0.1795
 2611SOL     OW10488   3.588   1.140   3.885  0.4032  0.1192 -0.5622
 2611SOL    HW210489   3.590   1.050   3.852 -1.3966  0.5335 -1.9360
 2611SOL    HW310490   3.516   1.181   3.836  0.7635  2.1110  0.5331
 2611SOL    MW410491   3.579   1.133   3.874  0.2136  0.4367 -0.5989
 2612SOL     OW10492   1.784   3.479   3.761  0.4315  0.4423  0.1125
 2612SOL    HW210493   1.858   3.523   3.718 -0.1777  0.2524 -1.1706
 2612SOL    HW310494   1.708   3.532   3.735  0.1371  0.8001  1.6465
 2612SOL    MW410495   1.784   3.492   3.752  0.3123  0.4644  0.1459
 2613SOL     OW10496   0.678   0.957   4.247  0.1283  0.3293 -0.2184
 2613SOL    HW210497   0.679   0.883   4.185 -1.2107  1.4268 -1.5850
 2613SOL    HW310498   0.734   1.023   4.206  1.5478  0.0024  1.1349
 2613SOL    MW410499   0.685   0.956   4.233  0.1389  0.4311 -0.2203
 2614SOL     OW10500   2.058   0.802   3.849  0.5551  0.2397 -0.0121
 2614SOL    HW210501   2.133   0.858   3.830 -0.3180  1.4220 -0.0370
 2614SOL    HW310502   2.073   0.723   3.797  2.2280  0.0779  0.6856
 2614SOL    MW410503   2.070   0.799   3.840  0.6607  0.3743  0.0765
 2615SOL     OW10504   1.482   1.431   4.239 -0.3348  0.0851  0.7126
 2615SOL    HW210505   1.577   1.446   4.239 -0.3042  0.0377 -1.4144
 2615SOL    HW310506   1.466   1.386   4.322  1.6168 -0.5354  0.7983
 2615SOL    MW410507   1.493   1.427   4.250 -0.0732 -0.0030  0.4435
 2616SOL     OW10508   2.836   0.339   4.095  0.4465 -0.3525  0.2740
 2616SOL    HW210509   2.906   0.321   4.158  1.1438  0.7106 -0.1597
 2616SOL    HW310510   2.796   0.420   4.127  1.5964  0.8674 -1.2646
 2616SOL    MW410511   2.840   0.347   4.107  0.6902 -0.0513  0.0134
 2617SOL     OW10512   0.471   1.107   4.129 -0.2524  0.0989  0.1902
 2617SOL    HW210513   0.451   1.177   4.191  1.5778  0.9952 -0.1914
 2617SOL    HW310514   0.542   1.057   4.170 -0.9479 -1.0231  0.0690
 2617SOL    MW410515   0.478   1.109   4.142 -0.1028  0.0691  0.1240
 2618SOL     OW10516   2.531   3.030   4.251 -0.1229 -0.5336  0.5794
 2618SOL    HW210517   2.545   3.000   4.341  0.7997  1.3097  1.0808
 2618SOL    HW310518   2.569   2.961   4.197  0.7325 -0.9209  1.6499
 2618SOL    MW410519   2.538   3.017   4.256  0.1116 -0.3414  0.7868
 2619SOL     OW10520   4.285   4.043   4.477  0.2373 -0.0940 -0.5100
 2619SOL    HW210521   4.298   4.062   4.384 -0.7835  0.3774 -0.5711
 2619SOL    HW310522   4.363   4.077   4.520 -0.1635  1.4956 -0.9852
 2619SOL    MW410523   4.297   4.050   4.470  0.0496  0.1779 -0.5803
 2620SOL     OW10524   1.397   1.658   4.694  0.3631  0.2040 -0.5144
 2620SOL    HW210525   1.485   1.623   4.707 -0.5685 -2.8915 -1.9375
 2620SOL    HW310526   1.407   1.724   4.625  1.6499  0.2222 -0.3149
 2620SOL    MW410527   1.410   1.662   4.687  0.4100 -0.2021 -0.6762
 2621SOL     OW10528   3.663   4.528   4.484  0.3588  0.3866  0.2108
 2621SOL    HW210529   3.574   4.495   4.485  0.2467  0.6519 -0.8725
 2621SOL    HW310530   3.692   4.517   4.393  1.6397 -0.2799  0.6848
 2621SOL    MW410531   3.655   4.522   4.472  0.5131  0.3338  0.1307
 2622SOL     OW10532   4.462   2.205   4.754  0.5730  0.0520  0.1908
 2622SOL    HW210533   4.516   2.219   4.677  0.5610 -1.2069 -0.0580
 2622SOL    HW310534   4.372   2.221   4.724  0.6534  0.4963  0.1869
 2622SOL    MW410535   4.457   2.209   4.740  0.5822 -0.0556  0.1578
 2623SOL     OW10536   2.699   4.255   3.762  0.0279  0.2536  0.5221
 2623SOL    HW210537   2.704   4.277   3.855 -0.9075  1.1135  0.3815
 2623SOL    HW310538   2.787   4.270   3.728  0.0847  1.0790  1.0287
 2623SOL    MW410539   2.711   4.260   3.770 -0.0882  0.4764  0.5703
 2624SOL     OW10540   0.445   2.634   4.249 -0.4921  0.1000  0.0904
 2624SOL    HW210541   0.433   2.576   4.324  0.5245  0.4452  0.5268
 2624SOL    HW310542   0.421   2.721   4.280  0.6872  0.3722  0.2425
 2624SOL    MW410543   0.440   2.638   4.263 -0.2024  0.1812  0.1683
 2625SOL     OW10544   1.781   2.407   4.039  0.0175  0.0614 -0.5541
 2625SOL    HW210545   1.816   2.328   3.997  0.6345 -0.0600  0.1689
 2625SOL    HW310546   1.826   2.410   4.124 -0.7610  0.6315 -0.1636
 2625SOL    MW410547   1.792   2.397   4.045 -0.0039  0.1206 -0.4072
 2626SOL     OW10548   3.390   4.082   4.218 -0.0897 -0.6720 -0.4770
 2626SOL    HW210549   3.429   4.044   4.297  0.5739 -1.4138 -1.1469
 2626SOL    HW310550   3.349   4.008   4.174  0.8539 -0.5551 -1.5858
 2626SOL    MW410551   3.390   4.067   4.223  0.1223 -0.7548 -0.7119
 2627SOL     OW10552   3.979   2.765   4.381 -0.0698 -0.3227 -0.3695
 2627SOL    HW210553   3.889   2.765   4.414 -0.5314 -1.0834 -1.5778
 2627SOL    HW310554   4.033   2.753   4.458 -1.0077  0.1974  0.3759
 2627SOL    MW410555   3.974   2.763   4.395 -0.2546 -0.3545 -0.4301
 2628SOL     OW10556   1.821   1.814   3.670  0.1637 -0.6224  0.0605
 2628SOL    HW210557   1.726   1.803   3.667  0.0300  0.6353 -0.6003
 2628SOL    HW310558   1.856   1.743   3.617 -0.4344 -0.8707  0.0026
 2628SOL    MW410559   1.813   1.803   3.663  0.0671 -0.4891 -0.0346
 2629SOL     OW10560   3.022   0.437   4.524 -0.0971  0.1272  0.3311
 2629SOL    HW210561   3.055   0.362   4.572 -0.8025 -0.5089 -0.1740
 2629SOL    HW310562   2.927   0.432   4.533 -0.2227  0.1093 -0.9739
 2629SOL    MW410563   3.013   0.427   4.532 -0.2069  0.0409  0.0925
 2630SOL     OW10564   1.257   1.299   4.820  0.2996  0.2370  0.2908
 2630SOL    HW210565   1.327   1.234   4.818  0.8786  0.7998  1.9291
 2630SOL    HW310566   1.301   1.383   4.811 -0.4235  0.4581 -1.4830
 2630SOL    MW410567   1.272   1.301   4.818  0.2806  0.3405  0.2728
 2631SOL     OW10568   4.475   0.652   4.272 -0.3386  0.4094  0.2880
 2631SOL    HW210569   4.560   0.695   4.267  0.9980 -2.1729  0.2120
 2631SOL    HW310570   4.477   0.604   4.355 -1.2848 -0.5574 -0.2351
 2631SOL    MW410571   4.486   0.651   4.282 -0.2871 -0.0589  0.2089
 2632SOL     OW10572   2.225   3.463   3.777  0.3304 -0.4132 -0.1710
 2632SOL    HW210573   2.297   3.513   3.739 -0.3396  0.9043  0.2491
 2632SOL    HW310574   2.148   3.519   3.766 -0.2475 -0.8983  1.2467
 2632SOL    MW410575   2.224   3.477   3.771  0.1659 -0.3033  0.0713
 2633SOL     OW10576   0.620   3.908   4.126  0.1635  0.0779  0.0020
 2633SOL    HW210577   0.635   3.891   4.033  0.3599  0.1925  0.0133
 2633SOL    HW310578   0.578   3.994   4.128 -0.8018 -0.3878 -0.0518
 2633SOL    MW410579   0.616   3.917   4.114  0.0620  0.0317 -0.0033
 2634SOL     OW10580   2.941   3.115   4.102 -0.2535  0.0316  0.0502
 2634SOL    HW210581   2.853   3.146   4.119  0.0907  1.2481 -0.2971
 2634SOL    HW310582   2.967   3.070   4.182 -1.3177 -0.6413  0.0169
 2634SOL    MW410583   2.933   3.113   4.115 -0.3486  0.1032  0.0000
 2635SOL     OW10584   0.697   1.705   4.737 -0.0450  0.0609  0.0145
 2635SOL    HW210585   0.708   1.795   4.707 -0.6820  0.3433  0.6048
 2635SOL    HW310586   0.786   1.674   4.754  0.2260  0.3160 -0.9383
 2635SOL    MW410587   0.710   1.713   4.735 -0.0933  0.1317 -0.0329
 2636SOL     OW10588   2.652   0.857   4.740  0.2195  0.1894  0.1730
 2636SOL    HW210589   2.747   0.846   4.749  0.0090 -1.1479  0.9853
 2636SOL    HW310590   2.625   0.782   4.685 -0.5765 -0.3825  1.3228
 2636SOL    MW410591   2.661   0.845   4.734  0.0870 -0.0625  0.4320
 2637SOL     OW10592   2.693   0.889   3.757  0.7438 -0.1715  0.0450
 2637SOL    HW210593   2.634   0.829   3.803  0.5736  0.6418  0.8930
 2637SOL    HW310594   2.671   0.975   3.791  2.4142  0.1414  0.3551
 2637SOL    MW410595   2.683   0.892   3.767  0.9415 -0.0229  0.1979
 2638SOL     OW10596   3.863   4.647   4.115  0.5097  0.1947 -0.0138
 2638SOL    HW210597   3.865   4.635   4.020 -0.7396  0.4626 -0.0739
 2638SOL    HW310598   3.788   4.595   4.144 -0.0784  1.4121  0.6492
 2638SOL    MW410599   3.853   4.638   4.107  0.2673  0.3905  0.0663
 2639SOL     OW10600   2.484   2.459   4.152 -0.1480  0.2126 -0.0927
 2639SOL    HW210601   2.463   2.381   4.100 -0.9631  0.1324  0.3495
 2639SOL    HW310602   2.441   2.445   4.236  0.0573  0.9464  0.1430
 2639SOL    MW410603   2.475   2.447   4.156 -0.2286  0.2990 -0.0029
 2640SOL     OW10604   0.594   0.675   4.540  0.1825 -0.5146  0.0465
 2640SOL    HW210605   0.578   0.769   4.533 -0.0906 -0.6096 -0.6420
 2640SOL    HW310606   0.562   0.652   4.628  0.1162  0.0065  0.1622
 2640SOL    MW410607   0.587   0.684   4.551  0.1377 -0.4584 -0.0286
 2641SOL     OW10608   0.827   1.163   4.116 -0.6208 -0.1578  0.3418
 2641SOL    HW210609   0.819   1.258   4.121 -0.9938 -0.1378 -0.6055
 2641SOL    HW310610   0.871   1.147   4.033 -0.8548 -0.8325  0.3471
 2641SOL    MW410611   0.832   1.173   4.106 -0.7009 -0.2441  0.2179
 2642SOL     OW10612   0.010   3.151   3.736 -0.3967  0.2071  0.0575
 2642SOL    HW210613  -0.005   3.241   3.767 -3.5314 -0.8025  1.6514
 2642SOL    HW310614  -0.019   3.152   3.645  1.6618  1.3359 -0.6007
 2642SOL    MW410615   0.004   3.163   3.728 -0.5387  0.2227  0.1810
 2643SOL     OW10616   2.711   3.934   4.055  0.0616 -0.4864  0.4894
 2643SOL    HW210617   2.690   3.855   4.104  0.2622 -0.4792  0.5886
 2643SOL    HW310618   2.778   3.906   3.993 -1.3119 -0.8598 -0.8658
 2643SOL    MW410619   2.717   3.920   4.053 -0.0932 -0.5348  0.3242
 2644SOL     OW10620   0.571   1.245   4.571 -0.4923  0.0041 -0.1445
 2644SOL    HW210621   0.659   1.285   4.567 -0.1175 -0.9183 -1.5315
 2644SOL    HW310622   0.520   1.306   4.624  0.9388  0.6591  0.5222
 2644SOL    MW410623   0.576   1.259   4.577 -0.2540 -0.0311 -0.2398
 2645SOL     OW10624   0.648   1.293   3.694  0.0834  0.2108 -0.0429
 2645SOL    HW210625   0.604   1.234   3.755 -0.7756  0.1624 -0.6994
 2645SOL    HW310626   0.646   1.247   3.610 -0.3185  1.0403 -0.4931
 2645SOL    MW410627   0.642   1.280   3.691 -0.0830  0.3139 -0.1891
 2646SOL     OW10628   4.375   2.669   3.901 -0.4969  0.1470  0.2363
 2646SOL    HW210629   4.347   2.644   3.989  0.4575  0.2913  0.6008
 2646SOL    HW310630   4.461   2.710   3.915 -0.8954  1.3187 -0.6150
 2646SOL    MW410631   4.383   2.671   3.914 -0.4239  0.3207  0.1721
 2647SOL     OW10632   1.816   0.894   3.783  0.0884 -0.4103  0.6880
 2647SOL    HW210633   1.902   0.879   3.822  0.6408  1.3785  0.1834
 2647SOL    HW310634   1.828   0.871   3.691 -0.3169 -1.3330  0.8551
 2647SOL    MW410635   1.829   0.889   3.776  0.1079 -0.2959  0.6437
 2648SOL     OW10636   1.683   1.240   4.499  0.9648  0.1635  0.2121
 2648SOL    HW210637   1.606   1.217   4.446  0.9293 -0.8301  0.6773
 2648SOL    HW310638   1.754   1.245   4.435  0.8362 -0.5822  0.0017
 2648SOL    MW410639   1.682   1.237   4.483  0.9432 -0.0659  0.2456
 2649SOL     OW10640   1.534   1.076   4.188 -0.3460 -0.0949  0.7215
 2649SOL    HW210641   1.438   1.076   4.184 -0.3264  0.3327  0.2519
 2649SOL    HW310642   1.561   1.145   4.127  0.3371 -1.7341 -0.8747
 2649SOL    MW410643   1.525   1.085   4.179 -0.2534 -0.2549  0.4482
 2650SOL     OW10644   4.061   3.445   3.791  0.1635  0.8637  0.3322
 2650SOL    HW210645   4.054   3.458   3.886  0.7189  0.3401  0.4484
 2650SOL    HW310646   4.055   3.350   3.779 -0.1980  0.9492 -0.1856
 2650SOL    MW410647   4.059   3.434   3.802  0.1888  0.8059  0.2792
 2651SOL     OW10648   4.002   1.926   3.847 -0.2201 -0.0132  0.2418
 2651SOL    HW210649   4.088   1.953   3.816 -0.0297 -1.2787 -0.3849
 2651SOL    HW310650   3.942   1.994   3.816  0.0444 -0.9937 -2.5367
 2651SOL    MW410651   4.005   1.939   3.839 -0.1602 -0.3095 -0.2074
 2652SOL     OW10652   3.224   1.055   4.138  0.0640  0.0187 -0.1748
 2652SOL    HW210653   3.190   0.969   4.163 -1.6032 -0.0320 -2.4516
 2652SOL    HW310654   3.178   1.117   4.194  1.2240 -0.5189  1.4279
 2652SOL    MW410655   3.214   1.052   4.149 -0.0029 -0.0588 -0.2637
 2653SOL     OW10656   0.367   0.067   4.872 -0.0968  0.5333  0.3459
 2653SOL    HW210657   0.437   0.014   4.834 -0.5814 -0.0269  0.2108
 2653SOL    HW310658   0.336   0.015   4.947  0.5909  1.4474  1.2680
 2653SOL    MW410659   0.372   0.053   4.877 -0.0700  0.5800  0.4497
 2654SOL     OW10660   2.056   4.507   4.288  0.3031  0.0315  0.1752
 2654SOL    HW210661   2.077   4.414   4.277 -0.8241 -0.0775 -1.2918
 2654SOL    HW310662   2.051   4.541   4.199  1.5699  1.7158  0.7316
 2654SOL    MW410663   2.058   4.499   4.275  0.3214  0.2394  0.0548
 2655SOL     OW10664   0.487   0.297   4.539 -0.4295 -0.5074  0.1567
 2655SOL    HW210665   0.470   0.302   4.633  0.0276 -1.0980  0.2739
 2655SOL    HW310666   0.451   0.378   4.504 -1.5144 -0.7437  0.7002
 2655SOL    MW410667   0.480   0.308   4.547 -0.5123 -0.6165  0.2437
 2656SOL     OW10668   3.451   3.670   4.239  0.5341 -0.0295 -0.2033
 2656SOL    HW210669   3.397   3.653   4.316 -1.6156  3.0067 -0.9091
 2656SOL    HW310670   3.537   3.691   4.273  0.2764 -1.2214  1.2031
 2656SOL    MW410671   3.455   3.671   4.253  0.2167  0.2136 -0.1101
 2657SOL     OW10672   0.135   3.073   4.667  0.3684  0.4995  0.0678
 2657SOL    HW210673   0.067   3.015   4.702  0.4627  0.0953 -0.4073
 2657SOL    HW310674   0.116   3.077   4.573  0.3357  1.2727  0.1103
 2657SOL    MW410675   0.123   3.066   4.659  0.3766  0.5484  0.0110
 2658SOL     OW10676   3.142   4.269   3.902 -0.3816  0.1825  0.5376
 2658SOL    HW210677   3.142   4.178   3.872  0.5024 -0.3932  2.2787
 2658SOL    HW310678   3.134   4.264   3.997  0.8170  1.8937  0.7537
 2658SOL    MW410679   3.141   4.256   3.910 -0.1068  0.3319  0.7956
 2659SOL     OW10680   3.949   4.386   4.556 -0.3657  0.2594  0.3128
 2659SOL    HW210681   3.868   4.437   4.564 -1.3303 -1.0855 -0.5038
 2659SOL    HW310682   4.016   4.451   4.536 -1.5041  1.2614 -0.3784
 2659SOL    MW410683   3.947   4.402   4.554 -0.6430  0.2146  0.1140
 2660SOL     OW10684   3.252   2.848   3.883 -0.1527 -0.3555  0.0751
 2660SOL    HW210685   3.211   2.803   3.810  0.4042 -0.6649 -0.0541
 2660SOL    HW310686   3.346   2.829   3.873  0.0955  0.9233 -0.0407
 2660SOL    MW410687   3.259   2.839   3.872 -0.0463 -0.2275  0.0424
 2661SOL     OW10688   1.302   3.451   4.514 -0.6023 -0.5236 -0.3913
 2661SOL    HW210689   1.290   3.390   4.587  0.8687 -1.3798 -0.8445
 2661SOL    HW310690   1.357   3.521   4.550 -0.1268 -0.7917 -0.5996
 2661SOL    MW410691   1.308   3.452   4.529 -0.3456 -0.6719 -0.4787
 2662SOL     OW10692   0.047   4.635   4.340  0.1796 -0.2008 -0.1115
 2662SOL    HW210693   0.093   4.557   4.371 -1.6220 -1.2013  0.1113
 2662SOL    HW310694  -0.009   4.660   4.413 -0.3223  0.4415 -0.7179
 2662SOL    MW410695   0.046   4.628   4.354 -0.1243 -0.2480 -0.1621
 2663SOL     OW10696   3.667   0.369   4.093 -0.6158  0.5675 -0.2264
 2663SOL    HW210697   3.738   0.312   4.121 -1.0775 -0.3607 -0.9172
 2663SOL    HW310698   3.680   0.450   4.143 -0.6863 -0.5831  1.6973
 2663SOL    MW410699   3.678   0.373   4.103 -0.6859  0.2932 -0.0639
 2664SOL     OW10700   4.187   1.404   4.049 -0.0784  0.1048 -0.0708
 2664SOL    HW210701   4.180   1.473   4.115  1.4784 -0.2784  0.5215
 2664SOL    HW310702   4.228   1.448   3.974 -0.2365  0.1213 -0.1479
 2664SOL    MW410703   4.192   1.419   4.048  0.1063  0.0566 -0.0024
 2665SOL     OW10704   3.041   1.225   4.300 -0.3516  0.1241 -0.3142
 2665SOL    HW210705   2.946   1.214   4.294 -0.1243 -1.5076 -1.3947
 2665SOL    HW310706   3.054   1.317   4.319 -2.1714  0.2969  0.1551
 2665SOL    MW410707   3.030   1.235   4.302 -0.5617 -0.0684 -0.3948
 2666SOL     OW10708   4.209   3.321   4.224  0.2199  0.1087  0.3820
 2666SOL    HW210709   4.235   3.231   4.204 -0.0038  0.1150  0.0545
 2666SOL    HW310710   4.277   3.375   4.181  0.6282  0.0865  0.9935
 2666SOL    MW410711   4.221   3.317   4.216  0.2446  0.1063  0.4196
 2667SOL     OW10712   1.904   0.442   4.065 -0.1034 -0.6117 -0.3487
 2667SOL    HW210713   1.953   0.523   4.082 -1.3890 -0.2417  1.9031
 2667SOL    HW310714   1.874   0.450   3.975  0.9561  0.7917 -0.5933
 2667SOL    MW410715   1.907   0.454   4.056 -0.1334 -0.3777 -0.0834
 2668SOL     OW10716   1.908   2.453   3.663 -0.3684 -0.8170  0.0590
 2668SOL    HW210717   1.869   2.521   3.718  0.7886 -0.0175 -0.0786
 2668SOL    HW310718   1.889   2.481   3.573  0.2513 -0.5788 -0.0013
 2668SOL    MW410719   1.901   2.466   3.658 -0.1340 -0.6800  0.0327
 2669SOL     OW10720   2.957   2.345   4.054 -0.7722  0.1182  0.4988
 2669SOL    HW210721   2.930   2.344   3.962  1.6866  3.8286 -0.3730
 2669SOL    HW310722   2.885   2.390   4.099 -1.2166 -0.1762  0.0851
 2669SOL    MW410723   2.944   2.351   4.047 -0.5066  0.5689  0.3295
 2670SOL     OW10724   2.545   0.951   4.434 -0.6405  0.7791  0.0621
 2670SOL    HW210725   2.518   1.009   4.506 -0.8222  2.3659 -1.2350
 2670SOL    HW310726   2.640   0.958   4.433 -0.6303  0.6637  0.2306
 2670SOL    MW410727   2.554   0.960   4.444 -0.6633  0.9733 -0.0863
 2671SOL     OW10728   0.206   4.012   4.149  0.2040  0.6069  0.2133
 2671SOL    HW210729   0.285   4.065   4.161  0.7778  0.1841 -1.5494
 2671SOL    HW310730   0.237   3.930   4.110 -1.0456  0.2717 -0.0977
 2671SOL    MW410731   0.220   4.008   4.146  0.1149  0.5069 -0.0601
 2672SOL     OW10732   0.027   2.640   4.407 -0.3704  0.0801  0.3982
 2672SOL    HW210733  -0.034   2.715   4.406  1.4466  1.6021 -1.6740
 2672SOL    HW310734   0.098   2.668   4.465  0.6661  0.2980 -0.9500
 2672SOL    MW410735   0.028   2.654   4.414  0.0060  0.3099 -0.0529
 2673SOL     OW10736   2.486   1.559   3.797 -0.4170 -0.1390 -0.3916
 2673SOL    HW210737   2.430   1.622   3.751 -1.7183 -0.4998  0.6825
 2673SOL    HW310738   2.573   1.601   3.797 -0.8556  0.8045 -1.3172
 2673SOL    MW410739   2.490   1.573   3.791 -0.6466 -0.0622 -0.3719
 2674SOL     OW10740   0.970   0.898   4.658 -0.2025 -0.3316 -0.2006
 2674SOL    HW210741   0.903   0.881   4.725 -1.0683 -0.4709 -1.0879
 2674SOL    HW310742   0.966   0.993   4.645 -0.0157 -0.3012 -0.0333
 2674SOL    MW410743   0.961   0.909   4.666 -0.2922 -0.3459 -0.2961
 2675SOL     OW10744   3.625   3.946   3.788  0.3121 -0.0166  0.2796
 2675SOL    HW210745   3.637   4.036   3.816 -0.8908  0.5199 -0.8818
 2675SOL    HW310746   3.531   3.929   3.801  0.1016 -0.3761 -1.5837
 2675SOL    MW410747   3.614   3.955   3.794  0.1259  0.0069 -0.1194
 2676SOL     OW10748   1.413   2.818   4.469  0.0189 -0.0002  0.0347
 2676SOL    HW210749   1.504   2.807   4.442  0.3334  2.6000 -0.1059
 2676SOL    HW310750   1.363   2.764   4.409  1.2361  0.9858 -1.9054
 2676SOL    MW410751   1.419   2.810   4.458  0.2210  0.4730 -0.2398
 2677SOL     OW10752   0.676   0.296   4.143 -0.2313 -0.1679  0.0071
 2677SOL    HW210753   0.696   0.295   4.236  0.4653  0.6529 -0.1239
 2677SOL    HW310754   0.675   0.204   4.117  0.7738 -0.3493  0.5795
 2677SOL    MW410755   0.679   0.284   4.152 -0.0067 -0.0835  0.0648
 2678SOL     OW10756   1.566   4.603   4.576 -0.0281 -0.1268 -0.5054
 2678SOL    HW210757   1.619   4.592   4.497 -0.1195  1.5139 -0.8067
 2678SOL    HW310758   1.591   4.688   4.610 -2.2953  0.5631 -0.5141
 2678SOL    MW410759   1.576   4.612   4.570 -0.3393  0.1802 -0.5460
 2679SOL     OW10760   1.224   1.811   4.880  0.3225  0.0924  0.1144
 2679SOL    HW210761   1.296   1.781   4.824 -0.4646  0.2442 -0.9801
 2679SOL    HW310762   1.189   1.888   4.836 -0.9947 -0.4146  0.2552
 2679SOL    MW410763   1.229   1.817   4.867  0.0448  0.0455 -0.0119
 2680SOL     OW10764   4.315   4.361   3.778 -0.2938 -0.3807  0.4261
 2680SOL    HW210765   4.317   4.453   3.806 -0.1805 -0.7174  1.5534
 2680SOL    HW310766   4.289   4.365   3.686  0.1112  0.8065  0.3488
 2680SOL    MW410767   4.312   4.374   3.770 -0.2255 -0.2685  0.5643
 2681SOL     OW10768   2.653   3.616   4.272  0.1440 -0.3678  0.2572
 2681SOL    HW210769   2.646   3.561   4.194  0.3662  0.3543 -0.2771
 2681SOL    HW310770   2.579   3.676   4.266 -1.4915 -2.1191  2.0677
 2681SOL    MW410771   2.643   3.617   4.261 -0.0422 -0.5035  0.4258
 2682SOL     OW10772   1.528   2.749   4.137 -0.4205 -0.7843 -0.2914
 2682SOL    HW210773   1.510   2.657   4.116 -0.7128 -0.6449 -0.6516
 2682SOL    HW310774   1.572   2.783   4.060 -0.0886 -0.6850 -0.0593
 2682SOL    MW410775   1.531   2.742   4.124 -0.4153 -0.7527 -0.3080
 2683SOL     OW10776   2.977   3.210   4.563 -0.0010 -0.0807 -0.5746
 2683SOL    HW210777   2.883   3.195   4.566 -0.2694  1.4245 -1.1984
 2683SOL    HW310778   2.988   3.285   4.505  1.7502 -1.6076 -2.2822
 2683SOL    MW410779   2.966   3.218   4.556  0.1945 -0.0837 -0.8821
 2684SOL     OW10780   0.938   0.675   4.189 -0.6114  0.0712  0.1014
 2684SOL    HW210781   0.907   0.670   4.280  0.9555  0.2372  0.6504
 2684SOL    HW310782   0.941   0.584   4.160  0.5519 -0.1231  0.7958
 2684SOL    MW410783   0.934   0.662   4.197 -0.2512  0.0675  0.2651
 2685SOL     OW10784   1.556   3.885   3.753  0.4831  0.0642  0.0773
 2685SOL    HW210785   1.634   3.936   3.733  1.1545 -0.8941  0.2404
 2685SOL    HW310786   1.486   3.950   3.759  1.4279  1.0174  0.8544
 2685SOL    MW410787   1.557   3.900   3.751  0.6964  0.0637  0.2017
 2686SOL     OW10788   1.283   2.911   4.170 -0.1847  0.2102  0.1372
 2686SOL    HW210789   1.220   2.873   4.109  0.3219  0.7797 -0.7530
 2686SOL    HW310790   1.353   2.846   4.177 -0.1792  0.2039  0.0130
 2686SOL    MW410791   1.284   2.897   4.163 -0.1171  0.2844  0.0038
 2687SOL     OW10792   1.430   1.100   4.737 -0.0877 -0.2212 -0.4688
 2687SOL    HW210793   1.517   1.062   4.750  0.5551  0.3690 -2.7655
 2687SOL    HW310794   1.380   1.032   4.692 -1.2966 -1.0996  2.1471
 2687SOL    MW410795   1.435   1.086   4.733 -0.1624 -0.2593 -0.4268
 2688SOL     OW10796   3.102   3.465   3.840 -0.5054  0.4870 -0.1830
 2688SOL    HW210797   3.175   3.514   3.804  0.5009  0.1737  1.3996
 2688SOL    HW310798   3.024   3.507   3.803  0.4400  1.0297 -1.6068
 2688SOL    MW410799   3.101   3.477   3.830 -0.2477  0.5174 -0.1616
 2689SOL     OW10800   0.107   1.104   4.447  0.3447 -0.0040 -0.6355
 2689SOL    HW210801   0.066   1.090   4.362  0.6881  0.6191 -0.9088
 2689SOL    HW310802   0.077   1.191   4.475  0.4229 -0.1038 -0.2377
 2689SOL    MW410803   0.098   1.114   4.439  0.4003  0.0651 -0.6194
 2690SOL     OW10804   2.923   3.652   4.324 -0.5640  0.0790 -0.1229
 2690SOL    HW210805   2.829   3.647   4.305 -0.5454  1.0887 -0.5214
 2690SOL    HW310806   2.932   3.729   4.381 -0.0179 -0.1979  0.1700
 2690SOL    MW410807   2.912   3.662   4.329 -0.4897  0.1755 -0.1369
 2691SOL     OW10808   3.504   1.945   4.149  0.0557  0.6298 -0.0154
 2691SOL    HW210809   3.447   1.878   4.185  0.6991 -0.0490 -0.2455
 2691SOL    HW310810   3.589   1.929   4.189  0.4105  0.8066 -0.6785
 2691SOL    MW410811   3.508   1.934   4.159  0.1874  0.5635 -0.1330
 2692SOL     OW10812   1.408   0.174   4.400 -0.4943 -0.3141  0.1921
 2692SOL    HW210813   1.374   0.263   4.401  0.2480  0.0165 -1.7987
 2692SOL    HW310814   1.468   0.170   4.475 -0.3469  0.9324  0.1436
 2692SOL    MW410815   1.411   0.185   4.410 -0.3771 -0.1060 -0.0768
 2693SOL     OW10816   0.243   2.299   3.816 -0.1090  0.5333 -0.3220
 2693SOL    HW210817   0.155   2.329   3.794 -0.6736  0.2443  1.4827
 2693SOL    HW310818   0.249   2.310   3.911  1.7209  0.3402 -0.4018
 2693SOL    MW410819   0.232   2.305   3.826  0.0580  0.4697 -0.0944
 2694SOL     OW10820   2.977   0.553   3.706 -0.2021  0.4214  0.2898
 2694SOL    HW210821   3.048   0.511   3.754  1.0033  0.0961 -1.7001
 2694SOL    HW310822   2.944   0.620   3.765 -0.2532 -1.4310  2.3987
 2694SOL    MW410823   2.982   0.556   3.720 -0.0498  0.1341  0.3054
 2695SOL     OW10824   2.183   2.886   4.099 -0.0746  0.5373  0.1347
 2695SOL    HW210825   2.233   2.965   4.077  1.3189 -0.4245 -0.2723
 2695SOL    HW310826   2.247   2.815   4.090 -1.2203 -0.5974  0.8254
 2695SOL    MW410827   2.198   2.887   4.095 -0.0420  0.2608  0.1721
 2696SOL     OW10828   3.810   2.125   3.774 -0.4473  0.6253 -0.5171
 2696SOL    HW210829   3.728   2.085   3.801  0.0912  0.1881  0.5070
 2696SOL    HW310830   3.806   2.215   3.807 -0.6561  0.7028 -0.7568
 2696SOL    MW410831   3.799   2.132   3.782 -0.4036  0.5777 -0.4137
 2697SOL     OW10832   3.391   0.493   3.739 -0.1050 -0.3205  0.2362
 2697SOL    HW210833   3.457   0.441   3.785 -0.2863 -0.5053  0.2885
 2697SOL    HW310834   3.405   0.582   3.771  1.0851 -0.1034 -0.8684
 2697SOL    MW410835   3.402   0.498   3.749  0.0281 -0.3163  0.0975
 2698SOL     OW10836   1.466   2.437   4.657 -0.0254  0.5988  0.7277
 2698SOL    HW210837   1.542   2.434   4.599  1.4680  1.5141  2.5945
 2698SOL    HW310838   1.436   2.528   4.653 -1.3527  0.1384 -0.3692
 2698SOL    MW410839   1.472   2.449   4.649 -0.0035  0.6588  0.8297
 2699SOL     OW10840   1.812   1.682   3.412 -0.3455  0.2355 -0.1469
 2699SOL    HW210841   1.812   1.774   3.387 -1.9898  0.5115  0.8120
 2699SOL    HW310842   1.728   1.648   3.382  0.3425 -1.0220 -0.7022
 2699SOL    MW410843   1.801   1.690   3.405 -0.4716  0.1061 -0.0937
 2700SOL     OW10844   0.672   3.635   4.226 -0.3459  0.0310  0.4749
 2700SOL    HW210845   0.670   3.728   4.205 -0.5871 -0.4190 -1.5861
 2700SOL    HW310846   0.759   3.605   4.198 -1.2773 -0.9265 -1.4549
 2700SOL    MW410847   0.683   3.643   4.220 -0.5006 -0.1547 -0.0515
 2701SOL     OW10848   2.030   3.891   3.757  0.2860 -0.5757 -0.0937
 2701SOL    HW210849   2.114   3.907   3.715  0.1718  0.4443  0.0568
 2701SOL    HW310850   2.048   3.903   3.851 -0.4479  1.5085 -0.2118
 2701SOL    MW410851   2.044   3.894   3.764  0.1743 -0.1659 -0.0892
 2702SOL     OW10852   2.022   0.592   4.336 -0.9578  0.2933  0.5029
 2702SOL    HW210853   2.059   0.651   4.270 -0.5517  0.8336  1.2007
 2702SOL    HW310854   2.098   0.542   4.368 -0.9751  0.7675  1.2983
 2702SOL    MW410855   2.037   0.593   4.332 -0.9065  0.4272  0.6995
 2703SOL     OW10856   0.664   0.493   3.693  0.4435 -0.5069 -0.0537
 2703SOL    HW210857   0.651   0.580   3.729 -0.8997 -0.3314 -0.9313
 2703SOL    HW310858   0.747   0.463   3.731 -0.7197 -0.1923  2.8678
 2703SOL    MW410859   0.673   0.500   3.703  0.1128 -0.4423  0.2158
 2704SOL     OW10860   0.918   3.500   4.053 -0.4479  0.4124 -0.7447
 2704SOL    HW210861   0.981   3.558   4.096 -1.6739  1.4003 -0.2468
 2704SOL    HW310862   0.919   3.420   4.106 -0.7151  0.9981  0.1607
 2704SOL    MW410863   0.926   3.497   4.066 -0.6449  0.6199 -0.5603
 2705SOL     OW10864   1.401   0.171   3.671  0.1751  0.0879  0.4321
 2705SOL    HW210865   1.454   0.094   3.695 -0.0411  0.2033  1.3191
 2705SOL    HW310866   1.311   0.144   3.688 -0.2233 -0.6487 -2.5603
 2705SOL    MW410867   1.397   0.157   3.677  0.0941  0.0060  0.1543
 2706SOL     OW10868   2.439   1.964   4.343 -0.0549  0.3775 -0.0277
 2706SOL    HW210869   2.442   1.884   4.290 -0.0437  0.6660 -0.4663
 2706SOL    HW310870   2.354   2.003   4.323 -0.4798 -0.0433  0.9548
 2706SOL    MW410871   2.428   1.959   4.333 -0.1097  0.3601  0.0439
 2707SOL     OW10872   2.451   0.438   4.281  0.3120 -0.3987  0.5972
 2707SOL    HW210873   2.420   0.383   4.209 -0.6623  1.0763 -0.1420
 2707SOL    HW310874   2.372   0.460   4.330  0.7734 -0.1623  1.2377
 2707SOL    MW410875   2.436   0.434   4.278  0.2444 -0.1729  0.5841
 2708SOL     OW10876   1.915   2.813   4.092  0.1340 -0.4376 -0.0547
 2708SOL    HW210877   1.882   2.901   4.110 -0.2456 -0.4985 -0.4343
 2708SOL    HW310878   2.009   2.824   4.083  0.0956 -0.0792 -0.0410
 2708SOL    MW410879   1.923   2.826   4.093  0.0789 -0.3982 -0.1025
 2709SOL     OW10880   3.657   4.476   4.192  0.0968 -0.1376 -0.3420
 2709SOL    HW210881   3.571   4.517   4.180 -0.5274 -1.4118 -0.2167
 2709SOL    HW310882   3.644   4.384   4.172  1.5096 -0.2961 -0.6155
 2709SOL    MW410883   3.644   4.470   4.188  0.2005 -0.3271 -0.3624
 2710SOL     OW10884   1.481   3.642   4.592 -0.4401  0.2467 -0.2163
 2710SOL    HW210885   1.547   3.596   4.540 -0.5932 -0.4886  0.2379
 2710SOL    HW310886   1.493   3.734   4.570  0.6729  0.1044 -0.2083
 2710SOL    MW410887   1.491   3.648   4.582 -0.3135  0.1307 -0.1554
 2711SOL     OW10888   4.186   2.257   4.112 -0.1195  0.3641 -0.1191
 2711SOL    HW210889   4.100   2.296   4.126  0.5092  1.5604  0.5727
 2711SOL    HW310890   4.179   2.169   4.148 -0.6181  0.9738  1.3478
 2711SOL    MW410891   4.174   2.251   4.119 -0.1025  0.6020  0.1664
 2712SOL     OW10892   1.329   3.268   3.434 -0.3150  0.0069 -0.2366
 2712SOL    HW210893   1.338   3.248   3.527 -0.5078  0.5775 -0.0902
 2712SOL    HW310894   1.256   3.214   3.404 -0.5060  0.1172  0.0317
 2712SOL    MW410895   1.321   3.258   3.442 -0.3657  0.0968 -0.1819
 2713SOL     OW10896   3.879   2.367   4.442 -0.5376  0.2212  0.2843
 2713SOL    HW210897   3.885   2.272   4.438 -1.9994  0.1720 -1.2447
 2713SOL    HW310898   3.809   2.385   4.504  0.8004  0.3446  1.7763
 2713SOL    MW410899   3.871   2.357   4.449 -0.5541  0.2308  0.2789
 2714SOL     OW10900   2.431   2.027   3.667  0.3028  0.0275  0.2723
 2714SOL    HW210901   2.428   2.120   3.690 -0.1237 -0.2266  1.2866
 2714SOL    HW310902   2.508   1.994   3.713 -1.0556 -0.6746  2.1152
 2714SOL    MW410903   2.441   2.035   3.676  0.0672 -0.0985  0.6492
 2715SOL     OW10904   2.942   1.278   3.470 -0.1915  0.2241 -0.5817
 2715SOL    HW210905   2.944   1.263   3.564  2.1143  2.2502 -0.2522
 2715SOL    HW310906   3.018   1.230   3.436  1.0416  2.3024 -0.8834
 2715SOL    MW410907   2.952   1.270   3.478  0.2754  0.7657 -0.5782
 2716SOL     OW10908   4.396   1.708   4.581  0.0449 -0.4899 -0.0065
 2716SOL    HW210909   4.402   1.713   4.485 -0.7110  1.2934  0.0356
 2716SOL    HW310910   4.409   1.798   4.611 -2.1582 -0.6225  1.4363
 2716SOL    MW410911   4.398   1.720   4.572 -0.3457 -0.2723  0.1888
 2717SOL     OW10912   4.077   4.220   3.854 -0.4259  0.2899  0.3802
 2717SOL    HW210913   4.068   4.133   3.815 -1.0860  0.0651  1.0069
 2717SOL    HW310914   4.158   4.255   3.818 -0.2985 -0.4814 -0.0866
 2717SOL    MW410915   4.087   4.213   3.844 -0.4964  0.1583  0.4015
 2718SOL     OW10916   0.043   0.357   3.858 -0.0120 -0.0283 -0.0141
 2718SOL    HW210917   0.118   0.414   3.838  0.8282 -0.2362  2.3303
 2718SOL    HW310918   0.040   0.355   3.954 -1.3950 -2.1612 -0.0767
 2718SOL    MW410919   0.053   0.364   3.868 -0.0836 -0.3372  0.2868
 2719SOL     OW10920   0.886   3.268   4.199  0.0649 -0.2673  0.3383
 2719SOL    HW210921   0.832   3.189   4.188  1.3868 -0.8738 -2.2761
 2719SOL    HW310922   0.896   3.277   4.294 -0.8094 -2.7782  0.7121
 2719SOL    MW410923   0.880   3.259   4.211  0.1240 -0.6788  0.0434
 2720SOL     OW10924   0.383   0.528   4.416  0.4370 -0.1198  0.2310
 2720SOL    HW210925   0.319   0.531   4.487 -0.3254 -1.6060 -0.3743
 2720SOL    HW310926   0.452   0.589   4.443 -0.8987  0.9811  1.1980
 2720SOL    MW410927   0.384   0.537   4.429  0.1602 -0.1706  0.2785
 2721SOL     OW10928   3.573   1.708   3.773  0.2154 -0.3125  0.1135
 2721SOL    HW210929   3.499   1.656   3.806  0.4604 -0.3460  0.6270
 2721SOL    HW310930   3.573   1.694   3.679  0.6426 -1.7315  0.3108
 2721SOL    MW410931   3.563   1.699   3.765  0.3042 -0.5040  0.2074
 2722SOL     OW10932   4.129   0.430   4.585 -0.0836 -0.4292 -0.0177
 2722SOL    HW210933   4.088   0.501   4.536  0.3318 -0.9042 -1.0647
 2722SOL    HW310934   4.057   0.373   4.610 -0.3306 -0.0266  0.1878
 2722SOL    MW410935   4.114   0.432   4.582 -0.0615 -0.4387 -0.1287
 2723SOL     OW10936   4.230   1.276   3.733 -0.2795 -0.0467  0.0410
 2723SOL    HW210937   4.201   1.267   3.643  1.7121 -1.1901 -0.5108
 2723SOL    HW310938   4.326   1.267   3.729  0.1538  2.9733  1.8506
 2723SOL    MW410939   4.239   1.274   3.721  0.0401  0.2009  0.2067
 2724SOL     OW10940   1.377   1.287   4.537  0.5560 -0.2017 -0.2107
 2724SOL    HW210941   1.404   1.247   4.620 -0.7216 -0.9663 -0.1452
 2724SOL    HW310942   1.313   1.353   4.563  1.8133  1.1176 -0.4174
 2724SOL    MW410943   1.372   1.290   4.551  0.5535 -0.1285 -0.2298
 2725SOL     OW10944   3.890   1.057   4.477 -0.2427 -0.5138  0.3004
 2725SOL    HW210945   3.874   0.995   4.549 -2.0695  0.0104  0.3628
 2725SOL    HW310946   3.834   1.026   4.406  0.1944  0.0417 -0.2896
 2725SOL    MW410947   3.881   1.044   4.477 -0.4261 -0.3713  0.2308
 2726SOL     OW10948   2.373   2.708   4.432  0.0558  0.2441 -0.6217
 2726SOL    HW210949   2.412   2.725   4.346  1.3989  0.6335  0.0624
 2726SOL    HW310950   2.419   2.767   4.492  0.4246 -1.3554  0.6913
 2726SOL    MW410951   2.384   2.718   4.429  0.2816  0.0846 -0.3581
 2727SOL     OW10952   1.265   3.083   4.427  0.0206 -0.9292  0.2513
 2727SOL    HW210953   1.303   2.995   4.428 -0.5143 -1.1662  2.0689
 2727SOL    HW310954   1.341   3.142   4.419  0.3603 -1.5408 -1.2409
 2727SOL    MW410955   1.280   3.079   4.426 -0.0051 -1.0412  0.2947
 2728SOL     OW10956   2.235   0.474   4.426 -0.2368 -0.1885  0.5350
 2728SOL    HW210957   2.225   0.387   4.463  1.0397  0.1104  1.6415
 2728SOL    HW310958   2.248   0.532   4.502  0.6787  0.6892 -0.2557
 2728SOL    MW410959   2.236   0.470   4.441  0.0525 -0.0332  0.5765
 2729SOL     OW10960   2.945   1.546   3.820 -0.4590  0.2519  0.1166
 2729SOL    HW210961   2.862   1.578   3.786 -0.4472 -0.1261 -0.2715
 2729SOL    HW310962   2.938   1.556   3.915 -0.5821  1.0891  0.0194
 2729SOL    MW410963   2.933   1.551   3.828 -0.4737  0.3124  0.0527
 2730SOL     OW10964   0.921   0.397   4.095 -0.1067  0.3918 -0.0294
 2730SOL    HW210965   0.832   0.365   4.103  0.1218 -0.1330  0.5520
 2730SOL    HW310966   0.972   0.340   4.153  0.1934  2.2745  1.6479
 2730SOL    MW410967   0.916   0.386   4.104 -0.0370  0.5710  0.2685
 2731SOL     OW10968   2.914   0.782   3.862  0.7849 -0.2214 -0.0906
 2731SOL    HW210969   2.833   0.829   3.842  0.8892 -0.3620 -0.8883
 2731SOL    HW310970   2.909   0.762   3.955 -0.1041 -0.2384 -0.1422
 2731SOL    MW410971   2.903   0.786   3.871  0.6814 -0.2421 -0.2029
 2732SOL     OW10972   2.319   0.386   3.326 -0.1807  0.1317 -0.0913
 2732SOL    HW210973   2.299   0.293   3.336  0.4284  0.1049  0.9045
 2732SOL    HW310974   2.402   0.398   3.372 -0.1031  1.1135 -0.4717
 2732SOL    MW410975   2.327   0.375   3.333 -0.0901  0.2577 -0.0103
 2733SOL     OW10976   1.590   4.374   3.888 -0.2983  0.3178 -0.2992
 2733SOL    HW210977   1.559   4.458   3.853  0.1532  0.6789  0.1592
 2733SOL    HW310978   1.589   4.386   3.983 -0.6405 -0.3440 -0.2152
 2733SOL    MW410979   1.585   4.387   3.896 -0.2838  0.2785 -0.2275
 2734SOL     OW10980   4.252   2.037   4.524 -0.1954 -0.4039 -0.6113
 2734SOL    HW210981   4.239   2.132   4.534  0.1873 -0.2625 -1.3724
 2734SOL    HW310982   4.327   2.018   4.581 -0.4857 -0.3114 -0.1943
 2734SOL    MW410983   4.260   2.047   4.533 -0.1831 -0.3731 -0.6566
 2735SOL     OW10984   0.014   1.234   3.758  0.4797 -0.1111 -0.2203
 2735SOL    HW210985   0.107   1.251   3.753  0.3307  0.2411 -1.8090
 2735SOL    HW310986   0.007   1.138   3.751  0.6500 -0.0571 -1.1345
 2735SOL    MW410987   0.025   1.223   3.757  0.4825 -0.0575 -0.5505
 2736SOL     OW10988   4.217   1.429   4.452  0.0580  0.6155 -0.0415
 2736SOL    HW210989   4.152   1.397   4.389  1.1141  0.2546 -0.9756
 2736SOL    HW310990   4.191   1.520   4.469 -0.4057  0.6287 -0.7842
 2736SOL    MW410991   4.205   1.437   4.446  0.1359  0.5696 -0.2627
 2737SOL     OW10992   3.119   2.735   3.655  0.3793  0.2728 -0.0611
 2737SOL    HW210993   3.166   2.784   3.588  1.7226  0.9172  1.3320
 2737SOL    HW310994   3.027   2.759   3.643  0.6647  0.7366 -1.3645
 2737SOL    MW410995   3.113   2.744   3.644  0.5941  0.4191 -0.0491
 2738SOL     OW10996   0.017   1.956   4.648 -0.8730 -0.0258  0.1604
 2738SOL    HW210997   0.015   2.019   4.720  1.1875  0.1694  0.0714
 2738SOL    HW310998   0.088   1.986   4.591 -0.8133 -1.6056 -0.6350
 2738SOL    MW410999   0.026   1.968   4.650 -0.5933 -0.2085  0.0439
 2739SOL     OW11000   0.822   1.372   4.523  0.4532  0.3669  0.6108
 2739SOL    HW211001   0.885   1.382   4.451  0.8592  0.3222  0.9581
 2739SOL    HW311002   0.756   1.440   4.507  0.2247 -0.0259 -0.1331
 2739SOL    MW411003   0.821   1.382   4.511  0.4767  0.3093  0.5584
 2740SOL     OW11004   1.340   0.696   4.279 -0.1328 -0.3554 -0.4982
 2740SOL    HW211005   1.420   0.703   4.226 -0.1704  2.4331 -0.2223
 2740SOL    HW311006   1.274   0.746   4.231 -1.8071 -2.7390 -0.7806
 2740SOL    MW411007   1.342   0.703   4.266 -0.3587 -0.3020 -0.4992
 2741SOL     OW11008   4.303   0.773   3.847 -0.0931 -0.1326 -0.0417
 2741SOL    HW211009   4.305   0.756   3.941  1.3758  1.4592  0.2268
 2741SOL    HW311010   4.311   0.686   3.807  0.6434 -0.6964  1.2933
 2741SOL    MW411011   4.304   0.759   3.854  0.1974  0.0030  0.1700
 2742SOL     OW11012   3.742   1.316   4.506 -0.6610  0.5339  0.4275
 2742SOL    HW211013   3.800   1.362   4.566  0.0072 -2.0992  1.8768
 2742SOL    HW311014   3.765   1.224   4.517 -2.6418 -0.2383 -1.6411
 2742SOL    MW411015   3.753   1.310   4.516 -0.8342  0.0845  0.3462
 2743SOL     OW11016   0.068   3.289   4.330  0.4042 -0.2678 -0.4891
 2743SOL    HW211017   0.110   3.203   4.321 -0.4885 -0.9462  1.5767
 2743SOL    HW311018   0.025   3.286   4.415 -1.8030  1.3077 -1.5066
 2743SOL    MW411019   0.068   3.277   4.340 -0.0048 -0.1497 -0.3510
 2744SOL     OW11020   3.417   0.656   4.479  0.0879  0.7099  0.1304
 2744SOL    HW211021   3.430   0.583   4.538 -0.8080  0.0159 -0.5210
 2744SOL    HW311022   3.494   0.655   4.422  0.0975  0.3110  0.1528
 2744SOL    MW411023   3.429   0.646   4.479 -0.0291  0.5656  0.0472
 2745SOL     OW11024   2.753   2.509   4.167  0.0897 -0.1254  0.3203
 2745SOL    HW211025   2.662   2.512   4.137 -0.0256 -1.3338  0.5455
 2745SOL    HW311026   2.749   2.468   4.253  0.7229  0.9105  0.8668
 2745SOL    MW411027   2.741   2.504   4.175  0.1581 -0.1483  0.4225
 2746SOL     OW11028   3.475   1.638   4.508  0.2712  0.2485  0.0423
 2746SOL    HW211029   3.462   1.553   4.551 -0.9374 -0.1075 -1.0061
 2746SOL    HW311030   3.569   1.641   4.488  0.0722 -1.4847 -1.2413
 2746SOL    MW411031   3.486   1.627   4.511  0.0856 -0.0272 -0.2661
 2747SOL     OW11032   0.243   3.938   4.423  0.4666  0.6302 -0.5237
 2747SOL    HW211033   0.337   3.949   4.439  1.0726 -1.3742 -2.4466
 2747SOL    HW311034   0.234   3.948   4.328 -1.1723  0.1831 -0.4235
 2747SOL    MW411035   0.254   3.940   4.412  0.3303  0.3064 -0.7644
 2748SOL     OW11036   0.237   4.208   4.751 -0.2237  0.3780 -0.2272
 2748SOL    HW211037   0.195   4.193   4.666  0.3149  0.4459 -0.5092
 2748SOL    HW311038   0.203   4.139   4.807  0.1892 -0.2810 -0.7819
 2748SOL    MW411039   0.227   4.197   4.747 -0.0982  0.2999 -0.3371
 2749SOL     OW11040   2.393   2.436   4.405  0.2130  0.1871 -0.1598
 2749SOL    HW211041   2.449   2.398   4.473  0.3016  0.6539  0.0309
 2749SOL    HW311042   2.378   2.526   4.434  0.0816  0.3254 -0.6548
 2749SOL    MW411043   2.398   2.443   4.418  0.2072  0.2666 -0.2007
 2750SOL     OW11044   2.703   3.191   4.504 -0.3028 -0.1170 -0.0356
 2750SOL    HW211045   2.709   3.204   4.409 -0.7689 -1.7741 -0.3116
 2750SOL    HW311046   2.684   3.278   4.539  0.6849  0.6741 -1.3820
 2750SOL    MW411047   2.702   3.204   4.496 -0.2341 -0.2313 -0.2494
 2751SOL     OW11048   2.734   4.149   4.227  0.1688  0.1157 -0.3665
 2751SOL    HW211049   2.721   4.072   4.172  0.2962  0.6519 -1.1455
 2751SOL    HW311050   2.661   4.146   4.289 -1.2016  0.6897 -1.9280
 2751SOL    MW411051   2.723   4.138   4.228  0.0048  0.2623 -0.6752
 2752SOL     OW11052   4.261   3.835   4.112  0.1371 -0.0818 -0.1605
 2752SOL    HW211053   4.187   3.806   4.165  1.7699  0.2327  2.3677
 2752SOL    HW311054   4.276   3.926   4.138  1.3954 -0.1376 -0.6395
 2752SOL    MW411055   4.253   3.843   4.122  0.5188 -0.0477  0.1097
 2753SOL     OW11056   4.219   1.555   3.811 -0.0363 -0.1055  0.4631
 2753SOL    HW211057   4.216   1.469   3.769 -1.8582  0.4587 -0.6421
 2753SOL    HW311058   4.132   1.593   3.794  0.8771  2.1126  0.5765
 2753SOL    MW411059   4.207   1.549   3.803 -0.1569  0.2615  0.3324
 2754SOL     OW11060   1.012   4.136   4.740  0.2511  0.3093  0.2166
 2754SOL    HW211061   1.054   4.069   4.794 -0.6079 -0.4966 -0.1022
 2754SOL    HW311062   0.990   4.091   4.658 -2.3330  0.3534  0.8336
 2754SOL    MW411063   1.015   4.121   4.736 -0.2031  0.2089  0.2561
 2755SOL     OW11064   4.097   4.621   4.481 -0.2981  0.0922  0.3635
 2755SOL    HW211065   4.185   4.647   4.508  0.6832 -1.8649 -0.8553
 2755SOL    HW311066   4.042   4.696   4.504  1.7937  1.6276  0.5026
 2755SOL    MW411067   4.101   4.634   4.487  0.1068  0.0372  0.2208
 2756SOL     OW11068   0.657   0.729   4.097 -0.1576  0.1337  0.1581
 2756SOL    HW211069   0.745   0.695   4.110 -0.2014  0.8158  2.3491
 2756SOL    HW311070   0.602   0.650   4.093  0.3008 -0.2251  0.7859
 2756SOL    MW411071   0.661   0.714   4.098 -0.1029  0.1764  0.5293
 2757SOL     OW11072   1.210   1.431   4.124 -0.1203  0.1990 -0.0926
 2757SOL    HW211073   1.191   1.448   4.032 -0.2405 -2.1407 -0.5410
 2757SOL    HW311074   1.305   1.418   4.127 -0.2831 -1.1750 -0.1863
 2757SOL    MW411075   1.220   1.431   4.112 -0.1577 -0.2911 -0.1636
 2758SOL     OW11076   0.506   1.928   3.847  0.8233  0.1099  0.5436
 2758SOL    HW211077   0.572   1.979   3.800 -0.7829  2.6424  0.9115
 2758SOL    HW311078   0.536   1.930   3.938  0.0235  1.6557  0.7842
 2758SOL    MW411079   0.519   1.935   3.853  0.5059  0.6480  0.6237
 2759SOL     OW11080   0.496   3.134   4.247  0.1310 -0.3456  0.0038
 2759SOL    HW211081   0.466   3.146   4.157  0.9284  0.2715 -0.1831
 2759SOL    HW311082   0.583   3.094   4.238  0.9794  1.3592  0.4469
 2759SOL    MW411083   0.504   3.130   4.234  0.3482 -0.0393  0.0377
 2760SOL     OW11084   1.217   2.074   4.324  0.0394 -0.2638  0.0254
 2760SOL    HW211085   1.279   2.141   4.293  2.1150 -1.8572  0.5895
 2760SOL    HW311086   1.187   2.030   4.245  0.6730 -0.3645 -0.1616
 2760SOL    MW411087   1.221   2.077   4.310  0.3968 -0.4873  0.0758
 2761SOL     OW11088   4.306   4.101   4.195 -0.9116 -0.3274 -0.3684
 2761SOL    HW211089   4.383   4.144   4.157 -0.6974  1.3572  1.8916
 2761SOL    HW311090   4.232   4.155   4.170 -1.1005 -0.7273 -0.6813
 2761SOL    MW411091   4.307   4.114   4.187 -0.9084 -0.1578 -0.1116
 2762SOL     OW11092   1.593   3.479   4.169  0.4637  0.6065  0.1870
 2762SOL    HW211093   1.555   3.566   4.182 -1.1812 -0.2607  1.3400
 2762SOL    HW311094   1.519   3.424   4.144  1.5834 -0.3696 -1.0613
 2762SOL    MW411095   1.578   3.484   4.167  0.3945  0.3631  0.1745
 2763SOL     OW11096   1.185   1.617   4.340 -0.2506  0.3210 -0.2106
 2763SOL    HW211097   1.200   1.567   4.421  1.0124 -0.0485 -0.6629
 2763SOL    HW311098   1.214   1.560   4.270 -2.0914  0.3286 -1.0212
 2763SOL    MW411099   1.191   1.603   4.342 -0.3268  0.2732 -0.3772
 2764SOL     OW11100   1.989   3.090   3.856 -0.3844 -0.2382  0.4799
 2764SOL    HW211101   2.007   3.146   3.932 -1.4587 -0.5808  1.0012
 2764SOL    HW311102   1.902   3.118   3.826  0.1295  0.0432 -0.7607
 2764SOL    MW411103   1.980   3.102   3.862 -0.4585 -0.2460  0.3850
 2765SOL     OW11104   2.052   4.661   3.756  0.4303 -0.4851 -0.0564
 2765SOL    HW211105   2.054   4.567   3.743  2.3975 -0.7724  1.9723
 2765SOL    HW311106   2.066   4.673   3.850 -1.2951  1.7927 -0.0218
 2765SOL    MW411107   2.054   4.650   3.767  0.4621 -0.2217  0.2158
 2766SOL     OW11108   3.300   3.841   4.100  0.4980 -0.5205 -0.2906
 2766SOL    HW211109   3.207   3.817   4.100  0.3352  0.1076 -0.1312
 2766SOL    HW311110   3.342   3.774   4.153  0.0431 -0.4476  0.1637
 2766SOL    MW411111   3.294   3.829   4.107  0.4165 -0.4280 -0.2098
 2767SOL     OW11112   2.151   2.298   4.067 -0.5268 -0.0239  0.2294
 2767SOL    HW211113   2.071   2.252   4.040 -0.6311 -0.3948  1.1585
 2767SOL    HW311114   2.138   2.387   4.036 -0.7273 -0.3883 -0.7741
 2767SOL    MW411115   2.138   2.303   4.059 -0.5672 -0.1206  0.2198
 2768SOL     OW11116   1.498   2.135   4.547 -0.0406 -0.2270 -0.2457
 2768SOL    HW211117   1.421   2.169   4.592  0.1248 -0.2000  0.0202
 2768SOL    HW311118   1.498   2.180   4.462 -0.2346 -0.1173 -0.1888
 2768SOL    MW411119   1.488   2.146   4.542 -0.0443 -0.2091 -0.2031
 2769SOL     OW11120   0.717   2.650   4.242  0.4204 -0.4608 -0.0842
 2769SOL    HW211121   0.747   2.580   4.184  0.7104 -0.1774 -0.2811
 2769SOL    HW311122   0.623   2.658   4.224  0.2635 -1.2123  0.3833
 2769SOL    MW411123   0.709   2.642   4.232  0.4380 -0.5229 -0.0482
 2770SOL     OW11124   0.664   3.410   4.572  0.3234  0.0759  0.6385
 2770SOL    HW211125   0.631   3.430   4.659  0.1973  0.3814  0.5197
 2770SOL    HW311126   0.588   3.376   4.524  0.4627 -0.3904  0.7412
 2770SOL    MW411127   0.650   3.408   4.577  0.3252  0.0546  0.6361
 2771SOL     OW11128   1.182   4.339   4.121 -0.0619 -0.3109 -0.4197
 2771SOL    HW211129   1.204   4.431   4.103 -0.8963 -0.1858 -0.8493
 2771SOL    HW311130   1.241   4.289   4.066  2.0923 -0.1075  1.6441
 2771SOL    MW411131   1.192   4.345   4.111  0.1121 -0.2675 -0.2041
 2772SOL     OW11132   1.631   2.045   3.848  0.1835  0.4736  0.0368
 2772SOL    HW211133   1.658   2.126   3.805  0.1522 -0.1484 -1.1762
 2772SOL    HW311134   1.695   2.032   3.918  0.8724  0.9456 -0.4980
 2772SOL    MW411135   1.643   2.054   3.851  0.2704  0.4537 -0.1941
 2773SOL     OW11136   3.525   2.755   3.880  0.3403  0.1995 -0.7839
 2773SOL    HW211137   3.568   2.741   3.964 -1.4457  1.3352  0.3174
 2773SOL    HW311138   3.509   2.666   3.846 -0.9662 -0.2968  1.0963
 2773SOL    MW411139   3.529   2.741   3.886 -0.0675  0.2837 -0.3905
 2774SOL     OW11140   4.000   2.446   3.792 -0.2909  0.6563 -0.0567
 2774SOL    HW211141   3.997   2.537   3.822  0.5178  0.6770 -0.0368
 2774SOL    HW311142   4.090   2.419   3.808 -0.8783 -0.5854  1.2235
 2774SOL    MW411143   4.012   2.455   3.798 -0.2613  0.4952  0.1149
 2775SOL     OW11144   0.375   2.898   4.634  0.0450 -0.1820 -0.2218
 2775SOL    HW211145   0.313   2.966   4.659 -0.1910  0.2063 -1.8068
 2775SOL    HW311146   0.461   2.935   4.653 -0.1508 -0.2128  0.7503
 2775SOL    MW411147   0.378   2.912   4.640 -0.0120 -0.1347 -0.3028
 2776SOL     OW11148   2.716   1.687   3.723 -0.2745 -0.2776  0.0956
 2776SOL    HW211149   2.694   1.780   3.733 -2.8366 -0.9191  0.8530
 2776SOL    HW311150   2.714   1.672   3.629 -0.3737  0.3234 -0.0040
 2776SOL    MW411151   2.712   1.698   3.712 -0.6256 -0.2830  0.1826
 2777SOL     OW11152   0.467   1.661   3.764 -0.5642 -0.4802  0.1518
 2777SOL    HW211153   0.477   1.747   3.804 -0.7419 -0.5391  0.3260
 2777SOL    HW311154   0.538   1.609   3.802 -1.3365 -0.8148  1.1600
 2777SOL    MW411155   0.477   1.665   3.775 -0.6895 -0.5322  0.3080
 2778SOL     OW11156   1.839   3.993   4.488 -0.1132 -0.4133  0.5736
 2778SOL    HW211157   1.789   4.007   4.407 -0.4221 -1.2589  0.6138
 2778SOL    HW311158   1.787   4.036   4.556  1.0668  1.9333  0.0665
 2778SOL    MW411159   1.826   4.001   4.486  0.0017 -0.2155  0.5116
 2779SOL     OW11160   4.035   2.620   4.161 -0.1638  0.4396  0.0739
 2779SOL    HW211161   4.010   2.671   4.239  1.8787 -1.9050  2.3830
 2779SOL    HW311162   3.985   2.539   4.169 -0.9221  0.6980 -1.8224
 2779SOL    MW411163   4.025   2.616   4.173  0.0057  0.1643  0.1283
 2780SOL     OW11164   2.626   2.080   4.152 -0.1997 -0.3356 -0.3813
 2780SOL    HW211165   2.574   2.144   4.104  0.7890  1.6160  1.0847
 2780SOL    HW311166   2.563   2.037   4.210 -0.4552  1.0493  0.3899
 2780SOL    MW411167   2.611   2.083   4.154 -0.1030  0.1047 -0.0863
 2781SOL     OW11168   3.681   3.747   4.362  0.1720 -0.0041  0.0826
 2781SOL    HW211169   3.744   3.707   4.422 -0.2107  1.2254  1.3432
 2781SOL    HW311170   3.735   3.779   4.290  0.6914 -1.1213 -0.0409
 2781SOL    MW411171   3.696   3.746   4.361  0.1898  0.0105  0.2317
 2782SOL     OW11172   3.076   1.493   4.250 -0.4212  0.2736 -0.1200
 2782SOL    HW211173   3.081   1.584   4.282 -0.2916  0.9154 -1.8979
 2782SOL    HW311174   2.994   1.490   4.201 -0.0045 -0.3378 -0.7790
 2782SOL    MW411175   3.066   1.505   4.248 -0.3490  0.2778 -0.4416
 2783SOL     OW11176   0.482   2.193   4.479  0.0724 -0.0268  0.0692
 2783SOL    HW211177   0.396   2.161   4.508  0.5427 -1.9374 -0.5583
 2783SOL    HW311178   0.545   2.141   4.529  0.8694  0.7585 -0.1107
 2783SOL    MW411179   0.479   2.182   4.489  0.2396 -0.1755 -0.0372
 2784SOL     OW11180   0.020   0.424   4.127 -0.0362  0.1073  0.4039
 2784SOL    HW211181   0.109   0.402   4.155 -0.5637  0.7255  2.6252
 2784SOL    HW311182   0.010   0.516   4.148 -1.3920 -0.0960  0.6833
 2784SOL    MW411183   0.030   0.433   4.133 -0.2848  0.1620  0.7339
 2785SOL     OW11184   3.126   2.445   3.655  0.0503  0.5638  0.0426
 2785SOL    HW211185   3.135   2.539   3.667  1.2159  0.4440  0.1014
 2785SOL    HW311186   3.206   2.408   3.692 -0.4228 -0.4520  0.0576
 2785SOL    MW411187   3.137   2.453   3.662  0.1416  0.4139  0.0525
 2786SOL     OW11188   3.921   3.194   4.527  0.0726 -0.9794  0.8264
 2786SOL    HW211189   4.001   3.247   4.530  0.9005 -2.1791  0.6618
 2786SOL    HW311190   3.850   3.257   4.526  0.9683  0.1049  2.4833
 2786SOL    MW411191   3.922   3.209   4.527  0.3002 -0.9947  1.0233
 2787SOL     OW11192   2.447   1.253   3.735  0.5682  0.1026 -0.0637
 2787SOL    HW211193   2.431   1.344   3.761 -1.7598  0.0425 -1.1132
 2787SOL    HW311194   2.368   1.206   3.763  1.6759 -1.5637  0.3036
 2787SOL    MW411195   2.434   1.259   3.742  0.4072 -0.1251 -0.1538
 2788SOL     OW11196   1.466   2.441   3.702  0.4691  0.4488  0.4367
 2788SOL    HW211197   1.532   2.372   3.708  1.6536  1.4160 -1.2602
 2788SOL    HW311198   1.423   2.427   3.618  1.0014  2.0252 -0.1094
 2788SOL    MW411199   1.469   2.430   3.692  0.6957  0.7849  0.1407
 2789SOL     OW11200   1.961   3.264   4.073  0.1466 -0.0914  0.2514
 2789SOL    HW211201   2.014   3.279   4.151 -0.4229 -2.4403  1.1344
 2789SOL    HW311202   1.909   3.344   4.063  2.3093  1.3860  0.5733
 2789SOL    MW411203   1.961   3.276   4.082  0.3568 -0.2065  0.4106
 2790SOL     OW11204   3.983   3.513   3.354 -0.0156  0.4043 -0.5438
 2790SOL    HW211205   4.070   3.520   3.394 -0.9854  0.5652  1.6180
 2790SOL    HW311206   3.923   3.521   3.428 -1.8920  1.1990 -2.1367
 2790SOL    MW411207   3.987   3.515   3.369 -0.3908  0.5302 -0.4687
 2791SOL     OW11208   2.537   1.215   4.110 -0.2319  0.9549  0.2407
 2791SOL    HW211209   2.595   1.185   4.040 -1.1038 -0.2371  0.0031
 2791SOL    HW311210   2.538   1.310   4.104  1.6151  0.9416  0.1807
 2791SOL    MW411211   2.545   1.223   4.100 -0.1032  0.7960  0.2012
 2792SOL     OW11212   3.022   2.346   4.528  0.3296 -0.0518  0.4486
 2792SOL    HW211213   2.966   2.278   4.492 -0.2403  0.5230  0.2288
 2792SOL    HW311214   3.104   2.338   4.478  0.0188 -0.1248 -0.0590
 2792SOL    MW411215   3.026   2.336   4.517  0.2134  0.0145  0.3529
 2793SOL     OW11216   0.586   4.590   4.731 -0.4499  0.3952 -0.1207
 2793SOL    HW211217   0.672   4.560   4.760 -0.5911 -0.5064 -0.6203
 2793SOL    HW311218   0.602   4.628   4.644 -0.7944 -1.0820 -0.8341
 2793SOL    MW411219   0.600   4.591   4.723 -0.5139  0.0815 -0.2813
 2794SOL     OW11220   2.458   1.074   4.682 -0.4640 -0.1964  0.1827
 2794SOL    HW211221   2.511   1.149   4.708 -1.5498  1.1758 -1.4220
 2794SOL    HW311222   2.497   0.999   4.727  1.4162  1.1327  0.7989
 2794SOL    MW411223   2.470   1.074   4.692 -0.3593  0.1601  0.0525
 2795SOL     OW11224   3.272   3.561   4.431 -0.8554  0.2186  0.0265
 2795SOL    HW211225   3.331   3.492   4.462 -0.4074  0.8639  0.6263
 2795SOL    HW311226   3.192   3.515   4.408 -0.5125 -0.5279  0.2920
 2795SOL    MW411227   3.270   3.545   4.432 -0.7510  0.2053  0.1407
 2796SOL     OW11228   0.414   3.298   4.454 -0.1922  0.0930  0.0886
 2796SOL    HW211229   0.357   3.361   4.410  0.5541  0.4483 -0.3806
 2796SOL    HW311230   0.450   3.244   4.383 -1.2529 -1.2319  0.5312
 2796SOL    MW411231   0.411   3.299   4.439 -0.2337 -0.0348  0.0854
 2797SOL     OW11232   1.150   0.826   4.112 -0.1494 -0.0149  0.0616
 2797SOL    HW211233   1.070   0.780   4.136 -0.9967  1.7200  0.6510
 2797SOL    HW311234   1.157   0.815   4.017 -0.3791 -1.2644  0.1873
 2797SOL    MW411235   1.141   0.819   4.102 -0.2916  0.0492  0.1559
 2798SOL     OW11236   4.096   1.646   4.588 -0.2798  0.1402 -0.3101
 2798SOL    HW211237   4.059   1.735   4.592  1.4413  0.9065 -0.8560
 2798SOL    HW311238   4.190   1.659   4.599  0.0889 -1.5471 -1.3565
 2798SOL    MW411239   4.103   1.660   4.590 -0.0038  0.0187 -0.5198
 2799SOL     OW11240   2.008   0.922   4.210 -0.0256  0.1255 -0.0379
 2799SOL    HW211241   2.028   0.835   4.174 -0.4980 -0.5092  1.2082
 2799SOL    HW311242   1.913   0.921   4.223  0.1880  0.1769  1.6315
 2799SOL    MW411243   1.998   0.910   4.207 -0.0596  0.0486  0.3467
 2800SOL     OW11244   3.372   2.774   4.204  0.2324  0.4317  0.0196
 2800SOL    HW211245   3.293   2.750   4.154  0.3498  0.4469 -0.1741
 2800SOL    HW311246   3.372   2.870   4.203 -0.5912  0.4518  1.3511
 2800SOL    MW411247   3.361   2.784   4.197  0.1392  0.4365  0.1693
 2801SOL     OW11248   1.681   3.507   4.448 -0.4355  0.0736  0.3403
 2801SOL    HW211249   1.656   3.482   4.359 -0.2608 -1.2986  0.6696
 2801SOL    HW311250   1.728   3.590   4.437 -0.0815 -0.2771 -0.8913
 2801SOL    MW411251   1.684   3.515   4.434 -0.3657 -0.1538  0.2213
 2802SOL     OW11252   1.206   1.930   4.085  0.5114  0.0316 -0.3979
 2802SOL    HW211253   1.245   1.994   4.025  1.5932 -1.0991 -0.9315
 2802SOL    HW311254   1.280   1.874   4.111 -0.1711 -0.1860  1.0915
 2802SOL    MW411255   1.221   1.931   4.081  0.5640 -0.1464 -0.2718
 2803SOL     OW11256   0.263   0.318   4.210  0.1928 -0.5445 -0.0810
 2803SOL    HW211257   0.326   0.391   4.209 -0.7614  0.2873 -1.8980
 2803SOL    HW311258   0.242   0.307   4.302  2.4753 -0.3800  0.4983
 2803SOL    MW411259   0.269   0.326   4.222  0.3680 -0.4131 -0.2441
 2804SOL     OW11260   0.147   3.687   4.521 -0.1519  0.2680 -0.0458
 2804SOL    HW211261   0.056   3.712   4.510 -0.2158 -0.4655 -1.2437
 2804SOL    HW311262   0.196   3.767   4.503 -0.5150  0.4045 -0.4368
 2804SOL    MW411263   0.142   3.701   4.517 -0.2082  0.1895 -0.2556
 2805SOL     OW11264   2.318   3.681   4.526 -0.2901  0.1550 -0.2386
 2805SOL    HW211265   2.333   3.774   4.509  1.7060 -0.1147 -0.0039
 2805SOL    HW311266   2.394   3.636   4.489 -0.7223 -1.3029  0.5731
 2805SOL    MW411267   2.330   3.687   4.519 -0.0839 -0.0730 -0.1006
 2806SOL     OW11268   4.490   0.971   3.733  0.2102  0.5832 -0.6161
 2806SOL    HW211269   4.562   0.917   3.767 -0.9220  0.7256  2.1112
 2806SOL    HW311270   4.411   0.927   3.764 -0.7862  2.4143 -0.5248
 2806SOL    MW411271   4.489   0.958   3.741 -0.0706  0.8436 -0.2444
 2807SOL     OW11272   1.648   3.868   4.043 -0.0683 -0.5302 -0.0369
 2807SOL    HW211273   1.573   3.831   4.089 -0.7874  0.6097 -0.2682
 2807SOL    HW311274   1.611   3.908   3.965  0.7537  0.1884 -0.0635
 2807SOL    MW411275   1.633   3.868   4.039 -0.0547 -0.2851 -0.0706
 2808SOL     OW11276   1.037   1.209   4.647  0.2235  0.1739 -0.0817
 2808SOL    HW211277   1.094   1.273   4.689  0.5653 -0.0150 -0.2586
 2808SOL    HW311278   0.961   1.260   4.619  1.5554  0.9853 -2.3649
 2808SOL    MW411279   1.035   1.224   4.649  0.4443  0.2561 -0.4063
 2809SOL     OW11280   2.657   1.622   4.456 -0.0340 -0.3257 -0.2087
 2809SOL    HW211281   2.634   1.531   4.474  0.0736 -0.4011 -0.4474
 2809SOL    HW311282   2.616   1.671   4.527  1.5567 -0.7521  1.0548
 2809SOL    MW411283   2.648   1.616   4.468  0.1898 -0.3920 -0.0730
 2810SOL     OW11284   3.714   0.475   4.532  0.5746 -0.5374 -0.2557
 2810SOL    HW211285   3.644   0.454   4.594  1.1903 -2.0459 -0.0447
 2810SOL    HW311286   3.668   0.504   4.453 -0.2362  0.2488  0.4848
 2810SOL    MW411287   3.699   0.476   4.530  0.5488 -0.6327 -0.1302
 2811SOL     OW11288   4.076   4.258   4.121  0.5898 -0.0384 -0.1997
 2811SOL    HW211289   4.082   4.249   4.026 -0.7357 -0.4854 -0.2541
 2811SOL    HW311290   4.075   4.353   4.136 -1.3998  0.0675 -0.8062
 2811SOL    MW411291   4.077   4.269   4.111  0.1521 -0.0834 -0.2871
 2812SOL     OW11292   3.359   2.347   3.792  0.3284  0.0245 -0.2201
 2812SOL    HW211293   3.368   2.252   3.803  2.4837  0.4574  2.2629
 2812SOL    HW311294   3.313   2.376   3.872 -2.2048  0.8579 -1.9093
 2812SOL    MW411295   3.354   2.338   3.804  0.2785  0.1919 -0.1154
 2813SOL     OW11296   0.373   3.212   4.712 -0.1165  0.6358  0.2649
 2813SOL    HW211297   0.374   3.233   4.619  0.9668  3.0900  0.7781
 2813SOL    HW311298   0.285   3.179   4.729 -0.4167  0.4602 -1.5502
 2813SOL    MW411299   0.361   3.210   4.702 -0.0131  0.9363  0.0930
 2814SOL     OW11300   1.250   0.933   4.598  0.1818 -0.0542  0.0192
 2814SOL    HW211301   1.236   0.978   4.515 -0.3438  0.9587  0.6522
 2814SOL    HW311302   1.162   0.920   4.634  0.3900 -0.6588  0.3333
 2814SOL    MW411303   1.237   0.937   4.592  0.1400 -0.0004  0.1440
 2815SOL     OW11304   1.620   2.480   4.423 -0.0110 -0.0113 -0.6050
 2815SOL    HW211305   1.639   2.574   4.414 -0.6640  0.3553  1.5351
 2815SOL    HW311306   1.703   2.437   4.399  1.0472  1.2326  0.7078
 2815SOL    MW411307   1.634   2.487   4.419  0.0424  0.2015 -0.1493
 2816SOL     OW11308   0.655   3.672   4.512 -0.1133  0.3680 -0.4051
 2816SOL    HW211309   0.665   3.675   4.417  1.3055 -1.9043 -0.3513
 2816SOL    HW311310   0.647   3.579   4.533  1.2439  0.7161  1.8749
 2816SOL    MW411311   0.655   3.660   4.502  0.2530  0.1142 -0.0968
 2817SOL     OW11312   2.897   2.077   3.721  0.6122  0.1109  0.3532
 2817SOL    HW211313   2.893   2.170   3.743 -1.7565  0.2057 -0.3191
 2817SOL    HW311314   2.909   2.075   3.626  3.0815 -0.3093  0.6301
 2817SOL    MW411315   2.898   2.089   3.711  0.6256  0.0675  0.3009
 2818SOL     OW11316   0.942   2.445   3.728  0.2139  0.4828  0.0319
 2818SOL    HW211317   0.860   2.489   3.747  0.9160  1.1917  1.5532
 2818SOL    HW311318   0.926   2.353   3.752  0.5401  1.0417  2.6107
 2818SOL    MW411319   0.929   2.438   3.734  0.3495  0.6502  0.5727
 2819SOL     OW11320   0.847   3.975   4.263 -0.0694 -0.2444  0.2606
 2819SOL    HW211321   0.763   3.957   4.221 -1.3205  0.9156  2.1912
 2819SOL    HW311322   0.867   4.066   4.239 -0.1802  0.0135  1.1339
 2819SOL    MW411323   0.838   3.985   4.254 -0.2490 -0.0575  0.6304
 2820SOL     OW11324   1.852   0.575   4.557 -0.4216 -0.0634  0.2186
 2820SOL    HW211325   1.793   0.650   4.561 -1.0512 -0.5927  0.8301
 2820SOL    HW311326   1.891   0.581   4.469 -0.9412  0.6150  0.0270
 2820SOL    MW411327   1.850   0.586   4.546 -0.5732 -0.0437  0.2742
 2821SOL     OW11328   2.448   4.349   3.659  0.0815 -0.4143  0.3310
 2821SOL    HW211329   2.534   4.311   3.676  0.0531 -0.3531  0.6158
 2821SOL    HW311330   2.389   4.303   3.718 -0.1524 -0.7411 -0.1557
 2821SOL    MW411331   2.451   4.338   3.669  0.0467 -0.4487  0.3042
 2822SOL     OW11332   4.013   2.692   3.879 -0.4772 -0.0486  0.3160
 2822SOL    HW211333   3.926   2.731   3.868 -0.9982 -1.0934  0.6620
 2822SOL    HW311334   4.023   2.683   3.973 -0.3995 -0.8357  0.2302
 2822SOL    MW411335   4.003   2.696   3.890 -0.5360 -0.2904  0.3502
 2823SOL     OW11336   1.030   0.236   4.653  0.0373  0.2664 -0.8427
 2823SOL    HW211337   1.095   0.176   4.617  2.5180  2.4717 -0.2108
 2823SOL    HW311338   1.013   0.298   4.581  0.5995  1.2205 -0.1612
 2823SOL    MW411339   1.036   0.237   4.639  0.4388  0.6832 -0.6695
 2824SOL     OW11340   1.510   3.087   4.153 -0.4899  0.1313 -0.1351
 2824SOL    HW211341   1.503   3.158   4.218  1.0988  0.5838 -0.4418
 2824SOL    HW311342   1.427   3.040   4.161 -1.5749  2.0119  0.1039
 2824SOL    MW411343   1.498   3.090   4.163 -0.4234  0.4392 -0.1440
 2825SOL     OW11344   2.710   3.177   3.655  0.3444  0.2736 -0.4893
 2825SOL    HW211345   2.780   3.125   3.695 -0.0070  0.8350  0.8534
 2825SOL    HW311346   2.632   3.156   3.705  0.2235  2.1817  0.1642
 2825SOL    MW411347   2.709   3.168   3.667  0.2820  0.5996 -0.2260
 2826SOL     OW11348   2.405   2.223   4.036 -0.0771  0.4621  0.1171
 2826SOL    HW211349   2.419   2.236   3.943  0.0407  0.4750  0.1377
 2826SOL    HW311350   2.310   2.233   4.047 -0.3421 -1.4171 -0.2982
 2826SOL    MW411351   2.394   2.226   4.025 -0.0966  0.2158  0.0653
 2827SOL     OW11352   3.874   4.138   4.260 -0.7173 -0.3556  0.1893
 2827SOL    HW211353   3.888   4.138   4.354  2.1630 -1.1749 -0.1747
 2827SOL    HW311354   3.949   4.185   4.224 -0.8722 -1.5369 -1.7883
 2827SOL    MW411355   3.886   4.144   4.267 -0.3576 -0.6199 -0.1192
 2828SOL     OW11356   4.244   1.025   4.245 -0.2360 -0.0011 -0.2553
 2828SOL    HW211357   4.339   1.031   4.238 -0.1874 -1.5109 -1.1460
 2828SOL    HW311358   4.224   1.059   4.332  1.4652 -2.8265  1.2909
 2828SOL    MW411359   4.254   1.030   4.256 -0.0052 -0.5732 -0.1683
 2829SOL     OW11360   1.741   0.920   4.286  0.0904 -0.7500  0.1326
 2829SOL    HW211361   1.677   0.989   4.265 -0.8824 -1.3825  0.9746
 2829SOL    HW311362   1.721   0.895   4.376  1.8915 -0.5866  0.5999
 2829SOL    MW411363   1.730   0.926   4.295  0.1998 -0.8119  0.3052
 2830SOL     OW11364   3.258   3.848   4.535  0.0159 -0.0943  0.8566
 2830SOL    HW211365   3.343   3.888   4.517 -0.4351  0.2429 -0.5210
 2830SOL    HW311366   3.272   3.754   4.519 -0.3879  0.1977 -1.3727
 2830SOL    MW411367   3.271   3.841   4.531 -0.0970 -0.0114  0.3810
 2831SOL     OW11368   1.366   1.879   4.511 -0.4382  0.0295  0.4957
 2831SOL    HW211369   1.325   1.911   4.431  0.6346  1.3010  0.4303
 2831SOL    HW311370   1.409   1.957   4.548 -0.5523 -0.6379  2.0702
 2831SOL    MW411371   1.366   1.894   4.506 -0.3117  0.1092  0.6952
 2832SOL     OW11372   4.121   0.391   4.167 -0.1039  0.0176 -0.2512
 2832SOL    HW211373   4.191   0.333   4.198 -1.5716 -1.0862  1.0680
 2832SOL    HW311374   4.130   0.391   4.072  0.7617 -1.3007 -0.1838
 2832SOL    MW411375   4.132   0.383   4.159 -0.1831 -0.3020 -0.0682
 2833SOL     OW11376   3.623   3.043   4.362  0.1567  0.2336  0.2209
 2833SOL    HW211377   3.533   3.066   4.339  0.7645  2.1100 -0.3837
 2833SOL    HW311378   3.675   3.080   4.291  1.3336 -1.7159  0.0350
 2833SOL    MW411379   3.618   3.051   4.349  0.3920  0.2239  0.1173
 2834SOL     OW11380   4.320   2.603   4.166 -0.0738 -0.2610  0.0923
 2834SOL    HW211381   4.227   2.579   4.170 -0.1414 -0.0589 -0.1577
 2834SOL    HW311382   4.327   2.679   4.223  0.3258 -1.4183  1.6029
 2834SOL    MW411383   4.308   2.610   4.174 -0.0300 -0.3870  0.2589
 2835SOL     OW11384   4.481   0.553   4.540 -0.3688  0.3993  0.8900
 2835SOL    HW211385   4.469   0.459   4.530 -0.0012  0.4300  0.0916
 2835SOL    HW311386   4.402   0.583   4.584 -0.3513 -0.3293  1.4229
 2835SOL    MW411387   4.469   0.545   4.545 -0.3185  0.3072  0.8550
 2836SOL     OW11388   0.177   4.418   3.969 -0.3000  0.3071 -0.2176
 2836SOL    HW211389   0.184   4.514   3.965 -0.3558  0.3673  0.8981
 2836SOL    HW311390   0.268   4.388   3.961 -0.3332  0.4213 -1.1148
 2836SOL    MW411391   0.190   4.427   3.967 -0.3117  0.3295 -0.1888
 2837SOL     OW11392   2.107   0.693   4.090  0.2030 -0.2544 -0.0517
 2837SOL    HW211393   2.096   0.736   4.005  1.7587  1.5993  0.6425
 2837SOL    HW311394   2.201   0.677   4.096  0.1585  0.0287  1.4938
 2837SOL    MW411395   2.118   0.697   4.079  0.4025  0.0275  0.2432
 2838SOL     OW11396   2.896   2.087   3.446 -0.1134 -0.2524  0.1208
 2838SOL    HW211397   2.973   2.045   3.408  0.6341  1.2009 -0.0007
 2838SOL    HW311398   2.822   2.050   3.397  0.5308 -1.2898 -0.0921
 2838SOL    MW411399   2.897   2.076   3.434  0.0701 -0.1979  0.0768
 2839SOL     OW11400   0.291   2.327   4.106  0.3455 -0.3458  0.4656
 2839SOL    HW211401   0.234   2.285   4.170  1.2928 -1.4025  0.6448
 2839SOL    HW311402   0.268   2.419   4.109  0.1951 -0.4275  2.1603
 2839SOL    MW411403   0.281   2.333   4.115  0.4506 -0.4959  0.7133
 2840SOL     OW11404   1.638   1.510   4.668  0.3146 -0.0447  0.3755
 2840SOL    HW211405   1.667   1.559   4.591 -1.1079 -0.5736 -0.5077
 2840SOL    HW311406   1.646   1.418   4.642  2.5415 -0.3268  1.8660
 2840SOL    MW411407   1.643   1.504   4.654  0.4208 -0.1518  0.4554
 2841SOL     OW11408   3.317   3.204   4.061  0.1596  0.1640 -0.3113
 2841SOL    HW211409   3.396   3.246   4.095 -0.4570  2.3377 -1.4815
 2841SOL    HW311410   3.246   3.263   4.085 -0.6501  0.1381 -2.5043
 2841SOL    MW411411   3.318   3.217   4.069 -0.0284  0.4475 -0.7548
 2842SOL     OW11412   1.764   3.187   3.755 -0.5432  0.1391 -0.7420
 2842SOL    HW211413   1.679   3.162   3.790 -1.0065  0.8815 -1.3176
 2842SOL    HW311414   1.763   3.283   3.755  0.3996  0.1582 -0.5012
 2842SOL    MW411415   1.753   3.197   3.760 -0.4799  0.2396 -0.7861
 2843SOL     OW11416   1.402   0.413   3.829  0.3907 -0.4765  0.0059
 2843SOL    HW211417   1.405   0.328   3.785 -1.2289 -0.4060 -0.2752
 2843SOL    HW311418   1.422   0.393   3.921  1.0863 -1.0060 -0.2597
 2843SOL    MW411419   1.405   0.399   3.836  0.2687 -0.5371 -0.0660
 2844SOL     OW11420   2.858   2.336   3.786 -0.2517 -0.0277 -0.2094
 2844SOL    HW211421   2.773   2.363   3.751 -0.3351 -0.2227 -0.1573
 2844SOL    HW311422   2.922   2.372   3.724 -0.3517  0.4467 -0.0407
 2844SOL    MW411423   2.856   2.344   3.773 -0.2759  0.0091 -0.1800
 2845SOL     OW11424   3.143   4.033   3.775 -0.2924 -0.4757  0.5505
 2845SOL    HW211425   3.073   3.974   3.801  0.2005 -0.2955  2.3160
 2845SOL    HW311426   3.223   3.992   3.807  0.4066 -0.5967 -1.3085
 2845SOL    MW411427   3.145   4.020   3.783 -0.1354 -0.4678  0.5383
 2846SOL     OW11428   1.755   4.334   4.550 -0.1121 -0.1381  0.3315
 2846SOL    HW211429   1.850   4.340   4.562  0.1579  0.3814 -1.9181
 2846SOL    HW311430   1.727   4.423   4.529 -0.6949 -0.7619 -1.6537
 2846SOL    MW411431   1.764   4.346   4.549 -0.1534 -0.1521 -0.2270
 2847SOL     OW11432   3.157   1.689   3.737 -0.2701 -0.2876  0.0689
 2847SOL    HW211433   3.083   1.635   3.765  0.0101 -0.5726  0.2592
 2847SOL    HW311434   3.142   1.773   3.782 -0.2644 -0.4748  0.4260
 2847SOL    MW411435   3.145   1.693   3.747 -0.2325 -0.3499  0.1411
 2848SOL     OW11436   4.338   0.242   4.259  0.0698  0.2648  0.0414
 2848SOL    HW211437   4.358   0.152   4.232 -1.5867  0.0998 -0.7000
 2848SOL    HW311438   4.398   0.296   4.207  2.0797 -0.4548  1.5326
 2848SOL    MW411439   4.349   0.237   4.249  0.1159  0.1481  0.1402
 2849SOL     OW11440   2.897   1.394   4.614 -0.0108  0.1159 -0.0088
 2849SOL    HW211441   2.899   1.489   4.620  0.9476  0.1146 -0.2782
 2849SOL    HW311442   2.804   1.373   4.601 -0.2715  0.9812  0.4629
 2849SOL    MW411443   2.885   1.404   4.613  0.0815  0.2300  0.0172
 2850SOL     OW11444   1.157   1.282   3.762 -0.0061 -0.5926 -0.1263
 2850SOL    HW211445   1.228   1.229   3.798  1.0626  0.4134 -0.7240
 2850SOL    HW311446   1.173   1.370   3.795 -1.2517 -0.4442  0.1152
 2850SOL    MW411447   1.169   1.287   3.771 -0.0293 -0.4404 -0.1733
 2851SOL     OW11448   3.458   2.441   4.487 -0.5423 -0.0212 -0.4274
 2851SOL    HW211449   3.399   2.370   4.462 -1.2806  0.2970  0.3678
 2851SOL    HW311450   3.400   2.507   4.526  0.4787 -0.1966  1.4005
 2851SOL    MW411451   3.442   2.440   4.489 -0.5050 -0.0024 -0.0815
 2852SOL     OW11452   3.347   1.530   3.842  0.2463  0.3007  0.0608
 2852SOL    HW211453   3.283   1.586   3.798  0.0871  0.0505 -0.0303
 2852SOL    HW311454   3.334   1.547   3.935  0.0977  0.3077  0.0394
 2852SOL    MW411455   3.337   1.540   3.848  0.2058  0.2687  0.0460
 2853SOL     OW11456   2.760   2.383   4.415  0.4189  0.2238 -0.1087
 2853SOL    HW211457   2.840   2.398   4.466  0.1020  0.2102  0.3961
 2853SOL    HW311458   2.708   2.324   4.470  1.0715 -1.6624 -1.4659
 2853SOL    MW411459   2.764   2.377   4.429  0.4630 -0.0269 -0.2208
 2854SOL     OW11460   2.724   3.985   3.713  0.2154  0.2993  0.1356
 2854SOL    HW211461   2.711   4.075   3.743 -0.7511 -0.2210  1.2803
 2854SOL    HW311462   2.810   3.961   3.749 -0.0712  0.3399  0.8427
 2854SOL    MW411463   2.734   3.994   3.722  0.0498  0.2358  0.3800
 2855SOL     OW11464   0.834   4.441   4.462 -0.5949 -0.3392  0.1423
 2855SOL    HW211465   0.789   4.357   4.451  2.3380 -2.2391  2.1128
 2855SOL    HW311466   0.915   4.420   4.507 -0.1392  3.6984  1.4281
 2855SOL    MW411467   0.839   4.427   4.466 -0.1478 -0.0572  0.5717
 2856SOL     OW11468   0.645   0.742   3.828  0.2910 -0.5062  0.0654
 2856SOL    HW211469   0.725   0.793   3.816 -0.2471  0.0256 -1.4063
 2856SOL    HW311470   0.636   0.734   3.922  1.6167  0.1623  0.2690
 2856SOL    MW411471   0.655   0.748   3.839  0.3949 -0.3478 -0.1018
 2857SOL     OW11472   3.507   3.405   4.127 -0.2049  0.2441  0.0003
 2857SOL    HW211473   3.504   3.428   4.034  2.8782 -0.1915 -0.2488
 2857SOL    HW311474   3.480   3.484   4.172 -1.9695  0.3907 -1.2466
 2857SOL    MW411475   3.503   3.418   4.120 -0.0310  0.2060 -0.1969
 2858SOL     OW11476   1.519   2.442   4.085  0.1428  0.2301 -0.0708
 2858SOL    HW211477   1.602   2.413   4.049  0.0183  1.1823 -1.1539
 2858SOL    HW311478   1.510   2.394   4.168  1.4579 -0.3412 -0.2545
 2858SOL    MW411479   1.529   2.432   4.091  0.2998  0.2804 -0.2379
 2859SOL     OW11480   1.951   2.688   4.340 -0.0115  0.1544 -0.0890
 2859SOL    HW211481   1.930   2.727   4.255  0.4526 -0.7810 -0.6286
 2859SOL    HW311482   2.020   2.744   4.376 -1.5889  1.7466  0.5801
 2859SOL    MW411483   1.957   2.701   4.334 -0.1584  0.2410 -0.0720
 2860SOL     OW11484   0.256   4.658   3.869  0.2677  0.2454  0.1833
 2860SOL    HW211485   0.238   4.707   3.949 -0.3239 -0.5917  0.5687
 2860SOL    HW311486   0.200   4.698   3.803  0.3316  0.5626  0.3209
 2860SOL    MW411487   0.246   4.670   3.871  0.1981  0.1769  0.2525
 2861SOL     OW11488   1.658   0.462   4.214  0.6775 -0.1086 -0.1572
 2861SOL    HW211489   1.577   0.430   4.173 -0.1678  0.6266  0.8907
 2861SOL    HW311490   1.727   0.435   4.155 -0.3548 -0.6558 -1.1401
 2861SOL    MW411491   1.656   0.454   4.201  0.4299 -0.0838 -0.1488
 2862SOL     OW11492   1.310   3.406   4.085  0.0028  0.0622 -0.0771
 2862SOL    HW211493   1.255   3.480   4.109  0.3645  1.1225 -2.4000
 2862SOL    HW311494   1.254   3.329   4.097 -1.1699  0.9188 -0.0141
 2862SOL    MW411495   1.295   3.406   4.089 -0.1043  0.3150 -0.3753
 2863SOL     OW11496   3.294   3.110   3.791  0.0724 -0.3369 -0.0898
 2863SOL    HW211497   3.269   3.019   3.808 -1.1238  0.2133  1.1972
 2863SOL    HW311498   3.296   3.150   3.878  2.0888  0.5060 -0.4919
 2863SOL    MW411499   3.291   3.103   3.805  0.1807 -0.1533  0.0267
 2864SOL     OW11500   0.220   3.746   4.068  0.0818  0.4565 -0.1943
 2864SOL    HW211501   0.281   3.676   4.089 -0.0043  0.6075  0.5934
 2864SOL    HW311502   0.141   3.726   4.119  0.1424  1.2391  0.2178
 2864SOL    MW411503   0.217   3.734   4.078  0.0785  0.5796 -0.0362
 2865SOL     OW11504   1.688   1.260   4.050 -0.4053 -0.3371  0.4485
 2865SOL    HW211505   1.758   1.251   4.114 -0.4518 -0.3383  0.4999
 2865SOL    HW311506   1.714   1.202   3.979 -0.2960 -0.2463  0.4147
 2865SOL    MW411507   1.701   1.251   4.049 -0.3971 -0.3252  0.4511
 2866SOL     OW11508   1.316   2.362   3.925  0.0241 -0.1870  0.1104
 2866SOL    HW211509   1.369   2.380   3.848  0.5703  1.1166  0.7785
 2866SOL    HW311510   1.372   2.386   3.999 -1.0503  0.0553  0.8602
 2866SOL    MW411511   1.331   2.367   3.925 -0.0455  0.0169  0.2975
 2867SOL     OW11512   0.518   3.436   4.806 -0.5193  0.0489  0.0184
 2867SOL    HW211513   0.454   3.489   4.854 -0.6730  0.4793 -0.6563
 2867SOL    HW311514   0.467   3.362   4.772 -0.1763 -0.8808  1.5038
 2867SOL    MW411515   0.503   3.433   4.808 -0.4944 -0.0172  0.1254
 2868SOL     OW11516   0.656   2.827   3.761 -0.2914 -0.3101  0.0816
 2868SOL    HW211517   0.673   2.844   3.668  2.2442  0.1140  0.5885
 2868SOL    HW311518   0.674   2.734   3.772 -0.5673 -0.3549  0.1581
 2868SOL    MW411519   0.661   2.817   3.750  0.0067 -0.2601  0.1585
 2869SOL     OW11520   1.093   3.899   4.171  0.3864  0.2885 -0.6747
 2869SOL    HW211521   1.084   3.920   4.078 -1.9202 -0.8236 -0.7385
 2869SOL    HW311522   1.003   3.896   4.204  1.1097 -0.5598  1.3202
 2869SOL    MW411523   1.080   3.901   4.163  0.1774  0.0298 -0.4201
 2870SOL     OW11524   0.875   0.693   4.488 -0.5314  0.3659  0.2969
 2870SOL    HW211525   0.780   0.687   4.504 -1.1439  0.6156 -2.8950
 2870SOL    HW311526   0.902   0.774   4.531 -2.0276  0.9938  0.0795
 2870SOL    MW411527   0.866   0.703   4.496 -0.8097  0.4817 -0.1526
 2871SOL     OW11528   4.349   0.032   4.550  0.0741 -0.1101  0.1884
 2871SOL    HW211529   4.421   0.012   4.611 -0.7341  0.4646  1.3524
 2871SOL    HW311530   4.353   0.127   4.539 -1.3797  0.1079  1.3934
 2871SOL    MW411531   4.359   0.042   4.557 -0.2246 -0.0056  0.5007
 2872SOL     OW11532   0.990   1.661   4.747 -0.1894  0.0536  0.3271
 2872SOL    HW211533   1.044   1.680   4.824 -0.1467  0.4723  0.1922
 2872SOL    HW311534   0.972   1.746   4.708 -0.4843 -0.1322  0.0558
 2872SOL    MW411535   0.995   1.675   4.752 -0.2227  0.0843  0.2737
 2873SOL     OW11536   2.089   0.002   4.571  0.4214  0.7373 -0.3511
 2873SOL    HW211537   2.035   0.041   4.503 -0.9939  0.1029  0.3740
 2873SOL    HW311538   2.073  -0.092   4.563  2.0564  0.4666 -0.6399
 2873SOL    MW411539   2.080  -0.005   4.561  0.4506  0.6175 -0.2933
 2874SOL     OW11540   3.573   3.169   3.766  0.6299 -0.3481  0.1640
 2874SOL    HW211541   3.579   3.162   3.671  0.1745  0.2902  0.0827
 2874SOL    HW311542   3.483   3.146   3.787 -0.4897  3.5910  0.0150
 2874SOL    MW411543   3.562   3.165   3.756  0.4222  0.2558  0.1338
 2875SOL     OW11544   2.978   3.879   4.481  0.3568 -0.3964 -0.5028
 2875SOL    HW211545   2.996   3.937   4.407 -0.4970 -0.7801 -1.0257
 2875SOL    HW311546   3.064   3.855   4.515  0.7334  0.5187 -0.7995
 2875SOL    MW411547   2.991   3.884   4.475  0.2937 -0.3264 -0.6113
 2876SOL     OW11548   3.156   0.209   4.620  0.2435 -0.0691  0.0794
 2876SOL    HW211549   3.108   0.132   4.589  0.0125 -0.1976  0.7490
 2876SOL    HW311550   3.246   0.194   4.592  0.0486 -0.2023 -0.4875
 2876SOL    MW411551   3.162   0.197   4.612  0.1874 -0.1037  0.0925
 2877SOL     OW11552   2.934   1.274   3.763 -0.1133  0.4911  0.2522
 2877SOL    HW211553   3.006   1.238   3.814 -0.1844  0.2541  0.1850
 2877SOL    HW311554   2.929   1.366   3.790 -0.9096  0.0834  1.5252
 2877SOL    MW411555   2.943   1.282   3.773 -0.2277  0.4059  0.4110
 2878SOL     OW11556   1.051   2.826   4.036 -0.0366  0.1423 -0.5763
 2878SOL    HW211557   1.068   2.742   3.993 -1.8773  0.1839 -1.4557
 2878SOL    HW311558   1.007   2.879   3.969 -0.2528  1.2726  0.4369
 2878SOL    MW411559   1.047   2.822   4.021 -0.3079  0.2968 -0.5593
 2879SOL     OW11560   4.251   3.058   3.832 -0.2561  0.2583  0.1030
 2879SOL    HW211561   4.237   2.972   3.793  0.0954 -0.4569  1.5259
 2879SOL    HW311562   4.337   3.085   3.798 -1.1116  0.8157 -1.6844
 2879SOL    MW411563   4.261   3.050   3.823 -0.3223  0.2377  0.0548
 2880SOL     OW11564   1.837   2.678   3.845  0.0891 -0.4866  0.3423
 2880SOL    HW211565   1.864   2.719   3.928 -1.3834 -0.8833  1.0311
 2880SOL    HW311566   1.744   2.661   3.856 -0.7657  1.9441 -2.4241
 2880SOL    MW411567   1.829   2.681   3.858 -0.2179 -0.2184  0.0679
 2881SOL     OW11568   0.548   2.260   4.199 -0.1182 -0.2776 -0.0552
 2881SOL    HW211569   0.464   2.284   4.159  0.7543  2.2392 -0.5165
 2881SOL    HW311570   0.529   2.251   4.292 -0.8745  0.4515 -0.1333
 2881SOL    MW411571   0.534   2.262   4.206 -0.1029  0.1507 -0.1268
 2882SOL     OW11572   3.401   2.203   4.201  0.1033 -0.1136 -0.0827
 2882SOL    HW211573   3.411   2.114   4.166  1.8172 -0.7101  1.7768
 2882SOL    HW311574   3.490   2.239   4.199 -0.2261  0.7850  1.0948
 2882SOL    MW411575   3.414   2.196   4.196  0.2859 -0.0737  0.3176
 2883SOL     OW11576   1.836   4.272   3.817 -0.1155  0.0853 -0.1752
 2883SOL    HW211577   1.746   4.300   3.833 -0.4739 -0.3486 -1.3592
 2883SOL    HW311578   1.873   4.258   3.904 -1.5029 -0.6917  0.2997
 2883SOL    MW411579   1.829   4.274   3.830 -0.3458 -0.0744 -0.2687
 2884SOL     OW11580   0.127   3.015   4.390  0.1319 -0.2371 -0.1040
 2884SOL    HW211581   0.113   2.999   4.296  0.0979 -2.3609  0.2289
 2884SOL    HW311582   0.208   2.969   4.410 -0.3375 -0.5659  1.0828
 2884SOL    MW411583   0.136   3.007   4.380  0.0655 -0.5608  0.0968
 2885NA      NA11584   2.824   1.963   0.761  0.3519  0.2923  0.5773
   4.49070   4.66690  10.00000
