Gromacs Runs On Most of All Computer Systems in water
11622
    1U      O5'    1   3.152   2.459   4.414  0.2090  0.0512 -0.1716
    1U      H5T    2   3.127   2.366   4.415  1.4561 -0.3434 -2.5877
    1U      C5'    3   3.159   2.511   4.287 -0.7672  0.0829  0.1305
    1U     H5'1    4   3.231   2.453   4.230 -1.2511 -0.6265  0.2455
    1U     H5'2    5   3.210   2.608   4.288 -0.9421  0.1741  1.5856
    1U      C4'    6   3.027   2.516   4.214 -0.1885 -0.0368 -0.0740
    1U      H4'    7   3.038   2.573   4.121 -1.1271  0.7104  0.2598
    1U      O4'    8   2.978   2.393   4.175  0.3149  0.1172 -0.1169
    1U      C1'    9   2.835   2.401   4.184 -0.2798  0.4558 -0.1321
    1U      H1'   10   2.802   2.470   4.106  0.8102  0.1036 -0.9130
    1U       N1   11   2.777   2.267   4.182  0.4664  0.0938  0.1194
    1U       C6   12   2.852   2.155   4.204  0.0468  0.2538 -0.9992
    1U       H6   13   2.960   2.159   4.204  0.0236  0.8619 -0.3576
    1U       C5   14   2.798   2.035   4.208 -0.2235  0.3345 -0.2445
    1U       H5   15   2.857   1.946   4.221  0.6816  1.1264  1.1385
    1U       C4   16   2.654   2.012   4.192 -0.4353  0.2397  0.4531
    1U       O4   17   2.592   1.912   4.226  0.2314 -0.0165 -0.3508
    1U       N3   18   2.583   2.126   4.172  0.6848 -0.3662  0.1348
    1U       H3   19   2.483   2.125   4.180  0.6357  0.1553 -0.3720
    1U       C2   20   2.643   2.252   4.167 -0.2759  0.1848  0.0607
    1U       O2   21   2.569   2.349   4.149  0.3906 -0.5026  0.9005
    1U      C3'   22   2.919   2.587   4.301 -0.3183  0.8828  0.4675
    1U      H3'   23   2.953   2.610   4.402 -1.8979  0.7529  1.0280
    1U      C2'   24   2.811   2.477   4.319  0.7687 -0.4571  0.3140
    1U     H2'1   25   2.834   2.412   4.403  1.1692  0.5376  0.9803
    1U      O2'   26   2.679   2.529   4.337 -0.1037 -0.4814 -0.1599
    1U     HO'2   27   2.672   2.575   4.421 -3.0809  0.0934 -0.6526
    1U      O3'   28   2.865   2.703   4.247  0.5027  0.3572 -0.4678
    2RG3      P   29   2.953   2.836   4.242  0.3162  0.1610 -0.0424
    2RG3    O1P   30   2.866   2.948   4.204 -0.1660 -0.0222 -0.1936
    2RG3    O2P   31   3.076   2.808   4.160 -0.6400  0.3582 -0.3189
    2RG3    O5'   32   3.000   2.867   4.387  0.3465  0.3853  0.1008
    2RG3    C5'   33   2.919   2.924   4.487 -0.3434 -0.0343  0.0374
    2RG3   H5'1   34   2.848   2.844   4.507  1.1230 -1.2455  0.5323
    2RG3   H5'2   35   2.873   3.016   4.450  1.2644  0.9011  0.2871
    2RG3    C4'   36   2.995   2.964   4.614 -0.0637 -0.1115  0.1823
    2RG3    H4'   37   2.934   3.006   4.693  1.7995  1.9313  0.5734
    2RG3    O4'   38   3.054   2.844   4.668  0.0369 -0.3834 -0.3033
    2RG3    C1'   39   3.194   2.877   4.698 -0.4343 -0.4589  0.3573
    2RG3    H1'   40   3.205   2.920   4.797  0.9149 -0.1194  0.0671
    2RG3     N9   41   3.282   2.760   4.698  0.1372 -0.1555  0.3582
    2RG3     C8   42   3.246   2.631   4.659  0.1575  0.4144  0.7302
    2RG3     H8   43   3.147   2.592   4.642  0.7905 -1.0081  0.2680
    2RG3     N7   44   3.349   2.554   4.656 -0.7987  0.1203 -0.2526
    2RG3     C5   45   3.459   2.632   4.690  0.2237  0.1841 -0.3213
    2RG3     C6   46   3.599   2.594   4.711  0.6080 -0.5240 -0.4167
    2RG3     O6   47   3.656   2.484   4.714  0.1356  0.3278  0.3470
    2RG3     N1   48   3.675   2.703   4.737 -0.3785  0.1097 -0.2276
    2RG3     H1   49   3.772   2.678   4.747 -0.9624 -1.4460  2.1146
    2RG3     C2   50   3.630   2.830   4.757  0.0308 -0.3692 -0.0535
    2RG3     N2   51   3.715   2.923   4.802  0.3635 -0.0559 -0.2550
    2RG3    H21   52   3.814   2.913   4.814  0.3745  1.6636  1.2303
    2RG3    H22   53   3.681   3.018   4.796  1.7487  0.4750  0.3187
    2RG3     N3   54   3.503   2.863   4.738 -0.5460 -0.0890  0.3952
    2RG3     C4   55   3.419   2.761   4.707 -0.5005 -0.7975  0.4553
    2RG3    C3'   56   3.104   3.059   4.574  0.2340 -0.0298  0.0455
    2RG3    H3'   57   3.089   3.088   4.470 -3.5276 -0.9331  0.2463
    2RG3    C2'   58   3.234   2.990   4.603  1.0314 -0.4637 -0.6080
    2RG3   H2'1   59   3.269   2.944   4.510  0.5971 -2.6487  0.2611
    2RG3    O2'   60   3.334   3.081   4.650 -0.0326  0.7119  0.1258
    2RG3   HO'2   61   3.393   3.024   4.700  1.2867  0.6706 -1.3924
    2RG3    O3'   62   3.097   3.172   4.661 -0.4197 -0.1537  0.1174
    2RG3    H3T   63   3.187   3.183   4.691 -0.4823  2.5467 -0.5323
    3RG35     P   64   2.238   2.115   4.330 -0.0110  0.1587 -0.0276
    3RG35   O1P   65   2.175   2.243   4.356  0.1599  0.1350 -0.0170
    3RG35   O2P   66   2.298   2.100   4.198  0.0204 -0.1610 -0.1834
    3RG35   O5'   67   2.371   2.121   4.423 -0.0514  0.2883 -0.2690
    3RG35   C5'   68   2.352   2.133   4.562 -0.3234  0.1662 -0.6135
    3RG35  H5'1   69   2.300   2.046   4.603 -1.1343  1.1834  0.5373
    3RG35  H5'2   70   2.289   2.218   4.590 -0.5395  0.0778 -0.8216
    3RG35   C4'   71   2.485   2.135   4.638  0.3200  0.2050  0.8524
    3RG35   H4'   72   2.453   2.163   4.738 -0.5196  1.3754  0.2676
    3RG35   O4'   73   2.551   2.004   4.634  0.1035  0.2072  0.0162
    3RG35   C1'   74   2.690   2.032   4.643  0.0688 -0.2544 -0.2094
    3RG35   H1'   75   2.714   2.066   4.744  1.2452 -2.2526  0.2161
    3RG35    N9   76   2.775   1.921   4.596  0.4699  0.2969 -0.1598
    3RG35    C8   77   2.744   1.823   4.503  0.6104 -0.3612  0.1548
    3RG35    H8   78   2.647   1.811   4.458  0.9217 -0.6832 -0.4423
    3RG35    N7   79   2.841   1.745   4.467 -0.2530  0.0821  0.3350
    3RG35    C5   80   2.941   1.778   4.553 -0.0528  0.4641 -0.4486
    3RG35    C6   81   3.070   1.720   4.577 -0.1538 -0.0544 -0.0711
    3RG35    O6   82   3.119   1.622   4.520 -0.5106  0.1818  0.4513
    3RG35    N1   83   3.147   1.789   4.667 -0.1281 -0.2278 -0.1272
    3RG35    H1   84   3.243   1.763   4.683  0.0164  0.9379  1.0558
    3RG35    C2   85   3.094   1.884   4.744 -0.5621  0.2082 -0.2323
    3RG35    N2   86   3.174   1.919   4.839 -0.2696 -0.1366  0.1948
    3RG35   H21   87   3.267   1.881   4.832 -0.2390  0.3094 -2.2840
    3RG35   H22   88   3.138   1.990   4.902 -1.5051 -0.3659 -0.2258
    3RG35    N3   89   2.975   1.940   4.735 -0.2645  0.3412  0.3202
    3RG35    C4   90   2.903   1.883   4.635 -0.3911 -0.2033  0.5797
    3RG35   C3'   91   2.589   2.237   4.583  0.4540 -0.2856 -0.0710
    3RG35   H3'   92   2.551   2.279   4.490  0.0398  0.9047  0.6309
    3RG35   C2'   93   2.713   2.153   4.557  0.5914  0.0134 -0.4124
    3RG35  H2'1   94   2.712   2.116   4.455 -1.1039  1.8061 -1.0654
    3RG35   O2'   95   2.837   2.221   4.592 -0.2328  0.2704  0.0251
    3RG35  HO'2   96   2.823   2.286   4.660 -1.7824  0.2040 -0.1988
    3RG35   O3'   97   2.600   2.335   4.687 -0.4099  0.0399  0.1605
    3RG35   H3T   98   2.528   2.397   4.676 -0.4544 -0.0806 -0.2543
    3RG35   O3P   99   2.157   1.995   4.368 -0.0412 -0.8728 -0.2412
    7SOL     OW  100   1.809   1.793   0.561  0.3756  0.3147 -0.7616
    7SOL    HW2  101   1.725   1.837   0.576  0.8679  1.1902 -0.5026
    7SOL    HW3  102   1.786   1.708   0.523 -0.6848  0.0409  0.4548
    7SOL    MW4  103   1.795   1.788   0.558  0.3006  0.3940 -0.5670
    8SOL     OW  104   3.576   1.836   0.679  0.0255 -0.8750 -0.0549
    8SOL    HW2  105   3.506   1.783   0.716  0.6324 -1.3078  0.5059
    8SOL    HW3  106   3.588   1.907   0.743  0.9209 -1.4956  0.4918
    8SOL    MW4  107   3.569   1.838   0.693  0.2239 -1.0140  0.0912
    9SOL     OW  108   4.201   4.284   0.579 -0.2319  0.6273 -0.4392
    9SOL    HW2  109   4.280   4.246   0.539 -0.6210  1.1146 -1.7126
    9SOL    HW3  110   4.135   4.279   0.510 -1.2112  0.5806  0.4916
    9SOL    MW4  111   4.203   4.278   0.564 -0.4125  0.6857 -0.4844
   10SOL     OW  112   4.364   0.850   0.935  0.3519  0.3592  0.3540
   10SOL    HW2  113   4.333   0.814   1.018  0.2654 -0.0052  0.1635
   10SOL    HW3  114   4.284   0.869   0.885  0.4057  0.5009  0.3212
   10SOL    MW4  115   4.349   0.848   0.939  0.3476  0.3298  0.3246
   11SOL     OW  116   0.913   3.062   0.545 -0.8361 -0.2347  0.1313
   11SOL    HW2  117   0.903   3.038   0.638 -0.2075 -0.5211  0.1272
   11SOL    HW3  118   0.888   3.154   0.542  0.9093  0.2940  0.9209
   11SOL    MW4  119   0.908   3.071   0.557 -0.5229 -0.2031  0.2349
   12SOL     OW  120   1.713   0.895   0.512 -0.0812  0.0701  0.2926
   12SOL    HW2  121   1.793   0.946   0.497  0.7441 -0.3255  3.1544
   12SOL    HW3  122   1.743   0.804   0.513 -0.6224 -0.0978  1.0995
   12SOL    MW4  123   1.728   0.890   0.510 -0.0437 -0.0042  0.7766
   13SOL     OW  124   0.362   3.992   0.192  0.3834  0.3169  0.1677
   13SOL    HW2  125   0.441   4.005   0.245  0.4190 -1.4523  0.5846
   13SOL    HW3  126   0.396   3.974   0.104  0.3645  1.6769 -0.1354
   13SOL    MW4  127   0.377   3.991   0.187  0.3856  0.2627  0.1827
   14SOL     OW  128   3.223   0.210   0.873 -0.0584  0.0470  0.4696
   14SOL    HW2  129   3.157   0.265   0.830  0.3750  0.9966  1.0168
   14SOL    HW3  130   3.233   0.135   0.814  0.1248  1.0616 -0.8004
   14SOL    MW4  131   3.215   0.207   0.859  0.0229  0.3062  0.3742
   15SOL     OW  132   3.290   4.103   0.787 -0.1233  0.1856 -0.0227
   15SOL    HW2  133   3.202   4.109   0.825 -0.3720  1.4277 -0.7639
   15SOL    HW3  134   3.275   4.083   0.695  0.4567 -2.0165  0.3356
   15SOL    MW4  135   3.276   4.101   0.780 -0.0794  0.0591 -0.0732
   16SOL     OW  136   0.926   2.533   0.450 -0.2374  0.5219  0.2157
   16SOL    HW2  137   0.848   2.589   0.456 -0.2095  0.7055 -0.9910
   16SOL    HW3  138   0.923   2.479   0.529 -1.2802  0.9244  0.4617
   16SOL    MW4  139   0.916   2.533   0.461 -0.3713  0.5994  0.0889
   17SOL     OW  140   1.034   3.889   0.472  0.1982  0.2828  0.2314
   17SOL    HW2  141   1.100   3.823   0.447 -0.3660  0.3051 -1.3727
   17SOL    HW3  142   0.962   3.838   0.509  0.1189  0.0601 -0.2251
   17SOL    MW4  143   1.033   3.874   0.474  0.1135  0.2563 -0.0404
   18SOL     OW  144   4.276   3.105   1.214  0.0927 -0.0939 -0.1275
   18SOL    HW2  145   4.190   3.141   1.235 -0.5773 -0.8453 -1.5252
   18SOL    HW3  146   4.277   3.098   1.119  1.4411 -0.7347 -0.0828
   18SOL    MW4  147   4.265   3.108   1.204  0.1822 -0.2775 -0.3060
   19SOL     OW  148   3.573   2.043   0.856  0.1246 -0.1651 -0.0245
   19SOL    HW2  149   3.574   2.006   0.944 -0.9243 -0.5365 -0.1572
   19SOL    HW3  150   3.496   2.099   0.855 -0.0747 -0.4545 -0.8255
   19SOL    MW4  151   3.563   2.046   0.868 -0.0401 -0.2522 -0.1476
   20SOL     OW  152   2.539   0.463   0.771  0.5162 -0.5735  0.3969
   20SOL    HW2  153   2.583   0.535   0.817  2.0911 -1.1526 -0.1953
   20SOL    HW3  154   2.506   0.504   0.691  0.0179 -0.1593  0.8037
   20SOL    MW4  155   2.540   0.478   0.767  0.6583 -0.5952  0.3725
   21SOL     OW  156   3.392   2.553   0.805  0.3534 -0.1282  0.0828
   21SOL    HW2  157   3.413   2.460   0.809 -0.9848 -0.4625 -0.3075
   21SOL    HW3  158   3.306   2.559   0.848  0.4355  0.9226  0.0989
   21SOL    MW4  159   3.383   2.541   0.811  0.1879 -0.0336  0.0335
   22SOL     OW  160   1.118   3.359   0.759 -0.5281  0.1445  0.0921
   22SOL    HW2  161   1.192   3.413   0.786 -1.2771  1.0863  0.3023
   22SOL    HW3  162   1.043   3.397   0.805 -1.0182 -1.2805  0.4911
   22SOL    MW4  163   1.118   3.372   0.769 -0.6915  0.0808  0.1725
   23SOL     OW  164   1.053   3.512   0.514 -0.2912 -0.1034  0.0064
   23SOL    HW2  165   1.116   3.581   0.490 -0.5926  0.1902  0.0569
   23SOL    HW3  166   1.098   3.461   0.581 -0.5554  0.8246  0.8985
   23SOL    MW4  167   1.067   3.515   0.520 -0.3659  0.0579  0.1308
   24SOL     OW  168   1.963   2.595   0.805 -0.4540 -0.0875  0.1693
   24SOL    HW2  169   2.001   2.573   0.720 -0.2708 -0.5431  0.3664
   24SOL    HW3  170   1.966   2.513   0.854 -0.6900  0.1401  0.5665
   24SOL    MW4  171   1.968   2.581   0.800 -0.4611 -0.1175  0.2477
   25SOL     OW  172   3.991   1.122   0.866  0.4205  0.6390  0.2332
   25SOL    HW2  173   4.043   1.181   0.813  1.3288  0.7291  1.1991
   25SOL    HW3  174   4.008   1.035   0.830 -0.2426  0.8677 -0.6399
   25SOL    MW4  175   4.000   1.118   0.854  0.4528  0.6812  0.2455
   26SOL     OW  176   3.590   2.460   1.263  0.6001 -0.6160 -0.1001
   26SOL    HW2  177   3.600   2.555   1.254  0.4165 -0.5555  0.2887
   26SOL    HW3  178   3.575   2.447   1.357  0.6266 -1.0296 -0.1533
   26SOL    MW4  179   3.589   2.471   1.274  0.5794 -0.6623 -0.0559
   27SOL     OW  180   0.669   3.128   1.183  0.2943 -0.2216  0.1950
   27SOL    HW2  181   0.662   3.159   1.093  0.8662  1.3562  0.6709
   27SOL    HW3  182   0.750   3.168   1.216  0.6437 -1.6297  1.0799
   27SOL    MW4  183   0.679   3.138   1.175  0.4159 -0.1991  0.3747
   28SOL     OW  184   3.385   0.511   0.652  0.2614 -0.5942 -0.0048
   28SOL    HW2  185   3.396   0.424   0.612 -0.5304 -1.3879  1.4843
   28SOL    HW3  186   3.452   0.515   0.720 -0.7337 -0.6908  1.0050
   28SOL    MW4  187   3.395   0.500   0.655  0.0255 -0.7116  0.3249
   29SOL     OW  188   2.601   1.197   0.447  0.2472  0.4273 -0.0225
   29SOL    HW2  189   2.610   1.292   0.452  2.2024  0.2488  0.3569
   29SOL    HW3  190   2.545   1.173   0.521  0.6924  1.1761  0.5628
   29SOL    MW4  191   2.595   1.207   0.457  0.5639  0.5026  0.1048
   30SOL     OW  192   4.317   1.221   0.518 -0.4047 -0.2589  0.1055
   30SOL    HW2  193   4.391   1.208   0.577 -1.2934  0.0500  1.3093
   30SOL    HW3  194   4.295   1.133   0.488  1.0448 -0.2591 -1.0217
   30SOL    MW4  195   4.324   1.207   0.522 -0.3309 -0.2182  0.1156
   31SOL     OW  196   3.374   3.824   0.856 -0.3020  0.2997 -0.0835
   31SOL    HW2  197   3.360   3.912   0.821 -0.1306  0.5591  0.4898
   31SOL    HW3  198   3.381   3.837   0.950  0.1732 -0.2765 -0.0380
   31SOL    MW4  199   3.373   3.837   0.864 -0.2167  0.2582 -0.0018
   32SOL     OW  200   0.565   4.037   0.413  0.1276  0.2270 -0.6870
   32SOL    HW2  201   0.648   4.086   0.421  0.0054  0.4139 -0.5416
   32SOL    HW3  202   0.503   4.089   0.463 -0.0491  0.0164 -0.6895
   32SOL    MW4  203   0.568   4.051   0.421  0.0882  0.2232 -0.6681
   33SOL     OW  204   1.322   0.428   0.853  0.2213 -0.0626  0.5309
   33SOL    HW2  205   1.416   0.444   0.866  0.5244 -1.9450  0.7718
   33SOL    HW3  206   1.289   0.411   0.942 -0.3453  0.6189  0.4472
   33SOL    MW4  207   1.330   0.428   0.867  0.1866 -0.2210  0.5516
   34SOL     OW  208   0.849   2.307   0.275  0.3474  0.0006  0.4871
   34SOL    HW2  209   0.855   2.399   0.298 -0.4410  0.4287 -0.9398
   34SOL    HW3  210   0.929   2.268   0.309  1.5138  1.5494 -0.4103
   34SOL    MW4  211   0.860   2.314   0.283  0.3973  0.2613  0.1804
   35SOL     OW  212   0.724   1.452   0.883  0.0677 -0.1540 -0.3708
   35SOL    HW2  213   0.726   1.527   0.823 -1.5559 -0.0852 -0.3721
   35SOL    HW3  214   0.650   1.400   0.852  0.9681 -1.5895 -0.1485
   35SOL    MW4  215   0.715   1.455   0.871 -0.0278 -0.3343 -0.3416
   36SOL     OW  216   3.118   2.387   0.242 -0.0191  0.1708 -0.1282
   36SOL    HW2  217   3.131   2.380   0.148 -0.8543  0.8350 -0.2979
   36SOL    HW3  218   3.207   2.390   0.278  0.3031 -0.4229 -0.8603
   36SOL    MW4  219   3.132   2.386   0.235 -0.0868  0.1800 -0.2472
   37SOL     OW  220   0.038   4.487   0.495 -0.2651  0.0497 -0.3130
   37SOL    HW2  221   0.011   4.487   0.587 -1.7523  0.2959 -0.7217
   37SOL    HW3  222  -0.044   4.502   0.447  0.2691 -1.5135 -1.7443
   37SOL    MW4  223   0.023   4.489   0.501 -0.3905 -0.1240 -0.5558
   38SOL     OW  224   4.358   0.179   0.642 -0.4870  0.1658  0.3104
   38SOL    HW2  225   4.344   0.132   0.724  2.0331 -0.7994  0.2092
   38SOL    HW3  226   4.322   0.266   0.658 -0.8640 -0.3021  2.1058
   38SOL    MW4  227   4.351   0.184   0.655 -0.2046 -0.0233  0.5339
   39SOL     OW  228   2.308   1.939   0.433 -0.1005  0.1968  0.3442
   39SOL    HW2  229   2.308   1.993   0.354  0.0136 -0.2926  0.0099
   39SOL    HW3  230   2.215   1.925   0.452 -0.1427 -1.9689 -1.2750
   39SOL    MW4  231   2.296   1.944   0.425 -0.0908 -0.1535  0.0865
   40SOL     OW  232   1.316   3.775   0.725  0.1963  0.4126 -0.0565
   40SOL    HW2  233   1.394   3.796   0.776 -0.6797  1.3895  0.9049
   40SOL    HW3  234   1.248   3.833   0.760 -0.1222  2.0263 -3.1717
   40SOL    MW4  235   1.317   3.786   0.736  0.0386  0.7544 -0.3408
   41SOL     OW  236   0.717   4.646   0.365 -0.2928 -0.0838 -0.4965
   41SOL    HW2  237   0.743   4.717   0.423 -3.0034  0.5539  0.0120
   41SOL    HW3  238   0.722   4.684   0.277 -0.2497  0.2474 -0.3523
   41SOL    MW4  239   0.721   4.660   0.361 -0.6447  0.0443 -0.4104
   42SOL     OW  240   2.140   0.304   0.605 -0.3745  0.3167 -0.0204
   42SOL    HW2  241   2.126   0.394   0.574  0.2636  0.6015  0.5115
   42SOL    HW3  242   2.194   0.314   0.684 -1.3549 -0.4472  0.7636
   42SOL    MW4  243   2.145   0.317   0.612 -0.4199  0.2535  0.1532
   43SOL     OW  244   0.035   3.462   0.861  0.4380  0.1999 -0.7297
   43SOL    HW2  245   0.071   3.459   0.950  1.0451  0.8497 -0.9483
   43SOL    HW3  246  -0.059   3.447   0.872  0.8012 -1.8418 -0.1704
   43SOL    MW4  247   0.027   3.459   0.874  0.5660  0.0165 -0.6848
   44SOL     OW  248   2.630   2.199   0.784 -0.1612 -0.4163 -0.2201
   44SOL    HW2  249   2.646   2.107   0.804  0.1863 -0.9013 -2.5045
   44SOL    HW3  250   2.593   2.198   0.695 -1.5229  1.5457  0.2687
   44SOL    MW4  251   2.627   2.187   0.775 -0.2947 -0.2213 -0.4570
   45SOL     OW  252   3.210   0.869   1.244 -0.1091  0.0958  0.2429
   45SOL    HW2  253   3.214   0.890   1.338  0.8512 -1.1046  0.4951
   45SOL    HW3  254   3.120   0.842   1.229 -0.2994  0.4150  0.8067
   45SOL    MW4  255   3.199   0.868   1.255 -0.0076 -0.0205  0.3506
   46SOL     OW  256   3.998   0.606   0.573  0.1842  0.1701 -0.5133
   46SOL    HW2  257   4.015   0.512   0.563 -1.0877 -0.2585  1.1588
   46SOL    HW3  258   3.912   0.620   0.533  0.1815  0.5434 -0.3825
   46SOL    MW4  259   3.989   0.596   0.567  0.0162  0.1628 -0.2754
   47SOL     OW  260   0.628   3.924   0.892 -0.7215  0.0691 -0.3903
   47SOL    HW2  261   0.550   3.889   0.848 -1.0637 -1.2341  1.2071
   47SOL    HW3  262   0.639   4.011   0.854 -1.4849 -0.6830 -2.4508
   47SOL    MW4  263   0.619   3.931   0.881 -0.8673 -0.2024 -0.4514
   48SOL     OW  264   4.275   0.678   0.508  0.2695  0.3298  0.3747
   48SOL    HW2  265   4.314   0.617   0.445  0.7754  0.6451  0.3723
   48SOL    HW3  266   4.186   0.646   0.522 -0.2039  0.8413 -1.3078
   48SOL    MW4  267   4.269   0.666   0.501  0.2737  0.4389  0.1523
   49SOL     OW  268   3.848   1.674   0.195 -0.1141  0.0729  0.3319
   49SOL    HW2  269   3.816   1.754   0.236  0.1583 -0.1303  0.9506
   49SOL    HW3  270   3.812   1.676   0.106 -0.5019  0.6419  0.5005
   49SOL    MW4  271   3.839   1.685   0.189 -0.1292  0.1212  0.4357
   50SOL     OW  272   2.967   2.764   0.773 -0.2232  0.6316  0.3543
   50SOL    HW2  273   2.973   2.855   0.801  1.1849  0.5363  0.3870
   50SOL    HW3  274   2.881   2.736   0.802 -1.3626  2.4456 -1.1283
   50SOL    MW4  275   2.957   2.772   0.780 -0.1879  0.8583  0.1630
   51SOL     OW  276   0.476   4.528   0.759 -0.0360 -0.4848 -0.2861
   51SOL    HW2  277   0.390   4.569   0.766  0.0053 -0.6537  1.3724
   51SOL    HW3  278   0.535   4.588   0.805  0.7934 -0.1989 -1.7116
   51SOL    MW4  279   0.472   4.541   0.766  0.0788 -0.4692 -0.2554
   52SOL     OW  280   1.907   0.140   0.649 -0.2860 -0.3641  0.0182
   52SOL    HW2  281   1.978   0.201   0.627 -0.2657  0.1472  1.4224
   52SOL    HW3  282   1.830   0.196   0.661 -0.5672 -0.7525  0.0205
   52SOL    MW4  283   1.907   0.156   0.648 -0.3204 -0.3479  0.2038
   53SOL     OW  284   2.202   0.812   0.634  0.3346  0.3739 -0.1307
   53SOL    HW2  285   2.149   0.820   0.713  0.7422 -0.5558  0.2412
   53SOL    HW3  286   2.165   0.737   0.587  0.8642  0.1703 -0.2257
   53SOL    MW4  287   2.190   0.803   0.638  0.4582  0.2244 -0.0942
   54SOL     OW  288   2.661   3.793   0.804  0.2594 -0.4230 -0.1203
   54SOL    HW2  289   2.683   3.703   0.830  0.9416 -0.0792  0.5099
   54SOL    HW3  290   2.739   3.844   0.827 -0.8078  0.6413  1.2420
   54SOL    MW4  291   2.674   3.788   0.811  0.2086 -0.2372  0.1426
   55SOL     OW  292   4.021   3.960   0.520  0.6647 -0.2247  0.1476
   55SOL    HW2  293   3.999   3.928   0.432 -1.2067 -0.2841  0.6066
   55SOL    HW3  294   4.108   3.925   0.537  1.0764 -0.1829 -1.7038
   55SOL    MW4  295   4.030   3.951   0.510  0.4721 -0.2272 -0.0361
   56SOL     OW  296   0.379   0.408   0.912 -0.3566  0.0147  0.2673
   56SOL    HW2  297   0.378   0.476   0.845  0.1223 -1.0157 -0.7958
   56SOL    HW3  298   0.301   0.355   0.893 -0.2570 -0.2394  0.5632
   56SOL    MW4  299   0.368   0.410   0.901 -0.2803 -0.1547  0.1660
   57SOL     OW  300   3.501   4.310   0.845  0.1978 -0.8128 -0.1781
   57SOL    HW2  301   3.558   4.276   0.777 -0.2592 -0.6446 -0.6499
   57SOL    HW3  302   3.416   4.270   0.827 -0.2703  0.3038 -0.5481
   57SOL    MW4  303   3.497   4.301   0.834  0.0756 -0.6433 -0.2891
   58SOL     OW  304   1.339   4.605   0.740  0.4280  0.0021 -0.6058
   58SOL    HW2  305   1.359   4.595   0.646  1.8666 -0.8960 -0.2216
   58SOL    HW3  306   1.424   4.624   0.780  0.0624 -1.1207  0.7248
   58SOL    MW4  307   1.353   4.607   0.733  0.5697 -0.2642 -0.3796
   59SOL     OW  308   0.222   4.057   0.933  0.0321 -0.2620 -0.0984
   59SOL    HW2  309   0.289   4.122   0.912 -0.0861 -0.0754  0.0984
   59SOL    HW3  310   0.259   4.006   1.004 -0.2928  0.2507  0.4401
   59SOL    MW4  311   0.235   4.059   0.939 -0.0263 -0.1702 -0.0014
   60SOL     OW  312   3.750   0.036   0.893 -0.0600  0.0937 -0.1416
   60SOL    HW2  313   3.669  -0.007   0.868  0.4705 -1.9498  1.5492
   60SOL    HW3  314   3.819  -0.018   0.856  0.5907  0.2729  0.7812
   60SOL    MW4  315   3.749   0.023   0.885  0.0958 -0.1523  0.2033
   61SOL     OW  316   0.062   0.697   0.571 -0.6412 -0.2396  0.3634
   61SOL    HW2  317   0.099   0.784   0.554 -0.7171 -0.2948 -0.1038
   61SOL    HW3  318  -0.033   0.710   0.561 -0.6605 -0.3545  0.4035
   61SOL    MW4  319   0.054   0.710   0.567 -0.6538 -0.2620  0.3071
   62SOL     OW  320   3.881   3.245   0.357 -0.2394  0.4070 -0.0201
   62SOL    HW2  321   3.915   3.182   0.420 -0.4765 -0.5922 -0.8949
   62SOL    HW3  322   3.935   3.323   0.371  1.6274 -0.7613 -0.5656
   62SOL    MW4  323   3.893   3.247   0.367 -0.0243  0.1209 -0.2075
   63SOL     OW  324   4.468   2.192   0.821 -0.4474  0.4175 -0.1645
   63SOL    HW2  325   4.533   2.259   0.841 -0.5991  0.5529 -0.1221
   63SOL    HW3  326   4.508   2.110   0.849 -0.8225  0.6475  1.0530
   63SOL    MW4  327   4.482   2.190   0.827 -0.5169  0.4656  0.0018
   64SOL     OW  328   3.272   1.719   0.527 -0.2936  0.2767 -0.5328
   64SOL    HW2  329   3.338   1.682   0.468 -0.9474 -1.1619 -0.3763
   64SOL    HW3  330   3.318   1.732   0.610  0.1890  0.7519 -0.8685
   64SOL    MW4  331   3.287   1.716   0.530 -0.3161  0.1496 -0.5564
   65SOL     OW  332   1.301   1.884   0.862 -0.0067  0.1420 -0.0732
   65SOL    HW2  333   1.306   1.910   0.954  0.5848  0.7595 -0.2791
   65SOL    HW3  334   1.391   1.860   0.838 -0.2085 -0.2965 -0.4067
   65SOL    MW4  335   1.313   1.884   0.871  0.0449  0.1657 -0.1444
   66SOL     OW  336   3.220   1.097   0.906  0.2826 -0.1162  0.6189
   66SOL    HW2  337   3.195   1.116   0.997 -0.2487  0.2558  0.3949
   66SOL    HW3  338   3.137   1.086   0.860  0.5473  0.1673  0.0767
   66SOL    MW4  339   3.206   1.098   0.912  0.2475 -0.0297  0.5178
   67SOL     OW  340   0.633   1.051   0.716  0.5590 -0.1447  0.2105
   67SOL    HW2  341   0.704   1.009   0.765 -0.4258 -1.7078  0.3073
   67SOL    HW3  342   0.664   1.051   0.625  1.6223  1.1849  0.5437
   67SOL    MW4  343   0.647   1.046   0.711  0.5694 -0.1756  0.2673
   68SOL     OW  344   0.475   0.572   0.688 -0.0146  0.2539 -0.4559
   68SOL    HW2  345   0.501   0.547   0.600 -0.5862 -0.1563 -0.5097
   68SOL    HW3  346   0.447   0.664   0.680 -1.5878 -0.2576 -1.0291
   68SOL    MW4  347   0.474   0.581   0.675 -0.2975  0.1323 -0.5386
   69SOL     OW  348   2.280   1.991   0.842  0.1452 -0.0569 -0.2762
   69SOL    HW2  349   2.269   2.083   0.818  1.5626 -0.0509 -0.9766
   69SOL    HW3  350   2.271   1.990   0.937 -1.5708  0.5392 -0.4185
   69SOL    MW4  351   2.278   2.003   0.851  0.1056  0.0226 -0.3873
   70SOL     OW  352   4.489   0.335   1.187 -0.3036  0.0891 -0.3346
   70SOL    HW2  353   4.495   0.245   1.218 -1.5886 -0.7665 -2.4700
   70SOL    HW3  354   4.468   0.328   1.094 -0.7961  2.5937 -0.4669
   70SOL    MW4  355   4.487   0.322   1.179 -0.5381  0.3067 -0.6337
   71SOL     OW  356   3.825   3.857   1.145 -0.1069  0.0931  0.2526
   71SOL    HW2  357   3.804   3.863   1.052 -0.6216  0.0575  0.3658
   71SOL    HW3  358   3.798   3.768   1.170 -1.9668  0.8173  0.9268
   71SOL    MW4  359   3.819   3.846   1.136 -0.4201  0.1843  0.3566
   72SOL     OW  360   4.408   3.283   0.251  0.1201  0.1888 -0.1406
   72SOL    HW2  361   4.332   3.227   0.268 -0.0314  0.6224  0.6807
   72SOL    HW3  362   4.484   3.227   0.266 -0.0421 -0.5209 -1.9493
   72SOL    MW4  363   4.408   3.269   0.256  0.0782  0.1523 -0.2708
   73SOL     OW  364   4.484   4.485   0.775 -0.0401 -0.3910  0.4052
   73SOL    HW2  365   4.399   4.513   0.810  0.9123  2.4110  0.6526
   73SOL    HW3  366   4.499   4.399   0.814 -2.1247 -0.3283  1.4466
   73SOL    MW4  367   4.475   4.478   0.785 -0.1893 -0.0124  0.5752
   74SOL     OW  368   3.270   1.329   0.357 -0.1150 -0.3573  0.2927
   74SOL    HW2  369   3.306   1.261   0.413  0.6820 -0.2079 -0.0224
   74SOL    HW3  370   3.279   1.295   0.268 -0.6608 -0.2761  0.2070
   74SOL    MW4  371   3.276   1.316   0.353 -0.0818 -0.3269  0.2398
   75SOL     OW  372   1.628   2.048   0.366 -0.3145  0.7149  0.2395
   75SOL    HW2  373   1.570   2.093   0.427  0.1796 -0.9061  1.9533
   75SOL    HW3  374   1.716   2.067   0.396 -0.0781 -0.5739  0.4211
   75SOL    MW4  375   1.632   2.056   0.378 -0.2183  0.3312  0.4896
   76SOL     OW  376   2.642   4.222   0.688  0.0542 -0.2124 -0.6062
   76SOL    HW2  377   2.568   4.163   0.704 -0.6621  0.5221 -1.1921
   76SOL    HW3  378   2.702   4.171   0.634  0.4410 -1.1565  0.6787
   76SOL    MW4  379   2.640   4.208   0.683  0.0105 -0.2398 -0.5140
   77SOL     OW  380   1.584   4.047   0.689 -0.2786  0.5182  0.5981
   77SOL    HW2  381   1.678   4.036   0.673 -0.3858  1.6355 -0.9029
   77SOL    HW3  382   1.574   4.139   0.713 -0.9154  0.2510  1.3811
   77SOL    MW4  383   1.595   4.057   0.690 -0.3768  0.6304  0.5034
   78SOL     OW  384   0.370   0.133   0.527  0.7381  0.3419 -0.0034
   78SOL    HW2  385   0.275   0.128   0.537  0.7326  0.4527  0.0052
   78SOL    HW3  386   0.398   0.042   0.519  0.5068  0.3647 -1.1155
   78SOL    MW4  387   0.361   0.121   0.527  0.7068  0.3595 -0.1490
   79SOL     OW  388   4.436   3.519   0.430  0.3622  0.0412 -0.1781
   79SOL    HW2  389   4.367   3.509   0.496  0.6367  1.1066  0.2830
   79SOL    HW3  390   4.407   3.465   0.356 -0.2653 -0.6463  0.5575
   79SOL    MW4  391   4.423   3.510   0.429  0.3152  0.0908 -0.0202
   80SOL     OW  392   4.221   3.113   0.390 -0.2780 -0.1177  0.5168
   80SOL    HW2  393   4.137   3.088   0.427 -0.5658 -1.4785 -1.0136
   80SOL    HW3  394   4.285   3.059   0.437 -0.2911  0.7430  1.5130
   80SOL    MW4  395   4.219   3.102   0.401 -0.3181 -0.1836  0.4464
   81SOL     OW  396   4.073   2.727   0.846 -0.3599  0.1919  0.0488
   81SOL    HW2  397   3.984   2.711   0.816 -0.4738  1.5945 -0.4339
   81SOL    HW3  398   4.064   2.748   0.939 -0.4404 -0.4677  0.1895
   81SOL    MW4  399   4.060   2.728   0.854 -0.3858  0.2899  0.0037
   82SOL     OW  400   0.441   3.004   0.831 -0.3225 -0.0367  0.3558
   82SOL    HW2  401   0.453   2.916   0.866 -0.1355  0.0070  0.4023
   82SOL    HW3  402   0.447   2.992   0.736  0.2376  0.0035  0.3818
   82SOL    MW4  403   0.444   2.991   0.823 -0.2239 -0.0255  0.3653
   83SOL     OW  404   4.424   2.975   0.523 -0.1642 -0.2331 -0.0130
   83SOL    HW2  405   4.383   2.892   0.546  0.3848 -0.1546  1.2816
   83SOL    HW3  406   4.474   3.000   0.601 -0.3096  1.3019 -0.3957
   83SOL    MW4  407   4.426   2.967   0.536 -0.1111 -0.0200  0.1073
   84SOL     OW  408   0.656   3.374   0.740 -0.1034  0.3034  0.5747
   84SOL    HW2  409   0.587   3.440   0.751 -2.2940 -1.4938 -1.6734
   84SOL    HW3  410   0.631   3.304   0.800  0.1370 -0.0636  0.2445
   84SOL    MW4  411   0.643   3.374   0.750 -0.3607  0.0179  0.2345
   85SOL     OW  412   3.574   3.695   0.715  0.5512 -0.1624  0.0719
   85SOL    HW2  413   3.596   3.627   0.778  0.5626  1.0474  1.3785
   85SOL    HW3  414   3.489   3.728   0.743 -0.9955 -1.8016 -2.4179
   85SOL    MW4  415   3.566   3.691   0.727  0.3488 -0.2191 -0.0843
   86SOL     OW  416   2.471   3.122   0.871  0.1470 -0.1464  0.3219
   86SOL    HW2  417   2.462   3.136   0.965 -2.1624 -0.0607  0.1220
   86SOL    HW3  418   2.469   3.210   0.833 -1.4114 -0.2968  0.0265
   86SOL    MW4  419   2.470   3.135   0.879 -0.3633 -0.1552  0.2565
   87SOL     OW  420   2.628   0.733   0.412  0.1388  0.0142 -0.0057
   87SOL    HW2  421   2.711   0.707   0.452  0.3057  0.2549 -0.1951
   87SOL    HW3  422   2.653   0.797   0.346 -0.0759 -0.7469 -0.8394
   87SOL    MW4  423   2.643   0.738   0.408  0.1326 -0.0545 -0.1407
   88SOL     OW  424   2.457   2.402   0.889  0.0057  0.4460 -0.2424
   88SOL    HW2  425   2.461   2.375   0.981 -0.1634  0.1470 -0.3231
   88SOL    HW3  426   2.532   2.360   0.848 -0.5471 -0.3142 -0.4762
   88SOL    MW4  427   2.467   2.393   0.896 -0.0894  0.3061 -0.2838
   89SOL     OW  428   2.463   2.654   0.759  0.0212 -0.2082 -0.2530
   89SOL    HW2  429   2.454   2.576   0.815  0.6501  0.2998  0.5829
   89SOL    HW3  430   2.392   2.711   0.786  0.6148  0.2426  0.3852
   89SOL    MW4  431   2.453   2.651   0.770  0.1826 -0.0818 -0.0584
   90SOL     OW  432   1.590   3.179   1.107 -0.1775 -0.2940 -0.2536
   90SOL    HW2  433   1.509   3.203   1.152 -0.8996 -1.8132 -0.7014
   90SOL    HW3  434   1.659   3.225   1.154 -1.5850  3.4399 -1.6822
   90SOL    MW4  435   1.589   3.188   1.119 -0.4584 -0.0021 -0.5010
   91SOL     OW  436   2.690   1.624   1.238  0.0950  1.0733  0.6070
   91SOL    HW2  437   2.768   1.586   1.198  0.4888  0.8707  1.5584
   91SOL    HW3  438   2.704   1.719   1.233 -0.5612  1.0889 -1.1170
   91SOL    MW4  439   2.702   1.632   1.232  0.0603  1.0487  0.5050
   92SOL     OW  440   3.231   4.024   0.525  0.4055  0.2656  0.2399
   92SOL    HW2  441   3.313   4.007   0.479 -0.4191 -0.3073 -1.0455
   92SOL    HW3  442   3.175   3.950   0.502 -0.3433  0.4467  1.4328
   92SOL    MW4  443   3.235   4.012   0.516  0.1979  0.2136  0.2276
   93SOL     OW  444   2.264   1.716   1.269  0.1377 -0.1387 -0.1179
   93SOL    HW2  445   2.328   1.666   1.218 -0.3045 -0.4177 -0.3992
   93SOL    HW3  446   2.182   1.670   1.257 -0.5397  1.3633 -1.4105
   93SOL    MW4  447   2.262   1.704   1.261 -0.0100  0.0228 -0.3257
   94SOL     OW  448   3.044   3.178   0.514 -0.4849 -0.6479 -0.6619
   94SOL    HW2  449   3.077   3.121   0.584  0.3118  0.6638  0.0612
   94SOL    HW3  450   2.950   3.185   0.532 -0.4672 -1.1551 -0.3446
   94SOL    MW4  451   3.036   3.171   0.526 -0.3772 -0.5414 -0.5247
   95SOL     OW  452   2.326   4.299   0.412  0.5159 -0.4330 -0.1788
   95SOL    HW2  453   2.314   4.330   0.322  0.7661  2.2376  0.6515
   95SOL    HW3  454   2.416   4.323   0.433 -0.1420  0.7002  1.4054
   95SOL    MW4  455   2.336   4.307   0.403  0.4623  0.0687  0.1398
   96SOL     OW  456   0.399   3.618   0.378 -0.7860  0.1491 -0.4828
   96SOL    HW2  457   0.328   3.668   0.339 -0.3962  0.4930 -0.7502
   96SOL    HW3  458   0.466   3.683   0.399  0.0648 -0.3543 -1.5949
   96SOL    MW4  459   0.399   3.633   0.376 -0.6224  0.1280 -0.6648
   97SOL     OW  460   1.767   3.490   0.654  0.3473  0.1374  0.0666
   97SOL    HW2  461   1.678   3.455   0.667  0.5251  0.3077  1.8131
   97SOL    HW3  462   1.758   3.551   0.581 -0.7748 -0.5867 -0.4162
   97SOL    MW4  463   1.754   3.493   0.646  0.2227  0.0641  0.2334
   98SOL     OW  464   4.218   3.825   0.929  0.1912 -0.2615 -0.4082
   98SOL    HW2  465   4.207   3.912   0.891  1.9311  0.0695 -0.1722
   98SOL    HW3  466   4.300   3.792   0.891 -0.2370 -1.6282 -0.1736
   98SOL    MW4  467   4.227   3.832   0.919  0.3638 -0.3982 -0.3460
   99SOL     OW  468   3.365   2.415   0.379 -0.4163  0.4484  0.2491
   99SOL    HW2  469   3.378   2.498   0.425  0.0265 -0.3942  1.6795
   99SOL    HW3  470   3.399   2.348   0.439  0.6846 -0.6427 -1.5383
   99SOL    MW4  471   3.371   2.417   0.393 -0.2124  0.1929  0.2020
  100SOL     OW  472   0.758   2.018   0.678  0.2552 -0.0508 -0.0653
  100SOL    HW2  473   0.728   2.089   0.620  0.2435 -0.3670 -0.4449
  100SOL    HW3  474   0.677   1.981   0.713  0.2841  0.6526  0.7745
  100SOL    MW4  475   0.743   2.023   0.675  0.2575  0.0002 -0.0045
  101SOL     OW  476   3.617   4.288   1.116  0.3402 -0.3284  0.1322
  101SOL    HW2  477   3.590   4.279   1.024 -0.0238 -1.9670  0.3886
  101SOL    HW3  478   3.629   4.198   1.146  1.1631  0.2307  1.4925
  101SOL    MW4  479   3.615   4.275   1.108  0.4008 -0.4706  0.3456
  102SOL     OW  480   2.884   0.841   0.905 -0.4696 -0.2927 -0.0548
  102SOL    HW2  481   2.904   0.935   0.901 -0.7654 -0.2634 -1.0990
  102SOL    HW3  482   2.914   0.813   0.992 -0.4317  0.7809  0.2839
  102SOL    MW4  483   2.890   0.850   0.916 -0.5038 -0.1472 -0.1479
  103SOL     OW  484   1.912   4.532   0.554  0.0842 -0.0807  0.4415
  103SOL    HW2  485   2.003   4.531   0.525 -0.5049 -0.3503 -1.4710
  103SOL    HW3  486   1.897   4.622   0.582  0.6925  0.1825 -0.0572
  103SOL    MW4  487   1.922   4.543   0.554  0.0868 -0.0815  0.1234
  104SOL     OW  488   4.480   4.229   0.895  0.1333 -0.2238 -0.4688
  104SOL    HW2  489   4.409   4.183   0.850 -1.8120  0.9881  1.2226
  104SOL    HW3  490   4.538   4.160   0.927 -0.2861 -1.2417 -1.8816
  104SOL    MW4  491   4.478   4.214   0.894 -0.1788 -0.1984 -0.4321
  105SOL     OW  492   0.201   2.333   0.880  0.4813 -0.3382 -0.0703
  105SOL    HW2  493   0.249   2.254   0.854  2.0388  0.4843  0.2381
  105SOL    HW3  494   0.194   2.327   0.975  1.4389  0.3513  0.0485
  105SOL    MW4  495   0.206   2.322   0.889  0.8132 -0.1390 -0.0139
  106SOL     OW  496   0.158   3.875   0.743 -0.2198  0.0503 -0.3240
  106SOL    HW2  497   0.171   3.907   0.654 -3.1060 -0.5288 -1.0230
  106SOL    HW3  498   0.177   3.951   0.799  2.5180  0.1606 -1.3378
  106SOL    MW4  499   0.162   3.889   0.739 -0.2394 -0.0117 -0.5499
  107SOL     OW  500   3.098   2.645   1.149 -0.2983 -0.7180 -0.4490
  107SOL    HW2  501   3.105   2.558   1.189 -0.1229 -0.4828  0.0361
  107SOL    HW3  502   3.162   2.698   1.196 -0.6136 -0.2484 -0.5429
  107SOL    MW4  503   3.107   2.641   1.160 -0.3166 -0.6251 -0.3974
  108SOL     OW  504   3.170   1.123   1.168 -0.2583 -0.3655  0.2076
  108SOL    HW2  505   3.189   1.032   1.190  1.5351  0.2295  1.2750
  108SOL    HW3  506   3.255   1.167   1.176 -1.4142  1.7180  1.3875
  108SOL    MW4  507   3.184   1.117   1.172 -0.1743 -0.0120  0.5041
  109SOL     OW  508   4.287   1.311   1.199  0.1884 -0.5418  0.8066
  109SOL    HW2  509   4.274   1.325   1.293  0.0487 -2.3003  1.0686
  109SOL    HW3  510   4.224   1.244   1.175  0.4484 -0.3449 -0.4875
  109SOL    MW4  511   4.277   1.304   1.208  0.2041 -0.7478  0.6704
  110SOL     OW  512   0.576   1.668   0.733 -0.2749  0.0573  0.3072
  110SOL    HW2  513   0.629   1.686   0.656 -2.6683 -0.1430 -1.4638
  110SOL    HW3  514   0.538   1.753   0.757 -0.7173 -0.1532  0.3549
  110SOL    MW4  515   0.578   1.682   0.726 -0.6491  0.0031  0.0798
  111SOL     OW  516   2.811   4.335   0.894  0.0055  0.7607  0.2516
  111SOL    HW2  517   2.768   4.314   0.976  2.0897  0.4861  1.3178
  111SOL    HW3  518   2.746   4.317   0.827 -1.8632  1.3886  1.8583
  111SOL    MW4  519   2.797   4.330   0.896  0.0339  0.8073  0.6043
  112SOL     OW  520   0.018   3.034   0.800 -0.1202 -0.0805 -0.3871
  112SOL    HW2  521   0.098   3.086   0.811  1.5583 -2.4928 -0.8496
  112SOL    HW3  522   0.044   2.945   0.822 -2.8302 -0.8302 -0.0510
  112SOL    MW4  523   0.032   3.029   0.804 -0.2563 -0.4978 -0.4038
  113SOL     OW  524   3.492   0.258   0.961  0.0286 -0.0093 -0.1670
  113SOL    HW2  525   3.397   0.250   0.951 -0.1212 -0.4094  1.4018
  113SOL    HW3  526   3.523   0.168   0.963  0.5137  0.1322 -1.2699
  113SOL    MW4  527   3.483   0.245   0.960  0.0727 -0.0434 -0.1056
  114SOL     OW  528   4.214   2.395   0.262 -0.1814  0.4532  0.0670
  114SOL    HW2  529   4.187   2.448   0.188  0.4835  2.0931  0.9692
  114SOL    HW3  530   4.291   2.441   0.298  0.2794 -0.9988  0.9837
  114SOL    MW4  531   4.221   2.408   0.257 -0.0324  0.4780  0.3069
  115SOL     OW  532   2.675   2.974   0.756 -0.2081  0.5140 -0.6897
  115SOL    HW2  533   2.601   3.016   0.800  1.1176  1.9397  0.1803
  115SOL    HW3  534   2.634   2.908   0.700 -1.9894 -0.5247  1.7484
  115SOL    MW4  535   2.660   2.971   0.754 -0.2682  0.5653 -0.2533
  116SOL     OW  536   3.435   1.554   0.386  0.6332 -0.6300 -0.1940
  116SOL    HW2  537   3.522   1.534   0.352  0.5468 -0.6975 -0.3742
  116SOL    HW3  538   3.389   1.470   0.383  1.4186 -1.2100  2.4019
  116SOL    MW4  539   3.441   1.540   0.381  0.7255 -0.7154  0.1247
  117SOL     OW  540   4.424   0.388   0.923  0.5461 -0.3194  0.3074
  117SOL    HW2  541   4.470   0.343   0.853  0.4054  0.3085 -0.1902
  117SOL    HW3  542   4.458   0.478   0.920 -0.3905  0.0324  0.2166
  117SOL    MW4  543   4.435   0.394   0.914  0.4039 -0.1901  0.2298
  118SOL     OW  544   1.494   1.545   0.488  0.2575  0.0046 -0.1911
  118SOL    HW2  545   1.497   1.639   0.474  0.4573  0.1814  0.9749
  118SOL    HW3  546   1.585   1.516   0.481  0.2259 -0.0663 -0.3102
  118SOL    MW4  547   1.506   1.554   0.485  0.2797  0.0187 -0.0530
  119SOL     OW  548   0.621   3.193   0.313  0.2746  0.2343  0.2939
  119SOL    HW2  549   0.638   3.104   0.342  0.9235  0.2046 -0.1808
  119SOL    HW3  550   0.685   3.247   0.360  0.7184  0.2981 -0.3839
  119SOL    MW4  551   0.632   3.189   0.323  0.4188  0.2387  0.1419
  120SOL     OW  552   3.363   1.306   0.742  0.0472 -0.4788  0.0004
  120SOL    HW2  553   3.404   1.372   0.798  1.6328 -1.7893  0.3932
  120SOL    HW3  554   3.321   1.246   0.803  0.2834 -0.9338 -0.2849
  120SOL    MW4  555   3.362   1.307   0.757  0.2875 -0.7117  0.0145
  121SOL     OW  556   2.122   3.842   0.328 -0.3889 -0.5636 -0.2714
  121SOL    HW2  557   2.185   3.792   0.379  0.4326  0.3729 -0.3640
  121SOL    HW3  558   2.175   3.897   0.271 -1.2849  0.0454 -0.5317
  121SOL    MW4  559   2.137   3.843   0.327 -0.3991 -0.3598 -0.3180
  122SOL     OW  560   1.294   1.032   0.915  0.3021  0.4066 -0.3303
  122SOL    HW2  561   1.208   1.004   0.884  0.5113  0.7606 -1.2536
  122SOL    HW3  562   1.342   0.951   0.931 -0.3952  0.2071  0.7212
  122SOL    MW4  563   1.289   1.018   0.913  0.2378  0.4271 -0.3133
  123SOL     OW  564   2.572   2.846   0.500 -0.0326  0.5362  0.3764
  123SOL    HW2  565   2.551   2.753   0.511 -1.0594  0.9027  1.6519
  123SOL    HW3  566   2.662   2.846   0.468 -0.1649 -0.9067 -0.0752
  123SOL    MW4  567   2.581   2.833   0.497 -0.1855  0.3941  0.4851
  124SOL     OW  568   4.447   1.578   0.699 -0.4742  0.1028  0.0849
  124SOL    HW2  569   4.425   1.671   0.699 -2.0821 -0.2588 -1.4555
  124SOL    HW3  570   4.419   1.547   0.614  1.7110 -1.4351 -0.1132
  124SOL    MW4  571   4.441   1.586   0.688 -0.3982 -0.1479 -0.1445
  125SOL     OW  572   0.146   4.008   0.504 -0.0748 -0.5860 -0.2070
  125SOL    HW2  573   0.062   4.050   0.488  0.1320 -0.2423 -0.4043
  125SOL    HW3  574   0.211   4.073   0.475  0.2574 -0.8067  0.0410
  125SOL    MW4  575   0.143   4.022   0.498 -0.0037 -0.5693 -0.2002
  126SOL     OW  576   4.327   0.180   0.237 -0.4415 -0.1462  0.0100
  126SOL    HW2  577   4.421   0.182   0.217 -0.2879 -1.0033  0.6041
  126SOL    HW3  578   4.285   0.205   0.154  0.3093  0.3585 -0.2282
  126SOL    MW4  579   4.334   0.183   0.223 -0.3228 -0.1927  0.0570
  127SOL     OW  580   0.811   4.134   0.522  0.5709  0.2047 -0.1245
  127SOL    HW2  581   0.889   4.081   0.508  0.2319  0.0573 -1.6044
  127SOL    HW3  582   0.840   4.224   0.507  0.7591  0.2763  0.6678
  127SOL    MW4  583   0.825   4.139   0.518  0.5509  0.1950 -0.2152
  128SOL     OW  584   3.019   2.140   0.357 -0.2464  0.0505 -0.2384
  128SOL    HW2  585   3.041   2.221   0.311  0.7256  0.3136  0.6672
  128SOL    HW3  586   3.103   2.104   0.385 -0.8445  0.2503  1.9277
  128SOL    MW4  587   3.033   2.146   0.354 -0.1969  0.1113  0.1668
  129SOL     OW  588   1.782   2.461   1.183 -0.0223  0.2348 -0.2681
  129SOL    HW2  589   1.708   2.408   1.151 -0.8437  0.3451  1.3940
  129SOL    HW3  590   1.856   2.401   1.182 -0.9968 -1.0799  1.8194
  129SOL    MW4  591   1.782   2.446   1.179 -0.2592  0.0761  0.2267
  130SOL     OW  592   1.118   4.166   0.788  0.1047 -0.2317 -0.3869
  130SOL    HW2  593   1.203   4.200   0.818 -0.3878  1.4222 -0.8089
  130SOL    HW3  594   1.124   4.169   0.693 -0.8517  0.9980 -0.4154
  130SOL    MW4  595   1.130   4.171   0.780 -0.0864  0.1488 -0.4464
  131SOL     OW  596   2.915   4.583   0.877  0.4556 -0.0224  0.0538
  131SOL    HW2  597   2.892   4.491   0.867  1.4548 -0.1440 -1.2648
  131SOL    HW3  598   2.843   4.631   0.837  0.4626 -0.2711 -0.2579
  131SOL    MW4  599   2.903   4.577   0.871  0.5884 -0.0710 -0.1613
  132SOL     OW  600   3.015   2.528   0.478  0.9423  0.2151 -0.5540
  132SOL    HW2  601   3.056   2.505   0.395 -0.8890  0.2241 -1.4759
  132SOL    HW3  602   2.973   2.612   0.462  1.7955  0.9231  0.8129
  132SOL    MW4  603   3.015   2.536   0.465  0.8132  0.3099 -0.4953
  133SOL     OW  604   1.872   3.930   0.425 -0.5784 -0.5893  0.0577
  133SOL    HW2  605   1.894   3.979   0.504  0.9957  0.2335 -0.8518
  133SOL    HW3  606   1.956   3.903   0.389 -1.1836  0.1221 -1.9942
  133SOL    MW4  607   1.886   3.933   0.430 -0.4506 -0.3870 -0.3330
  134SOL     OW  608   2.523   3.520   0.530  0.3102  0.1792  0.6348
  134SOL    HW2  609   2.617   3.540   0.523  0.4295 -0.1570  1.2304
  134SOL    HW3  610   2.516   3.429   0.501  0.1280  0.2910  0.3307
  134SOL    MW4  611   2.535   3.511   0.525  0.3021  0.1495  0.6732
  135SOL     OW  612   3.292   4.360   0.139 -0.0976 -0.1438  0.2601
  135SOL    HW2  613   3.316   4.346   0.047  0.4232  1.9489  0.0591
  135SOL    HW3  614   3.374   4.346   0.187 -0.1973 -0.4619  0.3412
  135SOL    MW4  615   3.306   4.356   0.133 -0.0420  0.0906  0.2443
  136SOL     OW  616   3.087   0.599   0.372  0.1009 -0.1491  0.1505
  136SOL    HW2  617   3.072   0.510   0.405 -0.3847 -0.8044 -1.7817
  136SOL    HW3  618   3.183   0.609   0.373  0.1594 -0.7120  0.3482
  136SOL    MW4  619   3.098   0.588   0.376  0.0446 -0.3099 -0.0784
  137SOL     OW  620   0.178   2.849   0.423 -0.6875 -0.0348 -0.0254
  137SOL    HW2  621   0.104   2.906   0.444 -0.8279  0.0508 -0.7261
  137SOL    HW3  622   0.253   2.888   0.467 -1.0622 -0.1195  0.6854
  137SOL    MW4  623   0.178   2.862   0.431 -0.7554 -0.0348 -0.0241
  138SOL     OW  624   2.785   0.160   0.432 -0.1534  0.2292 -0.2876
  138SOL    HW2  625   2.709   0.102   0.441  0.8977 -0.8491  1.9139
  138SOL    HW3  626   2.860   0.102   0.437  0.9081  1.6842  1.0753
  138SOL    MW4  627   2.785   0.145   0.434  0.1254  0.2789  0.1827
  139SOL     OW  628   3.564   2.973   0.544  0.3542  0.0448 -0.0151
  139SOL    HW2  629   3.470   2.963   0.528  0.4954 -1.5071  0.0660
  139SOL    HW3  630   3.584   3.062   0.514 -0.8164 -0.1994 -1.5737
  139SOL    MW4  631   3.554   2.983   0.538  0.2186 -0.1924 -0.2100
  140SOL     OW  632   1.785   2.584   0.439 -0.4258  0.0885  0.3208
  140SOL    HW2  633   1.793   2.538   0.355 -0.6187  0.4463  0.1027
  140SOL    HW3  634   1.757   2.517   0.500 -1.1325 -0.0029 -0.0922
  140SOL    MW4  635   1.782   2.569   0.436 -0.5445  0.1237  0.2376
  141SOL     OW  636   1.612   0.455   0.883  0.1296  0.2307 -0.0755
  141SOL    HW2  637   1.623   0.382   0.823 -0.1544  0.0256  0.1236
  141SOL    HW3  638   1.670   0.523   0.848 -0.6321  0.3945 -1.0324
  141SOL    MW4  639   1.621   0.455   0.870 -0.0085  0.2253 -0.1755
  142SOL     OW  640   2.130   3.282   0.919 -0.0259 -0.4403 -0.0272
  142SOL    HW2  641   2.151   3.188   0.913  0.5549 -0.2336 -1.4659
  142SOL    HW3  642   2.093   3.304   0.834  0.9470  0.9001 -0.1154
  142SOL    MW4  643   2.128   3.272   0.907  0.1791 -0.2358 -0.2287
  143SOL     OW  644   0.414   3.506   0.824 -0.2174 -0.4601 -0.4096
  143SOL    HW2  645   0.427   3.598   0.801  0.7690 -0.6391 -0.6091
  143SOL    HW3  646   0.435   3.502   0.918 -1.7011 -0.2149 -0.0544
  143SOL    MW4  647   0.418   3.518   0.833 -0.2830 -0.4516 -0.3891
  144SOL     OW  648   3.405   1.257   1.243  0.0469 -0.2487 -0.0609
  144SOL    HW2  649   3.406   1.270   1.338  1.4836  0.2163 -0.1254
  144SOL    HW3  650   3.493   1.225   1.223  0.0214  0.4535 -1.3327
  144SOL    MW4  651   3.417   1.255   1.253  0.2332 -0.0947 -0.2371
  145SOL     OW  652   0.217   4.395   1.215  0.1082 -0.3070  0.3752
  145SOL    HW2  653   0.133   4.355   1.193  0.7792 -2.0861  0.9875
  145SOL    HW3  654   0.212   4.409   1.310  0.4929 -0.3894  0.4056
  145SOL    MW4  655   0.205   4.392   1.225  0.2475 -0.5536  0.4599
  146SOL     OW  656   4.384   4.044   0.192  0.3640 -0.4668 -0.7137
  146SOL    HW2  657   4.470   4.084   0.204 -0.4650  0.4993  2.4635
  146SOL    HW3  658   4.391   3.958   0.233 -0.7553  0.4716  1.5570
  146SOL    MW4  659   4.396   4.038   0.199  0.1073 -0.2151  0.0051
  147SOL     OW  660   2.723   2.685   0.870  0.4851  0.2324 -0.2470
  147SOL    HW2  661   2.642   2.686   0.819  0.4819 -0.7978 -0.2802
  147SOL    HW3  662   2.697   2.710   0.958  0.4730  1.9417 -0.7192
  147SOL    MW4  663   2.709   2.688   0.875  0.4833  0.3221 -0.3137
  148SOL     OW  664   2.926   3.342   0.781  0.0153 -0.0105  0.1756
  148SOL    HW2  665   2.935   3.251   0.811 -1.0297  0.0397  0.6429
  148SOL    HW3  666   2.889   3.334   0.693  0.6334 -0.0598 -0.0841
  148SOL    MW4  667   2.922   3.329   0.773 -0.0410 -0.0105  0.2029
  149SOL     OW  668   2.441   1.660   0.495  0.1414  0.2297 -0.0546
  149SOL    HW2  669   2.454   1.702   0.580 -0.3197 -0.5596  0.4110
  149SOL    HW3  670   2.382   1.719   0.449 -0.6511  0.0101  0.6662
  149SOL    MW4  671   2.435   1.673   0.500 -0.0238  0.0967  0.1019
  150SOL     OW  672   3.043   4.133   0.942 -0.0384  0.5719 -0.2852
  150SOL    HW2  673   2.998   4.051   0.921 -0.5892  0.4962  1.1617
  150SOL    HW3  674   2.981   4.201   0.916  0.3616  0.5297 -1.3574
  150SOL    MW4  675   3.029   4.131   0.936 -0.0579  0.5565 -0.2357
  151SOL     OW  676   2.264   1.967   1.144 -0.0940  0.2552  0.3833
  151SOL    HW2  677   2.183   2.004   1.179 -0.7382 -0.2320 -0.5664
  151SOL    HW3  678   2.265   1.877   1.176 -0.1920  0.1026 -0.0448
  151SOL    MW4  679   2.254   1.960   1.153 -0.1917  0.1707  0.2016
  152SOL     OW  680   3.277   0.749   0.713 -0.7192  0.2196 -0.0966
  152SOL    HW2  681   3.290   0.802   0.634 -0.4552  0.2919 -0.0044
  152SOL    HW3  682   3.310   0.662   0.689 -0.1155  0.3838  0.1124
  152SOL    MW4  683   3.283   0.744   0.700 -0.6046  0.2508 -0.0568
  153SOL     OW  684   3.292   2.881   0.506 -0.0320 -0.1762  0.3095
  153SOL    HW2  685   3.242   2.902   0.585 -0.9010  0.4059 -0.3802
  153SOL    HW3  686   3.231   2.897   0.434  1.2282  0.8235 -0.5679
  153SOL    MW4  687   3.278   2.886   0.506  0.0198  0.0327  0.1028
  154SOL     OW  688   2.865   0.676   0.534  0.3852 -0.2635  0.2387
  154SOL    HW2  689   2.931   0.634   0.480  1.1140  0.3005  0.6678
  154SOL    HW3  690   2.906   0.682   0.621 -0.3533 -0.2001  0.5843
  154SOL    MW4  691   2.879   0.671   0.539  0.3839 -0.1807  0.3409
  155SOL     OW  692   4.331   1.489   0.459  0.0464  0.1140 -0.3345
  155SOL    HW2  693   4.259   1.520   0.406 -1.3054 -0.3943  1.1624
  155SOL    HW3  694   4.318   1.394   0.464  0.9577 -0.0155 -0.2444
  155SOL    MW4  695   4.320   1.480   0.453 -0.0119  0.0299 -0.1251
  156SOL     OW  696   0.175   2.570   0.500 -0.5516 -0.2226  0.3432
  156SOL    HW2  697   0.177   2.662   0.473  1.0036 -0.2314  0.4178
  156SOL    HW3  698   0.092   2.537   0.465 -0.0715  0.6220 -1.6435
  156SOL    MW4  699   0.164   2.577   0.492 -0.2831 -0.1121  0.0909
  157SOL     OW  700   4.218   0.429   0.720 -0.3945 -0.4856  0.1933
  157SOL    HW2  701   4.291   0.425   0.782 -0.7551 -0.0720  0.6453
  157SOL    HW3  702   4.140   0.424   0.774 -0.7097 -0.2124 -0.2321
  157SOL    MW4  703   4.218   0.428   0.736 -0.4840 -0.3950  0.1968
  158SOL     OW  704   2.462   1.817   0.733 -0.1149 -0.3427 -0.1963
  158SOL    HW2  705   2.545   1.858   0.760 -0.1680 -0.6896  0.5076
  158SOL    HW3  706   2.394   1.877   0.765 -0.1817 -0.8140  0.5829
  158SOL    MW4  707   2.464   1.830   0.741 -0.1307 -0.4506 -0.0006
  159SOL     OW  708   0.068   1.931   0.872 -0.1774 -0.2446  0.0558
  159SOL    HW2  709   0.150   1.895   0.838 -0.6255 -2.5909  1.3895
  159SOL    HW3  710   0.048   1.879   0.950 -2.5267  0.7987  0.2118
  159SOL    MW4  711   0.076   1.920   0.877 -0.5465 -0.4166  0.2523
  160SOL     OW  712   2.897   1.778   0.749 -0.0683  0.1747 -0.3234
  160SOL    HW2  713   2.901   1.689   0.785 -1.0488  0.5445  0.6962
  160SOL    HW3  714   2.984   1.814   0.765 -0.3024  0.1150  1.1247
  160SOL    MW4  715   2.909   1.771   0.756 -0.2284  0.2156  0.0022
  161SOL     OW  716   1.506   3.800   0.329  0.3547 -0.3305  0.2532
  161SOL    HW2  717   1.594   3.773   0.358 -0.0746 -2.2300 -0.1315
  161SOL    HW3  718   1.501   3.770   0.238  0.0702  1.6793 -0.4174
  161SOL    MW4  719   1.517   3.792   0.321  0.2606 -0.3157  0.1139
  162SOL     OW  720   2.042   2.570   0.542 -0.3580 -0.1987  0.2464
  162SOL    HW2  721   2.077   2.489   0.504 -0.5004  0.1449 -0.6264
  162SOL    HW3  722   1.954   2.578   0.504 -0.0075  0.8327 -0.3504
  162SOL    MW4  723   2.035   2.560   0.532 -0.3304 -0.0172  0.0525
  163SOL     OW  724   3.907   3.562   0.354  0.1746  0.0610 -0.6445
  163SOL    HW2  725   3.837   3.624   0.376  0.3466  0.1852 -0.4466
  163SOL    HW3  726   3.943   3.535   0.439  0.6130  0.2769 -0.7597
  163SOL    MW4  727   3.903   3.566   0.368  0.2553  0.1056 -0.6336
  164SOL     OW  728   1.978   3.591   0.275  0.2523 -0.1649  0.2589
  164SOL    HW2  729   2.024   3.675   0.284 -0.3003  0.0741  0.9028
  164SOL    HW3  730   2.033   3.529   0.324 -0.1219  0.1274  1.0547
  164SOL    MW4  731   1.992   3.594   0.283  0.1298 -0.0949  0.4489
  165SOL     OW  732   1.522   3.854   0.895  0.1530  0.7727 -0.0838
  165SOL    HW2  733   1.598   3.798   0.882 -1.1021 -0.3102 -3.1939
  165SOL    HW3  734   1.537   3.929   0.837  0.1268  1.9311  1.3764
  165SOL    MW4  735   1.534   3.856   0.885 -0.0161  0.7823 -0.3014
  166SOL     OW  736   0.897   4.244   1.163  0.0251  0.1509  0.1167
  166SOL    HW2  737   0.821   4.289   1.199 -0.7900 -0.2482 -1.0832
  166SOL    HW3  738   0.891   4.155   1.196  0.1936  0.2157  0.3297
  166SOL    MW4  739   0.886   4.238   1.172 -0.0601  0.1068 -0.0136
  167SOL     OW  740   3.290   0.906   0.480 -0.2642 -0.3902 -0.3301
  167SOL    HW2  741   3.197   0.922   0.465 -0.2563 -0.0752 -0.0428
  167SOL    HW3  742   3.327   0.994   0.493 -0.3052 -0.6664  1.8057
  167SOL    MW4  743   3.283   0.920   0.479 -0.2682 -0.3850 -0.0104
  168SOL     OW  744   0.902   4.305   0.880  0.3292  0.1466  0.3957
  168SOL    HW2  745   0.899   4.279   0.972 -1.5402 -1.2278 -0.0090
  168SOL    HW3  746   0.970   4.249   0.841  0.5673  0.1778  0.7683
  168SOL    MW4  747   0.911   4.294   0.887  0.1139 -0.0305  0.3915
  169SOL     OW  748   0.922   1.245   0.911 -0.0259 -0.2157  0.5633
  169SOL    HW2  749   0.842   1.290   0.884 -0.1992 -0.6652  0.3257
  169SOL    HW3  750   0.992   1.310   0.897 -0.1175 -0.4220 -0.9457
  169SOL    MW4  751   0.921   1.260   0.905 -0.0609 -0.3023  0.3328
  170SOL     OW  752   1.401   4.556   0.473  0.0436 -0.2576 -0.2676
  170SOL    HW2  753   1.478   4.501   0.461 -0.3203 -0.6504 -0.8349
  170SOL    HW3  754   1.329   4.504   0.436 -0.6014 -0.1898  0.8944
  170SOL    MW4  755   1.402   4.542   0.466 -0.0896 -0.2999 -0.1892
  171SOL     OW  756   2.486   0.862   0.643  0.0431 -0.3063  0.8715
  171SOL    HW2  757   2.394   0.839   0.637  0.2626 -1.1227  0.6805
  171SOL    HW3  758   2.526   0.825   0.565  0.5541 -0.0328  0.9977
  171SOL    MW4  759   2.479   0.854   0.632  0.1395 -0.3779  0.8630
  172SOL     OW  760   1.580   1.556   0.847 -0.1826 -0.1219  0.0475
  172SOL    HW2  761   1.585   1.565   0.942 -0.0368 -1.3270  0.1663
  172SOL    HW3  762   1.656   1.501   0.824  0.7502  1.5239 -0.9633
  172SOL    MW4  763   1.591   1.550   0.856 -0.0403 -0.0637 -0.0702
  173SOL     OW  764   1.488   1.839   0.495 -0.4522  0.1726  0.0897
  173SOL    HW2  765   1.398   1.870   0.485  0.2565  1.7541 -1.7167
  173SOL    HW3  766   1.536   1.880   0.423  1.2643 -2.4449 -0.3292
  173SOL    MW4  767   1.483   1.849   0.484 -0.1322  0.0359 -0.2039
  174SOL     OW  768   0.496   1.938   0.797 -0.0309 -0.1894 -0.1085
  174SOL    HW2  769   0.416   1.887   0.784  0.6989 -1.2394 -0.5562
  174SOL    HW3  770   0.507   1.940   0.892 -0.9748  0.5803 -0.0062
  174SOL    MW4  771   0.487   1.931   0.808 -0.0592 -0.2264 -0.1541
  175SOL     OW  772   3.004   0.374   0.768 -0.1053  0.5265 -0.1451
  175SOL    HW2  773   3.011   0.469   0.775 -2.1999  0.7826 -0.8993
  175SOL    HW3  774   2.914   0.355   0.795  0.8653 -1.4491  1.8103
  175SOL    MW4  775   2.993   0.384   0.772 -0.2537  0.2996  0.0133
  176SOL     OW  776   0.545   1.865   0.360 -0.1899 -0.1613  0.0263
  176SOL    HW2  777   0.534   1.926   0.287 -1.0736 -0.0339  0.2566
  176SOL    HW3  778   0.455   1.846   0.389  0.1746  0.4445  1.6220
  176SOL    MW4  779   0.531   1.870   0.354 -0.2584 -0.0645  0.2672
  177SOL     OW  780   2.034   1.637   0.863 -0.0212  0.0222  0.3535
  177SOL    HW2  781   2.098   1.610   0.797 -0.4384  1.2274 -0.5646
  177SOL    HW3  782   2.026   1.732   0.850 -2.3935 -0.1953  0.0986
  177SOL    MW4  783   2.042   1.646   0.853 -0.3896  0.1526  0.1987
  178SOL     OW  784   1.588   4.657   0.867  0.2155  0.0696  1.0330
  178SOL    HW2  785   1.659   4.594   0.865  0.2508  0.1362  0.1002
  178SOL    HW3  786   1.556   4.655   0.957  0.6684 -0.7743  1.1726
  178SOL    MW4  787   1.593   4.649   0.879  0.2799 -0.0324  0.9283
  179SOL     OW  788   2.467   3.904   0.440  0.0828  0.0191 -0.3687
  179SOL    HW2  789   2.423   3.949   0.368  0.9800  0.3560 -0.7263
  179SOL    HW3  790   2.408   3.833   0.465 -0.3809  0.1003 -1.2252
  179SOL    MW4  791   2.454   3.901   0.434  0.1397  0.0741 -0.5289
  180SOL     OW  792   1.320   3.541   0.854 -0.0923  0.3190  0.1563
  180SOL    HW2  793   1.391   3.491   0.814 -0.2851  0.2210 -0.0660
  180SOL    HW3  794   1.316   3.623   0.804 -0.6391  0.0000 -0.3289
  180SOL    MW4  795   1.328   3.545   0.842 -0.1900  0.2642  0.0630
  181SOL     OW  796   2.317   4.043   0.250  0.3865 -0.2066 -0.1355
  181SOL    HW2  797   2.303   4.114   0.313 -1.5897  0.2933 -1.1016
  181SOL    HW3  798   2.396   4.069   0.203 -0.1469  1.2140 -0.2783
  181SOL    MW4  799   2.326   4.056   0.252  0.0553  0.0472 -0.2818
  182SOL     OW  800   1.656   4.436   0.504 -0.3327  0.2463 -0.0743
  182SOL    HW2  801   1.737   4.487   0.516 -0.0663 -0.2211  0.1190
  182SOL    HW3  802   1.680   4.367   0.443 -0.3283 -0.4678  0.7232
  182SOL    MW4  803   1.670   4.434   0.498 -0.2970  0.0906  0.0564
  183SOL     OW  804   0.520   1.258   0.857 -0.0649 -0.5365  0.1946
  183SOL    HW2  805   0.553   1.188   0.801 -1.5298 -0.9197 -0.1961
  183SOL    HW3  806   0.437   1.284   0.818 -0.5537 -0.0261  1.5275
  183SOL    MW4  807   0.514   1.252   0.844 -0.3227 -0.5199  0.3189
  184SOL     OW  808   1.336   0.554   0.476 -0.3639  0.1555  0.1666
  184SOL    HW2  809   1.257   0.607   0.470 -0.6864 -0.3649 -0.3001
  184SOL    HW3  810   1.304   0.468   0.504 -0.0041 -0.1612 -0.4049
  184SOL    MW4  811   1.321   0.549   0.479 -0.3591  0.0451  0.0296
  185SOL     OW  812   3.808   1.541   1.158  0.0903 -0.2186  0.6657
  185SOL    HW2  813   3.842   1.454   1.179  0.6557 -0.5395 -1.4431
  185SOL    HW3  814   3.802   1.541   1.063  0.1958  2.0945  0.6488
  185SOL    MW4  815   3.812   1.529   1.148  0.1788  0.0441  0.3853
  186SOL     OW  816   4.401   2.519   0.442 -0.2059 -0.0442  0.2192
  186SOL    HW2  817   4.365   2.588   0.499  0.8050  0.1236  0.6731
  186SOL    HW3  818   4.421   2.447   0.502  1.0415  0.2008  0.1181
  186SOL    MW4  819   4.399   2.519   0.458  0.0920  0.0103  0.2658
  187SOL     OW  820   3.747   0.687   0.456  0.1116 -0.3221 -0.2259
  187SOL    HW2  821   3.687   0.681   0.530  0.5609 -2.5367 -0.0038
  187SOL    HW3  822   3.700   0.645   0.384  0.1219  0.8290 -0.9179
  187SOL    MW4  823   3.733   0.681   0.456  0.1719 -0.4625 -0.2879
  188SOL     OW  824   4.171   1.536   0.808  0.2186 -0.1412 -0.0196
  188SOL    HW2  825   4.164   1.543   0.904  0.7493 -1.6197  0.1468
  188SOL    HW3  826   4.265   1.532   0.792  0.1207 -0.0419 -0.6020
  188SOL    MW4  827   4.183   1.536   0.819  0.2756 -0.3233 -0.0744
  189SOL     OW  828   0.157   3.147   0.289  0.0890  0.2364 -0.0536
  189SOL    HW2  829   0.190   3.071   0.241 -2.1879  0.0889 -1.4533
  189SOL    HW3  830   0.234   3.202   0.303  1.4399 -1.4646 -0.6390
  189SOL    MW4  831   0.171   3.144   0.284 -0.0332 -0.0076 -0.3155
  190SOL     OW  832   1.115   1.458   0.895  0.1106  0.5009  0.3357
  190SOL    HW2  833   1.190   1.450   0.836 -0.6259 -0.1913 -0.5118
  190SOL    HW3  834   1.077   1.543   0.873 -0.2359  0.1906 -0.2846
  190SOL    MW4  835   1.120   1.468   0.884 -0.0322  0.3687  0.1420
  191SOL     OW  836   3.615   2.669   0.351  0.0751  0.1180 -0.0141
  191SOL    HW2  837   3.544   2.649   0.412 -0.0284  0.2050 -0.1061
  191SOL    HW3  838   3.605   2.605   0.280  1.6775 -1.5916  1.2523
  191SOL    MW4  839   3.604   2.658   0.349  0.2732 -0.0961  0.1408
  192SOL     OW  840   4.327   3.780   0.328 -0.0996  0.2833 -0.4987
  192SOL    HW2  841   4.251   3.760   0.274 -0.6870  1.1605 -0.0125
  192SOL    HW3  842   4.359   3.694   0.358  1.3358 -0.3406 -3.6696
  192SOL    MW4  843   4.321   3.766   0.325  0.0119  0.3166 -0.8529
  193SOL     OW  844   1.994   0.996   0.519 -0.5623  0.4430 -0.0096
  193SOL    HW2  845   2.058   0.928   0.541 -2.0556 -1.0838 -0.3159
  193SOL    HW3  846   2.047   1.074   0.504  1.1962 -0.6791  0.2101
  193SOL    MW4  847   2.009   0.997   0.520 -0.5271  0.0935 -0.0210
  194SOL     OW  848   1.983   3.854   0.857  0.1356  0.0282 -0.2379
  194SOL    HW2  849   1.912   3.791   0.873  0.8663 -0.9663 -0.8178
  194SOL    HW3  850   2.022   3.869   0.944 -0.4065  0.1202 -0.0103
  194SOL    MW4  851   1.979   3.848   0.871  0.1606 -0.0908 -0.2845
  195SOL     OW  852   2.455   2.129   0.197  0.2632 -0.4082  0.2374
  195SOL    HW2  853   2.500   2.100   0.117 -0.3281  0.2957 -0.3546
  195SOL    HW3  854   2.523   2.129   0.264  1.1196  0.5013 -0.6209
  195SOL    MW4  855   2.470   2.125   0.195  0.2983 -0.1953  0.0460
  196SOL     OW  856   2.572   0.014   0.525  0.1834  0.1743 -0.3982
  196SOL    HW2  857   2.574  -0.079   0.503  0.6789  0.3713 -1.2260
  196SOL    HW3  858   2.480   0.033   0.539  0.2321 -0.7948  1.3587
  196SOL    MW4  859   2.560   0.004   0.524  0.2553  0.0725 -0.2756
  197SOL     OW  860   1.754   2.247   0.861  0.7155 -0.3884  0.0496
  197SOL    HW2  861   1.692   2.284   0.924  1.9558 -1.6173  2.0505
  197SOL    HW3  862   1.741   2.152   0.867 -1.3910 -0.4435 -3.9400
  197SOL    MW4  863   1.744   2.239   0.870  0.6013 -0.5579 -0.2128
  198SOL     OW  864   0.229   3.192   0.856 -0.3847 -0.5261 -0.1163
  198SOL    HW2  865   0.231   3.195   0.952 -1.1410 -1.5165 -0.0701
  198SOL    HW3  866   0.289   3.121   0.833 -0.7840 -0.7840 -0.3530
  198SOL    MW4  867   0.237   3.183   0.866 -0.5372 -0.6905 -0.1414
  199SOL     OW  868   3.598   0.668   1.034 -0.5269  0.4162 -0.3929
  199SOL    HW2  869   3.593   0.618   0.952  0.7943  1.5531 -1.1960
  199SOL    HW3  870   3.679   0.720   1.025 -0.5548  0.8117  1.4827
  199SOL    MW4  871   3.608   0.668   1.022 -0.3562  0.6185 -0.2513
  200SOL     OW  872   2.989   3.832   0.428 -0.1231 -0.1706 -0.6227
  200SOL    HW2  873   2.895   3.827   0.417 -0.1686  0.0296 -0.3549
  200SOL    HW3  874   3.016   3.743   0.453 -0.2587 -0.1989 -0.5792
  200SOL    MW4  875   2.980   3.820   0.430 -0.1471 -0.1478 -0.5816
  201SOL     OW  876   1.738   2.968   0.682  0.0663 -0.1676 -0.4419
  201SOL    HW2  877   1.697   3.030   0.742 -1.5634 -1.4426 -0.2062
  201SOL    HW3  878   1.829   2.997   0.676 -0.2772  1.2671  0.9291
  201SOL    MW4  879   1.745   2.980   0.689 -0.1941 -0.1466 -0.2299
  202SOL     OW  880   3.012   0.344   0.480 -0.4785 -0.4622  0.1019
  202SOL    HW2  881   2.925   0.316   0.452 -1.3106  1.6998  0.4945
  202SOL    HW3  882   3.005   0.353   0.575 -0.1641  0.8523  0.0062
  202SOL    MW4  883   3.000   0.341   0.489 -0.5469 -0.0035  0.1411
  203SOL     OW  884   2.716   1.163   1.119 -0.2373 -0.0977 -0.7737
  203SOL    HW2  885   2.638   1.212   1.147 -0.8733 -0.9441 -1.0662
  203SOL    HW3  886   2.789   1.216   1.150 -0.9261 -0.2014  1.0771
  203SOL    MW4  887   2.715   1.177   1.126 -0.4122 -0.2230 -0.5679
  204SOL     OW  888   0.187   1.538   0.842 -0.4148  0.2159 -0.2353
  204SOL    HW2  889   0.101   1.559   0.806 -0.4374 -2.2576 -1.7071
  204SOL    HW3  890   0.175   1.541   0.937 -1.7345  1.3600 -0.4254
  204SOL    MW4  891   0.174   1.541   0.850 -0.5919  0.0407 -0.4545
  205SOL     OW  892   0.354   0.367   0.378  0.2126  0.5854  0.1071
  205SOL    HW2  893   0.363   0.281   0.420 -1.0990  0.7898  0.8040
  205SOL    HW3  894   0.436   0.412   0.398  0.6193 -0.2414  0.3263
  205SOL    MW4  895   0.366   0.361   0.386  0.0932  0.5032  0.2280
  206SOL     OW  896   1.247   2.121   0.733 -0.0175 -0.8025 -0.2069
  206SOL    HW2  897   1.274   2.048   0.790 -1.1393 -0.2678  1.0249
  206SOL    HW3  898   1.167   2.155   0.773  0.5598  1.2028 -0.6973
  206SOL    MW4  899   1.240   2.116   0.746 -0.0893 -0.4673 -0.1091
  207SOL     OW  900   0.285   1.786   0.748  0.6877 -0.0327  0.1640
  207SOL    HW2  901   0.284   1.771   0.654 -0.8254 -0.7689  0.2863
  207SOL    HW3  902   0.270   1.700   0.787 -1.5498  0.7198  1.0055
  207SOL    MW4  903   0.283   1.773   0.741  0.1929 -0.0306  0.2912
  208SOL     OW  904   3.385   0.872   0.942  0.5293  0.2949  0.3197
  208SOL    HW2  905   3.343   0.958   0.940  0.1916  0.1493  1.0118
  208SOL    HW3  906   3.354   0.828   0.863  1.7811  1.3070 -0.7595
  208SOL    MW4  907   3.375   0.878   0.931  0.6502  0.4092  0.2686
  209SOL     OW  908   0.683   1.476   0.366  0.0419 -0.1921 -0.1066
  209SOL    HW2  909   0.637   1.528   0.300  0.4633  0.5736  0.1903
  209SOL    HW3  910   0.735   1.541   0.415  1.2149 -0.9976 -0.2568
  209SOL    MW4  911   0.684   1.492   0.364  0.2522 -0.1973 -0.0873
  210SOL     OW  912   4.417   3.722   0.775  0.6335  0.0522  0.3741
  210SOL    HW2  913   4.490   3.784   0.769  1.5426 -1.1897 -2.2539
  210SOL    HW3  914   4.457   3.641   0.804 -0.0766 -0.0377  1.0833
  210SOL    MW4  915   4.432   3.720   0.778  0.6599 -0.1235  0.1209
  211SOL     OW  916   0.477   2.707   0.892  0.1377  0.5650  0.1715
  211SOL    HW2  917   0.548   2.667   0.843  0.1541 -0.7356  1.2324
  211SOL    HW3  918   0.397   2.675   0.849  0.1482 -0.7710  1.1323
  211SOL    MW4  919   0.476   2.698   0.880  0.1413  0.2170  0.4382
  212SOL     OW  920   3.018   0.953   0.520 -0.3022  0.0231  0.6868
  212SOL    HW2  921   2.977   1.019   0.463 -0.7802  0.9911  2.1116
  212SOL    HW3  922   2.970   0.873   0.503 -0.9568  0.4942  0.2962
  212SOL    MW4  923   3.006   0.951   0.510 -0.4516  0.2130  0.8233
  213SOL     OW  924   1.072   2.217   0.414  0.1050 -0.1336  0.1369
  213SOL    HW2  925   1.049   2.264   0.495  1.0964  1.5373 -0.5199
  213SOL    HW3  926   1.106   2.133   0.444 -0.6015  0.0185  1.4156
  213SOL    MW4  927   1.073   2.212   0.429  0.1427  0.1070  0.2190
  214SOL     OW  928   1.333   3.375   0.528 -0.0349 -0.2987 -0.4459
  214SOL    HW2  929   1.294   3.287   0.529 -0.1391 -0.2537 -0.7700
  214SOL    HW3  930   1.333   3.401   0.436  1.3612 -0.5699 -0.5417
  214SOL    MW4  931   1.328   3.367   0.516  0.1355 -0.3285 -0.5013
  215SOL     OW  932   2.895   2.786   0.480 -1.0509  0.4443 -0.2611
  215SOL    HW2  933   2.962   2.839   0.437 -1.5886  0.0774 -1.5524
  215SOL    HW3  934   2.909   2.802   0.574  0.3400  0.9774 -0.5467
  215SOL    MW4  935   2.906   2.795   0.487 -0.9384  0.4663 -0.4692
  216SOL     OW  936   0.533   0.234   0.737 -0.0396 -0.4139  0.6712
  216SOL    HW2  937   0.466   0.212   0.673  0.3140 -1.4435  0.6393
  216SOL    HW3  938   0.494   0.304   0.790 -0.9679 -0.7056  0.3854
  216SOL    MW4  939   0.519   0.240   0.736 -0.1155 -0.5882  0.6292
  217SOL     OW  940   0.108   0.170   0.239 -0.1872  0.3606  0.1693
  217SOL    HW2  941   0.193   0.196   0.203 -0.1054 -1.5122 -1.0662
  217SOL    HW3  942   0.126   0.152   0.331  0.5340  0.9527  0.1490
  217SOL    MW4  943   0.122   0.171   0.246 -0.0812  0.1917  0.0036
  218SOL     OW  944   3.400   2.633   0.539 -0.5663  0.1697 -0.1325
  218SOL    HW2  945   3.398   2.623   0.634  0.7233 -0.2789 -0.1363
  218SOL    HW3  946   3.367   2.721   0.523  1.0994  0.9981  0.8802
  218SOL    MW4  947   3.396   2.643   0.549 -0.1764  0.2201  0.0007
  219SOL     OW  948   0.263   1.304   1.240  0.7632  0.4285  0.0236
  219SOL    HW2  949   0.187   1.251   1.216  0.7580  0.3775  0.1480
  219SOL    HW3  950   0.337   1.259   1.199  0.7065  0.5702 -0.2340
  219SOL    MW4  951   0.262   1.291   1.232  0.7550  0.4406  0.0061
  220SOL     OW  952   2.755   3.195   0.589  0.3652 -0.3171  0.0197
  220SOL    HW2  953   2.711   3.117   0.623  0.0844  1.0654  2.9879
  220SOL    HW3  954   2.688   3.238   0.536  0.3588 -1.7866 -1.2021
  220SOL    MW4  955   2.740   3.190   0.586  0.3273 -0.3288  0.2501
  221SOL     OW  956   3.841   2.625   0.716 -0.1919 -0.4874 -0.0880
  221SOL    HW2  957   3.822   2.537   0.686  0.7022 -0.5399 -0.5205
  221SOL    HW3  958   3.836   2.679   0.637 -0.6072 -0.1768  0.1515
  221SOL    MW4  959   3.838   2.621   0.701 -0.1285 -0.4535 -0.1135
  222SOL     OW  960   0.204   3.805   0.313 -0.4699 -0.3468  0.0595
  222SOL    HW2  961   0.254   3.868   0.261  0.8759 -1.1188  0.4243
  222SOL    HW3  962   0.173   3.856   0.389  0.9694 -0.2201  0.5710
  222SOL    MW4  963   0.206   3.820   0.316 -0.1024 -0.4320  0.1751
  223SOL     OW  964   3.810   3.294   0.712 -0.6071 -0.5085 -0.3864
  223SOL    HW2  965   3.878   3.351   0.678 -0.5555  0.6776  1.6110
  223SOL    HW3  966   3.756   3.272   0.636 -0.2654  1.6815 -1.3042
  223SOL    MW4  967   3.812   3.298   0.698 -0.5550 -0.0629 -0.2440
  224SOL     OW  968   0.688   1.555   1.149 -0.0030  0.1546 -0.3541
  224SOL    HW2  969   0.712   1.522   1.062 -0.9734 -1.5028  0.0039
  224SOL    HW3  970   0.771   1.586   1.186  0.6052 -0.1770 -1.4231
  224SOL    MW4  971   0.702   1.555   1.143 -0.0507 -0.1078 -0.4480
  225SOL     OW  972   2.693   0.954   0.263 -0.1649  0.0139 -0.0034
  225SOL    HW2  973   2.638   1.029   0.287  0.8238  0.7688 -0.0497
  225SOL    HW3  974   2.781   0.991   0.254  0.2026 -1.0250 -0.7527
  225SOL    MW4  975   2.698   0.969   0.265  0.0143 -0.0236 -0.1084
  226SOL     OW  976   3.238   1.995   0.507 -0.1469  0.7041  0.2215
  226SOL    HW2  977   3.233   1.900   0.515  1.0164  0.6306  0.2275
  226SOL    HW3  978   3.328   2.012   0.478 -0.4547  1.7757 -0.1531
  226SOL    MW4  979   3.250   1.985   0.504 -0.0343  0.8359  0.1729
  227SOL     OW  980   3.794   2.356   0.639  0.2002  0.1454  0.0034
  227SOL    HW2  981   3.798   2.312   0.724 -1.6970 -0.4464 -0.1905
  227SOL    HW3  982   3.873   2.327   0.593 -0.0161 -1.4967  0.6468
  227SOL    MW4  983   3.805   2.346   0.644 -0.0787 -0.1493  0.0628
  228SOL     OW  984   2.675   3.246   1.270  0.4864  0.0891 -0.5533
  228SOL    HW2  985   2.739   3.194   1.220  0.7441  0.0058 -0.1453
  228SOL    HW3  986   2.590   3.219   1.236  0.5400 -1.7208  0.6969
  228SOL    MW4  987   2.672   3.236   1.259  0.5274 -0.1607 -0.3345
  229SOL     OW  988   3.737   1.497   0.876 -0.3272 -0.0283 -0.2121
  229SOL    HW2  989   3.741   1.543   0.792  0.1169 -1.5907 -1.0689
  229SOL    HW3  990   3.758   1.406   0.855  1.5611 -0.1343  1.8566
  229SOL    MW4  991   3.741   1.491   0.862 -0.0196 -0.2484 -0.0522
  230SOL     OW  992   2.002   1.894   0.786  0.1441 -0.2267  0.0539
  230SOL    HW2  993   2.089   1.933   0.791 -1.5250  3.4550  1.6341
  230SOL    HW3  994   1.980   1.894   0.693  1.3201 -0.0594 -0.2207
  230SOL    MW4  995   2.010   1.899   0.775  0.0789  0.2811  0.2261
  231SOL     OW  996   3.055   4.429   0.282  0.0177  0.2282 -0.0587
  231SOL    HW2  997   3.035   4.521   0.300  2.5606  0.9480 -0.7245
  231SOL    HW3  998   3.135   4.432   0.230  1.3180 -2.4374  1.6887
  231SOL    MW4  999   3.063   4.442   0.278  0.5250 -0.0286  0.0840
  232SOL     OW 1000   0.214   0.814   0.907  0.4305 -0.1054 -0.2927
  232SOL    HW2 1001   0.158   0.891   0.916  0.2546 -0.3363  0.6479
  232SOL    HW3 1002   0.154   0.741   0.897  0.5857 -0.2067 -0.4945
  232SOL    MW4 1003   0.199   0.814   0.907  0.4278 -0.1492 -0.1952
  233SOL     OW 1004   3.504   4.348   0.320  0.2240 -0.0714 -0.2547
  233SOL    HW2 1005   3.598   4.365   0.328 -0.0631  1.0933  0.7540
  233SOL    HW3 1006   3.489   4.270   0.373  0.5845 -0.1270 -0.2316
  233SOL    MW4 1007   3.515   4.340   0.328  0.2337  0.0749 -0.1186
  234SOL     OW 1008   2.091   1.105   0.838  0.0464 -0.1653 -0.4432
  234SOL    HW2 1009   2.132   1.158   0.770  0.9755  2.6346  2.2146
  234SOL    HW3 1010   2.010   1.152   0.860 -0.1287 -0.9079  0.5388
  234SOL    MW4 1011   2.086   1.118   0.832  0.1459  0.1060  0.0371
  235SOL     OW 1012   1.087   0.693   0.546 -0.1382  0.1938  0.0469
  235SOL    HW2 1013   1.096   0.693   0.641 -3.2969 -0.6045  0.4046
  235SOL    HW3 1014   0.997   0.664   0.531  0.7240 -0.9478 -3.2289
  235SOL    MW4 1015   1.077   0.689   0.557 -0.4412 -0.0621 -0.3381
  236SOL     OW 1016   0.075   3.276   0.551 -0.3756 -0.1126  0.2652
  236SOL    HW2 1017   0.036   3.347   0.500  0.2013  0.9910  1.3335
  236SOL    HW3 1018   0.111   3.216   0.486 -0.8476  0.5810 -0.6441
  236SOL    MW4 1019   0.075   3.277   0.536 -0.3617  0.1245  0.2861
  237SOL     OW 1020   4.255   4.637   0.859  0.1261  0.4621 -0.7052
  237SOL    HW2 1021   4.245   4.667   0.949 -0.9931  0.5170 -0.8431
  237SOL    HW3 1022   4.166   4.617   0.830  0.4936  0.3056 -1.7493
  237SOL    MW4 1023   4.242   4.639   0.867  0.0267  0.4487 -0.8612
  238SOL     OW 1024   0.738   0.658   0.757  0.1221  0.0274  0.6675
  238SOL    HW2 1025   0.646   0.635   0.745 -0.1971  0.2939  2.4043
  238SOL    HW3 1026   0.777   0.582   0.801  0.3586  0.5324  1.3447
  238SOL    MW4 1027   0.731   0.645   0.761  0.1113  0.1292  0.9860
  239SOL     OW 1028   3.327   0.016   0.664 -0.0528  0.2427 -0.1301
  239SOL    HW2 1029   3.262  -0.053   0.652 -1.3587  0.9603  2.3760
  239SOL    HW3 1030   3.398  -0.026   0.713  0.3343  0.0347 -0.8669
  239SOL    MW4 1031   3.328   0.001   0.669 -0.1743  0.3100  0.1034
  240SOL     OW 1032   0.031   3.495   1.137  0.7048  0.3262  0.7208
  240SOL    HW2 1033  -0.055   3.537   1.141  0.9496  1.1657 -1.6220
  240SOL    HW3 1034   0.021   3.413   1.185 -1.8488 -0.3106 -0.8258
  240SOL    MW4 1035   0.018   3.490   1.144  0.4001  0.3529  0.2075
  241SOL     OW 1036   2.958   1.520   0.844  0.5874  0.0766  0.0278
  241SOL    HW2 1037   3.052   1.522   0.825  0.9478 -0.4151  1.6542
  241SOL    HW3 1038   2.953   1.517   0.940 -1.0876 -0.3815 -0.0581
  241SOL    MW4 1039   2.970   1.520   0.854  0.4139 -0.0488  0.2310
  242SOL     OW 1040   2.438   0.065   0.886 -0.2916 -0.4232 -0.2531
  242SOL    HW2 1041   2.522   0.047   0.844  0.0428  0.4193  0.0556
  242SOL    HW3 1042   2.458   0.067   0.979 -0.3466  1.3517 -0.2631
  242SOL    MW4 1043   2.452   0.063   0.892 -0.2549 -0.0779 -0.2137
  243SOL     OW 1044   3.575   2.745   1.153 -0.6206 -0.0410 -0.0914
  243SOL    HW2 1045   3.581   2.715   1.063  0.0240  0.0833 -0.0924
  243SOL    HW3 1046   3.481   2.755   1.169 -0.6631  1.4113 -1.2198
  243SOL    MW4 1047   3.564   2.742   1.143 -0.5412  0.1669 -0.2403
  244SOL     OW 1048   2.575   4.124   0.132  0.1074  0.2516 -0.0766
  244SOL    HW2 1049   2.614   4.051   0.085  0.3926  0.3304  0.0390
  244SOL    HW3 1050   2.649   4.181   0.155 -0.2669  1.2877 -1.3864
  244SOL    MW4 1051   2.590   4.122   0.129  0.0956  0.3991 -0.2342
  245SOL     OW 1052   4.066   1.565   0.355 -0.2857 -0.2076 -0.3178
  245SOL    HW2 1053   4.056   1.635   0.420 -0.3777  0.1331 -0.6960
  245SOL    HW3 1054   4.022   1.599   0.277 -0.5474 -0.7940 -0.4245
  245SOL    MW4 1055   4.059   1.579   0.353 -0.3319 -0.2401 -0.3818
  246SOL     OW 1056   2.008   2.314   1.177  0.0825  0.2612  0.7476
  246SOL    HW2 1057   2.005   2.220   1.194 -0.4517  0.3561  1.1837
  246SOL    HW3 1058   2.092   2.342   1.212  1.0563 -0.3663 -1.0240
  246SOL    MW4 1059   2.019   2.305   1.184  0.1407  0.1907  0.5714
  247SOL     OW 1060   1.681   1.033   0.772 -0.3155  0.0655  0.2041
  247SOL    HW2 1061   1.608   1.091   0.751 -0.2965 -0.1146 -0.3496
  247SOL    HW3 1062   1.712   1.001   0.688  2.1429  2.2478  0.2170
  247SOL    MW4 1063   1.676   1.036   0.758  0.0113  0.3297  0.1327
  248SOL     OW 1064   3.035   0.038   0.427  0.0086  0.5264  0.4195
  248SOL    HW2 1065   3.037  -0.020   0.503 -1.6869  1.1406  0.9523
  248SOL    HW3 1066   3.079   0.118   0.457 -0.5706  0.7316  0.7138
  248SOL    MW4 1067   3.041   0.041   0.441 -0.2916  0.6342  0.5287
  249SOL     OW 1068   2.705   2.431   1.276 -0.6432  0.0283 -0.8446
  249SOL    HW2 1069   2.704   2.417   1.371 -1.3662 -0.3908 -0.9077
  249SOL    HW3 1070   2.627   2.385   1.245  0.7930 -1.7294 -1.9001
  249SOL    MW4 1071   2.695   2.423   1.285 -0.5491 -0.2589 -0.9921
  250SOL     OW 1072   4.219   3.364   0.611  0.3493  0.1979 -0.4190
  250SOL    HW2 1073   4.233   3.387   0.703  0.2503  0.0911 -0.3761
  250SOL    HW3 1074   4.262   3.279   0.601 -0.0767 -0.0285 -0.3417
  250SOL    MW4 1075   4.226   3.356   0.622  0.2804  0.1543 -0.4031
  251SOL     OW 1076   4.074   4.263   0.807 -0.0177  0.0925  0.2564
  251SOL    HW2 1077   4.116   4.286   0.724 -0.0650  0.1163  0.2391
  251SOL    HW3 1078   4.002   4.206   0.783  0.7839 -0.9930  0.3868
  251SOL    MW4 1079   4.070   4.259   0.793  0.0815 -0.0472  0.2713
  252SOL     OW 1080   3.076   2.365   0.710  0.0620 -0.2184  0.0360
  252SOL    HW2 1081   3.075   2.411   0.626  0.6362 -0.7496 -0.2746
  252SOL    HW3 1082   3.085   2.434   0.776  0.9574  0.1202 -0.4226
  252SOL    MW4 1083   3.077   2.380   0.708  0.2561 -0.2437 -0.0654
  253SOL     OW 1084   2.397   3.858   0.851  0.7630 -0.4363  0.2636
  253SOL    HW2 1085   2.331   3.795   0.826  0.4668 -0.4783  1.1189
  253SOL    HW3 1086   2.479   3.823   0.817  0.5397 -1.0755  0.3866
  253SOL    MW4 1087   2.399   3.845   0.843  0.6943 -0.5264  0.3927
  254SOL     OW 1088   0.843   3.681   0.551  0.0315  0.0032  0.2233
  254SOL    HW2 1089   0.906   3.612   0.533 -2.0703 -2.0581  0.5989
  254SOL    HW3 1090   0.862   3.710   0.640  0.1049 -0.9881  0.5307
  254SOL    MW4 1091   0.854   3.676   0.560 -0.2361 -0.3996  0.3135
  255SOL     OW 1092   0.668   0.033   0.854  0.1340  0.4150  0.7204
  255SOL    HW2 1093   0.687   0.034   0.947  1.4668  1.3443  0.4458
  255SOL    HW3 1094   0.628   0.118   0.836  0.3399  0.4319  0.3401
  255SOL    MW4 1095   0.665   0.044   0.864  0.3370  0.5398  0.6340
  256SOL     OW 1096   2.010   3.356   0.649 -0.1543  0.1237  0.6340
  256SOL    HW2 1097   1.993   3.262   0.649  1.8931 -0.2697  0.0020
  256SOL    HW3 1098   1.923   3.396   0.652 -1.0388 -1.7769  1.0758
  256SOL    MW4 1099   1.996   3.349   0.649 -0.0008 -0.1791  0.6089
  257SOL     OW 1100   3.561   1.945   1.115 -0.1372  0.8549 -0.1115
  257SOL    HW2 1101   3.621   1.995   1.171  2.5577  0.1001 -2.2238
  257SOL    HW3 1102   3.575   1.854   1.141 -1.1140  0.7566  0.0723
  257SOL    MW4 1103   3.571   1.940   1.126  0.0896  0.7423 -0.3660
  258SOL     OW 1104   1.102   0.063   0.841  0.0418 -0.3543  0.5696
  258SOL    HW2 1105   1.185   0.036   0.803  0.4360 -1.2281  2.0402
  258SOL    HW3 1106   1.039  -0.002   0.809 -0.4096  1.2093 -1.8391
  258SOL    MW4 1107   1.104   0.051   0.831  0.0343 -0.2633  0.4459
  259SOL     OW 1108   1.181   3.130   0.530 -0.4172  0.1342 -0.1450
  259SOL    HW2 1109   1.227   3.054   0.495  1.1239  0.6790  0.6779
  259SOL    HW3 1110   1.089   3.101   0.536  0.0972 -1.5533 -0.1036
  259SOL    MW4 1111   1.175   3.116   0.526 -0.1460 -0.0169 -0.0309
  260SOL     OW 1112   4.017   1.666   0.622 -0.1117  0.3009  0.4828
  260SOL    HW2 1113   4.066   1.612   0.684 -0.8345 -0.7416  0.1380
  260SOL    HW3 1114   3.926   1.642   0.635 -0.3612  0.8273 -0.2613
  260SOL    MW4 1115   4.012   1.656   0.632 -0.2403  0.2327  0.3392
  261SOL     OW 1116   0.691   2.675   0.486  0.0020  0.1784 -0.5839
  261SOL    HW2 1117   0.697   2.672   0.581 -1.0496 -1.1576 -0.5392
  261SOL    HW3 1118   0.611   2.626   0.466  0.6143 -0.1967 -2.1941
  261SOL    MW4 1119   0.681   2.668   0.496 -0.0559 -0.0472 -0.7904
  262SOL     OW 1120   0.409   2.119   0.281  0.2199  0.6783 -0.1671
  262SOL    HW2 1121   0.334   2.130   0.339  0.0077 -1.3078 -0.0392
  262SOL    HW3 1122   0.395   2.184   0.212  0.6649  3.3294  2.1248
  262SOL    MW4 1123   0.397   2.129   0.279  0.2506  0.7660  0.1522
  263SOL     OW 1124   3.629   0.190   0.413  0.2747  0.0102 -0.4158
  263SOL    HW2 1125   3.607   0.121   0.350 -0.7391 -0.0354 -0.0227
  263SOL    HW3 1126   3.545   0.219   0.447  0.6082  2.1586 -1.3105
  263SOL    MW4 1127   3.615   0.185   0.409  0.1848  0.2877 -0.4820
  264SOL     OW 1128   2.881   2.095   0.608  0.4288  0.0434 -0.4479
  264SOL    HW2 1129   2.846   2.007   0.620 -0.0778  0.3916  0.7417
  264SOL    HW3 1130   2.950   2.085   0.542  0.9537 -1.3865  0.2978
  264SOL    MW4 1131   2.886   2.082   0.601  0.4311 -0.0992 -0.1926
  265SOL     OW 1132   4.290   2.129   0.342  0.3064 -0.4313  0.5628
  265SOL    HW2 1133   4.204   2.088   0.354 -0.1532  0.6356  0.9223
  265SOL    HW3 1134   4.274   2.198   0.279  0.7172  0.3547  1.3181
  265SOL    MW4 1135   4.276   2.132   0.335  0.3004 -0.1864  0.7099
  266SOL     OW 1136   0.990   2.057   0.877  0.0328 -0.5177  0.1628
  266SOL    HW2 1137   0.953   2.024   0.959 -0.0742 -1.1141 -0.1242
  266SOL    HW3 1138   0.913   2.075   0.822  0.1010 -0.0405  0.2231
  266SOL    MW4 1139   0.975   2.055   0.881  0.0276 -0.5333  0.1329
  267SOL     OW 1140   0.066   1.658   0.373  0.0385 -0.2172  0.3365
  267SOL    HW2 1141  -0.014   1.604   0.370  0.7221 -1.3376  1.7054
  267SOL    HW3 1142   0.036   1.747   0.356 -1.3779 -0.7691 -0.1210
  267SOL    MW4 1143   0.052   1.662   0.370 -0.0582 -0.4377  0.4568
  268SOL     OW 1144   3.918   1.355   0.491 -0.5350 -0.1517 -0.1946
  268SOL    HW2 1145   3.968   1.422   0.444 -0.2335 -0.3694 -0.1823
  268SOL    HW3 1146   3.972   1.334   0.567 -1.1800  0.4483  0.4373
  268SOL    MW4 1147   3.932   1.361   0.495 -0.5801 -0.1013 -0.1096
  269SOL     OW 1148   1.120   0.965   0.527  0.3568 -0.1975  0.1592
  269SOL    HW2 1149   1.211   0.997   0.522  0.7555 -1.2718  0.3491
  269SOL    HW3 1150   1.128   0.870   0.513 -0.7040 -0.3342  0.4987
  269SOL    MW4 1151   1.133   0.957   0.525  0.2695 -0.3572  0.2291
  270SOL     OW 1152   1.330   2.893   0.498  0.4434 -0.0696  0.1836
  270SOL    HW2 1153   1.281   2.812   0.484  2.4195 -1.3386  0.3270
  270SOL    HW3 1154   1.422   2.865   0.500  1.0407  1.8564  2.4125
  270SOL    MW4 1155   1.336   2.879   0.497  0.7828  0.0172  0.4966
  271SOL     OW 1156   2.332   3.015   0.540 -0.0442 -0.2942 -0.3267
  271SOL    HW2 1157   2.397   2.948   0.517  0.4357  0.5376 -1.4279
  271SOL    HW3 1158   2.252   2.965   0.557  0.4608 -1.1971 -0.5580
  271SOL    MW4 1159   2.330   2.999   0.539  0.0858 -0.3035 -0.5025
  272SOL     OW 1160   0.224   4.650   0.816 -0.4411 -0.4910  0.2536
  272SOL    HW2 1161   0.154   4.585   0.822 -0.4807 -0.4240  0.5230
  272SOL    HW3 1162   0.253   4.662   0.906 -0.9541  0.4344  0.2950
  272SOL    MW4 1163   0.218   4.643   0.829 -0.5140 -0.3601  0.2946
  273SOL     OW 1164   0.825   3.309   0.502 -0.2523 -0.1183 -0.1985
  273SOL    HW2 1165   0.883   3.383   0.484 -0.4993 -0.3677 -2.0849
  273SOL    HW3 1166   0.788   3.328   0.588 -0.0558  1.7831 -0.5237
  273SOL    MW4 1167   0.828   3.321   0.511 -0.2589  0.0994 -0.4904
  274SOL     OW 1168   1.168   2.411   0.817  0.6849 -0.2206 -0.4057
  274SOL    HW2 1169   1.144   2.504   0.817  0.7526 -0.1987 -1.2220
  274SOL    HW3 1170   1.163   2.385   0.909 -0.2684  0.3501 -0.2880
  274SOL    MW4 1171   1.164   2.420   0.829  0.5680 -0.1426 -0.4979
  275SOL     OW 1172   0.171   0.263   0.791 -0.1054 -0.2944 -0.1563
  275SOL    HW2 1173   0.182   0.172   0.766 -1.9614  0.0096 -2.2571
  275SOL    HW3 1174   0.176   0.312   0.709  0.7498  1.5031  0.9111
  275SOL    MW4 1175   0.174   0.258   0.777 -0.2374 -0.0171 -0.2926
  276SOL     OW 1176   2.235   1.546   0.676  0.2941 -0.3150  0.3888
  276SOL    HW2 1177   2.281   1.567   0.595  1.0490  0.4077  0.9849
  276SOL    HW3 1178   2.305   1.540   0.742 -0.3569 -0.3615  1.0846
  276SOL    MW4 1179   2.250   1.548   0.674  0.3078 -0.2258  0.5592
  277SOL     OW 1180   3.995   4.563   0.551  0.2143  0.2788  0.2974
  277SOL    HW2 1181   4.081   4.582   0.513  0.2039  0.3950  0.3318
  277SOL    HW3 1182   3.950   4.647   0.553  0.2965  0.3101  0.7767
  277SOL    MW4 1183   4.000   4.576   0.546  0.2241  0.2980  0.3652
  278SOL     OW 1184   2.973   1.097   0.780  0.0699 -0.2534 -0.0458
  278SOL    HW2 1185   2.893   1.150   0.776  0.8776  1.0311  0.4754
  278SOL    HW3 1186   2.977   1.055   0.694 -0.3701  0.8825 -0.6471
  278SOL    MW4 1187   2.963   1.099   0.768  0.1183  0.0659 -0.0564
  279SOL     OW 1188   3.639   1.139   1.177  0.0853 -0.7586  0.2029
  279SOL    HW2 1189   3.723   1.184   1.187 -0.2590 -0.0797  0.1088
  279SOL    HW3 1190   3.638   1.109   1.086  0.1724 -0.6498  0.1661
  279SOL    MW4 1191   3.650   1.141   1.167  0.0510 -0.6548  0.1856
  280SOL     OW 1192   0.322   2.141   0.721  0.2471  0.4389 -0.5877
  280SOL    HW2 1193   0.390   2.079   0.749  0.1797  1.6112  2.3543
  280SOL    HW3 1194   0.368   2.224   0.712 -0.2478  0.6159 -1.4876
  280SOL    MW4 1195   0.337   2.144   0.724  0.1729  0.6170 -0.3182
  281SOL     OW 1196   3.807   0.819   1.002  0.3116  0.3466 -0.3907
  281SOL    HW2 1197   3.878   0.844   1.062 -0.7405 -2.2213  2.0623
  281SOL    HW3 1198   3.850   0.765   0.935  1.1601  1.3559 -0.6600
  281SOL    MW4 1199   3.822   0.815   1.001  0.2847  0.1410 -0.1025
  282SOL     OW 1200   0.009   0.907   1.273 -0.0272  0.0775 -0.1698
  282SOL    HW2 1201   0.088   0.862   1.244 -2.0410 -2.8050 -1.3822
  282SOL    HW3 1202   0.012   0.901   1.369  0.5016 -1.3504 -0.2651
  282SOL    MW4 1203   0.020   0.900   1.282 -0.2231 -0.4911 -0.3424
  283SOL     OW 1204   0.485   1.184   1.121 -0.1987 -0.1781 -0.0775
  283SOL    HW2 1205   0.500   1.210   1.030 -1.5089 -0.9570 -0.5246
  283SOL    HW3 1206   0.565   1.210   1.166  0.9602 -0.8324 -1.6757
  283SOL    MW4 1207   0.497   1.190   1.115 -0.2187 -0.3673 -0.3474
  284SOL     OW 1208   0.096   0.092   0.512 -0.0666  0.0721  0.0310
  284SOL    HW2 1209   0.076  -0.000   0.499  0.7389  0.2214 -2.5907
  284SOL    HW3 1210   0.017   0.129   0.552 -1.3498 -1.2426 -1.2368
  284SOL    MW4 1211   0.083   0.085   0.516 -0.1296 -0.0816 -0.4822
  285SOL     OW 1212   1.457   4.050   0.439 -0.3473 -0.2931  0.0691
  285SOL    HW2 1213   1.498   4.043   0.525 -1.3966 -0.2576  0.5768
  285SOL    HW3 1214   1.475   3.966   0.397 -0.3547 -0.5392  0.5580
  285SOL    MW4 1215   1.464   4.038   0.445 -0.4866 -0.3204  0.2006
  286SOL     OW 1216   3.717   1.143   0.540 -0.7011 -0.0836 -0.0276
  286SOL    HW2 1217   3.752   1.220   0.496  0.6286 -0.4209  0.4092
  286SOL    HW3 1218   3.713   1.168   0.633 -1.6166 -0.0583 -0.0626
  286SOL    MW4 1219   3.721   1.156   0.547 -0.6464 -0.1247  0.0255
  287SOL     OW 1220   1.328   4.334   0.868 -0.0630 -0.2175  0.0514
  287SOL    HW2 1221   1.416   4.332   0.830 -0.5415  0.0150 -1.1217
  287SOL    HW3 1222   1.296   4.422   0.847 -1.0966 -0.7845 -0.7982
  287SOL    MW4 1223   1.335   4.345   0.860 -0.2624 -0.2613 -0.2155
  288SOL     OW 1224   4.284   3.615   1.225 -0.3246  0.3557 -0.0541
  288SOL    HW2 1225   4.299   3.592   1.317  1.5640  0.9420 -0.1981
  288SOL    HW3 1226   4.299   3.709   1.221  1.0359  0.0928 -1.2425
  288SOL    MW4 1227   4.288   3.624   1.237  0.1040  0.3982 -0.2300
  289SOL     OW 1228   1.487   0.183   0.479 -0.0222  0.1020  0.1340
  289SOL    HW2 1229   1.404   0.211   0.519  0.4615  0.2080  1.0957
  289SOL    HW3 1230   1.476   0.090   0.463 -0.6129  0.2720 -0.4683
  289SOL    MW4 1231   1.475   0.175   0.482 -0.0364  0.1384  0.1813
  290SOL     OW 1232   1.347   2.986   0.774 -0.5018 -0.2677 -0.1519
  290SOL    HW2 1233   1.341   2.903   0.821  0.7163 -1.0916 -1.3815
  290SOL    HW3 1234   1.340   2.961   0.682  2.0658  0.7356 -0.6557
  290SOL    MW4 1235   1.345   2.972   0.768 -0.0023 -0.2441 -0.3806
  291SOL     OW 1236   1.748   1.976   0.891  0.1576  0.2819 -0.4424
  291SOL    HW2 1237   1.829   1.937   0.859  0.0937 -0.3498  0.1421
  291SOL    HW3 1238   1.679   1.924   0.851  0.0444  0.7635 -0.8702
  291SOL    MW4 1239   1.749   1.964   0.882  0.1342  0.2620 -0.4217
  292SOL     OW 1240   0.513   2.335   0.644  0.0331 -0.1515  0.3063
  292SOL    HW2 1241   0.483   2.402   0.583 -0.7410 -0.2678  0.5501
  292SOL    HW3 1242   0.540   2.262   0.587 -1.0262 -0.3987  0.0962
  292SOL    MW4 1243   0.512   2.334   0.628 -0.2087 -0.1993  0.3108
  293SOL     OW 1244   2.719   1.876   0.495  0.3919  0.2676 -0.5707
  293SOL    HW2 1245   2.766   1.793   0.501  0.1979  0.1627 -0.4732
  293SOL    HW3 1246   2.628   1.853   0.515  0.7071  0.8651  1.7144
  293SOL    MW4 1247   2.713   1.862   0.498  0.4077  0.3327 -0.2564
  294SOL     OW 1248   1.542   2.359   0.264  0.4646  0.8154 -0.2632
  294SOL    HW2 1249   1.633   2.383   0.244  0.6816  0.6764  0.5627
  294SOL    HW3 1250   1.546   2.265   0.280 -0.0863  0.5235 -1.7198
  294SOL    MW4 1251   1.555   2.350   0.263  0.4208  0.7584 -0.3464
  295SOL     OW 1252   1.455   2.320   0.815 -0.2538  0.0535  0.3463
  295SOL    HW2 1253   1.459   2.410   0.784 -1.3418 -0.0545 -0.1189
  295SOL    HW3 1254   1.363   2.296   0.808 -0.0835 -0.8645  1.1404
  295SOL    MW4 1255   1.444   2.329   0.810 -0.3748 -0.0818  0.3898
  296SOL     OW 1256   3.683   4.213   0.659  0.0007  0.0280  0.3061
  296SOL    HW2 1257   3.753   4.154   0.687  0.6843  1.7488  2.3317
  296SOL    HW3 1258   3.725   4.277   0.603 -0.1840  0.3076  0.4832
  296SOL    MW4 1259   3.698   4.214   0.656  0.0665  0.2923  0.5968
  297SOL     OW 1260   2.246   2.714   1.133 -0.2911 -0.0740 -0.1900
  297SOL    HW2 1261   2.175   2.763   1.173 -0.8037  0.8451 -2.1741
  297SOL    HW3 1262   2.323   2.736   1.185 -1.0796  0.4194  0.7916
  297SOL    MW4 1263   2.247   2.723   1.145 -0.4628  0.1125 -0.3221
  298SOL     OW 1264   4.126   4.114   0.108  0.6152  0.4524  0.2579
  298SOL    HW2 1265   4.215   4.089   0.129  0.6951  0.6617  0.1740
  298SOL    HW3 1266   4.123   4.113   0.012  0.5280  0.4457  0.2606
  298SOL    MW4 1267   4.137   4.111   0.098  0.6142  0.4797  0.2472
  299SOL     OW 1268   1.503   2.575   0.737 -0.1221 -0.3792  0.0343
  299SOL    HW2 1269   1.498   2.600   0.644  0.7215 -1.2777 -0.2517
  299SOL    HW3 1270   1.593   2.595   0.762 -0.7330  1.1879  1.0511
  299SOL    MW4 1271   1.514   2.581   0.728 -0.0913 -0.2911  0.1307
  300SOL     OW 1272   2.090   2.836   0.534  0.1621 -0.1371  0.0349
  300SOL    HW2 1273   2.099   2.744   0.557 -0.2052 -0.8331 -2.4491
  300SOL    HW3 1274   2.028   2.836   0.461  0.8167  1.9916 -0.5451
  300SOL    MW4 1275   2.083   2.824   0.527  0.1998  0.0522 -0.3693
  301SOL     OW 1276   0.011   1.959   0.374 -0.2022  0.2221 -0.3576
  301SOL    HW2 1277  -0.056   2.018   0.339  0.3873  0.2585 -1.4376
  301SOL    HW3 1278   0.084   2.016   0.398 -0.4757  0.1627  0.6568
  301SOL    MW4 1279   0.012   1.974   0.373 -0.1605  0.2190 -0.3663
  302SOL     OW 1280   1.366   1.455   0.714  0.4625 -0.0155  0.7459
  302SOL    HW2 1281   1.388   1.483   0.625 -1.1978  2.0310  0.9315
  302SOL    HW3 1282   1.431   1.497   0.770 -0.4195  1.3346  0.7736
  302SOL    MW4 1283   1.378   1.464   0.710  0.1272  0.4328  0.7741
  303SOL     OW 1284   3.611   0.462   0.827  0.1081 -0.6512 -0.0747
  303SOL    HW2 1285   3.575   0.393   0.883 -0.5114 -0.9060 -0.7847
  303SOL    HW3 1286   3.685   0.421   0.783  0.2470 -0.6171  0.1249
  303SOL    MW4 1287   3.616   0.448   0.829  0.0448 -0.6803 -0.1420
  304SOL     OW 1288   3.227   2.127   0.750 -0.2604  0.1082  0.1875
  304SOL    HW2 1289   3.242   2.104   0.659  1.5116 -0.1903  0.5458
  304SOL    HW3 1290   3.148   2.181   0.748 -0.8824 -0.8369 -1.3752
  304SOL    MW4 1291   3.218   2.131   0.738 -0.1090 -0.0560  0.0286
  305SOL     OW 1292   4.026   0.443   0.934 -1.0290 -0.2701  0.2466
  305SOL    HW2 1293   4.025   0.419   1.026  2.2252  0.3682  0.4956
  305SOL    HW3 1294   3.964   0.382   0.893 -0.0015 -2.7987  2.3166
  305SOL    MW4 1295   4.017   0.432   0.940 -0.4635 -0.5195  0.5526
  306SOL     OW 1296   2.647   1.473   0.493  0.1986  0.5429  0.3516
  306SOL    HW2 1297   2.718   1.536   0.498 -0.0332  0.8703 -0.5228
  306SOL    HW3 1298   2.571   1.523   0.462 -0.5191  0.2840  1.6514
  306SOL    MW4 1299   2.646   1.488   0.490  0.0732  0.5519  0.4077
  307SOL     OW 1300   2.867   1.652   0.514  0.9758 -0.3661  0.3059
  307SOL    HW2 1301   2.920   1.687   0.586  1.4240  0.6969 -0.5365
  307SOL    HW3 1302   2.926   1.590   0.470  1.5111  0.7569 -0.5823
  307SOL    MW4 1303   2.882   1.648   0.518  1.1055 -0.0776  0.0776
  308SOL     OW 1304   1.168   4.136   0.518  0.1190  0.2569  0.2725
  308SOL    HW2 1305   1.122   4.058   0.486  0.8368 -0.7081  1.5165
  308SOL    HW3 1306   1.258   4.124   0.488  0.5362 -0.0882  1.6232
  308SOL    MW4 1307   1.174   4.124   0.510  0.2688  0.0839  0.6148
  309SOL     OW 1308   1.186   2.650   0.477  0.0362  0.1476 -0.0320
  309SOL    HW2 1309   1.093   2.628   0.477  0.1322 -0.3916 -2.5439
  309SOL    HW3 1310   1.230   2.567   0.454  1.1650  0.3419  1.3277
  309SOL    MW4 1311   1.180   2.636   0.474  0.1978  0.1023 -0.1840
  310SOL     OW 1312   0.871   3.020   0.842  0.6457 -0.1815 -0.2295
  310SOL    HW2 1313   0.881   2.927   0.864 -0.1445 -0.0518  0.7528
  310SOL    HW3 1314   0.948   3.062   0.881  0.8230 -0.3809 -0.3673
  310SOL    MW4 1315   0.882   3.014   0.850  0.5648 -0.1910 -0.1180
  311SOL     OW 1316   2.918   3.891   0.879 -0.4308  0.2872 -0.0351
  311SOL    HW2 1317   2.915   3.872   0.973 -0.2180  0.6079  0.0378
  311SOL    HW3 1318   2.991   3.839   0.846 -0.4618  0.2285 -0.0132
  311SOL    MW4 1319   2.927   3.881   0.887 -0.4067  0.3219 -0.0226
  312SOL     OW 1320   0.014   0.637   0.843 -0.1170  0.1539 -0.1857
  312SOL    HW2 1321  -0.046   0.708   0.863  0.4408  0.3591  0.7688
  312SOL    HW3 1322   0.035   0.649   0.750 -1.1273  0.3826 -0.3944
  312SOL    MW4 1323   0.009   0.648   0.833 -0.1767  0.2111 -0.0873
  313SOL     OW 1324   2.702   1.927   0.870 -0.1530  0.7140  0.0836
  313SOL    HW2 1325   2.777   1.873   0.846 -0.7816  0.0834 -0.4988
  313SOL    HW3 1326   2.688   1.909   0.963  0.6998  1.1888  0.3051
  313SOL    MW4 1327   2.710   1.918   0.879 -0.1233  0.6934  0.0359
  314SOL     OW 1328   3.516   3.446   0.402  0.4867 -0.2114  0.2430
  314SOL    HW2 1329   3.489   3.481   0.318 -1.0286 -0.3463  0.6556
  314SOL    HW3 1330   3.436   3.448   0.456  1.2527 -0.8211  1.4323
  314SOL    MW4 1331   3.502   3.451   0.398  0.3881 -0.3095  0.4543
  315SOL     OW 1332   4.241   2.826   1.266 -0.0158 -0.1633 -0.3473
  315SOL    HW2 1333   4.163   2.798   1.218 -1.2331  0.5864  1.1523
  315SOL    HW3 1334   4.237   2.922   1.265  0.9831 -0.1153 -0.4182
  315SOL    MW4 1335   4.230   2.835   1.259 -0.0439 -0.0582 -0.1588
  316SOL     OW 1336   1.755   3.686   0.436  0.2599 -0.1423 -0.2193
  316SOL    HW2 1337   1.791   3.774   0.437  0.2187 -0.1261  0.0327
  316SOL    HW3 1338   1.805   3.640   0.369  1.0660 -0.2547  0.4576
  316SOL    MW4 1339   1.766   3.692   0.427  0.3607 -0.1550 -0.0968
  317SOL     OW 1340   3.776   3.831   0.844  0.1706 -0.0229  0.3720
  317SOL    HW2 1341   3.700   3.799   0.795  0.2665  1.1474 -0.5505
  317SOL    HW3 1342   3.840   3.760   0.837 -0.6852 -0.8619  0.8464
  317SOL    MW4 1343   3.774   3.817   0.837  0.0706  0.0210  0.3129
  318SOL     OW 1344   4.376   2.709   0.651  0.6086  0.1728  0.1319
  318SOL    HW2 1345   4.444   2.734   0.714 -1.0051  0.7405  1.6707
  318SOL    HW3 1346   4.317   2.653   0.701 -0.2412 -0.0628 -1.1145
  318SOL    MW4 1347   4.377   2.705   0.666  0.2842  0.2162  0.1705
  319SOL     OW 1348   2.504   3.392   0.777 -0.0317  0.2006  0.3132
  319SOL    HW2 1349   2.585   3.431   0.811  0.5180 -0.7965  0.1659
  319SOL    HW3 1350   2.496   3.429   0.689 -0.2396  1.0250  0.6735
  319SOL    MW4 1351   2.514   3.402   0.770  0.0134  0.1779  0.3412
  320SOL     OW 1352   1.083   0.050   1.113  0.2007 -0.5264  0.2648
  320SOL    HW2 1353   1.094   0.064   1.019  1.7334 -0.8130  0.3913
  320SOL    HW3 1354   1.090  -0.045   1.125 -0.2777 -0.5189  0.6368
  320SOL    MW4 1355   1.085   0.039   1.103  0.3399 -0.5632  0.3306
  321SOL     OW 1356   3.346   3.321   0.779 -0.0295  0.0099 -0.4556
  321SOL    HW2 1357   3.423   3.363   0.817 -0.6550  0.7097  0.0566
  321SOL    HW3 1358   3.330   3.244   0.834  0.6540 -0.4807 -0.9288
  321SOL    MW4 1359   3.354   3.316   0.791 -0.0219  0.0372 -0.4505
  322SOL     OW 1360   3.818   0.265   0.763 -0.4872  0.4536  0.6000
  322SOL    HW2 1361   3.780   0.194   0.816  0.4440  1.8695  3.2686
  322SOL    HW3 1362   3.843   0.222   0.681 -0.9354 -2.0925  1.7210
  322SOL    MW4 1363   3.817   0.250   0.759 -0.4237  0.3045  1.1000
  323SOL     OW 1364   0.809   0.959   0.509 -0.4535  0.2876 -0.2080
  323SOL    HW2 1365   0.776   1.036   0.462 -0.3799  0.8823  0.7033
  323SOL    HW3 1366   0.904   0.966   0.503 -0.4344  0.6849  0.5382
  323SOL    MW4 1367   0.817   0.970   0.502 -0.4413  0.4185  0.0107
  324SOL     OW 1368   2.244   2.256   0.765 -0.4554  0.0981 -0.1880
  324SOL    HW2 1369   2.317   2.296   0.811 -1.1784  0.6252  0.5150
  324SOL    HW3 1370   2.166   2.287   0.812 -1.0224 -2.2137  0.4365
  324SOL    MW4 1371   2.243   2.266   0.777 -0.6258 -0.1373 -0.0128
  325SOL     OW 1372   3.141   1.869   0.863 -0.3314  0.7031 -0.2837
  325SOL    HW2 1373   3.174   1.953   0.831  1.2206  0.2064 -0.0181
  325SOL    HW3 1374   3.141   1.879   0.958 -1.7524  0.9831 -0.2965
  325SOL    MW4 1375   3.145   1.881   0.871 -0.3142  0.6745 -0.2503
  326SOL     OW 1376   3.517   4.089   0.479 -0.0392 -0.4176 -0.3739
  326SOL    HW2 1377   3.577   4.030   0.432  0.3509  0.5024 -1.0433
  326SOL    HW3 1378   3.568   4.119   0.554 -0.0570 -0.5297 -0.3171
  326SOL    MW4 1379   3.532   4.085   0.483  0.0100 -0.3109 -0.4547
  327SOL     OW 1380   4.215   2.284   0.903 -0.1726 -0.2537 -0.0339
  327SOL    HW2 1381   4.303   2.256   0.879 -0.7186 -1.7297 -0.4162
  327SOL    HW3 1382   4.161   2.205   0.892 -1.6852  0.8242 -0.6270
  327SOL    MW4 1383   4.219   2.270   0.898 -0.4444 -0.3064 -0.1625
  328SOL     OW 1384   2.242   4.250   0.814  0.1568 -0.6137  0.1073
  328SOL    HW2 1385   2.287   4.203   0.743  0.8131  1.5897 -0.9761
  328SOL    HW3 1386   2.153   4.263   0.782 -0.0853 -1.2794  0.4959
  328SOL    MW4 1387   2.236   4.245   0.800  0.2115 -0.4115  0.0156
  329SOL     OW 1388   3.753   0.568   1.254 -0.1178 -0.1318 -0.0836
  329SOL    HW2 1389   3.721   0.640   1.200 -0.3521 -0.9959 -1.1116
  329SOL    HW3 1390   3.842   0.552   1.222  0.0808 -0.0391  0.4140
  329SOL    MW4 1391   3.761   0.575   1.242 -0.1228 -0.2335 -0.1535
  330SOL     OW 1392   0.386   3.337   0.350 -0.5523 -0.4869  0.3807
  330SOL    HW2 1393   0.463   3.287   0.325 -0.7980 -0.4473 -0.4792
  330SOL    HW3 1394   0.407   3.427   0.325 -0.8979 -0.4875  0.0773
  330SOL    MW4 1395   0.399   3.342   0.343 -0.6303 -0.4818  0.2272
  331SOL     OW 1396   2.800   3.555   0.538  0.3950  0.1382 -0.4438
  331SOL    HW2 1397   2.766   3.644   0.529 -0.7813 -0.2190  0.3916
  331SOL    HW3 1398   2.893   3.567   0.553  0.1544  1.2524  0.2473
  331SOL    MW4 1399   2.808   3.568   0.539  0.2079  0.2377 -0.2424
  332SOL     OW 1400   3.375   1.524   1.204 -0.3233  0.0110  0.1597
  332SOL    HW2 1401   3.384   1.430   1.224 -1.2027 -0.1263 -0.0585
  332SOL    HW3 1402   3.290   1.548   1.242 -0.8384  0.3448 -1.1905
  332SOL    MW4 1403   3.365   1.515   1.212 -0.5071  0.0368 -0.0472
  333SOL     OW 1404   0.905   0.449   0.871  0.1557  0.2811 -0.4577
  333SOL    HW2 1405   0.992   0.488   0.877  0.5268 -0.5903 -0.0975
  333SOL    HW3 1406   0.881   0.430   0.962  0.8818 -2.2754 -0.7670
  333SOL    MW4 1407   0.913   0.452   0.884  0.3005 -0.1712 -0.4509
  334SOL     OW 1408   1.265   0.293   0.601 -0.1503 -0.1732  0.3581
  334SOL    HW2 1409   1.305   0.305   0.688  0.5959 -2.6470  0.3958
  334SOL    HW3 1410   1.172   0.286   0.619 -0.1000  0.3653  0.8489
  334SOL    MW4 1411   1.258   0.294   0.615 -0.0451 -0.4285  0.4278
  335SOL     OW 1412   2.903   2.125   0.931 -0.1884  0.3831  0.0901
  335SOL    HW2 1413   2.914   2.170   1.014 -0.9481  0.9496 -0.1057
  335SOL    HW3 1414   2.810   2.100   0.929 -0.0775 -0.0141 -0.3873
  335SOL    MW4 1415   2.892   2.128   0.942 -0.2739  0.4053  0.0012
  336SOL     OW 1416   0.444   2.730   1.196 -0.0559  0.3643  0.1685
  336SOL    HW2 1417   0.443   2.741   1.101 -1.8096 -0.2985  0.0903
  336SOL    HW3 1418   0.367   2.779   1.226  1.1192  1.5088  1.3696
  336SOL    MW4 1419   0.433   2.738   1.187 -0.1322  0.4280  0.3166
  337SOL     OW 1420   0.193   3.563   0.572  0.5094  0.1339 -0.5434
  337SOL    HW2 1421   0.267   3.578   0.515  1.0048 -0.9102 -0.1920
  337SOL    HW3 1422   0.118   3.554   0.513  0.8551  0.0627 -0.9706
  337SOL    MW4 1423   0.193   3.564   0.557  0.6204 -0.0131 -0.5534
  338SOL     OW 1424   4.267   3.870   0.592  0.1172  0.0746  0.4448
  338SOL    HW2 1425   4.291   3.834   0.506  0.5898  0.2134  0.5156
  338SOL    HW3 1426   4.320   3.821   0.654 -0.4655 -0.2471  0.6920
  338SOL    MW4 1427   4.277   3.859   0.589  0.1030  0.0508  0.4867
  339SOL     OW 1428   1.468   2.192   0.528 -0.1558 -0.0450 -0.2218
  339SOL    HW2 1429   1.451   2.181   0.622 -1.8720  0.0732 -0.5078
  339SOL    HW3 1430   1.412   2.265   0.502  1.7796  1.2232 -0.9460
  339SOL    MW4 1431   1.458   2.201   0.537 -0.1270  0.1378 -0.3550
  340SOL     OW 1432   0.071   1.141   0.658  0.2846 -0.0179 -0.2682
  340SOL    HW2 1433   0.058   1.117   0.750 -1.0550 -0.1584 -0.4796
  340SOL    HW3 1434   0.157   1.182   0.656  0.3726 -0.1055  1.0359
  340SOL    MW4 1435   0.081   1.143   0.670  0.1194 -0.0479 -0.1240
  341SOL     OW 1436   1.435   1.176   0.723  0.1902  0.1756  0.1555
  341SOL    HW2 1437   1.416   1.269   0.722  0.2037  0.1858 -1.5211
  341SOL    HW3 1438   1.387   1.142   0.798 -0.3012  1.4334  0.4227
  341SOL    MW4 1439   1.426   1.183   0.733  0.1271  0.3428 -0.0305
  342SOL     OW 1440   1.591   0.448   0.451 -0.0955 -0.0557  0.2459
  342SOL    HW2 1441   1.514   0.502   0.431  0.5469  0.2463 -1.4315
  342SOL    HW3 1442   1.559   0.358   0.446 -0.1777  0.0503 -1.1193
  342SOL    MW4 1443   1.577   0.443   0.448 -0.0216 -0.0019 -0.1556
  343SOL     OW 1444   2.761   0.309   0.845 -0.4392  0.0299 -0.0117
  343SOL    HW2 1445   2.760   0.325   0.939 -1.2267  0.7308 -0.1284
  343SOL    HW3 1446   2.682   0.354   0.812  0.6074  1.0543 -1.2012
  343SOL    MW4 1447   2.750   0.317   0.853 -0.4051  0.2576 -0.1841
  344SOL     OW 1448   3.594   3.452   1.138  0.0839  0.1550  0.4781
  344SOL    HW2 1449   3.662   3.512   1.169  0.1962 -0.6000  1.7383
  344SOL    HW3 1450   3.512   3.488   1.173  0.2428 -0.8569  1.9700
  344SOL    MW4 1451   3.592   3.464   1.147  0.1194 -0.0782  0.8413
  345SOL     OW 1452   3.980   4.534   0.826 -0.5741  0.4131  0.4151
  345SOL    HW2 1453   3.983   4.543   0.731  3.1208 -1.4300  0.2823
  345SOL    HW3 1454   3.995   4.441   0.843 -0.3627  0.8448  2.8331
  345SOL    MW4 1455   3.982   4.523   0.816 -0.0589  0.2270  0.7166
  346SOL     OW 1456   0.870   3.507   0.852 -0.3694 -0.7266  0.7854
  346SOL    HW2 1457   0.851   3.600   0.844 -1.0603 -0.7410  2.0808
  346SOL    HW3 1458   0.796   3.463   0.811 -0.5193 -0.7170  1.0458
  346SOL    MW4 1459   0.858   3.513   0.846 -0.4804 -0.7274  0.9907
  347SOL     OW 1460   0.308   1.751   0.471  0.0728 -0.3003 -0.0480
  347SOL    HW2 1461   0.351   1.668   0.490 -0.5800 -1.3521 -2.9140
  347SOL    HW3 1462   0.224   1.726   0.431 -0.4808  1.7424 -0.2300
  347SOL    MW4 1463   0.302   1.737   0.468 -0.0864 -0.1696 -0.4501
  348SOL     OW 1464   0.734   0.222   0.548 -0.1600 -0.1700  0.1853
  348SOL    HW2 1465   0.678   0.221   0.625  0.2059 -0.9282  0.4500
  348SOL    HW3 1466   0.823   0.222   0.584  0.0105  0.9913 -0.2291
  348SOL    MW4 1467   0.738   0.222   0.563 -0.0892 -0.1168  0.1656
  349SOL     OW 1468   1.985   4.318   0.742 -0.0586 -0.1566  0.6234
  349SOL    HW2 1469   1.971   4.353   0.655  2.3025  1.9771  1.0145
  349SOL    HW3 1470   1.933   4.374   0.800 -0.6367 -0.7704  0.6908
  349SOL    MW4 1471   1.977   4.330   0.738  0.1767  0.0439  0.6839
  350SOL     OW 1472   0.149   4.167   0.225 -0.5247 -0.3896  0.5420
  350SOL    HW2 1473   0.215   4.098   0.218 -1.4199 -1.6973  4.1134
  350SOL    HW3 1474   0.197   4.245   0.252 -0.0294 -0.5534  0.1412
  350SOL    MW4 1475   0.164   4.168   0.227 -0.5775 -0.5841  0.9604
  351SOL     OW 1476   1.309   2.378   0.423  1.1659 -0.6454 -0.1298
  351SOL    HW2 1477   1.245   2.315   0.391  1.2129 -0.6376 -0.2407
  351SOL    HW3 1478   1.365   2.395   0.347  0.1879  0.7402 -0.5619
  351SOL    MW4 1479   1.308   2.372   0.409  1.0431 -0.4616 -0.2014
  352SOL     OW 1480   2.224   2.751   0.874  0.3184 -0.4332  0.1933
  352SOL    HW2 1481   2.136   2.722   0.850 -1.0306  3.7191 -0.2455
  352SOL    HW3 1482   2.231   2.733   0.967 -1.4335  0.2830  0.4718
  352SOL    MW4 1483   2.213   2.744   0.883 -0.0908  0.2091  0.1722
  353SOL     OW 1484   2.675   1.460   0.766 -0.0703  0.3180 -0.3777
  353SOL    HW2 1485   2.765   1.491   0.757  0.8180 -2.7342 -2.6521
  353SOL    HW3 1486   2.641   1.458   0.677 -1.1041 -2.1583  0.0275
  353SOL    MW4 1487   2.683   1.464   0.753 -0.0894 -0.4114 -0.6243
  354SOL     OW 1488   1.999   0.005   0.867 -0.2439 -0.0951  0.3393
  354SOL    HW2 1489   1.968   0.070   0.804  0.9065  0.5836  0.4577
  354SOL    HW3 1490   2.082  -0.025   0.831 -0.3307 -0.8430  0.7552
  354SOL    MW4 1491   2.006   0.009   0.854 -0.1035 -0.1040  0.4098
  355SOL     OW 1492   0.732   1.729   0.514 -0.1411  0.2651  0.2065
  355SOL    HW2 1493   0.687   1.799   0.468  1.2355  0.7927 -0.3723
  355SOL    HW3 1494   0.822   1.760   0.522  0.1365 -0.7942  1.2725
  355SOL    MW4 1495   0.738   1.742   0.509  0.0772  0.1950  0.2708
  356SOL     OW 1496   3.990   3.059   0.531 -0.0622  0.2035 -0.1562
  356SOL    HW2 1497   3.939   2.982   0.505  0.0915  0.1821 -0.3963
  356SOL    HW3 1498   4.016   3.041   0.621 -0.3906  0.1679 -0.0657
  356SOL    MW4 1499   3.986   3.047   0.540 -0.0854  0.1960 -0.1761
  357SOL     OW 1500   0.442   2.493   0.439  0.1875  0.0411  0.0018
  357SOL    HW2 1501   0.472   2.452   0.359  0.4612  0.9235 -0.3539
  357SOL    HW3 1502   0.346   2.498   0.429  0.0640 -1.3015  0.4355
  357SOL    MW4 1503   0.433   2.488   0.427  0.2073 -0.0198  0.0121
  358SOL     OW 1504   2.285   0.332   0.841  0.0457 -0.1737 -0.2617
  358SOL    HW2 1505   2.321   0.244   0.830  1.1752 -0.0074  1.9055
  358SOL    HW3 1506   2.360   0.390   0.837 -0.2064  0.3711  1.8544
  358SOL    MW4 1507   2.299   0.328   0.839  0.1612 -0.0799  0.3034
  359SOL     OW 1508   0.571   2.369   0.220 -0.3808  0.1244 -0.5170
  359SOL    HW2 1509   0.572   2.424   0.142  0.8549 -0.2814 -0.8006
  359SOL    HW3 1510   0.649   2.313   0.211 -1.0769 -0.9896  0.2409
  359SOL    MW4 1511   0.582   2.369   0.208 -0.3095 -0.0761 -0.4544
  360SOL     OW 1512   1.246   3.711   0.455  0.3154  0.1277 -0.1398
  360SOL    HW2 1513   1.280   3.712   0.544  0.3061  1.8916 -0.1322
  360SOL    HW3 1514   1.309   3.764   0.405  0.7920 -1.5589 -1.3660
  360SOL    MW4 1515   1.259   3.718   0.460  0.3771  0.1378 -0.3006
  361SOL     OW 1516   4.001   4.193   0.372 -0.1833  0.6210  0.4283
  361SOL    HW2 1517   4.022   4.176   0.281  0.1360  2.0967  0.2037
  361SOL    HW3 1518   4.005   4.108   0.415  2.4204  0.2967 -0.3902
  361SOL    MW4 1519   4.005   4.180   0.366  0.2022  0.7730  0.2906
  362SOL     OW 1520   0.389   4.201   0.566 -0.2972  0.2408 -0.2144
  362SOL    HW2 1521   0.346   4.265   0.509  1.3107  0.6211 -1.0334
  362SOL    HW3 1522   0.376   4.235   0.655 -2.0129  0.1286 -0.3978
  362SOL    MW4 1523   0.381   4.214   0.570 -0.3115  0.2761 -0.3467
  363SOL     OW 1524   2.430   0.548   0.537  0.0944 -0.0225  0.1028
  363SOL    HW2 1525   2.478   0.623   0.502  0.0377 -0.2956 -0.5775
  363SOL    HW3 1526   2.454   0.476   0.479 -1.5548 -0.0470 -0.5969
  363SOL    MW4 1527   2.440   0.549   0.525 -0.1307 -0.0618 -0.0793
  364SOL     OW 1528   2.838   4.153   0.518  0.7896  0.4407 -0.1268
  364SOL    HW2 1529   2.845   4.059   0.529 -0.3965  0.3828  0.2275
  364SOL    HW3 1530   2.927   4.186   0.529  1.2758 -0.6751 -0.6847
  364SOL    MW4 1531   2.850   4.145   0.521  0.6974  0.2856 -0.1537
  365SOL     OW 1532   1.142   3.123   0.910  0.1452 -0.2845  0.0718
  365SOL    HW2 1533   1.208   3.076   0.860 -0.9740 -0.4852 -1.2607
  365SOL    HW3 1534   1.135   3.208   0.866 -0.6340 -0.3471  0.0689
  365SOL    MW4 1535   1.150   3.128   0.897 -0.1053 -0.3192 -0.1044
  366SOL     OW 1536   3.966   0.689   0.826  0.4967 -0.0764  0.0266
  366SOL    HW2 1537   3.973   0.656   0.737 -1.4585  0.0806 -0.2095
  366SOL    HW3 1538   4.004   0.619   0.881  0.3392 -0.8196 -0.8021
  366SOL    MW4 1539   3.972   0.675   0.822  0.2182 -0.1538 -0.1140
  367SOL     OW 1540   4.395   1.853   0.656 -0.1463  0.8119  0.3900
  367SOL    HW2 1541   4.441   1.908   0.719  2.2623 -1.4843  0.6970
  367SOL    HW3 1542   4.429   1.881   0.571 -1.0113  1.6781  0.3110
  367SOL    MW4 1543   4.405   1.864   0.653  0.0577  0.6233  0.4200
  368SOL     OW 1544   4.244   3.887   1.193  0.3690 -0.3207 -0.1037
  368SOL    HW2 1545   4.225   3.860   1.103  0.4875  0.4470 -0.3608
  368SOL    HW3 1546   4.163   3.928   1.223  0.5917  0.1465 -0.1364
  368SOL    MW4 1547   4.231   3.889   1.185  0.4139 -0.1576 -0.1417
  369SOL     OW 1548   4.401   4.164   0.436  0.4944 -0.0684  0.1744
  369SOL    HW2 1549   4.450   4.236   0.395  0.9553 -0.1167  0.6388
  369SOL    HW3 1550   4.370   4.112   0.362  0.6794  0.2683 -0.1457
  369SOL    MW4 1551   4.404   4.167   0.421  0.5798 -0.0305  0.1934
  370SOL     OW 1552   3.273   3.384   0.526  0.2110 -0.4155  0.3916
  370SOL    HW2 1553   3.209   3.319   0.498  0.8522 -1.0251  0.3503
  370SOL    HW3 1554   3.293   3.360   0.617  0.7695 -0.5334  0.2375
  370SOL    MW4 1555   3.267   3.373   0.534  0.3693 -0.5119  0.3658
  371SOL     OW 1556   0.641   3.158   0.908  0.1655 -0.0520 -0.0637
  371SOL    HW2 1557   0.721   3.110   0.892  0.5490  0.8100 -0.7807
  371SOL    HW3 1558   0.571   3.096   0.889  0.6447 -1.0884  1.4300
  371SOL    MW4 1559   0.642   3.144   0.904  0.2793 -0.0749  0.0388
  372SOL     OW 1560   3.747   1.622   0.633 -0.6631  0.1160 -0.3445
  372SOL    HW2 1561   3.717   1.569   0.560  0.2441  0.7798 -1.2069
  372SOL    HW3 1562   3.687   1.697   0.634 -1.0347 -0.1811 -0.0377
  372SOL    MW4 1563   3.735   1.625   0.624 -0.5925  0.1643 -0.4178
  373SOL     OW 1564   3.558   0.358   1.237 -0.7732 -0.2087 -0.2211
  373SOL    HW2 1565   3.629   0.419   1.218 -1.3969  1.0451  1.3270
  373SOL    HW3 1566   3.516   0.343   1.153  1.3291 -1.0013 -1.1671
  373SOL    MW4 1567   3.562   0.364   1.223 -0.5782 -0.1479 -0.1416
  374SOL     OW 1568   3.134   2.584   0.876 -0.8132  0.6820  0.0299
  374SOL    HW2 1569   3.118   2.606   0.967 -0.1497  0.7874  0.1205
  374SOL    HW3 1570   3.096   2.657   0.827 -1.0843  0.6706  0.2195
  374SOL    MW4 1571   3.127   2.596   0.881 -0.7615  0.6943  0.0669
  375SOL     OW 1572   4.190   0.958   0.507  0.2082  0.0745  0.0286
  375SOL    HW2 1573   4.221   0.867   0.505  0.1487  0.0744 -1.0950
  375SOL    HW3 1574   4.097   0.952   0.487 -0.0415  0.2863  1.1037
  375SOL    MW4 1575   4.182   0.945   0.504  0.1669  0.1024  0.0223
  376SOL     OW 1576   0.401   0.848   0.683 -0.1835  0.0801 -0.1118
  376SOL    HW2 1577   0.477   0.904   0.695  0.3420 -0.7918  0.7317
  376SOL    HW3 1578   0.349   0.859   0.763  0.8072 -1.9476  0.8474
  376SOL    MW4 1579   0.404   0.857   0.696  0.0165 -0.3025  0.1261
  377SOL     OW 1580   1.520   3.391   0.750  0.9678  0.4527 -0.3189
  377SOL    HW2 1581   1.539   3.304   0.787 -0.5238  0.6849  1.0502
  377SOL    HW3 1582   1.455   3.375   0.682  0.3096  0.5373  0.2806
  377SOL    MW4 1583   1.514   3.377   0.746  0.6841  0.4942 -0.0592
  378SOL     OW 1584   3.379   0.247   0.507  0.3870  0.3623  0.1010
  378SOL    HW2 1585   3.316   0.250   0.436  0.4924 -1.3149 -0.0840
  378SOL    HW3 1586   3.341   0.186   0.571  0.6986  1.1759  1.0820
  378SOL    MW4 1587   3.366   0.239   0.506  0.4420  0.2484  0.2060
  379SOL     OW 1588   3.070   4.523   0.639 -0.0253 -0.1567  0.4064
  379SOL    HW2 1589   3.069   4.427   0.639  0.1894 -0.1583  0.5490
  379SOL    HW3 1590   3.027   4.547   0.722  0.2940 -0.1311  0.5622
  379SOL    MW4 1591   3.064   4.514   0.650  0.0453 -0.1535  0.4458
  380SOL     OW 1592   1.999   3.069   0.669 -0.2867 -0.1478 -0.2044
  380SOL    HW2 1593   2.039   3.011   0.605 -1.1095 -0.4950 -0.4070
  380SOL    HW3 1594   2.054   3.060   0.747 -0.7989 -1.7113 -0.0115
  380SOL    MW4 1595   2.012   3.060   0.671 -0.4628 -0.3998 -0.2057
  381SOL     OW 1596   3.908   4.057   0.739 -1.0177 -0.1169  0.4991
  381SOL    HW2 1597   3.956   4.021   0.665  1.1857  2.0864  0.7853
  381SOL    HW3 1598   3.867   3.981   0.781 -0.9942 -1.5693 -2.0100
  381SOL    MW4 1599   3.909   4.042   0.735 -0.7238 -0.0176  0.2059
  382SOL     OW 1600   3.644   3.227   0.490 -0.3041 -0.1460 -0.0062
  382SOL    HW2 1601   3.718   3.235   0.429 -0.4022  0.9746 -0.0021
  382SOL    HW3 1602   3.578   3.287   0.455 -0.0818  1.0486  1.5734
  382SOL    MW4 1603   3.645   3.236   0.477 -0.2878  0.1593  0.2028
  383SOL     OW 1604   2.179   3.429   0.417  0.1428 -0.1035 -0.2052
  383SOL    HW2 1605   2.207   3.517   0.444  2.0197 -1.1200  1.2148
  383SOL    HW3 1606   2.121   3.399   0.487 -1.0674  0.2526 -1.0303
  383SOL    MW4 1607   2.175   3.437   0.430  0.2306 -0.1907 -0.1267
  384SOL     OW 1608   2.924   3.028   0.891 -0.1117 -0.1929  0.0461
  384SOL    HW2 1609   2.918   3.062   0.980 -1.0423 -0.9809  0.2939
  384SOL    HW3 1610   2.833   3.020   0.863  0.1723 -0.2675 -0.8572
  384SOL    MW4 1611   2.911   3.032   0.899 -0.1972 -0.3066 -0.0404
  385SOL     OW 1612   2.395   2.338   0.385 -0.0064  0.4345  0.1394
  385SOL    HW2 1613   2.418   2.289   0.306  3.8996  0.0983  1.3701
  385SOL    HW3 1614   2.420   2.280   0.457 -1.9292  1.4252  1.6480
  385SOL    MW4 1615   2.401   2.324   0.384  0.2556  0.5209  0.5008
  386SOL     OW 1616   2.149   2.314   0.494  0.2185 -0.2021  0.2142
  386SOL    HW2 1617   2.162   2.287   0.585  0.9733 -1.9104 -0.3781
  386SOL    HW3 1618   2.237   2.331   0.461  0.0133 -0.3671 -0.4248
  386SOL    MW4 1619   2.162   2.312   0.501  0.2911 -0.4492  0.0517
  387SOL     OW 1620   0.391   2.982   0.541 -0.3173 -0.0716 -0.1204
  387SOL    HW2 1621   0.476   2.978   0.498 -0.4714  2.0957 -0.6965
  387SOL    HW3 1622   0.371   3.075   0.546 -1.5453 -0.4271  2.2563
  387SOL    MW4 1623   0.399   2.994   0.536 -0.4997  0.1678  0.1172
  388SOL     OW 1624   4.104   1.934   0.674  0.1990  0.6225 -0.0185
  388SOL    HW2 1625   4.195   1.913   0.694  0.6552  0.4569 -2.1569
  388SOL    HW3 1626   4.059   1.849   0.676  0.2464  0.6041  0.2634
  388SOL    MW4 1627   4.110   1.920   0.677  0.2656  0.5983 -0.2635
  389SOL     OW 1628   4.247   3.419   0.885  0.0987  0.3952 -0.2724
  389SOL    HW2 1629   4.164   3.462   0.905  0.4573  0.7035  0.5677
  389SOL    HW3 1630   4.231   3.326   0.904 -0.0528  0.4524 -0.1258
  389SOL    MW4 1631   4.234   3.412   0.890  0.1259  0.4435 -0.1422
  390SOL     OW 1632   2.308   0.107   0.495  0.3584  0.3131  0.3382
  390SOL    HW2 1633   2.240   0.164   0.530 -0.4290 -0.5550  0.2202
  390SOL    HW3 1634   2.269   0.020   0.493  0.9347  0.0781 -1.2121
  390SOL    MW4 1635   2.294   0.103   0.499  0.3304  0.1675  0.1180
  391SOL     OW 1636   1.634   0.253   0.715  0.0986  0.4080 -0.3086
  391SOL    HW2 1637   1.634   0.179   0.775 -0.9120  1.2524  0.7716
  391SOL    HW3 1638   1.596   0.219   0.634  0.4149 -0.4492 -0.1022
  391SOL    MW4 1639   1.629   0.239   0.712  0.0070  0.4063 -0.1388
  392SOL     OW 1640   3.500   4.598   0.868 -0.1321  0.3347 -0.0306
  392SOL    HW2 1641   3.517   4.504   0.858  1.3217  0.3349  1.9660
  392SOL    HW3 1642   3.453   4.605   0.951  0.5998  1.4240  0.3091
  392SOL    MW4 1643   3.496   4.587   0.878  0.1564  0.4783  0.2776
  393SOL     OW 1644   1.034   1.741   0.877 -0.2186  0.7021 -0.3127
  393SOL    HW2 1645   0.987   1.806   0.929  0.5573 -0.4093  1.8384
  393SOL    HW3 1646   1.121   1.780   0.863 -0.0691  0.5401  0.1602
  393SOL    MW4 1647   1.040   1.755   0.882 -0.0966  0.5339  0.0336
  394SOL     OW 1648   1.042   1.014   0.800  0.4002  0.2047  0.0848
  394SOL    HW2 1649   1.045   1.002   0.705  0.6902  1.8845 -0.1215
  394SOL    HW3 1650   1.001   1.099   0.813 -0.8821 -0.5878  1.5279
  394SOL    MW4 1651   1.037   1.023   0.789  0.2692  0.3217  0.2480
  395SOL     OW 1652   0.047   1.051   0.925 -0.1762 -0.1150 -0.0598
  395SOL    HW2 1653  -0.027   0.991   0.937  0.3712 -0.8511 -0.3227
  395SOL    HW3 1654   0.053   1.098   1.008  0.7329 -1.9515  0.9541
  395SOL    MW4 1655   0.038   1.049   0.937  0.0160 -0.4544  0.0392
  396SOL     OW 1656   1.406   0.962   0.533  0.1362  0.0264 -0.1194
  396SOL    HW2 1657   1.409   1.049   0.571  0.8665  0.6133 -1.4744
  396SOL    HW3 1658   1.492   0.950   0.492 -0.1930 -1.0527 -0.5340
  396SOL    MW4 1659   1.418   0.972   0.533  0.1891 -0.0386 -0.3529
  397SOL     OW 1660   3.987   3.490   0.603  0.1345  0.1502  0.1186
  397SOL    HW2 1661   4.070   3.444   0.596  0.2136  0.3039  0.0395
  397SOL    HW3 1662   3.992   3.536   0.687  0.0803  0.0608  0.1699
  397SOL    MW4 1663   3.999   3.490   0.613  0.1378  0.1588  0.1149
  398SOL     OW 1664   4.046   2.061   0.422 -0.4410  0.2383  0.0912
  398SOL    HW2 1665   4.085   2.005   0.489  0.7593  1.3512  0.3440
  398SOL    HW3 1666   4.049   2.149   0.459 -2.5270  0.4476 -0.2005
  398SOL    MW4 1667   4.052   2.065   0.435 -0.5579  0.4129  0.0860
  399SOL     OW 1668   3.733   1.213   0.805  0.3935  0.1269 -0.4552
  399SOL    HW2 1669   3.682   1.141   0.843  0.3986 -0.2393 -1.1457
  399SOL    HW3 1670   3.824   1.189   0.823  0.4336 -0.4618 -1.4351
  399SOL    MW4 1671   3.739   1.200   0.813  0.3996  0.0008 -0.6756
  400SOL     OW 1672   2.663   2.123   0.381  0.2636 -0.3699  0.1346
  400SOL    HW2 1673   2.696   2.040   0.416 -0.2062 -0.4670  0.3502
  400SOL    HW3 1674   2.738   2.182   0.386  0.2220 -0.3994  1.2728
  400SOL    MW4 1675   2.677   2.120   0.387  0.1962 -0.3865  0.3132
  401SOL     OW 1676   2.466   2.332   1.170  0.3964 -0.1110  0.2142
  401SOL    HW2 1677   2.408   2.373   1.234  1.1817  0.3175  0.6574
  401SOL    HW3 1678   2.480   2.244   1.203  0.4733 -0.0216  0.4211
  401SOL    MW4 1679   2.460   2.326   1.183  0.5100 -0.0427  0.3000
  402SOL     OW 1680   3.831   3.103   0.916 -0.2334  0.1538 -0.2079
  402SOL    HW2 1681   3.759   3.050   0.883 -0.6583 -0.0968  1.1099
  402SOL    HW3 1682   3.844   3.170   0.848 -1.7456  0.2443 -0.4311
  402SOL    MW4 1683   3.823   3.105   0.902 -0.4890  0.1326 -0.0635
  403SOL     OW 1684   2.035   1.939   0.495 -0.2112  0.1828 -0.2636
  403SOL    HW2 1685   1.970   1.870   0.506  0.9439 -0.9715 -0.5091
  403SOL    HW3 1686   1.984   2.018   0.476 -1.6113 -0.3707  1.0376
  403SOL    MW4 1687   2.020   1.941   0.494 -0.2432 -0.0426 -0.1243
  404SOL     OW 1688   1.150   2.670   0.769 -0.2086 -0.1863  0.1525
  404SOL    HW2 1689   1.233   2.683   0.813 -0.4186  2.7234 -0.1925
  404SOL    HW3 1690   1.173   2.658   0.677 -0.0980 -0.3983  0.2092
  404SOL    MW4 1691   1.164   2.670   0.762 -0.2215  0.1698  0.1145
  405SOL     OW 1692   0.861   3.769   0.811 -0.1677 -0.6035  0.1349
  405SOL    HW2 1693   0.934   3.821   0.845 -0.4986 -0.0845  0.0558
  405SOL    HW3 1694   0.784   3.824   0.827 -0.4726 -0.9132 -0.2842
  405SOL    MW4 1695   0.861   3.783   0.818 -0.2517 -0.5758  0.0692
  406SOL     OW 1696   2.268   3.504   0.927  0.0849  0.4301  0.6770
  406SOL    HW2 1697   2.218   3.423   0.919 -0.2418  0.5235  1.7048
  406SOL    HW3 1698   2.353   3.483   0.890 -0.6218  0.1960 -0.8752
  406SOL    MW4 1699   2.272   3.491   0.921 -0.0515  0.4113  0.6078
  407SOL     OW 1700   0.200   2.161   0.475  0.1287  0.1170 -0.2759
  407SOL    HW2 1701   0.128   2.222   0.491  1.0222  0.8456  0.9851
  407SOL    HW3 1702   0.244   2.152   0.559  1.6346 -0.1844 -1.0793
  407SOL    MW4 1703   0.196   2.168   0.488  0.4453  0.1733 -0.2155
  408SOL     OW 1704   0.679   1.170   0.397 -0.8495  0.3422  0.3988
  408SOL    HW2 1705   0.585   1.153   0.391 -0.7566  0.1973 -0.8054
  408SOL    HW3 1706   0.686   1.263   0.418 -1.2936 -0.1910  3.1104
  408SOL    MW4 1707   0.668   1.180   0.399 -0.8958  0.2528  0.5977
  409SOL     OW 1708   1.891   4.048   0.675  0.1394  0.0929 -0.1715
  409SOL    HW2 1709   1.916   3.995   0.751 -0.1164 -0.6110 -0.5757
  409SOL    HW3 1710   1.927   4.134   0.693 -0.9665  0.2699  1.3381
  409SOL    MW4 1711   1.899   4.052   0.687 -0.0403  0.0238 -0.0256
  410SOL     OW 1712   3.706   1.507   0.363  0.1587  0.4840  0.0229
  410SOL    HW2 1713   3.753   1.563   0.301 -0.3952 -1.3303 -2.0798
  410SOL    HW3 1714   3.774   1.450   0.400 -0.0265 -0.7919 -1.5450
  410SOL    MW4 1715   3.721   1.507   0.360  0.0613  0.0763 -0.4614
  411SOL     OW 1716   2.193   1.263   0.616  0.3971 -0.3316  0.7621
  411SOL    HW2 1717   2.283   1.232   0.620  0.7651  0.6812  0.4231
  411SOL    HW3 1718   2.198   1.356   0.638 -0.3487  0.1233 -0.9308
  411SOL    MW4 1719   2.206   1.271   0.619  0.3476 -0.1378  0.4940
  412SOL     OW 1720   1.590   3.133   0.836 -0.6254 -0.5966  0.0939
  412SOL    HW2 1721   1.593   3.163   0.927  0.6949 -0.6664  0.0895
  412SOL    HW3 1722   1.509   3.083   0.829 -0.2353 -1.4272  1.5003
  412SOL    MW4 1723   1.580   3.131   0.847 -0.3999 -0.7155  0.2788
  413SOL     OW 1724   3.706   3.946   0.347 -0.2294  0.6369 -0.3522
  413SOL    HW2 1725   3.701   3.854   0.373 -0.8059  0.7738  0.0232
  413SOL    HW3 1726   3.778   3.949   0.283 -0.3009 -0.0953 -0.4704
  413SOL    MW4 1727   3.715   3.934   0.342 -0.3147  0.5584 -0.3183
  414SOL     OW 1728   1.698   4.184   0.373 -0.1681  0.0726 -0.6056
  414SOL    HW2 1729   1.610   4.148   0.378 -0.2260  0.4668  2.0413
  414SOL    HW3 1730   1.755   4.108   0.359 -0.9032 -0.1501 -2.6167
  414SOL    MW4 1731   1.694   4.169   0.372 -0.2726  0.0958 -0.5217
  415SOL     OW 1732   4.105   0.349   0.497 -0.3434 -0.1764 -0.2952
  415SOL    HW2 1733   4.141   0.372   0.582 -1.8261 -0.5183  0.4436
  415SOL    HW3 1734   4.179   0.354   0.437  0.3834  1.6517  0.7242
  415SOL    MW4 1735   4.120   0.353   0.500 -0.4439  0.0197 -0.0632
  416SOL     OW 1736   2.023   0.811   0.853  0.7031 -0.3811 -0.1525
  416SOL    HW2 1737   2.003   0.903   0.837  0.3724 -0.6432 -1.2493
  416SOL    HW3 1738   1.940   0.765   0.841  1.1691 -1.0040 -1.0946
  416SOL    MW4 1739   2.010   0.817   0.849  0.7207 -0.4979 -0.4215
  417SOL     OW 1740   0.144   0.413   0.546 -0.7206 -0.2399  0.4181
  417SOL    HW2 1741   0.146   0.508   0.559  0.2248 -0.2536  0.3643
  417SOL    HW3 1742   0.208   0.397   0.477 -0.1013 -1.0381  1.1675
  417SOL    MW4 1743   0.153   0.423   0.538 -0.5141 -0.3470  0.5099
  418SOL     OW 1744   3.965   3.927   0.233 -0.0824  0.0157  0.0628
  418SOL    HW2 1745   4.017   3.992   0.185 -1.2286 -0.7687 -2.2793
  418SOL    HW3 1746   4.000   3.842   0.205 -1.5283 -0.4761 -0.2956
  418SOL    MW4 1747   3.976   3.924   0.223 -0.4244 -0.1526 -0.2934
  419SOL     OW 1748   1.914   2.184   0.435  0.4734  0.6831 -0.0505
  419SOL    HW2 1749   1.997   2.230   0.451  0.0007  0.9162  1.8127
  419SOL    HW3 1750   1.855   2.217   0.502 -0.9163 -0.0651 -0.8890
  419SOL    MW4 1751   1.917   2.195   0.446  0.2277  0.6151  0.0847
  420SOL     OW 1752   2.185   4.512   0.536  0.0040  0.2802  0.2823
  420SOL    HW2 1753   2.223   4.528   0.623 -0.0612  0.1735  0.3301
  420SOL    HW3 1754   2.224   4.430   0.508 -1.3388 -0.6141  0.9750
  420SOL    MW4 1755   2.195   4.504   0.544 -0.1817  0.1488  0.3799
  421SOL     OW 1756   3.357   0.541   1.272  0.0321 -0.0205 -0.3237
  421SOL    HW2 1757   3.294   0.493   1.218 -1.1317  1.8912 -0.6785
  421SOL    HW3 1758   3.431   0.480   1.281 -2.8298 -3.3477  2.2522
  421SOL    MW4 1759   3.358   0.527   1.266 -0.4992 -0.2072 -0.0306
  422SOL     OW 1760   4.081   1.138   1.115  0.0755  0.3785  0.0307
  422SOL    HW2 1761   4.074   1.048   1.145 -0.9713  0.5416  0.2763
  422SOL    HW3 1762   4.055   1.136   1.023  0.1942  0.4081 -0.0045
  422SOL    MW4 1763   4.077   1.126   1.107 -0.0472  0.4040  0.0585
  423SOL     OW 1764   3.010   1.389   0.451 -0.1308 -0.0403 -0.2089
  423SOL    HW2 1765   3.094   1.381   0.406  0.3429 -0.5083  0.7566
  423SOL    HW3 1766   3.033   1.412   0.541 -1.0465  0.0721 -0.0000
  423SOL    MW4 1767   3.024   1.391   0.457 -0.1893 -0.0873 -0.0540
  424SOL     OW 1768   2.429   3.274   0.485  0.1396 -0.2357 -0.1676
  424SOL    HW2 1769   2.394   3.187   0.503 -0.7873  0.3795  1.0744
  424SOL    HW3 1770   2.355   3.321   0.445  0.4427  0.1621 -0.2612
  424SOL    MW4 1771   2.414   3.269   0.482  0.0572 -0.1018 -0.0161
  425SOL     OW 1772   0.211   2.876   1.230 -0.0902 -0.1196  0.1960
  425SOL    HW2 1773   0.130   2.828   1.210  0.4773 -1.8736  1.8784
  425SOL    HW3 1774   0.222   2.865   1.325  1.9704  0.3444  0.0332
  425SOL    MW4 1775   0.201   2.868   1.240  0.2565 -0.2899  0.3965
  426SOL     OW 1776   1.456   0.707   0.679 -0.4943  0.0655 -0.0386
  426SOL    HW2 1777   1.404   0.647   0.625 -0.6044  0.2422 -0.1260
  426SOL    HW3 1778   1.460   0.788   0.629  0.7934 -0.2908 -0.5507
  426SOL    MW4 1779   1.450   0.710   0.665 -0.3390  0.0418 -0.1177
  427SOL     OW 1780   0.271   4.363   0.387 -0.1811 -0.0181 -0.1182
  427SOL    HW2 1781   0.343   4.426   0.392 -0.1828  0.0814 -1.1365
  427SOL    HW3 1782   0.199   4.405   0.434  0.6533 -0.4550  1.5837
  427SOL    MW4 1783   0.271   4.377   0.394 -0.0712 -0.0620 -0.0280
  428SOL     OW 1784   1.825   1.452   0.785  0.0817 -0.0869  0.1666
  428SOL    HW2 1785   1.885   1.514   0.827  1.0818 -0.3061 -0.9058
  428SOL    HW3 1786   1.839   1.369   0.831 -0.0347  0.0743  0.4926
  428SOL    MW4 1787   1.835   1.449   0.797  0.1982 -0.0947  0.0682
  429SOL     OW 1788   1.373   2.758   0.902 -0.0422 -0.4817 -0.4652
  429SOL    HW2 1789   1.394   2.746   0.995  0.2137 -0.4354 -0.5176
  429SOL    HW3 1790   1.440   2.708   0.856  0.0680 -0.1730 -0.6386
  429SOL    MW4 1791   1.384   2.750   0.909  0.0062 -0.4351 -0.4950
  430SOL     OW 1792   1.803   4.469   0.893 -0.4432  0.1055 -0.2795
  430SOL    HW2 1793   1.793   4.418   0.974 -0.7831  0.6440  0.0269
  430SOL    HW3 1794   1.880   4.523   0.908 -0.1213 -0.2722 -0.5774
  430SOL    MW4 1795   1.812   4.470   0.906 -0.4456  0.1268 -0.2784
  431SOL     OW 1796   4.111   3.679   0.182 -0.5182 -0.4881 -0.0302
  431SOL    HW2 1797   4.107   3.630   0.099 -2.2302 -0.9017  0.2689
  431SOL    HW3 1798   4.047   3.635   0.238 -0.8496  1.0602  0.8211
  431SOL    MW4 1799   4.102   3.667   0.178 -0.7877 -0.3383  0.1216
  432SOL     OW 1800   0.673   2.963   0.457  0.3241  0.1181 -0.1630
  432SOL    HW2 1801   0.757   2.999   0.484  0.0546  0.1433  0.6456
  432SOL    HW3 1802   0.678   2.870   0.480  0.1960  0.0824 -0.2770
  432SOL    MW4 1803   0.684   2.956   0.463  0.2716  0.1168 -0.0713
  433SOL     OW 1804   1.764   3.687   0.869 -0.3510  0.2675 -0.2733
  433SOL    HW2 1805   1.775   3.617   0.805  0.5367  1.6181 -1.6373
  433SOL    HW3 1806   1.759   3.642   0.954  1.7602 -1.3538 -0.9717
  433SOL    MW4 1807   1.765   3.672   0.872  0.0447  0.2320 -0.5454
  434SOL     OW 1808   1.850   1.207   0.906 -0.1242 -0.3801 -0.1373
  434SOL    HW2 1809   1.797   1.141   0.862  0.3909  0.1171 -1.5252
  434SOL    HW3 1810   1.825   1.200   0.998 -0.7833 -1.8332 -0.4123
  434SOL    MW4 1811   1.840   1.197   0.913 -0.1431 -0.5063 -0.3567
  435SOL     OW 1812   3.617   2.687   0.877 -0.3411  0.3703  0.4365
  435SOL    HW2 1813   3.538   2.640   0.849 -0.4728  1.9199 -1.9185
  435SOL    HW3 1814   3.688   2.649   0.825  0.1065  0.4607  0.9759
  435SOL    MW4 1815   3.616   2.676   0.866 -0.2992  0.5867  0.1970
  436SOL     OW 1816   3.615   2.972   0.819 -0.0178 -0.5835 -0.3432
  436SOL    HW2 1817   3.603   2.882   0.849 -2.4749 -0.2049 -0.0915
  436SOL    HW3 1818   3.606   2.967   0.724 -0.7122 -0.5285 -0.2826
  436SOL    MW4 1819   3.612   2.960   0.810 -0.4334 -0.5262 -0.3020
  437SOL     OW 1820   4.065   2.316   0.503  0.0070 -0.4945  0.6052
  437SOL    HW2 1821   4.093   2.337   0.414  0.3597 -1.2279  0.5351
  437SOL    HW3 1822   4.116   2.376   0.559  0.5279 -0.7190  0.3746
  437SOL    MW4 1823   4.075   2.327   0.499  0.1225 -0.6206  0.5655
  438SOL     OW 1824   1.509   0.840   0.911  0.0226  0.4624  0.3076
  438SOL    HW2 1825   1.561   0.910   0.871 -0.1193 -0.8716 -2.2899
  438SOL    HW3 1826   1.473   0.791   0.837 -2.3281 -0.5900  2.0655
  438SOL    MW4 1827   1.511   0.843   0.896 -0.3064  0.1475  0.1968
  439SOL     OW 1828   0.720   2.617   0.763 -0.2202 -0.3994 -0.4969
  439SOL    HW2 1829   0.745   2.527   0.784  0.8870 -0.2394 -1.0652
  439SOL    HW3 1830   0.779   2.672   0.816 -0.5918 -0.0151 -0.4772
  439SOL    MW4 1831   0.731   2.613   0.773 -0.1231 -0.3276 -0.5693
  440SOL     OW 1832   1.602   2.786   0.529 -0.2061  0.3376  0.0718
  440SOL    HW2 1833   1.663   2.737   0.473 -0.2064 -0.1558  0.5066
  440SOL    HW3 1834   1.654   2.859   0.562  0.2707 -0.2928  0.7468
  440SOL    MW4 1835   1.617   2.789   0.526 -0.1433  0.1893  0.2183
  441SOL     OW 1836   3.142   0.336   1.110 -0.0619  0.0357  0.0720
  441SOL    HW2 1837   3.130   0.294   1.025 -0.0086  1.5373 -0.6941
  441SOL    HW3 1838   3.158   0.264   1.171  0.8533 -0.9922 -1.3578
  441SOL    MW4 1839   3.143   0.321   1.107  0.0660  0.0982 -0.2176
  442SOL     OW 1840   3.994   3.639   0.865  0.3216  0.2832 -0.4887
  442SOL    HW2 1841   4.065   3.699   0.886 -1.5897  2.1485  0.8340
  442SOL    HW3 1842   3.983   3.586   0.944 -0.0239  0.2716 -0.5427
  442SOL    MW4 1843   4.002   3.640   0.878  0.0238  0.5276 -0.3213
  443SOL     OW 1844   2.147   0.568   0.505 -0.3840  0.1407 -0.3092
  443SOL    HW2 1845   2.238   0.561   0.535 -0.3727 -1.7566 -0.7361
  443SOL    HW3 1846   2.154   0.582   0.411 -0.4954  3.0735  0.0665
  443SOL    MW4 1847   2.160   0.569   0.497 -0.3972  0.2773 -0.3160
  444SOL     OW 1848   2.208   3.028   0.861 -0.2383 -0.0791  0.0723
  444SOL    HW2 1849   2.213   2.932   0.870  0.0599  0.0072  0.8676
  444SOL    HW3 1850   2.298   3.055   0.844 -0.2249  0.1150  0.4411
  444SOL    MW4 1851   2.220   3.019   0.860 -0.1974 -0.0420  0.2259
  445SOL     OW 1852   3.589   3.436   0.848  0.1954 -0.1070  0.6206
  445SOL    HW2 1853   3.651   3.369   0.820 -0.7199 -0.7212  0.0222
  445SOL    HW3 1854   3.592   3.433   0.944  0.6392 -0.5517  0.5940
  445SOL    MW4 1855   3.597   3.427   0.857  0.1330 -0.2468  0.5381
  446SOL     OW 1856   2.436   1.572   0.863  0.1014  0.6199  0.6428
  446SOL    HW2 1857   2.525   1.545   0.841 -0.2148 -0.1537  0.2943
  446SOL    HW3 1858   2.433   1.666   0.845  0.9215  0.6955  0.9058
  446SOL    MW4 1859   2.447   1.581   0.858  0.1678  0.5280  0.6316
  447SOL     OW 1860   3.145   3.467   0.898 -0.2225 -0.4877  0.6254
  447SOL    HW2 1861   3.218   3.416   0.861 -0.3170  1.1162 -1.8675
  447SOL    HW3 1862   3.067   3.426   0.862 -0.4049 -0.0100  0.4844
  447SOL    MW4 1863   3.145   3.455   0.888 -0.2592 -0.2131  0.2779
  448SOL     OW 1864   3.915   0.959   0.457  0.0279 -0.2013 -0.1022
  448SOL    HW2 1865   3.867   1.033   0.495  2.1666  2.0531 -1.5580
  448SOL    HW3 1866   3.851   0.888   0.452 -1.8672  1.2767  2.1606
  448SOL    MW4 1867   3.900   0.960   0.461  0.0598  0.2912  0.0043
  449SOL     OW 1868   3.529   0.899   1.262 -0.1161 -0.1535 -0.1317
  449SOL    HW2 1869   3.570   0.979   1.229 -0.5212 -0.2400 -0.8391
  449SOL    HW3 1870   3.562   0.891   1.352 -0.1951  0.8884 -0.0021
  449SOL    MW4 1871   3.539   0.908   1.270 -0.1798 -0.0275 -0.2080
  450SOL     OW 1872   3.390   0.648   0.390  0.0028 -0.6711  0.1049
  450SOL    HW2 1873   3.388   0.742   0.408  1.4172 -0.4413 -0.8622
  450SOL    HW3 1874   3.396   0.607   0.477 -3.2052 -0.0102  0.7121
  450SOL    MW4 1875   3.391   0.655   0.404 -0.2337 -0.5535  0.0574
  451SOL     OW 1876   0.984   1.849   0.590  0.3148 -0.2662 -0.2336
  451SOL    HW2 1877   0.936   1.927   0.618 -1.6039 -1.2074 -0.8080
  451SOL    HW3 1878   1.004   1.802   0.671 -1.2692 -0.7201 -0.0827
  451SOL    MW4 1879   0.980   1.853   0.605 -0.1473 -0.4501 -0.2894
  452SOL     OW 1880   3.796   1.894   0.383 -0.1727  0.1225 -0.3830
  452SOL    HW2 1881   3.715   1.942   0.399 -0.2646 -0.6481  1.6197
  452SOL    HW3 1882   3.866   1.956   0.404 -0.2839 -0.0213  0.4549
  452SOL    MW4 1883   3.795   1.908   0.388 -0.1996  0.0019 -0.0082
  453SOL     OW 1884   4.014   2.735   1.133 -0.2170 -0.0288 -0.1094
  453SOL    HW2 1885   4.001   2.641   1.141 -0.2576  0.1518  2.0437
  453SOL    HW3 1886   3.932   2.773   1.163  0.2029  0.7220  0.0966
  453SOL    MW4 1887   4.002   2.728   1.138 -0.1669  0.0942  0.2018
  454SOL     OW 1888   0.298   1.312   0.706  0.3806 -0.0603  0.6918
  454SOL    HW2 1889   0.343   1.366   0.640 -0.3201 -0.9191 -0.4961
  454SOL    HW3 1890   0.234   1.372   0.745  0.6454  0.3956  0.4419
  454SOL    MW4 1891   0.296   1.327   0.703  0.3231 -0.1134  0.5021
  455SOL     OW 1892   3.424   2.280   0.870  0.5016 -0.1675  0.0583
  455SOL    HW2 1893   3.416   2.288   0.965 -1.8860  2.1720 -0.2558
  455SOL    HW3 1894   3.336   2.253   0.841  1.0779 -0.3986 -1.5071
  455SOL    MW4 1895   3.411   2.277   0.878  0.2627  0.1106 -0.1897
  456SOL     OW 1896   2.767   4.278   0.266 -0.0867 -0.2060  0.2294
  456SOL    HW2 1897   2.783   4.208   0.330  1.7870 -0.6383 -0.6958
  456SOL    HW3 1898   2.853   4.315   0.249 -0.6770  0.4296 -1.4620
  456SOL    MW4 1899   2.780   4.273   0.272  0.0827 -0.1793 -0.1158
  457SOL     OW 1900   1.772   1.515   0.518  0.0765  0.0261  0.4204
  457SOL    HW2 1901   1.789   1.496   0.610 -2.1093 -2.0679  0.4440
  457SOL    HW3 1902   1.825   1.451   0.470  0.9665  0.9084  0.1973
  457SOL    MW4 1903   1.782   1.504   0.524 -0.0943 -0.1339  0.3940
  458SOL     OW 1904   0.197   0.930   0.539  0.8484 -0.0266 -0.0871
  458SOL    HW2 1905   0.155   0.999   0.589  0.4530 -0.2984 -0.0414
  458SOL    HW3 1906   0.273   0.904   0.592  1.5415  1.0153 -0.5482
  458SOL    MW4 1907   0.202   0.936   0.552  0.8876  0.0750 -0.1420
  459SOL     OW 1908   3.082   4.264   0.527 -0.0857  0.4498  0.2800
  459SOL    HW2 1909   3.087   4.312   0.444 -0.6909 -0.3290 -0.2151
  459SOL    HW3 1910   3.131   4.183   0.511 -1.2049 -0.2494  0.2896
  459SOL    MW4 1911   3.089   4.259   0.514 -0.3135  0.2546  0.2159
  460SOL     OW 1912   3.266   0.586   0.963  0.0966  0.1318 -0.2839
  460SOL    HW2 1913   3.224   0.501   0.980 -0.9679  0.8844  0.9563
  460SOL    HW3 1914   3.203   0.633   0.908 -0.6986  1.2434  1.5397
  460SOL    MW4 1915   3.252   0.581   0.958 -0.1488  0.3778  0.1203
  461SOL     OW 1916   4.293   4.064   0.800 -0.4125 -0.3313  0.0409
  461SOL    HW2 1917   4.216   4.120   0.787  0.1050  0.7118  1.3911
  461SOL    HW3 1918   4.309   4.026   0.714 -2.0132 -0.0017 -0.4185
  461SOL    MW4 1919   4.285   4.066   0.787 -0.5555 -0.1497  0.1584
  462SOL     OW 1920   2.291   3.684   0.493 -0.3370  0.2517  0.4479
  462SOL    HW2 1921   2.250   3.699   0.578 -1.1098  0.7792 -0.0115
  462SOL    HW3 1922   2.363   3.623   0.511  0.3290  1.4008  1.6848
  462SOL    MW4 1923   2.295   3.678   0.507 -0.3512  0.4733  0.5505
  463SOL     OW 1924   1.821   0.609   0.517 -0.4049  0.2599 -0.3546
  463SOL    HW2 1925   1.905   0.569   0.495 -1.1765 -1.9156  0.4186
  463SOL    HW3 1926   1.756   0.546   0.485 -1.6517  0.4844  1.6244
  463SOL    MW4 1927   1.823   0.595   0.510 -0.6711  0.0024  0.0085
  464SOL     OW 1928   0.416   3.771   0.752 -0.0954  0.2508 -0.1851
  464SOL    HW2 1929   0.451   3.792   0.665 -1.1407  0.3928 -0.5775
  464SOL    HW3 1930   0.324   3.797   0.748  0.1918  1.5834  1.4244
  464SOL    MW4 1931   0.408   3.777   0.740 -0.1954  0.4454 -0.0244
  465SOL     OW 1932   2.884   3.092   1.160 -0.2676  0.1147  0.5362
  465SOL    HW2 1933   2.875   3.004   1.197 -0.1351  0.0352  0.3795
  465SOL    HW3 1934   2.964   3.126   1.200 -0.0329 -0.0346  0.1924
  465SOL    MW4 1935   2.894   3.085   1.170 -0.2189  0.0844  0.4703
  466SOL     OW 1936   0.447   1.491   0.541 -0.4048 -0.0803  0.0972
  466SOL    HW2 1937   0.474   1.545   0.615  0.0713  0.0168 -0.1416
  466SOL    HW3 1938   0.530   1.468   0.497 -0.5000 -1.8358  0.7781
  466SOL    MW4 1939   0.462   1.495   0.545 -0.3545 -0.2990  0.1556
  467SOL     OW 1940   4.291   0.772   1.195 -0.5494  0.4004  0.0193
  467SOL    HW2 1941   4.366   0.812   1.238 -0.7077  0.4146  0.2819
  467SOL    HW3 1942   4.292   0.681   1.224 -0.5615  0.3712 -0.0721
  467SOL    MW4 1943   4.301   0.765   1.204 -0.5717  0.3985  0.0421
  468SOL     OW 1944   2.193   3.705   0.751  0.3684 -0.1170  0.0435
  468SOL    HW2 1945   2.208   3.633   0.813 -0.4373  0.0115  0.3944
  468SOL    HW3 1946   2.121   3.755   0.790  0.1276  0.1952 -0.8027
  468SOL    MW4 1947   2.186   3.702   0.764  0.2301 -0.0589 -0.0219
  469SOL     OW 1948   2.954   0.788   1.173 -0.4040 -0.1708  0.6638
  469SOL    HW2 1949   2.942   0.696   1.198 -0.3381 -0.6744 -1.0687
  469SOL    HW3 1950   2.877   0.833   1.206 -1.2526 -1.1715  0.0780
  469SOL    MW4 1951   2.942   0.782   1.180 -0.5074 -0.3693  0.3580
  470SOL     OW 1952   0.900   4.552   0.741 -0.4500 -0.2825  0.0354
  470SOL    HW2 1953   0.828   4.607   0.773 -0.2904 -0.3487  0.5034
  470SOL    HW3 1954   0.903   4.478   0.801  1.1481  0.5919  1.0928
  470SOL    MW4 1955   0.891   4.550   0.753 -0.2182 -0.1760  0.2366
  471SOL     OW 1956   2.530   0.315   0.419  0.2925  0.0824 -0.6025
  471SOL    HW2 1957   2.625   0.300   0.428 -0.0143 -1.4351  0.2960
  471SOL    HW3 1958   2.493   0.228   0.408 -1.0190  0.6740 -0.9732
  471SOL    MW4 1959   2.538   0.302   0.419  0.0789 -0.0398 -0.5329
  472SOL     OW 1960   2.695   0.057   0.762 -0.2363  0.2269  0.1738
  472SOL    HW2 1961   2.704   0.150   0.780  1.1618  0.4432 -1.5604
  472SOL    HW3 1962   2.677   0.052   0.668  0.0576 -1.2702  0.1807
  472SOL    MW4 1963   2.694   0.068   0.752 -0.0131  0.0579 -0.0540
  473SOL     OW 1964   2.229   0.379   1.118  0.2467 -0.3427 -0.2233
  473SOL    HW2 1965   2.230   0.376   1.022 -0.9797 -1.3618 -0.2185
  473SOL    HW3 1966   2.142   0.414   1.140  1.0065  1.1531  0.5059
  473SOL    MW4 1967   2.218   0.383   1.108  0.1853 -0.2798 -0.1264
  474SOL     OW 1968   3.919   0.159   0.527 -0.4818  0.2113  0.3356
  474SOL    HW2 1969   3.839   0.177   0.477 -0.4279 -0.0693  0.1486
  474SOL    HW3 1970   3.986   0.214   0.487 -0.3116 -0.4187 -0.2487
  474SOL    MW4 1971   3.917   0.168   0.515 -0.4520  0.0912  0.2338
  475SOL     OW 1972   4.148   0.891   0.769  0.2934  0.1592 -0.3640
  475SOL    HW2 1973   4.164   0.907   0.676 -1.7401  1.3424 -0.5340
  475SOL    HW3 1974   4.078   0.826   0.771 -0.0842  0.5870  0.3467
  475SOL    MW4 1975   4.141   0.885   0.757 -0.0243  0.3718 -0.2928
  476SOL     OW 1976   1.151   4.411   0.415  0.2406  0.2295  0.0744
  476SOL    HW2 1977   1.149   4.322   0.451  0.6389  0.0066 -0.4458
  476SOL    HW3 1978   1.065   4.447   0.437 -1.1313 -1.3633 -2.3537
  476SOL    MW4 1979   1.139   4.404   0.422  0.1122 -0.0100 -0.3146
  477SOL     OW 1980   2.462   2.140   0.554 -0.3234 -0.0352  0.5622
  477SOL    HW2 1981   2.532   2.133   0.490 -1.5224 -0.1287 -0.7440
  477SOL    HW3 1982   2.403   2.068   0.534 -1.6424  1.0140  0.6026
  477SOL    MW4 1983   2.463   2.130   0.543 -0.6559  0.0911  0.3952
  478SOL     OW 1984   3.068   2.962   0.345 -0.2221  0.4092 -0.3429
  478SOL    HW2 1985   3.028   2.982   0.261  0.3557  1.7724 -0.3169
  478SOL    HW3 1986   3.071   3.047   0.390 -0.1472 -0.2294  0.8808
  478SOL    MW4 1987   3.063   2.976   0.340 -0.1359  0.5050 -0.1780
  479SOL     OW 1988   0.428   4.268   0.842  0.0211  0.2593  0.3314
  479SOL    HW2 1989   0.422   4.363   0.829 -2.3421 -0.0864 -1.3313
  479SOL    HW3 1990   0.516   4.245   0.812  0.1675  1.7446 -0.3968
  479SOL    MW4 1991   0.439   4.278   0.837 -0.2714  0.4096  0.0159
  480SOL     OW 1992   4.182   2.498   0.715  0.5163  0.3121  0.1281
  480SOL    HW2 1993   4.131   2.569   0.755 -0.8331 -0.1237 -0.7940
  480SOL    HW3 1994   4.205   2.442   0.788  0.1657  0.8254  0.6411
  480SOL    MW4 1995   4.178   2.500   0.730  0.2918  0.3221  0.0741
  481SOL     OW 1996   3.460   1.485   0.933  0.1063 -0.0134  0.0927
  481SOL    HW2 1997   3.442   1.511   1.023 -0.8254 -0.3390  0.0110
  481SOL    HW3 1998   3.555   1.489   0.925  0.1586  0.5037  0.9399
  481SOL    MW4 1999   3.470   1.489   0.944 -0.0095  0.0117  0.1937
  482SOL     OW 2000   4.049   3.507   1.097 -0.2672 -0.3197  0.2969
  482SOL    HW2 2001   4.073   3.419   1.127  1.5487 -0.7083 -2.1357
  482SOL    HW3 2002   4.120   3.563   1.128 -0.1673 -0.1244 -0.2902
  482SOL    MW4 2003   4.062   3.503   1.105 -0.0143 -0.3452 -0.1014
  483SOL     OW 2004   4.273   3.145   0.929  0.1470  0.1107 -0.2551
  483SOL    HW2 2005   4.360   3.110   0.907  0.4084 -0.6023  1.7034
  483SOL    HW3 2006   4.213   3.102   0.869  1.1144  0.2992 -1.3604
  483SOL    MW4 2007   4.277   3.135   0.918  0.3090  0.0417 -0.1425
  484SOL     OW 2008   0.659   2.175   0.458  0.4020 -0.4440 -0.2628
  484SOL    HW2 2009   0.715   2.235   0.409  0.8406 -0.8318 -0.2391
  484SOL    HW3 2010   0.578   2.171   0.407  0.0314  0.8704  0.2191
  484SOL    MW4 2011   0.655   2.182   0.445  0.4110 -0.3216 -0.1960
  485SOL     OW 2012   4.470   4.290   1.177  0.3391 -0.2223 -0.4484
  485SOL    HW2 2013   4.484   4.202   1.213  2.2565  0.1232 -0.3312
  485SOL    HW3 2014   4.454   4.275   1.084  0.9319 -0.6720 -0.4788
  485SOL    MW4 2015   4.469   4.276   1.170  0.6704 -0.2356 -0.4369
  486SOL     OW 2016   0.694   4.170   0.770  0.4889 -0.4129 -0.4401
  486SOL    HW2 2017   0.763   4.227   0.803  0.6190 -0.8581  0.0629
  486SOL    HW3 2018   0.725   4.142   0.685  1.4514 -1.5166  0.2650
  486SOL    MW4 2019   0.707   4.174   0.763  0.6331 -0.6170 -0.2807
  487SOL     OW 2020   0.223   4.651   1.117  0.2002  0.1332 -0.2187
  487SOL    HW2 2021   0.297   4.695   1.158  0.4032  0.1144 -0.5690
  487SOL    HW3 2022   0.218   4.566   1.161  1.0588 -0.3009 -0.9467
  487SOL    MW4 2023   0.232   4.646   1.128  0.3403  0.0734 -0.3610
  488SOL     OW 2024   0.002   0.066   1.286 -0.3044 -0.1839 -0.3897
  488SOL    HW2 2025  -0.080   0.058   1.238 -0.0609  0.3564 -0.8959
  488SOL    HW3 2026   0.068   0.029   1.228  0.2502  1.9888 -1.1866
  488SOL    MW4 2027  -0.000   0.060   1.272 -0.1991  0.1741 -0.5615
  489SOL     OW 2028   1.141   0.671   0.826  0.0719  0.2440 -0.2053
  489SOL    HW2 2029   1.208   0.604   0.815  0.1084  0.3418 -0.5968
  489SOL    HW3 2030   1.146   0.695   0.919  0.8490  0.5290 -0.3136
  489SOL    MW4 2031   1.150   0.665   0.837  0.1792  0.2946 -0.2713
  490SOL     OW 2032   0.217   0.521   1.248 -0.2809 -0.3041 -0.3847
  490SOL    HW2 2033   0.141   0.471   1.218 -0.1029 -0.4729 -0.5601
  490SOL    HW3 2034   0.203   0.609   1.214 -1.0000 -0.0185  0.6129
  490SOL    MW4 2035   0.205   0.526   1.240 -0.3523 -0.2887 -0.2761
  491SOL     OW 2036   0.237   0.799   1.194 -0.1923  0.1785 -0.8977
  491SOL    HW2 2037   0.240   0.803   1.099 -1.3892  0.5405 -0.9237
  491SOL    HW3 2038   0.318   0.843   1.222 -0.8412  1.9236 -1.7101
  491SOL    MW4 2039   0.248   0.805   1.186 -0.4358  0.4565 -1.0083
  492SOL     OW 2040   1.832   2.394   0.224 -0.1865 -0.0606  0.4307
  492SOL    HW2 2041   1.844   2.373   0.131 -0.3252 -0.1538  0.4336
  492SOL    HW3 2042   1.856   2.313   0.270 -0.6336 -0.1858  0.4470
  492SOL    MW4 2043   1.837   2.381   0.218 -0.2638 -0.0894  0.4333
  493SOL     OW 2044   2.636   0.733   0.844 -0.6648  0.3397 -0.2411
  493SOL    HW2 2045   2.711   0.791   0.848  0.7348 -1.3973 -0.8575
  493SOL    HW3 2046   2.576   0.776   0.783  0.1358  1.3632 -0.3224
  493SOL    MW4 2047   2.638   0.746   0.837 -0.3743  0.2456 -0.3331
  494SOL     OW 2048   2.791   2.384   0.566  0.2325  0.0380  0.0698
  494SOL    HW2 2049   2.874   2.429   0.547  0.4802 -0.6146 -0.4024
  494SOL    HW3 2050   2.726   2.432   0.515  0.5359 -0.2974 -0.6333
  494SOL    MW4 2051   2.794   2.396   0.557  0.3054 -0.0920 -0.0854
  495SOL     OW 2052   4.118   1.301   0.688  0.5957 -0.2573 -0.5785
  495SOL    HW2 2053   4.187   1.285   0.623  0.9220  1.1130 -0.5756
  495SOL    HW3 2054   4.139   1.386   0.725 -0.5591 -0.2697  0.1249
  495SOL    MW4 2055   4.130   1.310   0.684  0.4864 -0.0782 -0.4853
  496SOL     OW 2056   4.245   1.559   1.089 -0.0689  0.0576  0.1790
  496SOL    HW2 2057   4.161   1.594   1.118 -0.6601 -0.8193 -0.4617
  496SOL    HW3 2058   4.255   1.477   1.137  0.4366  0.1713  0.2747
  496SOL    MW4 2059   4.236   1.553   1.099 -0.0806 -0.0433  0.1070
  497SOL     OW 2060   0.013   1.938   1.164 -0.4574  0.3619  0.1265
  497SOL    HW2 2061  -0.072   1.980   1.179 -0.4112  0.4696  0.0922
  497SOL    HW3 2062   0.004   1.851   1.201 -0.5971  0.3590  0.0858
  497SOL    MW4 2063   0.000   1.932   1.171 -0.4697  0.3759  0.1167
  498SOL     OW 2064   0.274   2.048   1.162  0.1629  0.3064  0.0739
  498SOL    HW2 2065   0.248   2.140   1.168 -0.1850  0.1625  0.7204
  498SOL    HW3 2066   0.193   2.001   1.142  0.0671 -0.0447  1.2765
  498SOL    MW4 2067   0.260   2.054   1.160  0.1043  0.2413  0.3179
  499SOL     OW 2068   0.205   2.319   1.148 -0.3189 -0.1749  0.0237
  499SOL    HW2 2069   0.274   2.378   1.177  0.4630 -1.0439 -0.0654
  499SOL    HW3 2070   0.124   2.359   1.179  0.1418  1.3398 -0.6803
  499SOL    MW4 2071   0.203   2.332   1.156 -0.1550 -0.0896 -0.0808
  500SOL     OW 2072   4.485   2.477   1.253  0.1135  0.2251 -0.3139
  500SOL    HW2 2073   4.471   2.485   1.348 -0.4586 -0.2583 -0.3582
  500SOL    HW3 2074   4.410   2.428   1.222  0.6911 -0.2855 -0.9108
  500SOL    MW4 2075   4.474   2.472   1.262  0.1144  0.0942 -0.3985
  501SOL     OW 2076   4.476   2.757   1.138 -0.2087  0.0146 -0.2092
  501SOL    HW2 2077   4.393   2.782   1.177 -1.1088 -1.6067 -1.0028
  501SOL    HW3 2078   4.483   2.662   1.154  1.6494  0.1823  0.1436
  501SOL    MW4 2079   4.466   2.748   1.145 -0.0820 -0.1771 -0.2675
  502SOL     OW 2080   0.206   3.148   1.164  0.0099 -0.0317  0.1811
  502SOL    HW2 2081   0.291   3.156   1.208 -0.0160  1.6956 -0.0539
  502SOL    HW3 2082   0.180   3.057   1.179  1.3733 -0.2692  1.2259
  502SOL    MW4 2083   0.214   3.137   1.172  0.1864  0.1645  0.2880
  503SOL     OW 2084   0.384   1.137   0.399 -0.0981 -0.0997 -0.2041
  503SOL    HW2 2085   0.332   1.208   0.362  1.4685  1.6888  0.9594
  503SOL    HW3 2086   0.320   1.072   0.427 -1.6300  1.4236 -0.1228
  503SOL    MW4 2087   0.369   1.138   0.398 -0.0936  0.3372 -0.0398
  504SOL     OW 2088   4.488   3.260   1.280 -0.5541 -0.2388  0.2097
  504SOL    HW2 2089   4.406   3.216   1.259 -0.9325  1.0760 -1.2164
  504SOL    HW3 2090   4.556   3.204   1.244 -1.0430  0.4371 -1.8132
  504SOL    MW4 2091   4.486   3.247   1.273 -0.6685  0.0241 -0.2455
  505SOL     OW 2092   2.250   4.531   0.817 -0.2641  0.5884  0.6658
  505SOL    HW2 2093   2.272   4.439   0.806  0.4416  1.0324 -2.0961
  505SOL    HW3 2094   2.322   4.568   0.868  0.2056 -0.0814  0.4847
  505SOL    MW4 2095   2.262   4.524   0.822 -0.1094  0.5589  0.2776
  506SOL     OW 2096   0.266   3.639   1.244  0.2077  0.2711 -0.4183
  506SOL    HW2 2097   0.190   3.595   1.205  0.4853 -0.1723 -0.4571
  506SOL    HW3 2098   0.254   3.628   1.338 -0.9232  2.0959 -0.3145
  506SOL    MW4 2099   0.254   3.632   1.251  0.0952  0.4535 -0.4098
  507SOL     OW 2100   0.249   3.903   1.174 -0.3001 -0.3092 -0.1230
  507SOL    HW2 2101   0.184   3.938   1.235 -0.6640  0.1820 -0.7789
  507SOL    HW3 2102   0.247   3.809   1.187  0.8153 -0.0919  1.8116
  507SOL    MW4 2103   0.240   3.895   1.184 -0.2009 -0.2158  0.0458
  508SOL     OW 2104   3.797   2.825   0.505  0.0039  0.5688 -0.0585
  508SOL    HW2 2105   3.724   2.885   0.515  0.0489  0.7948 -1.0098
  508SOL    HW3 2106   3.776   2.774   0.426 -0.6570 -1.5696  1.4725
  508SOL    MW4 2107   3.785   2.826   0.496 -0.0772  0.3164  0.0179
  509SOL     OW 2108   0.394   3.266   0.596  0.0347  0.3317 -0.5144
  509SOL    HW2 2109   0.392   3.296   0.505  1.8442 -1.4811 -1.1860
  509SOL    HW3 2110   0.484   3.281   0.624  0.1010 -1.2942  0.1981
  509SOL    MW4 2111   0.406   3.272   0.588  0.2822 -0.1221 -0.5091
  510SOL     OW 2112   0.454   4.268   1.143  0.4616  0.0673 -0.2979
  510SOL    HW2 2113   0.381   4.315   1.182  0.4385  0.1580 -0.4471
  510SOL    HW3 2114   0.432   4.264   1.049 -0.4439 -1.8709 -0.0409
  510SOL    MW4 2115   0.441   4.273   1.136  0.3390 -0.1764 -0.2836
  511SOL     OW 2116   0.679   4.664   1.130 -0.1316  0.1805  0.0358
  511SOL    HW2 2117   0.742   4.717   1.180  0.8404 -1.4810  0.6027
  511SOL    HW3 2118   0.692   4.575   1.162 -1.7553 -0.4096 -0.9136
  511SOL    MW4 2119   0.689   4.660   1.141 -0.2176 -0.1168 -0.0148
  512SOL     OW 2120   0.433   0.107   1.229 -0.5195 -0.2448  0.3399
  512SOL    HW2 2121   0.439   0.200   1.208 -0.9126 -0.0968  0.8569
  512SOL    HW3 2122   0.518   0.070   1.205 -0.9367 -0.0746 -1.4369
  512SOL    MW4 2123   0.445   0.114   1.223 -0.6264 -0.2028  0.1737
  513SOL     OW 2124   0.437   0.380   1.170  0.3889 -0.0193 -0.1857
  513SOL    HW2 2125   0.368   0.426   1.218  1.1025 -0.9899  1.7898
  513SOL    HW3 2126   0.415   0.395   1.078 -0.5428  2.5504  0.4041
  513SOL    MW4 2127   0.425   0.388   1.164  0.3601  0.1917  0.1528
  514SOL     OW 2128   0.660   0.569   1.275 -0.3901 -0.0727 -0.9332
  514SOL    HW2 2129   0.667   0.653   1.228 -2.0628  1.1892  1.0138
  514SOL    HW3 2130   0.602   0.516   1.220 -0.5996  0.6096 -1.3798
  514SOL    MW4 2131   0.653   0.573   1.261 -0.6384  0.1838 -0.7352
  515SOL     OW 2132   0.724   0.810   1.124 -0.2307  0.2391 -0.1501
  515SOL    HW2 2133   0.645   0.855   1.154 -0.4819 -0.4498  0.2420
  515SOL    HW3 2134   0.749   0.855   1.044 -0.1406  1.4572  0.5518
  515SOL    MW4 2135   0.717   0.822   1.118 -0.2519  0.3089 -0.0057
  516SOL     OW 2136   0.488   0.919   1.239  0.3183 -0.0777  0.5654
  516SOL    HW2 2137   0.478   0.917   1.334 -2.0629 -1.7522  0.3187
  516SOL    HW3 2138   0.455   1.005   1.213  1.9596  0.8111  1.3038
  516SOL    MW4 2139   0.482   0.930   1.248  0.2206 -0.1814  0.6303
  517SOL     OW 2140   0.681   1.273   1.278 -0.5966  0.2214  0.2572
  517SOL    HW2 2141   0.679   1.359   1.235 -1.6824  0.3775  0.5994
  517SOL    HW3 2142   0.749   1.224   1.231 -0.3169  1.1015 -0.2615
  517SOL    MW4 2143   0.690   1.278   1.266 -0.7030  0.3580  0.2339
  518SOL     OW 2144   1.231   1.951   0.495  0.2604  0.1430 -0.8119
  518SOL    HW2 2145   1.155   1.905   0.531  0.7053 -0.3705 -0.5257
  518SOL    HW3 2146   1.240   2.029   0.550  0.5556 -0.3150 -0.2041
  518SOL    MW4 2147   1.222   1.955   0.507  0.3580  0.0149 -0.6939
  519SOL     OW 2148   0.460   1.703   1.251 -0.8087  0.3206  0.6608
  519SOL    HW2 2149   0.528   1.648   1.212 -1.7576 -0.0923 -0.4135
  519SOL    HW3 2150   0.464   1.682   1.345  0.8171  0.6064  0.6655
  519SOL    MW4 2151   0.470   1.693   1.258 -0.7194  0.3039  0.5196
  520SOL     OW 2152   0.235   1.560   1.152  0.3300 -0.0662 -0.1255
  520SOL    HW2 2153   0.312   1.606   1.184  0.6374 -0.5250 -0.2146
  520SOL    HW3 2154   0.240   1.473   1.191 -0.6884  0.2378  0.7102
  520SOL    MW4 2155   0.246   1.555   1.162  0.2362 -0.0867 -0.0269
  521SOL     OW 2156   0.500   1.919   1.084 -0.3057  0.1239  0.0707
  521SOL    HW2 2157   0.496   1.836   1.133 -0.2795  0.8683  1.3458
  521SOL    HW3 2158   0.425   1.969   1.114 -0.5814  0.3914 -1.0417
  521SOL    MW4 2159   0.490   1.914   1.094 -0.3386  0.2575  0.0921
  522SOL     OW 2160   0.687   2.082   1.196 -0.3122  0.3704  0.5694
  522SOL    HW2 2161   0.680   2.063   1.290  1.7037 -2.1067  0.2537
  522SOL    HW3 2162   0.624   2.023   1.155 -0.2495  0.5200  0.2583
  522SOL    MW4 2163   0.677   2.072   1.203 -0.0380  0.0634  0.4866
  523SOL     OW 2164   0.672   2.342   1.114  0.1081  0.1771  0.3366
  523SOL    HW2 2165   0.591   2.368   1.159  0.0367  0.5017  0.0186
  523SOL    HW3 2166   0.678   2.247   1.128 -1.3374 -0.1755 -1.2840
  523SOL    MW4 2167   0.662   2.333   1.122 -0.0921  0.1736  0.0807
  524SOL     OW 2168   0.446   2.445   1.216 -0.2904  0.3052 -0.2272
  524SOL    HW2 2169   0.434   2.434   1.311 -1.0189 -0.0095 -0.3575
  524SOL    HW3 2170   0.452   2.539   1.204  0.4871  0.3189  0.2182
  524SOL    MW4 2171   0.445   2.456   1.227 -0.2840  0.2656 -0.1856
  525SOL     OW 2172   0.922   2.763   0.903  0.3300  0.2731 -0.0475
  525SOL    HW2 2173   1.001   2.733   0.859  0.3562  0.8183 -0.3759
  525SOL    HW3 2174   0.935   2.741   0.995  0.4480 -0.5055 -0.2531
  525SOL    MW4 2175   0.934   2.756   0.909  0.3491  0.2425 -0.1180
  526SOL     OW 2176   0.690   2.862   1.248 -0.1647 -0.5197 -0.0390
  526SOL    HW2 2177   0.674   2.954   1.226  0.5268 -0.6155 -1.0240
  526SOL    HW3 2178   0.610   2.817   1.223  0.2269 -0.4637 -1.4667
  526SOL    MW4 2179   0.678   2.868   1.241 -0.0218 -0.5250 -0.3574
  527SOL     OW 2180   0.478   3.502   1.098  0.4717 -0.1965 -0.5800
  527SOL    HW2 2181   0.551   3.515   1.158 -0.8472 -2.2849  1.5442
  527SOL    HW3 2182   0.406   3.551   1.137  0.1365  0.0397 -1.4873
  527SOL    MW4 2183   0.478   3.510   1.111  0.2535 -0.4408 -0.4194
  528SOL     OW 2184   0.436   3.270   1.264 -0.0579 -0.3242 -0.2967
  528SOL    HW2 2185   0.441   3.347   1.208  0.5120 -1.0672 -1.2995
  528SOL    HW3 2186   0.517   3.222   1.246 -0.5292 -1.2946  0.1116
  528SOL    MW4 2187   0.447   3.274   1.254 -0.0449 -0.5503 -0.3752
  529SOL     OW 2188   2.699   1.185   0.826 -0.3371  0.2577 -0.0054
  529SOL    HW2 2189   2.704   1.180   0.921  0.1967 -0.3961 -0.0610
  529SOL    HW3 2190   2.701   1.278   0.806  1.4658  0.3378  0.5206
  529SOL    MW4 2191   2.700   1.196   0.836 -0.0286  0.1820  0.0566
  530SOL     OW 2192   0.701   3.614   1.230  0.4437 -0.5749  0.5686
  530SOL    HW2 2193   0.699   3.621   1.326  0.7469 -0.9511  0.6015
  530SOL    HW3 2194   0.689   3.704   1.200 -3.6881 -0.8801  0.9153
  530SOL    MW4 2195   0.699   3.627   1.239 -0.0615 -0.6647  0.6187
  531SOL     OW 2196   3.026   0.648   0.753  0.1791 -0.6196 -0.0645
  531SOL    HW2 2197   2.979   0.700   0.817  0.9677  0.3563 -0.2773
  531SOL    HW3 2198   3.099   0.703   0.725  0.8213 -1.6952 -0.5437
  531SOL    MW4 2199   3.029   0.662   0.758  0.3676 -0.6328 -0.1559
  532SOL     OW 2200   0.666   3.877   1.170  0.6374  0.0612 -0.1221
  532SOL    HW2 2201   0.643   3.898   1.079 -0.4312  1.0436  0.3601
  532SOL    HW3 2202   0.602   3.925   1.223  1.6738  0.0481  1.1745
  532SOL    MW4 2203   0.655   3.886   1.165  0.6331  0.1891  0.1127
  533SOL     OW 2204   0.677   4.396   1.230  0.2774  0.4172  0.7194
  533SOL    HW2 2205   0.666   4.414   1.324 -1.5313  0.1546  0.5657
  533SOL    HW3 2206   0.596   4.353   1.204  1.4336 -1.0092 -0.6196
  533SOL    MW4 2207   0.665   4.393   1.239  0.1913  0.1955  0.5224
  534SOL     OW 2208   0.472   4.037   1.284  0.3843 -0.0872  0.0880
  534SOL    HW2 2209   0.402   3.988   1.242  0.3195 -0.4609  0.6334
  534SOL    HW3 2210   0.467   4.124   1.244  0.6735 -0.5901 -1.0746
  534SOL    MW4 2211   0.462   4.042   1.273  0.4139 -0.2022  0.0067
  535SOL     OW 2212   1.096   3.901   0.883  0.4930  0.2376 -0.1587
  535SOL    HW2 2213   1.118   3.896   0.975 -1.4190  1.2530  0.3933
  535SOL    HW3 2214   1.101   3.995   0.862 -0.5262  0.1872 -0.6806
  535SOL    MW4 2215   1.099   3.913   0.892  0.1062  0.3648 -0.1548
  536SOL     OW 2216   0.849   0.163   1.264 -0.3495 -0.5163  0.3681
  536SOL    HW2 2217   0.923   0.116   1.227  0.3836  1.0331 -0.1787
  536SOL    HW3 2218   0.861   0.157   1.359  1.6187  1.4396  0.2801
  536SOL    MW4 2219   0.860   0.156   1.272  0.0069 -0.0538  0.2844
  537SOL     OW 2220   0.852   0.395   1.133  0.1913 -0.0825 -0.0288
  537SOL    HW2 2221   0.851   0.312   1.181  1.1462 -0.6046 -0.8848
  537SOL    HW3 2222   0.777   0.443   1.166 -0.3044 -1.2473  0.5587
  537SOL    MW4 2223   0.842   0.390   1.144  0.2519 -0.3050 -0.0641
  538SOL     OW 2224   1.066   0.545   1.253 -0.4429 -0.2235  0.0982
  538SOL    HW2 2225   1.071   0.516   1.344  0.7752 -1.2242 -0.2722
  538SOL    HW3 2226   0.985   0.506   1.220 -1.0192  0.3521  0.8175
  538SOL    MW4 2227   1.056   0.536   1.261 -0.3582 -0.2795  0.1441
  539SOL     OW 2228   1.142   0.752   1.104 -0.1981  0.2565 -0.0659
  539SOL    HW2 2229   1.125   0.672   1.154  1.2588 -0.9140 -1.3819
  539SOL    HW3 2230   1.081   0.816   1.140 -0.4765 -1.0737  1.9242
  539SOL    MW4 2231   1.132   0.749   1.116 -0.0424 -0.0734  0.0230
  540SOL     OW 2232   0.944   0.916   1.225  0.2160 -0.3082 -0.0442
  540SOL    HW2 2233   0.940   1.006   1.195  0.7361 -0.4767 -0.6317
  540SOL    HW3 2234   0.872   0.872   1.181  0.5246 -0.3850 -0.4792
  540SOL    MW4 2235   0.934   0.922   1.216  0.3254 -0.3405 -0.1793
  541SOL     OW 2236   0.911   1.178   1.167  0.0288  0.3682  0.0648
  541SOL    HW2 2237   0.986   1.216   1.212 -1.0526  1.8820  0.6100
  541SOL    HW3 2238   0.915   1.214   1.079  1.4870 -1.6995 -0.7559
  541SOL    MW4 2239   0.921   1.188   1.162  0.0784  0.2950  0.0284
  542SOL     OW 2240   1.141   1.284   1.266  0.2497 -0.0834  0.1114
  542SOL    HW2 2241   1.125   1.301   1.359 -0.6281 -2.0341  0.3438
  542SOL    HW3 2242   1.209   1.217   1.265  0.0223 -0.3062 -0.6386
  542SOL    MW4 2243   1.148   1.278   1.279  0.1037 -0.3703  0.0432
  543SOL     OW 2244   1.170   1.541   1.167  0.0631 -0.2862  0.0373
  543SOL    HW2 2245   1.165   1.515   1.075 -3.0553 -1.5713  0.5098
  543SOL    HW3 2246   1.171   1.459   1.216 -0.5647  0.4001  1.2218
  543SOL    MW4 2247   1.170   1.527   1.161 -0.4312 -0.3650  0.2558
  544SOL     OW 2248   0.928   1.672   1.214 -0.3607  0.3519 -0.3696
  544SOL    HW2 2249   0.940   1.764   1.189  0.1509  0.8367  1.5715
  544SOL    HW3 2250   1.004   1.627   1.177 -0.4426  0.7540 -1.0504
  544SOL    MW4 2251   0.939   1.678   1.206 -0.3040  0.4690 -0.2034
  545SOL     OW 2252   0.914   1.926   1.107  0.1117 -0.3438 -0.3257
  545SOL    HW2 2253   0.988   1.976   1.141 -0.8665  1.0288 -0.1698
  545SOL    HW3 2254   0.839   1.959   1.157 -0.8671 -0.4709 -1.7008
  545SOL    MW4 2255   0.914   1.937   1.118 -0.1465 -0.1796 -0.4865
  546SOL     OW 2256   1.129   2.071   1.194  0.0256  0.2785  0.0527
  546SOL    HW2 2257   1.149   2.078   1.288  1.2684 -0.2756 -0.1485
  546SOL    HW3 2258   1.128   2.161   1.163  0.1810  0.4384  0.4977
  546SOL    MW4 2259   1.132   2.084   1.202  0.2099  0.2265  0.0848
  547SOL     OW 2260   1.148   2.351   1.110 -0.7897 -0.0824  0.3266
  547SOL    HW2 2261   1.215   2.391   1.165  0.2025 -1.2609 -0.0211
  547SOL    HW3 2262   1.065   2.373   1.153 -0.2382  1.9366  0.3964
  547SOL    MW4 2263   1.146   2.359   1.123 -0.5860  0.0284  0.2899
  548SOL     OW 2264   0.914   2.436   1.229  0.4202 -0.0157  1.0238
  548SOL    HW2 2265   0.904   2.433   1.324 -0.0119 -0.5762  0.9577
  548SOL    HW3 2266   0.830   2.409   1.195  1.1942 -1.8156  0.4868
  548SOL    MW4 2267   0.902   2.432   1.237  0.4653 -0.3271  0.9441
  549SOL     OW 2268   0.918   2.718   1.184  0.1379 -0.0930  0.6907
  549SOL    HW2 2269   0.888   2.631   1.210 -0.2464 -0.1268  0.1204
  549SOL    HW3 2270   0.845   2.776   1.206 -0.2175 -0.1323 -0.4036
  549SOL    MW4 2271   0.905   2.714   1.191  0.0402 -0.1028  0.4711
  550SOL     OW 2272   1.167   2.840   1.261  0.4469 -0.1059 -0.1359
  550SOL    HW2 2273   1.160   2.829   1.356  0.6783  0.4489 -0.0524
  550SOL    HW3 2274   1.084   2.808   1.227  0.0288  0.4955  0.3210
  550SOL    MW4 2275   1.155   2.834   1.269  0.4224  0.0465 -0.0645
  551SOL     OW 2276   1.132   3.115   1.192  0.0835 -0.8497  0.3927
  551SOL    HW2 2277   1.158   3.024   1.208 -0.3604 -1.2386 -1.0485
  551SOL    HW3 2278   1.139   3.125   1.097 -0.1440  0.5413  0.5204
  551SOL    MW4 2279   1.137   3.104   1.182 -0.0050 -0.7174  0.2193
  552SOL     OW 2280   0.905   3.253   1.254 -0.0930 -0.3417  0.1851
  552SOL    HW2 2281   0.902   3.344   1.227 -0.2362 -0.9437 -1.9152
  552SOL    HW3 2282   0.998   3.231   1.251 -0.2256 -0.7763 -1.1644
  552SOL    MW4 2283   0.917   3.262   1.250 -0.1294 -0.4785 -0.2701
  553SOL     OW 2284   0.928   3.502   1.127 -0.4579  0.1207  0.1346
  553SOL    HW2 2285   0.847   3.543   1.156 -0.9297 -0.6286 -0.1232
  553SOL    HW3 2286   0.921   3.496   1.032 -0.1480 -0.0463  0.1181
  553SOL    MW4 2287   0.917   3.507   1.119 -0.4793 -0.0005  0.0982
  554SOL     OW 2288   1.151   3.659   1.237 -0.0427  0.0812  0.0631
  554SOL    HW2 2289   1.220   3.599   1.210 -0.3767  0.0982 -0.8587
  554SOL    HW3 2290   1.069   3.613   1.214 -0.3564 -0.2562  1.8188
  554SOL    MW4 2291   1.149   3.645   1.230 -0.1281  0.0389  0.1731
  555SOL     OW 2292   1.160   3.928   1.166  0.0773  0.2752  0.0316
  555SOL    HW2 2293   1.078   3.960   1.204 -0.7036  0.4625 -1.7643
  555SOL    HW3 2294   1.164   3.836   1.190 -1.3951 -0.0977 -1.0911
  555SOL    MW4 2295   1.150   3.920   1.174 -0.2201  0.2508 -0.3535
  556SOL     OW 2296   0.895   3.981   1.272  0.1014 -0.1045  0.4549
  556SOL    HW2 2297   0.873   4.001   1.363 -0.6876  1.4912 -0.0635
  556SOL    HW3 2298   0.813   3.955   1.232  0.1673  0.5869 -0.1446
  556SOL    MW4 2299   0.881   3.980   1.279  0.0060  0.1974  0.3073
  557SOL     OW 2300   0.596   0.454   0.457 -0.2536  0.9783 -0.4236
  557SOL    HW2 2301   0.668   0.517   0.448  0.1803  0.0038 -4.8991
  557SOL    HW3 2302   0.638   0.373   0.484 -0.0706  1.0924 -0.3627
  557SOL    MW4 2303   0.611   0.452   0.459 -0.1722  0.8647 -1.0061
  558SOL     OW 2304   1.088   4.450   1.197 -0.1160 -0.3737  0.0314
  558SOL    HW2 2305   1.020   4.387   1.172 -1.6746  1.2096  0.1672
  558SOL    HW3 2306   1.090   4.445   1.293  1.0276 -1.4912 -0.0389
  558SOL    MW4 2307   1.079   4.441   1.207 -0.1708 -0.3119  0.0401
  559SOL     OW 2308   1.578   4.402   1.210  0.3295 -0.4579  0.0602
  559SOL    HW2 2309   1.589   4.403   1.305 -0.9913  1.5188  0.2230
  559SOL    HW3 2310   1.497   4.353   1.196  0.6833 -1.0058 -0.0653
  559SOL    MW4 2311   1.569   4.396   1.221  0.2019 -0.2699  0.0651
  560SOL     OW 2312   1.319   0.147   1.222  0.0695  0.3789  0.0373
  560SOL    HW2 2313   1.392   0.091   1.198  0.1096 -0.2181  1.5466
  560SOL    HW3 2314   1.244   0.109   1.176  0.6145  0.7856 -1.2264
  560SOL    MW4 2315   1.318   0.135   1.213  0.1466  0.3538  0.0700
  561SOL     OW 2316   1.289   0.410   1.140  0.0572 -0.0126 -0.4699
  561SOL    HW2 2317   1.301   0.321   1.174  0.2562  0.1828 -0.0259
  561SOL    HW3 2318   1.208   0.440   1.180  0.4229  0.3103  0.0281
  561SOL    MW4 2319   1.280   0.402   1.150  0.1317  0.0558 -0.3456
  562SOL     OW 2320   1.525   0.498   1.273  0.2315 -0.4201 -0.3033
  562SOL    HW2 2321   1.539   0.590   1.251  0.7588  0.1368  2.1972
  562SOL    HW3 2322   1.441   0.476   1.235 -0.0838  1.2161 -0.5814
  562SOL    MW4 2323   1.516   0.507   1.265  0.2595 -0.1308 -0.0103
  563SOL     OW 2324   1.565   0.770   1.163 -0.0859  0.1971 -0.1635
  563SOL    HW2 2325   1.648   0.816   1.175 -1.0778  2.2467 -0.8777
  563SOL    HW3 2326   1.541   0.789   1.072 -0.8716 -1.2112 -0.2704
  563SOL    MW4 2327   1.573   0.778   1.152 -0.3206  0.2817 -0.2720
  564SOL     OW 2328   1.333   0.852   1.265  0.3910  0.1318  0.3192
  564SOL    HW2 2329   1.415   0.825   1.224  0.4876  1.8929 -0.6829
  564SOL    HW3 2330   1.264   0.814   1.210  0.5233  0.7232 -0.2479
  564SOL    MW4 2331   1.334   0.843   1.253  0.4212  0.4421  0.1119
  565SOL     OW 2332   1.361   1.110   1.180 -0.1246  0.0196  0.1798
  565SOL    HW2 2333   1.357   1.023   1.220 -2.5689 -0.1640 -0.3983
  565SOL    HW3 2334   1.328   1.097   1.091  0.0573  1.4371 -0.1079
  565SOL    MW4 2335   1.356   1.097   1.173 -0.4232  0.1823  0.0653
  566SOL     OW 2336   1.566   1.298   1.261 -0.3117 -0.2429  0.0626
  566SOL    HW2 2337   1.656   1.266   1.252 -0.1980  0.4112 -1.3029
  566SOL    HW3 2338   1.513   1.237   1.211 -0.4678  0.0696 -0.1546
  566SOL    MW4 2339   1.571   1.286   1.254 -0.3173 -0.1154 -0.1464
  567SOL     OW 2340   1.607   1.556   1.136 -0.0894  0.0466 -0.0492
  567SOL    HW2 2341   1.686   1.593   1.178  1.0159 -0.5721 -1.5433
  567SOL    HW3 2342   1.588   1.478   1.187 -0.8429  1.1762  1.4570
  567SOL    MW4 2343   1.615   1.551   1.148 -0.0432  0.1142 -0.0476
  568SOL     OW 2344   1.382   1.700   1.224 -0.5093  0.1984 -0.3913
  568SOL    HW2 2345   1.458   1.655   1.188  0.0247  1.4647 -0.8548
  568SOL    HW3 2346   1.308   1.645   1.200  0.2642 -1.0909  0.1367
  568SOL    MW4 2347   1.382   1.687   1.216 -0.3368  0.1955 -0.3828
  569SOL     OW 2348   1.377   1.944   1.127  0.5021 -0.7928  0.2694
  569SOL    HW2 2349   1.369   1.854   1.161 -0.1870 -0.9480 -0.2791
  569SOL    HW3 2350   1.298   1.988   1.160 -0.3034 -1.0158 -1.3324
  569SOL    MW4 2351   1.365   1.938   1.136  0.3051 -0.8428 -0.0142
  570SOL     OW 2352   1.568   2.085   1.249  0.0243 -0.0716  0.0953
  570SOL    HW2 2353   1.577   2.168   1.203  2.5675 -1.0180 -1.2216
  570SOL    HW3 2354   1.498   2.039   1.202 -0.6725  0.8861  0.1785
  570SOL    MW4 2355   1.560   2.090   1.237  0.2680 -0.0701 -0.0675
  571SOL     OW 2356   1.560   2.334   1.064 -0.5262 -0.0480 -0.3641
  571SOL    HW2 2357   1.505   2.374   1.131  0.2673  0.2972  0.0879
  571SOL    HW3 2358   1.507   2.338   0.984 -0.3507  2.1742 -0.4029
  571SOL    MW4 2359   1.546   2.340   1.062 -0.3984  0.2909 -0.3097
  572SOL     OW 2360   1.381   2.444   1.251  0.0521  0.0302 -0.4577
  572SOL    HW2 2361   1.354   2.447   1.343 -1.9011  0.5704 -1.0128
  572SOL    HW3 2362   1.398   2.535   1.228  0.9744 -0.1529 -0.5214
  572SOL    MW4 2363   1.379   2.456   1.260 -0.0838  0.0772 -0.5394
  573SOL     OW 2364   1.399   2.723   1.165 -0.1139  0.7067 -0.2896
  573SOL    HW2 2365   1.469   2.788   1.166  0.0941  0.5016  1.8199
  573SOL    HW3 2366   1.323   2.768   1.201 -0.7571  0.5929 -1.4870
  573SOL    MW4 2367   1.398   2.737   1.170 -0.1714  0.6645 -0.1694
  574SOL     OW 2368   1.577   2.926   1.227 -0.1947 -0.1957  0.4261
  574SOL    HW2 2369   1.649   2.883   1.181  0.9678  0.1923  1.8230
  574SOL    HW3 2370   1.569   3.011   1.185 -0.1572 -0.4256 -0.0469
  574SOL    MW4 2371   1.585   2.931   1.215 -0.0365 -0.1748  0.5479
  575SOL     OW 2372   1.363   3.247   1.257  0.2106 -0.0344  0.0199
  575SOL    HW2 2373   1.277   3.209   1.242 -0.0233  0.3878  0.2845
  575SOL    HW3 2374   1.374   3.246   1.352  0.7337 -0.5991 -0.0397
  575SOL    MW4 2375   1.353   3.242   1.267  0.2488 -0.0532  0.0470
  576SOL     OW 2376   2.602   4.385   0.459 -0.3292 -0.2477  0.4603
  576SOL    HW2 2377   2.616   4.341   0.542 -0.6372 -0.7769  0.2362
  576SOL    HW3 2378   2.657   4.338   0.397 -1.9262 -1.4074 -0.1209
  576SOL    MW4 2379   2.611   4.373   0.462 -0.5803 -0.4702  0.3541
  577SOL     OW 2380   1.360   3.515   1.125 -0.1880  0.2559 -0.0500
  577SOL    HW2 2381   1.345   3.422   1.141 -2.3680  0.7318  0.7689
  577SOL    HW3 2382   1.351   3.525   1.030  0.8869 -0.4948 -0.2426
  577SOL    MW4 2383   1.357   3.504   1.115 -0.3338  0.2196  0.0327
  578SOL     OW 2384   1.561   3.641   1.281 -0.1557  0.5665  0.2458
  578SOL    HW2 2385   1.557   3.734   1.257  0.6068  0.3414 -0.7806
  578SOL    HW3 2386   1.499   3.598   1.222 -0.2234  0.3731  0.4562
  578SOL    MW4 2387   1.552   3.648   1.270 -0.0640  0.5112  0.1383
  579SOL     OW 2388   1.573   3.911   1.201  0.2057  0.1865 -0.1545
  579SOL    HW2 2389   1.497   3.963   1.228  0.1408  0.0524 -0.0762
  579SOL    HW3 2390   1.577   3.921   1.106 -0.9013 -1.1364 -0.3553
  579SOL    MW4 2391   1.563   3.919   1.192  0.0511 -0.0060 -0.1706
  580SOL     OW 2392   1.348   4.064   1.277  0.6699 -0.1311  0.5872
  580SOL    HW2 2393   1.344   4.145   1.226  1.1120 -0.4349  0.0604
  580SOL    HW3 2394   1.279   4.009   1.240 -0.5665  0.5133  1.8660
  580SOL    MW4 2395   1.339   4.067   1.266  0.5652 -0.0868  0.6865
  581SOL     OW 2396   1.331   4.325   1.141  0.0912 -0.5042 -0.3224
  581SOL    HW2 2397   1.246   4.362   1.164 -0.0341 -0.8381 -0.2475
  581SOL    HW3 2398   1.329   4.316   1.046  0.1270 -0.3061 -0.3419
  581SOL    MW4 2399   1.320   4.329   1.131  0.0794 -0.5221 -0.3152
  582SOL     OW 2400   1.540   4.666   1.155 -0.6738 -0.0538  0.4334
  582SOL    HW2 2401   1.625   4.690   1.192 -0.6138  0.4597 -0.0270
  582SOL    HW3 2402   1.533   4.572   1.168 -0.5868  0.1012  1.6260
  582SOL    MW4 2403   1.550   4.657   1.162 -0.6543  0.0344  0.5299
  583SOL     OW 2404   2.000   0.028   1.141 -0.1145  0.6278 -0.4160
  583SOL    HW2 2405   2.012  -0.063   1.169 -0.7727  0.9424  0.9334
  583SOL    HW3 2406   1.992   0.023   1.046 -0.2402 -0.7410 -0.3422
  583SOL    MW4 2407   2.000   0.015   1.132 -0.2177  0.4888 -0.2282
  584SOL     OW 2408   1.770   0.115   1.236 -0.0811  0.0168 -0.2255
  584SOL    HW2 2409   1.756   0.193   1.183  1.0881 -0.8371 -1.8107
  584SOL    HW3 2410   1.849   0.075   1.201 -0.0872 -1.3388  1.2284
  584SOL    MW4 2411   1.778   0.120   1.225  0.0724 -0.2747 -0.2427
  585SOL     OW 2412   1.738   0.390   1.117 -0.3566  0.5571 -0.4597
  585SOL    HW2 2413   1.668   0.410   1.180  0.8299  1.0198  0.7368
  585SOL    HW3 2414   1.701   0.414   1.032 -2.5620 -1.5280 -0.1581
  585SOL    MW4 2415   1.724   0.395   1.114 -0.4910  0.3431 -0.2621
  586SOL     OW 2416   2.001   0.497   1.193 -0.4061 -0.0098  0.6645
  586SOL    HW2 2417   2.007   0.480   1.287 -0.7398 -1.3669  0.4561
  586SOL    HW3 2418   1.918   0.457   1.166 -0.2079  0.1740 -0.2488
  586SOL    MW4 2419   1.991   0.489   1.202 -0.4241 -0.1646  0.5163
  587SOL     OW 2420   2.072   0.767   1.125 -0.0414 -0.2202 -0.1787
  587SOL    HW2 2421   2.055   0.770   1.031  0.9873  0.2392 -0.3570
  587SOL    HW3 2422   2.053   0.676   1.150  0.2223 -0.4884 -0.9329
  587SOL    MW4 2423   2.067   0.755   1.116  0.1292 -0.1950 -0.3017
  588SOL     OW 2424   1.817   0.901   1.205 -0.0215  0.1825  0.5985
  588SOL    HW2 2425   1.821   0.897   1.301  1.3406  0.7076  0.5807
  588SOL    HW3 2426   1.900   0.863   1.176 -0.3182  0.2602 -0.3767
  588SOL    MW4 2427   1.828   0.895   1.214  0.1190  0.2620  0.4675
  589SOL     OW 2428   1.816   1.178   1.189  0.0602  0.0059  0.2758
  589SOL    HW2 2429   1.899   1.217   1.218 -0.3131  1.1990 -0.2164
  589SOL    HW3 2430   1.827   1.084   1.204  1.5755  0.1268  0.0510
  589SOL    MW4 2431   1.828   1.171   1.195  0.2109  0.1792  0.1812
  590SOL     OW 2432   2.257   1.186   1.068  0.3861  0.0573 -0.3618
  590SOL    HW2 2433   2.205   1.172   0.989  1.0230  0.5676 -0.8710
  590SOL    HW3 2434   2.278   1.097   1.099 -2.7690 -0.2264  1.1847
  590SOL    MW4 2435   2.253   1.172   1.062  0.0536  0.0871 -0.2249
  591SOL     OW 2436   2.055   1.305   1.276 -0.5351 -0.7262  0.0928
  591SOL    HW2 2437   2.130   1.273   1.226 -0.1183  0.6914 -0.2191
  591SOL    HW3 2438   2.036   1.391   1.237 -0.7093  0.0337  1.8143
  591SOL    MW4 2439   2.063   1.312   1.264 -0.5031 -0.4389  0.2788
  592SOL     OW 2440   1.811   1.707   1.235 -0.4081  0.0011 -0.2821
  592SOL    HW2 2441   1.813   1.801   1.216 -0.1149 -0.1269 -0.8984
  592SOL    HW3 2442   1.801   1.701   1.330  1.3783  0.6589 -0.0334
  592SOL    MW4 2443   1.810   1.718   1.245 -0.1336  0.0710 -0.3304
  593SOL     OW 2444   1.802   1.955   1.159  0.7884  0.0958  0.1811
  593SOL    HW2 2445   1.719   1.993   1.188  0.0787 -2.1580  1.2068
  593SOL    HW3 2446   1.797   1.955   1.063 -0.9844 -1.2573  0.2566
  593SOL    MW4 2447   1.791   1.960   1.150  0.4609 -0.3799  0.3264
  594SOL     OW 2448   2.032   2.052   1.278 -0.0384 -0.3629 -0.2067
  594SOL    HW2 2449   2.031   2.069   1.372 -0.5168 -1.1855 -0.0541
  594SOL    HW3 2450   1.947   2.012   1.260  0.0525 -0.2112 -0.9901
  594SOL    MW4 2451   2.021   2.049   1.288 -0.0894 -0.4513 -0.2899
  595SOL     OW 2452   4.050   2.063   0.909  0.1151  0.3137  0.2928
  595SOL    HW2 2453   4.054   2.004   0.834 -1.0445  1.2264 -0.4919
  595SOL    HW3 2454   3.964   2.104   0.903  0.5669  1.4329  1.3355
  595SOL    MW4 2455   4.039   2.060   0.898  0.0215  0.5817  0.3269
  596SOL     OW 2456   1.573   1.819   0.757  0.3973 -0.7235  0.2358
  596SOL    HW2 2457   1.520   1.832   0.678 -0.7204 -0.4126  1.0394
  596SOL    HW3 2458   1.576   1.724   0.769  0.5439 -0.7699 -0.1570
  596SOL    MW4 2459   1.567   1.808   0.748  0.2692 -0.6884  0.2900
  597SOL     OW 2460   1.754   2.718   1.116 -0.0547 -0.0856  0.2924
  597SOL    HW2 2461   1.724   2.705   1.026  1.3210 -0.3917 -0.1308
  597SOL    HW3 2462   1.757   2.630   1.154  1.2867 -0.1830  0.0007
  597SOL    MW4 2463   1.750   2.705   1.109  0.3039 -0.1388  0.1981
  598SOL     OW 2464   1.993   2.843   1.170  0.2753 -0.0757 -0.0245
  598SOL    HW2 2465   1.984   2.933   1.137  0.7447 -0.5572 -1.5089
  598SOL    HW3 2466   1.918   2.797   1.134  0.1657 -0.3282  0.5400
  598SOL    MW4 2467   1.982   2.849   1.161  0.3227 -0.1726 -0.1458
  599SOL     OW 2468   1.983   3.144   1.134  0.2264 -0.0129 -0.1905
  599SOL    HW2 2469   1.998   3.204   1.061  0.8169 -1.9885 -1.7353
  599SOL    HW3 2470   1.904   3.177   1.177 -0.0167  1.2876 -1.6205
  599SOL    MW4 2471   1.974   3.156   1.130  0.2723 -0.1018 -0.5829
  600SOL     OW 2472   1.791   3.310   1.231 -0.1336  0.5209  0.1012
  600SOL    HW2 2473   1.773   3.315   1.325  0.1342  1.3590  0.1144
  600SOL    HW3 2474   1.797   3.401   1.203  0.4066  0.2710 -0.6102
  600SOL    MW4 2475   1.790   3.322   1.240 -0.0269  0.5982  0.0091
  601SOL     OW 2476   1.768   3.566   1.127  0.2670  0.1785  0.0081
  601SOL    HW2 2477   1.851   3.602   1.159  0.0352 -0.1089  0.9205
  601SOL    HW3 2478   1.701   3.607   1.181 -0.1549  0.0341 -0.4051
  601SOL    MW4 2479   1.770   3.576   1.138  0.1808  0.1216  0.0740
  602SOL     OW 2480   2.012   3.659   1.262 -0.2282 -0.4519 -0.7049
  602SOL    HW2 2481   2.006   3.674   1.356  1.4287  0.4623 -0.7277
  602SOL    HW3 2482   2.100   3.624   1.248 -0.4873 -0.6627 -1.9130
  602SOL    MW4 2483   2.022   3.656   1.273 -0.0436 -0.3591 -0.8672
  603SOL     OW 2484   2.029   3.915   1.124  0.0192 -0.0640 -0.1221
  603SOL    HW2 2485   1.967   3.974   1.168  0.5695 -0.2261  0.8577
  603SOL    HW3 2486   2.032   3.837   1.179  0.2195 -0.5279 -0.7844
  603SOL    MW4 2487   2.021   3.913   1.137  0.1185 -0.1466 -0.0801
  604SOL     OW 2488   1.824   4.053   1.248  0.2364  0.1126  0.2682
  604SOL    HW2 2489   1.747   4.002   1.225 -0.4425  0.8681  0.8433
  604SOL    HW3 2490   1.821   4.059   1.343  0.4252  1.0477  0.2168
  604SOL    MW4 2491   1.813   4.047   1.258  0.1719  0.3357  0.3372
  605SOL     OW 2492   1.791   4.294   1.108  0.3833  0.1121  0.2822
  605SOL    HW2 2493   1.791   4.207   1.148 -1.8155  0.1575  0.4184
  605SOL    HW3 2494   1.717   4.339   1.149 -0.3227  1.0299 -1.9377
  605SOL    MW4 2495   1.781   4.288   1.119  0.0000  0.2389  0.0072
  606SOL     OW 2496   2.013   4.418   1.206 -0.0343  0.0050 -0.5237
  606SOL    HW2 2497   2.009   4.405   1.301  2.2908 -0.9618 -0.5359
  606SOL    HW3 2498   1.944   4.361   1.171  0.9725 -1.8240  0.4026
  606SOL    MW4 2499   2.003   4.409   1.214  0.4053 -0.3638 -0.4032
  607SOL     OW 2500   2.475   0.018   1.153  0.1786 -0.2459 -0.1576
  607SOL    HW2 2501   2.549   0.065   1.191  0.7468 -0.7293 -0.6582
  607SOL    HW3 2502   2.399   0.053   1.198  0.4594  2.1125 -1.4232
  607SOL    MW4 2503   2.475   0.029   1.164  0.2911  0.0015 -0.3905
  608SOL     OW 2504   2.228   0.123   1.249 -0.0471 -0.1122  0.0023
  608SOL    HW2 2505   2.258   0.208   1.218  1.0612 -0.5375 -0.1155
  608SOL    HW3 2506   2.144   0.110   1.206 -0.8027  1.4653  0.9727
  608SOL    MW4 2507   2.221   0.132   1.239 -0.0005  0.0398  0.1148
  609SOL     OW 2508   2.722   3.837   0.538  0.1707  0.1774  0.2333
  609SOL    HW2 2509   2.637   3.873   0.513  0.4730 -0.0402 -1.1506
  609SOL    HW3 2510   2.710   3.808   0.629 -1.1229  0.4632  0.1640
  609SOL    MW4 2511   2.709   3.838   0.547  0.0401  0.1867  0.0415
  610SOL     OW 2512   2.445   0.530   1.195  0.2907 -0.2872  0.0695
  610SOL    HW2 2513   2.444   0.521   1.290 -0.5666  1.7145  0.2797
  610SOL    HW3 2514   2.371   0.478   1.164 -0.9092  0.9934  0.7225
  610SOL    MW4 2515   2.435   0.522   1.203  0.0193  0.1457  0.1835
  611SOL     OW 2516   2.500   0.781   1.093 -0.3701  0.0438 -0.1374
  611SOL    HW2 2517   2.483   0.690   1.117 -0.3576 -0.2482 -1.2229
  611SOL    HW3 2518   2.510   0.780   0.998 -0.7425  1.2403 -0.2022
  611SOL    MW4 2519   2.499   0.769   1.084 -0.4177  0.1631 -0.2892
  612SOL     OW 2520   2.273   0.934   1.176  0.0257  0.1612  0.0080
  612SOL    HW2 2521   2.350   0.880   1.162  1.0128  1.1950  1.3217
  612SOL    HW3 2522   2.199   0.874   1.166  1.0007 -0.8826 -1.0089
  612SOL    MW4 2523   2.273   0.919   1.173  0.2847  0.1600  0.0472
  613SOL     OW 2524   2.489   1.283   1.195 -0.3494 -0.1822 -0.3112
  613SOL    HW2 2525   2.476   1.378   1.203 -1.2382 -0.5057  3.0520
  613SOL    HW3 2526   2.424   1.255   1.131 -1.4653  1.2297  0.1784
  613SOL    MW4 2527   2.479   1.292   1.188 -0.6139 -0.0386  0.1969
  614SOL     OW 2528   2.436   1.552   1.138  0.3434  0.3734  0.0485
  614SOL    HW2 2529   2.427   1.544   1.043  1.1261 -0.7928  0.0593
  614SOL    HW3 2530   2.514   1.606   1.151  0.7276 -0.1728  0.0283
  614SOL    MW4 2531   2.445   1.558   1.127  0.4976  0.1475  0.0472
  615SOL     OW 2532   0.809   0.902   0.889 -0.0475  0.3494 -0.1843
  615SOL    HW2 2533   0.896   0.923   0.857  0.0543 -1.1758 -0.9363
  615SOL    HW3 2534   0.787   0.818   0.848 -2.1353  1.0296 -0.5403
  615SOL    MW4 2535   0.817   0.893   0.880 -0.3095  0.2379 -0.3304
  616SOL     OW 2536   0.993   0.260   0.682 -0.0304 -0.5531  0.2422
  616SOL    HW2 2537   0.949   0.325   0.737 -0.1145 -1.0885  0.8221
  616SOL    HW3 2538   1.032   0.199   0.745 -1.1136 -1.8169 -0.2792
  616SOL    MW4 2539   0.992   0.260   0.698 -0.1844 -0.7905  0.2499
  617SOL     OW 2540   3.522   2.284   0.589 -0.2015  0.0606 -0.3086
  617SOL    HW2 2541   3.610   2.318   0.580 -0.7585  1.5242 -0.2748
  617SOL    HW3 2542   3.502   2.290   0.682 -0.7356  0.7697 -0.4613
  617SOL    MW4 2543   3.531   2.289   0.600 -0.3455  0.3471 -0.3242
  618SOL     OW 2544   2.482   2.074   1.259 -0.0237  0.0838  0.2437
  618SOL    HW2 2545   2.474   2.069   1.354  0.1783  2.1430  0.3897
  618SOL    HW3 2546   2.401   2.036   1.226 -0.8538  0.9557  1.2679
  618SOL    MW4 2547   2.470   2.068   1.267 -0.1068  0.4706  0.3982
  619SOL     OW 2548   2.005   2.330   0.905  0.1117  0.0741  0.1981
  619SOL    HW2 2549   1.921   2.285   0.896  0.7942 -1.3224  0.5989
  619SOL    HW3 2550   2.020   2.333   1.000 -0.6017  2.4597  0.2610
  619SOL    MW4 2551   1.996   2.324   0.916  0.1076  0.2046  0.2593
  620SOL     OW 2552   2.897   2.262   1.164 -0.3765  0.1000  0.3695
  620SOL    HW2 2553   2.978   2.290   1.207 -0.2121  0.2606 -0.0432
  620SOL    HW3 2554   2.828   2.311   1.210 -0.1626  0.5816  0.1876
  620SOL    MW4 2555   2.898   2.272   1.176 -0.3264  0.1845  0.2909
  621SOL     OW 2556   1.602   4.330   0.738 -0.1893 -0.0621 -0.0035
  621SOL    HW2 2557   1.684   4.357   0.780 -0.0939 -1.7300  0.9502
  621SOL    HW3 2558   1.608   4.364   0.649  1.4151  0.0550  0.1347
  621SOL    MW4 2559   1.614   4.338   0.732  0.0349 -0.2670  0.1405
  622SOL     OW 2560   2.476   2.867   1.267  0.0903 -0.2516 -0.1320
  622SOL    HW2 2561   2.549   2.813   1.239 -0.2699 -0.3065 -0.9696
  622SOL    HW3 2562   2.486   2.873   1.362  1.4137  0.0811 -0.2787
  622SOL    MW4 2563   2.487   2.861   1.276  0.2174 -0.2151 -0.2618
  623SOL     OW 2564   2.463   3.113   1.146 -0.2122 -0.3610 -0.0298
  623SOL    HW2 2565   2.471   3.020   1.170 -0.4570 -0.8976 -1.9512
  623SOL    HW3 2566   2.378   3.139   1.182 -1.1563 -1.4988 -1.3772
  623SOL    MW4 2567   2.452   3.104   1.154 -0.3693 -0.5820 -0.4612
  624SOL     OW 2568   2.255   3.228   1.253  0.3505  0.1125 -0.6519
  624SOL    HW2 2569   2.260   3.323   1.261 -1.6224  0.3034 -1.3744
  624SOL    HW3 2570   2.172   3.212   1.207  0.2447 -1.9854  0.2046
  624SOL    MW4 2571   2.244   3.238   1.248  0.0761 -0.1390 -0.6343
  625SOL     OW 2572   2.277   3.539   1.226  0.2487  0.4410  0.3582
  625SOL    HW2 2573   2.362   3.577   1.247  0.7969 -0.1741 -0.7566
  625SOL    HW3 2574   2.279   3.526   1.131 -1.0633  0.3707  0.3328
  625SOL    MW4 2575   2.288   3.543   1.216  0.1481  0.3507  0.2077
  626SOL     OW 2576   2.526   3.646   1.279  0.4279  0.0786  0.0877
  626SOL    HW2 2577   2.494   3.658   1.369  0.1662  1.0289 -0.1219
  626SOL    HW3 2578   2.525   3.734   1.242 -3.4877 -0.8085 -2.2042
  626SOL    MW4 2579   2.521   3.659   1.286 -0.1233  0.0868 -0.2424
  627SOL     OW 2580   2.460   3.888   1.150  0.3259 -0.4832  0.5858
  627SOL    HW2 2581   2.397   3.955   1.175 -0.5392 -0.9160 -0.3616
  627SOL    HW3 2582   2.443   3.873   1.057  1.5643 -0.8960  0.4207
  627SOL    MW4 2583   2.449   3.895   1.141  0.3753 -0.5944  0.4390
  628SOL     OW 2584   2.268   4.049   1.217 -0.5573 -0.0122 -0.2880
  628SOL    HW2 2585   2.260   4.140   1.186 -0.0144 -0.4528 -1.7584
  628SOL    HW3 2586   2.192   4.004   1.179 -0.1000 -0.4726 -0.6579
  628SOL    MW4 2587   2.257   4.055   1.208 -0.4253 -0.1311 -0.5307
  629SOL     OW 2588   2.275   4.311   1.105  0.1420 -0.0522  0.4850
  629SOL    HW2 2589   2.201   4.369   1.124  0.8134  0.9857 -0.0162
  629SOL    HW3 2590   2.259   4.279   1.016 -0.1592 -0.5389  0.7114
  629SOL    MW4 2591   2.264   4.314   1.096  0.1910  0.0205  0.4488
  630SOL     OW 2592   2.497   4.423   1.229  0.2448 -0.1456  0.3050
  630SOL    HW2 2593   2.425   4.378   1.185  0.0961  0.0020  0.3958
  630SOL    HW3 2594   2.494   4.513   1.195  0.6621 -0.2563 -0.0209
  630SOL    MW4 2595   2.487   4.429   1.219  0.2801 -0.1411  0.2739
  631SOL     OW 2596   2.936   4.618   1.148 -0.0873 -0.1343  0.3876
  631SOL    HW2 2597   2.942   4.534   1.192 -0.2404 -0.1624  0.3544
  631SOL    HW3 2598   2.926   4.597   1.055 -0.3487 -0.0821  0.4043
  631SOL    MW4 2599   2.936   4.604   1.141 -0.1423 -0.1316  0.3855
  632SOL     OW 2600   2.709   0.132   1.245  0.5432 -0.2974  0.4047
  632SOL    HW2 2601   2.708   0.135   1.341  0.0936 -0.9713  0.4225
  632SOL    HW3 2602   2.790   0.086   1.223 -0.0383 -1.3890  0.5019
  632SOL    MW4 2603   2.719   0.126   1.255  0.4070 -0.5303  0.4200
  633SOL     OW 2604   2.689   0.393   1.164  0.7852 -0.4275 -0.0721
  633SOL    HW2 2605   2.669   0.304   1.193  0.4801 -1.0105 -1.9799
  633SOL    HW3 2606   2.606   0.441   1.172  0.5014 -0.8014 -0.7215
  633SOL    MW4 2607   2.675   0.388   1.169  0.7076 -0.5538 -0.4095
  634SOL     OW 2608   2.942   0.525   1.223  0.2025  0.3410 -0.2137
  634SOL    HW2 2609   3.002   0.462   1.185  1.3234  0.9374  0.5414
  634SOL    HW3 2610   2.855   0.498   1.191  0.9793  0.1587 -2.2230
  634SOL    MW4 2611   2.938   0.513   1.214  0.4528  0.3957 -0.3791
  635SOL     OW 2612   0.795   0.664   0.491 -0.1230  0.2324  0.3002
  635SOL    HW2 2613   0.795   0.757   0.470  1.3340  0.5589  1.6563
  635SOL    HW3 2614   0.768   0.660   0.583  0.4282 -0.6325  0.4295
  635SOL    MW4 2615   0.792   0.675   0.501  0.1420  0.1614  0.4962
  636SOL     OW 2616   2.700   0.919   1.218 -0.1463 -0.1596  0.0868
  636SOL    HW2 2617   2.702   1.000   1.167  0.7896 -0.2585 -0.0461
  636SOL    HW3 2618   2.624   0.871   1.186 -0.4488  0.4800 -0.1344
  636SOL    MW4 2619   2.690   0.923   1.207 -0.0632 -0.0883  0.0401
  637SOL     OW 2620   3.096   3.603   0.546  0.4741  0.3055 -0.1265
  637SOL    HW2 2621   3.179   3.558   0.529 -0.4803 -1.4065 -0.3199
  637SOL    HW3 2622   3.111   3.650   0.628  1.1578 -1.1970  0.6183
  637SOL    MW4 2623   3.109   3.603   0.554  0.4382 -0.1185 -0.0538
  638SOL     OW 2624   2.923   1.545   1.128 -0.0777  0.1863 -0.3228
  638SOL    HW2 2625   3.000   1.586   1.168  1.2768 -2.0279 -0.5621
  638SOL    HW3 2626   2.921   1.456   1.165 -0.8756 -0.7057 -2.4459
  638SOL    MW4 2627   2.933   1.539   1.138 -0.0043 -0.2235 -0.6346
  639SOL     OW 2628   4.438   2.256   0.538  0.3968  0.3974 -0.3852
  639SOL    HW2 2629   4.427   2.225   0.628  1.9452  1.4866  0.2024
  639SOL    HW3 2630   4.374   2.206   0.487 -0.1765 -0.5580  1.2407
  639SOL    MW4 2631   4.428   2.245   0.543  0.5260  0.4151 -0.0932
  640SOL     OW 2632   0.968   2.352   0.655  0.6955 -0.0396  0.3263
  640SOL    HW2 2633   1.042   2.376   0.710  0.7544  2.1182 -0.6634
  640SOL    HW3 2634   0.893   2.355   0.714  0.8544  1.6190  0.4697
  640SOL    MW4 2635   0.968   2.356   0.670  0.7243  0.4640  0.2146
  641SOL     OW 2636   2.663   1.902   1.152  0.4934  0.1883 -0.1941
  641SOL    HW2 2637   2.598   1.964   1.185  0.8219 -0.5376  1.8882
  641SOL    HW3 2638   2.741   1.920   1.204  0.6767 -1.7890  0.2334
  641SOL    MW4 2639   2.665   1.913   1.163  0.5608 -0.1686  0.1370
  642SOL     OW 2640   2.917   1.995   1.253 -0.5931  0.2973  0.1439
  642SOL    HW2 2641   2.911   2.081   1.212 -2.0280  0.0697 -0.1694
  642SOL    HW3 2642   2.929   2.012   1.346 -0.1370  0.8317 -0.0144
  642SOL    MW4 2643   2.918   2.008   1.260 -0.7222  0.3378  0.0818
  643SOL     OW 2644   2.887   1.153   0.371 -0.0055 -0.3582 -0.3395
  643SOL    HW2 2645   2.933   1.236   0.381 -0.5018 -0.1736  0.4636
  643SOL    HW3 2646   2.796   1.174   0.391 -0.1872 -1.0322 -0.4590
  643SOL    MW4 2647   2.881   1.167   0.375 -0.0951 -0.4228 -0.2493
  644SOL     OW 2648   2.905   2.299   1.612  0.4069 -0.2505  0.2630
  644SOL    HW2 2649   2.906   2.291   1.708  1.5372  0.6837  0.3420
  644SOL    HW3 2650   2.823   2.344   1.592  0.3626 -0.0849  0.8164
  644SOL    MW4 2651   2.895   2.304   1.622  0.5500 -0.1054  0.3463
  645SOL     OW 2652   3.149   3.026   0.710  0.1840  0.1640  0.1822
  645SOL    HW2 2653   3.074   3.025   0.770 -0.1756  2.0639 -0.1866
  645SOL    HW3 2654   3.224   3.045   0.766 -0.2070  2.3324  0.0264
  645SOL    MW4 2655   3.149   3.028   0.725  0.0849  0.7010  0.1130
  646SOL     OW 2656   2.914   2.826   1.241  0.3094  0.2108 -0.2987
  646SOL    HW2 2657   2.977   2.765   1.202  0.3403 -0.7458  1.2097
  646SOL    HW3 2658   2.926   2.816   1.335 -1.0045  1.1892 -0.0115
  646SOL    MW4 2659   2.924   2.817   1.248  0.1400  0.2141 -0.0618
  647SOL     OW 2660   3.825   2.214   0.895  0.1664  0.1103  0.1171
  647SOL    HW2 2661   3.747   2.163   0.873  0.2929  0.6915 -1.7419
  647SOL    HW3 2662   3.814   2.236   0.987 -1.4107 -0.6126  0.1114
  647SOL    MW4 2663   3.813   2.210   0.904 -0.0250  0.0916 -0.1289
  648SOL     OW 2664   2.704   3.245   1.549  0.3444 -0.3935  0.0817
  648SOL    HW2 2665   2.780   3.198   1.584  0.7501  1.1410  1.3049
  648SOL    HW3 2666   2.709   3.232   1.454  1.4472 -1.3065  0.2498
  648SOL    MW4 2667   2.714   3.237   1.541  0.5436 -0.3116  0.2652
  649SOL     OW 2668   2.717   3.488   1.147 -0.2509 -0.3572 -0.2463
  649SOL    HW2 2669   2.695   3.406   1.191 -1.3153 -0.0572 -0.2107
  649SOL    HW3 2670   2.654   3.551   1.181 -0.7802 -0.0135 -1.8484
  649SOL    MW4 2671   2.706   3.486   1.157 -0.4611 -0.2723 -0.4530
  650SOL     OW 2672   2.943   3.556   1.288  0.2565  0.1101  0.1873
  650SOL    HW2 2673   2.862   3.526   1.246  1.4139  0.1501 -2.1699
  650SOL    HW3 2674   3.011   3.499   1.251  1.2963 -0.0028  2.2392
  650SOL    MW4 2675   2.941   3.544   1.277  0.5465  0.1004  0.1470
  651SOL     OW 2676   2.903   3.827   1.184 -0.1629  0.1592 -0.3197
  651SOL    HW2 2677   2.987   3.858   1.217 -0.8103  1.3898  0.1803
  651SOL    HW3 2678   2.911   3.731   1.186  1.1211  0.2615 -0.0193
  651SOL    MW4 2679   2.915   3.818   1.189 -0.0787  0.3350 -0.2142
  652SOL     OW 2680   2.688   4.034   1.234  0.1812  0.2948  0.1348
  652SOL    HW2 2681   2.769   3.990   1.207  0.0127 -0.6198  1.0786
  652SOL    HW3 2682   2.618   3.981   1.196 -0.0034  0.4483  0.2605
  652SOL    MW4 2683   2.689   4.021   1.226  0.1347  0.1945  0.2761
  653SOL     OW 2684   2.703   4.286   1.131 -0.1092  0.1492 -0.1249
  653SOL    HW2 2685   2.694   4.198   1.167  2.3418 -0.3537 -0.6167
  653SOL    HW3 2686   2.637   4.338   1.177  0.5146 -1.2511  2.4716
  653SOL    MW4 2687   2.693   4.281   1.142  0.2966 -0.1016  0.1528
  654SOL     OW 2688   2.943   4.365   1.262  0.1340 -0.5725  0.0472
  654SOL    HW2 2689   3.022   4.313   1.251  0.0574 -0.7439  0.3192
  654SOL    HW3 2690   2.878   4.320   1.208  0.3673 -0.1123 -0.6340
  654SOL    MW4 2691   2.945   4.352   1.253  0.1547 -0.5345 -0.0067
  655SOL     OW 2692   2.551   2.536   0.495  0.0893 -0.1313  0.1921
  655SOL    HW2 2693   2.492   2.473   0.454 -1.1493  0.9902  0.1789
  655SOL    HW3 2694   2.507   2.560   0.577  0.5904  0.6193  0.2532
  655SOL    MW4 2695   2.537   2.531   0.500 -0.0079  0.1156  0.1984
  656SOL     OW 2696   3.152   0.074   1.233  0.2261 -0.2563  0.4551
  656SOL    HW2 2697   3.146   0.069   1.329  0.3150 -0.6558  0.4412
  656SOL    HW3 2698   3.070   0.036   1.202 -0.1780  0.6500  0.3831
  656SOL    MW4 2699   3.141   0.068   1.242  0.1843 -0.1894  0.4437
  657SOL     OW 2700   2.032   1.566   1.143 -0.4390  0.1364  0.1121
  657SOL    HW2 2701   2.035   1.586   1.049 -1.0417  1.2146  0.3129
  657SOL    HW3 2702   1.958   1.617   1.176 -0.0963 -0.0608  1.2134
  657SOL    MW4 2703   2.023   1.576   1.135 -0.4733  0.2525  0.2840
  658SOL     OW 2704   2.837   2.440   0.931 -0.0051 -0.8157  0.2208
  658SOL    HW2 2705   2.804   2.528   0.914 -0.3058 -1.1496 -0.9898
  658SOL    HW3 2706   2.860   2.440   1.024  1.2427  0.9313 -0.0637
  658SOL    MW4 2707   2.836   2.452   0.941  0.1197 -0.6292  0.0235
  659SOL     OW 2708   4.007   0.433   1.203  0.1044  0.0713 -0.0322
  659SOL    HW2 2709   4.010   0.341   1.230  1.0028  0.8743  2.7603
  659SOL    HW3 2710   4.098   0.463   1.208 -0.2739  1.2888 -0.2182
  659SOL    MW4 2711   4.019   0.425   1.208  0.1726  0.3378  0.3116
  660SOL     OW 2712   2.671   2.688   1.152  0.0445 -0.3581  0.4719
  660SOL    HW2 2713   2.696   2.599   1.178 -0.1964  0.0663  2.2518
  660SOL    HW3 2714   2.738   2.744   1.193  0.1248  0.2978 -0.5304
  660SOL    MW4 2715   2.683   2.684   1.161  0.0231 -0.2155  0.5745
  661SOL     OW 2716   2.943   1.282   1.238 -0.0589  0.3254 -0.2611
  661SOL    HW2 2717   2.954   1.251   1.328 -1.4556 -0.3923 -0.3339
  661SOL    HW3 2718   3.001   1.225   1.186 -1.8816 -1.5669 -0.2687
  661SOL    MW4 2719   2.952   1.270   1.243 -0.4838 -0.0191 -0.2717
  662SOL     OW 2720   3.584   1.698   1.215 -0.0444 -0.6388 -0.1114
  662SOL    HW2 2721   3.659   1.640   1.207 -0.2130 -1.1085  1.5121
  662SOL    HW3 2722   3.508   1.640   1.205 -0.2188 -0.1342 -1.9712
  662SOL    MW4 2723   3.584   1.683   1.212 -0.0896 -0.6342 -0.1426
  663SOL     OW 2724   3.173   1.486   0.660  0.6444  0.0684  0.2392
  663SOL    HW2 2725   3.208   1.547   0.595  1.2118 -1.2691 -0.7269
  663SOL    HW3 2726   3.242   1.420   0.671 -0.6833 -1.4081 -0.0966
  663SOL    MW4 2727   3.187   1.485   0.652  0.5441 -0.3029  0.0674
  664SOL     OW 2728   3.133   1.662   1.256 -0.0623 -0.0187  0.4468
  664SOL    HW2 2729   3.158   1.748   1.222  1.3917 -0.6779 -0.2135
  664SOL    HW3 2730   3.127   1.673   1.350 -0.0908  0.8604  0.3416
  664SOL    MW4 2731   3.136   1.675   1.264  0.1261  0.0104  0.3459
  665SOL     OW 2732   3.161   1.905   1.151  0.0753  0.5122 -0.0925
  665SOL    HW2 2733   3.221   1.963   1.197  0.0963 -0.1438  0.7270
  665SOL    HW3 2734   3.074   1.936   1.175  0.0740  0.9887 -0.6773
  665SOL    MW4 2735   3.158   1.917   1.160  0.0780  0.4886 -0.0616
  666SOL     OW 2736   3.351   2.080   1.252 -0.5375  0.6803  0.3638
  666SOL    HW2 2737   3.374   2.062   1.343 -0.6358 -1.5527 -0.0397
  666SOL    HW3 2738   3.420   2.037   1.201 -1.8409 -0.1709 -0.6892
  666SOL    MW4 2739   3.363   2.072   1.257 -0.7224  0.2735  0.1717
  667SOL     OW 2740   3.806   2.852   1.246 -0.2807  0.3530 -0.1309
  667SOL    HW2 2741   3.793   2.856   1.341  0.1177  1.1198 -0.1088
  667SOL    HW3 2742   3.727   2.809   1.213  0.4995 -1.8751  0.7511
  667SOL    MW4 2743   3.794   2.847   1.254 -0.1256  0.1605 -0.0117
  668SOL     OW 2744   3.132   2.403   1.270 -0.4092  0.0394 -0.2019
  668SOL    HW2 2745   3.139   2.424   1.364 -1.5100 -0.3787 -0.0242
  668SOL    HW3 2746   3.223   2.401   1.240 -0.0584  0.4746  0.7958
  668SOL    MW4 2747   3.145   2.405   1.279 -0.5081  0.0420 -0.0468
  669SOL     OW 2748   4.239   0.006   0.452 -0.0004  0.1697 -0.1009
  669SOL    HW2 2749   4.266   0.042   0.368 -0.4904  0.8021  0.0121
  669SOL    HW3 2750   4.270   0.069   0.516 -0.1765  0.0041  0.1483
  669SOL    MW4 2751   4.247   0.019   0.449 -0.0882  0.2313 -0.0531
  670SOL     OW 2752   3.338   3.084   1.168  0.0951 -0.1824  0.1413
  670SOL    HW2 2753   3.409   3.131   1.211 -0.7365  0.6096  0.6527
  670SOL    HW3 2754   3.258   3.122   1.203 -0.5961 -0.7701 -0.7522
  670SOL    MW4 2755   3.336   3.095   1.178 -0.1056 -0.1554  0.0908
  671SOL     OW 2756   3.566   2.027   0.476  0.5001 -0.0239  0.4219
  671SOL    HW2 2757   3.570   1.969   0.551  2.5241  0.1144  0.4475
  671SOL    HW3 2758   3.558   2.115   0.513 -0.6125 -0.1138  0.4175
  671SOL    MW4 2759   3.566   2.031   0.491  0.6204 -0.0174  0.4247
  672SOL     OW 2760   3.117   3.183   1.275 -0.6934 -0.0794 -0.4271
  672SOL    HW2 2761   3.117   3.272   1.241 -0.2801 -0.0367 -0.3292
  672SOL    HW3 2762   3.121   3.194   1.370 -1.1231 -0.1986 -0.3971
  672SOL    MW4 2763   3.118   3.196   1.283 -0.6957 -0.0896 -0.4102
  673SOL     OW 2764   3.152   3.423   1.159  0.2613  0.3007 -0.2538
  673SOL    HW2 2765   3.152   3.421   1.063  0.7480  1.4226 -0.2886
  673SOL    HW3 2766   3.228   3.477   1.181  0.4815 -0.4307  0.7802
  673SOL    MW4 2767   3.162   3.430   1.149  0.3545  0.3521 -0.1218
  674SOL     OW 2768   3.374   3.577   1.246  0.0328 -0.5914  0.6163
  674SOL    HW2 2769   3.384   3.583   1.341 -0.6337 -0.9147  0.7127
  674SOL    HW3 2770   3.397   3.664   1.214  1.0219 -0.7102  1.0021
  674SOL    MW4 2771   3.378   3.590   1.254  0.0753 -0.6497  0.6800
  675SOL     OW 2772   3.377   3.855   1.150  0.5511  0.3725  0.1527
  675SOL    HW2 2773   3.294   3.871   1.194  0.5161  0.5765  0.0099
  675SOL    HW3 2774   3.438   3.916   1.190  0.5426  0.4901 -0.0139
  675SOL    MW4 2775   3.374   3.865   1.161  0.5453  0.4146  0.1118
  676SOL     OW 2776   3.145   3.941   1.285  0.3261  0.3264 -0.7956
  676SOL    HW2 2777   3.171   3.924   1.375  0.0054  0.0194 -0.7605
  676SOL    HW3 2778   3.154   4.036   1.275  2.3591  0.1284 -1.0687
  676SOL    MW4 2779   3.149   3.951   1.295  0.5519  0.2599 -0.8270
  677SOL     OW 2780   3.165   4.205   1.199 -0.2178  0.2772 -0.2409
  677SOL    HW2 2781   3.240   4.264   1.185 -0.5563  1.1296  1.3937
  677SOL    HW3 2782   3.134   4.184   1.111 -0.0065  2.4583 -0.8622
  677SOL    MW4 2783   3.171   4.210   1.185 -0.2344  0.6776 -0.1072
  678SOL     OW 2784   3.376   4.373   1.203  0.6031 -0.1274  0.4187
  678SOL    HW2 2785   3.462   4.343   1.172 -0.3671 -1.3919 -1.1177
  678SOL    HW3 2786   3.367   4.461   1.166 -0.5499 -1.6265 -3.0460
  678SOL    MW4 2787   3.386   4.380   1.194  0.3231 -0.4921 -0.2410
  679SOL     OW 2788   4.029   0.160   1.269 -0.0164 -0.0955  0.1328
  679SOL    HW2 2789   4.027   0.145   1.363  1.1358 -0.8158  0.0461
  679SOL    HW3 2790   3.949   0.118   1.237 -0.8395  0.8841  0.8840
  679SOL    MW4 2791   4.018   0.152   1.277  0.0272 -0.0613  0.2204
  680SOL     OW 2792   3.390   4.628   1.120  0.2479  0.0338  0.1615
  680SOL    HW2 2793   3.309   4.664   1.156  0.2297 -0.2499  0.4044
  680SOL    HW3 2794   3.459   4.662   1.176  0.2342 -0.2781  0.3686
  680SOL    MW4 2795   3.389   4.637   1.132  0.2437 -0.0448  0.2209
  681SOL     OW 2796   3.587   0.086   1.297 -0.2895 -0.6067  0.5105
  681SOL    HW2 2797   3.577   0.181   1.290 -0.9478 -0.5806  1.7222
  681SOL    HW3 2798   3.668   0.066   1.249 -1.1388  0.3404 -1.3405
  681SOL    MW4 2799   3.596   0.096   1.290 -0.4885 -0.4783  0.4262
  682SOL     OW 2800   4.075   3.009   0.801  0.2362  0.0190  0.3768
  682SOL    HW2 2801   3.989   3.032   0.837  0.8389 -0.3133  2.0692
  682SOL    HW3 2802   4.076   2.913   0.803 -0.4514 -0.0776 -2.3163
  682SOL    MW4 2803   4.063   2.999   0.806  0.2251 -0.0377  0.2447
  683SOL     OW 2804   0.863   4.427   0.486  0.3585 -0.3662 -0.4762
  683SOL    HW2 2805   0.877   4.473   0.569 -0.4012 -2.0901  0.6389
  683SOL    HW3 2806   0.816   4.490   0.432 -1.0783  0.0497  1.1911
  683SOL    MW4 2807   0.858   4.442   0.490  0.0687 -0.5388 -0.1091
  684SOL     OW 2808   2.417   4.068   0.668 -0.2025  0.4775  0.1365
  684SOL    HW2 2809   2.412   4.018   0.587  0.0125 -0.2141  0.5475
  684SOL    HW3 2810   2.397   4.004   0.737  1.6141  0.5884  0.7906
  684SOL    MW4 2811   2.413   4.053   0.666  0.0656  0.4010  0.2770
  685SOL     OW 2812   0.564   3.790   0.506  0.3475  0.6222  0.0895
  685SOL    HW2 2813   0.649   3.746   0.505  0.1777  0.2741  0.8738
  685SOL    HW3 2814   0.580   3.875   0.465  1.2022  0.8119  0.8168
  685SOL    MW4 2815   0.577   3.795   0.500  0.4378  0.6015  0.2890
  686SOL     OW 2816   0.071   2.772   0.863  0.6465 -0.5156  0.1631
  686SOL    HW2 2817   0.138   2.706   0.851 -1.1628 -2.4178  0.2084
  686SOL    HW3 2818   0.056   2.774   0.958  0.3353 -0.3975  0.1120
  686SOL    MW4 2819   0.078   2.764   0.874  0.3668 -0.7513  0.1624
  687SOL     OW 2820   3.364   1.716   0.799  0.3402  0.0397 -0.1860
  687SOL    HW2 2821   3.398   1.643   0.851  0.6567  0.4413  0.1717
  687SOL    HW3 2822   3.281   1.739   0.841  0.4485  0.1660 -0.0412
  687SOL    MW4 2823   3.357   1.709   0.811  0.3965  0.1093 -0.1197
  688SOL     OW 2824   4.473   1.663   1.235  0.5551  0.0456 -0.4007
  688SOL    HW2 2825   4.398   1.627   1.189 -0.2888  0.2721  0.7924
  688SOL    HW3 2826   4.548   1.612   1.202 -0.3434 -1.3803 -0.2664
  688SOL    MW4 2827   4.473   1.652   1.224  0.3252 -0.1125 -0.2255
  689SOL     OW 2828   3.422   1.150   0.519  0.1628 -0.3330 -0.0983
  689SOL    HW2 2829   3.517   1.142   0.507 -0.0737 -2.0921 -0.9014
  689SOL    HW3 2830   3.412   1.188   0.607  1.6259  1.2297 -0.5652
  689SOL    MW4 2831   3.433   1.154   0.529  0.3247 -0.3589 -0.2658
  690SOL     OW 2832   3.765   2.043   1.273 -0.2796  0.1965 -0.4393
  690SOL    HW2 2833   3.777   2.046   1.368 -0.5174  0.4799 -0.4178
  690SOL    HW3 2834   3.844   2.000   1.240 -0.3264 -0.1674 -0.0895
  690SOL    MW4 2835   3.777   2.037   1.281 -0.3173  0.1860 -0.3903
  691SOL     OW 2836   3.806   2.288   1.160  0.1041 -0.1313  0.3816
  691SOL    HW2 2837   3.801   2.208   1.214 -1.1182 -0.5153 -0.2823
  691SOL    HW3 2838   3.731   2.340   1.188  1.2420  1.0873  1.2455
  691SOL    MW4 2839   3.795   2.284   1.171  0.0930 -0.0215  0.4079
  692SOL     OW 2840   3.376   2.347   1.147  0.5327 -0.1147 -0.0387
  692SOL    HW2 2841   3.452   2.397   1.178 -1.3234  1.8023  1.5775
  692SOL    HW3 2842   3.376   2.268   1.200  1.7085 -0.4172 -0.4584
  692SOL    MW4 2843   3.386   2.344   1.158  0.4427  0.0985  0.1192
  693SOL     OW 2844   4.370   0.405   0.402  0.3739 -0.1205  0.1890
  693SOL    HW2 2845   4.458   0.403   0.440  0.1553  1.3168  0.8064
  693SOL    HW3 2846   4.369   0.331   0.342  1.3849 -1.2482  1.5262
  693SOL    MW4 2847   4.382   0.395   0.399  0.4787 -0.0796  0.4469
  694SOL     OW 2848   3.124   3.717   0.802  0.0445  0.3837  0.4195
  694SOL    HW2 2849   3.123   3.628   0.836  0.5032 -0.2268 -1.1127
  694SOL    HW3 2850   3.210   3.751   0.824  0.0019  0.3243  0.6821
  694SOL    MW4 2851   3.135   3.710   0.809  0.0994  0.2954  0.2520
  695SOL     OW 2852   1.717   2.718   0.844  0.2642  0.2797  0.2039
  695SOL    HW2 2853   1.804   2.681   0.834 -0.2278 -0.3236 -1.9600
  695SOL    HW3 2854   1.721   2.804   0.802 -0.0908  0.3839  0.3729
  695SOL    MW4 2855   1.729   2.725   0.837  0.1526  0.2139 -0.0592
  696SOL     OW 2856   3.558   3.225   1.284 -0.2543 -0.0196 -0.5379
  696SOL    HW2 2857   3.555   3.307   1.236 -3.0234  0.3844  0.2327
  696SOL    HW3 2858   3.640   3.184   1.258  0.0366  1.9032 -2.7171
  696SOL    MW4 2859   3.569   3.231   1.274 -0.5813  0.2873 -0.7237
  697SOL     OW 2860   3.805   3.606   1.237  0.4566  0.1243  0.1297
  697SOL    HW2 2861   3.890   3.576   1.205  0.2506  0.1932 -0.4921
  697SOL    HW3 2862   3.814   3.607   1.332  1.4774  1.1335  0.0223
  697SOL    MW4 2863   3.818   3.602   1.245  0.5641  0.2668  0.0334
  698SOL     OW 2864   3.627   1.000   0.928  0.0212  0.0606 -0.3856
  698SOL    HW2 2865   3.696   0.939   0.953  0.7532 -0.0246 -2.5326
  698SOL    HW3 2866   3.546   0.949   0.938  0.3276 -0.1437  1.1965
  698SOL    MW4 2867   3.625   0.985   0.933  0.1585  0.0224 -0.4601
  699SOL     OW 2868   4.016   4.034   1.276 -0.0827 -0.0187 -0.0397
  699SOL    HW2 2869   4.042   4.093   1.205  0.1899 -2.7482 -2.3140
  699SOL    HW3 2870   3.941   3.986   1.240 -0.1364 -1.2317  1.6320
  699SOL    MW4 2871   4.009   4.035   1.262 -0.0539 -0.5393 -0.1192
  700SOL     OW 2872   3.626   4.034   1.258  0.2242  0.2895  0.1795
  700SOL    HW2 2873   3.681   3.964   1.224 -1.1981 -0.7466 -0.0403
  700SOL    HW3 2874   3.619   4.017   1.351  0.3461  0.4821  0.2254
  700SOL    MW4 2875   3.632   4.023   1.266  0.0527  0.1793  0.1566
  701SOL     OW 2876   3.845   4.398   1.209 -0.4882 -0.4664  0.1160
  701SOL    HW2 2877   3.765   4.374   1.162 -1.2821  0.1059  1.1387
  701SOL    HW3 2878   3.825   4.379   1.301 -0.4070  2.0811  0.7003
  701SOL    MW4 2879   3.832   4.392   1.215 -0.5822 -0.0548  0.3278
  702SOL     OW 2880   3.823   0.023   1.169  0.5703  0.1918 -0.4057
  702SOL    HW2 2881   3.824   0.036   1.074  1.2000  0.3177 -0.3853
  702SOL    HW3 2882   3.833  -0.071   1.180 -0.2385  0.0949 -0.4774
  702SOL    MW4 2883   3.825   0.012   1.158  0.5467  0.1956 -0.4125
  703SOL     OW 2884   4.254   0.035   1.144  0.0917  0.0154 -0.5043
  703SOL    HW2 2885   4.240  -0.054   1.175 -0.1391  0.3656  0.4051
  703SOL    HW3 2886   4.184   0.086   1.184  1.6617  1.0768  1.0066
  703SOL    MW4 2887   4.243   0.030   1.153  0.2685  0.2016 -0.1848
  704SOL     OW 2888   4.277   0.499   1.227  0.4673  0.1177 -0.4502
  704SOL    HW2 2889   4.345   0.433   1.215  1.0008  0.6723 -0.5345
  704SOL    HW3 2890   4.262   0.501   1.321 -0.6270 -1.1800 -0.5832
  704SOL    MW4 2891   4.284   0.491   1.237  0.3929  0.0196 -0.4789
  705SOL     OW 2892   2.473   1.140   0.672 -0.2100 -0.4918 -0.5165
  705SOL    HW2 2893   2.551   1.154   0.725 -0.3470  1.0677 -0.7219
  705SOL    HW3 2894   2.468   1.045   0.663  1.1059 -0.6597  0.3206
  705SOL    MW4 2895   2.482   1.129   0.678 -0.0546 -0.3082 -0.4331
  706SOL     OW 2896   4.024   0.881   1.175 -0.0903  0.1500 -0.3500
  706SOL    HW2 2897   4.010   0.884   1.270 -3.2450 -1.4838 -0.6949
  706SOL    HW3 2898   4.109   0.837   1.165 -0.5130 -1.2183  1.6860
  706SOL    MW4 2899   4.033   0.876   1.186 -0.5622 -0.2461 -0.1268
  707SOL     OW 2900   0.261   2.565   0.769  0.3449  0.0087  0.1695
  707SOL    HW2 2901   0.221   2.573   0.682 -0.1240  0.0500  0.3852
  707SOL    HW3 2902   0.240   2.476   0.796 -1.4592  0.7102  1.1805
  707SOL    MW4 2903   0.253   2.555   0.761  0.0450  0.1066  0.3315
  708SOL     OW 2904   3.871   1.272   1.244 -0.4298  0.0431  0.6339
  708SOL    HW2 2905   3.863   1.255   1.338 -0.7345  0.4801  0.6891
  708SOL    HW3 2906   3.941   1.214   1.215  1.2090  1.5030  1.5560
  708SOL    MW4 2907   3.880   1.262   1.253 -0.2537  0.2934  0.7627
  709SOL     OW 2908   2.241   2.458   1.293 -0.2446 -0.3855 -0.9314
  709SOL    HW2 2909   2.241   2.540   1.244 -1.8961  0.0920 -0.1547
  709SOL    HW3 2910   2.218   2.483   1.382 -0.1109 -1.6142 -0.5436
  709SOL    MW4 2911   2.238   2.472   1.298 -0.4449 -0.4845 -0.7778
  710SOL     OW 2912   2.730   3.523   0.878  0.2363 -0.2777 -0.2351
  710SOL    HW2 2913   2.736   3.506   0.972 -0.8362 -2.6070 -0.5701
  710SOL    HW3 2914   2.795   3.465   0.838 -0.2220 -0.2342 -1.0532
  710SOL    MW4 2915   2.740   3.513   0.885  0.0346 -0.5791 -0.3872
  711SOL     OW 2916   0.049   1.172   1.193 -0.1858 -0.2412  0.8270
  711SOL    HW2 2917  -0.038   1.211   1.194 -0.8759 -1.7288  0.3105
  711SOL    HW3 2918   0.040   1.091   1.243  1.1578  0.1011  1.6577
  711SOL    MW4 2919   0.037   1.167   1.200 -0.0996 -0.3922  0.8684
  712SOL     OW 2920   4.025   1.681   1.225  0.0713 -0.5141  0.2063
  712SOL    HW2 2921   4.013   1.684   1.320 -1.7186 -0.2917 -0.0024
  712SOL    HW3 2922   3.942   1.645   1.192 -0.2283  1.5687 -1.4196
  712SOL    MW4 2923   4.012   1.676   1.233 -0.2046 -0.2099 -0.0356
  713SOL     OW 2924   4.025   1.971   1.186  0.1722 -0.3159 -0.1366
  713SOL    HW2 2925   4.027   1.988   1.092  0.3405 -1.9311 -0.4395
  713SOL    HW3 2926   4.026   1.876   1.193 -1.7948 -0.2596  1.4653
  713SOL    MW4 2927   4.025   1.961   1.175 -0.0653 -0.5217  0.0348
  714SOL     OW 2928   4.260   2.088   1.250 -0.0768  0.0325 -0.3139
  714SOL    HW2 2929   4.243   2.180   1.227 -0.3756  0.3644  1.2113
  714SOL    HW3 2930   4.176   2.044   1.238 -0.4434  0.3729  0.8842
  714SOL    MW4 2931   4.247   2.095   1.245 -0.1645  0.1214  0.0455
  715SOL     OW 2932   4.254   2.346   1.168 -0.0165  0.4509 -0.1932
  715SOL    HW2 2933   4.175   2.393   1.196 -0.7907 -0.3575 -0.9722
  715SOL    HW3 2934   4.245   2.338   1.073 -0.0364 -1.4957 -0.0587
  715SOL    MW4 2935   4.242   2.351   1.159 -0.1211  0.0877 -0.2782
  716SOL     OW 2936   4.010   2.467   1.197  0.4099  0.4469  0.0820
  716SOL    HW2 2937   4.001   2.474   1.292 -1.4404  0.5884 -0.0770
  716SOL    HW3 2938   3.952   2.395   1.173  1.4182 -0.0550 -0.8759
  716SOL    MW4 2939   4.001   2.459   1.206  0.2990  0.3996 -0.0653
  717SOL     OW 2940   3.787   3.107   1.186  0.1438  0.1695  0.4783
  717SOL    HW2 2941   3.794   3.016   1.215 -0.2783  0.4670  1.5058
  717SOL    HW3 2942   3.787   3.101   1.090 -0.9459 -0.9909  0.5348
  717SOL    MW4 2943   3.788   3.094   1.177 -0.0558  0.0556  0.6214
  718SOL     OW 2944   1.721   2.299   0.581 -0.3678 -0.3736  0.2264
  718SOL    HW2 2945   1.732   2.292   0.676 -0.3447  0.5121  0.2855
  718SOL    HW3 2946   1.628   2.282   0.566 -0.8887  2.0492  0.6484
  718SOL    MW4 2947   1.710   2.296   0.592 -0.4336  0.0629  0.2898
  719SOL     OW 2948   4.042   3.249   1.230  0.0522  0.1901  0.4250
  719SOL    HW2 2949   4.022   3.270   1.321 -1.2192  1.2631 -0.0846
  719SOL    HW3 2950   3.965   3.201   1.199  0.0061  0.7868 -0.3930
  719SOL    MW4 2951   4.029   3.246   1.238 -0.1221  0.4106  0.2499
  720SOL     OW 2952   0.468   4.548   0.485 -0.2513  0.1762  0.2177
  720SOL    HW2 2953   0.553   4.572   0.448 -0.9148  0.9504 -0.8295
  720SOL    HW3 2954   0.487   4.523   0.575  1.2967 -1.0160 -0.4202
  720SOL    MW4 2955   0.482   4.548   0.492 -0.1346  0.1211 -0.0046
  721SOL     OW 2956   3.670   3.679   0.441  0.4678 -0.3836 -0.1648
  721SOL    HW2 2957   3.662   3.703   0.533 -1.9048 -0.3623 -0.3287
  721SOL    HW3 2958   3.643   3.587   0.437 -1.2190  0.1208 -1.0592
  721SOL    MW4 2959   3.665   3.670   0.452 -0.0677 -0.3145 -0.3044
  722SOL     OW 2960   3.361   3.089   0.911 -0.4136  0.2101 -0.0329
  722SOL    HW2 2961   3.346   3.081   1.005  0.5739 -0.9063  0.0467
  722SOL    HW3 2962   3.445   3.045   0.896 -0.0392  1.3063 -1.2812
  722SOL    MW4 2963   3.370   3.082   0.921 -0.2341  0.2072 -0.1871
  723SOL     OW 2964   1.764   0.658   0.805 -0.2768 -0.0313 -0.2718
  723SOL    HW2 2965   1.764   0.644   0.710 -0.2221 -1.4213 -0.0728
  723SOL    HW3 2966   1.689   0.716   0.821 -0.8463 -0.5434 -1.0521
  723SOL    MW4 2967   1.754   0.664   0.794 -0.3449 -0.2823 -0.3484
  724SOL     OW 2968   4.488   4.020   1.276  0.2285  0.0363 -0.2565
  724SOL    HW2 2969   4.411   3.976   1.241  1.5114 -0.6347 -2.3485
  724SOL    HW3 2970   4.488   4.000   1.369 -2.1115  0.0545 -0.2385
  724SOL    MW4 2971   4.478   4.012   1.284  0.0887 -0.0501 -0.5302
  725SOL     OW 2972   4.072   4.246   1.121  0.1699 -0.2694  0.0361
  725SOL    HW2 2973   3.989   4.290   1.142  1.8466  2.5040  1.0599
  725SOL    HW3 2974   4.082   4.259   1.027 -0.8321 -1.0840 -0.1837
  725SOL    MW4 2975   4.062   4.254   1.111  0.2589 -0.0105  0.1421
  726SOL     OW 2976   4.239   4.436   1.233 -0.0619  0.3918 -0.1158
  726SOL    HW2 2977   4.173   4.368   1.221 -0.2472  0.3263  1.1952
  726SOL    HW3 2978   4.322   4.391   1.218 -0.2845  0.3931 -1.4148
  726SOL    MW4 2979   4.241   4.421   1.230 -0.1159  0.3839 -0.1143
  727SOL     OW 2980   0.230   4.642   1.616  0.0121  0.2468  0.2389
  727SOL    HW2 2981   0.295   4.701   1.577  0.6860  0.6237  1.9047
  727SOL    HW3 2982   0.147   4.686   1.602  0.5977  2.0832  2.2963
  727SOL    MW4 2983   0.228   4.656   1.609  0.1783  0.5388  0.7302
  728SOL     OW 2984   4.483   0.121   1.553 -0.3047 -0.0714  0.4523
  728SOL    HW2 2985   4.401   0.078   1.577 -0.8324  0.1756 -0.8571
  728SOL    HW3 2986   4.489   0.110   1.458  0.1495  1.7159  0.2658
  728SOL    MW4 2987   4.473   0.114   1.543 -0.3143  0.1970  0.2550
  729SOL     OW 2988   4.456   0.376   1.618  0.1579  0.1547  0.6330
  729SOL    HW2 2989   4.445   0.362   1.712 -0.4890 -0.9352  0.4036
  729SOL    HW3 2990   4.484   0.291   1.585 -0.1923  0.3836 -0.2531
  729SOL    MW4 2991   4.458   0.363   1.626  0.0262  0.0411  0.4858
  730SOL     OW 2992   0.181   0.570   1.527 -0.6128  0.3712  0.0021
  730SOL    HW2 2993   0.111   0.511   1.557  1.1546 -1.1657  1.1997
  730SOL    HW3 2994   0.191   0.550   1.434  0.2312 -1.5281  0.4834
  730SOL    MW4 2995   0.173   0.560   1.519 -0.2683 -0.0821  0.2235
  731SOL     OW 2996   0.229   0.799   1.665 -0.4030  0.0242 -0.6640
  731SOL    HW2 2997   0.303   0.837   1.617 -1.4696  2.5009 -0.4239
  731SOL    HW3 2998   0.212   0.716   1.620  1.6465  0.0449 -1.5525
  731SOL    MW4 2999   0.237   0.793   1.653 -0.2733  0.3537 -0.7496
  732SOL     OW 3000   0.008   0.929   1.557  0.1102 -0.0381  0.0150
  732SOL    HW2 3001   0.009   1.020   1.587  0.2351  0.1946 -0.6923
  732SOL    HW3 3002   0.089   0.892   1.590  0.1066  0.1377  0.2196
  732SOL    MW4 3003   0.018   0.936   1.565  0.1262  0.0158 -0.0513
  733SOL     OW 3004   0.008   1.188   1.612 -0.2660  0.6952  0.0925
  733SOL    HW2 3005   0.022   1.185   1.706  0.8102 -1.5317 -0.0949
  733SOL    HW3 3006   0.095   1.203   1.575 -0.0017 -2.3252 -0.6566
  733SOL    MW4 3007   0.021   1.189   1.619 -0.0892  0.0027 -0.0310
  734SOL     OW 3008   0.270   1.299   1.514 -0.5604  0.2491  0.5087
  734SOL    HW2 3009   0.256   1.386   1.551 -1.0597  0.3248  0.1450
  734SOL    HW3 3010   0.272   1.314   1.419 -1.6833 -0.2783  0.3960
  734SOL    MW4 3011   0.268   1.313   1.506 -0.7744  0.1895  0.4460
  735SOL     OW 3012   0.208   1.551   1.636 -0.4294 -0.0909  0.1423
  735SOL    HW2 3013   0.213   1.558   1.731  0.3124  0.7416  0.0469
  735SOL    HW3 3014   0.124   1.591   1.613 -0.6963 -0.4658  0.4553
  735SOL    MW4 3015   0.198   1.557   1.645 -0.3668 -0.0305  0.1709
  736SOL     OW 3016   4.474   1.690   1.515 -0.2168 -0.0957 -0.0681
  736SOL    HW2 3017   4.477   1.785   1.527 -0.4710 -0.0547 -0.3186
  736SOL    HW3 3018   4.462   1.678   1.421 -3.3387 -0.3152  0.3027
  736SOL    MW4 3019   4.473   1.701   1.504 -0.6622 -0.1193 -0.0521
  737SOL     OW 3020   0.019   1.957   1.564  0.1634  0.3928  0.6034
  737SOL    HW2 3021   0.041   1.936   1.654  1.9946  0.7984  0.2755
  737SOL    HW3 3022  -0.049   2.023   1.571 -0.7804 -0.6809  1.6713
  737SOL    MW4 3023   0.013   1.963   1.577  0.2805  0.3046  0.7011
  738SOL     OW 3024   0.260   2.063   1.456 -0.4062 -0.0692  0.0818
  738SOL    HW2 3025   0.188   2.021   1.502 -1.1605 -0.2107 -1.2265
  738SOL    HW3 3026   0.251   2.036   1.365  1.1885  0.0588 -0.1331
  738SOL    MW4 3027   0.249   2.054   1.450 -0.2953 -0.0710 -0.1192
  739SOL     OW 3028   0.193   2.316   1.535  0.3693  0.7489  0.2320
  739SOL    HW2 3029   0.194   2.301   1.629  1.8420  0.3889  0.1742
  739SOL    HW3 3030   0.217   2.231   1.497  0.9080  1.1916 -0.4266
  739SOL    MW4 3031   0.196   2.303   1.542  0.6347  0.7601  0.1374
  740SOL     OW 3032   4.473   2.497   1.515 -0.5417 -0.4817 -0.7087
  740SOL    HW2 3033   4.389   2.457   1.536 -0.2998 -0.3394  0.5546
  740SOL    HW3 3034   4.538   2.430   1.537 -0.2866 -0.3272 -0.9900
  740SOL    MW4 3035   4.471   2.483   1.521 -0.4764 -0.4425 -0.5790
  741SOL     OW 3036   0.036   2.761   1.589  0.1034 -0.4836 -0.2122
  741SOL    HW2 3037  -0.052   2.798   1.584  0.3829  0.3821  1.0521
  741SOL    HW3 3038   0.029   2.676   1.545 -1.1625 -0.0717 -0.8386
  741SOL    MW4 3039   0.024   2.755   1.583 -0.0267 -0.3152 -0.1279
  742SOL     OW 3040   0.275   2.862   1.507 -0.0570  0.1355  0.6849
  742SOL    HW2 3041   0.344   2.796   1.514  0.6268  0.3209 -3.1168
  742SOL    HW3 3042   0.197   2.817   1.538  0.8911 -1.6587  0.5857
  742SOL    MW4 3043   0.274   2.847   1.512  0.1583 -0.0768  0.1701
  743SOL     OW 3044   0.233   3.088   1.653 -0.5791  0.2543 -0.5165
  743SOL    HW2 3045   0.157   3.131   1.614 -1.9116 -1.0264  0.6267
  743SOL    HW3 3046   0.249   3.013   1.597 -0.9868 -0.2264  0.0123
  743SOL    MW4 3047   0.225   3.084   1.640 -0.8087  0.0222 -0.2960
  744SOL     OW 3048   0.013   3.226   1.551 -0.2752 -0.0475 -0.1999
  744SOL    HW2 3049   0.018   3.311   1.595  1.1381 -0.6594  0.8680
  744SOL    HW3 3050   0.007   3.247   1.458  0.3693  1.2286  0.0397
  744SOL    MW4 3051   0.013   3.240   1.545 -0.0037  0.0403 -0.0273
  745SOL     OW 3052   0.040   3.486   1.663 -0.3882  0.8113  0.1206
  745SOL    HW2 3053   0.027   3.510   1.754 -0.8468  1.5464 -0.1320
  745SOL    HW3 3054  -0.017   3.546   1.614  1.1868  1.6060 -0.7633
  745SOL    MW4 3055   0.031   3.497   1.668 -0.2409  1.0133 -0.0294
  746SOL     OW 3056   0.242   3.630   1.544 -0.3752  0.4785 -0.3607
  746SOL    HW2 3057   0.202   3.710   1.575 -0.9007  0.2225 -0.3712
  746SOL    HW3 3058   0.183   3.560   1.574  0.4426  0.0414  0.2663
  746SOL    MW4 3059   0.229   3.631   1.552 -0.3367  0.3872 -0.2794
  747SOL     OW 3060   0.190   3.875   1.660  0.4699  0.1051 -0.0790
  747SOL    HW2 3061   0.172   3.874   1.754  0.5847 -1.1578 -0.0530
  747SOL    HW3 3062   0.281   3.902   1.652  1.3803 -2.6857  0.3717
  747SOL    MW4 3063   0.199   3.878   1.671  0.6052 -0.4296 -0.0161
  748SOL     OW 3064   4.469   3.998   1.556  0.4373 -0.0548 -0.3625
  748SOL    HW2 3065   4.462   4.092   1.572  0.1288 -0.0587 -0.4614
  748SOL    HW3 3066   4.551   3.972   1.598 -0.0616  0.0396  0.7000
  748SOL    MW4 3067   4.479   4.007   1.564  0.3304 -0.0424 -0.2353
  749SOL     OW 3068   0.003   4.287   1.593  0.5599 -0.4885 -0.2854
  749SOL    HW2 3069   0.001   4.280   1.688  1.0076 -2.3374 -0.3983
  749SOL    HW3 3070  -0.083   4.322   1.570  0.1230 -0.8806  0.7279
  749SOL    MW4 3071  -0.008   4.291   1.602  0.5612 -0.7839 -0.1665
  750SOL     OW 3072   0.239   4.387   1.501  0.2203  0.1186  0.2365
  750SOL    HW2 3073   0.153   4.355   1.529  0.7693 -0.4266  1.3742
  750SOL    HW3 3074   0.249   4.471   1.545  0.0854  0.3767 -0.2337
  750SOL    MW4 3075   0.229   4.394   1.511  0.2749  0.0811  0.3246
  751SOL     OW 3076   0.650   0.018   1.627  0.2021 -0.4280 -0.3251
  751SOL    HW2 3077   0.725   0.067   1.595  0.4886 -0.1185  0.7833
  751SOL    HW3 3078   0.574   0.065   1.595  0.4665 -1.3110 -2.3139
  751SOL    MW4 3079   0.650   0.030   1.619  0.2748 -0.5035 -0.4412
  752SOL     OW 3080   0.415   0.156   1.526 -0.4294 -0.2393  0.4249
  752SOL    HW2 3081   0.388   0.245   1.548 -0.1071 -0.4774  1.8081
  752SOL    HW3 3082   0.402   0.150   1.432  0.8063  1.7066  0.0970
  752SOL    MW4 3083   0.410   0.167   1.517 -0.2238 -0.0140  0.5641
  753SOL     OW 3084   0.387   0.425   1.623  0.1180 -0.3299 -0.2586
  753SOL    HW2 3085   0.467   0.467   1.594 -0.0622  0.4987  0.4070
  753SOL    HW3 3086   0.318   0.489   1.604 -0.2451 -0.6112  0.0939
  753SOL    MW4 3087   0.388   0.439   1.617  0.0463 -0.2577 -0.1242
  754SOL     OW 3088   0.614   0.541   1.553  0.0942 -0.3653  0.1391
  754SOL    HW2 3089   0.617   0.629   1.591  1.4185 -0.5269  0.4469
  754SOL    HW3 3090   0.626   0.554   1.459  1.8586 -0.3029  0.3479
  754SOL    MW4 3091   0.616   0.554   1.546  0.5018 -0.3784  0.2073
  755SOL     OW 3092   0.658   0.815   1.627  0.3133  0.2804  0.1428
  755SOL    HW2 3093   0.682   0.819   1.720  0.0463 -2.0860  0.3474
  755SOL    HW3 3094   0.737   0.841   1.580  0.7075  0.6778  1.0219
  755SOL    MW4 3095   0.671   0.819   1.633  0.3300  0.0207  0.2857
  756SOL     OW 3096   0.445   0.917   1.521 -0.6004  0.6546 -0.7415
  756SOL    HW2 3097   0.446   1.004   1.561  0.5475  0.4262 -0.2574
  756SOL    HW3 3098   0.525   0.875   1.553 -1.4205 -0.7806 -0.5021
  756SOL    MW4 3099   0.455   0.923   1.531 -0.5572  0.4352 -0.6461
  757SOL     OW 3100   0.473   1.149   1.657 -0.1589  0.0227 -0.1976
  757SOL    HW2 3101   0.556   1.192   1.639 -0.2043  0.4296  0.5265
  757SOL    HW3 3102   0.409   1.199   1.606  0.3003 -1.5263 -2.3557
  757SOL    MW4 3103   0.475   1.161   1.648 -0.1043 -0.1280 -0.3867
  758SOL     OW 3104   0.668   1.298   1.552  0.5351 -0.0509  0.3466
  758SOL    HW2 3105   0.658   1.391   1.573 -1.4113 -0.0882 -0.2975
  758SOL    HW3 3106   0.654   1.294   1.457 -0.7236 -1.1674  0.5781
  758SOL    MW4 3107   0.665   1.310   1.542  0.1122 -0.2031  0.2922
  759SOL     OW 3108   0.681   1.563   1.623  0.3475 -0.6397  0.6812
  759SOL    HW2 3109   0.743   1.594   1.557 -0.0936 -1.8698 -0.3301
  759SOL    HW3 3110   0.597   1.600   1.595  0.4339  0.1296  1.4387
  759SOL    MW4 3111   0.678   1.572   1.610  0.3007 -0.7006  0.6478
  760SOL     OW 3112   0.433   1.659   1.526 -0.3347  0.5548 -0.1249
  760SOL    HW2 3113   0.431   1.752   1.548  0.5359  0.5026  0.1731
  760SOL    HW3 3114   0.353   1.624   1.565 -1.4577  1.4615 -1.5407
  760SOL    MW4 3115   0.422   1.667   1.534 -0.3681  0.6676 -0.2723
  761SOL     OW 3116   0.463   1.941   1.599 -0.2815  0.1495 -0.1723
  761SOL    HW2 3117   0.441   1.955   1.691 -0.0373  1.6475 -0.3234
  761SOL    HW3 3118   0.402   1.997   1.551 -0.8784 -1.1662 -0.9632
  761SOL    MW4 3119   0.452   1.950   1.604 -0.3280  0.1736 -0.2965
  762SOL     OW 3120   0.691   2.045   1.478 -0.5440 -0.1992  0.1256
  762SOL    HW2 3121   0.770   2.015   1.525 -0.2340 -1.2831 -1.0631
  762SOL    HW3 3122   0.619   1.996   1.519 -0.5071  0.2203  0.6952
  762SOL    MW4 3123   0.692   2.034   1.490 -0.4982 -0.2868  0.0439
  763SOL     OW 3124   0.685   2.294   1.601  0.2608  0.4271  0.0604
  763SOL    HW2 3125   0.605   2.335   1.569  1.0156  1.5095 -0.4761
  763SOL    HW3 3126   0.689   2.210   1.554 -0.3234  0.5738 -0.2550
  763SOL    MW4 3127   0.675   2.288   1.590  0.2834  0.5894 -0.0520
  764SOL     OW 3128   0.455   2.409   1.499  0.6040 -0.1840 -0.0231
  764SOL    HW2 3129   0.459   2.503   1.516  1.3315 -0.1035 -0.6196
  764SOL    HW3 3130   0.361   2.389   1.497  0.4492  0.5121  0.1611
  764SOL    MW4 3131   0.443   2.418   1.501  0.6796 -0.0818 -0.0775
  765SOL     OW 3132   0.466   2.665   1.561  0.0468  0.1096 -0.3496
  765SOL    HW2 3133   0.457   2.661   1.657  0.5367 -0.2986 -0.3176
  765SOL    HW3 3134   0.533   2.732   1.547  0.8893 -0.7254 -0.3503
  765SOL    MW4 3135   0.474   2.673   1.572  0.2226 -0.0544 -0.3455
  766SOL     OW 3136   0.662   2.873   1.520 -0.2539  0.2169  0.6090
  766SOL    HW2 3137   0.676   2.964   1.547  1.7451  0.0069  0.3826
  766SOL    HW3 3138   0.670   2.875   1.424 -1.5852  0.0298  0.4934
  766SOL    MW4 3139   0.665   2.885   1.511 -0.1658  0.1645  0.5639
  767SOL     OW 3140   0.680   3.126   1.616 -0.5337  0.4170 -0.3277
  767SOL    HW2 3141   0.745   3.191   1.590 -0.7000  0.4556 -0.6402
  767SOL    HW3 3142   0.595   3.168   1.598 -0.6902  1.1347  1.8418
  767SOL    MW4 3143   0.677   3.140   1.610 -0.5763  0.5167 -0.0826
  768SOL     OW 3144   0.437   3.257   1.535  0.2584 -0.4942  0.0540
  768SOL    HW2 3145   0.358   3.207   1.558 -0.0036 -0.5592 -0.9779
  768SOL    HW3 3146   0.441   3.253   1.439  0.7179  0.7245  0.0154
  768SOL    MW4 3147   0.427   3.249   1.525  0.2845 -0.3421 -0.0873
  769SOL     OW 3148   0.467   3.517   1.627  0.0542 -0.0552  0.2154
  769SOL    HW2 3149   0.456   3.435   1.580  0.2772 -0.0457  0.1464
  769SOL    HW3 3150   0.389   3.568   1.605 -0.0889 -0.2518  0.2676
  769SOL    MW4 3151   0.455   3.513   1.618  0.0648 -0.0799  0.2133
  770SOL     OW 3152   0.692   3.630   1.510  0.1113 -0.5762 -0.0768
  770SOL    HW2 3153   0.769   3.606   1.561  0.8012  0.6134 -0.5489
  770SOL    HW3 3154   0.619   3.590   1.558  1.0689 -2.2979 -0.0236
  770SOL    MW4 3155   0.692   3.622   1.523  0.3287 -0.6464 -0.1321
  771SOL     OW 3156   0.680   3.879   1.677 -0.6863 -0.3726 -0.6247
  771SOL    HW2 3157   0.750   3.930   1.636 -1.7050  1.0259 -0.6769
  771SOL    HW3 3158   0.694   3.790   1.646  2.5291 -0.6309  1.2727
  771SOL    MW4 3159   0.691   3.874   1.667 -0.3965 -0.2224 -0.3812
  772SOL     OW 3160   0.439   3.998   1.559 -0.0708 -0.0916  0.0406
  772SOL    HW2 3161   0.514   3.949   1.594 -0.4773 -0.1482  0.8473
  772SOL    HW3 3162   0.462   4.015   1.468  0.3070 -1.3177 -0.0992
  772SOL    MW4 3163   0.452   3.994   1.552 -0.0746 -0.2611  0.1286
  773SOL     OW 3164   0.435   4.279   1.642 -0.1958  0.0092 -0.2886
  773SOL    HW2 3165   0.435   4.186   1.620 -0.3258  0.1921 -1.0826
  773SOL    HW3 3166   0.360   4.315   1.594 -0.4947  0.4234  0.4624
  773SOL    MW4 3167   0.425   4.272   1.633 -0.2523  0.0882 -0.2942
  774SOL     OW 3168   0.642   4.419   1.506  0.3303  0.2627  0.1752
  774SOL    HW2 3169   0.564   4.382   1.548  1.3991  0.1107  2.1105
  774SOL    HW3 3170   0.654   4.503   1.551  0.1236  1.2240 -1.5329
  774SOL    MW4 3171   0.633   4.425   1.518  0.4440  0.3695  0.2053
  775SOL     OW 3172   1.143   4.664   1.581 -0.3377  0.2983  0.3623
  775SOL    HW2 3173   1.144   4.658   1.677  1.5196 -0.7813  0.2993
  775SOL    HW3 3174   1.224   4.710   1.559 -0.2724 -0.3455 -0.7543
  775SOL    MW4 3175   1.154   4.670   1.591 -0.0842  0.0710  0.2067
  776SOL     OW 3176   0.893   0.103   1.527  0.2325 -0.0123 -0.0478
  776SOL    HW2 3177   0.894   0.185   1.577  1.5897  0.9290 -1.5615
  776SOL    HW3 3178   0.985   0.076   1.524 -0.2016 -1.5648  0.3745
  776SOL    MW4 3179   0.905   0.110   1.533  0.3543 -0.0929 -0.1918
  777SOL     OW 3180   0.849   0.381   1.625  0.2106  0.0914 -0.0536
  777SOL    HW2 3181   0.839   0.399   1.718  0.5807 -0.7838  0.1677
  777SOL    HW3 3182   0.770   0.417   1.585 -1.0421 -1.5232  0.8907
  777SOL    MW4 3183   0.838   0.388   1.632  0.0941 -0.2371  0.1003
  778SOL     OW 3184   1.079   0.493   1.521 -0.1553  0.3505 -0.7214
  778SOL    HW2 3185   1.091   0.585   1.545  0.4934  0.1340 -0.2049
  778SOL    HW3 3186   0.990   0.472   1.551 -0.9143  1.2455 -2.2816
  778SOL    MW4 3187   1.069   0.502   1.528 -0.1699  0.4400 -0.8590
  779SOL     OW 3188   1.115   0.755   1.610  0.4300  0.1253  0.0799
  779SOL    HW2 3189   1.092   0.766   1.703 -0.3450 -0.6022 -0.0222
  779SOL    HW3 3190   1.189   0.815   1.597 -0.1614  1.0493  0.8897
  779SOL    MW4 3191   1.122   0.764   1.621  0.2497  0.1513  0.1733
  780SOL     OW 3192   0.890   0.895   1.513 -0.2989 -0.6581  0.7169
  780SOL    HW2 3193   0.962   0.844   1.550  1.0070  1.2179  0.8330
  780SOL    HW3 3194   0.902   0.888   1.418  0.6349  0.4172  0.7363
  780SOL    MW4 3195   0.901   0.888   1.505 -0.0034 -0.2687  0.7349
  781SOL     OW 3196   0.895   1.141   1.634 -0.2474  0.1442 -0.6794
  781SOL    HW2 3197   0.879   1.059   1.588 -1.8434  0.1181 -0.1089
  781SOL    HW3 3198   0.813   1.190   1.624  0.6452  1.6083 -0.9035
  781SOL    MW4 3199   0.882   1.137   1.627 -0.3402  0.3340 -0.6337
  782SOL     OW 3200   1.130   1.279   1.538  0.1339  0.1611 -0.3173
  782SOL    HW2 3201   1.214   1.257   1.577  0.9794  0.8080 -1.7635
  782SOL    HW3 3202   1.069   1.217   1.578  1.6074 -1.4919 -0.5681
  782SOL    MW4 3203   1.133   1.268   1.549  0.4398  0.0283 -0.5411
  783SOL     OW 3204   1.100   1.551   1.599 -0.1392 -0.2329 -0.8369
  783SOL    HW2 3205   1.188   1.578   1.572  0.3047 -0.3770  0.4426
  783SOL    HW3 3206   1.095   1.458   1.577 -0.6787  0.2135 -2.6941
  783SOL    MW4 3207   1.111   1.542   1.593 -0.1520 -0.1931 -0.9131
  784SOL     OW 3208   0.890   1.695   1.496  0.3584  0.0511 -0.2022
  784SOL    HW2 3209   0.964   1.664   1.549  0.4694  1.5910  0.5633
  784SOL    HW3 3210   0.917   1.680   1.406  2.0410  1.5034  0.0230
  784SOL    MW4 3211   0.904   1.689   1.491  0.5950  0.4460 -0.0715
  785SOL     OW 3212   0.911   1.941   1.600  0.5132  0.2350  0.1322
  785SOL    HW2 3213   0.996   1.969   1.566  0.3595  0.0532 -0.4006
  785SOL    HW3 3214   0.900   1.852   1.567  0.6894 -0.2112  1.2597
  785SOL    MW4 3215   0.921   1.933   1.591  0.5162  0.1522  0.2108
  786SOL     OW 3216   1.129   2.060   1.471 -0.6797 -0.3154  0.4438
  786SOL    HW2 3217   1.212   2.022   1.501  0.0543 -0.9460 -2.2238
  786SOL    HW3 3218   1.119   2.139   1.523  2.4223  0.6013 -0.2585
  786SOL    MW4 3219   1.139   2.065   1.482 -0.1737 -0.2775 -0.0007
  787SOL     OW 3220   1.113   2.301   1.616  0.0952 -0.1224 -0.9654
  787SOL    HW2 3221   1.179   2.352   1.570 -0.0865  0.3515 -0.7124
  787SOL    HW3 3222   1.030   2.342   1.592 -0.0733 -0.4762 -0.9842
  787SOL    MW4 3223   1.111   2.313   1.607  0.0489 -0.1066 -0.9345
  788SOL     OW 3224   0.896   2.417   1.503  0.1385 -0.0554 -0.0178
  788SOL    HW2 3225   0.900   2.508   1.531  0.4609  0.2672 -1.0579
  788SOL    HW3 3226   0.818   2.381   1.545 -0.1693  0.7975  0.1367
  788SOL    MW4 3227   0.886   2.424   1.512  0.1405  0.0994 -0.1346
  789SOL     OW 3228   0.864   2.692   1.602 -0.1203 -0.1741  0.1344
  789SOL    HW2 3229   0.875   2.687   1.697 -0.9897 -1.2085  0.1899
  789SOL    HW3 3230   0.789   2.750   1.590 -0.7381 -0.9563  0.1369
  789SOL    MW4 3231   0.855   2.699   1.613 -0.3164 -0.4137  0.1421
  790SOL     OW 3232   1.102   2.835   1.530 -0.3859 -0.0109 -0.3472
  790SOL    HW2 3233   1.085   2.928   1.545 -1.2258 -0.2482  0.2776
  790SOL    HW3 3234   1.021   2.792   1.559  0.4355 -1.0258  0.4904
  790SOL    MW4 3235   1.089   2.842   1.536 -0.3883 -0.1762 -0.1544
  791SOL     OW 3236   1.079   3.100   1.614 -0.3212  0.3272  0.3874
  791SOL    HW2 3237   1.098   3.084   1.707  0.6311 -0.9162  0.0000
  791SOL    HW3 3238   1.160   3.139   1.580 -1.1453  2.0411  0.3705
  791SOL    MW4 3239   1.092   3.103   1.622 -0.3043  0.3891  0.3341
  792SOL     OW 3240   0.897   3.294   1.535  0.0024  0.0765  0.4792
  792SOL    HW2 3241   0.961   3.231   1.570  1.1586  1.0099  0.1042
  792SOL    HW3 3242   0.900   3.281   1.440  0.2546  0.6871  0.3983
  792SOL    MW4 3243   0.906   3.284   1.527  0.1882  0.2801  0.4191
  793SOL     OW 3244   0.907   3.531   1.651  0.0253  0.0370 -0.3865
  793SOL    HW2 3245   0.991   3.572   1.631 -0.0830  0.2357 -0.4366
  793SOL    HW3 3246   0.909   3.448   1.603  0.5797 -0.3929  0.3663
  793SOL    MW4 3247   0.918   3.526   1.642  0.0841  0.0064 -0.2937
  794SOL     OW 3248   1.123   3.667   1.509 -0.4218 -0.1533 -0.0584
  794SOL    HW2 3249   1.191   3.618   1.554 -1.1502 -1.0948  0.0507
  794SOL    HW3 3250   1.149   3.667   1.417 -0.6910 -1.2469 -0.1450
  794SOL    MW4 3251   1.135   3.661   1.503 -0.5535 -0.4220 -0.0554
  795SOL     OW 3252   1.113   3.927   1.642  0.3814 -0.2266  0.4046
  795SOL    HW2 3253   1.183   3.977   1.600 -1.7495  2.1387 -0.4546
  795SOL    HW3 3254   1.121   3.839   1.604  2.1787  0.2948 -0.4914
  795SOL    MW4 3255   1.123   3.922   1.631  0.3374  0.1543  0.1731
  796SOL     OW 3256   0.882   4.029   1.547  0.3713 -0.2260  0.2459
  796SOL    HW2 3257   0.892   4.123   1.563 -0.2972  0.0070 -0.6744
  796SOL    HW3 3258   0.964   3.991   1.577  0.1687  0.5004  1.7759
  796SOL    MW4 3259   0.894   4.036   1.553  0.2564 -0.0997  0.3263
  797SOL     OW 3260   0.874   4.297   1.607 -0.2764  0.1742 -0.4815
  797SOL    HW2 3261   0.863   4.301   1.702  1.1142  0.8739 -0.3259
  797SOL    HW3 3262   0.792   4.329   1.571 -0.8692 -0.2555  0.4870
  797SOL    MW4 3263   0.862   4.302   1.615 -0.1712  0.2093 -0.3332
  798SOL     OW 3264   1.103   4.392   1.482 -0.3308  0.2316 -0.1930
  798SOL    HW2 3265   1.025   4.341   1.502  0.0181  0.1860  1.0887
  798SOL    HW3 3266   1.095   4.471   1.534  0.3714  0.3277 -0.2209
  798SOL    MW4 3267   1.092   4.395   1.491 -0.1922  0.2384 -0.0277
  799SOL     OW 3268   1.571   0.003   1.612 -0.4690 -0.3719 -0.0232
  799SOL    HW2 3269   1.558   0.019   1.705 -0.1449  2.5946 -0.4570
  799SOL    HW3 3270   1.496   0.045   1.570  1.5465  2.0358 -1.3536
  799SOL    MW4 3271   1.559   0.011   1.619 -0.1603  0.3371 -0.2559
  800SOL     OW 3272   1.370   0.124   1.505  0.8654  0.0792 -0.0135
  800SOL    HW2 3273   1.349   0.214   1.529  0.2159  0.2944 -1.3288
  800SOL    HW3 3274   1.348   0.118   1.412  0.8927 -1.4424  0.0564
  800SOL    MW4 3275   1.364   0.135   1.496  0.7832 -0.0932 -0.1779
  801SOL     OW 3276   1.333   0.375   1.631  0.1741 -0.4903 -0.4740
  801SOL    HW2 3277   1.413   0.423   1.610  1.3831 -2.0755  0.4571
  801SOL    HW3 3278   1.265   0.419   1.579  1.6587  0.7356 -1.4344
  801SOL    MW4 3279   1.334   0.387   1.621  0.5295 -0.5377 -0.4779
  802SOL     OW 3280   1.572   0.514   1.554 -0.2360  0.0606  0.0089
  802SOL    HW2 3281   1.662   0.487   1.573 -0.2855  0.2183  0.4712
  802SOL    HW3 3282   1.565   0.509   1.458  0.7070  1.4360 -0.1395
  802SOL    MW4 3283   1.583   0.510   1.544 -0.1183  0.2628  0.0503
  803SOL     OW 3284   1.601   0.776   1.614  0.4306  0.2028 -0.0448
  803SOL    HW2 3285   1.590   0.794   1.708 -0.4326  1.3708 -0.3526
  803SOL    HW3 3286   1.581   0.683   1.605 -0.5354  0.3222  0.7797
  803SOL    MW4 3287   1.597   0.766   1.625  0.1892  0.3726  0.0236
  804SOL     OW 3288   1.344   0.895   1.554 -0.1905  0.3558  0.0235
  804SOL    HW2 3289   1.410   0.830   1.578  0.4207  0.7774 -0.5049
  804SOL    HW3 3290   1.342   0.893   1.458 -1.7565 -0.4543  0.0391
  804SOL    MW4 3291   1.352   0.886   1.545 -0.3165  0.3046 -0.0441
  805SOL     OW 3292   1.364   1.169   1.647 -0.1462 -0.3722 -0.2708
  805SOL    HW2 3293   1.354   1.171   1.742  0.1329 -1.7930 -0.2156
  805SOL    HW3 3294   1.371   1.077   1.625  0.6991 -0.0024 -1.5885
  805SOL    MW4 3295   1.363   1.157   1.657  0.0020 -0.5109 -0.4374
  806SOL     OW 3296   1.566   1.301   1.536 -0.1088  0.0362 -0.3000
  806SOL    HW2 3297   1.493   1.250   1.569 -0.9995  2.1012  1.0590
  806SOL    HW3 3298   1.564   1.289   1.442 -1.9571 -0.2503 -0.2297
  806SOL    MW4 3299   1.556   1.293   1.528 -0.4702  0.2708 -0.1115
  807SOL     OW 3300   1.562   1.571   1.634 -0.7490  0.3417 -0.0660
  807SOL    HW2 3301   1.569   1.561   1.729  1.1880 -1.2184 -0.3464
  807SOL    HW3 3302   1.569   1.481   1.600  0.0742  1.0272 -1.7600
  807SOL    MW4 3303   1.564   1.557   1.642 -0.3848  0.2263 -0.3266
  808SOL     OW 3304   1.343   1.672   1.509  0.2229  0.0111  0.0672
  808SOL    HW2 3305   1.425   1.651   1.555  0.3723 -0.2901 -0.3327
  808SOL    HW3 3306   1.368   1.675   1.417 -0.0472  0.7609  0.0144
  808SOL    MW4 3307   1.357   1.670   1.503  0.2069  0.0703  0.0075
  809SOL     OW 3308   1.349   1.949   1.573  0.0283 -0.3507 -0.5332
  809SOL    HW2 3309   1.342   1.947   1.669  2.9342  0.1493 -0.2409
  809SOL    HW3 3310   1.340   1.858   1.546  0.4874 -0.6722  0.3694
  809SOL    MW4 3311   1.347   1.937   1.582  0.4723 -0.3270 -0.3756
  810SOL     OW 3312   1.605   2.070   1.530 -0.0154  0.5410 -0.3181
  810SOL    HW2 3313   1.522   2.023   1.541 -0.1723  0.5450 -1.4498
  810SOL    HW3 3314   1.611   2.086   1.436  1.8207 -0.4132 -0.3636
  810SOL    MW4 3315   1.595   2.066   1.519  0.2061  0.4156 -0.4735
  811SOL     OW 3316   1.548   2.326   1.613  0.0494 -0.0958  0.1304
  811SOL    HW2 3317   1.608   2.379   1.561  0.2764 -1.0397 -0.5760
  811SOL    HW3 3318   1.568   2.236   1.590 -1.2169 -0.4507  0.3516
  811SOL    MW4 3319   1.558   2.321   1.603 -0.0876 -0.2675  0.0665
  812SOL     OW 3320   1.314   2.460   1.528  0.3959  0.2244 -0.1411
  812SOL    HW2 3321   1.324   2.550   1.559 -0.2044 -0.5089  2.2347
  812SOL    HW3 3322   1.380   2.410   1.576 -0.7990 -0.9901  0.2710
  812SOL    MW4 3323   1.324   2.466   1.538  0.1590 -0.0327  0.2269
  813SOL     OW 3324   1.337   2.719   1.606  0.0355 -0.4070  0.1405
  813SOL    HW2 3325   1.405   2.775   1.567 -0.3836  0.5043  0.6934
  813SOL    HW3 3326   1.255   2.764   1.587 -0.3338 -1.0089  0.3022
  813SOL    MW4 3327   1.335   2.732   1.599 -0.0684 -0.3660  0.2347
  814SOL     OW 3328   1.555   2.863   1.505  0.0638  0.0421 -0.3732
  814SOL    HW2 3329   1.639   2.821   1.523 -0.3034 -1.2039 -1.4873
  814SOL    HW3 3330   1.563   2.894   1.415 -0.8130 -0.4641 -0.6396
  814SOL    MW4 3331   1.567   2.862   1.495 -0.1004 -0.1891 -0.5554
  815SOL     OW 3332   1.556   3.122   1.635 -0.2828 -0.0278 -0.2754
  815SOL    HW2 3333   1.627   3.174   1.598  0.6948 -1.2750 -0.1762
  815SOL    HW3 3334   1.577   3.032   1.612 -0.2247 -0.7238  2.3569
  815SOL    MW4 3335   1.568   3.117   1.627 -0.1463 -0.2842  0.0850
  816SOL     OW 3336   1.314   3.233   1.546 -0.4805  0.0363  0.1677
  816SOL    HW2 3337   1.317   3.324   1.576 -0.9457  1.0787 -2.8251
  816SOL    HW3 3338   1.383   3.189   1.597  1.0377  2.4744  0.3217
  816SOL    MW4 3339   1.324   3.240   1.557 -0.3417  0.4957 -0.2068
  817SOL     OW 3340   1.321   3.502   1.613 -0.3967  0.3608 -0.4940
  817SOL    HW2 3341   1.325   3.494   1.708 -0.4938 -0.7900 -0.5827
  817SOL    HW3 3342   1.403   3.544   1.589  0.2737 -0.6698 -0.0347
  817SOL    MW4 3343   1.332   3.506   1.622 -0.3210  0.0727 -0.4451
  818SOL     OW 3344   1.555   3.637   1.557  0.0025  0.3187 -0.6032
  818SOL    HW2 3345   1.559   3.730   1.581 -2.1292  0.5117 -0.8630
  818SOL    HW3 3346   1.559   3.637   1.461 -0.2687  0.1709 -0.6148
  818SOL    MW4 3347   1.556   3.649   1.548 -0.3145  0.3247 -0.6391
  819SOL     OW 3348   1.574   3.911   1.602 -0.2287  0.0805  0.3844
  819SOL    HW2 3349   1.583   3.894   1.696  0.8963 -0.8071  0.1367
  819SOL    HW3 3350   1.489   3.954   1.593 -0.7678 -0.6875  1.6931
  819SOL    MW4 3351   1.564   3.915   1.614 -0.1514 -0.1380  0.5244
  820SOL     OW 3352   1.343   4.049   1.555  0.2454 -0.3153 -0.0993
  820SOL    HW2 3353   1.332   4.139   1.584  1.2870 -0.2288  0.0256
  820SOL    HW3 3354   1.338   4.053   1.459  0.3324 -0.1296 -0.0937
  820SOL    MW4 3355   1.341   4.061   1.546  0.3943 -0.2794 -0.0820
  821SOL     OW 3356   1.336   4.311   1.615 -0.3223 -0.0931 -0.1769
  821SOL    HW2 3357   1.416   4.347   1.578  0.3793 -1.4355  0.0139
  821SOL    HW3 3358   1.265   4.351   1.564  0.4084  1.7618  0.2102
  821SOL    MW4 3359   1.337   4.321   1.604 -0.1334 -0.0253 -0.1009
  822SOL     OW 3360   1.612   4.418   1.501 -0.1167  0.2719  0.7232
  822SOL    HW2 3361   1.684   4.392   1.558 -0.8506 -0.9452  1.1008
  822SOL    HW3 3362   1.593   4.509   1.526  2.0662  1.0298 -0.2068
  822SOL    MW4 3363   1.619   4.427   1.511  0.0745  0.2112  0.6504
  823SOL     OW 3364   1.995   0.013   1.635 -0.1443  0.5666  0.0686
  823SOL    HW2 3365   1.986   0.015   1.730  1.9117  2.2238  0.2608
  823SOL    HW3 3366   1.911   0.046   1.602 -0.3789  1.2233  1.3130
  823SOL    MW4 3367   1.983   0.017   1.643  0.0960  0.8719  0.2582
  824SOL     OW 3368   1.778   0.154   1.495 -0.2438 -0.4148 -0.4337
  824SOL    HW2 3369   1.708   0.106   1.540 -0.1312  0.3951  0.6368
  824SOL    HW3 3370   1.757   0.147   1.402 -0.3653 -2.3189 -0.2814
  824SOL    MW4 3371   1.766   0.146   1.489 -0.2449 -0.5592 -0.2724
  825SOL     OW 3372   1.821   0.388   1.610  0.2088  0.0100 -0.7082
  825SOL    HW2 3373   1.881   0.430   1.548 -1.3852  0.9117 -1.6408
  825SOL    HW3 3374   1.810   0.299   1.576  1.9385 -0.5505  0.1274
  825SOL    MW4 3375   1.828   0.382   1.598  0.2269  0.0550 -0.7210
  826SOL     OW 3376   2.037   0.505   1.477 -0.3850  0.4843 -0.2321
  826SOL    HW2 3377   2.112   0.464   1.521 -0.6254 -0.6109 -0.8409
  826SOL    HW3 3378   2.047   0.599   1.497  0.0562  0.1266  1.3232
  826SOL    MW4 3379   2.048   0.512   1.485 -0.3586  0.2926 -0.1073
  827SOL     OW 3380   2.042   0.785   1.570  1.0638  0.6676 -0.1393
  827SOL    HW2 3381   2.115   0.830   1.527  1.1929  1.4374  0.8896
  827SOL    HW3 3382   1.966   0.840   1.553  1.2887  1.4791  1.4360
  827SOL    MW4 3383   2.041   0.798   1.562  1.1103  0.8762  0.2043
  828SOL     OW 3384   1.808   0.909   1.492  0.7874 -0.4757 -0.0639
  828SOL    HW2 3385   1.810   1.002   1.516 -0.8637  0.2020 -2.3563
  828SOL    HW3 3386   1.738   0.872   1.546 -0.0870  0.1266 -0.7640
  828SOL    MW4 3387   1.799   0.916   1.502  0.4542 -0.3068 -0.4587
  829SOL     OW 3388   1.793   1.170   1.610 -0.1492 -0.0794 -0.2995
  829SOL    HW2 3389   1.871   1.219   1.584 -1.3598  1.3683 -1.3056
  829SOL    HW3 3390   1.720   1.226   1.582 -1.5356 -0.7629  1.8703
  829SOL    MW4 3391   1.794   1.184   1.603 -0.4919  0.0213 -0.1460
  830SOL     OW 3392   2.039   1.279   1.553 -0.6132 -0.1895  0.1265
  830SOL    HW2 3393   2.043   1.369   1.585  0.8445 -0.1676 -0.0869
  830SOL    HW3 3394   2.042   1.287   1.457 -1.8706 -0.3996  0.0650
  830SOL    MW4 3395   2.040   1.292   1.544 -0.5867 -0.2143  0.0902
  831SOL     OW 3396   2.027   1.559   1.640  0.1385  0.0526  0.0046
  831SOL    HW2 3397   2.082   1.637   1.627 -2.6608  1.9584 -0.7865
  831SOL    HW3 3398   2.004   1.562   1.733  0.6476 -0.2532  0.1408
  831SOL    MW4 3399   2.031   1.570   1.651 -0.1638  0.2638 -0.0817
  832SOL     OW 3400   1.802   1.677   1.515 -0.1993 -0.1790 -0.2715
  832SOL    HW2 3401   1.875   1.633   1.558  0.0170  0.8667  0.4730
  832SOL    HW3 3402   1.724   1.637   1.553 -0.0066 -0.2934  0.0027
  832SOL    MW4 3403   1.801   1.666   1.526 -0.1453 -0.0561 -0.1372
  833SOL     OW 3404   1.837   1.927   1.643  0.0402 -0.8250 -0.0105
  833SOL    HW2 3405   1.822   1.850   1.587  0.7538  0.8044 -2.5496
  833SOL    HW3 3406   1.769   1.989   1.617  1.0020  0.3393  0.2108
  833SOL    MW4 3407   1.826   1.925   1.632  0.2613 -0.4565 -0.3164
  834SOL     OW 3408   2.019   2.114   1.563  0.0785 -0.0987  0.0690
  834SOL    HW2 3409   2.098   2.088   1.611  1.2607  0.1950 -1.7063
  834SOL    HW3 3410   1.955   2.046   1.586  0.5579  0.1205  2.1929
  834SOL    MW4 3411   2.021   2.101   1.573  0.2978 -0.0310  0.1149
  835SOL     OW 3412   1.959   2.366   1.662 -0.3128 -0.0229  0.4768
  835SOL    HW2 3413   1.992   2.361   1.752 -0.4952  0.7046  0.5929
  835SOL    HW3 3414   1.965   2.277   1.629 -1.1346 -0.4748  1.5283
  835SOL    MW4 3415   1.965   2.354   1.669 -0.4451  0.0134  0.6307
  836SOL     OW 3416   1.754   2.464   1.487 -0.0495 -0.2340 -0.2026
  836SOL    HW2 3417   1.823   2.446   1.551 -0.8171 -0.3527  0.5972
  836SOL    HW3 3418   1.797   2.455   1.402  0.8547 -0.5844  0.2881
  836SOL    MW4 3419   1.769   2.460   1.484 -0.0315 -0.2956 -0.0322
  837SOL     OW 3420   1.791   2.750   1.575  0.8267 -0.3246  0.5269
  837SOL    HW2 3421   1.869   2.784   1.530  0.3690 -0.7156 -0.5769
  837SOL    HW3 3422   1.777   2.664   1.535 -0.0067 -0.3756  0.9344
  837SOL    MW4 3423   1.800   2.743   1.564  0.6565 -0.3829  0.4350
  838SOL     OW 3424   2.037   2.852   1.455 -0.5478  0.6909  0.1637
  838SOL    HW2 3425   2.016   2.936   1.495  1.5346  1.2765  0.1205
  838SOL    HW3 3426   2.026   2.867   1.361  1.1914  1.3626  0.0484
  838SOL    MW4 3427   2.033   2.865   1.448 -0.0436  0.8569  0.1428
  839SOL     OW 3428   1.990   3.089   1.600 -0.0059  0.0019 -0.3740
  839SOL    HW2 3429   1.993   3.087   1.696 -0.0502 -1.4365 -0.3888
  839SOL    HW3 3430   2.073   3.127   1.574 -0.1729  0.8041  0.2455
  839SOL    MW4 3431   2.001   3.094   1.609 -0.0339 -0.0820 -0.2941
  840SOL     OW 3432   1.776   3.233   1.517  0.0498  0.0369  0.1041
  840SOL    HW2 3433   1.788   3.318   1.560 -0.8434 -0.2523  0.9254
  840SOL    HW3 3434   1.843   3.177   1.557 -1.4163 -0.4985  1.8360
  840SOL    MW4 3435   1.787   3.237   1.528 -0.2614 -0.0718  0.4410
  841SOL     OW 3436   1.765   3.464   1.651 -0.7608  0.1655 -0.1515
  841SOL    HW2 3437   1.772   3.483   1.745 -0.2887  0.3017 -0.2137
  841SOL    HW3 3438   1.697   3.523   1.620 -0.6876  0.3543  0.0419
  841SOL    MW4 3439   1.757   3.474   1.659 -0.6889  0.2084 -0.1342
  842SOL     OW 3440   1.977   3.647   1.551  0.3744  0.7770 -0.4247
  842SOL    HW2 3441   2.053   3.600   1.585  0.7508  1.1256 -0.7695
  842SOL    HW3 3442   1.902   3.598   1.583  0.7390  0.6177  0.1928
  842SOL    MW4 3443   1.977   3.634   1.560  0.4719  0.8020 -0.3887
  843SOL     OW 3444   2.010   3.914   1.628  0.0929  0.2962  0.0545
  843SOL    HW2 3445   2.087   3.930   1.574  0.4240 -0.4873  0.2773
  843SOL    HW3 3446   1.988   3.822   1.611 -0.6360  0.4435  0.1905
  843SOL    MW4 3447   2.017   3.904   1.619  0.0408  0.2120  0.1018
  844SOL     OW 3448   1.815   4.069   1.536  0.0852  0.0725 -0.3714
  844SOL    HW2 3449   1.890   4.021   1.572 -1.3006 -2.0320 -0.2378
  844SOL    HW3 3450   1.738   4.023   1.568 -1.2967  2.0571 -0.7256
  844SOL    MW4 3451   1.815   4.057   1.545 -0.2799  0.0563 -0.4005
  845SOL     OW 3452   1.829   4.323   1.667 -0.0433  0.0017 -0.0730
  845SOL    HW2 3453   1.881   4.363   1.598  1.5851 -0.7689  0.6813
  845SOL    HW3 3454   1.819   4.231   1.640 -0.9566  0.1219 -0.1715
  845SOL    MW4 3455   1.834   4.316   1.654  0.0510 -0.0849  0.0135
  846SOL     OW 3456   2.020   4.428   1.485  0.1633 -0.3079 -0.3713
  846SOL    HW2 3457   2.088   4.370   1.517 -0.2770 -1.2589 -1.1371
  846SOL    HW3 3458   2.039   4.512   1.526  1.3935 -0.7362 -0.0405
  846SOL    MW4 3459   2.031   4.432   1.495  0.2673 -0.4897 -0.4287
  847SOL     OW 3460   2.485   0.025   1.622  0.4635  0.2865 -0.0573
  847SOL    HW2 3461   2.468   0.017   1.716 -0.2359 -1.5722 -0.3214
  847SOL    HW3 3462   2.402   0.055   1.585  0.0239 -1.2101 -0.3460
  847SOL    MW4 3463   2.472   0.028   1.630  0.3130 -0.1569 -0.1304
  848SOL     OW 3464   2.235   0.118   1.538 -0.2099 -0.7024  0.4414
  848SOL    HW2 3465   2.150   0.084   1.568 -0.3707  0.5011  1.3891
  848SOL    HW3 3466   2.234   0.105   1.444 -2.1312  0.7266  0.2341
  848SOL    MW4 3467   2.223   0.112   1.530 -0.4847 -0.3550  0.5389
  849SOL     OW 3468   2.268   0.399   1.586  0.3008  0.5480 -0.1119
  849SOL    HW2 3469   2.274   0.401   1.682  3.2382 -1.1892 -0.2048
  849SOL    HW3 3470   2.258   0.306   1.564  0.9708  0.8002 -1.5533
  849SOL    MW4 3471   2.267   0.387   1.596  0.7768  0.3521 -0.3142
  850SOL     OW 3472   2.481   0.521   1.468  0.1010 -0.0917  0.3085
  850SOL    HW2 3473   2.562   0.479   1.496 -0.2791 -0.8625  0.2709
  850SOL    HW3 3474   2.411   0.470   1.511 -0.3622  0.4849  0.2432
  850SOL    MW4 3475   2.482   0.509   1.477 -0.0100 -0.1174  0.2950
  851SOL     OW 3476   2.476   0.765   1.598  0.4365 -0.2967  0.5079
  851SOL    HW2 3477   2.399   0.803   1.555  1.0047 -1.1574 -1.3024
  851SOL    HW3 3478   2.481   0.676   1.564  2.2144 -0.2619  0.6361
  851SOL    MW4 3479   2.466   0.758   1.588  0.7463 -0.4057  0.2860
  852SOL     OW 3480   2.272   0.890   1.465 -0.0804 -0.3243  0.2176
  852SOL    HW2 3481   2.268   0.976   1.506  0.2314  0.2856 -1.0115
  852SOL    HW3 3482   2.285   0.908   1.372 -0.5307 -1.6924 -0.1228
  852SOL    MW4 3483   2.273   0.904   1.458 -0.0989 -0.4243  0.0104
  853SOL     OW 3484   2.265   1.143   1.604 -0.2602 -0.3278  0.0279
  853SOL    HW2 3485   2.249   1.125   1.697 -2.3400 -2.0499 -0.6389
  853SOL    HW3 3486   2.194   1.202   1.578  1.2010  1.4334 -0.1424
  853SOL    MW4 3487   2.254   1.149   1.613 -0.3419 -0.3226 -0.0826
  854SOL     OW 3488   2.451   1.315   1.490 -0.1637  0.2402 -0.3790
  854SOL    HW2 3489   2.391   1.253   1.532  1.1782 -0.9703 -0.2167
  854SOL    HW3 3490   2.449   1.291   1.398  0.6037 -0.2478 -0.2671
  854SOL    MW4 3491   2.443   1.304   1.483  0.1147  0.0161 -0.3430
  855SOL     OW 3492   2.446   1.575   1.625 -0.5341  0.1527 -0.4281
  855SOL    HW2 3493   2.539   1.590   1.608 -0.5794 -0.1010 -0.8884
  855SOL    HW3 3494   2.424   1.496   1.576 -1.0395  0.3213 -0.4815
  855SOL    MW4 3495   2.455   1.567   1.617 -0.6068  0.1415 -0.4958
  856SOL     OW 3496   2.240   1.747   1.570  0.0771 -0.3080  0.4556
  856SOL    HW2 3497   2.310   1.692   1.604 -1.0108 -1.3364  1.0319
  856SOL    HW3 3498   2.254   1.747   1.475 -0.0427 -1.7331  0.4342
  856SOL    MW4 3499   2.251   1.740   1.562 -0.0825 -0.6317  0.5288
  857SOL     OW 3500   2.229   1.991   1.677 -0.2834  0.4209  0.1494
  857SOL    HW2 3501   2.241   1.976   1.771  0.0032  1.6769  0.3266
  857SOL    HW3 3502   2.220   1.903   1.639 -0.6822 -0.0811  1.3870
  857SOL    MW4 3503   2.229   1.977   1.684 -0.2983  0.5205  0.3359
  858SOL     OW 3504   2.480   2.063   1.553 -0.0049 -0.2050  0.6785
  858SOL    HW2 3505   2.408   2.037   1.611 -0.1917 -1.6621 -0.1872
  858SOL    HW3 3506   2.551   2.001   1.573  0.2062 -0.2169 -0.0923
  858SOL    MW4 3507   2.480   2.051   1.563 -0.0019 -0.3989  0.4627
  859SOL     OW 3508   2.414   2.329   1.627 -0.1395 -0.4961 -0.4180
  859SOL    HW2 3509   2.416   2.339   1.722  0.5604  1.0538 -0.5819
  859SOL    HW3 3510   2.444   2.239   1.612  0.0399 -0.6503  0.8050
  859SOL    MW4 3511   2.418   2.318   1.638 -0.0236 -0.3121 -0.2781
  860SOL     OW 3512   2.206   2.485   1.582 -0.2344 -0.5285  0.0503
  860SOL    HW2 3513   2.278   2.423   1.591  0.3057  0.0077 -0.4887
  860SOL    HW3 3514   2.129   2.437   1.612  0.0650 -1.6633 -0.9445
  860SOL    MW4 3515   2.205   2.471   1.587 -0.1235 -0.6077 -0.1520
  861SOL     OW 3516   2.229   2.749   1.627 -0.2802 -0.0349  0.6739
  861SOL    HW2 3517   2.164   2.785   1.566  2.0880  0.0138 -1.8853
  861SOL    HW3 3518   2.220   2.654   1.618 -0.2158 -0.0308  0.5677
  861SOL    MW4 3519   2.219   2.741   1.618  0.0408 -0.0281  0.3222
  862SOL     OW 3520   3.810   4.402   0.413  0.0108 -0.7311 -0.1005
  862SOL    HW2 3521   3.858   4.327   0.378  0.0553 -0.4768 -0.5826
  862SOL    HW3 3522   3.878   4.458   0.450  0.2299  0.2521 -1.9336
  862SOL    MW4 3523   3.826   4.400   0.413  0.0458 -0.5679 -0.4060
  863SOL     OW 3524   2.475   2.847   1.540  0.8197 -0.2597  0.1944
  863SOL    HW2 3525   2.468   2.939   1.569  0.5418  0.4829 -2.1655
  863SOL    HW3 3526   2.391   2.808   1.565  0.5535  0.3783  0.3053
  863SOL    MW4 3527   2.463   2.854   1.547  0.7477 -0.0775 -0.1024
  864SOL     OW 3528   2.229   3.223   1.536  0.4077 -0.5105 -0.2915
  864SOL    HW2 3529   2.211   3.314   1.557  1.0275 -0.6319  0.7900
  864SOL    HW3 3530   2.232   3.221   1.440 -1.2263  0.2753 -0.3733
  864SOL    MW4 3531   2.227   3.235   1.526  0.2739 -0.4230 -0.1595
  865SOL     OW 3532   2.203   3.501   1.632  0.5809 -0.0271  0.2806
  865SOL    HW2 3533   2.214   3.506   1.727 -0.1716  1.9624  0.2832
  865SOL    HW3 3534   2.285   3.536   1.597  1.3390 -1.8576  0.1625
  865SOL    MW4 3535   2.216   3.506   1.640  0.5817 -0.0062  0.2654
  866SOL     OW 3536   2.439   3.638   1.559 -0.3419 -0.2588  0.7918
  866SOL    HW2 3537   2.528   3.602   1.570 -0.4764 -0.4496  1.2979
  866SOL    HW3 3538   2.445   3.727   1.594 -0.6560 -0.7059  1.9992
  866SOL    MW4 3539   2.452   3.645   1.565 -0.4010 -0.3426  1.0178
  867SOL     OW 3540   2.465   3.892   1.651  0.1328 -0.0118  0.4020
  867SOL    HW2 3541   2.477   3.918   1.742 -1.0402 -0.8563  0.8213
  867SOL    HW3 3542   2.546   3.918   1.607  1.1364 -0.5480  1.8982
  867SOL    MW4 3543   2.477   3.899   1.657  0.1104 -0.1938  0.6547
  868SOL     OW 3544   2.247   3.999   1.495  0.0490  0.1312  0.3076
  868SOL    HW2 3545   2.324   3.954   1.531  0.9041  1.2245 -0.1155
  868SOL    HW3 3546   2.264   4.003   1.401 -0.9820 -0.4710  0.0937
  868SOL    MW4 3547   2.259   3.994   1.488  0.0255  0.1962  0.2236
  869SOL     OW 3548   2.240   4.274   1.572  0.3240 -0.0802  0.1888
  869SOL    HW2 3549   2.315   4.323   1.537  0.4754 -0.8568 -0.5757
  869SOL    HW3 3550   2.254   4.184   1.544 -0.7348 -0.2973  0.3274
  869SOL    MW4 3551   2.252   4.269   1.564  0.2043 -0.2108  0.1061
  870SOL     OW 3552   2.473   4.410   1.515 -0.2323  0.1349  0.0336
  870SOL    HW2 3553   2.484   4.496   1.554 -1.3624  0.4648 -0.3490
  870SOL    HW3 3554   2.496   4.421   1.423  2.9368 -0.7623  0.6478
  870SOL    MW4 3555   2.477   4.422   1.508  0.0367  0.0596  0.0640
  871SOL     OW 3556   2.893   4.618   1.619  0.0441 -0.1556 -0.1173
  871SOL    HW2 3557   2.900   4.621   1.714 -0.6914  0.5291 -0.0840
  871SOL    HW3 3558   2.830   4.686   1.597 -0.9330 -1.3143 -0.9708
  871SOL    MW4 3559   2.886   4.627   1.629 -0.1819 -0.2179 -0.2257
  872SOL     OW 3560   2.704   0.149   1.518  0.2365  0.0583  0.5561
  872SOL    HW2 3561   2.697   0.242   1.537 -1.1434 -0.0097  0.3841
  872SOL    HW3 3562   2.629   0.109   1.561 -0.1968 -0.7292 -0.8831
  872SOL    MW4 3563   2.693   0.156   1.526 -0.0026 -0.0546  0.3436
  873SOL     OW 3564   2.716   0.400   1.588 -0.2950  0.3377  0.1325
  873SOL    HW2 3565   2.721   0.412   1.683 -0.1070  0.5980  0.0910
  873SOL    HW3 3566   2.800   0.433   1.556 -0.1854 -0.1432 -0.0831
  873SOL    MW4 3567   2.728   0.406   1.596 -0.2558  0.3086  0.0986
  874SOL     OW 3568   2.943   0.514   1.509  0.1248  0.2993  0.3450
  874SOL    HW2 3569   2.928   0.606   1.533 -2.5394  0.0783 -0.3963
  874SOL    HW3 3570   2.949   0.515   1.413  0.1866 -0.2925  0.3419
  874SOL    MW4 3571   2.942   0.526   1.499 -0.2184  0.1920  0.2469
  875SOL     OW 3572   2.939   0.779   1.592  0.5165  0.2769  0.5742
  875SOL    HW2 3573   2.956   0.764   1.685 -0.2545 -0.4430  0.6106
  875SOL    HW3 3574   2.855   0.825   1.591  0.4769  0.1965  0.2295
  875SOL    MW4 3575   2.930   0.783   1.604  0.4098  0.1713  0.5335
  876SOL     OW 3576   2.677   0.917   1.502 -0.4028  0.2066  0.5210
  876SOL    HW2 3577   2.608   0.857   1.531 -1.1165  0.5516 -0.4446
  876SOL    HW3 3578   2.679   0.906   1.407  1.6544 -0.6427  0.6271
  876SOL    MW4 3579   2.668   0.907   1.493 -0.2255  0.1401  0.4076
  877SOL     OW 3580   2.698   1.184   1.629 -0.2437 -0.2005 -0.3203
  877SOL    HW2 3581   2.685   1.099   1.587  1.5894 -0.5438 -0.2762
  877SOL    HW3 3582   2.633   1.241   1.589 -0.6079 -1.2937 -1.3345
  877SOL    MW4 3583   2.688   1.180   1.618 -0.0498 -0.3902 -0.4482
  878SOL     OW 3584   2.964   1.242   1.516 -0.0943 -0.1421  0.3920
  878SOL    HW2 3585   3.044   1.204   1.553 -0.0578 -1.5302 -1.0529
  878SOL    HW3 3586   2.894   1.213   1.576  0.3910  0.5755  1.3233
  878SOL    MW4 3587   2.965   1.233   1.529 -0.0255 -0.2306  0.3241
  879SOL     OW 3588   2.937   1.482   1.638 -0.4959 -0.9110 -0.0928
  879SOL    HW2 3589   2.868   1.524   1.587 -0.7204 -1.7124 -0.4687
  879SOL    HW3 3590   2.949   1.397   1.596  0.1645 -1.0997  0.4605
  879SOL    MW4 3591   2.930   1.476   1.626 -0.4385 -1.0417 -0.0694
  880SOL     OW 3592   2.702   1.632   1.538  0.0256  0.0994  0.1944
  880SOL    HW2 3593   2.683   1.724   1.558 -0.6931 -0.4142  1.9247
  880SOL    HW3 3594   2.688   1.625   1.443 -3.4715  0.9795  0.5498
  880SOL    MW4 3595   2.697   1.643   1.528 -0.5307  0.1477  0.4696
  881SOL     OW 3596   2.684   1.895   1.611 -0.1887 -0.1838 -0.2449
  881SOL    HW2 3597   2.760   1.942   1.577  0.2903 -1.4368 -0.9550
  881SOL    HW3 3598   2.697   1.893   1.706  0.7014 -0.4457 -0.3690
  881SOL    MW4 3599   2.695   1.901   1.619 -0.0079 -0.3837 -0.3551
  882SOL     OW 3600   2.921   2.034   1.522 -0.3946 -0.1268  0.2100
  882SOL    HW2 3601   2.994   1.995   1.570 -1.3522 -1.3458  0.7137
  882SOL    HW3 3602   2.920   2.126   1.550  1.1797 -0.0134 -0.1081
  882SOL    MW4 3603   2.930   2.041   1.532 -0.3130 -0.2728  0.2346
  883SOL     OW 3604   3.154   2.426   1.545  0.5038 -0.0436 -1.0039
  883SOL    HW2 3605   3.221   2.371   1.586 -1.0691 -0.2841  1.4036
  883SOL    HW3 3606   3.071   2.391   1.580 -0.7229  1.6347 -2.1804
  883SOL    MW4 3607   3.152   2.414   1.555  0.1345  0.1459 -0.8414
  884SOL     OW 3608   2.660   2.418   1.552  0.2638 -0.2290 -0.2188
  884SOL    HW2 3609   2.579   2.383   1.588  0.3884  0.5969  0.8769
  884SOL    HW3 3610   2.660   2.510   1.576  2.2560 -0.5475  1.1905
  884SOL    MW4 3611   2.649   2.425   1.560  0.5429 -0.1619  0.1118
  885SOL     OW 3612   2.689   2.682   1.600  0.2979  0.2643 -0.3943
  885SOL    HW2 3613   2.619   2.736   1.566 -0.5123 -0.3861  0.2113
  885SOL    HW3 3614   2.687   2.696   1.695  1.4201  0.7551 -0.4339
  885SOL    MW4 3615   2.680   2.691   1.608  0.3390  0.2432 -0.3196
  886SOL     OW 3616   2.922   2.800   1.513  0.2408 -0.0810  0.2955
  886SOL    HW2 3617   2.846   2.752   1.545 -1.4705  1.9176 -0.6778
  886SOL    HW3 3618   2.909   2.890   1.544  2.6220  0.1184  0.8108
  886SOL    MW4 3619   2.910   2.806   1.521  0.3288  0.2091  0.2351
  887SOL     OW 3620   2.907   3.073   1.644  0.3577  0.0731 -0.2655
  887SOL    HW2 3621   2.906   3.090   1.738  2.9546 -0.6822 -0.0682
  887SOL    HW3 3622   2.987   3.116   1.613  0.6466 -1.5168 -1.7702
  887SOL    MW4 3623   2.918   3.081   1.652  0.7384 -0.2360 -0.4379
  888SOL     OW 3624   2.470   3.108   1.625 -0.0610  0.0271  0.4706
  888SOL    HW2 3625   2.542   3.161   1.591 -1.2907  0.5030 -1.4620
  888SOL    HW3 3626   2.391   3.150   1.590 -1.1075 -2.4599 -0.2572
  888SOL    MW4 3627   2.469   3.121   1.616 -0.3612 -0.2379  0.1196
  889SOL     OW 3628   2.687   3.518   1.612  0.1112 -0.2167  0.2860
  889SOL    HW2 3629   2.681   3.509   1.707  0.4781 -0.4137  0.2909
  889SOL    HW3 3630   2.692   3.428   1.579  1.9737 -0.1128  0.2206
  889SOL    MW4 3631   2.687   3.505   1.620  0.4051 -0.2291  0.2779
  890SOL     OW 3632   2.931   3.623   1.546  0.3169 -0.1449 -0.3196
  890SOL    HW2 3633   2.847   3.582   1.566  0.9656 -1.7250 -0.7064
  890SOL    HW3 3634   2.943   3.609   1.452  1.6234 -1.1822 -0.0306
  890SOL    MW4 3635   2.922   3.615   1.537  0.5748 -0.4900 -0.3325
  891SOL     OW 3636   2.929   3.898   1.581  0.0738  0.0948 -0.0878
  891SOL    HW2 3637   2.844   3.931   1.551  0.0718  0.8771  0.7474
  891SOL    HW3 3638   2.921   3.803   1.575 -0.7740  0.1692 -0.2558
  891SOL    MW4 3639   2.917   3.890   1.576 -0.0384  0.2077  0.0002
  892SOL     OW 3640   2.676   4.000   1.505  0.4900  0.0153  0.3192
  892SOL    HW2 3641   2.673   4.081   1.555 -1.5610 -0.6069  1.2720
  892SOL    HW3 3642   2.668   4.027   1.414  1.7796  0.9931  0.4793
  892SOL    MW4 3643   2.674   4.014   1.500  0.3898  0.0620  0.4661
  893SOL     OW 3644   2.654   4.236   1.648  0.0511  0.2996  0.2284
  893SOL    HW2 3645   2.736   4.270   1.610 -0.3368  0.0234 -0.8915
  893SOL    HW3 3646   2.585   4.288   1.607 -0.5514 -1.7950 -1.5414
  893SOL    MW4 3647   2.656   4.247   1.637 -0.0794 -0.0129 -0.1529
  894SOL     OW 3648   2.889   4.339   1.526  0.0943 -0.4794 -0.2345
  894SOL    HW2 3649   2.887   4.430   1.554 -2.7811 -0.1078 -1.3846
  894SOL    HW3 3650   2.896   4.344   1.430  0.0646 -1.4428 -0.2924
  894SOL    MW4 3651   2.890   4.352   1.517 -0.2890 -0.5579 -0.3939
  895SOL     OW 3652   3.349   4.625   1.632 -0.5124 -0.0897  0.2811
  895SOL    HW2 3653   3.426   4.678   1.613  0.5764 -1.5835  0.4562
  895SOL    HW3 3654   3.362   4.544   1.583 -0.6591 -1.4491  2.4102
  895SOL    MW4 3655   3.361   4.621   1.623 -0.3879 -0.4663  0.5850
  896SOL     OW 3656   3.108   0.074   1.517  0.0565 -0.3657  0.1414
  896SOL    HW2 3657   3.177   0.035   1.571  0.1056  1.2483  1.2973
  896SOL    HW3 3658   3.027   0.040   1.554  0.0037  2.1274  2.4500
  896SOL    MW4 3659   3.107   0.064   1.529  0.0560  0.1762  0.5984
  897SOL     OW 3660   3.116   0.340   1.635  0.1945 -0.0539  0.6503
  897SOL    HW2 3661   3.110   0.257   1.586 -2.1686  0.1141  0.6321
  897SOL    HW3 3662   3.052   0.397   1.594  1.8774  1.8712  0.5967
  897SOL    MW4 3663   3.107   0.336   1.623  0.1047  0.2222  0.6410
  898SOL     OW 3664   3.358   0.460   1.568  0.0185 -0.4089  0.3633
  898SOL    HW2 3665   3.270   0.430   1.591 -0.5637 -0.0867 -1.3499
  898SOL    HW3 3666   3.349   0.493   1.479  1.6720  0.5222  0.5236
  898SOL    MW4 3667   3.345   0.461   1.560  0.1597 -0.2435  0.1584
  899SOL     OW 3668   3.363   0.728   1.653  0.0105  0.2471 -0.0173
  899SOL    HW2 3669   3.357   0.731   1.748 -1.0223  1.9178 -0.1136
  899SOL    HW3 3670   3.369   0.635   1.632 -1.7880 -0.2619  1.5635
  899SOL    MW4 3671   3.363   0.716   1.663 -0.3629  0.4004  0.1786
  900SOL     OW 3672   3.193   1.133   1.622  0.4456  0.6523  0.1990
  900SOL    HW2 3673   3.190   1.126   1.718  0.4743  1.1142  0.2325
  900SOL    HW3 3674   3.211   1.043   1.593 -0.3374  0.3689  0.5845
  900SOL    MW4 3675   3.195   1.120   1.631  0.3462  0.6758  0.2545
  901SOL     OW 3676   3.189   0.886   1.518  0.5015  1.1687  0.0098
  901SOL    HW2 3677   3.242   0.822   1.566  0.0326  0.1468 -0.8086
  901SOL    HW3 3678   3.099   0.858   1.532  0.4090 -0.0113 -2.6199
  901SOL    MW4 3679   3.184   0.874   1.526  0.4277  0.8782 -0.4451
  902SOL     OW 3680   0.747   2.339   0.818  0.0460  0.3670 -0.4016
  902SOL    HW2 3681   0.663   2.340   0.771  0.3924  1.4223 -1.0381
  902SOL    HW3 3682   0.723   2.337   0.910 -0.7008  1.4440 -0.5636
  902SOL    MW4 3683   0.733   2.339   0.824 -0.0069  0.6483 -0.5069
  903SOL     OW 3684   3.416   1.548   1.631  0.1569 -0.3123 -0.3856
  903SOL    HW2 3685   3.412   1.544   1.727 -0.3467 -2.0420 -0.4595
  903SOL    HW3 3686   3.421   1.456   1.604  1.6581  0.2058 -1.9729
  903SOL    MW4 3687   3.416   1.535   1.640  0.2887 -0.4721 -0.6047
  904SOL     OW 3688   3.153   1.632   1.530 -0.0888 -0.3174 -0.0658
  904SOL    HW2 3689   3.235   1.604   1.570 -0.4088  0.7614  1.3821
  904SOL    HW3 3690   3.089   1.568   1.560 -0.2620  0.2977  0.9064
  904SOL    MW4 3691   3.155   1.620   1.540 -0.1538 -0.0938  0.2536
  905SOL     OW 3692   3.142   1.896   1.612  0.7763  0.1781 -0.3392
  905SOL    HW2 3693   3.167   1.899   1.704 -0.8039  0.4161  0.1050
  905SOL    HW3 3694   3.133   1.803   1.592  0.3143  0.1465 -0.0063
  905SOL    MW4 3695   3.144   1.884   1.622  0.5069  0.2054 -0.2366
  906SOL     OW 3696   3.376   2.009   1.530 -0.5149  0.2905  0.3534
  906SOL    HW2 3697   3.294   1.962   1.546  0.5533 -1.5337  0.7169
  906SOL    HW3 3698   3.363   2.095   1.567 -2.5698  0.3113 -0.3532
  906SOL    MW4 3699   3.363   2.014   1.537 -0.6452  0.0527  0.3080
  907SOL     OW 3700   3.352   2.264   1.626 -0.1662  0.0346  0.4158
  907SOL    HW2 3701   3.418   2.332   1.611  0.1761 -0.4728 -0.4631
  907SOL    HW3 3702   3.355   2.247   1.720  1.3974 -0.4146  0.2990
  907SOL    MW4 3703   3.361   2.270   1.636  0.0854 -0.0918  0.2844
  908SOL     OW 3704   3.303   2.814   1.246 -0.1185  0.5429 -0.4563
  908SOL    HW2 3705   3.310   2.902   1.208 -1.0687  1.0310  0.4578
  908SOL    HW3 3706   3.354   2.819   1.327 -0.3126  0.3038 -0.3203
  908SOL    MW4 3707   3.310   2.826   1.252 -0.2694  0.5758 -0.3178
  909SOL     OW 3708   3.161   2.728   1.618  0.2421  0.0417 -0.4409
  909SOL    HW2 3709   3.074   2.759   1.590 -0.1324 -1.0974 -0.5518
  909SOL    HW3 3710   3.157   2.633   1.608  0.6788 -0.2337  1.9032
  909SOL    MW4 3711   3.149   2.720   1.613  0.2499 -0.1450 -0.1464
  910SOL     OW 3712   3.400   2.840   1.501 -0.0097  0.0269  0.4836
  910SOL    HW2 3713   3.383   2.933   1.516  1.9010  0.1870  1.8554
  910SOL    HW3 3714   3.321   2.796   1.533 -0.5257  1.1180  0.7290
  910SOL    MW4 3715   3.387   2.846   1.507  0.1745  0.1922  0.6969
  911SOL     OW 3716   3.351   3.092   1.641 -0.0775  0.5365  0.2648
  911SOL    HW2 3717   3.333   3.091   1.735  1.9496 -0.4823  0.6639
  911SOL    HW3 3718   3.417   3.161   1.629 -0.8531  1.1625 -0.5279
  911SOL    MW4 3719   3.357   3.101   1.652  0.0877  0.4845  0.2128
  912SOL     OW 3720   3.120   3.222   1.555 -0.5972  0.8121  0.3734
  912SOL    HW2 3721   3.198   3.175   1.585  0.0026  0.3405 -1.8157
  912SOL    HW3 3722   3.141   3.314   1.567  0.5826  0.7132 -0.7774
  912SOL    MW4 3723   3.133   3.228   1.560 -0.3624  0.7367 -0.0674
  913SOL     OW 3724   3.158   3.472   1.638 -0.2013  0.0630 -0.2999
  913SOL    HW2 3725   3.147   3.457   1.732  0.1701  1.2084 -0.0704
  913SOL    HW3 3726   3.088   3.532   1.614 -0.4330 -0.4002 -0.8111
  913SOL    MW4 3727   3.148   3.478   1.647 -0.1829  0.1531 -0.3369
  914SOL     OW 3728   3.410   3.579   1.519  0.5903 -0.0364 -0.4790
  914SOL    HW2 3729   3.495   3.563   1.559 -0.5032 -0.0886  1.8689
  914SOL    HW3 3730   3.348   3.528   1.571 -1.0886  1.1502 -1.2452
  914SOL    MW4 3731   3.413   3.570   1.531  0.2246  0.1135 -0.2702
  915SOL     OW 3732   3.426   3.827   1.621 -0.2495  0.1869 -0.1876
  915SOL    HW2 3733   3.350   3.876   1.589 -1.7124 -1.0628  1.2130
  915SOL    HW3 3734   3.414   3.739   1.584  0.4749 -0.0313  0.0940
  915SOL    MW4 3735   3.414   3.822   1.612 -0.3467 -0.0064  0.0343
  916SOL     OW 3736   3.204   3.978   1.546 -0.6813 -0.3807 -0.2476
  916SOL    HW2 3737   3.200   4.073   1.558  1.4600 -0.5110  2.0300
  916SOL    HW3 3738   3.115   3.948   1.562 -1.2384  1.1666 -0.3187
  916SOL    MW4 3739   3.192   3.987   1.550 -0.4721 -0.1934  0.0435
  917SOL     OW 3740   3.159   4.278   1.573  0.2148 -0.0770 -0.1779
  917SOL    HW2 3741   3.157   4.280   1.668  0.6335  0.2668 -0.1780
  917SOL    HW3 3742   3.067   4.264   1.548  0.0313  0.3147  0.2648
  917SOL    MW4 3743   3.146   4.276   1.582  0.2460  0.0200 -0.1194
  918SOL     OW 3744   3.388   4.407   1.478 -0.0836 -0.0386  0.2759
  918SOL    HW2 3745   3.306   4.375   1.515  0.7349 -2.6113 -0.0286
  918SOL    HW3 3746   3.377   4.400   1.384  0.3116  0.0709  0.2197
  918SOL    MW4 3747   3.376   4.402   1.471  0.0765 -0.3633  0.2284
  919SOL     OW 3748   3.812   4.582   1.633  0.3094  0.1620 -0.7173
  919SOL    HW2 3749   3.813   4.608   1.725 -1.6560  1.4109 -0.9982
  919SOL    HW3 3750   3.885   4.629   1.594  1.1601 -0.3801  0.1908
  919SOL    MW4 3751   3.821   4.592   1.640  0.1624  0.2551 -0.6347
  920SOL     OW 3752   3.598   0.067   1.564  0.4008  0.0043 -0.5131
  920SOL    HW2 3753   3.670   0.006   1.582  1.6936  1.3639 -1.0711
  920SOL    HW3 3754   3.592   0.069   1.468  0.8141  1.2569 -0.5215
  920SOL    MW4 3755   3.607   0.059   1.554  0.6261  0.3490 -0.5878
  921SOL     OW 3756   3.601   0.347   1.650  0.1074 -0.2871 -0.1301
  921SOL    HW2 3757   3.516   0.387   1.633 -0.6112 -1.1705  1.3616
  921SOL    HW3 3758   3.592   0.256   1.621  0.0560 -0.7902  1.4470
  921SOL    MW4 3759   3.589   0.341   1.644  0.0060 -0.4700  0.2750
  922SOL     OW 3760   3.787   0.502   1.522 -0.1966  0.2318  0.5452
  922SOL    HW2 3761   3.720   0.444   1.558 -0.5809  0.8182  0.7881
  922SOL    HW3 3762   3.769   0.505   1.428  1.1244 -1.7115  0.2089
  922SOL    MW4 3763   3.776   0.495   1.515 -0.0727  0.0528  0.5329
  923SOL     OW 3764   3.835   0.771   1.593 -0.5936 -0.5695  0.2546
  923SOL    HW2 3765   3.750   0.811   1.574 -0.8005 -1.1371 -0.0349
  923SOL    HW3 3766   3.821   0.677   1.580 -0.1461 -0.7519  1.0390
  923SOL    MW4 3767   3.822   0.764   1.589 -0.5622 -0.6684  0.3198
  924SOL     OW 3768   3.580   0.870   1.537 -0.1974  0.1595  0.5518
  924SOL    HW2 3769   3.518   0.806   1.572  0.5467 -0.4501  0.7894
  924SOL    HW3 3770   3.562   0.950   1.586 -1.8732  0.4508 -0.5183
  924SOL    MW4 3771   3.570   0.872   1.548 -0.3202  0.1175  0.4420
  925SOL     OW 3772   3.591   1.141   1.650  0.0067 -0.2857 -0.1942
  925SOL    HW2 3773   3.679   1.158   1.615  0.1095 -1.3594 -0.4730
  925SOL    HW3 3774   3.606   1.120   1.742  0.0561 -0.6250 -0.2802
  925SOL    MW4 3775   3.605   1.140   1.658  0.0267 -0.4719 -0.2422
  926SOL     OW 3776   3.838   1.249   1.551  0.4023  0.0925  0.2335
  926SOL    HW2 3777   3.928   1.228   1.575  0.2493 -1.3697 -0.4368
  926SOL    HW3 3778   3.828   1.341   1.576  1.2576 -0.4517  2.6637
  926SOL    MW4 3779   3.849   1.259   1.557  0.4947 -0.1723  0.4658
  927SOL     OW 3780   3.833   1.540   1.576 -0.0507  0.0342  0.0933
  927SOL    HW2 3781   3.825   1.546   1.671 -1.5889 -3.5914  0.2727
  927SOL    HW3 3782   3.755   1.583   1.542 -0.3365 -0.1290  0.5383
  927SOL    MW4 3783   3.822   1.546   1.584 -0.2916 -0.4656  0.1758
  928SOL     OW 3784   3.609   1.671   1.483  0.1298 -0.4723 -0.2317
  928SOL    HW2 3785   3.528   1.634   1.516 -0.1697  0.4947  0.1442
  928SOL    HW3 3786   3.592   1.686   1.390 -0.8745  1.6789  0.2703
  928SOL    MW4 3787   3.596   1.668   1.475 -0.0424 -0.0609 -0.1158
  929SOL     OW 3788   3.600   1.890   1.655 -0.4334 -0.0669  0.4700
  929SOL    HW2 3789   3.613   1.802   1.618  0.5047  0.3247 -0.1702
  929SOL    HW3 3790   3.520   1.922   1.612 -1.0225 -0.7692  1.0311
  929SOL    MW4 3791   3.591   1.882   1.644 -0.3874 -0.1079  0.4596
  930SOL     OW 3792   3.806   2.042   1.535  0.1374 -0.0284 -0.0168
  930SOL    HW2 3793   3.800   2.127   1.578  1.8487  0.0970  0.0122
  930SOL    HW3 3794   3.730   1.993   1.567 -1.4248  1.8420 -0.8364
  930SOL    MW4 3795   3.795   2.047   1.545  0.1571  0.2353 -0.1211
  931SOL     OW 3796   3.779   2.319   1.627  0.4688  0.3122 -0.0879
  931SOL    HW2 3797   3.783   2.333   1.721  0.6329  0.1873 -0.0757
  931SOL    HW3 3798   3.860   2.358   1.593  0.7558 -0.2763 -0.0947
  931SOL    MW4 3799   3.790   2.326   1.635  0.5281  0.2179 -0.0873
  932SOL     OW 3800   3.534   2.463   1.561  0.2158 -0.7244  0.3368
  932SOL    HW2 3801   3.608   2.404   1.571  0.5347 -0.2603  0.7414
  932SOL    HW3 3802   3.564   2.546   1.598 -0.0432 -0.1570 -0.7047
  932SOL    MW4 3803   3.548   2.466   1.567  0.2236 -0.5884  0.2527
  933SOL     OW 3804   3.606   2.719   1.660  1.1055  0.5603  0.1348
  933SOL    HW2 3805   3.579   2.726   1.752 -1.8878 -0.5846 -0.6325
  933SOL    HW3 3806   3.538   2.765   1.611  1.7772 -0.3205 -1.6623
  933SOL    MW4 3807   3.594   2.726   1.666  0.7994  0.2933 -0.2035
  934SOL     OW 3808   3.813   2.854   1.530  0.0428 -0.0160  0.3569
  934SOL    HW2 3809   3.889   2.802   1.558  0.5480  0.1720 -0.6261
  934SOL    HW3 3810   3.738   2.812   1.571  0.6864 -0.2083  1.3466
  934SOL    MW4 3811   3.813   2.841   1.539  0.1945 -0.0167  0.3577
  935SOL     OW 3812   3.817   3.110   1.663  0.2389 -0.1412 -0.2715
  935SOL    HW2 3813   3.888   3.157   1.619  1.0015 -1.6383 -0.6831
  935SOL    HW3 3814   3.824   3.020   1.629 -1.6922 -0.3618 -0.1212
  935SOL    MW4 3815   3.827   3.104   1.653  0.0846 -0.3679 -0.3060
  936SOL     OW 3816   3.599   3.258   1.567  0.3449  0.4262  0.5782
  936SOL    HW2 3817   3.655   3.192   1.607 -0.9027 -1.0920 -0.1183
  936SOL    HW3 3818   3.616   3.251   1.474  0.5081  1.3853  0.5325
  936SOL    MW4 3819   3.608   3.248   1.560  0.2019  0.3524  0.4802
  937SOL     OW 3820   3.660   3.512   1.635 -0.0310 -0.2544  0.0779
  937SOL    HW2 3821   3.646   3.502   1.729 -0.8971  0.6090  0.0503
  937SOL    HW3 3822   3.646   3.425   1.599  0.2280 -0.5724  0.7335
  937SOL    MW4 3823   3.657   3.499   1.643 -0.1111 -0.1822  0.1607
  938SOL     OW 3824   3.862   3.640   1.508  0.6505  0.7187 -0.4026
  938SOL    HW2 3825   3.799   3.586   1.556  2.5650 -0.3356  1.0323
  938SOL    HW3 3826   3.843   3.730   1.534 -0.2437  0.4038  0.0377
  938SOL    MW4 3827   3.852   3.644   1.518  0.7849  0.5379 -0.1552
  939SOL     OW 3828   3.855   3.878   1.651  0.1879 -0.2516 -0.0822
  939SOL    HW2 3829   3.923   3.933   1.612  0.7415 -1.8311 -1.4038
  939SOL    HW3 3830   3.773   3.915   1.620  0.5445  0.1219 -0.5704
  939SOL    MW4 3831   3.853   3.890   1.642  0.3080 -0.4110 -0.3210
  940SOL     OW 3832   3.624   3.963   1.529 -0.0014  0.3958  0.2471
  940SOL    HW2 3833   3.623   4.048   1.573 -0.3451 -0.6525  2.3040
  940SOL    HW3 3834   3.555   3.913   1.572  0.6412 -1.1622 -0.4962
  940SOL    MW4 3835   3.614   3.968   1.540  0.0379  0.0520  0.4205
  941SOL     OW 3836   3.567   4.215   1.585 -0.0402  0.0400  0.6570
  941SOL    HW2 3837   3.561   4.243   1.676 -2.3679 -1.7825  1.1120
  941SOL    HW3 3838   3.502   4.268   1.539 -1.2409 -1.3987  0.6836
  941SOL    MW4 3839   3.558   4.226   1.591 -0.5059 -0.3901  0.7205
  942SOL     OW 3840   3.779   4.365   1.480  0.3308  0.6287  0.4602
  942SOL    HW2 3841   3.710   4.308   1.514 -0.3959  1.5219  0.4938
  942SOL    HW3 3842   3.779   4.441   1.539  0.7840  1.0114 -0.0263
  942SOL    MW4 3843   3.770   4.368   1.492  0.2947  0.7968  0.4004
  943SOL     OW 3844   4.242   0.007   1.620 -0.1021 -0.1814 -0.3513
  943SOL    HW2 3845   4.248   0.017   1.715 -1.8212  0.9193 -0.3267
  943SOL    HW3 3846   4.251  -0.087   1.605  1.3498 -0.2324  0.7924
  943SOL    MW4 3847   4.244  -0.004   1.631 -0.1378 -0.0429 -0.1972
  944SOL     OW 3848   4.004   0.092   1.538  0.0607  0.6068 -0.3229
  944SOL    HW2 3849   3.996   0.180   1.575 -0.3146  0.1075  0.8027
  944SOL    HW3 3850   4.090   0.062   1.567 -0.3045  0.1500  0.2844
  944SOL    MW4 3851   4.014   0.100   1.547 -0.0367  0.4807 -0.0942
  945SOL     OW 3852   4.030   0.377   1.637 -0.0140 -0.8469  0.5953
  945SOL    HW2 3853   4.013   0.365   1.731 -0.5095 -2.2096  0.3461
  945SOL    HW3 3854   3.953   0.422   1.604  0.5618  0.4503  1.0083
  945SOL    MW4 3855   4.018   0.381   1.645 -0.0033 -0.8556  0.6169
  946SOL     OW 3856   4.235   0.542   1.494  0.1118  0.0096 -0.2043
  946SOL    HW2 3857   4.169   0.488   1.538 -0.0858 -0.2731 -0.8560
  946SOL    HW3 3858   4.319   0.509   1.528 -0.1116  1.1012  1.4625
  946SOL    MW4 3859   4.238   0.530   1.505  0.0563  0.1163 -0.0703
  947SOL     OW 3860   4.257   0.792   1.625 -0.1348  0.2542  0.3188
  947SOL    HW2 3861   4.242   0.714   1.571  0.6138 -0.1103  0.6397
  947SOL    HW3 3862   4.341   0.826   1.596 -1.3420  2.0753 -1.1800
  947SOL    MW4 3863   4.266   0.786   1.614 -0.1950  0.4463  0.1634
  948SOL     OW 3864   4.099   1.156   1.609  0.0066 -0.2683 -0.2989
  948SOL    HW2 3865   4.100   1.144   1.704  0.7293  1.3152 -0.1008
  948SOL    HW3 3866   4.084   1.068   1.575  2.3157 -1.3024  1.1938
  948SOL    MW4 3867   4.097   1.143   1.617  0.4067 -0.1959 -0.0758
  949SOL     OW 3868   4.053   0.909   1.473 -0.0916 -0.0904 -0.2508
  949SOL    HW2 3869   3.979   0.877   1.525  1.6417 -0.2697  2.1742
  949SOL    HW3 3870   4.129   0.868   1.512  1.3799  0.5632 -2.3511
  949SOL    MW4 3871   4.053   0.900   1.485  0.3319 -0.0278 -0.2079
  950SOL     OW 3872   4.280   1.313   1.468  0.2146 -0.3087  0.1379
  950SOL    HW2 3873   4.220   1.257   1.518 -0.4201  0.0422 -0.2294
  950SOL    HW3 3874   4.367   1.277   1.488 -0.1490 -1.1344  0.2760
  950SOL    MW4 3875   4.284   1.301   1.478  0.0825 -0.3713  0.1076
  951SOL     OW 3876   4.261   1.543   1.612 -0.3382 -0.0218 -0.4744
  951SOL    HW2 3877   4.265   1.459   1.566  1.6435 -0.6562  0.7801
  951SOL    HW3 3878   4.334   1.594   1.577 -0.3969  0.4574  0.0842
  951SOL    MW4 3879   4.271   1.539   1.601 -0.0849 -0.0422 -0.2352
  952SOL     OW 3880   4.049   1.696   1.511 -0.0390 -0.5766  0.0012
  952SOL    HW2 3881   4.117   1.631   1.531 -0.1289 -0.2556  1.4200
  952SOL    HW3 3882   3.967   1.653   1.537 -0.2828 -0.5859 -0.7757
  952SOL    MW4 3883   4.047   1.681   1.517 -0.0839 -0.5355  0.0859
  953SOL     OW 3884   4.073   1.957   1.604 -0.4711  0.0328 -0.7511
  953SOL    HW2 3885   4.081   1.865   1.576 -0.8733  0.0834 -1.0431
  953SOL    HW3 3886   3.995   1.989   1.558 -1.8013 -0.1910  1.3181
  953SOL    MW4 3887   4.064   1.949   1.594 -0.6995  0.0098 -0.5165
  954SOL     OW 3888   4.282   2.116   1.532  0.0723 -0.0213 -0.0535
  954SOL    HW2 3889   4.209   2.063   1.565  0.6725 -0.7513  0.1210
  954SOL    HW3 3890   4.282   2.101   1.438  1.7557 -2.3163  0.2557
  954SOL    MW4 3891   4.273   2.107   1.524  0.3734 -0.4206  0.0103
  955SOL     OW 3892   4.245   2.362   1.590 -0.0471  0.4745  0.1639
  955SOL    HW2 3893   4.243   2.356   1.686 -1.4516  0.0810  0.1129
  955SOL    HW3 3894   4.254   2.272   1.561  1.9660  0.7248 -0.0514
  955SOL    MW4 3895   4.246   2.349   1.599  0.0329  0.4556  0.1289
  956SOL     OW 3896   3.996   2.430   1.484  0.2136  0.2481  0.1071
  956SOL    HW2 3897   3.985   2.517   1.522  0.0887  0.9495 -1.4801
  956SOL    HW3 3898   4.085   2.404   1.508  0.2565  0.8123  0.5772
  956SOL    MW4 3899   4.006   2.438   1.492  0.2027  0.4151 -0.0403
  957SOL     OW 3900   4.019   2.694   1.577  0.3221 -0.1066 -0.1657
  957SOL    HW2 3901   4.015   2.683   1.672  0.3550  0.5079 -0.0938
  957SOL    HW3 3902   4.096   2.749   1.562 -0.1949  0.5354 -0.4855
  957SOL    MW4 3903   4.029   2.699   1.588  0.2584  0.0591 -0.1984
  958SOL     OW 3904   4.266   2.849   1.545  0.1535 -0.2364  0.3866
  958SOL    HW2 3905   4.244   2.938   1.574 -0.2842 -0.3403  0.3775
  958SOL    HW3 3906   4.282   2.858   1.451 -1.8542 -0.5183  0.0011
  958SOL    MW4 3907   4.265   2.862   1.536 -0.1693 -0.2875  0.3345
  959SOL     OW 3908   4.255   3.138   1.622  0.2265  0.4544 -0.6859
  959SOL    HW2 3909   4.263   3.139   1.717 -0.8126 -3.0323 -0.4964
  959SOL    HW3 3910   4.339   3.172   1.591  0.2420  2.4898  1.4642
  959SOL    MW4 3911   4.267   3.142   1.631  0.0916  0.2627 -0.3772
  960SOL     OW 3912   4.022   3.252   1.511 -0.3589  0.2744  0.0114
  960SOL    HW2 3913   4.048   3.340   1.538 -1.2970  0.1390  1.4129
  960SOL    HW3 3914   4.092   3.195   1.542 -0.2288  0.4135 -0.0267
  960SOL    MW4 3915   4.034   3.256   1.519 -0.4659  0.2749  0.1912
  961SOL     OW 3916   4.086   3.498   1.631 -0.3594  0.0256  0.3411
  961SOL    HW2 3917   4.072   3.497   1.725 -0.8759 -0.2862  0.2625
  961SOL    HW3 3918   4.019   3.557   1.597 -0.2289  0.0708  0.1555
  961SOL    MW4 3919   4.076   3.506   1.639 -0.4101 -0.0093  0.3062
  962SOL     OW 3920   4.330   3.603   1.522  0.3107 -0.2973 -0.2663
  962SOL    HW2 3921   4.322   3.697   1.540 -0.7642 -0.2785 -0.8535
  962SOL    HW3 3922   4.254   3.563   1.564 -0.6154 -0.6050 -2.2191
  962SOL    MW4 3923   4.319   3.610   1.530  0.0463 -0.3355 -0.6015
  963SOL     OW 3924   4.243   3.849   1.615 -0.2056 -0.0202 -0.4808
  963SOL    HW2 3925   4.174   3.907   1.585 -0.2472  0.1503 -0.0487
  963SOL    HW3 3926   4.324   3.894   1.592 -0.2235 -0.6653 -1.8813
  963SOL    MW4 3927   4.245   3.862   1.608 -0.2136 -0.0827 -0.6084
  964SOL     OW 3928   4.060   4.025   1.546 -0.2191 -0.0225 -0.0431
  964SOL    HW2 3929   4.052   4.114   1.580 -0.7666  0.1196 -0.5271
  964SOL    HW3 3930   4.056   4.036   1.451 -1.2665 -0.6520 -0.0792
  964SOL    MW4 3931   4.058   4.038   1.538 -0.4292 -0.0868 -0.1117
  965SOL     OW 3932   4.008   4.298   1.611 -0.2546  0.1792  1.0453
  965SOL    HW2 3933   3.976   4.287   1.700 -0.5379  0.0797  0.9318
  965SOL    HW3 3934   3.929   4.312   1.558 -0.1244 -0.2052  0.7440
  965SOL    MW4 3935   3.993   4.299   1.616 -0.2744  0.1154  0.9905
  966SOL     OW 3936   4.265   4.410   1.525 -0.0424  0.0630  0.6305
  966SOL    HW2 3937   4.180   4.374   1.551  0.1813  0.1054  1.4552
  966SOL    HW3 3938   4.257   4.426   1.431 -0.3694 -1.5220  0.3684
  966SOL    MW4 3939   4.253   4.407   1.516 -0.0558 -0.1411  0.7046
  967SOL     OW 3940   0.229   0.003   1.904  0.3147  0.4293 -0.2452
  967SOL    HW2 3941   0.305   0.047   1.942  0.9951 -0.2866 -0.7518
  967SOL    HW3 3942   0.244   0.008   1.810 -0.8897  1.3662 -0.4025
  967SOL    MW4 3943   0.241   0.010   1.897  0.2455  0.4587 -0.3328
  968SOL     OW 3944   4.489   0.115   1.993 -0.0236  0.3887  0.1357
  968SOL    HW2 3945   4.493   0.208   1.972  0.8381  0.2105 -0.5353
  968SOL    HW3 3946   4.573   0.080   1.963  0.6717 -0.1630  2.6308
  968SOL    MW4 3947   4.501   0.123   1.986  0.1818  0.2924  0.3763
  969SOL     OW 3948   4.473   0.364   1.894 -0.3360  0.1295 -0.3856
  969SOL    HW2 3949   4.399   0.418   1.922 -0.9846 -0.5049 -0.8583
  969SOL    HW3 3950   4.550   0.409   1.929 -0.7989  1.8260 -1.5114
  969SOL    MW4 3951   4.473   0.377   1.902 -0.4830  0.2697 -0.5965
  970SOL     OW 3952   0.210   0.487   1.978 -0.7585 -0.1813  0.0880
  970SOL    HW2 3953   0.295   0.461   1.943 -0.6724  0.1102  0.0802
  970SOL    HW3 3954   0.213   0.583   1.980 -1.1029 -0.1686  0.0443
  970SOL    MW4 3955   0.221   0.496   1.974 -0.7926 -0.1412  0.0812
  971SOL     OW 3956   0.234   0.756   1.943  0.0550  0.4799  0.0455
  971SOL    HW2 3957   0.321   0.794   1.955  0.5486 -0.1895 -1.3256
  971SOL    HW3 3958   0.216   0.768   1.850 -0.7477 -0.6025  0.0616
  971SOL    MW4 3959   0.243   0.763   1.933  0.0142  0.2488 -0.1333
  972SOL     OW 3960   4.484   0.889   1.999  0.1493 -0.0703 -0.1162
  972SOL    HW2 3961   4.408   0.855   1.953  0.1102  1.6466 -1.3617
  972SOL    HW3 3962   4.556   0.831   1.972  0.3874  1.6751 -3.4219
  972SOL    MW4 3963   4.484   0.877   1.989  0.1755  0.3865 -0.7167
  973SOL     OW 3964   0.008   1.148   1.898  0.3895 -0.1634  0.2391
  973SOL    HW2 3965  -0.075   1.189   1.925  0.3365  0.2079 -0.4874
  973SOL    HW3 3966   0.009   1.064   1.944 -0.7527 -0.5150 -0.3695
  973SOL    MW4 3967  -0.003   1.143   1.908  0.2322 -0.1609  0.0629
  974SOL     OW 3968   0.213   1.301   2.014 -0.5626  0.6981 -0.1386
  974SOL    HW2 3969   0.211   1.388   1.975 -0.3845  0.8573  0.2037
  974SOL    HW3 3970   0.141   1.254   1.972 -1.4213  1.3849  0.5462
  974SOL    MW4 3971   0.203   1.306   2.003 -0.6524  0.8098 -0.0029
  975SOL     OW 3972   0.209   1.571   1.915  0.2152  0.6383 -0.1206
  975SOL    HW2 3973   0.280   1.623   1.951 -0.0282  0.3910  0.7318
  975SOL    HW3 3974   0.129   1.615   1.944  0.0187  0.6009 -0.5985
  975SOL    MW4 3975   0.208   1.583   1.924  0.1572  0.6007 -0.0710
  976SOL     OW 3976   4.484   1.720   2.015 -0.8315  0.3130 -0.0779
  976SOL    HW2 3977   4.499   1.690   2.105 -1.0310  0.8265  0.1255
  976SOL    HW3 3978   4.419   1.659   1.979 -0.6113 -0.0057  0.0600
  976SOL    MW4 3979   4.478   1.708   2.022 -0.8288  0.3388 -0.0329
  977SOL     OW 3980   4.490   1.959   1.858 -0.0953  0.0617 -0.3273
  977SOL    HW2 3981   4.409   2.007   1.877  0.1917  0.1697  0.6493
  977SOL    HW3 3982   4.490   1.886   1.920  0.6101  0.1277 -0.2485
  977SOL    MW4 3983   4.479   1.956   1.869  0.0358  0.0848 -0.1881
  978SOL     OW 3984   0.221   2.079   1.962  0.5742  0.5564  0.1598
  978SOL    HW2 3985   0.211   2.173   1.951 -0.9021  0.3063 -0.7946
  978SOL    HW3 3986   0.138   2.042   1.932  1.0158 -1.0292  0.8207
  978SOL    MW4 3987   0.209   2.086   1.957  0.4376  0.3142  0.1212
  979SOL     OW 3988   0.209   2.328   1.808  0.1791  0.4657 -0.4004
  979SOL    HW2 3989   0.289   2.347   1.856 -0.1379 -0.2996  0.4466
  979SOL    HW3 3990   0.140   2.374   1.857  0.0078  0.5593 -0.7291
  979SOL    MW4 3991   0.210   2.336   1.821  0.1147  0.3774 -0.3322
  980SOL     OW 3992   0.021   2.451   1.997  0.1245  0.1173  0.4266
  980SOL    HW2 3993  -0.006   2.465   2.088  0.6414 -0.9427  0.7550
  980SOL    HW3 3994   0.017   2.537   1.957  0.0012  0.6128  1.4940
  980SOL    MW4 3995   0.017   2.464   2.004  0.1769  0.0429  0.6106
  981SOL     OW 3996   0.010   2.708   1.885  0.2824  0.2371  0.0329
  981SOL    HW2 3997  -0.070   2.759   1.893  0.8413  1.3704 -1.3641
  981SOL    HW3 3998   0.027   2.704   1.791  2.1408  0.4472  0.3372
  981SOL    MW4 3999   0.002   2.714   1.874  0.6018  0.4141 -0.1113
  982SOL     OW 4000   0.264   2.779   1.980 -0.5784  0.1096 -0.3173
  982SOL    HW2 4001   0.271   2.867   1.942 -1.9267 -0.4110 -1.8736
  982SOL    HW3 4002   0.178   2.748   1.949  0.0169 -1.8527 -0.0199
  982SOL    MW4 4003   0.253   2.787   1.971 -0.6778 -0.2182 -0.4833
  983SOL     OW 4004   0.196   3.067   1.926 -0.0399  0.6800 -0.2639
  983SOL    HW2 4005   0.267   3.122   1.957  0.0274 -0.8848  2.4883
  983SOL    HW3 4006   0.198   3.076   1.831  3.2646  1.3171 -0.1664
  983SOL    MW4 4007   0.205   3.075   1.918  0.4049  0.5574  0.1121
  984SOL     OW 4008   0.003   3.247   1.999 -0.0517  0.0460  0.4848
  984SOL    HW2 4009  -0.073   3.202   1.962 -0.3010 -0.3001  1.3986
  984SOL    HW3 4010   0.078   3.195   1.970 -0.2062  0.0333  0.1025
  984SOL    MW4 4011   0.003   3.234   1.990 -0.1051 -0.0012  0.5549
  985SOL     OW 4012   4.474   3.525   1.951 -0.0422  0.2366  0.3098
  985SOL    HW2 4013   4.561   3.556   1.977  0.1487  1.7290 -1.9635
  985SOL    HW3 4014   4.470   3.435   1.984  2.1532  0.3158  0.8803
  985SOL    MW4 4015   4.485   3.517   1.959  0.2732  0.4439  0.0850
  986SOL     OW 4016   0.225   3.627   2.037  0.6942  0.1308  0.1109
  986SOL    HW2 4017   0.235   3.616   2.132 -0.4309 -0.5116  0.1563
  986SOL    HW3 4018   0.302   3.584   2.000 -0.2649 -2.0903  0.6122
  986SOL    MW4 4019   0.237   3.620   2.045  0.4193 -0.2468  0.1831
  987SOL     OW 4020   0.187   3.884   1.939 -0.1418 -0.3753 -0.1465
  987SOL    HW2 4021   0.264   3.934   1.964 -1.7701  0.7749  2.8785
  987SOL    HW3 4022   0.199   3.798   1.978 -0.0954 -0.4145 -0.2460
  987SOL    MW4 4023   0.199   3.880   1.947 -0.3505 -0.2289  0.2394
  988SOL     OW 4024   4.432   4.015   1.985 -0.3618  0.6791  0.4730
  988SOL    HW2 4025   4.446   4.099   1.942  0.7006  0.0173 -0.5156
  988SOL    HW3 4026   4.508   3.962   1.958 -1.2827 -0.7512  0.6577
  988SOL    MW4 4027   4.444   4.019   1.975 -0.3433  0.4029  0.3668
  989SOL     OW 4028   4.466   4.260   1.884 -0.0173  0.6407 -0.2469
  989SOL    HW2 4029   4.391   4.302   1.928  0.2086  1.7608 -0.9054
  989SOL    HW3 4030   4.543   4.302   1.923  0.2507  0.0793 -0.1622
  989SOL    MW4 4031   4.466   4.271   1.895  0.0486  0.7143 -0.3227
  990SOL     OW 4032   0.183   4.399   1.973  0.1364  0.0296 -0.0714
  990SOL    HW2 4033   0.190   4.395   2.069  1.9334 -1.6471 -0.2233
  990SOL    HW3 4034   0.217   4.486   1.951  0.1651  0.2494  0.7980
  990SOL    MW4 4035   0.189   4.410   1.983  0.3773 -0.1626  0.0234
  991SOL     OW 4036   0.662   0.018   1.897 -0.6470 -0.1776  0.5333
  991SOL    HW2 4037   0.674  -0.074   1.922 -1.0307 -0.1560  0.8002
  991SOL    HW3 4038   0.651   0.016   1.802 -0.2409 -0.3670  0.4900
  991SOL    MW4 4039   0.662   0.005   1.888 -0.6441 -0.1998  0.5629
  992SOL     OW 4040   0.449   0.126   2.003 -0.0440 -0.1846  0.4173
  992SOL    HW2 4041   0.457   0.215   1.967  0.6577 -0.6771 -0.6669
  992SOL    HW3 4042   0.525   0.080   1.969 -1.3013 -1.6827 -0.4364
  992SOL    MW4 4043   0.460   0.132   1.994 -0.1173 -0.4472  0.1615
  993SOL     OW 4044   0.447   0.370   1.897 -0.3531  0.2311 -0.2079
  993SOL    HW2 4045   0.506   0.446   1.902  0.2955 -0.2909  0.3359
  993SOL    HW3 4046   0.418   0.368   1.806  3.4948 -1.7332 -1.4987
  993SOL    MW4 4047   0.451   0.380   1.886  0.2402 -0.0969 -0.3064
  994SOL     OW 4048   0.628   0.563   1.999  0.7085 -0.0966 -0.4322
  994SOL    HW2 4049   0.623   0.545   2.093  1.2444  0.5421 -0.2830
  994SOL    HW3 4050   0.700   0.507   1.968 -0.2975 -1.2783 -0.7021
  994SOL    MW4 4051   0.637   0.553   2.007  0.6464 -0.1683 -0.4480
  995SOL     OW 4052   0.689   0.815   1.892 -0.1470 -0.7326  0.1919
  995SOL    HW2 4053   0.758   0.861   1.939 -0.2231 -0.3967 -0.0235
  995SOL    HW3 4054   0.681   0.731   1.937 -1.0159  0.0307  1.5127
  995SOL    MW4 4055   0.697   0.810   1.904 -0.2717 -0.5876  0.3376
  996SOL     OW 4056   0.456   0.888   2.023  0.0087 -0.5161 -0.2423
  996SOL    HW2 4057   0.426   0.972   1.987  0.2862 -0.5585 -0.5703
  996SOL    HW3 4058   0.532   0.865   1.970 -0.2271 -1.1054 -0.3285
  996SOL    MW4 4059   0.462   0.896   2.011  0.0142 -0.5994 -0.2971
  997SOL     OW 4060   0.425   1.143   1.926  0.2415  0.0360 -0.1311
  997SOL    HW2 4061   0.356   1.205   1.950  1.1067  1.4638 -1.2554
  997SOL    HW3 4062   0.427   1.146   1.830  0.4313 -1.6067 -0.1950
  997SOL    MW4 4063   0.416   1.151   1.916  0.3807  0.0076 -0.2879
  998SOL     OW 4064   0.650   1.301   1.983 -0.3039  0.4497  0.0874
  998SOL    HW2 4065   0.663   1.298   2.078 -0.1210 -0.0616  0.0499
  998SOL    HW3 4066   0.571   1.249   1.969  0.0980 -0.1135 -0.1129
  998SOL    MW4 4067   0.641   1.293   1.994 -0.2267  0.3079  0.0560
  999SOL     OW 4068   0.700   1.558   1.909  0.3250 -0.4331 -0.5577
  999SOL    HW2 4069   0.678   1.468   1.935 -0.1656 -0.2058 -0.1762
  999SOL    HW3 4070   0.685   1.560   1.814  1.6511 -1.1277 -0.7932
  999SOL    MW4 4071   0.695   1.546   1.899  0.4353 -0.4947 -0.5385
 1000SOL     OW 4072   0.469   1.680   1.989 -0.2173 -0.2939  0.3067
 1000SOL    HW2 4073   0.466   1.689   2.084  0.8842 -0.6887  0.3851
 1000SOL    HW3 4074   0.560   1.656   1.970 -0.4334 -0.2271 -0.8425
 1000SOL    MW4 4075   0.481   1.678   1.999 -0.1005 -0.3371  0.1655
 1001SOL     OW 4076   0.441   1.948   1.898  0.3882  0.3681  0.1025
 1001SOL    HW2 4077   0.440   1.859   1.934 -0.8906  0.4449  0.2797
 1001SOL    HW3 4078   0.360   1.987   1.931  0.2414  1.1264 -1.1611
 1001SOL    MW4 4079   0.430   1.941   1.907  0.2002  0.4781 -0.0408
 1002SOL     OW 4080   0.672   2.079   1.967 -0.0128 -0.0352 -0.2280
 1002SOL    HW2 4081   0.668   2.082   2.063  1.2882  0.4658 -0.1637
 1002SOL    HW3 4082   0.603   2.018   1.941 -0.0703 -0.5368  1.0571
 1002SOL    MW4 4083   0.663   2.071   1.976  0.1513 -0.0353 -0.0498
 1003SOL     OW 4084   0.692   2.331   1.884  0.4327  0.1890  0.0826
 1003SOL    HW2 4085   0.686   2.246   1.927 -0.1341  0.4921  0.6066
 1003SOL    HW3 4086   0.698   2.311   1.790  0.3503 -0.4225  0.2099
 1003SOL    MW4 4087   0.692   2.317   1.877  0.3471  0.1485  0.1684
 1004SOL     OW 4088   0.439   2.411   1.961  0.1948 -0.0048  0.4177
 1004SOL    HW2 4089   0.450   2.423   2.055  0.1204  1.9321  0.2103
 1004SOL    HW3 4090   0.526   2.388   1.929  0.6404  1.1937  0.7240
 1004SOL    MW4 4091   0.452   2.410   1.969  0.2438  0.4089  0.4308
 1005SOL     OW 4092   0.460   2.657   1.848  0.4087 -0.0769  0.2799
 1005SOL    HW2 4093   0.453   2.570   1.887  0.2441 -0.5523 -0.7983
 1005SOL    HW3 4094   0.400   2.711   1.900  0.0783 -0.7350  0.5854
 1005SOL    MW4 4095   0.451   2.653   1.860  0.3434 -0.2265  0.1779
 1006SOL     OW 4096   0.673   2.795   1.942  0.3149  0.3120  0.0800
 1006SOL    HW2 4097   0.667   2.808   2.037 -0.0519  0.0046  0.0989
 1006SOL    HW3 4098   0.600   2.737   1.921 -0.7645  1.9208 -0.6792
 1006SOL    MW4 4099   0.662   2.789   1.952  0.1241  0.4838 -0.0176
 1007SOL     OW 4100   0.624   3.062   1.889 -0.0631  0.2614  0.3309
 1007SOL    HW2 4101   0.642   2.971   1.914 -0.4641  0.5380  1.6371
 1007SOL    HW3 4102   0.661   3.070   1.800  0.0431 -1.1456  0.2406
 1007SOL    MW4 4103   0.631   3.051   1.880 -0.1020  0.1125  0.4914
 1008SOL     OW 4104   0.421   3.219   1.999  0.2281 -0.1754 -0.2092
 1008SOL    HW2 4105   0.430   3.299   1.948 -0.2977 -0.9007 -1.4692
 1008SOL    HW3 4106   0.495   3.165   1.971  1.4876  0.4759  1.7894
 1008SOL    MW4 4107   0.432   3.222   1.989  0.3249 -0.1853 -0.1117
 1009SOL     OW 4108   0.424   3.481   1.913 -0.2109  0.1281  0.3175
 1009SOL    HW2 4109   0.498   3.527   1.952 -0.4220  0.4053  0.3904
 1009SOL    HW3 4110   0.418   3.515   1.824 -0.5696  0.4858  0.4745
 1009SOL    MW4 4111   0.433   3.491   1.907 -0.2860  0.2120  0.3477
 1010SOL     OW 4112   0.613   3.637   2.009  0.4398  0.4127 -0.4089
 1010SOL    HW2 4113   0.698   3.598   1.989  1.4372  2.3792 -0.1789
 1010SOL    HW3 4114   0.625   3.730   1.990 -1.2548  0.9214  0.9171
 1010SOL    MW4 4115   0.626   3.644   2.004  0.3478  0.7391 -0.2038
 1011SOL     OW 4116   0.665   3.891   1.948 -0.4011  0.1762  0.2112
 1011SOL    HW2 4117   0.733   3.947   1.986 -0.1973 -0.3279  0.5815
 1011SOL    HW3 4118   0.684   3.890   1.854  0.1304 -0.0104  0.3241
 1011SOL    MW4 4119   0.676   3.899   1.941 -0.3041  0.0849  0.2749
 1012SOL     OW 4120   0.424   4.001   2.050 -0.3699  0.0523 -0.0135
 1012SOL    HW2 4121   0.418   4.083   2.000  0.6752  0.5794  0.6933
 1012SOL    HW3 4122   0.509   3.964   2.025 -0.0560  0.0736  0.9740
 1012SOL    MW4 4123   0.435   4.007   2.040 -0.1906  0.1245  0.2103
 1013SOL     OW 4124   0.411   4.250   1.916  0.2936 -0.0463 -0.1151
 1013SOL    HW2 4125   0.336   4.303   1.944 -0.4548  0.1529 -2.3914
 1013SOL    HW3 4126   0.412   4.259   1.821  1.3744 -2.5061 -0.3601
 1013SOL    MW4 4127   0.401   4.258   1.907  0.3375 -0.3448 -0.4476
 1014SOL     OW 4128   0.646   4.408   1.950 -0.4442 -0.1164  0.2109
 1014SOL    HW2 4129   0.722   4.361   1.917  0.1792  1.2183 -0.2884
 1014SOL    HW3 4130   0.573   4.348   1.937  0.7900 -2.2452  2.5760
 1014SOL    MW4 4131   0.646   4.394   1.944 -0.1991 -0.2213  0.4570
 1015SOL     OW 4132   1.115   0.027   1.873 -0.5416  0.4127 -0.0792
 1015SOL    HW2 4133   1.188   0.070   1.917 -1.2171  1.5223 -0.0302
 1015SOL    HW3 4134   1.112  -0.061   1.911  0.4548  0.5246  0.2690
 1015SOL    MW4 4135   1.124   0.021   1.884 -0.4992  0.5741 -0.0268
 1016SOL     OW 4136   0.887   0.122   2.013  0.0252 -0.3165  0.0883
 1016SOL    HW2 4137   0.958   0.100   1.952  0.3866 -2.2135  1.1848
 1016SOL    HW3 4138   0.811   0.075   1.979 -0.5354  1.0067 -0.5674
 1016SOL    MW4 4139   0.886   0.113   2.000 -0.0011 -0.3922  0.1466
 1017SOL     OW 4140   0.831   0.397   1.913 -0.6099 -0.0464  0.0474
 1017SOL    HW2 4141   0.907   0.450   1.935  1.4855 -2.1231 -1.8124
 1017SOL    HW3 4142   0.847   0.313   1.957 -0.5132 -1.3412 -2.3519
 1017SOL    MW4 4143   0.843   0.393   1.921 -0.3207 -0.4912 -0.5145
 1018SOL     OW 4144   1.053   0.542   1.983  0.2296 -0.0232 -0.4305
 1018SOL    HW2 4145   1.130   0.501   1.945 -0.2646 -0.1297 -1.3254
 1018SOL    HW3 4146   1.053   0.631   1.948 -0.8532 -0.4683 -1.6125
 1018SOL    MW4 4147   1.063   0.549   1.974  0.0216 -0.0961 -0.7045
 1019SOL     OW 4148   1.107   0.805   1.890 -0.1576 -0.2216 -0.1299
 1019SOL    HW2 4149   1.179   0.848   1.936 -0.6931  0.6417 -0.0939
 1019SOL    HW3 4150   1.028   0.837   1.932 -0.5879 -0.8931 -0.4073
 1019SOL    MW4 4151   1.106   0.815   1.901 -0.2849 -0.1963 -0.1618
 1020SOL     OW 4152   0.921   0.937   2.024  0.0561 -0.1547  0.2560
 1020SOL    HW2 4153   0.914   0.947   2.119  2.3784 -0.8777  0.5176
 1020SOL    HW3 4154   0.911   1.025   1.990 -0.0507  0.2071  1.2002
 1020SOL    MW4 4155   0.919   0.950   2.032  0.3484 -0.2024  0.4148
 1021SOL     OW 4156   0.893   1.184   1.902 -0.1156  0.2114 -0.0714
 1021SOL    HW2 4157   0.812   1.229   1.922 -1.6170 -2.0364 -0.8975
 1021SOL    HW3 4158   0.888   1.163   1.809  0.8859 -0.9242  0.1022
 1021SOL    MW4 4159   0.882   1.187   1.893 -0.1816 -0.2350 -0.1576
 1022SOL     OW 4160   1.105   1.340   2.006  0.3705  0.2138 -0.2016
 1022SOL    HW2 4161   1.106   1.426   1.964 -0.3490 -0.7798 -2.2991
 1022SOL    HW3 4162   1.033   1.293   1.963  1.0887 -1.6291  0.5591
 1022SOL    MW4 4163   1.095   1.345   1.995  0.3704 -0.1605 -0.3779
 1023SOL     OW 4164   1.151   1.590   1.877  0.3885  0.5282 -0.4489
 1023SOL    HW2 4165   1.073   1.631   1.914  0.4217 -0.2871  0.5718
 1023SOL    HW3 4166   1.134   1.585   1.783 -1.5351 -1.1495 -0.0393
 1023SOL    MW4 4167   1.139   1.594   1.870  0.1390  0.1993 -0.2604
 1024SOL     OW 4168   0.918   1.699   1.960  0.0026 -0.0889  0.3526
 1024SOL    HW2 4169   0.914   1.792   1.936  0.4187  0.0501  0.8188
 1024SOL    HW3 4170   0.836   1.662   1.928 -0.2076  0.4633  0.2565
 1024SOL    MW4 4171   0.907   1.706   1.952  0.0297  0.0024  0.4014
 1025SOL     OW 4172   0.913   1.951   1.874  0.1338 -0.2980  0.0827
 1025SOL    HW2 4173   0.835   1.999   1.903  0.3255  0.3812 -0.5261
 1025SOL    HW3 4174   0.909   1.955   1.779  1.1838  0.1643  0.0599
 1025SOL    MW4 4175   0.902   1.957   1.865  0.2977 -0.1473 -0.0006
 1026SOL     OW 4176   1.148   2.069   2.011  0.5451 -0.1014  0.4491
 1026SOL    HW2 4177   1.161   2.159   1.981  1.1736  0.2718  1.8424
 1026SOL    HW3 4178   1.068   2.041   1.966  0.5440  1.0129 -0.2765
 1026SOL    MW4 4179   1.139   2.077   2.001  0.6280  0.0949  0.5374
 1027SOL     OW 4180   1.152   2.315   1.896 -0.4675  0.4348  0.2889
 1027SOL    HW2 4181   1.234   2.362   1.909  0.2640 -1.0211  1.1219
 1027SOL    HW3 4182   1.148   2.297   1.802  0.0963  0.6350  0.2277
 1027SOL    MW4 4183   1.162   2.319   1.885 -0.2966  0.2692  0.3906
 1028SOL     OW 4184   0.924   2.457   2.015 -0.3731 -0.3366  0.6766
 1028SOL    HW2 4185   1.002   2.417   1.975  0.2464  1.4702  0.0555
 1028SOL    HW3 4186   0.851   2.410   1.976  0.3059 -0.1389 -0.8870
 1028SOL    MW4 4187   0.925   2.445   2.005 -0.2018 -0.0720  0.3881
 1029SOL     OW 4188   0.921   2.696   1.868  0.0421 -0.6874 -0.2442
 1029SOL    HW2 4189   0.933   2.617   1.919  0.0693 -1.4148 -1.3612
 1029SOL    HW3 4190   0.840   2.735   1.901 -0.0102 -1.2214  0.2452
 1029SOL    MW4 4191   0.912   2.691   1.879  0.0388 -0.8538 -0.3269
 1030SOL     OW 4192   1.144   2.810   1.978  1.0917 -0.4649 -0.4059
 1030SOL    HW2 4193   1.131   2.812   2.073  0.2243  1.1376 -0.5407
 1030SOL    HW3 4194   1.070   2.759   1.945  1.2311 -0.7652 -0.2656
 1030SOL    MW4 4195   1.133   2.803   1.986  0.9955 -0.2933 -0.4051
 1031SOL     OW 4196   1.132   3.073   1.882 -0.0254  0.6717  0.0317
 1031SOL    HW2 4197   1.053   3.109   1.922  0.6944  1.3195  0.8618
 1031SOL    HW3 4198   1.136   2.982   1.913  0.6430  1.2299  1.6060
 1031SOL    MW4 4199   1.122   3.065   1.891  0.1578  0.8309  0.3490
 1032SOL     OW 4200   0.864   3.212   1.961 -0.0584  0.2634 -0.0712
 1032SOL    HW2 4201   0.865   3.195   2.056 -0.8776 -0.6264 -0.2084
 1032SOL    HW3 4202   0.785   3.169   1.931  0.3307  0.3396 -1.2056
 1032SOL    MW4 4203   0.854   3.204   1.970 -0.1152  0.1562 -0.2390
 1033SOL     OW 4204   0.855   3.517   1.934 -0.0761  0.4222 -0.3335
 1033SOL    HW2 4205   0.829   3.426   1.951 -0.3310  0.3448 -1.1368
 1033SOL    HW3 4206   0.869   3.521   1.840 -1.7830  1.6482 -0.5642
 1033SOL    MW4 4207   0.853   3.505   1.924 -0.3349  0.5739 -0.4698
 1034SOL     OW 4208   1.089   3.629   1.998  0.0852  0.1919 -0.1570
 1034SOL    HW2 4209   1.097   3.618   2.093  1.1696  0.2407 -0.2456
 1034SOL    HW3 4210   1.004   3.589   1.977 -0.4420  0.7198  0.9115
 1034SOL    MW4 4211   1.079   3.622   2.008  0.1588  0.2682 -0.0277
 1035SOL     OW 4212   1.128   3.902   1.935 -0.7679  0.3955 -0.4096
 1035SOL    HW2 4213   1.120   3.811   1.965 -1.4924  0.6453  0.1653
 1035SOL    HW3 4214   1.121   3.896   1.840 -0.1816 -0.2180 -0.4182
 1035SOL    MW4 4215   1.126   3.889   1.927 -0.7861  0.3474 -0.3349
 1036SOL     OW 4216   0.893   4.037   2.046  0.4323 -0.1034 -0.3553
 1036SOL    HW2 4217   0.904   4.042   2.141  1.4747  0.2649 -0.5006
 1036SOL    HW3 4218   0.973   3.995   2.015  0.0306 -0.3422 -1.0639
 1036SOL    MW4 4219   0.905   4.032   2.055  0.5168 -0.0868 -0.4680
 1037SOL     OW 4220   0.860   4.267   1.876  0.1820 -0.1074  0.1710
 1037SOL    HW2 4221   0.934   4.321   1.906  0.3982 -1.4608  2.2033
 1037SOL    HW3 4222   0.863   4.190   1.933 -2.4509 -0.4574 -0.1151
 1037SOL    MW4 4223   0.870   4.264   1.888 -0.1369 -0.3324  0.4015
 1038SOL     OW 4224   1.078   4.428   1.961  0.1817 -0.0050 -0.3559
 1038SOL    HW2 4225   1.090   4.425   2.056  0.8954  1.9874 -0.3435
 1038SOL    HW3 4226   1.157   4.389   1.925 -0.6908 -2.0239 -0.1378
 1038SOL    MW4 4227   1.090   4.423   1.969  0.1607 -0.0086 -0.3254
 1039SOL     OW 4228   1.568   0.027   1.890  0.0178 -0.3083  0.1246
 1039SOL    HW2 4229   1.646   0.076   1.915 -0.5667  0.1188  1.1617
 1039SOL    HW3 4230   1.574  -0.055   1.939 -0.0320 -0.3945 -0.0144
 1039SOL    MW4 4231   1.579   0.023   1.900 -0.0658 -0.2634  0.2431
 1040SOL     OW 4232   1.337   0.147   2.005 -0.0347  0.4501 -0.0075
 1040SOL    HW2 4233   1.350   0.128   2.098 -3.2156 -1.3875  0.0940
 1040SOL    HW3 4234   1.410   0.102   1.962 -0.1351 -1.0896  1.3545
 1040SOL    MW4 4235   1.348   0.139   2.012 -0.4678  0.0045  0.1857
 1041SOL     OW 4236   1.309   0.408   1.900 -0.2953 -0.2285  0.1237
 1041SOL    HW2 4237   1.326   0.323   1.941  0.5639 -0.9738 -1.7008
 1041SOL    HW3 4238   1.315   0.391   1.806 -2.5488  1.3637 -0.3568
 1041SOL    MW4 4239   1.312   0.395   1.893 -0.4792 -0.1168 -0.1806
 1042SOL     OW 4240   1.555   0.543   1.999  0.1612  0.1948  0.2325
 1042SOL    HW2 4241   1.636   0.504   1.967  1.2289  1.6339  1.1435
 1042SOL    HW3 4242   1.487   0.502   1.946  1.3534 -1.9365  0.2764
 1042SOL    MW4 4243   1.557   0.532   1.988  0.4594  0.1035  0.3586
 1043SOL     OW 4244   1.550   0.809   1.894  0.4613 -0.3482  0.2733
 1043SOL    HW2 4245   1.607   0.867   1.946 -0.8206  0.2990  0.9956
 1043SOL    HW3 4246   1.564   0.722   1.931  1.0877 -0.2104  0.3617
 1043SOL    MW4 4247   1.559   0.805   1.906  0.3747 -0.2446  0.3803
 1044SOL     OW 4248   1.334   0.932   2.009 -0.1568 -0.0003 -0.9087
 1044SOL    HW2 4249   1.341   0.900   2.099 -2.0798  0.4961 -0.5731
 1044SOL    HW3 4250   1.403   0.885   1.962  0.7710 -0.3772  0.7786
 1044SOL    MW4 4251   1.344   0.922   2.015 -0.2880  0.0155 -0.6418
 1045SOL     OW 4252   1.325   1.192   1.916  0.7846  0.1517  0.0774
 1045SOL    HW2 4253   1.321   1.107   1.961  1.3086 -0.5202 -1.1142
 1045SOL    HW3 4254   1.256   1.244   1.958  0.1418 -1.0167  0.5189
 1045SOL    MW4 4255   1.315   1.188   1.928  0.7690 -0.0910 -0.0216
 1046SOL     OW 4256   1.574   1.305   1.986  0.2547  0.1779 -0.3301
 1046SOL    HW2 4257   1.486   1.275   1.965 -0.3068  1.7818 -0.3699
 1046SOL    HW3 4258   1.582   1.294   2.080  1.1355 -2.7934 -0.6918
 1046SOL    MW4 4259   1.563   1.300   1.995  0.2967 -0.0026 -0.3833
 1047SOL     OW 4260   1.606   1.574   1.905 -0.2149 -0.3193 -0.6294
 1047SOL    HW2 4261   1.615   1.489   1.948 -0.2317  0.0342  0.0763
 1047SOL    HW3 4262   1.528   1.614   1.945 -0.2592 -0.0095 -1.0182
 1047SOL    MW4 4263   1.597   1.568   1.916 -0.2230 -0.2317 -0.5876
 1048SOL     OW 4264   1.373   1.675   1.998 -0.0842  0.5713 -0.3984
 1048SOL    HW2 4265   1.353   1.658   2.090  1.8924  0.5763  0.0642
 1048SOL    HW3 4266   1.305   1.629   1.949 -0.4246 -0.4754  1.0498
 1048SOL    MW4 4267   1.361   1.667   2.003  0.1316  0.4338 -0.1462
 1049SOL     OW 4268   1.335   1.926   1.856 -0.1220 -0.8259 -0.0396
 1049SOL    HW2 4269   1.344   1.841   1.900 -0.0231 -0.0482  1.4679
 1049SOL    HW3 4270   1.263   1.969   1.902  0.0081  0.0143 -0.6208
 1049SOL    MW4 4271   1.327   1.920   1.868 -0.0917 -0.6124  0.0826
 1050SOL     OW 4272   1.582   2.030   1.958  0.1434 -0.6866 -0.4594
 1050SOL    HW2 4273   1.595   2.123   1.939 -0.8589 -0.5415 -0.4988
 1050SOL    HW3 4274   1.495   2.011   1.922 -0.3633 -1.2243  1.0191
 1050SOL    MW4 4275   1.572   2.040   1.950 -0.0556 -0.7381 -0.2695
 1051SOL     OW 4276   1.580   2.313   1.898  0.2811 -0.3884 -0.1477
 1051SOL    HW2 4277   1.662   2.357   1.924  0.1900  0.0820 -0.6558
 1051SOL    HW3 4278   1.586   2.307   1.803  0.1704 -1.2451 -0.0987
 1051SOL    MW4 4279   1.592   2.318   1.889  0.2545 -0.4394 -0.2083
 1052SOL     OW 4280   1.367   2.482   1.949  0.1866 -0.0927  0.6413
 1052SOL    HW2 4281   1.388   2.569   1.915  0.3457 -0.2340  0.3865
 1052SOL    HW3 4282   1.435   2.425   1.915 -0.4173 -0.4833  0.0968
 1052SOL    MW4 4283   1.378   2.486   1.940  0.1279 -0.1628  0.5358
 1053SOL     OW 4284   1.393   2.751   1.880  0.1161 -0.1984  0.5710
 1053SOL    HW2 4285   1.308   2.783   1.910 -0.2373 -0.4932 -0.0853
 1053SOL    HW3 4286   1.386   2.751   1.784  0.4265 -1.3764  0.5415
 1053SOL    MW4 4287   1.381   2.755   1.871  0.1104 -0.3927  0.4807
 1054SOL     OW 4288   1.617   2.882   1.989 -0.2518  0.1807  0.1313
 1054SOL    HW2 4289   1.697   2.844   1.952 -0.3771  0.7393 -0.7526
 1054SOL    HW3 4290   1.547   2.826   1.957 -0.1748 -0.5644  1.2692
 1054SOL    MW4 4291   1.618   2.870   1.980 -0.2582  0.1559  0.1647
 1055SOL     OW 4292   1.529   3.137   1.917 -0.0134  0.2570 -0.0307
 1055SOL    HW2 4293   1.547   3.049   1.953  1.8306  0.5659 -0.1429
 1055SOL    HW3 4294   1.547   3.129   1.824 -0.4816  0.5965 -0.1521
 1055SOL    MW4 4295   1.534   3.124   1.910  0.1682  0.3426 -0.0615
 1056SOL     OW 4296   1.297   3.239   2.013  0.0723  0.2603  0.3803
 1056SOL    HW2 4297   1.385   3.210   1.990  0.4952  1.5660  0.3524
 1056SOL    HW3 4298   1.239   3.179   1.965  0.9382  0.2127 -0.6169
 1056SOL    MW4 4299   1.301   3.227   2.004  0.2422  0.4261  0.2449
 1057SOL     OW 4300   1.288   3.464   1.878  0.0486 -0.2076 -0.4338
 1057SOL    HW2 4301   1.287   3.379   1.922  0.9656  0.5761  1.1538
 1057SOL    HW3 4302   1.218   3.513   1.921  1.1292  0.6542  0.3645
 1057SOL    MW4 4303   1.279   3.459   1.889  0.3122  0.0095 -0.1191
 1058SOL     OW 4304   1.537   3.591   2.007  0.2928  0.2871 -0.0471
 1058SOL    HW2 4305   1.558   3.611   2.097  0.2280  1.2817 -0.2527
 1058SOL    HW3 4306   1.446   3.560   2.010 -0.2147  1.7429  0.0413
 1058SOL    MW4 4307   1.528   3.589   2.019  0.2172  0.6104 -0.0627
 1059SOL     OW 4308   1.561   3.866   1.885 -0.0333 -0.3803  0.1806
 1059SOL    HW2 4309   1.638   3.902   1.928 -1.4126 -0.1229  2.5121
 1059SOL    HW3 4310   1.545   3.783   1.930 -0.7451 -0.7409 -0.7189
 1059SOL    MW4 4311   1.569   3.860   1.896 -0.3093 -0.3934  0.3694
 1060SOL     OW 4312   1.357   4.061   1.988 -0.2167 -0.0519  0.1676
 1060SOL    HW2 4313   1.419   4.001   1.946 -0.7176  0.7953 -1.7875
 1060SOL    HW3 4314   1.271   4.020   1.975 -0.3316 -0.0417  0.8395
 1060SOL    MW4 4315   1.354   4.047   1.981 -0.2979  0.0610 -0.0017
 1061SOL     OW 4316   1.329   4.334   1.884 -0.7428 -0.0723 -0.2481
 1061SOL    HW2 4317   1.358   4.245   1.905  0.3515  0.2580 -0.3337
 1061SOL    HW3 4318   1.314   4.333   1.789 -3.5544 -0.9537  0.1450
 1061SOL    MW4 4319   1.330   4.322   1.874 -0.9695 -0.1454 -0.2077
 1062SOL     OW 4320   1.565   4.453   2.019 -0.2024 -0.1043  0.2879
 1062SOL    HW2 4321   1.563   4.440   2.114  1.6576  0.4748  0.4092
 1062SOL    HW3 4322   1.479   4.421   1.989 -1.0218  0.2397  2.2136
 1062SOL    MW4 4323   1.553   4.447   2.027 -0.0650  0.0176  0.5581
 1063SOL     OW 4324   2.036   0.045   1.909  0.2265 -0.0943  0.1313
 1063SOL    HW2 4325   2.111   0.088   1.949  0.4545 -0.9496  0.6417
 1063SOL    HW3 4326   2.039  -0.045   1.943 -1.4262  0.0438  0.6845
 1063SOL    MW4 4327   2.046   0.038   1.918  0.0386 -0.1888  0.2716
 1064SOL     OW 4328   1.791   0.159   2.004 -0.2386 -0.2538 -0.1925
 1064SOL    HW2 4329   1.774   0.142   2.097 -1.8240  1.2290 -0.1815
 1064SOL    HW3 4330   1.874   0.115   1.986  0.4998  0.1122  2.1189
 1064SOL    MW4 4331   1.799   0.151   2.014 -0.3504 -0.0099  0.1137
 1065SOL     OW 4332   1.799   0.420   1.891 -0.0553  0.3022  0.1945
 1065SOL    HW2 4333   1.797   0.329   1.918  0.1864  0.3575  0.4056
 1065SOL    HW3 4334   1.793   0.417   1.795 -0.4557  0.0859  0.2260
 1065SOL    MW4 4335   1.798   0.408   1.882 -0.0762  0.2810  0.2266
 1066SOL     OW 4336   2.036   0.526   1.985  0.2279  0.0196  0.0675
 1066SOL    HW2 4337   2.031   0.617   1.957 -1.3271  0.0827  0.4662
 1066SOL    HW3 4338   1.950   0.489   1.962  0.3755 -0.9966  1.0707
 1066SOL    MW4 4339   2.024   0.533   1.979  0.0424 -0.1062  0.2525
 1067SOL     OW 4340   2.009   0.802   1.860  0.2392  0.2679 -0.3981
 1067SOL    HW2 4341   2.090   0.843   1.891  0.8310 -1.2031  0.0876
 1067SOL    HW3 4342   2.017   0.802   1.765 -0.1918  2.0742 -0.4523
 1067SOL    MW4 4343   2.021   0.807   1.852  0.2606  0.3121 -0.3413
 1068SOL     OW 4344   1.798   0.946   2.006  0.2474 -0.4096 -0.1348
 1068SOL    HW2 4345   1.802   1.035   1.971  1.1152 -0.3881  0.0145
 1068SOL    HW3 4346   1.869   0.899   1.962  0.4674 -0.7532  0.5708
 1068SOL    MW4 4347   1.808   0.951   1.995  0.3910 -0.4521 -0.0221
 1069SOL     OW 4348   1.807   1.199   1.888  0.0526 -0.6301  0.2290
 1069SOL    HW2 4349   1.724   1.232   1.923  1.3026  1.4175  1.3682
 1069SOL    HW3 4350   1.788   1.177   1.797 -0.9016  3.1503 -0.5454
 1069SOL    MW4 4351   1.793   1.200   1.881  0.0917  0.1388  0.2772
 1070SOL     OW 4352   2.032   1.308   1.999  0.6654  0.2558 -0.0937
 1070SOL    HW2 4353   2.109   1.258   1.973  0.5047 -0.7456  1.2700
 1070SOL    HW3 4354   1.959   1.263   1.955  0.6386 -0.0878  0.2926
 1070SOL    MW4 4355   2.033   1.295   1.990  0.6409  0.0784  0.1371
 1071SOL     OW 4356   2.030   1.581   1.908 -0.2865 -0.3122  0.0674
 1071SOL    HW2 4357   2.017   1.489   1.928 -0.6197 -0.1278  0.7087
 1071SOL    HW3 4358   1.961   1.626   1.957 -0.3205  0.2500 -0.4879
 1071SOL    MW4 4359   2.019   1.575   1.917 -0.3350 -0.2137  0.0788
 1072SOL     OW 4360   1.809   1.711   2.018 -0.0415 -0.0222  0.2385
 1072SOL    HW2 4361   1.729   1.679   1.976  0.3172  0.9966 -1.2562
 1072SOL    HW3 4362   1.817   1.802   1.989  0.9959  0.2594  1.3728
 1072SOL    MW4 4363   1.800   1.719   2.008  0.1428  0.1494  0.1910
 1073SOL     OW 4364   1.841   1.955   1.913  0.1573 -0.2932  0.0367
 1073SOL    HW2 4365   1.748   1.976   1.924  0.0156 -1.9007  2.0498
 1073SOL    HW3 4366   1.850   1.939   1.819 -1.6168 -0.1885 -0.1796
 1073SOL    MW4 4367   1.830   1.956   1.902 -0.0954 -0.4914  0.2738
 1074SOL     OW 4368   2.060   2.050   2.056 -0.1937  0.5588 -0.0940
 1074SOL    HW2 4369   2.127   1.990   2.026 -0.3560 -0.8535  2.2229
 1074SOL    HW3 4370   1.980   2.021   2.012  0.4710  1.5832 -2.0319
 1074SOL    MW4 4371   2.058   2.039   2.047 -0.1271  0.5076 -0.0439
 1075SOL     OW 4372   2.065   2.284   1.894  0.2474 -0.8844  0.1993
 1075SOL    HW2 4373   2.117   2.338   1.953 -1.0471  0.1546  0.4304
 1075SOL    HW3 4374   2.070   2.196   1.930  1.0756 -0.6181  0.7388
 1075SOL    MW4 4375   2.072   2.279   1.906  0.1860 -0.7122  0.3010
 1076SOL     OW 4376   1.816   2.459   1.970  0.0099 -0.2660  0.5234
 1076SOL    HW2 4377   1.803   2.456   2.065  1.9794 -0.5505  0.8210
 1076SOL    HW3 4378   1.871   2.382   1.952  0.0348  0.0494 -0.7794
 1076SOL    MW4 4379   1.822   2.448   1.980  0.2730 -0.2620  0.3909
 1077SOL     OW 4380   1.819   2.730   1.861 -0.1223 -0.0534  0.6823
 1077SOL    HW2 4381   1.818   2.637   1.881  0.8986 -0.2083  0.0441
 1077SOL    HW3 4382   1.834   2.735   1.766  3.0529  0.7722  1.1382
 1077SOL    MW4 4383   1.821   2.719   1.851  0.4313  0.0350  0.6582
 1078SOL     OW 4384   2.034   2.862   2.015  0.4067 -0.1103 -0.1221
 1078SOL    HW2 4385   2.015   2.868   2.109 -0.6749  1.5279 -0.4250
 1078SOL    HW3 4386   1.959   2.814   1.980  0.9829 -1.0301 -0.1105
 1078SOL    MW4 4387   2.021   2.856   2.023  0.3400 -0.0155 -0.1605
 1079SOL     OW 4388   2.001   3.125   1.883  0.0329  0.0859  0.0856
 1079SOL    HW2 4389   1.919   3.152   1.923 -0.2931  0.1478 -0.6259
 1079SOL    HW3 4390   2.025   3.045   1.929 -0.4203  0.0748  0.3004
 1079SOL    MW4 4391   1.993   3.118   1.894 -0.0700  0.0925  0.0200
 1080SOL     OW 4392   1.777   3.234   1.990  0.0527  0.1622  0.1299
 1080SOL    HW2 4393   1.798   3.221   2.082  0.4449  0.7829  0.1302
 1080SOL    HW3 4394   1.692   3.191   1.978  1.3059 -2.3937  0.1321
 1080SOL    MW4 4395   1.768   3.227   2.000  0.2698 -0.0927  0.1302
 1081SOL     OW 4396   1.785   3.497   1.929 -0.1908 -0.0532  0.6392
 1081SOL    HW2 4397   1.787   3.404   1.950  0.1156 -0.4381 -1.0455
 1081SOL    HW3 4398   1.702   3.528   1.964  0.0611 -0.7790  1.9129
 1081SOL    MW4 4399   1.775   3.489   1.937 -0.1173 -0.1996  0.5850
 1082SOL     OW 4400   2.009   3.602   2.038 -0.0045 -0.0925 -0.1639
 1082SOL    HW2 4401   1.999   3.686   1.994 -0.1465 -0.5000 -0.9191
 1082SOL    HW3 4402   1.939   3.547   2.002 -2.3507  0.5986  3.1073
 1082SOL    MW4 4403   1.998   3.606   2.028 -0.3326 -0.0551  0.1678
 1083SOL     OW 4404   2.006   3.849   1.898  0.1576 -0.5582  0.5848
 1083SOL    HW2 4405   2.083   3.904   1.910  1.3321 -2.1237  0.4431
 1083SOL    HW3 4406   1.986   3.855   1.805 -0.2221  0.2792  0.7208
 1083SOL    MW4 4407   2.013   3.857   1.887  0.2625 -0.6545  0.5839
 1084SOL     OW 4408   1.792   4.013   1.989 -0.2006  0.0901  0.4743
 1084SOL    HW2 4409   1.794   4.107   1.973 -0.3551  0.1227  0.6495
 1084SOL    HW3 4410   1.879   3.983   1.962 -0.4033  0.1674 -0.2703
 1084SOL    MW4 4411   1.804   4.021   1.983 -0.2476  0.1049  0.3991
 1085SOL     OW 4412   1.778   4.285   1.947  0.8340  0.3316  0.5887
 1085SOL    HW2 4413   1.711   4.348   1.972  0.2004 -0.1234  0.0608
 1085SOL    HW3 4414   1.809   4.315   1.861  0.8472  0.1836  0.5408
 1085SOL    MW4 4415   1.774   4.297   1.939  0.7522  0.2518  0.5127
 1086SOL     OW 4416   2.006   4.454   2.002 -0.1862  0.3432 -0.6349
 1086SOL    HW2 4417   2.077   4.404   1.963  0.2283 -0.5039  1.1518
 1086SOL    HW3 4418   1.927   4.405   1.980  0.1426 -0.6794  0.4548
 1086SOL    MW4 4419   2.005   4.441   1.994 -0.0882  0.0968 -0.2555
 1087SOL     OW 4420   2.442   4.657   1.890 -0.0425  0.5041 -0.4377
 1087SOL    HW2 4421   2.517   4.696   1.935  1.2871 -0.5154 -1.7143
 1087SOL    HW3 4422   2.432   4.571   1.930  0.6271 -0.0791 -1.4906
 1087SOL    MW4 4423   2.450   4.651   1.901  0.2213  0.2928 -0.7451
 1088SOL     OW 4424   2.260   0.154   2.017  0.2817  0.1278  0.0179
 1088SOL    HW2 4425   2.265   0.136   2.111 -1.7050 -0.2743  0.0678
 1088SOL    HW3 4426   2.306   0.080   1.977  2.6733  1.1788  0.7101
 1088SOL    MW4 4427   2.267   0.142   2.024  0.3347  0.2134  0.1159
 1089SOL     OW 4428   2.266   0.402   1.856 -0.4565  0.0601 -0.5638
 1089SOL    HW2 4429   2.295   0.328   1.909 -0.7807  1.0227  0.9694
 1089SOL    HW3 4430   2.182   0.427   1.892 -0.2143  1.3764 -0.8713
 1089SOL    MW4 4431   2.259   0.395   1.867 -0.4675  0.3607 -0.4021
 1090SOL     OW 4432   2.463   0.529   1.967 -0.0379 -0.0826 -0.6930
 1090SOL    HW2 4433   2.552   0.499   1.946 -0.4619 -1.0101 -1.1595
 1090SOL    HW3 4434   2.407   0.487   1.902 -0.7703  0.8516 -0.6743
 1090SOL    MW4 4435   2.468   0.520   1.956 -0.1900 -0.0817 -0.7520
 1091SOL     OW 4436   2.466   0.800   1.881 -0.0947  0.1111 -0.3474
 1091SOL    HW2 4437   2.459   0.706   1.896  1.2603  0.1115  0.3895
 1091SOL    HW3 4438   2.488   0.808   1.788  1.0175 -0.3673 -0.1338
 1091SOL    MW4 4439   2.468   0.789   1.871  0.2308  0.0481 -0.2221
 1092SOL     OW 4440   2.233   0.897   1.984 -0.2253  0.1070 -0.0436
 1092SOL    HW2 4441   2.226   0.899   2.079  0.6239  0.8757 -0.0004
 1092SOL    HW3 4442   2.319   0.858   1.967 -0.3031  0.1293 -0.5012
 1092SOL    MW4 4443   2.243   0.892   1.994 -0.1235  0.2114 -0.0982
 1093SOL     OW 4444   2.242   1.160   1.887  0.0871  0.1962 -0.1059
 1093SOL    HW2 4445   2.328   1.198   1.910  0.8559 -1.3091 -0.4468
 1093SOL    HW3 4446   2.245   1.071   1.923 -2.1098  0.7602  1.6208
 1093SOL    MW4 4447   2.254   1.153   1.895 -0.1011  0.0720  0.0768
 1094SOL     OW 4448   2.482   1.255   1.999 -0.0342 -0.2514  0.3045
 1094SOL    HW2 4449   2.490   1.247   2.094  0.5561 -0.9631  0.1994
 1094SOL    HW3 4450   2.486   1.349   1.983 -0.4110 -0.1079  1.0033
 1094SOL    MW4 4451   2.483   1.267   2.010 -0.0062 -0.3263  0.3827
 1095SOL     OW 4452   2.476   1.508   1.917 -0.1624 -0.1618  0.3328
 1095SOL    HW2 4453   2.403   1.560   1.952 -0.6895 -0.3024 -0.5571
 1095SOL    HW3 4454   2.474   1.523   1.823  0.1625 -1.1856  0.1540
 1095SOL    MW4 4455   2.466   1.517   1.909 -0.1891 -0.3155  0.1917
 1096SOL     OW 4456   2.274   1.646   2.025  0.0644 -0.4010 -0.5428
 1096SOL    HW2 4457   2.270   1.637   2.120  2.9313 -2.4490 -0.5876
 1096SOL    HW3 4458   2.184   1.629   1.996 -0.7575 -0.1523  1.7215
 1096SOL    MW4 4459   2.262   1.643   2.034  0.3343 -0.6384 -0.2501
 1097SOL     OW 4460   2.264   1.909   1.934 -0.7407 -0.1755 -0.2149
 1097SOL    HW2 4461   2.342   1.952   1.970 -2.0610  1.3570  0.9063
 1097SOL    HW3 4462   2.257   1.827   1.983 -0.1743 -0.0318  0.1088
 1097SOL    MW4 4463   2.273   1.904   1.945 -0.8399  0.0457 -0.0243
 1098SOL     OW 4464   2.496   2.043   2.017 -0.6758  0.1805 -0.1755
 1098SOL    HW2 4465   2.485   2.048   2.112 -0.2362 -0.8951 -0.0628
 1098SOL    HW3 4466   2.454   2.123   1.984 -1.7702  0.0445  0.8405
 1098SOL    MW4 4467   2.489   2.054   2.025 -0.7620  0.0210 -0.0265
 1099SOL     OW 4468   2.424   2.289   1.918  0.0512  0.0792  0.5979
 1099SOL    HW2 4469   2.503   2.336   1.945 -0.1656  1.1881 -0.6404
 1099SOL    HW3 4470   2.353   2.336   1.961  0.0098 -0.6040  1.2934
 1099SOL    MW4 4471   2.425   2.301   1.927  0.0169  0.1354  0.5263
 1100SOL     OW 4472   2.232   2.454   2.051  0.2546  0.2519 -0.2428
 1100SOL    HW2 4473   2.216   2.467   2.144 -0.4610  0.4472 -0.3925
 1100SOL    HW3 4474   2.267   2.537   2.020 -0.8800  0.6675 -0.4431
 1100SOL    MW4 4475   2.234   2.466   2.059  0.0107  0.3324 -0.2892
 1101SOL     OW 4476   2.223   2.702   1.902  0.2258  0.2177 -0.1736
 1101SOL    HW2 4477   2.160   2.761   1.943  1.7491 -0.1044  2.7744
 1101SOL    HW3 4478   2.233   2.736   1.813 -1.6993  2.1602  0.3019
 1101SOL    MW4 4479   2.216   2.715   1.896  0.1729  0.4315  0.2782
 1102SOL     OW 4480   2.463   2.796   1.991 -0.5384 -0.1123 -0.2275
 1102SOL    HW2 4481   2.474   2.879   1.945 -1.2239  0.2885  0.3251
 1102SOL    HW3 4482   2.377   2.765   1.964 -0.3366 -0.5881 -0.3352
 1102SOL    MW4 4483   2.453   2.803   1.981 -0.6020 -0.1223 -0.1688
 1103SOL     OW 4484   2.459   3.073   1.905  0.3342  0.1384  0.4202
 1103SOL    HW2 4485   2.382   3.114   1.944  1.0163  1.3560  0.5137
 1103SOL    HW3 4486   2.458   3.100   1.813 -0.0446 -0.8829  0.1243
 1103SOL    MW4 4487   2.449   3.082   1.898  0.3741  0.1643  0.3935
 1104SOL     OW 4488   2.241   3.222   2.000 -0.3179 -0.1061 -0.1739
 1104SOL    HW2 4489   2.230   3.195   2.091 -0.6908  0.2528 -0.1109
 1104SOL    HW3 4490   2.155   3.211   1.961 -0.5468  1.2907 -0.0667
 1104SOL    MW4 4491   2.229   3.217   2.007 -0.3972  0.1256 -0.1514
 1105SOL     OW 4492   2.228   3.488   1.910  0.0651 -0.1763  0.2567
 1105SOL    HW2 4493   2.254   3.406   1.951  0.1614 -0.3555 -0.1593
 1105SOL    HW3 4494   2.163   3.525   1.969 -1.5929 -1.5919 -0.6129
 1105SOL    MW4 4495   2.223   3.482   1.923 -0.1411 -0.3867  0.0870
 1106SOL     OW 4496   2.452   3.632   1.985  0.2454 -0.5756  0.0880
 1106SOL    HW2 4497   2.449   3.634   2.080  0.4040 -0.4971  0.0916
 1106SOL    HW3 4498   2.373   3.584   1.959 -0.3380  0.3066  0.2200
 1106SOL    MW4 4499   2.441   3.626   1.994  0.1893 -0.4487  0.1059
 1107SOL     OW 4500   2.476   3.900   1.920 -0.3594 -0.3757  0.1454
 1107SOL    HW2 4501   2.396   3.940   1.954  0.4182  0.1002  1.4869
 1107SOL    HW3 4502   2.462   3.806   1.929 -0.5308 -0.2777  0.9650
 1107SOL    MW4 4503   2.464   3.893   1.926 -0.2794 -0.3002  0.4307
 1108SOL     OW 4504   2.238   4.016   1.991  0.2713 -0.2025  0.4071
 1108SOL    HW2 4505   2.246   4.018   2.086  0.0871 -0.7820  0.4356
 1108SOL    HW3 4506   2.218   4.107   1.967  0.2752 -0.0641  0.9230
 1108SOL    MW4 4507   2.236   4.028   2.000  0.2472 -0.2604  0.4789
 1109SOL     OW 4508   2.185   4.267   1.883  0.0426  0.2148 -0.3163
 1109SOL    HW2 4509   2.269   4.308   1.905 -0.4930  1.5023 -0.5995
 1109SOL    HW3 4510   2.187   4.258   1.788  1.3223 -3.0452 -0.0158
 1109SOL    MW4 4511   2.196   4.271   1.873  0.1407 -0.0458 -0.3140
 1110SOL     OW 4512   2.408   4.389   1.988 -0.0496  0.1589 -0.2349
 1110SOL    HW2 4513   2.402   4.378   2.083  1.1137  1.5568  0.0193
 1110SOL    HW3 4514   2.499   4.367   1.967 -0.5515 -1.0700 -1.1735
 1110SOL    MW4 4515   2.419   4.385   1.998  0.0377  0.1812 -0.3253
 1111SOL     OW 4516   2.916   4.663   1.915  0.3504  0.1465  0.0505
 1111SOL    HW2 4517   2.994   4.696   1.959 -0.9808  0.6377  2.1351
 1111SOL    HW3 4518   2.905   4.575   1.949 -0.4321  0.3620  0.3630
 1111SOL    MW4 4519   2.925   4.656   1.925  0.0715  0.2398  0.3668
 1112SOL     OW 4520   2.671   0.121   1.971 -0.4918 -0.5907 -0.0367
 1112SOL    HW2 4521   2.684   0.124   2.066  1.1690  1.4843 -0.2802
 1112SOL    HW3 4522   2.742   0.066   1.939  0.4440  0.7085 -0.2607
 1112SOL    MW4 4523   2.683   0.114   1.979 -0.1493 -0.1455 -0.0983
 1113SOL     OW 4524   2.724   0.393   1.874 -0.6964 -0.0130  0.3553
 1113SOL    HW2 4525   2.789   0.443   1.924 -1.7524  0.8451  0.9166
 1113SOL    HW3 4526   2.713   0.312   1.923 -0.2644 -0.0281  0.4253
 1113SOL    MW4 4527   2.731   0.389   1.887 -0.7784  0.0982  0.4386
 1114SOL     OW 4528   2.944   0.494   1.994  0.0949 -0.4386  0.1055
 1114SOL    HW2 4529   3.018   0.443   1.959 -0.3965 -0.7185 -0.5270
 1114SOL    HW3 4530   2.951   0.579   1.949  0.1886 -0.3691  0.2496
 1114SOL    MW4 4531   2.955   0.499   1.983  0.0427 -0.4664  0.0411
 1115SOL     OW 4532   2.940   0.763   1.886  0.4123  0.2410  0.0256
 1115SOL    HW2 4533   3.012   0.795   1.940  0.1649 -1.0855  1.1833
 1115SOL    HW3 4534   2.862   0.802   1.926  0.4392  1.3101 -0.9482
 1115SOL    MW4 4535   2.939   0.773   1.898  0.3831  0.2071  0.0498
 1116SOL     OW 4536   2.714   0.882   1.988  0.2087 -0.2836  0.2946
 1116SOL    HW2 4537   2.725   0.975   1.969  1.2648 -0.5823 -0.5475
 1116SOL    HW3 4538   2.629   0.860   1.950 -0.2980  0.4583  0.9812
 1116SOL    MW4 4539   2.704   0.891   1.981  0.2809 -0.2251  0.2742
 1117SOL     OW 4540   2.709   1.154   1.910 -0.5379 -0.2922 -0.0569
 1117SOL    HW2 4541   2.626   1.192   1.938  0.3675  0.2798  1.8897
 1117SOL    HW3 4542   2.712   1.172   1.815 -0.6176  3.6528  0.5865
 1117SOL    MW4 4543   2.699   1.161   1.901 -0.4289  0.3037  0.2848
 1118SOL     OW 4544   2.945   1.265   2.066  0.1842  0.0793  0.4952
 1118SOL    HW2 4545   2.961   1.357   2.044  0.7192 -0.4355 -1.3618
 1118SOL    HW3 4546   2.861   1.244   2.025  1.4859 -1.0614 -1.7144
 1118SOL    MW4 4547   2.936   1.274   2.058  0.4265 -0.1391 -0.0412
 1119SOL     OW 4548   2.906   1.527   1.908 -0.1642 -0.0681  0.1378
 1119SOL    HW2 4549   2.976   1.591   1.920 -0.6562  0.5535 -0.2618
 1119SOL    HW3 4550   2.903   1.512   1.814 -0.0744 -0.6583  0.2276
 1119SOL    MW4 4551   2.915   1.533   1.897 -0.2177 -0.0640  0.0970
 1120SOL     OW 4552   2.686   1.651   2.030 -0.0046 -0.0210  0.6424
 1120SOL    HW2 4553   2.763   1.612   1.989 -0.0957  0.7077 -0.2479
 1120SOL    HW3 4554   2.613   1.596   2.002  0.0557 -0.0599  0.5612
 1120SOL    MW4 4555   2.686   1.639   2.021 -0.0086  0.0701  0.5145
 1121SOL     OW 4556   2.698   1.892   1.887  0.5249 -0.5694 -0.1212
 1121SOL    HW2 4557   2.630   1.946   1.929  1.1131 -0.1830  0.3544
 1121SOL    HW3 4558   2.687   1.805   1.926 -0.7336 -0.9373 -1.2363
 1121SOL    MW4 4559   2.687   1.888   1.898  0.4363 -0.5668 -0.2056
 1122SOL     OW 4560   2.926   2.032   1.998 -0.0616 -0.1089 -0.4038
 1122SOL    HW2 4561   2.932   2.013   2.091  1.7100 -0.2027 -0.5289
 1122SOL    HW3 4562   2.838   2.002   1.973 -0.3666 -0.5183  1.1157
 1122SOL    MW4 4563   2.915   2.026   2.007  0.1318 -0.1752 -0.2196
 1123SOL     OW 4564   2.893   2.288   1.894 -0.3078  0.1815 -0.0004
 1123SOL    HW2 4565   2.959   2.345   1.933 -1.1552  0.3562  1.1986
 1123SOL    HW3 4566   2.902   2.205   1.942 -0.0913 -0.2152 -0.7172
 1123SOL    MW4 4567   2.903   2.284   1.905 -0.3910  0.1521  0.0633
 1124SOL     OW 4568   2.664   2.412   1.976  0.2611 -0.4901 -0.6969
 1124SOL    HW2 4569   2.688   2.499   1.942  1.0471  0.0691  1.2114
 1124SOL    HW3 4570   2.741   2.357   1.958  0.9545 -0.0188  0.7489
 1124SOL    MW4 4571   2.677   2.416   1.969  0.4563 -0.3541 -0.2544
 1125SOL     OW 4572   2.691   2.674   1.903  1.1113  0.6132  0.0653
 1125SOL    HW2 4573   2.613   2.715   1.942  0.6328  0.5984 -0.8627
 1125SOL    HW3 4574   2.764   2.726   1.937  0.7999 -0.1678  1.9535
 1125SOL    MW4 4575   2.691   2.687   1.912  1.0071  0.5081  0.1919
 1126SOL     OW 4576   2.886   2.833   1.994 -0.0008 -0.2652 -0.0550
 1126SOL    HW2 4577   2.884   2.918   1.951 -0.2681  0.2096  0.8835
 1126SOL    HW3 4578   2.881   2.853   2.088 -0.2182 -1.3117  0.1662
 1126SOL    MW4 4579   2.885   2.847   2.001 -0.0648 -0.3405  0.0980
 1127SOL     OW 4580   2.880   3.111   1.915  0.2203 -0.0171  0.0515
 1127SOL    HW2 4581   2.954   3.153   1.958  1.0659 -1.2633 -0.1601
 1127SOL    HW3 4582   2.803   3.154   1.953  1.0472  1.4198  0.1282
 1127SOL    MW4 4583   2.880   3.122   1.926  0.4411  0.0083  0.0336
 1128SOL     OW 4584   2.657   3.216   2.012  0.1628 -0.2516  0.2425
 1128SOL    HW2 4585   2.663   3.301   1.969  1.2975 -0.5342 -0.1718
 1128SOL    HW3 4586   2.583   3.173   1.969  1.3863 -0.6052 -1.5713
 1128SOL    MW4 4587   2.648   3.222   2.001  0.4740 -0.3357 -0.0517
 1129SOL     OW 4588   2.676   3.464   1.903  0.1310  0.3120  0.1152
 1129SOL    HW2 4589   2.753   3.505   1.943 -0.2421  1.5835 -0.4252
 1129SOL    HW3 4590   2.602   3.515   1.935 -0.4327 -0.4952  0.1130
 1129SOL    MW4 4591   2.676   3.476   1.912  0.0074  0.3734  0.0434
 1130SOL     OW 4592   2.901   3.599   1.985  0.5314  0.5048 -0.1968
 1130SOL    HW2 4593   2.932   3.582   2.074  0.0310  0.4171 -0.0371
 1130SOL    HW3 4594   2.970   3.564   1.928  1.0513  0.9447  0.1570
 1130SOL    MW4 4595   2.914   3.592   1.989  0.5338  0.5512 -0.1291
 1131SOL     OW 4596   2.916   3.845   1.883  0.3015 -0.1626 -0.0475
 1131SOL    HW2 4597   2.928   3.756   1.915  0.3454 -0.4288 -0.8058
 1131SOL    HW3 4598   2.890   3.835   1.792  0.4592  0.6049 -0.1823
 1131SOL    MW4 4599   2.914   3.832   1.876  0.3281 -0.0968 -0.1652
 1132SOL     OW 4600   2.710   4.026   1.984 -0.2305 -0.1560 -0.1448
 1132SOL    HW2 4601   2.777   3.959   1.967  0.4196  0.5787 -0.5422
 1132SOL    HW3 4602   2.628   3.985   1.958  0.2951 -0.4091 -1.4820
 1132SOL    MW4 4603   2.708   4.012   1.978 -0.0753 -0.0920 -0.3737
 1133SOL     OW 4604   2.667   4.289   1.916 -0.7386 -0.5056  0.3366
 1133SOL    HW2 4605   2.697   4.204   1.948 -0.6312 -0.6304 -0.0936
 1133SOL    HW3 4606   2.662   4.278   1.821 -0.7369 -0.0351  0.2832
 1133SOL    MW4 4607   2.670   4.276   1.907 -0.7243 -0.4597  0.2729
 1134SOL     OW 4608   2.924   4.395   1.987  0.0216  0.1769 -0.5145
 1134SOL    HW2 4609   2.924   4.396   2.082 -1.1497  0.3229 -0.5133
 1134SOL    HW3 4610   2.837   4.365   1.962  0.6497 -0.8622 -1.5411
 1134SOL    MW4 4611   2.913   4.391   1.996 -0.0501  0.0587 -0.6498
 1135SOL     OW 4612   3.356   4.640   1.907 -0.1619 -0.1918 -0.2708
 1135SOL    HW2 4613   3.359   4.554   1.950 -0.8433  0.2066  0.5729
 1135SOL    HW3 4614   3.349   4.619   1.814 -0.1768 -1.0536 -0.0848
 1135SOL    MW4 4615   3.355   4.626   1.901 -0.2537 -0.2532 -0.1351
 1136SOL     OW 4616   3.147   0.104   2.010 -0.4981  0.0176  0.1565
 1136SOL    HW2 4617   3.145   0.104   2.106  0.5869  1.2925  0.1943
 1136SOL    HW3 4618   3.225   0.053   1.987  0.1044  1.0167 -0.0164
 1136SOL    MW4 4619   3.157   0.097   2.020 -0.2754  0.3176  0.1385
 1137SOL     OW 4620   3.151   0.352   1.907  0.0898 -0.0799  0.6022
 1137SOL    HW2 4621   3.144   0.267   1.950 -0.3636  0.8219  2.3684
 1137SOL    HW3 4622   3.136   0.334   1.814  1.1393 -2.0801  0.8046
 1137SOL    MW4 4623   3.148   0.338   1.900  0.1686 -0.2248  0.8619
 1138SOL     OW 4624   3.368   0.487   2.011  0.3287 -0.3931  0.6970
 1138SOL    HW2 4625   3.443   0.432   1.986 -0.4934 -1.7192  1.0612
 1138SOL    HW3 4626   3.293   0.445   1.969 -0.5183 -0.3855  2.1647
 1138SOL    MW4 4627   3.368   0.474   2.002  0.1087 -0.5670  0.9384
 1139SOL     OW 4628   3.372   0.745   1.938 -0.5562 -0.0394 -0.3106
 1139SOL    HW2 4629   3.293   0.787   1.972 -1.2234 -1.6670  0.1719
 1139SOL    HW3 4630   3.362   0.653   1.960  1.7544 -0.1771  0.2703
 1139SOL    MW4 4631   3.360   0.739   1.945 -0.3390 -0.2723 -0.1704
 1140SOL     OW 4632   3.138   0.868   2.024 -0.4236 -0.1674  0.8794
 1140SOL    HW2 4633   3.159   0.886   2.115 -0.2948 -1.4600  1.1091
 1140SOL    HW3 4634   3.128   0.955   1.984 -2.7547  0.4028  2.6057
 1140SOL    MW4 4635   3.140   0.882   2.030 -0.7143 -0.2627  1.1375
 1141SOL     OW 4636   3.170   1.132   1.905 -0.1264  0.3392  0.1724
 1141SOL    HW2 4637   3.252   1.164   1.941 -0.4193  1.7989 -0.4327
 1141SOL    HW3 4638   3.102   1.168   1.962 -0.3727 -0.5635  0.4606
 1141SOL    MW4 4639   3.172   1.141   1.917 -0.1976  0.4127  0.1307
 1142SOL     OW 4640   3.406   1.238   2.016 -0.4206 -0.0647 -0.1451
 1142SOL    HW2 4641   3.402   1.234   2.111  0.4960  0.0476 -0.1063
 1142SOL    HW3 4642   3.404   1.331   1.995 -0.8477 -0.0949 -0.2485
 1142SOL    MW4 4643   3.405   1.250   2.026 -0.3560 -0.0539 -0.1533
 1143SOL     OW 4644   3.409   1.502   1.912 -0.0680 -0.1150  0.1405
 1143SOL    HW2 4645   3.491   1.539   1.943  0.5509 -0.4180 -1.0946
 1143SOL    HW3 4646   3.341   1.553   1.956  0.7742  0.0414  1.2703
 1143SOL    MW4 4647   3.411   1.514   1.922  0.1247 -0.1343  0.1266
 1144SOL     OW 4648   3.163   1.648   2.018  0.1431 -0.3731  0.2319
 1144SOL    HW2 4649   3.166   1.641   2.114  0.8766  0.0055  0.2435
 1144SOL    HW3 4650   3.169   1.741   2.000  0.0015 -0.4430 -0.1795
 1144SOL    MW4 4651   3.164   1.659   2.028  0.2213 -0.3322  0.1793
 1145SOL     OW 4652   3.168   1.912   1.895  0.4716 -0.3241  0.3237
 1145SOL    HW2 4653   3.085   1.941   1.931  0.8533  0.5286  0.5374
 1145SOL    HW3 4654   3.234   1.962   1.944  1.0094  0.7897 -1.4899
 1145SOL    MW4 4655   3.166   1.922   1.906  0.5927 -0.0646  0.1124
 1146SOL     OW 4656   3.355   2.044   2.051  0.8064  0.0968  0.1260
 1146SOL    HW2 4657   3.439   2.008   2.021  1.1647  1.4602 -0.5494
 1146SOL    HW3 4658   3.370   2.066   2.143  1.2746  0.5553 -0.0537
 1146SOL    MW4 4659   3.368   2.042   2.059  0.9153  0.3371  0.0134
 1147SOL     OW 4660   3.341   2.276   1.915 -0.1465  0.2538  0.3098
 1147SOL    HW2 4661   3.338   2.202   1.975  0.0775  1.0680  1.3534
 1147SOL    HW3 4662   3.265   2.329   1.938  0.2217  0.8335  0.2261
 1147SOL    MW4 4663   3.331   2.273   1.926 -0.0684  0.4375  0.4364
 1148SOL     OW 4664   3.103   2.437   1.995  0.3031  0.0125 -0.4039
 1148SOL    HW2 4665   3.098   2.437   2.091 -1.4290  0.5959 -0.4775
 1148SOL    HW3 4666   3.115   2.529   1.972  0.6663 -0.1226 -0.7482
 1148SOL    MW4 4667   3.104   2.449   2.005  0.1223  0.0715 -0.4592
 1149SOL     OW 4668   3.109   2.705   1.920  0.2806 -0.0848  0.2583
 1149SOL    HW2 4669   3.027   2.745   1.950  0.8651  0.9256  0.5405
 1149SOL    HW3 4670   3.110   2.721   1.825 -1.4822 -3.1250 -0.3358
 1149SOL    MW4 4671   3.098   2.712   1.911  0.1252 -0.3526  0.2171
 1150SOL     OW 4672   3.350   2.836   2.029 -0.1139 -0.2782  0.2299
 1150SOL    HW2 4673   3.346   2.814   2.122 -0.3207  1.3300  0.6047
 1150SOL    HW3 4674   3.273   2.794   1.991  0.0813 -1.1053  0.7341
 1150SOL    MW4 4675   3.340   2.827   2.036 -0.1152 -0.1750  0.3459
 1151SOL     OW 4676   3.338   3.085   1.918 -0.2540 -0.5742 -0.4943
 1151SOL    HW2 4677   3.422   3.123   1.942 -0.5471 -0.1985 -0.0715
 1151SOL    HW3 4678   3.343   2.994   1.947 -0.5555 -0.1629  0.8628
 1151SOL    MW4 4679   3.350   3.078   1.925 -0.3321 -0.4702 -0.2595
 1152SOL     OW 4680   3.113   3.210   2.035  0.3851  0.4410  0.2134
 1152SOL    HW2 4681   3.117   3.187   2.128 -0.8653  1.6820  0.5841
 1152SOL    HW3 4682   3.171   3.146   1.992 -0.2646 -1.1491  1.6456
 1152SOL    MW4 4683   3.121   3.198   2.041  0.1347  0.3948  0.4516
 1153SOL     OW 4684   3.115   3.451   1.909  0.0612 -0.0385 -0.1290
 1153SOL    HW2 4685   3.193   3.488   1.951  1.4051 -2.1430 -0.7148
 1153SOL    HW3 4686   3.100   3.368   1.955 -0.8659 -0.4347 -1.1238
 1153SOL    MW4 4687   3.123   3.445   1.921  0.1161 -0.3686 -0.3376
 1154SOL     OW 4688   3.351   3.571   1.977 -0.5299  0.3062  0.5068
 1154SOL    HW2 4689   3.374   3.580   2.070  1.9385  0.3630 -0.0577
 1154SOL    HW3 4690   3.338   3.661   1.948 -0.3477  0.3612  0.5883
 1154SOL    MW4 4691   3.352   3.584   1.986 -0.1802  0.3214  0.4431
 1155SOL     OW 4692   3.347   3.846   1.892 -0.0403 -0.0788 -0.1049
 1155SOL    HW2 4693   3.282   3.915   1.905  1.6097  1.5802 -0.4223
 1155SOL    HW3 4694   3.366   3.849   1.798 -0.0710 -1.0769 -0.1442
 1155SOL    MW4 4695   3.341   3.856   1.881  0.1733  0.0083 -0.1519
 1156SOL     OW 4696   3.141   4.029   1.976 -0.2357  0.0765  0.3432
 1156SOL    HW2 4697   3.143   4.017   2.071  0.3192 -0.4256  0.2757
 1156SOL    HW3 4698   3.064   3.980   1.947 -1.1619  1.3142  0.6677
 1156SOL    MW4 4699   3.131   4.021   1.984 -0.2847  0.1740  0.3772
 1157SOL     OW 4700   3.150   4.296   1.852 -0.5687 -0.1824  0.2829
 1157SOL    HW2 4701   3.146   4.205   1.880 -1.3349 -0.0574  0.5876
 1157SOL    HW3 4702   3.068   4.334   1.882  0.5198  1.0586  1.7730
 1157SOL    MW4 4703   3.139   4.289   1.860 -0.5262 -0.0024  0.5196
 1158SOL     OW 4704   3.374   4.383   2.003  0.1718  0.0912  0.3293
 1158SOL    HW2 4705   3.439   4.332   1.955 -0.0579 -0.3572  0.4896
 1158SOL    HW3 4706   3.291   4.364   1.959  0.2698  1.3411 -0.4152
 1158SOL    MW4 4707   3.371   4.374   1.991  0.1545  0.1974  0.2522
 1159SOL     OW 4708   3.817   4.623   1.913  0.4765  0.2239  0.6959
 1159SOL    HW2 4709   3.808   4.532   1.942 -0.6229  0.4875  1.2171
 1159SOL    HW3 4710   3.751   4.671   1.964  0.5576  1.1947 -0.0969
 1159SOL    MW4 4711   3.807   4.618   1.924  0.3421  0.3867  0.6602
 1160SOL     OW 4712   3.593   0.089   2.008 -0.3022 -0.3460  0.1536
 1160SOL    HW2 4713   3.585   0.072   2.102 -1.4006 -0.5377  0.0341
 1160SOL    HW3 4714   3.521   0.040   1.968 -0.9918  1.2463 -0.6034
 1160SOL    MW4 4715   3.582   0.081   2.015 -0.5381 -0.1612  0.0381
 1161SOL     OW 4716   3.584   0.352   1.919 -0.1351  0.1337 -0.4048
 1161SOL    HW2 4717   3.599   0.264   1.954 -1.4344 -1.0507 -2.7848
 1161SOL    HW3 4718   3.594   0.344   1.825 -0.5626  2.4880 -0.7040
 1161SOL    MW4 4719   3.587   0.340   1.911 -0.3626  0.2881 -0.7584
 1162SOL     OW 4720   3.811   0.497   2.009 -0.9159  0.0353  0.0633
 1162SOL    HW2 4721   3.800   0.579   1.960 -0.2766 -1.0158 -1.8759
 1162SOL    HW3 4722   3.740   0.441   1.977  0.7333 -1.3763 -1.1635
 1162SOL    MW4 4723   3.800   0.501   1.998 -0.6142 -0.2896 -0.3543
 1163SOL     OW 4724   3.849   0.751   1.868  0.1451 -0.1910 -0.1495
 1163SOL    HW2 4725   3.761   0.782   1.887  0.7392  1.4627  0.0112
 1163SOL    HW3 4726   3.854   0.747   1.773  0.0652  0.2361 -0.1716
 1163SOL    MW4 4727   3.838   0.755   1.858  0.2129  0.0836 -0.1311
 1164SOL     OW 4728   3.625   1.113   1.916 -0.4670  0.0561 -0.1378
 1164SOL    HW2 4729   3.624   1.024   1.951  0.3701  0.2142  0.2936
 1164SOL    HW3 4730   3.552   1.156   1.960 -0.6061 -0.2913 -0.0219
 1164SOL    MW4 4731   3.615   1.107   1.926 -0.3750  0.0311 -0.0654
 1165SOL     OW 4732   3.410   1.301   1.516  0.2137  0.3141 -0.1246
 1165SOL    HW2 4733   3.329   1.277   1.561  0.1915 -1.0662 -0.8614
 1165SOL    HW3 4734   3.479   1.252   1.561  0.2475 -0.7429 -1.2841
 1165SOL    MW4 4735   3.408   1.291   1.528  0.2151 -0.0074 -0.3747
 1166SOL     OW 4736   3.846   1.273   1.969 -0.1361  0.4561 -0.0431
 1166SOL    HW2 4737   3.831   1.310   2.056  0.4648  0.2500  0.1495
 1166SOL    HW3 4738   3.769   1.219   1.952  0.2868 -0.4416  0.8580
 1166SOL    MW4 4739   3.834   1.270   1.978 -0.0012  0.3105  0.1012
 1167SOL     OW 4740   3.844   1.540   1.856  0.3383  0.3238  0.2652
 1167SOL    HW2 4741   3.918   1.580   1.902  0.2311  0.9093 -0.0584
 1167SOL    HW3 4742   3.861   1.446   1.860  2.7608  0.5749 -2.5370
 1167SOL    MW4 4743   3.856   1.533   1.862  0.6442  0.4343 -0.1471
 1168SOL     OW 4744   3.616   1.649   1.992 -0.1121 -0.0535  0.4233
 1168SOL    HW2 4745   3.616   1.742   1.972  0.7035  0.2777  1.9278
 1168SOL    HW3 4746   3.690   1.614   1.941 -1.0208 -0.0712 -0.9172
 1168SOL    MW4 4747   3.626   1.656   1.982 -0.1247 -0.0122  0.4450
 1169SOL     OW 4748   3.589   1.929   1.933 -0.4032  0.0388 -0.1422
 1169SOL    HW2 4749   3.673   1.967   1.959  0.1473 -1.5089  0.4182
 1169SOL    HW3 4750   3.601   1.906   1.841  0.4505 -1.8448  0.4058
 1169SOL    MW4 4751   3.602   1.931   1.924 -0.2179 -0.4139  0.0039
 1170SOL     OW 4752   3.814   2.040   2.003 -0.2164  0.3230 -0.7424
 1170SOL    HW2 4753   3.893   2.017   1.955  0.3626 -0.3568  0.5289
 1170SOL    HW3 4754   3.804   2.134   1.989  0.1373  0.2009 -1.8972
 1170SOL    MW4 4755   3.823   2.050   1.995 -0.0932  0.2172 -0.7271
 1171SOL     OW 4756   3.809   2.312   1.901 -0.1639 -0.0661  0.2858
 1171SOL    HW2 4757   3.885   2.359   1.933 -0.0265  0.3567 -0.6512
 1171SOL    HW3 4758   3.734   2.366   1.927 -0.0560  0.2641 -0.0946
 1171SOL    MW4 4759   3.809   2.325   1.909 -0.1318  0.0331  0.1121
 1172SOL     OW 4760   3.571   2.412   1.985  0.3744  0.0947  0.4944
 1172SOL    HW2 4761   3.553   2.500   1.953 -0.5440 -0.2112  0.1436
 1172SOL    HW3 4762   3.492   2.362   1.963  1.1786 -0.9977 -0.0002
 1172SOL    MW4 4763   3.558   2.417   1.978  0.3593 -0.0899  0.3829
 1173SOL     OW 4764   3.561   2.682   1.929 -0.1622 -0.3264 -0.3395
 1173SOL    HW2 4765   3.640   2.724   1.962 -0.7019 -1.4129  2.4330
 1173SOL    HW3 4766   3.489   2.731   1.969 -0.9797  0.7470 -2.9438
 1173SOL    MW4 4767   3.562   2.694   1.938 -0.3412 -0.3281 -0.3173
 1174SOL     OW 4768   3.790   2.806   1.998  0.5975 -0.3434  0.3851
 1174SOL    HW2 4769   3.794   2.796   2.093 -3.8842  1.5208  0.8685
 1174SOL    HW3 4770   3.795   2.900   1.984 -0.3887 -0.4997 -1.1137
 1174SOL    MW4 4771   3.791   2.817   2.009 -0.1240 -0.1183  0.2513
 1175SOL     OW 4772   3.811   3.094   1.960  0.5931 -0.0887 -0.1112
 1175SOL    HW2 4773   3.733   3.138   1.993  0.5213 -0.3087  0.0089
 1175SOL    HW3 4774   3.799   3.093   1.865 -0.1659 -1.2870 -0.0098
 1175SOL    MW4 4775   3.799   3.100   1.952  0.4835 -0.2759 -0.0820
 1176SOL     OW 4776   3.562   3.202   2.013 -0.0372  0.2233  0.2826
 1176SOL    HW2 4777   3.551   3.204   2.108 -0.8491  0.2076  0.1887
 1176SOL    HW3 4778   3.564   3.295   1.988  0.3903  0.2306  0.3355
 1176SOL    MW4 4779   3.561   3.215   2.022 -0.0880  0.2222  0.2773
 1177SOL     OW 4780   3.587   3.459   1.900 -0.2357 -0.3100 -0.4326
 1177SOL    HW2 4781   3.646   3.504   1.960  1.1346  0.0040 -1.9873
 1177SOL    HW3 4782   3.502   3.500   1.914  0.4922  1.0901 -0.0974
 1177SOL    MW4 4783   3.584   3.470   1.910  0.0410 -0.0839 -0.5935
 1178SOL     OW 4784   3.800   3.574   2.021 -0.5568 -0.1389  0.2491
 1178SOL    HW2 4785   3.879   3.528   1.992  0.1325 -0.4451  2.4832
 1178SOL    HW3 4786   3.810   3.663   1.987  0.9349 -0.0793  0.7921
 1178SOL    MW4 4787   3.812   3.580   2.013 -0.2692 -0.1712  0.6158
 1179SOL     OW 4788   3.818   3.825   1.916  0.3172 -0.0182  0.5281
 1179SOL    HW2 4789   3.730   3.862   1.920 -0.5698 -2.0783  1.0230
 1179SOL    HW3 4790   3.846   3.838   1.825  0.5858  2.9982  1.0143
 1179SOL    MW4 4791   3.810   3.831   1.905  0.2356  0.1080  0.6576
 1180SOL     OW 4792   3.581   3.983   1.958 -0.4071  0.5604  0.4509
 1180SOL    HW2 4793   3.595   3.990   2.053  1.1037 -0.3242  0.3024
 1180SOL    HW3 4794   3.499   3.935   1.949  0.8900 -1.8759  1.3104
 1180SOL    MW4 4795   3.572   3.978   1.970 -0.0367  0.1225  0.5447
 1181SOL     OW 4796   3.579   4.235   1.854 -0.0039  0.2590 -0.3330
 1181SOL    HW2 4797   3.658   4.278   1.886  0.2985 -0.2994 -0.3332
 1181SOL    HW3 4798   3.585   4.145   1.886 -0.9019  0.3541  0.1187
 1181SOL    MW4 4799   3.590   4.229   1.862 -0.0825  0.1979 -0.2735
 1182SOL     OW 4800   3.818   4.341   1.983  0.1034  0.2510  0.0583
 1182SOL    HW2 4801   3.793   4.331   2.075  0.2387  2.0166  0.3021
 1182SOL    HW3 4802   3.906   4.303   1.977 -1.0913 -2.6362 -0.0152
 1182SOL    MW4 4803   3.826   4.334   1.995 -0.0362  0.1025  0.0808
 1183SOL     OW 4804   4.273   4.629   1.915 -0.4225  0.2705  0.0726
 1183SOL    HW2 4805   4.196   4.681   1.937  0.5137  0.6508  2.5656
 1183SOL    HW3 4806   4.347   4.687   1.934  0.5607 -0.9677  0.0654
 1183SOL    MW4 4807   4.273   4.644   1.920 -0.1688  0.1574  0.4007
 1184SOL     OW 4808   4.042   0.085   2.003 -0.2798 -0.0848 -0.4757
 1184SOL    HW2 4809   4.033   0.080   2.098 -0.5988  0.2832 -0.4846
 1184SOL    HW3 4810   3.969   0.032   1.970  0.8662 -1.6728 -0.5022
 1184SOL    MW4 4811   4.031   0.077   2.011 -0.1707 -0.2458 -0.4802
 1185SOL     OW 4812   4.047   0.362   1.918  0.0695  0.0184  0.2696
 1185SOL    HW2 4813   4.033   0.273   1.950 -0.6841  0.1915  0.4260
 1185SOL    HW3 4814   3.976   0.413   1.956 -0.5746  0.3264 -1.2804
 1185SOL    MW4 4815   4.036   0.357   1.927 -0.1149  0.0819  0.0857
 1186SOL     OW 4816   4.266   0.532   1.973  0.2463  0.3649  0.0365
 1186SOL    HW2 4817   4.260   0.525   2.068  2.1962 -0.2559  0.1392
 1186SOL    HW3 4818   4.192   0.481   1.941 -0.2414  0.3071  1.2206
 1186SOL    MW4 4819   4.256   0.525   1.981  0.4392  0.2753  0.2062
 1187SOL     OW 4820   4.250   0.786   1.891 -0.4826 -0.6232  0.1882
 1187SOL    HW2 4821   4.259   0.695   1.920 -0.4469 -1.4425 -2.2975
 1187SOL    HW3 4822   4.250   0.781   1.795 -0.6029  1.9893  0.0179
 1187SOL    MW4 4823   4.251   0.773   1.882 -0.4935 -0.3865 -0.1622
 1188SOL     OW 4824   4.032   0.877   2.049  0.0101 -0.1630  0.2913
 1188SOL    HW2 4825   4.114   0.843   2.013  0.1000 -0.1015  0.4368
 1188SOL    HW3 4826   3.964   0.835   1.997  0.1470  0.1509 -0.1534
 1188SOL    MW4 4827   4.034   0.867   2.037  0.0401 -0.1134  0.2518
 1189SOL     OW 4828   4.053   1.100   1.897  0.0757  0.0134 -0.1575
 1189SOL    HW2 4829   3.973   1.142   1.926  0.4983  0.5684  0.2191
 1189SOL    HW3 4830   4.054   1.015   1.941 -0.6305 -0.2618 -0.6789
 1189SOL    MW4 4831   4.043   1.094   1.907  0.0381  0.0504 -0.1765
 1190SOL     OW 4832   4.270   1.274   1.984 -0.2862 -0.0589 -0.3430
 1190SOL    HW2 4833   4.268   1.279   2.080 -1.0117  0.8137 -0.3989
 1190SOL    HW3 4834   4.205   1.208   1.962  0.4340 -0.8253 -0.2025
 1190SOL    MW4 4835   4.261   1.266   1.994 -0.2866 -0.0448 -0.3319
 1191SOL     OW 4836   4.307   1.545   1.883 -0.1696 -0.0143 -0.2406
 1191SOL    HW2 4837   4.288   1.458   1.918  0.7099  0.1015  0.5481
 1191SOL    HW3 4838   4.292   1.536   1.789  1.3871 -1.4408 -0.3778
 1191SOL    MW4 4839   4.303   1.532   1.876  0.1516 -0.1872 -0.1546
 1192SOL     OW 4840   4.067   1.667   1.963 -0.0978  0.0238  0.3791
 1192SOL    HW2 4841   4.047   1.656   2.056 -1.8411  0.3577  0.0700
 1192SOL    HW3 4842   4.162   1.654   1.956  0.0066 -0.2154  2.1626
 1192SOL    MW4 4843   4.077   1.664   1.974 -0.3142  0.0361  0.5738
 1193SOL     OW 4844   4.032   1.933   1.868 -0.4800 -0.0594 -0.9936
 1193SOL    HW2 4845   4.055   1.848   1.904 -1.6604  0.3110  0.6836
 1193SOL    HW3 4846   4.032   1.920   1.773 -1.9161 -2.2685 -0.7207
 1193SOL    MW4 4847   4.035   1.920   1.860 -0.8254 -0.3020 -0.7362
 1194SOL     OW 4848   4.259   2.074   1.947 -0.6901 -0.0030  0.3139
 1194SOL    HW2 4849   4.247   2.047   2.039 -1.6013  0.2590  0.2810
 1194SOL    HW3 4850   4.185   2.034   1.901  0.5167 -1.2455 -0.5509
 1194SOL    MW4 4851   4.248   2.065   1.953 -0.6509 -0.1323  0.1953
 1195SOL     OW 4852   4.254   2.346   1.868  0.3585  0.4063 -0.0099
 1195SOL    HW2 4853   4.256   2.251   1.880  0.3932  0.1747 -1.6772
 1195SOL    HW3 4854   4.330   2.378   1.917  0.6309 -0.4834  0.1565
 1195SOL    MW4 4855   4.264   2.338   1.876  0.3991  0.2584 -0.2080
 1196SOL     OW 4856   4.031   2.464   1.966  0.4542  0.2283 -0.2435
 1196SOL    HW2 4857   4.034   2.454   2.061  1.5312 -0.2446 -0.3133
 1196SOL    HW3 4858   4.111   2.421   1.935 -0.3676 -0.4585 -1.4449
 1196SOL    MW4 4859   4.042   2.457   1.974  0.4878  0.0753 -0.4112
 1197SOL     OW 4860   4.006   2.713   1.855  0.0865 -0.1395  0.2430
 1197SOL    HW2 4861   4.024   2.634   1.906 -1.2054 -1.8100 -1.8071
 1197SOL    HW3 4862   3.922   2.745   1.888  0.1611 -0.1371  0.4317
 1197SOL    MW4 4863   3.997   2.707   1.866 -0.0741 -0.3598 -0.0026
 1198SOL     OW 4864   4.239   2.841   1.958  0.1480 -0.2778  0.4591
 1198SOL    HW2 4865   4.224   2.839   2.052 -2.0481 -2.6926  0.1212
 1198SOL    HW3 4866   4.157   2.810   1.920  0.5089  1.9449 -2.3458
 1198SOL    MW4 4867   4.226   2.837   1.965 -0.0944 -0.3035  0.0443
 1199SOL     OW 4868   4.263   3.116   1.897  0.1312 -0.3055  0.0239
 1199SOL    HW2 4869   4.183   3.159   1.926  0.3206  0.5508 -0.6805
 1199SOL    HW3 4870   4.253   3.025   1.925 -0.5111  0.0761  1.0743
 1199SOL    MW4 4871   4.251   3.110   1.904  0.0715 -0.1423  0.0696
 1200SOL     OW 4872   4.044   3.212   2.041  0.3390  0.0762  0.1750
 1200SOL    HW2 4873   4.041   3.217   2.136 -0.0729  1.6600  0.0839
 1200SOL    HW3 4874   3.959   3.175   2.016  0.7457 -1.0688  0.4551
 1200SOL    MW4 4875   4.032   3.208   2.050  0.3381  0.1340  0.1998
 1201SOL     OW 4876   4.038   3.460   1.910  0.2020 -0.0718 -0.2494
 1201SOL    HW2 4877   4.095   3.524   1.953 -1.0994  0.5033  0.6655
 1201SOL    HW3 4878   4.053   3.378   1.958 -1.2155  0.5607  1.3297
 1201SOL    MW4 4879   4.047   3.457   1.922 -0.1564  0.0875  0.0796
 1202SOL     OW 4880   4.226   3.611   2.013 -0.3847 -0.3513  0.2895
 1202SOL    HW2 4881   4.234   3.701   1.982  1.2038 -0.4985  0.2122
 1202SOL    HW3 4882   4.312   3.573   1.997 -0.5246 -1.3861  1.8818
 1202SOL    MW4 4883   4.238   3.618   2.007 -0.1936 -0.5071  0.4900
 1203SOL     OW 4884   4.229   3.848   1.896  0.1039 -0.4838 -0.2199
 1203SOL    HW2 4885   4.295   3.909   1.929  1.3553 -1.5101 -0.8040
 1203SOL    HW3 4886   4.239   3.850   1.801 -0.0989 -1.3424 -0.2595
 1203SOL    MW4 4887   4.239   3.857   1.888  0.2422 -0.7327 -0.3022
 1204SOL     OW 4888   4.024   3.966   2.027 -0.2020  0.1794  0.0519
 1204SOL    HW2 4889   4.089   3.921   1.973 -0.3511  0.3901 -0.3047
 1204SOL    HW3 4890   3.940   3.943   1.988 -0.2966  0.5204  0.0504
 1204SOL    MW4 4891   4.021   3.957   2.015 -0.2341  0.2520  0.0048
 1205SOL     OW 4892   4.042   4.205   1.881  0.5120 -0.1499  0.0857
 1205SOL    HW2 4893   4.118   4.245   1.924 -0.8015  0.0203  2.3403
 1205SOL    HW3 4894   4.030   4.122   1.927 -0.2787 -0.4798 -0.7078
 1205SOL    MW4 4895   4.051   4.199   1.893  0.2351 -0.1712  0.2785
 1206SOL     OW 4896   4.237   4.374   2.002  1.1631 -0.4424  0.0448
 1206SOL    HW2 4897   4.232   4.393   2.095 -0.3730 -0.3701 -0.0454
 1206SOL    HW3 4898   4.259   4.459   1.962 -2.4361  0.5161 -0.0422
 1206SOL    MW4 4899   4.239   4.388   2.009  0.4854 -0.3061  0.0215
 1207SOL     OW 4900   0.202   4.659   2.358  0.5840  0.2519  0.1439
 1207SOL    HW2 4901   0.213   4.649   2.453  0.4179  1.3191  0.2828
 1207SOL    HW3 4902   0.274   4.716   2.332  0.2109  0.5380 -0.2605
 1207SOL    MW4 4903   0.213   4.665   2.367  0.5128  0.4304  0.1087
 1208SOL     OW 4904   4.470   0.100   2.263  0.2609 -0.2002  0.1254
 1208SOL    HW2 4905   4.551   0.061   2.296 -0.0944 -1.4196 -0.4332
 1208SOL    HW3 4906   4.478   0.096   2.168 -0.7652 -0.9890  0.0673
 1208SOL    MW4 4907   4.482   0.094   2.255  0.0792 -0.4651  0.0441
 1209SOL     OW 4908   4.448   0.373   2.363  0.1394  0.0777  0.4765
 1209SOL    HW2 4909   4.513   0.421   2.311 -0.2397 -0.3691 -0.4138
 1209SOL    HW3 4910   4.456   0.282   2.333 -1.4794  0.1597 -0.2576
 1209SOL    MW4 4911   4.458   0.368   2.352 -0.1245  0.0296  0.2620
 1210SOL     OW 4912   0.187   0.536   2.261  0.1385  0.0563 -0.0451
 1210SOL    HW2 4913   0.256   0.477   2.292 -0.6401  0.0213  1.6924
 1210SOL    HW3 4914   0.180   0.518   2.167  2.8523  0.4533 -0.3366
 1210SOL    MW4 4915   0.195   0.526   2.253  0.3938  0.1041  0.1457
 1211SOL     OW 4916   0.194   0.784   2.375  0.2595  0.2609 -0.1784
 1211SOL    HW2 4917   0.215   0.780   2.469 -1.4780 -0.8748  0.1952
 1211SOL    HW3 4918   0.198   0.693   2.346 -1.5458  0.3176 -0.6540
 1211SOL    MW4 4919   0.197   0.771   2.384 -0.2080  0.1185 -0.1919
 1212SOL     OW 4920   4.442   0.881   2.282  0.2350  0.0362 -0.2718
 1212SOL    HW2 4921   4.511   0.837   2.332  0.1675  0.3485  0.1005
 1212SOL    HW3 4922   4.475   0.885   2.193  1.0089  0.8498  0.0551
 1212SOL    MW4 4923   4.455   0.875   2.277  0.3281  0.1848 -0.1798
 1213SOL     OW 4924   4.484   1.150   2.355 -0.1876  0.1205 -0.3063
 1213SOL    HW2 4925   4.494   1.141   2.450 -0.8334  0.0337 -0.2462
 1213SOL    HW3 4926   4.465   1.061   2.324 -1.5892  0.4173 -0.3170
 1213SOL    MW4 4927   4.483   1.137   2.364 -0.4573  0.1482 -0.2999
 1214SOL     OW 4928   0.214   1.302   2.288 -0.2119  0.1475 -0.6036
 1214SOL    HW2 4929   0.145   1.238   2.308  0.7310 -0.8177 -0.3610
 1214SOL    HW3 4930   0.201   1.323   2.196 -0.5307 -0.4228 -0.6942
 1214SOL    MW4 4931   0.203   1.296   2.279 -0.1295 -0.0550 -0.5834
 1215SOL     OW 4932   0.221   1.568   2.397  0.0844  0.4654 -0.2365
 1215SOL    HW2 4933   0.208   1.565   2.492  1.4598  0.1650 -0.0533
 1215SOL    HW3 4934   0.219   1.477   2.369  1.4706  0.4329 -0.2440
 1215SOL    MW4 4935   0.219   1.556   2.406  0.4487  0.4215 -0.2136
 1216SOL     OW 4936   4.489   1.693   2.297 -0.3608  0.5569  0.4728
 1216SOL    HW2 4937   4.490   1.788   2.308 -0.9512  0.4435  1.5261
 1216SOL    HW3 4938   4.565   1.662   2.345  0.8834  0.6445 -1.3903
 1216SOL    MW4 4939   4.499   1.702   2.304 -0.2745  0.5535  0.3662
 1217SOL     OW 4940   4.460   1.951   2.366  0.1660 -0.1059 -0.1878
 1217SOL    HW2 4941   4.384   1.980   2.316 -0.0359 -1.1677 -0.5199
 1217SOL    HW3 4942   4.534   1.996   2.326 -0.1109 -0.2205 -0.8386
 1217SOL    MW4 4943   4.460   1.961   2.354  0.1030 -0.2611 -0.3173
 1218SOL     OW 4944   0.213   2.064   2.262  0.3836  0.3521 -0.2829
 1218SOL    HW2 4945   0.302   2.040   2.290  0.6995 -0.4557 -1.9264
 1218SOL    HW3 4946   0.220   2.075   2.167 -1.0717  1.2579 -0.2946
 1218SOL    MW4 4947   0.226   2.062   2.253  0.2333  0.3650 -0.5014
 1219SOL     OW 4948   0.222   2.337   2.339  0.3288 -0.0918 -0.2677
 1219SOL    HW2 4949   0.220   2.325   2.434  1.7421  0.9752 -0.0898
 1219SOL    HW3 4950   0.208   2.249   2.304 -1.7697 -0.2610  0.9025
 1219SOL    MW4 4951   0.220   2.323   2.347  0.2384  0.0265 -0.0896
 1220SOL     OW 4952   4.479   2.480   2.277 -0.6859  0.5517  0.7621
 1220SOL    HW2 4953   4.502   2.566   2.311  1.0710  0.2942  0.3220
 1220SOL    HW3 4954   4.549   2.422   2.309 -1.1393 -0.4484  0.0056
 1220SOL    MW4 4955   4.492   2.483   2.285 -0.5140  0.3858  0.6039
 1221SOL     OW 4956   4.454   2.747   2.360  0.0772 -0.0883 -0.4386
 1221SOL    HW2 4957   4.469   2.747   2.454 -2.6930  0.4371  0.0350
 1221SOL    HW3 4958   4.537   2.777   2.322  0.8800  0.6905  1.8872
 1221SOL    MW4 4959   4.467   2.751   2.367 -0.1822  0.0839 -0.0691
 1222SOL     OW 4960   0.209   2.828   2.259  0.8579 -0.6408  0.9547
 1222SOL    HW2 4961   0.290   2.795   2.298  2.9045  1.6971 -1.1286
 1222SOL    HW3 4962   0.214   2.803   2.167 -0.8500 -0.5296  0.8065
 1222SOL    MW4 4963   0.220   2.821   2.252  0.9026 -0.3176  0.6604
 1223SOL     OW 4964   0.202   3.088   2.353 -0.1739 -0.0599  0.1272
 1223SOL    HW2 4965   0.133   3.133   2.305  0.1535  1.3853  0.9944
 1223SOL    HW3 4966   0.195   2.997   2.324 -1.3238  0.3901 -1.0780
 1223SOL    MW4 4967   0.192   3.082   2.343 -0.2824  0.1903  0.0827
 1224SOL     OW 4968   4.460   3.186   2.257 -0.1511 -0.3144  0.3136
 1224SOL    HW2 4969   4.481   3.267   2.304 -1.1127 -0.2202  0.5733
 1224SOL    HW3 4970   4.460   3.212   2.165 -0.4462 -0.0224  0.3962
 1224SOL    MW4 4971   4.463   3.200   2.251 -0.3166 -0.2635  0.3588
 1225SOL     OW 4972   0.037   3.450   2.391  0.6357 -0.2541 -0.0162
 1225SOL    HW2 4973   0.015   3.443   2.484  0.6591  0.6049  0.0603
 1225SOL    HW3 4974  -0.035   3.500   2.354  1.8850  1.6215  0.0210
 1225SOL    MW4 4975   0.024   3.456   2.399  0.8036  0.1066 -0.0010
 1226SOL     OW 4976   0.261   3.608   2.309  0.2064 -0.2641  0.2212
 1226SOL    HW2 4977   0.342   3.566   2.339 -0.0349 -0.6939  0.2856
 1226SOL    HW3 4978   0.195   3.539   2.317 -0.5011  0.5753  1.8006
 1226SOL    MW4 4979   0.263   3.593   2.314  0.0812 -0.2100  0.4380
 1227SOL     OW 4980   0.206   3.864   2.385  0.0824  0.0848 -0.3168
 1227SOL    HW2 4981   0.145   3.887   2.315 -0.8736 -1.3268  0.0313
 1227SOL    HW3 4982   0.234   3.774   2.364  1.8725  0.6212 -0.3436
 1227SOL    MW4 4983   0.202   3.855   2.373  0.1924 -0.0305 -0.2744
 1228SOL     OW 4984   4.481   3.961   2.246  0.2958  0.3577 -0.1879
 1228SOL    HW2 4985   4.472   4.046   2.289 -0.3244  0.1765  0.0550
 1228SOL    HW3 4986   4.452   3.976   2.156  0.3036  0.4326 -0.1781
 1228SOL    MW4 4987   4.476   3.974   2.240  0.2151  0.3433 -0.1547
 1229SOL     OW 4988   4.474   4.215   2.352 -0.1723 -0.0860 -0.2973
 1229SOL    HW2 4989   4.468   4.210   2.447  0.0337  0.3942 -0.2610
 1229SOL    HW3 4990   4.553   4.265   2.335 -0.9511  1.0118 -0.7170
 1229SOL    MW4 4991   4.484   4.221   2.362 -0.2475  0.1225 -0.3479
 1230SOL     OW 4992   0.202   4.384   2.237 -0.1650 -0.4168 -0.7931
 1230SOL    HW2 4993   0.286   4.358   2.275 -0.4988 -1.4156 -0.7306
 1230SOL    HW3 4994   0.187   4.473   2.269  1.1420 -0.0189 -1.2527
 1230SOL    MW4 4995   0.211   4.392   2.246 -0.0366 -0.4959 -0.8454
 1231SOL     OW 4996   0.654   0.032   2.343  0.0965  0.3198 -0.2984
 1231SOL    HW2 4997   0.667   0.011   2.436  1.6131  1.8882 -0.1208
 1231SOL    HW3 4998   0.742   0.054   2.311 -0.4072 -0.2411 -2.1201
 1231SOL    MW4 4999   0.667   0.032   2.351  0.2301  0.4528 -0.5152
 1232SOL     OW 5000   0.412   0.146   2.296 -0.3448 -0.3473  0.2190
 1232SOL    HW2 5001   0.501   0.124   2.322 -0.1551 -1.0681 -1.0157
 1232SOL    HW3 5002   0.410   0.132   2.201 -1.1877  1.6742 -0.0999
 1232SOL    MW4 5003   0.423   0.142   2.287 -0.4310 -0.1757  0.0141
 1233SOL     OW 5004   0.394   0.410   2.371 -0.0218  0.7316 -0.1862
 1233SOL    HW2 5005   0.405   0.410   2.466  0.3227  1.7988 -0.2130
 1233SOL    HW3 5006   0.395   0.318   2.346 -0.4759  0.4347  0.8871
 1233SOL    MW4 5007   0.396   0.398   2.380 -0.0363  0.8332 -0.0482
 1234SOL     OW 5008   0.639   0.518   2.285 -0.3671  0.1050  0.1517
 1234SOL    HW2 5009   0.639   0.607   2.322 -0.7743 -0.0264  0.4709
 1234SOL    HW3 5010   0.552   0.483   2.306  0.7232 -1.3499  2.4386
 1234SOL    MW4 5011   0.627   0.525   2.293 -0.2769 -0.1042  0.4954
 1235SOL     OW 5012   0.655   0.760   2.379  0.2169  0.0893  0.2013
 1235SOL    HW2 5013   0.647   0.753   2.474 -1.7474  0.0447  0.0528
 1235SOL    HW3 5014   0.584   0.819   2.354 -0.2568 -1.1548 -1.4054
 1235SOL    MW4 5015   0.644   0.767   2.388 -0.1048 -0.0808 -0.0300
 1236SOL     OW 5016   0.447   0.915   2.291 -0.3472 -0.0781 -0.2125
 1236SOL    HW2 5017   0.364   0.870   2.308 -0.3208 -0.5897 -1.4583
 1236SOL    HW3 5018   0.456   0.915   2.196 -0.4625  2.7794 -0.2637
 1236SOL    MW4 5019   0.437   0.909   2.281 -0.3589  0.2314 -0.3836
 1237SOL     OW 5020   0.446   1.180   2.372  0.0557 -0.2570  0.1291
 1237SOL    HW2 5021   0.418   1.093   2.343 -1.3634  0.2954 -0.2304
 1237SOL    HW3 5022   0.375   1.238   2.344  0.9472  1.0005  0.4490
 1237SOL    MW4 5023   0.433   1.176   2.365 -0.0139 -0.0181  0.1237
 1238SOL     OW 5024   0.666   1.282   2.266  0.0640  0.4299 -0.0530
 1238SOL    HW2 5025   0.669   1.375   2.290  0.7451  0.2381  0.6314
 1238SOL    HW3 5026   0.581   1.252   2.297 -0.4393  0.9859 -0.8798
 1238SOL    MW4 5027   0.655   1.290   2.273  0.0875  0.4781 -0.0718
 1239SOL     OW 5028   0.682   1.539   2.377 -0.2778  0.6228 -0.5160
 1239SOL    HW2 5029   0.704   1.525   2.469 -0.2750  2.7870 -0.1453
 1239SOL    HW3 5030   0.760   1.580   2.340  0.3099 -1.6684 -1.8899
 1239SOL    MW4 5031   0.695   1.543   2.385 -0.1999  0.6061 -0.6483
 1240SOL     OW 5032   0.458   1.678   2.266 -0.2952  0.1565 -0.1480
 1240SOL    HW2 5033   0.525   1.625   2.310  0.2873  1.0761  0.0805
 1240SOL    HW3 5034   0.375   1.651   2.307 -0.0418 -0.8134 -0.2686
 1240SOL    MW4 5035   0.456   1.667   2.277 -0.1850  0.1496 -0.1338
 1241SOL     OW 5036   0.452   1.946   2.369  0.1192  0.6559  0.0458
 1241SOL    HW2 5037   0.524   1.993   2.326  1.3275  0.1555  1.4858
 1241SOL    HW3 5038   0.456   1.858   2.333  0.1229  0.6716  0.0076
 1241SOL    MW4 5039   0.462   1.941   2.359  0.2790  0.5919  0.2306
 1242SOL     OW 5040   0.650   2.112   2.242 -0.4114 -0.7132 -0.3639
 1242SOL    HW2 5041   0.717   2.061   2.287  2.0676  1.3866 -1.5712
 1242SOL    HW3 5042   0.641   2.192   2.295 -1.2498 -0.5479 -0.7468
 1242SOL    MW4 5043   0.657   2.116   2.255 -0.1950 -0.4141 -0.5736
 1243SOL     OW 5044   0.653   2.346   2.380 -0.3652  0.3303 -0.3245
 1243SOL    HW2 5045   0.646   2.333   2.474  0.1893 -1.1948 -0.4810
 1243SOL    HW3 5046   0.741   2.379   2.366 -0.2659  0.0625 -0.3459
 1243SOL    MW4 5047   0.663   2.348   2.390 -0.2789  0.0937 -0.3479
 1244SOL     OW 5048   0.447   2.478   2.247  0.1708  0.1061 -0.4843
 1244SOL    HW2 5049   0.517   2.428   2.288  0.6903  0.6246 -0.7412
 1244SOL    HW3 5050   0.366   2.435   2.277  0.6287 -1.3613 -1.2974
 1244SOL    MW4 5051   0.445   2.466   2.256  0.2998 -0.0191 -0.6256
 1245SOL     OW 5052   0.464   2.747   2.342  0.5609 -0.1248 -0.1130
 1245SOL    HW2 5053   0.463   2.739   2.438  0.1665  0.5389 -0.0629
 1245SOL    HW3 5054   0.465   2.656   2.311 -0.2795 -0.3575  0.5141
 1245SOL    MW4 5055   0.464   2.734   2.351  0.3980 -0.0679 -0.0238
 1246SOL     OW 5056   0.686   2.862   2.217 -0.1121  0.4244 -0.5776
 1246SOL    HW2 5057   0.754   2.833   2.277  1.5244  0.2253 -2.4804
 1246SOL    HW3 5058   0.604   2.830   2.255  1.0557 -1.1216  0.6648
 1246SOL    MW4 5059   0.684   2.854   2.230  0.2578  0.1941 -0.6647
 1247SOL     OW 5060   0.643   3.081   2.374 -0.0293 -0.0905  0.2595
 1247SOL    HW2 5061   0.573   3.129   2.330 -0.3055 -1.8073 -1.2327
 1247SOL    HW3 5062   0.661   3.006   2.317  2.9973  0.2659  0.6532
 1247SOL    MW4 5063   0.636   3.078   2.361  0.3336 -0.2699  0.1144
 1248SOL     OW 5064   0.439   3.223   2.274 -0.0937 -0.0854 -0.4062
 1248SOL    HW2 5065   0.359   3.185   2.309  0.3905  0.3618  1.2248
 1248SOL    HW3 5066   0.430   3.214   2.179 -2.3162  0.4236 -0.2815
 1248SOL    MW4 5067   0.427   3.217   2.266 -0.3230  0.0408 -0.1748
 1249SOL     OW 5068   0.498   3.456   2.419 -0.0741 -0.1548 -0.1125
 1249SOL    HW2 5069   0.575   3.496   2.378  0.5883 -0.4115  0.8825
 1249SOL    HW3 5070   0.477   3.382   2.362  0.5021 -0.1681 -0.3142
 1249SOL    MW4 5071   0.506   3.451   2.406  0.0893 -0.1905 -0.0079
 1250SOL     OW 5072   0.676   3.603   2.278 -0.0280  0.0775  0.2477
 1250SOL    HW2 5073   0.668   3.693   2.309  0.8681 -0.4483  2.0730
 1250SOL    HW3 5074   0.651   3.607   2.186  0.9800  2.3822  0.0408
 1250SOL    MW4 5075   0.672   3.615   2.270  0.2232  0.3123  0.4611
 1251SOL     OW 5076   0.672   3.877   2.384  0.2488  0.5304  0.3980
 1251SOL    HW2 5077   0.682   3.871   2.479 -1.0333 -3.9427  0.3486
 1251SOL    HW3 5078   0.596   3.933   2.371 -1.6425 -1.5359  2.1783
 1251SOL    MW4 5079   0.663   3.884   2.394 -0.1699 -0.3324  0.6266
 1252SOL     OW 5080   0.432   4.030   2.344  0.1100  0.0481  0.0178
 1252SOL    HW2 5081   0.354   3.999   2.391  0.2209 -0.5284 -0.1802
 1252SOL    HW3 5082   0.414   4.013   2.252  0.9165 -1.0760  0.0634
 1252SOL    MW4 5083   0.420   4.024   2.338  0.2310 -0.1764 -0.0024
 1253SOL     OW 5084   0.450   4.327   2.350  0.0144 -0.0058 -0.3455
 1253SOL    HW2 5085   0.534   4.361   2.317  0.3589 -0.2425  0.2885
 1253SOL    HW3 5086   0.458   4.232   2.343 -0.2003 -0.0282 -0.2787
 1253SOL    MW4 5087   0.462   4.319   2.344  0.0315 -0.0396 -0.2532
 1254SOL     OW 5088   0.691   4.433   2.236  0.2229  0.1816  0.2133
 1254SOL    HW2 5089   0.665   4.525   2.244 -0.7453  0.1604 -2.2064
 1254SOL    HW3 5090   0.675   4.412   2.144  2.6444 -1.7493  0.2046
 1254SOL    MW4 5091   0.685   4.442   2.225  0.4146 -0.0758 -0.1068
 1255SOL     OW 5092   1.127   4.611   2.378 -0.3920  0.2504 -0.1484
 1255SOL    HW2 5093   1.114   4.600   2.473 -0.1419  0.4001 -0.0956
 1255SOL    HW3 5094   1.052   4.663   2.350  0.0360  1.0323  0.1373
 1255SOL    MW4 5095   1.116   4.616   2.387 -0.3027  0.3738 -0.1037
 1256SOL     OW 5096   0.903   0.093   2.279 -0.5303 -0.0544 -0.2405
 1256SOL    HW2 5097   0.887   0.180   2.314 -0.6240 -0.3502  0.4557
 1256SOL    HW3 5098   0.898   0.104   2.184 -1.1417  0.5818 -0.1397
 1256SOL    MW4 5099   0.900   0.106   2.271 -0.6234 -0.0095 -0.1354
 1257SOL     OW 5100   0.861   0.360   2.361  0.0593 -0.2297 -0.1641
 1257SOL    HW2 5101   0.935   0.400   2.315 -0.2548  1.0794  0.4264
 1257SOL    HW3 5102   0.787   0.418   2.342 -0.5112 -0.7755  0.3509
 1257SOL    MW4 5103   0.861   0.373   2.353 -0.0575 -0.1290 -0.0181
 1258SOL     OW 5104   1.100   0.511   2.267  0.0019 -0.0943 -0.2461
 1258SOL    HW2 5105   1.175   0.454   2.284  0.4202  0.6101  0.2758
 1258SOL    HW3 5106   1.098   0.519   2.171  1.5885  1.2180 -0.1823
 1258SOL    MW4 5107   1.109   0.504   2.256  0.2664  0.1718 -0.1688
 1259SOL     OW 5108   1.099   0.795   2.357 -0.3398  0.6730  0.1553
 1259SOL    HW2 5109   1.017   0.844   2.346  0.0959  1.7057  1.3556
 1259SOL    HW3 5110   1.073   0.703   2.349 -1.1670  1.0777 -2.1934
 1259SOL    MW4 5111   1.085   0.789   2.355 -0.3915  0.8627  0.0038
 1260SOL     OW 5112   0.854   0.928   2.329 -0.3959  0.1395 -0.2921
 1260SOL    HW2 5113   0.854   1.009   2.380  0.3460  0.5924 -0.9962
 1260SOL    HW3 5114   0.781   0.877   2.365 -1.6304  1.6155 -0.6422
 1260SOL    MW4 5115   0.844   0.932   2.341 -0.4609  0.3939 -0.4313
 1261SOL     OW 5116   0.886   1.194   2.416 -0.1298  0.0180 -0.1405
 1261SOL    HW2 5117   0.959   1.244   2.379  0.3948 -0.5234  0.1496
 1261SOL    HW3 5118   0.808   1.233   2.377  0.3171  0.5805 -0.4828
 1261SOL    MW4 5119   0.885   1.205   2.406 -0.0017  0.0207 -0.1473
 1262SOL     OW 5120   1.116   1.296   2.287 -0.0974 -0.4450 -0.4158
 1262SOL    HW2 5121   1.193   1.241   2.300 -0.7451 -1.6522 -1.5737
 1262SOL    HW3 5122   1.115   1.314   2.193 -0.1997  1.1066 -0.1275
 1262SOL    MW4 5123   1.126   1.291   2.276 -0.1965 -0.3996 -0.5305
 1263SOL     OW 5124   1.115   1.551   2.405 -0.2435 -0.1565  0.0818
 1263SOL    HW2 5125   1.053   1.596   2.348  0.2243  0.6351  0.1910
 1263SOL    HW3 5126   1.115   1.461   2.375  0.3372  0.3493 -1.4442
 1263SOL    MW4 5127   1.107   1.545   2.394 -0.1050  0.0148 -0.1054
 1264SOL     OW 5128   0.900   1.664   2.240 -0.0137 -0.3861 -0.1612
 1264SOL    HW2 5129   0.891   1.756   2.266 -0.4767 -0.2262 -0.8746
 1264SOL    HW3 5130   0.912   1.667   2.145 -1.7088 -1.1545 -0.4220
 1264SOL    MW4 5131   0.901   1.677   2.231 -0.2984 -0.4662 -0.2894
 1265SOL     OW 5132   0.865   1.942   2.337 -0.1309 -0.0834  0.2102
 1265SOL    HW2 5133   0.859   1.914   2.428  1.8290 -1.9455 -0.1906
 1265SOL    HW3 5134   0.952   1.982   2.331 -0.5859  0.7733 -0.6445
 1265SOL    MW4 5135   0.876   1.944   2.348  0.0676 -0.2159  0.0446
 1266SOL     OW 5136   1.131   2.063   2.279 -0.8952 -0.1684  0.2668
 1266SOL    HW2 5137   1.206   2.011   2.309  0.3331  1.7820  0.6883
 1266SOL    HW3 5138   1.132   2.053   2.184 -0.6411 -0.8746  0.3414
 1266SOL    MW4 5139   1.141   2.055   2.270 -0.6996 -0.0041  0.3321
 1267SOL     OW 5140   1.137   2.346   2.375  0.4091  0.3280 -0.3048
 1267SOL    HW2 5141   1.201   2.395   2.323 -1.1913  1.4342 -1.2653
 1267SOL    HW3 5142   1.154   2.255   2.353  0.7778  0.6893 -1.5736
 1267SOL    MW4 5143   1.148   2.341   2.366  0.2465  0.5217 -0.5989
 1268SOL     OW 5144   0.902   2.459   2.304  0.1733  0.3601 -0.3260
 1268SOL    HW2 5145   0.978   2.414   2.339 -0.5883 -0.6972 -0.0085
 1268SOL    HW3 5146   0.907   2.445   2.209  0.8419  1.0520 -0.4032
 1268SOL    MW4 5147   0.913   2.451   2.296  0.1611  0.3119 -0.2942
 1269SOL     OW 5148   0.893   2.734   2.348 -0.0909 -0.3432  0.3313
 1269SOL    HW2 5149   0.884   2.716   2.442 -0.6320 -0.5810  0.2342
 1269SOL    HW3 5150   0.895   2.647   2.307  0.1752 -0.2404  0.1216
 1269SOL    MW4 5151   0.892   2.720   2.355 -0.1272 -0.3610  0.2909
 1270SOL     OW 5152   1.132   2.834   2.250  0.4623 -0.0420 -0.4060
 1270SOL    HW2 5153   1.207   2.785   2.282 -0.2876 -2.1337 -1.7513
 1270SOL    HW3 5154   1.056   2.791   2.292 -0.0106  1.9721  0.8666
 1270SOL    MW4 5155   1.132   2.822   2.260  0.3010 -0.0520 -0.4156
 1271SOL     OW 5156   1.109   3.084   2.390  0.3303  0.0457 -0.3890
 1271SOL    HW2 5157   1.028   3.115   2.348  0.7011 -1.0312 -1.9437
 1271SOL    HW3 5158   1.121   2.995   2.355  0.5795 -0.9356  2.1365
 1271SOL    MW4 5159   1.100   3.076   2.380  0.4120 -0.2258 -0.2611
 1272SOL     OW 5160   0.877   3.187   2.274 -0.0604  0.0348 -0.1000
 1272SOL    HW2 5161   0.892   3.270   2.319 -0.7659 -0.3780  0.9221
 1272SOL    HW3 5162   0.792   3.156   2.307 -0.0149 -0.8715 -0.7998
 1272SOL    MW4 5163   0.868   3.194   2.284 -0.1475 -0.1392 -0.0572
 1273SOL     OW 5164   0.893   3.460   2.378  0.0703  0.9865 -0.0429
 1273SOL    HW2 5165   0.898   3.470   2.473  1.1909 -0.0430  0.0251
 1273SOL    HW3 5166   0.816   3.510   2.352 -0.9684  0.2400  1.5538
 1273SOL    MW4 5167   0.884   3.468   2.387  0.0812  0.7522  0.1769
 1274SOL     OW 5168   1.106   3.631   2.282  0.3492  0.0796  0.3956
 1274SOL    HW2 5169   1.185   3.588   2.314  0.5161  0.4273  0.4525
 1274SOL    HW3 5170   1.035   3.570   2.303  0.7160 -0.7230 -0.6114
 1274SOL    MW4 5171   1.107   3.617   2.289  0.4196  0.0196  0.2701
 1275SOL     OW 5172   1.101   3.882   2.367  0.5549  0.0738 -0.2962
 1275SOL    HW2 5173   1.175   3.925   2.323  1.8741 -0.2758  1.5057
 1275SOL    HW3 5174   1.107   3.791   2.339 -0.7888  0.5213 -2.1930
 1275SOL    MW4 5175   1.112   3.876   2.357  0.5516  0.0863 -0.3088
 1276SOL     OW 5176   0.888   4.035   2.325  0.1344  0.4765  0.1854
 1276SOL    HW2 5177   0.961   3.974   2.336 -0.8866 -0.9801 -0.9263
 1276SOL    HW3 5178   0.811   3.987   2.357 -0.2662  2.2502  2.0320
 1276SOL    MW4 5179   0.887   4.021   2.331 -0.0533  0.5183  0.2823
 1277SOL     OW 5180   0.913   4.303   2.380  0.2279  0.1279  0.4697
 1277SOL    HW2 5181   0.889   4.210   2.375  0.4907  0.0267  1.0131
 1277SOL    HW3 5182   0.846   4.348   2.330  0.1698 -0.3742  0.0961
 1277SOL    MW4 5183   0.901   4.296   2.373  0.2548  0.0477  0.4919
 1278SOL     OW 5184   1.133   4.378   2.236  0.2245  0.6414  0.0674
 1278SOL    HW2 5185   1.050   4.343   2.269  1.0324  0.3988  1.9064
 1278SOL    HW3 5186   1.149   4.456   2.289  1.1430  0.7334 -0.3312
 1278SOL    MW4 5187   1.124   4.383   2.247  0.4523  0.6218  0.2575
 1279SOL     OW 5188   1.594   4.625   2.362 -0.7744  0.0846  0.2848
 1279SOL    HW2 5189   1.660   4.689   2.336 -0.9997  0.5538  0.8604
 1279SOL    HW3 5190   1.511   4.663   2.333 -0.9719  0.3500  1.1672
 1279SOL    MW4 5191   1.592   4.639   2.355 -0.8303  0.1812  0.4773
 1280SOL     OW 5192   1.352   0.076   2.283  0.1979  0.4329 -0.2943
 1280SOL    HW2 5193   1.356   0.167   2.310 -0.6317  0.3499  0.1184
 1280SOL    HW3 5194   1.270   0.043   2.321  0.5711 -0.5205 -0.3037
 1280SOL    MW4 5195   1.342   0.083   2.292  0.1378  0.2961 -0.2410
 1281SOL     OW 5196   1.317   0.356   2.306  0.1958  0.1116 -0.0190
 1281SOL    HW2 5197   1.311   0.355   2.401 -0.5627 -0.5425 -0.0706
 1281SOL    HW3 5198   1.390   0.415   2.287 -0.0470  0.7261  0.9420
 1281SOL    MW4 5199   1.326   0.363   2.316  0.0637  0.1064  0.1009
 1282SOL     OW 5200   1.560   0.494   2.274 -0.0975 -0.3124  0.1504
 1282SOL    HW2 5201   1.639   0.449   2.303  0.2260  0.2737  0.2028
 1282SOL    HW3 5202   1.578   0.518   2.183 -0.0725  0.1233  0.2678
 1282SOL    MW4 5203   1.573   0.491   2.266 -0.0515 -0.1776  0.1729
 1283SOL     OW 5204   1.559   0.731   2.418 -0.8242  0.3596  0.4498
 1283SOL    HW2 5205   1.626   0.791   2.387 -1.9038  1.6792  0.6089
 1283SOL    HW3 5206   1.576   0.649   2.371  1.3724  0.4237  1.1016
 1283SOL    MW4 5207   1.570   0.728   2.408 -0.6769  0.5422  0.5567
 1284SOL     OW 5208   1.346   0.837   2.256  0.2694  0.3008  0.5517
 1284SOL    HW2 5209   1.410   0.799   2.316  0.4038 -0.4481 -0.0524
 1284SOL    HW3 5210   1.261   0.823   2.298  0.4650  0.9467  1.1708
 1284SOL    MW4 5211   1.343   0.830   2.269  0.3128  0.2872  0.5534
 1285SOL     OW 5212   1.339   1.109   2.348 -0.4544 -0.2113  0.2250
 1285SOL    HW2 5213   1.326   1.104   2.442  0.2194 -1.3208  0.2681
 1285SOL    HW3 5214   1.347   1.018   2.320 -2.5745  0.0041 -1.1915
 1285SOL    MW4 5215   1.338   1.097   2.356 -0.6452 -0.3293  0.0436
 1286SOL     OW 5216   1.559   1.261   2.268 -0.1551  0.4950  0.1573
 1286SOL    HW2 5217   1.483   1.214   2.302 -0.0837  0.2731  0.0100
 1286SOL    HW3 5218   1.634   1.210   2.299 -0.1065 -0.0462 -0.8341
 1286SOL    MW4 5219   1.559   1.248   2.277 -0.1392  0.3942  0.0072
 1287SOL     OW 5220   1.568   1.523   2.361 -0.2043  0.2004  0.3132
 1287SOL    HW2 5221   1.651   1.558   2.328 -0.7817  0.8514 -0.4652
 1287SOL    HW3 5222   1.559   1.438   2.319  0.9244 -0.6484  1.7622
 1287SOL    MW4 5223   1.578   1.516   2.351 -0.1316  0.1743  0.4017
 1288SOL     OW 5224   1.337   1.630   2.275  0.3234  0.3601 -0.2481
 1288SOL    HW2 5225   1.412   1.592   2.321 -0.4419 -2.0254 -0.8798
 1288SOL    HW3 5226   1.261   1.598   2.324 -0.4650 -1.5442 -2.5990
 1288SOL    MW4 5227   1.337   1.621   2.288  0.1185 -0.2060 -0.6416
 1289SOL     OW 5228   1.336   1.898   2.375 -0.1342 -0.0015  0.0992
 1289SOL    HW2 5229   1.413   1.943   2.341  0.5996 -0.4097  1.1890
 1289SOL    HW3 5230   1.329   1.819   2.321  0.3812 -0.1056  0.1853
 1289SOL    MW4 5231   1.345   1.893   2.363  0.0306 -0.0690  0.2544
 1290SOL     OW 5232   1.544   2.037   2.243  0.1190  0.2429  0.2603
 1290SOL    HW2 5233   1.616   1.994   2.289  0.6592 -0.7231 -1.4491
 1290SOL    HW3 5234   1.564   2.025   2.151 -2.1004  0.2062 -0.2457
 1290SOL    MW4 5235   1.556   2.030   2.237 -0.1025  0.1104 -0.0322
 1291SOL     OW 5236   1.536   2.305   2.316  0.1189 -0.5212  0.4168
 1291SOL    HW2 5237   1.535   2.305   2.412 -0.0437 -1.6332  0.4279
 1291SOL    HW3 5238   1.537   2.212   2.293  1.2161 -0.2548 -0.6529
 1291SOL    MW4 5239   1.536   2.293   2.326  0.2422 -0.6330  0.2770
 1292SOL     OW 5240   1.338   2.462   2.231 -0.0205 -0.2624  0.5653
 1292SOL    HW2 5241   1.405   2.400   2.260 -1.6059 -0.9620  2.8802
 1292SOL    HW3 5242   1.354   2.473   2.137  1.6578 -2.4618  0.5597
 1292SOL    MW4 5243   1.349   2.455   2.222 -0.0081 -0.6452  0.8698
 1293SOL     OW 5244   1.347   2.698   2.376 -0.2017  0.4821 -0.5902
 1293SOL    HW2 5245   1.428   2.741   2.347  0.5163  0.1033  0.8091
 1293SOL    HW3 5246   1.352   2.610   2.337  0.4979  0.1601  0.1936
 1293SOL    MW4 5247   1.359   2.692   2.367 -0.0148  0.3898 -0.3018
 1294SOL     OW 5248   1.571   2.833   2.270 -0.4321 -0.4824 -0.2708
 1294SOL    HW2 5249   1.538   2.918   2.299 -1.7840 -1.7944  2.1895
 1294SOL    HW3 5250   1.572   2.839   2.174 -1.6389  1.8831 -0.1668
 1294SOL    MW4 5251   1.567   2.845   2.261 -0.7697 -0.3433  0.0677
 1295SOL     OW 5252   1.535   3.107   2.387 -0.0898 -0.2292 -0.1718
 1295SOL    HW2 5253   1.548   3.115   2.482  0.4612 -0.1647 -0.2528
 1295SOL    HW3 5254   1.453   3.154   2.370 -0.0400  0.0040  0.2295
 1295SOL    MW4 5255   1.526   3.114   2.398 -0.0106 -0.1895 -0.1295
 1296SOL     OW 5256   1.304   3.235   2.283  0.1870 -0.4591  0.0399
 1296SOL    HW2 5257   1.230   3.182   2.315 -1.2815  1.1896 -0.5493
 1296SOL    HW3 5258   1.301   3.226   2.188 -1.0953  1.9387 -0.1893
 1296SOL    MW4 5259   1.294   3.227   2.275 -0.1761  0.0746 -0.0682
 1297SOL     OW 5260   1.348   3.513   2.337  0.5819  0.1027 -0.5204
 1297SOL    HW2 5261   1.343   3.492   2.430 -2.1671  1.2613 -0.3516
 1297SOL    HW3 5262   1.313   3.436   2.293  0.2500  0.2468 -0.5054
 1297SOL    MW4 5263   1.343   3.501   2.343  0.1754  0.2744 -0.4961
 1298SOL     OW 5264   1.609   3.587   2.268 -0.1248 -0.0789  0.0251
 1298SOL    HW2 5265   1.587   3.679   2.284 -0.3143  0.0190 -0.7969
 1298SOL    HW3 5266   1.530   3.539   2.292 -0.4262  0.0714 -0.6866
 1298SOL    MW4 5267   1.596   3.593   2.273 -0.1897 -0.0460 -0.1774
 1299SOL     OW 5268   1.561   3.850   2.342  0.3708  0.1390  0.1091
 1299SOL    HW2 5269   1.559   3.857   2.438  2.3482 -1.1490  0.2819
 1299SOL    HW3 5270   1.641   3.896   2.317  1.4224 -2.0778 -0.6561
 1299SOL    MW4 5271   1.571   3.857   2.351  0.7704 -0.3233  0.0310
 1300SOL     OW 5272   1.333   3.965   2.257  0.1451 -0.1678  0.0181
 1300SOL    HW2 5273   1.415   3.929   2.293  0.6312  0.1629 -0.7425
 1300SOL    HW3 5274   1.355   3.988   2.167 -0.7762 -0.0038 -0.1666
 1300SOL    MW4 5275   1.347   3.963   2.250  0.0876 -0.1025 -0.1066
 1301SOL     OW 5276   1.326   4.242   2.384 -0.3576  0.3372 -0.5426
 1301SOL    HW2 5277   1.336   4.150   2.356  0.5731  0.1509  0.3990
 1301SOL    HW3 5278   1.266   4.279   2.319 -0.3770 -0.8135 -1.2118
 1301SOL    MW4 5279   1.319   4.235   2.372 -0.2375  0.1612 -0.5069
 1302SOL     OW 5280   1.569   4.364   2.282  0.0490  0.3820  0.3217
 1302SOL    HW2 5281   1.484   4.322   2.298  1.1548 -1.8690  0.4463
 1302SOL    HW3 5282   1.558   4.453   2.316 -2.6928  0.5644 -0.9170
 1302SOL    MW4 5283   1.556   4.370   2.289 -0.1669  0.1087  0.1748
 1303SOL     OW 5284   2.010   4.662   2.423 -0.1987 -0.1363 -0.2748
 1303SOL    HW2 5285   2.084   4.712   2.388 -0.3732  1.4022  1.4558
 1303SOL    HW3 5286   2.036   4.571   2.414  1.7035  0.3716 -0.1703
 1303SOL    MW4 5287   2.023   4.657   2.417  0.0293  0.1340 -0.0329
 1304SOL     OW 5288   1.799   0.117   2.273  0.2640 -0.1312 -0.1726
 1304SOL    HW2 5289   1.815   0.207   2.303 -1.2086 -0.5178  1.8836
 1304SOL    HW3 5290   1.863   0.065   2.322  1.3681 -0.1675 -1.6432
 1304SOL    MW4 5291   1.810   0.122   2.284  0.2155 -0.1870 -0.0954
 1305SOL     OW 5292   1.802   0.371   2.363  0.2087  0.1122 -0.1649
 1305SOL    HW2 5293   1.791   0.364   2.458  0.2044 -2.9874 -0.3530
 1305SOL    HW3 5294   1.890   0.408   2.352 -0.1540  1.3661  1.0226
 1305SOL    MW4 5295   1.812   0.375   2.374  0.1603 -0.1313 -0.0331
 1306SOL     OW 5296   2.048   0.507   2.279  0.5850  0.2560  0.2153
 1306SOL    HW2 5297   2.066   0.595   2.311  0.8457  0.5625 -0.7583
 1306SOL    HW3 5298   2.034   0.518   2.185  1.3554 -0.8439 -0.0369
 1306SOL    MW4 5299   2.048   0.520   2.271  0.7210  0.1513  0.0536
 1307SOL     OW 5300   2.037   0.776   2.394  0.3214 -0.7288 -0.4469
 1307SOL    HW2 5301   2.107   0.824   2.351 -0.1039  0.1573 -0.1508
 1307SOL    HW3 5302   1.956   0.811   2.357 -0.0172 -0.6077  0.3899
 1307SOL    MW4 5303   2.035   0.787   2.384  0.2205 -0.5959 -0.2975
 1308SOL     OW 5304   1.778   0.893   2.305 -0.0363 -0.5503  0.4287
 1308SOL    HW2 5305   1.805   0.984   2.317 -2.2892  0.0048  1.4658
 1308SOL    HW3 5306   1.775   0.881   2.210 -3.8236  1.7618  0.1723
 1308SOL    MW4 5307   1.781   0.903   2.294 -0.8333 -0.1720  0.5319
 1309SOL     OW 5308   1.819   1.175   2.344  0.3732 -0.3390 -0.1996
 1309SOL    HW2 5309   1.900   1.218   2.314 -0.4054  0.7148 -0.8053
 1309SOL    HW3 5310   1.824   1.179   2.440  1.5817 -1.3039 -0.2106
 1309SOL    MW4 5311   1.831   1.181   2.353  0.4300 -0.3273 -0.2809
 1310SOL     OW 5312   2.064   1.313   2.288 -0.2472  0.1711  0.0235
 1310SOL    HW2 5313   2.039   1.399   2.321  0.3065 -0.0890  1.1384
 1310SOL    HW3 5314   2.055   1.320   2.193  1.6908  2.0637 -0.0484
 1310SOL    MW4 5315   2.060   1.325   2.280  0.0818  0.3866  0.1612
 1311SOL     OW 5316   2.011   1.564   2.360  0.0543 -0.0252  0.3350
 1311SOL    HW2 5317   2.012   1.573   2.455  0.3300 -0.8700  0.4137
 1311SOL    HW3 5318   1.933   1.613   2.332 -1.6269 -2.0977  1.2387
 1311SOL    MW4 5319   2.001   1.572   2.369 -0.1309 -0.4102  0.4647
 1312SOL     OW 5320   1.788   1.693   2.288  0.7438 -0.0815 -0.1638
 1312SOL    HW2 5321   1.791   1.780   2.329  0.9532 -0.8406  1.4842
 1312SOL    HW3 5322   1.805   1.710   2.195  0.5545  1.6597  0.0939
 1312SOL    MW4 5323   1.791   1.707   2.281  0.7466  0.0480  0.0877
 1313SOL     OW 5324   1.782   1.966   2.389  0.2962 -0.3293  0.5433
 1313SOL    HW2 5325   1.748   1.959   2.478 -0.7276  0.8874  0.2673
 1313SOL    HW3 5326   1.863   2.016   2.398  1.1839 -1.8429  1.0132
 1313SOL    MW4 5327   1.788   1.972   2.402  0.2784 -0.3685  0.5689
 1314SOL     OW 5328   2.054   2.101   2.322  0.1970  0.3476  0.1828
 1314SOL    HW2 5329   2.127   2.047   2.354 -1.1129 -0.6834  1.4754
 1314SOL    HW3 5330   2.061   2.095   2.226  0.6496 -1.3369  0.3044
 1314SOL    MW4 5331   2.065   2.093   2.313  0.0839 -0.0107  0.3695
 1315SOL     OW 5332   1.972   2.356   2.418  0.3201  0.0748 -0.3388
 1315SOL    HW2 5333   1.976   2.351   2.514  0.7872  0.4528 -0.3361
 1315SOL    HW3 5334   1.986   2.265   2.389  0.5285  0.0164 -0.0606
 1315SOL    MW4 5335   1.974   2.343   2.427  0.4092  0.1168 -0.3018
 1316SOL     OW 5336   1.769   2.431   2.257  0.1475  0.0452 -0.4117
 1316SOL    HW2 5337   1.840   2.402   2.314  0.2302 -1.8809 -1.4421
 1316SOL    HW3 5338   1.694   2.379   2.284 -0.4339  0.8541 -0.4601
 1316SOL    MW4 5339   1.769   2.420   2.268  0.0815 -0.1023 -0.5538
 1317SOL     OW 5340   1.771   2.674   2.385 -0.4591 -0.3638  0.1007
 1317SOL    HW2 5341   1.773   2.591   2.337 -0.9864 -0.3567  0.0650
 1317SOL    HW3 5342   1.692   2.718   2.352  0.1205  0.3896 -0.2890
 1317SOL    MW4 5343   1.761   2.669   2.374 -0.4524 -0.2635  0.0443
 1318SOL     OW 5344   1.975   2.841   2.291  0.3469  0.6708  0.6271
 1318SOL    HW2 5345   2.052   2.794   2.321  0.9627 -0.0543 -1.9531
 1318SOL    HW3 5346   1.901   2.789   2.322  0.8672  1.3554  3.0932
 1318SOL    MW4 5347   1.975   2.828   2.299  0.4967  0.6657  0.6123
 1319SOL     OW 5348   2.009   3.111   2.396  0.1340  0.5637  0.2457
 1319SOL    HW2 5349   2.084   3.157   2.358 -0.2387  0.6752 -0.3710
 1319SOL    HW3 5350   2.016   3.022   2.362  1.0209  0.0782  1.6780
 1319SOL    MW4 5351   2.019   3.105   2.386  0.2019  0.5140  0.3531
 1320SOL     OW 5352   1.773   3.223   2.279  0.2687 -0.1630 -0.8130
 1320SOL    HW2 5353   1.837   3.171   2.328  0.1226 -0.1484 -0.6083
 1320SOL    HW3 5354   1.688   3.196   2.313  0.2666  1.4393  0.5379
 1320SOL    MW4 5355   1.771   3.213   2.290  0.2491  0.0503 -0.6077
 1321SOL     OW 5356   1.817   3.478   2.399 -0.4173  0.1306 -0.0606
 1321SOL    HW2 5357   1.800   3.391   2.363 -1.3630  0.7339 -1.0734
 1321SOL    HW3 5358   1.749   3.534   2.362 -0.6827  1.0207  1.6870
 1321SOL    MW4 5359   1.806   3.474   2.390 -0.5772  0.3276  0.0362
 1322SOL     OW 5360   2.062   3.610   2.314 -0.1883  0.0361  0.3937
 1322SOL    HW2 5361   1.998   3.554   2.357  1.0350 -0.4859  1.5653
 1322SOL    HW3 5362   2.045   3.597   2.221  0.1362 -2.3723  0.6304
 1322SOL    MW4 5363   2.051   3.601   2.307  0.0157 -0.3505  0.5796
 1323SOL     OW 5364   1.999   3.872   2.349  0.0106  0.0020  0.5298
 1323SOL    HW2 5365   1.987   3.873   2.444  1.5965 -0.0115  0.7422
 1323SOL    HW3 5366   2.011   3.780   2.327 -0.8815 -0.0481  0.2426
 1323SOL    MW4 5367   1.999   3.860   2.359  0.1022 -0.0067  0.5200
 1324SOL     OW 5368   1.772   3.983   2.254 -0.1318  0.0889 -0.1408
 1324SOL    HW2 5369   1.847   3.930   2.281 -1.1354 -1.1232  0.3007
 1324SOL    HW3 5370   1.773   3.978   2.158 -0.6175 -1.3087 -0.0860
 1324SOL    MW4 5371   1.782   3.976   2.245 -0.3285 -0.2556 -0.0751
 1325SOL     OW 5372   1.815   4.270   2.357  0.0012 -0.2406 -0.1929
 1325SOL    HW2 5373   1.812   4.183   2.317 -0.4284 -0.8011  1.0317
 1325SOL    HW3 5374   1.734   4.313   2.329  0.7076  0.1639 -1.6568
 1325SOL    MW4 5375   1.804   4.264   2.348  0.0378 -0.2608 -0.2244
 1326SOL     OW 5376   2.035   4.422   2.288  0.3245  0.2186 -0.4881
 1326SOL    HW2 5377   1.958   4.366   2.284 -0.7490  1.6972 -0.8886
 1326SOL    HW3 5378   2.047   4.452   2.198  0.0524  1.7519 -0.0175
 1326SOL    MW4 5379   2.026   4.419   2.275  0.1469  0.6161 -0.4787
 1327SOL     OW 5380   2.493   4.635   2.368  0.1367  0.3686  0.3554
 1327SOL    HW2 5381   2.575   4.677   2.340  0.0563 -0.0488 -0.5319
 1327SOL    HW3 5382   2.494   4.550   2.325 -1.3571  0.8646 -0.7063
 1327SOL    MW4 5383   2.504   4.629   2.358 -0.0708  0.3786  0.0982
 1328SOL     OW 5384   2.244   0.091   2.297 -0.7794 -0.3786  0.0740
 1328SOL    HW2 5385   2.244   0.180   2.330  2.1243  0.3216 -1.6083
 1328SOL    HW3 5386   2.322   0.051   2.335 -0.5447 -1.3150 -1.3341
 1328SOL    MW4 5387   2.255   0.097   2.306 -0.3653 -0.4097 -0.3338
 1329SOL     OW 5388   2.251   0.360   2.358  0.3286 -0.1963  0.1376
 1329SOL    HW2 5389   2.332   0.395   2.320  0.2808  0.4420  0.6005
 1329SOL    HW3 5390   2.183   0.422   2.332  0.2466  0.0850  0.9885
 1329SOL    MW4 5391   2.253   0.373   2.350  0.3114 -0.0749  0.3111
 1330SOL     OW 5392   2.460   0.506   2.257  0.1326 -0.5434  0.3006
 1330SOL    HW2 5393   2.548   0.471   2.269 -0.1828 -1.2820  0.4925
 1330SOL    HW3 5394   2.447   0.506   2.162 -0.0425 -1.3952  0.3216
 1330SOL    MW4 5395   2.470   0.501   2.246  0.0679 -0.7533  0.3285
 1331SOL     OW 5396   2.452   0.773   2.348  0.2768 -0.8092 -0.6093
 1331SOL    HW2 5397   2.538   0.804   2.320  1.3909 -1.8200  1.5047
 1331SOL    HW3 5398   2.451   0.680   2.324  0.2804 -1.0906  0.4365
 1331SOL    MW4 5399   2.463   0.764   2.341  0.4244 -0.9797 -0.1924
 1332SOL     OW 5400   2.239   0.922   2.272  0.1929 -0.1398 -0.2121
 1332SOL    HW2 5401   2.235   0.995   2.334 -1.1906  0.4886 -1.0154
 1332SOL    HW3 5402   2.311   0.868   2.303  0.2376  0.7605  1.2956
 1332SOL    MW4 5403   2.248   0.925   2.284  0.0162  0.0619 -0.1194
 1333SOL     OW 5404   2.269   1.171   2.421 -0.1949  0.4066 -0.0629
 1333SOL    HW2 5405   2.356   1.183   2.381 -0.1464 -0.3272 -0.1942
 1333SOL    HW3 5406   2.214   1.238   2.380  0.4733  1.3294  0.5321
 1333SOL    MW4 5407   2.273   1.182   2.410 -0.1001  0.4315 -0.0019
 1334SOL     OW 5408   2.504   1.229   2.276  0.3378 -0.2491  0.3391
 1334SOL    HW2 5409   2.591   1.198   2.301  0.8163 -0.2823 -1.3168
 1334SOL    HW3 5410   2.504   1.322   2.298  0.0307 -0.7032  2.3143
 1334SOL    MW4 5411   2.515   1.238   2.282  0.3605 -0.3133  0.3812
 1335SOL     OW 5412   2.468   1.532   2.399 -0.0487 -0.6841  0.2565
 1335SOL    HW2 5413   2.469   1.547   2.493  1.5531 -0.7569  0.2671
 1335SOL    HW3 5414   2.557   1.552   2.371 -0.9726  1.0899 -1.5342
 1335SOL    MW4 5415   2.480   1.537   2.408  0.0405 -0.4597  0.0215
 1336SOL     OW 5416   2.250   1.669   2.298  0.0705 -0.2506 -0.0159
 1336SOL    HW2 5417   2.319   1.611   2.329  0.6224  0.2758 -0.2603
 1336SOL    HW3 5418   2.168   1.625   2.324  0.5114  0.7018  3.1956
 1336SOL    MW4 5419   2.248   1.656   2.305  0.2012 -0.0554  0.3757
 1337SOL     OW 5420   2.243   1.929   2.390  0.1022  0.0411 -0.5242
 1337SOL    HW2 5421   2.330   1.964   2.369 -0.1356  0.9286 -0.0439
 1337SOL    HW3 5422   2.239   1.846   2.343  1.3854 -0.2198 -0.2046
 1337SOL    MW4 5423   2.254   1.923   2.381  0.2401  0.1236 -0.4187
 1338SOL     OW 5424   2.482   2.057   2.293 -0.0039  0.4672 -0.2014
 1338SOL    HW2 5425   2.488   2.148   2.323  0.9781  0.4740 -0.3873
 1338SOL    HW3 5426   2.565   2.017   2.322  0.5994  0.2595 -2.1646
 1338SOL    MW4 5427   2.494   2.064   2.301  0.2053  0.4408 -0.4849
 1339SOL     OW 5428   2.439   2.317   2.398 -0.4786 -0.1185  0.1619
 1339SOL    HW2 5429   2.517   2.361   2.365  0.4505 -1.1337  0.9841
 1339SOL    HW3 5430   2.366   2.368   2.362  0.5615  1.3907  0.1309
 1339SOL    MW4 5431   2.440   2.330   2.389 -0.2189 -0.0532  0.2663
 1340SOL     OW 5432   2.213   2.461   2.323  0.1714 -0.5891  0.0086
 1340SOL    HW2 5433   2.135   2.421   2.361  0.4481 -1.8359 -0.7057
 1340SOL    HW3 5434   2.202   2.554   2.338 -1.4008 -0.7664  0.0236
 1340SOL    MW4 5435   2.202   2.468   2.330  0.0005 -0.7768 -0.0837
 1341SOL     OW 5436   2.196   2.724   2.372 -0.4501  0.1067  0.6444
 1341SOL    HW2 5437   2.204   2.714   2.467 -0.1375  0.6668  0.6794
 1341SOL    HW3 5438   2.283   2.750   2.343  0.0173 -2.0690 -0.0697
 1341SOL    MW4 5439   2.208   2.726   2.381 -0.3471 -0.1066  0.5548
 1342SOL     OW 5440   2.450   2.797   2.282 -0.0862  0.0739  0.0896
 1342SOL    HW2 5441   2.534   2.764   2.313  1.3827  1.4119 -2.3273
 1342SOL    HW3 5442   2.460   2.802   2.187 -2.9171  0.2339 -0.2312
 1342SOL    MW4 5443   2.463   2.794   2.273 -0.2658  0.2713 -0.2716
 1343SOL     OW 5444   2.423   3.043   2.413  0.0531 -0.2556 -0.4879
 1343SOL    HW2 5445   2.492   3.103   2.383  0.5555 -0.7746 -0.3943
 1343SOL    HW3 5446   2.447   2.959   2.374  0.0727 -0.6765  0.4286
 1343SOL    MW4 5447   2.436   3.040   2.404  0.1221 -0.3796 -0.3548
 1344SOL     OW 5448   2.248   3.186   2.278 -0.0954  0.0305 -0.4434
 1344SOL    HW2 5449   2.273   3.271   2.313 -0.2073 -0.6431  1.3382
 1344SOL    HW3 5450   2.301   3.123   2.327 -1.9938 -1.0884  0.2580
 1344SOL    MW4 5451   2.258   3.189   2.289 -0.3605 -0.2060 -0.1156
 1345SOL     OW 5452   2.270   3.447   2.365  0.2012 -0.2562 -0.0063
 1345SOL    HW2 5453   2.267   3.454   2.460  0.7592 -0.1637  0.0022
 1345SOL    HW3 5454   2.193   3.496   2.335  1.2190  1.5575  0.2968
 1345SOL    MW4 5455   2.259   3.455   2.374  0.4089 -0.0045  0.0348
 1346SOL     OW 5456   2.489   3.599   2.269  0.0305  0.7254  0.2085
 1346SOL    HW2 5457   2.490   3.685   2.311 -0.8748  1.5154 -1.4002
 1346SOL    HW3 5458   2.412   3.555   2.306  0.2173  0.7682  0.6599
 1346SOL    MW4 5459   2.479   3.605   2.280 -0.0646  0.8352  0.0556
 1347SOL     OW 5460   2.500   3.857   2.362  0.0805 -0.6289  0.0374
 1347SOL    HW2 5461   2.493   3.860   2.457 -0.6199 -0.3031 -0.0199
 1347SOL    HW3 5462   2.421   3.901   2.331  0.4878 -0.4032 -0.6912
 1347SOL    MW4 5463   2.488   3.863   2.370  0.0420 -0.5560 -0.0663
 1348SOL     OW 5464   2.269   3.976   2.276  0.3397  0.1471 -0.2520
 1348SOL    HW2 5465   2.252   4.067   2.300  2.0356  0.4576 -0.1686
 1348SOL    HW3 5466   2.184   3.932   2.286 -0.1797  1.4069  1.1003
 1348SOL    MW4 5467   2.256   3.982   2.281  0.4952  0.3543 -0.0627
 1349SOL     OW 5468   2.228   4.237   2.365  0.4468  0.0276  0.2590
 1349SOL    HW2 5469   2.227   4.232   2.461 -0.0879 -1.7534  0.1772
 1349SOL    HW3 5470   2.155   4.295   2.343  1.0435  1.0679  0.9392
 1349SOL    MW4 5471   2.219   4.244   2.375  0.4551 -0.0701  0.3378
 1350SOL     OW 5472   2.442   4.386   2.267  0.2359 -0.0454 -0.3058
 1350SOL    HW2 5473   2.511   4.324   2.289  0.1883  0.0557  0.1290
 1350SOL    HW3 5474   2.366   4.356   2.316 -0.1464 -0.4035 -1.1192
 1350SOL    MW4 5475   2.441   4.374   2.276  0.1791 -0.0792 -0.3560
 1351SOL     OW 5476   2.887   4.633   2.370  0.2610  0.5139  0.3414
 1351SOL    HW2 5477   2.968   4.678   2.347  0.3472  0.8067  1.2263
 1351SOL    HW3 5478   2.903   4.542   2.345  0.5250  0.7346 -0.3257
 1351SOL    MW4 5479   2.900   4.627   2.364  0.3073  0.5817  0.3703
 1352SOL     OW 5480   2.695   0.114   2.250  0.3404  0.1581 -0.3001
 1352SOL    HW2 5481   2.691   0.201   2.288 -0.0428  0.5816 -1.2941
 1352SOL    HW3 5482   2.777   0.077   2.283  0.1218  0.5899  0.7553
 1352SOL    MW4 5483   2.705   0.120   2.259  0.2608  0.2709 -0.2921
 1353SOL     OW 5484   2.691   0.371   2.338 -0.0708 -0.3479 -0.0151
 1353SOL    HW2 5485   2.676   0.354   2.431  0.6410 -0.6839  0.0410
 1353SOL    HW3 5486   2.781   0.403   2.334  0.2193 -1.2335 -0.6980
 1353SOL    MW4 5487   2.701   0.373   2.350  0.0615 -0.5091 -0.0978
 1354SOL     OW 5488   2.942   0.484   2.276  0.0076 -0.4877 -0.1484
 1354SOL    HW2 5489   2.952   0.574   2.309  0.7929 -0.7354  0.2984
 1354SOL    HW3 5490   2.945   0.494   2.180 -0.0981 -0.0210 -0.1079
 1354SOL    MW4 5491   2.944   0.497   2.267  0.0973 -0.4588 -0.0842
 1355SOL     OW 5492   2.944   0.744   2.384 -0.1834  0.0275 -0.3258
 1355SOL    HW2 5493   2.915   0.752   2.475 -0.0017 -0.6407 -0.2052
 1355SOL    HW3 5494   2.868   0.770   2.332 -0.4882 -0.1866  0.0086
 1355SOL    MW4 5495   2.930   0.749   2.389 -0.1998 -0.0890 -0.2658
 1356SOL     OW 5496   2.717   0.829   2.269 -0.4333  0.7361  0.5451
 1356SOL    HW2 5497   2.725   0.915   2.309  1.8006  0.0572  1.6657
 1356SOL    HW3 5498   2.719   0.846   2.175  3.0634  1.7284  0.7232
 1356SOL    MW4 5499   2.718   0.842   2.262  0.3226  0.7775  0.7167
 1357SOL     OW 5500   2.736   1.104   2.368 -0.0106  0.6526  0.3557
 1357SOL    HW2 5501   2.718   1.116   2.461  1.3424  1.4382  0.5341
 1357SOL    HW3 5502   2.820   1.149   2.354 -0.1511  0.4537 -1.2137
 1357SOL    MW4 5503   2.745   1.112   2.378  0.1495  0.7300  0.1721
 1358SOL     OW 5504   2.955   1.241   2.336  0.0437 -0.4704  0.4474
 1358SOL    HW2 5505   3.033   1.191   2.359 -0.2387 -1.5466 -0.8724
 1358SOL    HW3 5506   2.965   1.258   2.242 -1.0079 -0.0650  0.4030
 1358SOL    MW4 5507   2.967   1.237   2.326 -0.1321 -0.5590  0.2675
 1359SOL     OW 5508   2.946   1.506   2.421 -0.2359 -0.0007  0.6332
 1359SOL    HW2 5509   2.933   1.528   2.513 -0.2134 -0.9646  0.8709
 1359SOL    HW3 5510   2.933   1.411   2.417  0.8646 -0.1336 -0.1473
 1359SOL    MW4 5511   2.943   1.497   2.433 -0.0875 -0.1453  0.5615
 1360SOL     OW 5512   2.703   1.594   2.304  0.1567  0.1793 -0.6063
 1360SOL    HW2 5513   2.788   1.554   2.323  0.0704  0.1399 -0.3114
 1360SOL    HW3 5514   2.703   1.606   2.208  0.0979 -0.7028 -0.7148
 1360SOL    MW4 5515   2.714   1.591   2.294  0.1380  0.0577 -0.5815
 1361SOL     OW 5516   2.685   1.867   2.372  0.3815  0.3299 -0.3762
 1361SOL    HW2 5517   2.677   1.888   2.465 -0.5926 -0.5565 -0.2427
 1361SOL    HW3 5518   2.672   1.772   2.368 -0.5737  0.4978 -1.5193
 1361SOL    MW4 5519   2.682   1.857   2.384  0.1268  0.2351 -0.5095
 1362SOL     OW 5520   2.908   1.970   2.260  0.3424 -0.5150  0.0503
 1362SOL    HW2 5521   2.972   1.922   2.312 -0.3159 -0.0225  1.3306
 1362SOL    HW3 5522   2.828   1.917   2.267 -0.1709  0.3682  0.8196
 1362SOL    MW4 5523   2.906   1.956   2.268  0.1881 -0.3333  0.3204
 1363SOL     OW 5524   2.872   2.248   2.357 -0.1569  0.1603 -0.0463
 1363SOL    HW2 5525   2.878   2.245   2.452 -1.3750  1.6679  0.0994
 1363SOL    HW3 5526   2.881   2.157   2.329 -0.4097 -0.3616  1.5505
 1363SOL    MW4 5527   2.874   2.236   2.366 -0.3510  0.2902  0.1833
 1364SOL     OW 5528   2.666   2.439   2.261  0.1119  0.4193 -0.1003
 1364SOL    HW2 5529   2.731   2.380   2.300 -0.3009  0.4746  0.6955
 1364SOL    HW3 5530   2.676   2.427   2.167  2.3870  1.6268 -0.0451
 1364SOL    MW4 5531   2.676   2.430   2.254  0.3576  0.5860  0.0119
 1365SOL     OW 5532   2.683   2.685   2.384 -0.2423  0.0862  0.4357
 1365SOL    HW2 5533   2.763   2.730   2.356 -0.9616  1.4194  0.4440
 1365SOL    HW3 5534   2.684   2.602   2.337  1.3853 -0.1195  0.8184
 1365SOL    MW4 5535   2.694   2.680   2.374 -0.1228  0.2351  0.4873
 1366SOL     OW 5536   2.907   2.813   2.278 -0.1935 -0.1789  0.9143
 1366SOL    HW2 5537   2.915   2.895   2.327 -0.2152  0.3591  0.0332
 1366SOL    HW3 5538   2.973   2.755   2.316  0.8851  0.7775  0.4985
 1366SOL    MW4 5539   2.916   2.816   2.289 -0.0541  0.0184  0.7432
 1367SOL     OW 5540   2.887   3.061   2.389  0.0670  0.1933 -0.5033
 1367SOL    HW2 5541   2.808   3.105   2.357 -0.8355 -0.6191  0.5676
 1367SOL    HW3 5542   2.880   3.066   2.485  1.8450  1.0394 -0.3823
 1367SOL    MW4 5543   2.876   3.067   2.398  0.1826  0.1981 -0.3462
 1368SOL     OW 5544   2.647   3.189   2.308  0.6222 -0.0678  0.1433
 1368SOL    HW2 5545   2.670   3.276   2.341  0.4465 -0.1863  0.5889
 1368SOL    HW3 5546   2.633   3.201   2.215  0.1410  0.4773  0.2839
 1368SOL    MW4 5547   2.649   3.202   2.300  0.5357 -0.0117  0.2205
 1369SOL     OW 5548   2.707   3.452   2.366 -0.0971 -0.5054 -0.0092
 1369SOL    HW2 5549   2.712   3.473   2.459  0.2045  1.2861 -0.4067
 1369SOL    HW3 5550   2.623   3.487   2.337  0.3329  0.0429 -0.6445
 1369SOL    MW4 5551   2.697   3.460   2.374 -0.0005 -0.1967 -0.1457
 1370SOL     OW 5552   2.948   3.567   2.260 -0.1494 -0.3168  0.2427
 1370SOL    HW2 5553   2.861   3.534   2.286 -1.4736  1.2331 -2.0833
 1370SOL    HW3 5554   2.948   3.658   2.288  1.5251 -0.7919  1.9576
 1370SOL    MW4 5555   2.936   3.574   2.267 -0.1032 -0.1750  0.1621
 1371SOL     OW 5556   2.956   3.841   2.346  0.1357  0.0873 -0.0813
 1371SOL    HW2 5557   2.946   3.845   2.441 -0.3168  0.2939 -0.1356
 1371SOL    HW3 5558   2.882   3.893   2.312  1.1746  1.3217 -0.5034
 1371SOL    MW4 5559   2.945   3.849   2.354  0.2129  0.2775 -0.1442
 1372SOL     OW 5560   2.720   3.989   2.266  0.1629 -0.6382 -0.3122
 1372SOL    HW2 5561   2.648   3.939   2.304 -0.0164  0.4027  0.7437
 1372SOL    HW3 5562   2.701   3.991   2.172 -0.3156 -1.7450 -0.2447
 1372SOL    MW4 5563   2.708   3.983   2.258  0.0763 -0.6468 -0.1640
 1373SOL     OW 5564   2.686   4.258   2.317 -0.2806  0.2635 -0.3632
 1373SOL    HW2 5565   2.685   4.249   2.413 -1.0910  0.5366 -0.3408
 1373SOL    HW3 5566   2.698   4.168   2.285 -0.3266  0.1292 -0.0095
 1373SOL    MW4 5567   2.687   4.245   2.326 -0.3939  0.2818 -0.3133
 1374SOL     OW 5568   2.922   4.372   2.262  0.0613  0.1056 -0.5569
 1374SOL    HW2 5569   2.990   4.308   2.285  1.1107  1.6388  0.7776
 1374SOL    HW3 5570   2.840   4.331   2.291  0.6117 -1.0083 -0.5284
 1374SOL    MW4 5571   2.920   4.358   2.269  0.2725  0.1607 -0.3772
 1375SOL     OW 5572   3.313   4.617   2.357  0.0694 -0.2190  0.0842
 1375SOL    HW2 5573   3.310   4.627   2.452 -0.7709 -0.9432  0.1436
 1375SOL    HW3 5574   3.389   4.668   2.329 -0.3756  0.9680  1.0159
 1375SOL    MW4 5575   3.323   4.625   2.366 -0.1001 -0.1583  0.2151
 1376SOL     OW 5576   3.104   0.123   2.282 -0.0162  0.3930  0.1753
 1376SOL    HW2 5577   3.111   0.212   2.317 -0.2549  1.2962 -1.9408
 1376SOL    HW3 5578   3.188   0.083   2.300  0.9894  1.9028 -0.9950
 1376SOL    MW4 5579   3.116   0.130   2.289  0.0851  0.7114 -0.2582
 1377SOL     OW 5580   3.158   0.360   2.435  0.1527 -0.1906 -0.2071
 1377SOL    HW2 5581   3.236   0.388   2.387  0.1559  1.7570  0.8613
 1377SOL    HW3 5582   3.091   0.425   2.411 -0.2901 -0.1321  1.1335
 1377SOL    MW4 5583   3.159   0.373   2.426  0.0947  0.0741  0.1109
 1378SOL     OW 5584   3.364   0.462   2.300 -0.4407  0.0776 -0.6151
 1378SOL    HW2 5585   3.443   0.408   2.311  0.3191  1.2680 -0.2293
 1378SOL    HW3 5586   3.359   0.477   2.206 -0.3544 -0.2111 -0.6675
 1378SOL    MW4 5587   3.374   0.457   2.289 -0.3288  0.1965 -0.5710
 1379SOL     OW 5588   3.605   0.881   2.319 -0.3770  0.1320  0.1572
 1379SOL    HW2 5589   3.678   0.830   2.354  0.3620  1.5585  0.7591
 1379SOL    HW3 5590   3.527   0.828   2.337  0.1635  0.0934  2.4898
 1379SOL    MW4 5591   3.605   0.867   2.326 -0.2084  0.3151  0.5445
 1380SOL     OW 5592   3.175   0.879   2.303 -0.2718 -0.1614 -0.5428
 1380SOL    HW2 5593   3.247   0.818   2.318 -0.0386 -0.1799 -1.6747
 1380SOL    HW3 5594   3.098   0.834   2.337  0.4211  0.3467  1.7374
 1380SOL    MW4 5595   3.174   0.865   2.309 -0.1497 -0.0969 -0.3912
 1381SOL     OW 5596   3.200   1.145   2.419  0.3903  0.4735 -0.5299
 1381SOL    HW2 5597   3.262   1.196   2.367 -0.0996  1.2485 -0.3656
 1381SOL    HW3 5598   3.215   1.054   2.393  1.9290  0.5980 -0.1374
 1381SOL    MW4 5599   3.210   1.140   2.409  0.5288  0.5921 -0.4566
 1382SOL     OW 5600   3.409   1.276   2.290  0.1193  0.1042 -0.1492
 1382SOL    HW2 5601   3.474   1.224   2.337 -1.2145 -1.6456 -0.2171
 1382SOL    HW3 5602   3.422   1.365   2.322  1.3597 -0.5314  1.1549
 1382SOL    MW4 5603   3.419   1.281   2.300  0.1070 -0.2106  0.0138
 1383SOL     OW 5604   3.413   1.518   2.423  0.2105  0.2857 -0.2993
 1383SOL    HW2 5605   3.397   1.516   2.517 -0.5067 -1.7798 -0.4491
 1383SOL    HW3 5606   3.330   1.546   2.385 -0.1364 -0.9338 -0.4478
 1383SOL    MW4 5607   3.400   1.521   2.430  0.0701 -0.1478 -0.3388
 1384SOL     OW 5608   3.161   1.620   2.294  0.3831 -0.3953  0.3578
 1384SOL    HW2 5609   3.151   1.703   2.341  0.8670 -1.0149  1.5904
 1384SOL    HW3 5610   3.085   1.568   2.321 -1.0151  0.3765 -2.0016
 1384SOL    MW4 5611   3.150   1.624   2.304  0.2625 -0.3753  0.2091
 1385SOL     OW 5612   3.144   1.886   2.382 -0.0499  0.3495 -0.1004
 1385SOL    HW2 5613   3.129   1.905   2.475 -2.2532 -0.1111 -0.3370
 1385SOL    HW3 5614   3.223   1.936   2.360  0.4991  0.4854  2.0005
 1385SOL    MW4 5615   3.153   1.895   2.392 -0.2685  0.3067  0.1454
 1386SOL     OW 5616   3.348   2.052   2.325 -0.6916 -0.3849 -0.2792
 1386SOL    HW2 5617   3.436   2.024   2.349  0.0767  1.6690 -0.5966
 1386SOL    HW3 5618   3.341   2.142   2.359 -2.8349 -0.6850  0.1783
 1386SOL    MW4 5619   3.359   2.060   2.333 -0.8731 -0.1533 -0.2606
 1387SOL     OW 5620   3.334   2.327   2.380  0.1501  0.4043 -0.3488
 1387SOL    HW2 5621   3.252   2.365   2.350 -0.2368 -0.0684  0.1031
 1387SOL    HW3 5622   3.330   2.333   2.476  0.1081 -0.7261 -0.2775
 1387SOL    MW4 5623   3.323   2.333   2.389  0.0937  0.1926 -0.2799
 1388SOL     OW 5624   3.101   2.414   2.280 -0.1173 -0.1503  0.6218
 1388SOL    HW2 5625   3.089   2.503   2.313 -0.4679 -0.6145  1.7669
 1388SOL    HW3 5626   3.018   2.370   2.299  0.8213 -1.3402  2.0294
 1388SOL    MW4 5627   3.088   2.420   2.287 -0.0396 -0.3686  0.9587
 1389SOL     OW 5628   3.096   2.648   2.393 -0.6942 -0.3567 -0.3385
 1389SOL    HW2 5629   3.162   2.704   2.352 -0.8986 -0.4878 -0.8541
 1389SOL    HW3 5630   3.105   2.665   2.487 -0.1044 -0.1815 -0.4229
 1389SOL    MW4 5631   3.106   2.657   2.400 -0.6435 -0.3507 -0.4177
 1390SOL     OW 5632   3.311   2.799   2.310 -0.3201 -0.4554 -0.3566
 1390SOL    HW2 5633   3.339   2.884   2.343 -1.4518  0.5874 -1.9993
 1390SOL    HW3 5634   3.388   2.743   2.317  0.6140  0.8931  0.1228
 1390SOL    MW4 5635   3.325   2.803   2.315 -0.3464 -0.1395 -0.5102
 1391SOL     OW 5636   3.369   3.048   2.406  0.3848  0.0460  0.2294
 1391SOL    HW2 5637   3.444   3.093   2.368 -0.3932  1.6681  0.5627
 1391SOL    HW3 5638   3.294   3.105   2.385 -0.5473 -0.8178  1.1411
 1391SOL    MW4 5639   3.369   3.062   2.398  0.1590  0.1459  0.3939
 1392SOL     OW 5640   3.128   3.171   2.305  0.3031 -0.3245 -0.0492
 1392SOL    HW2 5641   3.112   3.259   2.339 -0.0569  0.0917 -1.2724
 1392SOL    HW3 5642   3.054   3.119   2.335  0.6558 -0.2799  0.9056
 1392SOL    MW4 5643   3.116   3.176   2.313  0.3021 -0.2637 -0.0846
 1393SOL     OW 5644   3.164   3.433   2.390  0.7085 -0.6770  1.1036
 1393SOL    HW2 5645   3.156   3.451   2.483 -0.2493 -2.0341  1.3142
 1393SOL    HW3 5646   3.095   3.486   2.349  0.7673 -0.5019  1.2342
 1393SOL    MW4 5647   3.154   3.442   2.397  0.5898 -0.8330  1.1487
 1394SOL     OW 5648   3.385   3.554   2.258  0.0067  0.1446 -0.0870
 1394SOL    HW2 5649   3.461   3.500   2.281 -0.0288  0.8045  1.6429
 1394SOL    HW3 5650   3.311   3.511   2.301  0.2611  2.6001  3.0251
 1394SOL    MW4 5651   3.386   3.541   2.267  0.0355  0.5555  0.5519
 1395SOL     OW 5652   3.409   3.856   2.316  0.1920  0.3106  0.7025
 1395SOL    HW2 5653   3.491   3.903   2.300  0.0436  0.5792  0.7318
 1395SOL    HW3 5654   3.426   3.767   2.286 -0.0972  0.8106 -1.0038
 1395SOL    MW4 5655   3.422   3.851   2.310  0.1345  0.4122  0.4814
 1396SOL     OW 5656   3.165   3.983   2.243  0.0968  0.0742  0.3720
 1396SOL    HW2 5657   3.239   3.926   2.260  0.0757 -0.6981 -1.9537
 1396SOL    HW3 5658   3.089   3.937   2.279  0.3355 -0.5156  0.1134
 1396SOL    MW4 5659   3.165   3.970   2.250  0.1256 -0.1059  0.0310
 1397SOL     OW 5660   3.130   4.225   2.359 -0.1338  0.0390  0.1180
 1397SOL    HW2 5661   3.207   4.268   2.323  0.5372 -0.8584  0.4440
 1397SOL    HW3 5662   3.137   4.134   2.329 -1.6450  0.2027 -0.7566
 1397SOL    MW4 5663   3.141   4.219   2.350 -0.2446 -0.0577  0.0453
 1398SOL     OW 5664   3.367   4.341   2.269  0.1581 -0.3212 -0.5897
 1398SOL    HW2 5665   3.353   4.428   2.305  1.7814 -0.2939  0.0004
 1398SOL    HW3 5666   3.368   4.354   2.174 -1.8401 -0.0586 -0.6044
 1398SOL    MW4 5667   3.365   4.354   2.261  0.1085 -0.2832 -0.5138
 1399SOL     OW 5668   3.791   4.607   2.377  0.3126  0.3225  0.1200
 1399SOL    HW2 5669   3.782   4.612   2.472 -0.4824 -1.2684  0.1453
 1399SOL    HW3 5670   3.871   4.656   2.357  0.1129  1.2355  1.5352
 1399SOL    MW4 5671   3.800   4.614   2.387  0.1814  0.2332  0.3102
 1400SOL     OW 5672   3.556   0.055   2.277  0.2581 -0.3769  0.0623
 1400SOL    HW2 5673   3.567   0.145   2.310  0.4483 -0.0107 -0.9863
 1400SOL    HW3 5674   3.635   0.010   2.307  0.4652 -0.0290  0.0523
 1400SOL    MW4 5675   3.568   0.061   2.285  0.3109 -0.2827 -0.0777
 1401SOL     OW 5676   3.599   0.296   2.346  0.3235 -0.1311 -0.8251
 1401SOL    HW2 5677   3.600   0.299   2.442 -0.3587 -0.9958 -0.7808
 1401SOL    HW3 5678   3.670   0.354   2.319  0.4875  0.1541  0.2056
 1401SOL    MW4 5679   3.608   0.304   2.355  0.2553 -0.2075 -0.6831
 1402SOL     OW 5680   3.790   0.481   2.280 -0.0826 -0.0327  0.1935
 1402SOL    HW2 5681   3.784   0.568   2.319 -0.4594 -0.4199  1.0029
 1402SOL    HW3 5682   3.796   0.498   2.186  1.6484  0.9321  0.4603
 1402SOL    MW4 5683   3.790   0.495   2.273  0.0963  0.0435  0.3355
 1403SOL     OW 5684   3.831   0.734   2.407  0.0871  0.0055 -0.5718
 1403SOL    HW2 5685   3.833   0.749   2.501 -0.8802 -0.5005 -0.4647
 1403SOL    HW3 5686   3.896   0.794   2.371 -0.6335  1.2908  0.2673
 1403SOL    MW4 5687   3.840   0.744   2.415 -0.1357  0.1083 -0.4468
 1404SOL     OW 5688   3.629   0.848   2.035 -0.4098 -0.3508 -0.0798
 1404SOL    HW2 5689   3.602   0.872   2.123 -0.3375 -1.4253  0.2475
 1404SOL    HW3 5690   3.558   0.793   2.002  0.1957 -1.1069 -0.1560
 1404SOL    MW4 5691   3.616   0.844   2.042 -0.3204 -0.5923 -0.0465
 1405SOL     OW 5692   3.625   1.151   2.410  0.8435 -0.2586  0.0783
 1405SOL    HW2 5693   3.644   1.146   2.504 -1.5343 -0.3720  0.5988
 1405SOL    HW3 5694   3.631   1.061   2.379 -0.8075 -0.5909  0.6673
 1405SOL    MW4 5695   3.628   1.138   2.419  0.3119 -0.3172  0.2246
 1406SOL     OW 5696   3.791   1.299   2.263 -0.7827 -0.0413  0.1550
 1406SOL    HW2 5697   3.780   1.388   2.298 -0.4450 -0.2830  0.8936
 1406SOL    HW3 5698   3.721   1.249   2.305 -0.8150 -0.1766 -0.0631
 1406SOL    MW4 5699   3.780   1.304   2.273 -0.7424 -0.0910  0.2236
 1407SOL     OW 5700   3.791   1.573   2.338 -0.0590  0.0535  0.0160
 1407SOL    HW2 5701   3.816   1.564   2.430  0.1368 -0.6221 -0.1054
 1407SOL    HW3 5702   3.721   1.638   2.339  0.1108  0.2304  0.6156
 1407SOL    MW4 5703   3.785   1.580   2.350 -0.0110 -0.0123  0.0789
 1408SOL     OW 5704   3.559   1.718   2.264 -0.2753  0.3181  0.2282
 1408SOL    HW2 5705   3.519   1.645   2.310 -2.6634  1.3788 -0.1081
 1408SOL    HW3 5706   3.594   1.680   2.184 -1.1514 -0.5046  0.2352
 1408SOL    MW4 5707   3.558   1.703   2.260 -0.7060  0.3494  0.1848
 1409SOL     OW 5708   3.590   1.955   2.428  0.0325 -0.0297  0.3323
 1409SOL    HW2 5709   3.667   1.995   2.386 -0.0730 -0.9278 -0.7692
 1409SOL    HW3 5710   3.575   1.875   2.377 -0.8409 -0.5285  1.3667
 1409SOL    MW4 5711   3.598   1.950   2.415 -0.0970 -0.2139  0.3235
 1410SOL     OW 5712   3.804   2.031   2.279 -0.0590 -0.4746 -0.2546
 1410SOL    HW2 5713   3.885   1.998   2.318 -0.4544 -0.2032  0.8367
 1410SOL    HW3 5714   3.820   2.032   2.185  1.6249  0.6785  0.0247
 1410SOL    MW4 5715   3.817   2.027   2.272  0.1111 -0.2866 -0.0737
 1411SOL     OW 5716   3.805   2.312   2.352  0.5112 -0.1378  0.5677
 1411SOL    HW2 5717   3.729   2.359   2.318 -1.5413  0.2524  5.3301
 1411SOL    HW3 5718   3.792   2.222   2.325 -1.1888  0.0980  0.5501
 1411SOL    MW4 5719   3.793   2.307   2.344  0.0162 -0.0551  1.1938
 1412SOL     OW 5720   3.568   2.425   2.260 -0.3596  0.8972  0.1597
 1412SOL    HW2 5721   3.486   2.396   2.299 -0.2213  0.1885 -0.0732
 1412SOL    HW3 5722   3.558   2.408   2.167  0.6324 -0.6095  0.3173
 1412SOL    MW4 5723   3.556   2.419   2.253 -0.2105  0.6051  0.1497
 1413SOL     OW 5724   3.564   2.691   2.370  0.0558  0.2024 -0.3176
 1413SOL    HW2 5725   3.578   2.600   2.343 -0.3496 -0.0709  0.3715
 1413SOL    HW3 5726   3.565   2.687   2.466 -0.4742  0.8450 -0.2835
 1413SOL    MW4 5727   3.566   2.678   2.379 -0.0675  0.2511 -0.2222
 1414SOL     OW 5728   3.791   2.816   2.298 -1.0514 -0.2428 -0.5984
 1414SOL    HW2 5729   3.797   2.909   2.318  1.3009 -0.7881  1.5314
 1414SOL    HW3 5730   3.713   2.787   2.346 -0.7542  0.3039  0.2438
 1414SOL    MW4 5731   3.782   2.824   2.307 -0.7019 -0.2425 -0.2062
 1415SOL     OW 5732   3.808   3.082   2.401  0.1185  0.0385  0.0842
 1415SOL    HW2 5733   3.808   3.068   2.495 -0.2063  1.1432  0.2522
 1415SOL    HW3 5734   3.892   3.122   2.382  0.2679 -0.3680 -0.1334
 1415SOL    MW4 5735   3.819   3.085   2.411  0.0956  0.1307  0.0777
 1416SOL     OW 5736   3.584   3.178   2.283 -1.0188 -0.2058  0.3018
 1416SOL    HW2 5737   3.581   3.267   2.319 -0.5549  0.1874 -0.6286
 1416SOL    HW3 5738   3.654   3.135   2.332 -0.9638  0.0683  0.4682
 1416SOL    MW4 5739   3.593   3.184   2.294 -0.9501 -0.1180  0.2010
 1417SOL     OW 5740   3.616   3.443   2.364  0.1282  0.9219  0.2058
 1417SOL    HW2 5741   3.624   3.454   2.459 -0.7099  2.1345  0.1462
 1417SOL    HW3 5742   3.698   3.478   2.329 -0.1345  1.7540  0.4002
 1417SOL    MW4 5743   3.628   3.449   2.372 -0.0169  1.1916  0.2236
 1418SOL     OW 5744   3.855   3.576   2.302  0.0068 -0.3783  0.2212
 1418SOL    HW2 5745   3.825   3.657   2.343 -1.4810 -0.4538 -0.6804
 1418SOL    HW3 5746   3.845   3.591   2.208  0.5566 -1.2910  0.0014
 1418SOL    MW4 5747   3.850   3.589   2.295 -0.1171 -0.5088  0.0732
 1419SOL     OW 5748   3.810   3.854   2.372 -0.5884  0.3551  0.3083
 1419SOL    HW2 5749   3.804   3.869   2.466 -1.0727  0.4091  0.2717
 1419SOL    HW3 5750   3.901   3.875   2.350 -0.1896 -0.6689  0.9344
 1419SOL    MW4 5751   3.821   3.859   2.382 -0.5999  0.2270  0.3862
 1420SOL     OW 5752   3.630   3.995   2.235 -0.6191  0.0694  0.2163
 1420SOL    HW2 5753   3.626   4.078   2.283  0.0321 -0.0907  0.5545
 1420SOL    HW3 5754   3.696   3.944   2.282 -1.0808 -0.6694  0.0559
 1420SOL    MW4 5755   3.638   4.000   2.247 -0.5941 -0.0491  0.2398
 1421SOL     OW 5756   3.586   4.214   2.389  0.1059 -0.0702 -0.4204
 1421SOL    HW2 5757   3.650   4.273   2.349  0.7168  0.0901  0.7548
 1421SOL    HW3 5758   3.501   4.248   2.360  0.5427 -0.2348 -1.9224
 1421SOL    MW4 5759   3.583   4.227   2.380  0.2444 -0.0710 -0.4635
 1422SOL     OW 5760   3.772   4.354   2.261 -0.2331 -0.1233 -0.0993
 1422SOL    HW2 5761   3.843   4.314   2.312 -2.0621 -2.3864  0.7014
 1422SOL    HW3 5762   3.769   4.444   2.294  2.8126  0.2977 -0.7496
 1422SOL    MW4 5763   3.781   4.361   2.272 -0.0727 -0.3662 -0.0794
 1423SOL     OW 5764   4.260   4.642   2.385 -0.2677 -0.1483 -0.4281
 1423SOL    HW2 5765   4.257   4.668   2.477 -0.5867 -0.1424 -0.4383
 1423SOL    HW3 5766   4.337   4.687   2.349 -0.3501  0.1334 -0.2503
 1423SOL    MW4 5767   4.270   4.652   2.392 -0.3204 -0.1101 -0.4058
 1424SOL     OW 5768   4.023   0.084   2.281  0.0107 -0.1627 -0.2043
 1424SOL    HW2 5769   4.016   0.177   2.304 -0.8423 -0.4442  0.7527
 1424SOL    HW3 5770   4.113   0.060   2.301 -0.2982 -0.0095  1.4527
 1424SOL    MW4 5771   4.034   0.093   2.287 -0.1421 -0.1796  0.1407
 1425SOL     OW 5772   4.025   0.342   2.374 -0.4226 -0.5446  0.1213
 1425SOL    HW2 5773   4.093   0.405   2.349 -0.0564 -0.1462  2.0344
 1425SOL    HW3 5774   3.944   0.381   2.340 -0.2296  1.0832  1.4442
 1425SOL    MW4 5775   4.023   0.356   2.366 -0.3490 -0.2773  0.5484
 1426SOL     OW 5776   4.231   0.489   2.248  0.2141  0.0944  0.1014
 1426SOL    HW2 5777   4.220   0.578   2.283  1.5545 -0.0272  0.8783
 1426SOL    HW3 5778   4.311   0.457   2.290 -0.5207 -1.6677  0.2116
 1426SOL    MW4 5779   4.240   0.497   2.258  0.2937 -0.1542  0.2184
 1427SOL     OW 5780   4.211   0.737   2.352 -0.6223  0.3185  0.0169
 1427SOL    HW2 5781   4.131   0.781   2.324 -0.6725 -0.2836 -0.8157
 1427SOL    HW3 5782   4.281   0.798   2.330 -0.7473  0.2772 -0.5009
 1427SOL    MW4 5783   4.210   0.751   2.345 -0.6452  0.2337 -0.1614
 1428SOL     OW 5784   4.011   0.921   2.318  0.2272 -0.1149  0.2300
 1428SOL    HW2 5785   4.029   1.010   2.347  1.0635 -0.3091  0.3129
 1428SOL    HW3 5786   4.014   0.926   2.222 -0.8964  0.1830  0.2014
 1428SOL    MW4 5787   4.013   0.933   2.309  0.1898 -0.1013  0.2372
 1429SOL     OW 5788   4.030   1.195   2.360 -0.1399 -0.0634 -0.0082
 1429SOL    HW2 5789   4.044   1.196   2.455  0.1809  1.0575 -0.0583
 1429SOL    HW3 5790   3.938   1.220   2.349 -0.8171 -2.3655  0.0886
 1429SOL    MW4 5791   4.019   1.198   2.371 -0.1869 -0.2192 -0.0019
 1430SOL     OW 5792   4.271   1.295   2.269  0.2871  0.8518 -0.2486
 1430SOL    HW2 5793   4.192   1.253   2.300  0.7707  1.5014  1.9623
 1430SOL    HW3 5794   4.342   1.249   2.313  1.0006  1.7922 -0.3860
 1430SOL    MW4 5795   4.270   1.284   2.279  0.4454  1.0614  0.0250
 1431SOL     OW 5796   4.256   1.561   2.381  0.1216 -0.1332 -0.2686
 1431SOL    HW2 5797   4.268   1.477   2.337  0.4816 -0.5094  0.5422
 1431SOL    HW3 5798   4.323   1.619   2.343 -0.0857 -0.2286 -0.7793
 1431SOL    MW4 5799   4.266   1.558   2.371  0.1421 -0.1954 -0.2291
 1432SOL     OW 5800   4.041   1.678   2.259 -0.3181  0.2557  0.5264
 1432SOL    HW2 5801   4.106   1.619   2.299  0.2325  1.7897  1.9327
 1432SOL    HW3 5802   3.956   1.642   2.287  0.0126  0.0688  1.3080
 1432SOL    MW4 5803   4.038   1.665   2.268 -0.2022  0.4334  0.8152
 1433SOL     OW 5804   4.045   1.939   2.374  0.5277 -0.0645 -0.1578
 1433SOL    HW2 5805   4.082   1.918   2.460 -0.4962 -1.3954 -0.0270
 1433SOL    HW3 5806   4.043   1.856   2.327  0.6779  0.5729 -1.3214
 1433SOL    MW4 5807   4.049   1.925   2.379  0.4125 -0.1560 -0.2940
 1434SOL     OW 5808   4.232   2.076   2.239 -0.0331 -0.5547 -0.4399
 1434SOL    HW2 5809   4.241   2.164   2.276 -0.5999  0.0718 -1.7840
 1434SOL    HW3 5810   4.162   2.035   2.291  0.2689 -0.2432  0.2197
 1434SOL    MW4 5811   4.224   2.082   2.251 -0.0677 -0.4313 -0.5302
 1435SOL     OW 5812   4.263   2.337   2.355  0.0529  0.4469  0.1673
 1435SOL    HW2 5813   4.188   2.381   2.315  0.3312  0.3399 -0.4817
 1435SOL    HW3 5814   4.337   2.395   2.338  0.4882 -0.4271 -1.0042
 1435SOL    MW4 5815   4.263   2.350   2.348  0.1473  0.3176 -0.0730
 1436SOL     OW 5816   4.039   2.447   2.241  0.2570  0.3144  0.6522
 1436SOL    HW2 5817   4.025   2.526   2.295 -0.6352  0.9505 -0.4696
 1436SOL    HW3 5818   3.962   2.393   2.259  0.2124  0.2990  0.4135
 1436SOL    MW4 5819   4.027   2.451   2.251  0.1330  0.3963  0.4728
 1437SOL     OW 5820   4.009   2.682   2.375  0.3772 -0.6097  0.5369
 1437SOL    HW2 5821   4.013   2.707   2.467  1.1987  1.9650 -0.1734
 1437SOL    HW3 5822   3.929   2.723   2.341  1.8307  1.3044 -0.6806
 1437SOL    MW4 5823   3.999   2.691   2.382  0.6771 -0.0174  0.2828
 1438SOL     OW 5824   4.214   2.836   2.234 -0.1172 -0.7329 -0.3421
 1438SOL    HW2 5825   4.159   2.783   2.292 -2.0505  2.9102  1.3630
 1438SOL    HW3 5826   4.302   2.828   2.270 -0.7495 -1.1251  1.1469
 1438SOL    MW4 5827   4.218   2.828   2.246 -0.4559 -0.3040  0.0794
 1439SOL     OW 5828   4.261   3.063   2.383 -0.3911 -0.4964 -0.1053
 1439SOL    HW2 5829   4.260   2.979   2.336  0.7442 -0.6572  0.1245
 1439SOL    HW3 5830   4.339   3.107   2.350  0.4996 -0.6661  1.6925
 1439SOL    MW4 5831   4.271   3.058   2.373 -0.1235 -0.5400  0.1624
 1440SOL     OW 5832   4.038   3.203   2.317  0.3157  0.2018 -0.1769
 1440SOL    HW2 5833   4.038   3.286   2.365  0.6667 -0.4971  1.0836
 1440SOL    HW3 5834   4.122   3.163   2.340 -0.1221 -0.7724 -0.2698
 1440SOL    MW4 5835   4.049   3.209   2.327  0.3042 -0.0188 -0.0229
 1441SOL     OW 5836   4.072   3.449   2.427 -0.3695  0.1901 -0.2082
 1441SOL    HW2 5837   4.147   3.470   2.370  0.4691  1.4600  1.3028
 1441SOL    HW3 5838   3.998   3.495   2.386 -0.2335 -0.6753 -1.4499
 1441SOL    MW4 5839   4.072   3.458   2.414 -0.2413  0.2434 -0.1729
 1442SOL     OW 5840   4.291   3.545   2.272 -0.4908  0.7806  0.7403
 1442SOL    HW2 5841   4.287   3.623   2.328  0.9831  1.5158 -0.1662
 1442SOL    HW3 5842   4.269   3.577   2.185 -2.3184 -0.2855  0.7751
 1442SOL    MW4 5843   4.288   3.559   2.268 -0.5374  0.7367  0.6254
 1443SOL     OW 5844   4.289   3.795   2.386  0.4163  0.1089 -0.4182
 1443SOL    HW2 5845   4.297   3.822   2.478 -1.2365 -0.1088 -0.1991
 1443SOL    HW3 5846   4.364   3.838   2.343 -0.5168  2.7567  0.4573
 1443SOL    MW4 5847   4.300   3.804   2.393  0.0753  0.4299 -0.2739
 1444SOL     OW 5848   4.064   3.946   2.309  0.1037 -0.2480 -0.3907
 1444SOL    HW2 5849   4.139   3.893   2.336 -0.2285 -1.5067 -1.8761
 1444SOL    HW3 5850   4.063   3.940   2.214 -0.4187  1.8161 -0.5361
 1444SOL    MW4 5851   4.074   3.938   2.300 -0.0095 -0.1419 -0.6058
 1445SOL     OW 5852   4.011   4.228   2.349 -0.0783 -0.1279 -0.0523
 1445SOL    HW2 5853   4.090   4.272   2.316  0.9335 -0.9784  1.1647
 1445SOL    HW3 5854   4.021   4.137   2.320 -0.9997 -0.0810 -0.5411
 1445SOL    MW4 5855   4.023   4.222   2.340 -0.0668 -0.2346  0.0439
 1446SOL     OW 5856   4.241   4.369   2.284 -0.3722  0.1402  0.3640
 1446SOL    HW2 5857   4.249   4.456   2.322  2.0428 -0.1296  0.5418
 1446SOL    HW3 5858   4.316   4.320   2.318 -0.5229 -1.3907 -1.3862
 1446SOL    MW4 5859   4.252   4.374   2.294 -0.0739 -0.0973  0.1564
 1447SOL     OW 5860   0.238   4.654   2.637  0.2971  0.4660 -0.0308
 1447SOL    HW2 5861   0.225   4.564   2.669 -0.5397  1.2120  1.8262
 1447SOL    HW3 5862   0.156   4.699   2.658  0.7519  1.7085 -0.8372
 1447SOL    MW4 5863   0.225   4.648   2.644  0.2467  0.7291  0.1078
 1448SOL     OW 5864   0.026   0.136   2.728 -0.0870 -0.3962 -0.1101
 1448SOL    HW2 5865   0.050   0.132   2.821  0.7694  2.0166 -0.2090
 1448SOL    HW3 5866   0.018   0.229   2.709  0.3576 -0.8382 -2.6399
 1448SOL    MW4 5867   0.028   0.147   2.738  0.0846 -0.1362 -0.4568
 1449SOL     OW 5868   4.478   0.411   2.647  0.0940  0.4646  0.1149
 1449SOL    HW2 5869   4.561   0.455   2.664  0.1014  0.3823  0.2953
 1449SOL    HW3 5870   4.476   0.398   2.552  0.7063 -0.3464  0.2093
 1449SOL    MW4 5871   4.488   0.415   2.637  0.1760  0.3467  0.1512
 1450SOL     OW 5872   0.224   0.531   2.748  0.3229 -0.1590  0.1606
 1450SOL    HW2 5873   0.227   0.531   2.843  0.8617  0.7463  0.1559
 1450SOL    HW3 5874   0.296   0.475   2.721  0.5087  0.0250  0.2781
 1450SOL    MW4 5875   0.234   0.524   2.757  0.4185 -0.0153  0.1752
 1451SOL     OW 5876   0.267   0.797   2.636  0.1969 -0.4289 -0.2574
 1451SOL    HW2 5877   0.333   0.839   2.692  0.3700  0.2028 -0.9195
 1451SOL    HW3 5878   0.246   0.715   2.680  0.2209  0.1293  0.8094
 1451SOL    MW4 5879   0.273   0.792   2.649  0.2229 -0.2719 -0.2041
 1452SOL     OW 5880   0.008   0.909   2.718 -0.1015 -0.0237 -0.4493
 1452SOL    HW2 5881  -0.065   0.854   2.689  1.0008 -2.0124  0.3768
 1452SOL    HW3 5882   0.086   0.855   2.701  0.9047  0.6436  1.8250
 1452SOL    MW4 5883   0.009   0.894   2.712  0.1769 -0.1981 -0.0401
 1453SOL     OW 5884   0.000   1.165   2.615  0.4548 -0.0280 -0.3231
 1453SOL    HW2 5885   0.081   1.205   2.648  0.1061  0.5242 -0.1171
 1453SOL    HW3 5886   0.003   1.075   2.646  0.3785  0.3489  0.7920
 1453SOL    MW4 5887   0.011   1.158   2.624  0.3986  0.0945 -0.1488
 1454SOL     OW 5888   0.238   1.256   2.759 -0.2907 -0.0325  0.4332
 1454SOL    HW2 5889   0.308   1.206   2.715 -1.6696 -1.3967 -0.2460
 1454SOL    HW3 5890   0.249   1.345   2.726  0.1220 -0.5689 -0.9391
 1454SOL    MW4 5891   0.249   1.261   2.749 -0.4182 -0.2834  0.1624
 1455SOL     OW 5892   0.244   1.515   2.685  0.0087  0.4013 -0.0889
 1455SOL    HW2 5893   0.327   1.555   2.712 -0.2730  0.1067  1.2786
 1455SOL    HW3 5894   0.177   1.575   2.718 -0.3250  0.5688 -1.0701
 1455SOL    MW4 5895   0.246   1.528   2.693 -0.0725  0.3846 -0.0379
 1456SOL     OW 5896   0.000   1.659   2.765  0.2209 -0.1192 -0.6746
 1456SOL    HW2 5897  -0.001   1.667   2.861 -2.5171 -0.3518 -0.6570
 1456SOL    HW3 5898  -0.004   1.750   2.734 -3.2504 -0.1510 -0.5122
 1456SOL    MW4 5899  -0.000   1.672   2.774 -0.5984 -0.1540 -0.6511
 1457SOL     OW 5900   4.454   1.917   2.639 -0.0875  0.4802  0.2516
 1457SOL    HW2 5901   4.534   1.965   2.661  0.4911 -0.3748  0.0196
 1457SOL    HW3 5902   4.452   1.918   2.543 -0.3554  0.5007  0.2582
 1457SOL    MW4 5903   4.464   1.924   2.629 -0.0467  0.3700  0.2222
 1458SOL     OW 5904   0.187   2.062   2.727  0.3125  0.1765 -0.4434
 1458SOL    HW2 5905   0.260   2.010   2.693 -0.2384 -0.8748 -0.0263
 1458SOL    HW3 5906   0.204   2.151   2.694  2.0840  0.0762  0.1300
 1458SOL    MW4 5907   0.199   2.067   2.718  0.4736  0.0248 -0.3126
 1459SOL     OW 5908   0.202   2.338   2.619 -0.4673  0.3763  0.3873
 1459SOL    HW2 5909   0.267   2.389   2.669 -0.8431  0.1310  1.1376
 1459SOL    HW3 5910   0.118   2.379   2.641 -0.7730 -0.5799  1.0092
 1459SOL    MW4 5911   0.199   2.350   2.629 -0.5572  0.2177  0.5684
 1460SOL     OW 5912   4.466   2.452   2.737 -0.5698 -0.0883 -0.2370
 1460SOL    HW2 5913   4.473   2.444   2.833 -2.9136 -1.8697 -0.1776
 1460SOL    HW3 5914   4.394   2.395   2.714  0.0598  0.2409 -3.1291
 1460SOL    MW4 5915   4.458   2.444   2.747 -0.7958 -0.2797 -0.6108
 1461SOL     OW 5916   0.022   2.713   2.632 -0.3842 -0.6003 -0.3950
 1461SOL    HW2 5917  -0.048   2.766   2.672 -0.4083 -0.7062 -0.2980
 1461SOL    HW3 5918   0.011   2.626   2.669  0.3032 -0.4205  0.2386
 1461SOL    MW4 5919   0.011   2.709   2.642 -0.2971 -0.5906 -0.2985
 1462SOL     OW 5920   0.240   2.841   2.734  0.4930  0.3485 -0.1033
 1462SOL    HW2 5921   0.230   2.933   2.711  0.7724  0.0800 -1.3351
 1462SOL    HW3 5922   0.169   2.797   2.688  0.4129 -0.0614  0.4123
 1462SOL    MW4 5923   0.230   2.847   2.725  0.5193  0.2592 -0.1976
 1463SOL     OW 5924   0.212   3.094   2.637  0.4695 -0.3581  0.5321
 1463SOL    HW2 5925   0.287   3.149   2.658  1.0827 -1.1248  0.3487
 1463SOL    HW3 5926   0.214   3.086   2.542  0.1250 -0.3443  0.5220
 1463SOL    MW4 5927   0.222   3.100   2.627  0.5049 -0.4573  0.5064
 1464SOL     OW 5928   4.475   3.209   2.755  0.1785  0.0360 -0.3348
 1464SOL    HW2 5929   4.402   3.157   2.720  1.5098 -2.9373  1.1289
 1464SOL    HW3 5930   4.553   3.168   2.719  1.2606  1.3899  0.4492
 1464SOL    MW4 5931   4.475   3.197   2.746  0.4964 -0.1776 -0.0384
 1465SOL     OW 5932   4.468   3.456   2.662 -0.2222 -0.1081 -0.3406
 1465SOL    HW2 5933   4.542   3.509   2.693  0.4857 -0.9111 -0.6279
 1465SOL    HW3 5934   4.475   3.374   2.710 -0.9207 -0.1974 -0.3840
 1465SOL    MW4 5935   4.479   3.452   2.672 -0.2209 -0.2260 -0.3841
 1466SOL     OW 5936   0.193   3.578   2.757 -0.2598 -0.2568 -0.0229
 1466SOL    HW2 5937   0.180   3.583   2.852  0.4362  0.0145  0.0592
 1466SOL    HW3 5938   0.276   3.531   2.747 -0.4233 -0.4389 -0.5010
 1466SOL    MW4 5939   0.202   3.572   2.768 -0.1896 -0.2451 -0.0753
 1467SOL     OW 5940   0.200   3.852   2.656  0.2711  0.3215  0.1355
 1467SOL    HW2 5941   0.192   3.762   2.689  0.0049  0.3198  0.0634
 1467SOL    HW3 5942   0.188   3.844   2.562  0.0787  0.4556  0.1495
 1467SOL    MW4 5943   0.197   3.839   2.648  0.2106  0.3390  0.1280
 1468SOL     OW 5944   0.020   4.001   2.811  0.1562  0.1987 -0.0552
 1468SOL    HW2 5945  -0.008   4.080   2.764  1.1526  0.4854 -0.1940
 1468SOL    HW3 5946   0.072   3.953   2.747  1.7101  0.7010  0.8032
 1468SOL    MW4 5947   0.023   4.005   2.797  0.4930  0.3028  0.0401
 1469SOL     OW 5948   4.460   4.219   2.640  0.0183  0.5713 -0.5928
 1469SOL    HW2 5949   4.383   4.271   2.662  0.3486 -0.3639  2.9705
 1469SOL    HW3 5950   4.534   4.277   2.657  0.2551  0.1803 -0.2912
 1469SOL    MW4 5951   4.460   4.234   2.645  0.0930  0.3963 -0.0825
 1470SOL     OW 5952   0.202   4.379   2.705  0.3516 -0.1992  0.1374
 1470SOL    HW2 5953   0.224   4.403   2.795 -0.6153 -1.1470  0.6385
 1470SOL    HW3 5954   0.281   4.337   2.671  1.3110  1.6718 -0.0329
 1470SOL    MW4 5955   0.215   4.377   2.712  0.3506 -0.0777  0.1810
 1471SOL     OW 5956   0.664   4.640   2.613  0.3633  0.6269  0.2854
 1471SOL    HW2 5957   0.741   4.667   2.664  0.6431  0.0679  0.1584
 1471SOL    HW3 5958   0.591   4.688   2.653  0.6494  0.5265  0.9333
 1471SOL    MW4 5959   0.664   4.650   2.625  0.4380  0.5393  0.3541
 1472SOL     OW 5960   0.468   0.131   2.734 -0.2797  0.4848 -0.1025
 1472SOL    HW2 5961   0.474   0.122   2.829 -1.4341 -0.4572 -0.1054
 1472SOL    HW3 5962   0.391   0.079   2.709  1.2618 -1.0702 -1.8019
 1472SOL    MW4 5963   0.458   0.123   2.743 -0.2286  0.1554 -0.3271
 1473SOL     OW 5964   0.451   0.400   2.641 -0.6021 -0.1338  0.0674
 1473SOL    HW2 5965   0.533   0.439   2.672  0.2209 -2.0280  0.3676
 1473SOL    HW3 5966   0.452   0.312   2.678 -1.5516 -1.0460 -2.0365
 1473SOL    MW4 5967   0.462   0.394   2.650 -0.6188 -0.5041 -0.1707
 1474SOL     OW 5968   0.682   0.503   2.748  0.3062 -0.1863 -0.0467
 1474SOL    HW2 5969   0.690   0.507   2.843 -0.2250 -0.7580  0.0244
 1474SOL    HW3 5970   0.765   0.465   2.718  0.7369  0.5969  0.1344
 1474SOL    MW4 5971   0.694   0.499   2.756  0.2929 -0.1584 -0.0136
 1475SOL     OW 5972   0.673   0.761   2.677 -0.5977  0.2726 -0.1608
 1475SOL    HW2 5973   0.763   0.790   2.689 -0.5543  0.8916 -1.9146
 1475SOL    HW3 5974   0.675   0.669   2.702  0.9725 -0.2532 -2.0529
 1475SOL    MW4 5975   0.685   0.753   2.682 -0.3847  0.2849 -0.6421
 1476SOL     OW 5976   0.462   0.893   2.790 -0.1489 -0.2035 -0.1412
 1476SOL    HW2 5977   0.461   0.981   2.753  0.1293 -0.3672 -0.5366
 1476SOL    HW3 5978   0.546   0.856   2.763  0.3615 -0.0669  1.2565
 1476SOL    MW4 5979   0.473   0.900   2.781 -0.0449 -0.2071 -0.0091
 1477SOL     OW 5980   0.465   1.147   2.654 -0.2131 -0.0402  0.3099
 1477SOL    HW2 5981   0.528   1.209   2.690  0.2222 -0.5192  0.3747
 1477SOL    HW3 5982   0.478   1.152   2.559  1.2822 -1.5456  0.4015
 1477SOL    MW4 5983   0.475   1.156   2.646  0.0416 -0.3021  0.3307
 1478SOL     OW 5984   0.677   1.282   2.790  0.3955 -0.0565  0.3963
 1478SOL    HW2 5985   0.688   1.281   2.885  1.1716 -1.6790  0.3117
 1478SOL    HW3 5986   0.748   1.227   2.757 -0.2053  0.0285 -1.0744
 1478SOL    MW4 5987   0.688   1.274   2.798  0.4187 -0.2594  0.1910
 1479SOL     OW 5988   0.691   1.520   2.662 -0.3530  0.0141  0.0537
 1479SOL    HW2 5989   0.609   1.564   2.684 -0.1393 -0.1262  1.1771
 1479SOL    HW3 5990   0.686   1.436   2.708 -0.0829 -0.4854 -0.8145
 1479SOL    MW4 5991   0.680   1.515   2.671 -0.2892 -0.0703  0.0875
 1480SOL     OW 5992   0.471   1.667   2.750 -0.2532  0.4922  0.0970
 1480SOL    HW2 5993   0.478   1.678   2.845  0.0486  0.8890  0.0307
 1480SOL    HW3 5994   0.462   1.756   2.716 -0.3075  0.3552 -0.2527
 1480SOL    MW4 5995   0.471   1.680   2.758 -0.2205  0.5264  0.0422
 1481SOL     OW 5996   0.421   1.921   2.638 -0.1754 -0.0390  0.6481
 1481SOL    HW2 5997   0.498   1.966   2.671  1.3643 -2.5037  0.5709
 1481SOL    HW3 5998   0.436   1.913   2.543 -0.2609 -0.9819  0.7070
 1481SOL    MW4 5999   0.433   1.926   2.630  0.0165 -0.4885  0.6456
 1482SOL     OW 6000   0.647   2.044   2.725 -0.2802 -0.7445  0.0947
 1482SOL    HW2 6001   0.648   2.049   2.821  0.1065  0.0425  0.0552
 1482SOL    HW3 6002   0.729   2.001   2.702 -0.7381 -1.6598  0.1481
 1482SOL    MW4 6003   0.658   2.039   2.735 -0.2895 -0.7613  0.0966
 1483SOL     OW 6004   0.612   2.320   2.651  0.1739 -0.0849  0.4827
 1483SOL    HW2 6005   0.696   2.359   2.678 -0.2552  0.2834  1.3075
 1483SOL    HW3 6006   0.613   2.232   2.689  0.0952 -0.0045  0.6712
 1483SOL    MW4 6007   0.623   2.314   2.660  0.1069 -0.0257  0.6163
 1484SOL     OW 6008   0.402   2.475   2.743  0.2169  0.0827 -0.6440
 1484SOL    HW2 6009   0.410   2.552   2.686  0.0701 -0.8367 -1.9469
 1484SOL    HW3 6010   0.481   2.424   2.725 -0.3568 -0.7403 -0.8308
 1484SOL    MW4 6011   0.413   2.479   2.733  0.1218 -0.1476 -0.8407
 1485SOL     OW 6012   0.447   2.717   2.610  0.5508  0.6057  0.0962
 1485SOL    HW2 6013   0.529   2.751   2.647  0.1273 -0.8714  2.5163
 1485SOL    HW3 6014   0.379   2.760   2.662 -0.0544 -1.8909  1.4320
 1485SOL    MW4 6015   0.449   2.727   2.622  0.4151  0.0815  0.5918
 1486SOL     OW 6016   0.674   2.809   2.743 -0.0702 -0.1385  0.2258
 1486SOL    HW2 6017   0.702   2.805   2.835 -1.0677 -0.2769  0.5265
 1486SOL    HW3 6018   0.674   2.902   2.721  0.6019 -0.1344  0.2252
 1486SOL    MW4 6019   0.678   2.821   2.752 -0.1131 -0.1562  0.2654
 1487SOL     OW 6020   0.701   3.086   2.679 -0.1029  0.0876 -0.5612
 1487SOL    HW2 6021   0.772   3.130   2.727 -0.4548  0.4872 -0.4023
 1487SOL    HW3 6022   0.726   3.095   2.587  0.6470 -0.8021 -0.4539
 1487SOL    MW4 6023   0.714   3.093   2.673 -0.0504  0.0229 -0.5262
 1488SOL     OW 6024   0.443   3.189   2.764  0.2999 -0.1798 -0.0331
 1488SOL    HW2 6025   0.457   3.199   2.858 -0.2622  0.2680  0.0022
 1488SOL    HW3 6026   0.528   3.161   2.730  0.2296 -1.3620  0.7568
 1488SOL    MW4 6027   0.456   3.187   2.772  0.2164 -0.2773  0.0756
 1489SOL     OW 6028   0.453   3.463   2.707 -0.2637 -0.0759  0.2709
 1489SOL    HW2 6029   0.466   3.370   2.725  0.7451 -0.0270 -0.1887
 1489SOL    HW3 6030   0.451   3.469   2.612 -2.1477  0.1355  0.3048
 1489SOL    MW4 6031   0.455   3.452   2.697 -0.3792 -0.0415  0.2148
 1490SOL     OW 6032   0.691   3.618   2.755 -0.3384 -0.6568 -0.1102
 1490SOL    HW2 6033   0.704   3.634   2.848  0.4965 -0.4507 -0.2622
 1490SOL    HW3 6034   0.607   3.573   2.750  0.1523 -1.6925  0.8480
 1490SOL    MW4 6035   0.681   3.614   2.766 -0.1636 -0.7663 -0.0038
 1491SOL     OW 6036   0.661   3.878   2.659  0.0681 -0.2605  0.0726
 1491SOL    HW2 6037   0.575   3.911   2.686  0.4117 -0.0816  0.9649
 1491SOL    HW3 6038   0.659   3.785   2.682  0.7093  0.0951  1.6150
 1491SOL    MW4 6039   0.649   3.870   2.665  0.1979 -0.1900  0.3939
 1492SOL     OW 6040   0.426   3.995   2.737  0.0885 -0.0224  0.4705
 1492SOL    HW2 6041   0.408   4.072   2.683  1.0747 -0.8617 -1.0789
 1492SOL    HW3 6042   0.360   3.931   2.711  0.2354 -0.2490  0.6498
 1492SOL    MW4 6043   0.414   3.997   2.726  0.2380 -0.1628  0.2894
 1493SOL     OW 6044   0.449   4.259   2.616  0.0072  0.2203 -0.4149
 1493SOL    HW2 6045   0.518   4.297   2.670 -0.3636  0.4525 -0.1073
 1493SOL    HW3 6046   0.457   4.304   2.532  1.8769 -1.5383 -1.2273
 1493SOL    MW4 6047   0.459   4.270   2.612  0.2050  0.0191 -0.4814
 1494SOL     OW 6048   0.645   4.363   2.760 -0.0871 -0.9629  0.9091
 1494SOL    HW2 6049   0.730   4.326   2.738  0.1639 -0.0106  0.2428
 1494SOL    HW3 6050   0.636   4.439   2.701  0.1352  1.0148  3.3554
 1494SOL    MW4 6051   0.655   4.368   2.749 -0.0246 -0.5765  1.1439
 1495SOL     OW 6052   1.127   4.616   2.650  0.1779  0.1020 -0.1716
 1495SOL    HW2 6053   1.187   4.682   2.685  1.3331 -0.9472 -0.1612
 1495SOL    HW3 6054   1.160   4.533   2.685 -0.1816 -0.6842 -1.6921
 1495SOL    MW4 6055   1.139   4.614   2.659  0.2828 -0.1402 -0.3710
 1496SOL     OW 6056   0.899   0.051   2.748 -0.2225 -0.1385  0.3740
 1496SOL    HW2 6057   0.925   0.062   2.840  0.9624  1.8142 -0.1617
 1496SOL    HW3 6058   0.976   0.010   2.707 -0.4082 -0.1613  0.0519
 1496SOL    MW4 6059   0.913   0.047   2.755 -0.0907  0.1162  0.2611
 1497SOL     OW 6060   0.894   0.330   2.645  0.5750 -0.2821  0.0665
 1497SOL    HW2 6061   0.897   0.239   2.676  1.9412 -0.4826 -0.6403
 1497SOL    HW3 6062   0.865   0.323   2.554 -0.6629  0.1052  0.4140
 1497SOL    MW4 6063   0.890   0.317   2.637  0.5919 -0.2574  0.0193
 1498SOL     OW 6064   1.112   0.483   2.752  0.0167  0.0351  0.4972
 1498SOL    HW2 6065   1.113   0.573   2.720  1.1011 -0.2061 -0.1895
 1498SOL    HW3 6066   1.047   0.439   2.696 -0.0968  0.2543  0.4554
 1498SOL    MW4 6067   1.104   0.489   2.740  0.1448  0.0322  0.4013
 1499SOL     OW 6068   1.146   0.747   2.648  0.5069 -0.0348 -0.5223
 1499SOL    HW2 6069   1.222   0.795   2.679 -0.0671  0.1912  0.5774
 1499SOL    HW3 6070   1.138   0.770   2.556  0.3399  1.8395 -0.0521
 1499SOL    MW4 6071   1.155   0.756   2.640  0.4092  0.2424 -0.3150
 1500SOL     OW 6072   0.917   0.859   2.753  0.1249  0.1419 -0.1599
 1500SOL    HW2 6073   0.926   0.868   2.848 -0.2262  1.7166 -0.2635
 1500SOL    HW3 6074   0.996   0.811   2.727 -0.1953 -1.0675  1.0222
 1500SOL    MW4 6075   0.929   0.854   2.762  0.0363  0.1901 -0.0176
 1501SOL     OW 6076   0.917   1.175   2.688  0.3705 -0.0353  0.3218
 1501SOL    HW2 6077   0.937   1.085   2.711 -0.8131 -0.5432 -0.5409
 1501SOL    HW3 6078   0.914   1.175   2.592  0.0853  0.8423  0.3240
 1501SOL    MW4 6079   0.919   1.163   2.678  0.1767  0.0135  0.2084
 1502SOL     OW 6080   1.136   1.312   2.766 -0.0760  0.1305  0.6313
 1502SOL    HW2 6081   1.125   1.402   2.735  0.9262  0.2397  0.5824
 1502SOL    HW3 6082   1.057   1.267   2.736 -0.5282  0.9645  0.5526
 1502SOL    MW4 6083   1.124   1.318   2.758 -0.0033  0.2550  0.6144
 1503SOL     OW 6084   1.142   1.568   2.672 -0.2562 -0.2428  0.2962
 1503SOL    HW2 6085   1.056   1.591   2.708  0.4435  2.6583  0.2270
 1503SOL    HW3 6086   1.132   1.575   2.577 -0.0995 -0.5225  0.2577
 1503SOL    MW4 6087   1.129   1.572   2.665 -0.1432  0.1031  0.2820
 1504SOL     OW 6088   0.900   1.647   2.764  0.4869 -0.0738  0.0822
 1504SOL    HW2 6089   0.878   1.642   2.858  0.2037 -1.3623 -0.0480
 1504SOL    HW3 6090   0.821   1.615   2.720 -0.2341  2.6758 -0.7019
 1504SOL    MW4 6091   0.886   1.642   2.771  0.3544  0.1190 -0.0384
 1505SOL     OW 6092   0.874   1.911   2.629  0.0939  0.1410 -0.2623
 1505SOL    HW2 6093   0.948   1.963   2.660 -0.1482 -0.5288  1.5297
 1505SOL    HW3 6094   0.894   1.822   2.656 -1.7345  0.0763  1.0322
 1505SOL    MW4 6095   0.886   1.906   2.637 -0.1793  0.0440  0.1450
 1506SOL     OW 6096   1.081   2.046   2.760 -0.4072  0.4281  0.0916
 1506SOL    HW2 6097   1.168   2.009   2.746 -0.4738 -0.1074  1.0551
 1506SOL    HW3 6098   1.089   2.137   2.732  0.8206  0.7492  1.4487
 1506SOL    MW4 6099   1.094   2.053   2.754 -0.2539  0.3998  0.3977
 1507SOL     OW 6100   1.103   2.305   2.651  0.2189 -0.5930 -0.0905
 1507SOL    HW2 6101   1.181   2.345   2.688  1.0061 -0.6475 -1.6422
 1507SOL    HW3 6102   1.107   2.326   2.557 -1.4108 -0.9344 -0.2531
 1507SOL    MW4 6103   1.114   2.313   2.643  0.1076 -0.6452 -0.3169
 1508SOL     OW 6104   0.865   2.441   2.728 -0.0161  0.2744  0.4459
 1508SOL    HW2 6105   0.878   2.525   2.684 -0.8040 -0.6572 -1.6316
 1508SOL    HW3 6106   0.937   2.386   2.697  0.0855 -0.0573  1.2454
 1508SOL    MW4 6107   0.876   2.444   2.718 -0.1066  0.1078  0.2773
 1509SOL     OW 6108   0.881   2.679   2.613  0.1495 -0.3503  0.2005
 1509SOL    HW2 6109   0.950   2.733   2.651 -0.6233 -0.1039  1.2871
 1509SOL    HW3 6110   0.800   2.712   2.653 -0.6208 -0.4966 -1.2133
 1509SOL    MW4 6111   0.879   2.690   2.624 -0.0541 -0.3369  0.1578
 1510SOL     OW 6112   1.083   2.832   2.723  0.0000  0.0000  0.2449
 1510SOL    HW2 6113   1.106   2.825   2.816  0.0000  0.0000  0.2440
 1510SOL    HW3 6114   1.158   2.795   2.677  0.0000  0.0000  0.2419
 1510SOL    MW4 6115   1.096   2.826   2.729  0.0000  0.0000  0.2444
 1511SOL     OW 6116   1.148   3.096   2.675  0.0000  0.0000 -0.1893
 1511SOL    HW2 6117   1.122   3.007   2.697  0.0000  0.0000 -0.1854
 1511SOL    HW3 6118   1.136   3.101   2.580  0.0000  0.0000 -0.1894
 1511SOL    MW4 6119   1.143   3.085   2.665  0.0000  0.0000 -0.1888
 1512SOL     OW 6120   0.919   3.208   2.778  0.0000  0.0000  0.6470
 1512SOL    HW2 6121   0.903   3.287   2.725  0.0000  0.0000  0.6430
 1512SOL    HW3 6122   1.006   3.179   2.749  0.0000  0.0000  0.6550
 1512SOL    MW4 6123   0.928   3.215   2.767  0.0000  0.0000  0.6478
 1513SOL     OW 6124   0.887   3.462   2.646  0.0000  0.0000 -0.4459
 1513SOL    HW2 6125   0.961   3.508   2.686  0.0000  0.0000 -0.4112
 1513SOL    HW3 6126   0.810   3.511   2.676  0.0000  0.0000 -0.4860
 1513SOL    MW4 6127   0.887   3.475   2.655  0.0000  0.0000 -0.4468
 1514SOL     OW 6128   1.102   3.599   2.739  0.0000  0.0000 -0.1150
 1514SOL    HW2 6129   1.101   3.626   2.831  0.0000  0.0000 -0.1142
 1514SOL    HW3 6130   1.100   3.681   2.690  0.0000  0.0000 -0.1123
 1514SOL    MW4 6131   1.102   3.613   2.744  0.0000  0.0000 -0.1144
 1515SOL     OW 6132   1.098   3.851   2.649  0.0000  0.0000  0.0676
 1515SOL    HW2 6133   1.178   3.889   2.686  0.0000  0.0000  0.0737
 1515SOL    HW3 6134   1.110   3.859   2.554  0.0000  0.0000  0.0685
 1515SOL    MW4 6135   1.110   3.857   2.641  0.0000  0.0000  0.0684
 1516SOL     OW 6136   0.893   4.008   2.792  0.0000  0.0000  0.2848
 1516SOL    HW2 6137   0.957   3.963   2.737  0.0000  0.0000  0.2906
 1516SOL    HW3 6138   0.809   3.969   2.767  0.0000  0.0000  0.2770
 1516SOL    MW4 6139   0.890   3.997   2.781  0.0000  0.0000  0.2847
 1517SOL     OW 6140   0.888   4.266   2.677  0.0000  0.0000  0.1579
 1517SOL    HW2 6141   0.892   4.174   2.702  0.0000  0.0000  0.1617
 1517SOL    HW3 6142   0.884   4.265   2.581  0.0000  0.0000  0.1582
 1517SOL    MW4 6143   0.888   4.254   2.668  0.0000  0.0000  0.1585
 1518SOL     OW 6144   1.144   4.351   2.778  0.0000  0.0000  0.4367
 1518SOL    HW2 6145   1.137   4.378   2.869  0.0000  0.0000  0.4375
 1518SOL    HW3 6146   1.055   4.327   2.752  0.0000  0.0000  0.4461
 1518SOL    MW4 6147   1.131   4.351   2.786  0.0000  0.0000  0.4380
 1519SOL     OW 6148   1.559   4.649   2.621  0.1618  0.1483  0.1344
 1519SOL    HW2 6149   1.578   4.560   2.651  0.6650  0.2888  0.2280
 1519SOL    HW3 6150   1.576   4.646   2.527  0.8857  0.3427  0.2622
 1519SOL    MW4 6151   1.564   4.637   2.613  0.3238  0.1922  0.1636
 1520SOL     OW 6152   1.336   0.115   2.725 -0.2529 -0.3953 -0.1222
 1520SOL    HW2 6153   1.319   0.196   2.677 -0.9427 -1.1215 -1.1322
 1520SOL    HW3 6154   1.420   0.084   2.691 -0.2551 -0.3935 -0.1291
 1520SOL    MW4 6155   1.345   0.122   2.714 -0.3443 -0.4909 -0.2563
 1521SOL     OW 6156   1.323   0.373   2.600 -0.0019  0.1327 -0.7161
 1521SOL    HW2 6157   1.405   0.414   2.628  0.2988 -0.1597 -1.1507
 1521SOL    HW3 6158   1.257   0.406   2.660  0.6781 -0.7404  0.5162
 1521SOL    MW4 6159   1.325   0.383   2.611  0.1277 -0.0210 -0.6108
 1522SOL     OW 6160   1.545   0.504   2.672  0.0715  0.0594 -0.0817
 1522SOL    HW2 6161   1.631   0.472   2.644  0.0603 -1.6544  1.7460
 1522SOL    HW3 6162   1.547   0.598   2.653  2.4529  0.1031  0.2274
 1522SOL    MW4 6163   1.557   0.512   2.666  0.3842 -0.1609  0.2003
 1523SOL     OW 6164   1.608   0.782   2.685  0.3176 -0.1889  0.7161
 1523SOL    HW2 6165   1.541   0.842   2.717  1.5392  1.3490  0.4505
 1523SOL    HW3 6166   1.587   0.770   2.592 -0.9715 -1.6215  1.1655
 1523SOL    MW4 6167   1.597   0.788   2.677  0.3086 -0.1751  0.7405
 1524SOL     OW 6168   1.365   0.921   2.741  0.0882 -0.3567 -0.0946
 1524SOL    HW2 6169   1.336   0.913   2.832 -0.6263 -1.4642 -0.4012
 1524SOL    HW3 6170   1.343   1.011   2.716 -1.3527 -0.5781  0.2957
 1524SOL    MW4 6171   1.358   0.932   2.750 -0.1962 -0.5320 -0.0834
 1525SOL     OW 6172   1.336   1.177   2.625  0.1092 -0.0097 -0.6334
 1525SOL    HW2 6173   1.417   1.215   2.658 -0.3171  0.0130  0.4097
 1525SOL    HW3 6174   1.267   1.218   2.677 -0.7089  1.0849 -2.4941
 1525SOL    MW4 6175   1.337   1.188   2.636 -0.0550  0.1378 -0.7412
 1526SOL     OW 6176   1.580   1.300   2.724 -0.0264  0.0937  0.3903
 1526SOL    HW2 6177   1.573   1.276   2.816 -1.4697 -1.7108 -0.1681
 1526SOL    HW3 6178   1.659   1.256   2.693 -0.1719 -0.2535  0.5044
 1526SOL    MW4 6179   1.589   1.291   2.732 -0.2359 -0.1901  0.3314
 1527SOL     OW 6180   1.591   1.562   2.651  0.0184  0.2152 -0.5897
 1527SOL    HW2 6181   1.592   1.473   2.685 -0.5162  0.2182 -0.5604
 1527SOL    HW3 6182   1.576   1.552   2.557  1.0157  0.2282 -0.7530
 1527SOL    MW4 6183   1.589   1.549   2.643  0.0795  0.2173 -0.6073
 1528SOL     OW 6184   1.383   1.704   2.762 -0.3577 -0.0603  0.2022
 1528SOL    HW2 6185   1.462   1.668   2.721 -0.8605 -1.1423  0.1672
 1528SOL    HW3 6186   1.315   1.641   2.741 -1.4484  1.3538 -0.5800
 1528SOL    MW4 6187   1.385   1.691   2.754 -0.5680 -0.0165  0.0944
 1529SOL     OW 6188   1.311   1.943   2.643  0.2951 -0.1037 -0.1063
 1529SOL    HW2 6189   1.329   1.855   2.675 -1.4925 -0.2101  0.6425
 1529SOL    HW3 6190   1.318   1.936   2.548  1.8345 -0.6507  0.0321
 1529SOL    MW4 6191   1.314   1.931   2.634  0.2625 -0.1899  0.0107
 1530SOL     OW 6192   1.514   2.095   2.761  0.3725 -0.4590 -0.0061
 1530SOL    HW2 6193   1.532   2.162   2.696 -0.5641 -0.7245 -0.5629
 1530SOL    HW3 6194   1.438   2.048   2.726 -0.2509 -0.5052  1.3539
 1530SOL    MW4 6195   1.506   2.097   2.748  0.1668 -0.5000  0.0999
 1531SOL     OW 6196   1.556   2.330   2.596  0.0397  0.3865  0.1808
 1531SOL    HW2 6197   1.639   2.361   2.634  0.9751  0.1006 -1.5692
 1531SOL    HW3 6198   1.489   2.367   2.653  1.3732  0.4306  1.7793
 1531SOL    MW4 6199   1.558   2.339   2.609  0.3390  0.3545  0.1609
 1532SOL     OW 6200   1.323   2.432   2.735 -0.1529 -0.1976 -0.2181
 1532SOL    HW2 6201   1.319   2.527   2.725 -2.9849 -0.1909  0.6034
 1532SOL    HW3 6202   1.312   2.417   2.829  0.0926 -1.3569 -0.3595
 1532SOL    MW4 6203   1.321   2.442   2.746 -0.4942 -0.3500 -0.1285
 1533SOL     OW 6204   1.327   2.705   2.648  0.3067  0.2854 -0.3686
 1533SOL    HW2 6205   1.406   2.751   2.679 -0.2745  0.8416  0.3179
 1533SOL    HW3 6206   1.338   2.700   2.553  1.6516 -0.5533 -0.1810
 1533SOL    MW4 6207   1.339   2.711   2.640  0.4073  0.2484 -0.2532
 1534SOL     OW 6208   1.537   2.859   2.766  0.3148  0.0563 -0.5303
 1534SOL    HW2 6209   1.534   2.850   2.861  1.3852  0.8174 -0.4100
 1534SOL    HW3 6210   1.618   2.815   2.740 -0.7488 -1.4711 -1.2573
 1534SOL    MW4 6211   1.548   2.852   2.775  0.3157 -0.0448 -0.6101
 1535SOL     OW 6212   1.574   3.115   2.670 -0.2389 -0.0945 -0.0097
 1535SOL    HW2 6213   1.659   3.143   2.706  0.5595 -1.5993 -0.6523
 1535SOL    HW3 6214   1.573   3.020   2.683 -0.5756 -0.4799 -2.5469
 1535SOL    MW4 6215   1.585   3.106   2.677 -0.1779 -0.3440 -0.4294
 1536SOL     OW 6216   1.363   3.245   2.782  0.1880  0.2083  0.2376
 1536SOL    HW2 6217   1.441   3.216   2.735  0.5790 -0.6305  1.3968
 1536SOL    HW3 6218   1.294   3.186   2.753  0.5958 -0.7908  1.2727
 1536SOL    MW4 6219   1.365   3.233   2.772  0.2934 -0.0341  0.5271
 1537SOL     OW 6220   1.327   3.453   2.612 -0.1368 -0.1975  0.0936
 1537SOL    HW2 6221   1.322   3.376   2.668 -3.2772 -2.1776 -2.6830
 1537SOL    HW3 6222   1.268   3.516   2.652 -1.5406 -1.1971 -0.3691
 1537SOL    MW4 6223   1.319   3.451   2.624 -0.7362 -0.5908 -0.3338
 1538SOL     OW 6224   1.578   3.599   2.734  0.0799  0.0607  0.0300
 1538SOL    HW2 6225   1.652   3.542   2.715  0.0463  0.2959 -0.8504
 1538SOL    HW3 6226   1.501   3.542   2.725  0.0828  0.1033 -0.2887
 1538SOL    MW4 6227   1.577   3.584   2.730  0.0758  0.0975 -0.1280
 1539SOL     OW 6228   1.576   3.869   2.629  0.1832 -0.5510  0.8002
 1539SOL    HW2 6229   1.494   3.904   2.664 -0.0512 -1.6279  1.3331
 1539SOL    HW3 6230   1.587   3.785   2.672  1.1807 -0.7631  0.1514
 1539SOL    MW4 6231   1.567   3.863   2.639  0.2840 -0.7212  0.7846
 1540SOL     OW 6232   1.339   3.967   2.749  0.6588 -0.2881  0.4342
 1540SOL    HW2 6233   1.344   3.965   2.844  2.0156  1.1883  0.4121
 1540SOL    HW3 6234   1.358   4.057   2.725 -0.6372 -0.4004 -1.2021
 1540SOL    MW4 6235   1.342   3.978   2.758  0.6667 -0.1082  0.2153
 1541SOL     OW 6236   1.366   4.242   2.667  0.1622  0.8599 -0.5754
 1541SOL    HW2 6237   1.284   4.268   2.708  0.3901  0.3984  0.1753
 1541SOL    HW3 6238   1.350   4.250   2.573 -0.2352  2.2852 -0.3840
 1541SOL    MW4 6239   1.353   4.246   2.660  0.1397  0.9871 -0.4511
 1542SOL     OW 6240   1.589   4.369   2.734 -0.1284  0.3114 -0.0336
 1542SOL    HW2 6241   1.585   4.378   2.830 -0.7296  0.8467 -0.1040
 1542SOL    HW3 6242   1.504   4.331   2.711 -0.3214  0.9901 -0.4433
 1542SOL    MW4 6243   1.577   4.365   2.744 -0.2333  0.4716 -0.0968
 1543SOL     OW 6244   1.990   4.632   2.702 -0.0353  0.0365  0.4849
 1543SOL    HW2 6245   2.069   4.677   2.733  0.7364 -0.9856  0.0460
 1543SOL    HW3 6246   1.995   4.638   2.607 -0.9785  0.7765  0.4760
 1543SOL    MW4 6247   2.001   4.639   2.693 -0.0579 -0.0005  0.4258
 1544SOL     OW 6248   1.750   0.124   2.752 -0.0862 -0.6232  0.2381
 1544SOL    HW2 6249   1.830   0.083   2.718 -0.1694  0.6348 -1.5054
 1544SOL    HW3 6250   1.680   0.090   2.698 -0.0498  2.4362 -1.8476
 1544SOL    MW4 6251   1.752   0.114   2.741 -0.0925 -0.0536 -0.2670
 1545SOL     OW 6252   1.791   0.381   2.642  0.4656 -0.4042  0.1735
 1545SOL    HW2 6253   1.867   0.424   2.682  1.0203 -1.8732  0.7067
 1545SOL    HW3 6254   1.783   0.298   2.689 -1.4978 -0.2382  0.1570
 1545SOL    MW4 6255   1.800   0.376   2.654  0.2797 -0.5761  0.2418
 1546SOL     OW 6256   2.026   0.491   2.765  0.2946 -0.0534  0.4704
 1546SOL    HW2 6257   2.026   0.579   2.728 -0.2874 -0.4657 -0.5191
 1546SOL    HW3 6258   2.097   0.445   2.721 -1.0007 -0.8311 -0.8558
 1546SOL    MW4 6259   2.035   0.496   2.755  0.0467 -0.2105  0.1650
 1547SOL     OW 6260   2.017   0.745   2.659 -0.0231  0.1022  0.0100
 1547SOL    HW2 6261   1.954   0.805   2.700  1.4386  0.8571  1.2387
 1547SOL    HW3 6262   2.008   0.760   2.565 -0.0754  1.8489  0.2857
 1547SOL    MW4 6263   2.008   0.755   2.652  0.1626  0.4323  0.2084
 1548SOL     OW 6264   1.835   0.912   2.759  0.0391 -0.0166 -0.7477
 1548SOL    HW2 6265   1.833   0.900   2.854  0.3463  3.8650 -0.1718
 1548SOL    HW3 6266   1.756   0.868   2.727 -0.9698  0.1017  1.5127
 1548SOL    MW4 6267   1.825   0.904   2.767 -0.0534  0.5111 -0.3736
 1549SOL     OW 6268   1.818   1.178   2.638 -0.0644 -0.2392  0.1881
 1549SOL    HW2 6269   1.871   1.225   2.701  0.3670  0.1054 -0.4267
 1549SOL    HW3 6270   1.842   1.086   2.650 -1.5015 -0.4243  1.9478
 1549SOL    MW4 6271   1.828   1.172   2.648 -0.1969 -0.2183  0.3395
 1550SOL     OW 6272   2.019   1.346   2.767 -0.0685 -0.5939  0.4179
 1550SOL    HW2 6273   2.004   1.323   2.859  2.6139 -0.0546  1.0244
 1550SOL    HW3 6274   2.093   1.291   2.741  1.4499  1.7660 -0.3692
 1550SOL    MW4 6275   2.027   1.335   2.776  0.4857 -0.2112  0.3941
 1551SOL     OW 6276   2.006   1.582   2.632 -0.0468  0.0316  0.4340
 1551SOL    HW2 6277   1.939   1.635   2.677 -0.5165  0.4155 -0.6791
 1551SOL    HW3 6278   2.007   1.499   2.679 -0.7486  0.3129  0.9553
 1551SOL    MW4 6279   1.997   1.578   2.644 -0.2013  0.1194  0.3560
 1552SOL     OW 6280   1.803   1.697   2.737 -0.2186 -0.1034  0.1148
 1552SOL    HW2 6281   1.794   1.690   2.832 -0.0578 -0.1527  0.1279
 1552SOL    HW3 6282   1.733   1.642   2.702  0.5142 -1.1075  0.2166
 1552SOL    MW4 6283   1.793   1.689   2.744 -0.1007 -0.2424  0.1299
 1553SOL     OW 6284   1.730   1.951   2.654 -0.1385  0.6140  0.0816
 1553SOL    HW2 6285   1.652   1.980   2.702 -0.6812  0.7032 -0.8305
 1553SOL    HW3 6286   1.739   1.859   2.678  0.0356  0.8537  0.9370
 1553SOL    MW4 6287   1.721   1.943   2.664 -0.1870  0.6573  0.0739
 1554SOL     OW 6288   1.982   2.028   2.763  0.0985 -0.2996 -0.2667
 1554SOL    HW2 6289   2.001   2.010   2.855 -0.7216  0.2080  0.0043
 1554SOL    HW3 6290   1.892   1.998   2.751 -0.2041  0.7247 -0.5974
 1554SOL    MW4 6291   1.973   2.022   2.774 -0.0496 -0.0975 -0.2747
 1555SOL     OW 6292   1.987   2.306   2.673  0.0483 -0.2417  0.3466
 1555SOL    HW2 6293   1.978   2.215   2.701  0.4055 -0.2258  0.5170
 1555SOL    HW3 6294   2.076   2.331   2.700 -0.0495  0.1570  0.3056
 1555SOL    MW4 6295   1.998   2.297   2.680  0.0826 -0.1869  0.3636
 1556SOL     OW 6296   1.769   2.463   2.746  0.5525 -0.4128 -0.1173
 1556SOL    HW2 6297   1.767   2.454   2.841  0.4420 -2.9364 -0.3144
 1556SOL    HW3 6298   1.853   2.425   2.720  0.9335  0.9904 -0.9690
 1556SOL    MW4 6299   1.780   2.457   2.755  0.5882 -0.5608 -0.2558
 1557SOL     OW 6300   1.748   2.724   2.658 -0.1310 -0.1382  0.1534
 1557SOL    HW2 6301   1.754   2.635   2.692 -1.1219  0.3035  1.5300
 1557SOL    HW3 6302   1.750   2.714   2.563  0.7288 -1.5472  0.3168
 1557SOL    MW4 6303   1.749   2.711   2.650 -0.1482 -0.2658  0.3564
 1558SOL     OW 6304   1.988   2.844   2.761 -0.1457  0.0629 -0.5191
 1558SOL    HW2 6305   2.055   2.800   2.709  1.2121  2.5114 -0.8892
 1558SOL    HW3 6306   1.906   2.827   2.714  0.8221  0.7618 -2.5105
 1558SOL    MW4 6307   1.986   2.836   2.748  0.1612  0.4783 -0.8307
 1559SOL     OW 6308   2.049   3.099   2.662  0.5791  0.1750 -0.1257
 1559SOL    HW2 6309   2.027   3.013   2.697 -0.2432  0.3447 -0.2121
 1559SOL    HW3 6310   2.026   3.093   2.569 -0.7003  0.8905  0.1309
 1559SOL    MW4 6311   2.043   3.087   2.654  0.3016  0.2918 -0.1032
 1560SOL     OW 6312   1.828   3.206   2.779 -0.3044  0.0024 -0.4588
 1560SOL    HW2 6313   1.821   3.301   2.767 -1.2852 -0.0281 -0.2377
 1560SOL    HW3 6314   1.904   3.180   2.727 -0.2360  0.8616 -0.7960
 1560SOL    MW4 6315   1.837   3.215   2.770 -0.4249  0.1118 -0.4742
 1561SOL     OW 6316   1.825   3.466   2.685  0.2819 -0.2614  0.0457
 1561SOL    HW2 6317   1.890   3.516   2.735 -0.2644  0.1637  0.3450
 1561SOL    HW3 6318   1.841   3.489   2.594 -0.6853  1.3551  0.2602
 1561SOL    MW4 6319   1.836   3.476   2.680  0.0821  0.0079  0.1132
 1562SOL     OW 6320   2.025   3.634   2.753  0.0986  0.3088 -0.1862
 1562SOL    HW2 6321   2.036   3.623   2.847  0.2640  0.3639 -0.1999
 1562SOL    HW3 6322   2.087   3.573   2.713 -0.6103 -0.3807 -0.2594
 1562SOL    MW4 6323   2.034   3.625   2.760  0.0269  0.2251 -0.1976
 1563SOL     OW 6324   2.018   3.893   2.655 -0.5883  0.0990 -0.7762
 1563SOL    HW2 6325   1.942   3.935   2.696 -1.7266 -1.6151 -1.1033
 1563SOL    HW3 6326   2.015   3.803   2.686  1.0469 -0.1086 -1.1945
 1563SOL    MW4 6327   2.008   3.887   2.665 -0.5229 -0.1547 -0.8745
 1564SOL     OW 6328   1.786   4.015   2.792 -0.2133 -0.2027  0.2665
 1564SOL    HW2 6329   1.795   4.093   2.737 -0.1394 -0.7353 -0.4819
 1564SOL    HW3 6330   1.705   3.974   2.761 -0.1090 -0.5649  0.4791
 1564SOL    MW4 6331   1.776   4.020   2.780 -0.1898 -0.3209  0.1957
 1565SOL     OW 6332   1.810   4.224   2.624 -0.0421 -0.3147 -0.4761
 1565SOL    HW2 6333   1.723   4.259   2.645 -0.5134 -1.5527 -0.3715
 1565SOL    HW3 6334   1.821   4.242   2.531  0.4076  1.6020 -0.0767
 1565SOL    MW4 6335   1.800   4.231   2.614 -0.0449 -0.2251 -0.4098
 1566SOL     OW 6336   2.000   4.369   2.772 -0.1621 -0.1710  0.0820
 1566SOL    HW2 6337   1.922   4.327   2.739  0.1812  0.7482 -1.9632
 1566SOL    HW3 6338   1.991   4.461   2.746  1.9911 -0.2233 -0.9289
 1566SOL    MW4 6339   1.989   4.376   2.764  0.1673 -0.0567 -0.3211
 1567SOL     OW 6340   2.434   4.637   2.638  0.2974  0.1041 -0.6382
 1567SOL    HW2 6341   2.516   4.667   2.677  0.9419 -2.5881  0.1677
 1567SOL    HW3 6342   2.450   4.640   2.544  0.3058  2.2614 -0.6073
 1567SOL    MW4 6343   2.447   4.642   2.631  0.3836  0.0334 -0.5276
 1568SOL     OW 6344   2.224   0.109   2.752  0.2497 -0.0748 -0.2062
 1568SOL    HW2 6345   2.245   0.117   2.845  1.0063  1.6513 -0.5053
 1568SOL    HW3 6346   2.287   0.045   2.719  0.6428  0.0612  0.2674
 1568SOL    MW4 6347   2.235   0.101   2.760  0.4015  0.1709 -0.1833
 1569SOL     OW 6348   2.233   0.370   2.640 -0.0873  0.2630 -0.5963
 1569SOL    HW2 6349   2.228   0.278   2.665  1.8920  0.7431  1.8195
 1569SOL    HW3 6350   2.232   0.370   2.545 -2.0611 -2.1048 -0.6136
 1569SOL    MW4 6351   2.232   0.358   2.631 -0.0870  0.0139 -0.2799
 1570SOL     OW 6352   2.467   0.463   2.747  0.0858  0.0275  0.5763
 1570SOL    HW2 6353   2.480   0.556   2.727  1.4705 -0.0541  1.1079
 1570SOL    HW3 6354   2.384   0.442   2.704  0.6460  1.0557 -1.0724
 1570SOL    MW4 6355   2.458   0.472   2.738  0.3421  0.1524  0.4294
 1571SOL     OW 6356   2.471   0.751   2.647  1.0116  0.0047  0.0414
 1571SOL    HW2 6357   2.394   0.796   2.682 -0.2666 -1.5536 -0.6808
 1571SOL    HW3 6358   2.472   0.773   2.554  0.5315 -1.1963 -0.2633
 1571SOL    MW4 6359   2.461   0.760   2.639  0.7799 -0.3593 -0.0942
 1572SOL     OW 6360   2.258   0.862   2.770  0.1830 -0.3786 -0.0116
 1572SOL    HW2 6361   2.248   0.865   2.865  0.1474  1.3665 -0.0519
 1572SOL    HW3 6362   2.181   0.813   2.740  0.6002 -1.6117  0.9046
 1572SOL    MW4 6363   2.246   0.856   2.778  0.2337 -0.3111  0.1037
 1573SOL     OW 6364   2.236   1.175   2.697  0.2002 -0.1747 -0.0992
 1573SOL    HW2 6365   2.237   1.083   2.721 -0.4798 -0.0956  0.2433
 1573SOL    HW3 6366   2.254   1.176   2.603  0.6207 -0.6257 -0.0251
 1573SOL    MW4 6367   2.239   1.163   2.688  0.1662 -0.2238 -0.0441
 1574SOL     OW 6368   2.470   1.276   2.804 -0.3245 -0.2515 -0.8581
 1574SOL    HW2 6369   2.535   1.228   2.752 -1.4955 -2.3215 -0.4708
 1574SOL    HW3 6370   2.386   1.241   2.774 -1.0874 -0.2064  1.2090
 1574SOL    MW4 6371   2.468   1.265   2.793 -0.5796 -0.5187 -0.5343
 1575SOL     OW 6372   2.456   1.545   2.692 -0.3695  0.1313  0.2265
 1575SOL    HW2 6373   2.381   1.597   2.720 -1.7650 -1.3878 -0.5953
 1575SOL    HW3 6374   2.446   1.462   2.738  1.6587  0.4271  1.2788
 1575SOL    MW4 6375   2.445   1.541   2.702 -0.2859 -0.0302  0.2568
 1576SOL     OW 6376   2.221   1.673   2.775 -0.1072  0.3598  0.4625
 1576SOL    HW2 6377   2.224   1.762   2.739  1.1040  0.7501  1.5201
 1576SOL    HW3 6378   2.155   1.629   2.721  0.2140  1.5133 -0.9155
 1576SOL    MW4 6379   2.212   1.679   2.763  0.0949  0.5634  0.4201
 1577SOL     OW 6380   2.242   1.936   2.679 -0.0791 -0.0733  0.0952
 1577SOL    HW2 6381   2.151   1.957   2.699 -0.4983 -0.7133 -1.0732
 1577SOL    HW3 6382   2.248   1.943   2.584  0.4039 -2.6153 -0.1076
 1577SOL    MW4 6383   2.231   1.940   2.669 -0.0706 -0.4930 -0.0858
 1578SOL     OW 6384   2.474   2.049   2.762  0.1342  0.3837  0.4029
 1578SOL    HW2 6385   2.464   2.140   2.733 -1.2680  0.1677  0.1666
 1578SOL    HW3 6386   2.388   2.010   2.747  1.3647 -1.6506 -1.7593
 1578SOL    MW4 6387   2.461   2.056   2.756  0.1113  0.0870  0.0863
 1579SOL     OW 6388   2.450   2.295   2.665  0.1385  0.0296 -0.0680
 1579SOL    HW2 6389   2.526   2.345   2.694  0.0094  0.5261 -0.5856
 1579SOL    HW3 6390   2.443   2.312   2.571 -0.4260 -0.2570 -0.0837
 1579SOL    MW4 6391   2.459   2.304   2.657  0.0470  0.0575 -0.1383
 1580SOL     OW 6392   2.230   2.440   2.730  0.3091 -0.1901  0.0156
 1580SOL    HW2 6393   2.250   2.436   2.824  2.7134  2.0562 -0.3445
 1580SOL    HW3 6394   2.292   2.381   2.689 -0.3665 -0.7375 -0.2358
 1580SOL    MW4 6395   2.241   2.432   2.737  0.5372  0.0341 -0.0653
 1581SOL     OW 6396   2.202   2.722   2.642  0.3297  0.2513  0.2144
 1581SOL    HW2 6397   2.280   2.754   2.686  1.4240 -1.2245 -0.5891
 1581SOL    HW3 6398   2.190   2.633   2.677 -0.8902  0.4169  0.2255
 1581SOL    MW4 6399   2.211   2.714   2.653  0.3133  0.0780  0.1099
 1582SOL     OW 6400   2.433   2.827   2.781 -0.2835  0.0359 -0.3806
 1582SOL    HW2 6401   2.507   2.777   2.747 -0.5684  0.2510 -1.3310
 1582SOL    HW3 6402   2.444   2.914   2.742 -1.1291  0.0213 -0.6466
 1582SOL    MW4 6403   2.445   2.832   2.772 -0.4327  0.0625 -0.5412
 1583SOL     OW 6404   2.477   3.076   2.675  0.2719  0.2386  0.4624
 1583SOL    HW2 6405   2.394   3.118   2.697  0.3942  0.0903  1.2262
 1583SOL    HW3 6406   2.471   3.058   2.581 -1.8135 -2.5310  1.0634
 1583SOL    MW4 6407   2.465   3.079   2.665  0.0131 -0.1462  0.6421
 1584SOL     OW 6408   2.262   3.224   2.765  0.1114  0.0769  0.0301
 1584SOL    HW2 6409   2.253   3.198   2.857  0.3728 -1.0665 -0.2518
 1584SOL    HW3 6410   2.201   3.167   2.719 -2.3507  2.8110 -0.1648
 1584SOL    MW4 6411   2.253   3.213   2.771 -0.1791  0.2868 -0.0327
 1585SOL     OW 6412   2.248   3.471   2.654 -0.6305 -0.3710  0.0373
 1585SOL    HW2 6413   2.310   3.531   2.695 -1.8402  0.1540  1.0977
 1585SOL    HW3 6414   2.265   3.386   2.695  0.6258 -0.6519 -0.9951
 1585SOL    MW4 6415   2.259   3.468   2.665 -0.6242 -0.3390  0.0412
 1586SOL     OW 6416   2.456   3.630   2.738 -0.1910  0.0858  0.4535
 1586SOL    HW2 6417   2.455   3.643   2.833  0.0692  0.7724  0.3662
 1586SOL    HW3 6418   2.474   3.717   2.702  1.8026 -0.5399 -0.1477
 1586SOL    MW4 6419   2.458   3.643   2.746  0.1061  0.0939  0.3626
 1587SOL     OW 6420   2.475   3.871   2.642 -0.0460 -0.2823 -0.5728
 1587SOL    HW2 6421   2.553   3.923   2.663  0.4071 -1.3654  0.4918
 1587SOL    HW3 6422   2.404   3.915   2.689 -0.0418  0.6145 -1.4119
 1587SOL    MW4 6423   2.476   3.884   2.651  0.0143 -0.3068 -0.5431
 1588SOL     OW 6424   2.255   4.006   2.750 -0.1468 -0.4074 -0.0531
 1588SOL    HW2 6425   2.265   4.007   2.845  1.6311 -0.8532 -0.2257
 1588SOL    HW3 6426   2.177   3.953   2.735 -0.4892 -0.2641  1.1573
 1588SOL    MW4 6427   2.246   3.999   2.761  0.0424 -0.4480  0.0839
 1589SOL     OW 6428   2.239   4.258   2.643 -0.2221  0.1645  0.1103
 1589SOL    HW2 6429   2.239   4.166   2.669  0.1159 -0.0526 -0.6451
 1589SOL    HW3 6430   2.167   4.297   2.694 -1.0003 -0.7245 -0.2788
 1589SOL    MW4 6431   2.229   4.251   2.653 -0.2801  0.0191 -0.0408
 1590SOL     OW 6432   2.485   4.390   2.713 -0.2080  0.1359  0.2159
 1590SOL    HW2 6433   2.411   4.339   2.680 -0.0921 -0.4373  0.8316
 1590SOL    HW3 6434   2.468   4.479   2.683 -0.5129 -0.2257 -0.7035
 1590SOL    MW4 6435   2.473   4.395   2.704 -0.2327  0.0124  0.1755
 1591SOL     OW 6436   2.900   4.625   2.679  0.2779  0.1913  0.0045
 1591SOL    HW2 6437   2.987   4.661   2.695  0.7892 -0.6360 -0.8389
 1591SOL    HW3 6438   2.892   4.622   2.583 -0.8803  0.7545  0.0756
 1591SOL    MW4 6439   2.910   4.629   2.668  0.1926  0.1569 -0.0975
 1592SOL     OW 6440   2.668   0.072   2.756  0.0235  0.1491 -0.2316
 1592SOL    HW2 6441   2.653   0.080   2.851  1.8877 -0.0635  0.0985
 1592SOL    HW3 6442   2.759   0.046   2.749 -0.3225 -0.5740 -2.0845
 1592SOL    MW4 6443   2.678   0.070   2.768  0.2241  0.0257 -0.4325
 1593SOL     OW 6444   2.658   0.312   2.607  0.5493  0.1589 -0.1311
 1593SOL    HW2 6445   2.678   0.233   2.657 -0.0857  0.2830  0.3273
 1593SOL    HW3 6446   2.586   0.353   2.655 -0.7942 -0.2802 -1.7247
 1593SOL    MW4 6447   2.651   0.307   2.620  0.2885  0.1173 -0.2806
 1594SOL     OW 6448   2.911   0.746   2.648  0.2545  0.2560 -0.1189
 1594SOL    HW2 6449   2.836   0.794   2.683 -0.3009 -0.9021  0.3289
 1594SOL    HW3 6450   2.883   0.654   2.651  1.7403 -0.1862  0.1421
 1594SOL    MW4 6451   2.897   0.740   2.653  0.3769  0.0448 -0.0253
 1595SOL     OW 6452   3.134   0.872   2.729  0.7517 -0.6304 -0.0801
 1595SOL    HW2 6453   3.125   0.855   2.823 -0.4382  0.9086  0.1077
 1595SOL    HW3 6454   3.066   0.817   2.689  2.5625 -2.8067 -0.2368
 1595SOL    MW4 6455   3.124   0.862   2.736  0.8335 -0.7145 -0.0763
 1596SOL     OW 6456   2.687   0.872   2.755 -0.0351  0.9894 -0.5274
 1596SOL    HW2 6457   2.676   0.868   2.850  1.1466 -1.0864 -0.4628
 1596SOL    HW3 6458   2.604   0.839   2.719 -0.1620  0.9784 -0.2210
 1596SOL    MW4 6459   2.675   0.867   2.763  0.1040  0.7141 -0.4785
 1597SOL     OW 6460   2.673   1.138   2.675 -0.2486  0.0722 -0.3205
 1597SOL    HW2 6461   2.751   1.180   2.710  0.3985 -0.9259 -0.5462
 1597SOL    HW3 6462   2.676   1.049   2.708 -1.3502  0.0470 -0.2528
 1597SOL    MW4 6463   2.684   1.132   2.684 -0.3085 -0.0629 -0.3414
 1598SOL     OW 6464   2.898   1.276   2.762 -0.3540  0.6808  0.0569
 1598SOL    HW2 6465   2.904   1.286   2.857 -0.2380 -0.1813  0.1471
 1598SOL    HW3 6466   2.979   1.231   2.738 -0.0674  1.5092 -0.5441
 1598SOL    MW4 6467   2.909   1.271   2.772 -0.3009  0.6763 -0.0107
 1599SOL     OW 6468   2.923   1.532   2.694  0.4854 -0.0000  0.3813
 1599SOL    HW2 6469   2.843   1.572   2.728  0.6907  0.0391  0.8186
 1599SOL    HW3 6470   2.918   1.440   2.720  0.5876  0.0045  0.4182
 1599SOL    MW4 6471   2.912   1.525   2.702  0.5260  0.0057  0.4439
 1600SOL     OW 6472   2.708   1.670   2.794  0.1406 -0.0248  0.1975
 1600SOL    HW2 6473   2.710   1.674   2.889 -0.6333  1.4347  0.1611
 1600SOL    HW3 6474   2.629   1.620   2.773  0.0286  0.1116  0.3009
 1600SOL    MW4 6475   2.698   1.664   2.804  0.0236  0.1856  0.2062
 1601SOL     OW 6476   2.701   1.905   2.663  0.1852  0.4446  0.0281
 1601SOL    HW2 6477   2.700   1.814   2.694  0.2611  0.1695 -0.7672
 1601SOL    HW3 6478   2.616   1.940   2.689  0.3116  0.2680  0.6918
 1601SOL    MW4 6479   2.689   1.897   2.670  0.2120  0.3852  0.0107
 1602SOL     OW 6480   2.907   2.076   2.758 -0.2639 -0.1416 -0.4737
 1602SOL    HW2 6481   2.927   2.144   2.693  1.8109 -1.9505 -1.7924
 1602SOL    HW3 6482   2.835   2.026   2.718 -1.6734  1.1474  0.4199
 1602SOL    MW4 6483   2.900   2.078   2.744 -0.1760 -0.2100 -0.5298
 1603SOL     OW 6484   2.912   2.313   2.613  0.3792 -0.1899  0.1097
 1603SOL    HW2 6485   2.991   2.342   2.658  0.6053 -0.7476  0.0750
 1603SOL    HW3 6486   2.841   2.364   2.653  0.6298 -0.3962  0.8063
 1603SOL    MW4 6487   2.913   2.324   2.624  0.4420 -0.2904  0.1969
 1604SOL     OW 6488   2.684   2.445   2.718 -0.6772  0.1877 -0.0033
 1604SOL    HW2 6489   2.676   2.454   2.813  0.9716  0.4751  0.1163
 1604SOL    HW3 6490   2.657   2.530   2.683  0.1772  0.5941  0.3024
 1604SOL    MW4 6491   2.679   2.457   2.726 -0.3469  0.2792  0.0527
 1605SOL     OW 6492   2.667   2.719   2.661 -0.2569 -0.3912  0.1468
 1605SOL    HW2 6493   2.751   2.756   2.690 -0.0579 -0.7438  0.0166
 1605SOL    HW3 6494   2.673   2.718   2.566 -0.9509  0.8543  0.0745
 1605SOL    MW4 6495   2.679   2.724   2.652 -0.3223 -0.2732  0.1199
 1606SOL     OW 6496   2.896   2.837   2.780  0.6978  0.2167 -0.0819
 1606SOL    HW2 6497   2.892   2.842   2.875 -1.6988 -0.4650 -0.1088
 1606SOL    HW3 6498   2.976   2.788   2.761  0.8541 -0.1908  1.6121
 1606SOL    MW4 6499   2.906   2.831   2.790  0.4025  0.0730  0.1378
 1607SOL     OW 6500   2.906   3.090   2.667  0.2506  0.2222 -0.1952
 1607SOL    HW2 6501   2.832   3.134   2.710  0.8391  0.9676  0.0671
 1607SOL    HW3 6502   2.901   3.000   2.697  0.5606  0.6920  1.3122
 1607SOL    MW4 6503   2.895   3.084   2.676  0.3688  0.3829  0.0384
 1608SOL     OW 6504   2.691   3.217   2.787 -0.2052  0.6935  0.0522
 1608SOL    HW2 6505   2.700   3.200   2.881 -0.3939  0.2603 -0.0100
 1608SOL    HW3 6506   2.608   3.176   2.763  0.6805 -0.6870 -0.6629
 1608SOL    MW4 6507   2.681   3.210   2.796 -0.1135  0.4542 -0.0503
 1609SOL     OW 6508   2.689   3.467   2.644  0.1424  0.0333 -0.2907
 1609SOL    HW2 6509   2.616   3.525   2.670  0.7657  0.0146  1.5642
 1609SOL    HW3 6510   2.678   3.389   2.699  0.1053 -1.0534 -1.8207
 1609SOL    MW4 6511   2.678   3.465   2.655  0.2196 -0.1128 -0.2477
 1610SOL     OW 6512   2.911   3.618   2.734  0.0590  0.1267  0.8988
 1610SOL    HW2 6513   2.920   3.594   2.826 -1.1061  0.5897  1.1378
 1610SOL    HW3 6514   2.840   3.562   2.702  1.1266 -0.7544  0.0150
 1610SOL    MW4 6515   2.903   3.607   2.742  0.0460  0.0713  0.8137
 1611SOL     OW 6516   2.928   3.868   2.614 -0.3327 -0.1624 -0.0084
 1611SOL    HW2 6517   3.009   3.911   2.642  0.0200 -0.1956 -0.9462
 1611SOL    HW3 6518   2.934   3.780   2.650 -0.8186  0.3922  1.4908
 1611SOL    MW4 6519   2.939   3.862   2.622 -0.3505 -0.0937  0.0656
 1612SOL     OW 6520   2.705   4.012   2.723 -0.7305  0.0353 -0.5112
 1612SOL    HW2 6521   2.706   4.097   2.679  0.2065  0.7770  0.9246
 1612SOL    HW3 6522   2.780   3.965   2.687 -1.6076 -0.4384 -1.7601
 1612SOL    MW4 6523   2.715   4.017   2.712 -0.7226  0.0710 -0.4864
 1613SOL     OW 6524   2.705   4.261   2.609  0.7790  0.0855 -0.1302
 1613SOL    HW2 6525   2.789   4.288   2.647  0.3522  0.6500  0.4261
 1613SOL    HW3 6526   2.640   4.311   2.658  0.2035  0.6107 -1.4261
 1613SOL    MW4 6527   2.707   4.271   2.621  0.6468  0.2289 -0.2277
 1614SOL     OW 6528   2.961   4.374   2.730 -0.6818  0.6957  0.3009
 1614SOL    HW2 6529   2.973   4.359   2.824 -1.1327  1.9671  0.5675
 1614SOL    HW3 6530   2.936   4.466   2.723  1.1212  1.1062 -1.2275
 1614SOL    MW4 6531   2.959   4.384   2.742 -0.5031  0.9174  0.1345
 1615SOL     OW 6532   3.375   4.666   2.632 -0.0260 -0.0388  0.2021
 1615SOL    HW2 6533   3.377   4.575   2.663 -0.4891 -0.9038 -2.2369
 1615SOL    HW3 6534   3.303   4.705   2.681  0.4182 -0.8684  1.5600
 1615SOL    MW4 6535   3.366   4.659   2.643 -0.0284 -0.2623  0.0594
 1616SOL     OW 6536   3.131   0.090   2.753  0.2728 -0.3728  0.7959
 1616SOL    HW2 6537   3.135   0.080   2.848 -0.0712 -0.3823  0.8114
 1616SOL    HW3 6538   3.118   0.183   2.738  0.8566 -0.2995  0.7390
 1616SOL    MW4 6539   3.130   0.101   2.763  0.3047 -0.3644  0.7904
 1617SOL     OW 6540   3.133   0.356   2.716 -0.1863  0.2354  0.4290
 1617SOL    HW2 6541   3.049   0.399   2.734 -1.2983 -1.6448 -0.2466
 1617SOL    HW3 6542   3.137   0.350   2.621  0.3119 -0.5091  0.4986
 1617SOL    MW4 6543   3.123   0.361   2.706 -0.2673 -0.1109  0.3490
 1618SOL     OW 6544   3.386   0.446   2.768 -0.1325  0.3324  0.1868
 1618SOL    HW2 6545   3.372   0.539   2.752 -0.7525  0.3921  1.0582
 1618SOL    HW3 6546   3.299   0.406   2.762  0.1488 -0.2148 -0.3350
 1618SOL    MW4 6547   3.373   0.453   2.765 -0.1771  0.2681  0.2329
 1619SOL     OW 6548   3.384   0.723   2.412 -0.2198 -0.4223  0.1627
 1619SOL    HW2 6549   3.399   0.728   2.506 -0.5111 -0.7612  0.2291
 1619SOL    HW3 6550   3.382   0.629   2.393  0.6261 -0.3457 -0.3066
 1619SOL    MW4 6551   3.386   0.711   2.422 -0.1466 -0.4569  0.1094
 1620SOL     OW 6552   3.366   0.725   2.691 -0.4950  0.0396 -0.2610
 1620SOL    HW2 6553   3.283   0.772   2.690 -0.6271 -0.1491  1.1594
 1620SOL    HW3 6554   3.427   0.786   2.733 -0.0243 -0.0214 -0.8418
 1620SOL    MW4 6555   3.363   0.739   2.696 -0.4506  0.0067 -0.1502
 1621SOL     OW 6556   3.134   1.146   2.690  0.4158  0.0927 -0.0496
 1621SOL    HW2 6557   3.127   1.054   2.713  0.5754 -0.1643 -0.9802
 1621SOL    HW3 6558   3.158   1.145   2.597  0.0729  1.0753 -0.1499
 1621SOL    MW4 6559   3.136   1.134   2.680  0.3917  0.1885 -0.1855
 1622SOL     OW 6560   3.358   1.270   2.778 -0.0655  0.4055  0.1458
 1622SOL    HW2 6561   3.363   1.291   2.871  2.0531 -1.8001  0.5854
 1622SOL    HW3 6562   3.281   1.214   2.770 -1.0408  1.6940  0.3118
 1622SOL    MW4 6563   3.348   1.265   2.789  0.0851  0.2844  0.2258
 1623SOL     OW 6564   3.413   1.516   2.701  0.0265 -0.5098  0.0901
 1623SOL    HW2 6565   3.338   1.570   2.727 -0.5109 -1.4693  0.5706
 1623SOL    HW3 6566   3.383   1.426   2.714  0.9370 -0.9215 -0.6346
 1623SOL    MW4 6567   3.399   1.511   2.706  0.0756 -0.6907  0.0579
 1624SOL     OW 6568   3.171   1.664   2.726  0.5498  0.0288  0.1626
 1624SOL    HW2 6569   3.182   1.754   2.695  0.5800  0.1940  0.6452
 1624SOL    HW3 6570   3.078   1.646   2.715  0.8708 -0.5779 -1.8011
 1624SOL    MW4 6571   3.160   1.674   2.721  0.5963 -0.0293 -0.0329
 1625SOL     OW 6572   3.135   1.931   2.652 -0.2789  0.0769  0.1347
 1625SOL    HW2 6573   3.219   1.966   2.682  0.0706  0.6074 -1.3908
 1625SOL    HW3 6574   3.070   1.972   2.709  0.3336  1.2545  0.0154
 1625SOL    MW4 6575   3.138   1.941   2.663 -0.1519  0.3023 -0.0825
 1626SOL     OW 6576   3.376   2.032   2.782  0.2740 -0.0699 -0.1441
 1626SOL    HW2 6577   3.451   1.975   2.765 -1.2812 -1.9232 -0.8538
 1626SOL    HW3 6578   3.379   2.047   2.876  2.1637  0.7910 -0.3027
 1626SOL    MW4 6579   3.386   2.027   2.792  0.3181 -0.2010 -0.2584
 1627SOL     OW 6580   3.340   2.295   2.661  0.2101 -0.2991 -0.2558
 1627SOL    HW2 6581   3.415   2.339   2.701 -0.1405  1.0039 -0.9996
 1627SOL    HW3 6582   3.345   2.205   2.693  1.6294 -0.0219  0.3342
 1627SOL    MW4 6583   3.351   2.289   2.671  0.3510 -0.0908 -0.2761
 1628SOL     OW 6584   3.123   2.417   2.757  0.2541 -0.1306  0.2481
 1628SOL    HW2 6585   3.125   2.420   2.853 -2.0590 -0.4235  0.3383
 1628SOL    HW3 6586   3.202   2.369   2.733  0.5230 -0.6288  2.0324
 1628SOL    MW4 6587   3.134   2.411   2.767 -0.0155 -0.2353  0.4954
 1629SOL     OW 6588   3.123   2.692   2.669  0.2010 -0.2354 -0.4343
 1629SOL    HW2 6589   3.202   2.720   2.714 -0.5639 -0.2574  0.9470
 1629SOL    HW3 6590   3.108   2.602   2.700 -1.7024  0.6140  1.2010
 1629SOL    MW4 6591   3.131   2.684   2.679 -0.1509 -0.1261 -0.0365
 1630SOL     OW 6592   3.346   2.788   2.784 -0.2398 -0.1813  0.2600
 1630SOL    HW2 6593   3.367   2.810   2.875  0.0039  2.6653 -0.4589
 1630SOL    HW3 6594   3.430   2.763   2.746 -0.2350 -0.7510  0.6373
 1630SOL    MW4 6595   3.360   2.787   2.791 -0.2072  0.1190  0.2151
 1631SOL     OW 6596   3.360   3.071   2.673  0.1971 -0.7777 -0.4976
 1631SOL    HW2 6597   3.356   2.979   2.701 -0.5820 -0.7741 -0.6040
 1631SOL    HW3 6598   3.348   3.067   2.578  0.3601 -0.5801 -0.5255
 1631SOL    MW4 6599   3.358   3.058   2.664  0.1161 -0.7513 -0.5157
 1632SOL     OW 6600   3.123   3.198   2.779  0.3365  0.1963  0.6214
 1632SOL    HW2 6601   3.204   3.151   2.761  1.2698  2.1330 -0.3944
 1632SOL    HW3 6602   3.054   3.142   2.741  1.2975 -0.8481  0.3801
 1632SOL    MW4 6603   3.124   3.184   2.771  0.5865  0.3142  0.4559
 1633SOL     OW 6604   3.137   3.461   2.662  0.8488 -0.1978 -0.2757
 1633SOL    HW2 6605   3.133   3.378   2.710 -0.2555  0.5060  0.9034
 1633SOL    HW3 6606   3.060   3.509   2.692  2.6533  2.1663  0.7718
 1633SOL    MW4 6607   3.126   3.456   2.673  0.9413  0.2072  0.0184
 1634SOL     OW 6608   3.385   3.598   2.723 -0.0850  0.2520  0.3140
 1634SOL    HW2 6609   3.381   3.589   2.818 -2.3339 -2.8203 -0.0033
 1634SOL    HW3 6610   3.308   3.550   2.691  0.3843  1.5838 -3.0456
 1634SOL    MW4 6611   3.374   3.591   2.731 -0.3200  0.0222 -0.1714
 1635SOL     OW 6612   3.370   3.854   2.607  0.4866  0.0336  0.3192
 1635SOL    HW2 6613   3.369   3.766   2.643  2.6702 -0.1828 -0.1083
 1635SOL    HW3 6614   3.368   3.841   2.512 -1.1310  0.5126  0.2653
 1635SOL    MW4 6615   3.370   3.841   2.599  0.5615  0.0682  0.2556
 1636SOL     OW 6616   3.142   4.015   2.720 -0.2680  0.5243 -0.0080
 1636SOL    HW2 6617   3.164   4.105   2.698  1.1629 -0.0443 -0.9195
 1636SOL    HW3 6618   3.214   3.962   2.685 -1.8427 -1.1341 -0.8617
 1636SOL    MW4 6619   3.154   4.020   2.713 -0.2871  0.2308 -0.2406
 1637SOL     OW 6620   3.186   4.270   2.620  0.1508  0.1012  0.1697
 1637SOL    HW2 6621   3.117   4.326   2.657  0.0382 -0.1806  0.3908
 1637SOL    HW3 6622   3.161   4.260   2.528 -0.5327 -0.6275  0.4205
 1637SOL    MW4 6623   3.173   4.276   2.613  0.0458 -0.0324  0.2317
 1638SOL     OW 6624   3.392   4.415   2.729  0.2415 -0.1334 -0.3419
 1638SOL    HW2 6625   3.385   4.387   2.820 -0.2296 -0.1171 -0.3758
 1638SOL    HW3 6626   3.320   4.372   2.684  0.7299 -0.4820 -0.7945
 1638SOL    MW4 6627   3.382   4.406   2.735  0.2441 -0.1769 -0.4060
 1639SOL     OW 6628   3.806   4.617   2.657 -0.5964  0.0593 -0.0326
 1639SOL    HW2 6629   3.809   4.531   2.700  1.2439  0.1681  0.1112
 1639SOL    HW3 6630   3.731   4.661   2.697 -1.4302 -1.3963  0.0438
 1639SOL    MW4 6631   3.796   4.611   2.668 -0.4632 -0.1187 -0.0036
 1640SOL     OW 6632   3.591   0.099   2.754  0.6015  0.4104 -0.1293
 1640SOL    HW2 6633   3.588   0.185   2.711  2.3605 -0.0365 -1.2201
 1640SOL    HW3 6634   3.514   0.053   2.720 -1.1368  2.0087  1.5292
 1640SOL    MW4 6635   3.580   0.104   2.744  0.6042  0.5623 -0.0544
 1641SOL     OW 6636   3.587   0.345   2.613 -0.0034  0.0931  0.0012
 1641SOL    HW2 6637   3.657   0.381   2.667 -0.2936 -0.9607  1.1040
 1641SOL    HW3 6638   3.507   0.385   2.647  0.1202  2.0241 -1.8718
 1641SOL    MW4 6639   3.585   0.355   2.624 -0.0250  0.2088 -0.1004
 1642SOL     OW 6640   3.782   0.448   2.758 -0.0158  0.2485  0.3904
 1642SOL    HW2 6641   3.789   0.437   2.853  0.1603 -1.7933  0.1466
 1642SOL    HW3 6642   3.871   0.437   2.726 -0.0999  0.8021 -0.0449
 1642SOL    MW4 6643   3.795   0.445   2.766 -0.0038  0.0522  0.3006
 1643SOL     OW 6644   3.808   0.725   2.693  0.0421  0.0932  0.0079
 1643SOL    HW2 6645   3.726   0.765   2.719 -0.8382 -1.1346 -0.8316
 1643SOL    HW3 6646   3.808   0.639   2.735  0.6713 -0.1122 -0.3907
 1643SOL    MW4 6647   3.797   0.719   2.702  0.0091 -0.0959 -0.1554
 1644SOL     OW 6648   3.575   0.884   2.797 -0.1111  0.2381 -0.1019
 1644SOL    HW2 6649   3.608   0.863   2.884  1.8070  1.3033 -0.5668
 1644SOL    HW3 6650   3.594   0.977   2.785 -1.0121  0.2667 -1.3770
 1644SOL    MW4 6651   3.582   0.893   2.807  0.0231  0.3824 -0.3314
 1645SOL     OW 6652   3.638   1.132   2.704  0.3256 -0.0120  0.2732
 1645SOL    HW2 6653   3.704   1.194   2.734 -0.0523  0.3380  0.3847
 1645SOL    HW3 6654   3.555   1.176   2.720  0.0022 -1.1314  1.6929
 1645SOL    MW4 6655   3.636   1.146   2.710  0.2329 -0.1135  0.4754
 1646SOL     OW 6656   3.831   1.315   2.734  0.1397  0.2648  0.1219
 1646SOL    HW2 6657   3.908   1.262   2.713  0.6875  1.1770 -0.1867
 1646SOL    HW3 6658   3.847   1.399   2.692 -1.6826  0.0159 -1.1294
 1646SOL    MW4 6659   3.843   1.319   2.726 -0.0284  0.3521 -0.0837
 1647SOL     OW 6660   3.881   1.550   2.613  0.6221  0.3761  0.2123
 1647SOL    HW2 6661   3.968   1.568   2.650  0.7121  1.5994 -0.5691
 1647SOL    HW3 6662   3.822   1.605   2.663  0.4388  0.3274  0.0484
 1647SOL    MW4 6663   3.885   1.559   2.625  0.6096  0.5311  0.0877
 1648SOL     OW 6664   3.668   1.621   2.792 -0.1068  0.0689 -0.5643
 1648SOL    HW2 6665   3.665   1.610   2.887  0.9484  0.1554 -0.5145
 1648SOL    HW3 6666   3.589   1.577   2.760 -0.0366 -0.6824  0.2848
 1648SOL    MW4 6667   3.657   1.614   2.800  0.0412 -0.0187 -0.4456
 1649SOL     OW 6668   3.603   1.892   2.705  0.6080 -0.5316  0.0387
 1649SOL    HW2 6669   3.613   1.893   2.609  2.1678 -0.2882  0.1841
 1649SOL    HW3 6670   3.608   1.800   2.729 -1.3654 -0.7355 -0.2446
 1649SOL    MW4 6671   3.605   1.880   2.695  0.5534 -0.5263  0.0205
 1650SOL     OW 6672   3.865   2.043   2.780  0.0703  0.1015 -0.4760
 1650SOL    HW2 6673   3.943   2.001   2.743 -0.3336 -0.7487 -0.3799
 1650SOL    HW3 6674   3.792   1.996   2.739 -0.3864  0.6821 -0.3196
 1650SOL    MW4 6675   3.866   2.031   2.769 -0.0434  0.0658 -0.4425
 1651SOL     OW 6676   3.773   2.309   2.643 -0.4540  0.1213  0.3803
 1651SOL    HW2 6677   3.787   2.222   2.680  0.5252  0.7990  1.6316
 1651SOL    HW3 6678   3.791   2.298   2.549  1.1351 -0.7146  0.7600
 1651SOL    MW4 6679   3.778   2.296   2.635 -0.1154  0.1004  0.5953
 1652SOL     OW 6680   3.555   2.445   2.767  0.1959  0.4216  0.0614
 1652SOL    HW2 6681   3.568   2.441   2.862 -1.3898 -0.7793  0.2493
 1652SOL    HW3 6682   3.632   2.400   2.731  0.9236  1.0863  0.7448
 1652SOL    MW4 6683   3.567   2.438   2.775  0.0827  0.3505  0.1764
 1653SOL     OW 6684   3.576   2.702   2.664  0.1170 -0.2780  0.5505
 1653SOL    HW2 6685   3.560   2.612   2.694 -0.4719  0.1242  1.4435
 1653SOL    HW3 6686   3.658   2.727   2.706 -0.3218  0.0161  1.2428
 1653SOL    MW4 6687   3.585   2.693   2.673 -0.0186 -0.1864  0.7596
 1654SOL     OW 6688   3.795   2.807   2.796 -0.4000  0.4358 -0.5835
 1654SOL    HW2 6689   3.879   2.767   2.773 -0.5168  0.7213 -1.5244
 1654SOL    HW3 6690   3.804   2.898   2.769 -0.5423  0.7861  0.5304
 1654SOL    MW4 6691   3.808   2.813   2.789 -0.4344  0.5198 -0.5610
 1655SOL     OW 6692   3.813   3.067   2.680  0.4285 -0.3436 -0.5270
 1655SOL    HW2 6693   3.736   3.105   2.721  0.9339 -0.3726  0.4741
 1655SOL    HW3 6694   3.880   3.136   2.686  1.2715 -1.2557  1.0709
 1655SOL    MW4 6695   3.812   3.081   2.687  0.6065 -0.4680 -0.1841
 1656SOL     OW 6696   3.579   3.201   2.783 -0.4439 -0.1689 -0.3535
 1656SOL    HW2 6697   3.599   3.281   2.734  1.4673 -1.0261 -0.9906
 1656SOL    HW3 6698   3.499   3.168   2.742 -0.0207  0.2353 -1.5141
 1656SOL    MW4 6699   3.571   3.207   2.771 -0.1361 -0.2286 -0.5908
 1657SOL     OW 6700   3.620   3.464   2.645 -0.4215  0.5512  0.1649
 1657SOL    HW2 6701   3.688   3.515   2.690 -0.9059  1.1830  0.1882
 1657SOL    HW3 6702   3.537   3.504   2.673 -0.9448 -1.6894  2.0043
 1657SOL    MW4 6703   3.618   3.476   2.655 -0.5543  0.3388  0.4108
 1658SOL     OW 6704   3.827   3.604   2.801  0.0905  0.3619 -0.3309
 1658SOL    HW2 6705   3.911   3.568   2.772  0.0251  0.7698 -1.0411
 1658SOL    HW3 6706   3.819   3.687   2.755 -0.4919  0.5441  0.0885
 1658SOL    MW4 6707   3.837   3.610   2.791  0.0050  0.4396 -0.3693
 1659SOL     OW 6708   3.841   3.831   2.656  0.0958  0.6081  0.3020
 1659SOL    HW2 6709   3.925   3.876   2.668 -0.3344  1.6834 -0.6315
 1659SOL    HW3 6710   3.777   3.888   2.698  0.0635 -1.2244  2.8601
 1659SOL    MW4 6711   3.844   3.845   2.663  0.0348  0.5083  0.5164
 1660SOL     OW 6712   3.602   3.978   2.761  0.2314 -0.3117  0.1369
 1660SOL    HW2 6713   3.598   4.072   2.741  0.1168 -0.0008  1.4971
 1660SOL    HW3 6714   3.528   3.940   2.715 -0.4130  0.4712  0.5040
 1660SOL    MW4 6715   3.592   3.985   2.753  0.1311 -0.1674  0.3648
 1661SOL     OW 6716   3.609   4.240   2.658 -0.3571 -0.2713  0.1751
 1661SOL    HW2 6717   3.529   4.290   2.674  0.3121  0.7519  0.3286
 1661SOL    HW3 6718   3.614   4.232   2.563 -0.9807 -0.9108  0.1872
 1661SOL    MW4 6719   3.599   4.245   2.647 -0.3512 -0.2208  0.1969
 1662SOL     OW 6720   3.857   4.354   2.769 -0.0205  0.2545 -0.2878
 1662SOL    HW2 6721   3.921   4.311   2.712 -0.5571  0.7169 -1.2694
 1662SOL    HW3 6722   3.775   4.308   2.751 -0.0673 -0.0125  0.5965
 1662SOL    MW4 6723   3.855   4.342   2.759 -0.0975  0.2799 -0.3009
 1663SOL     OW 6724   4.265   4.647   2.657 -0.1964  0.2167 -0.1914
 1663SOL    HW2 6725   4.184   4.682   2.692  0.1182  0.1801  0.5945
 1663SOL    HW3 6726   4.333   4.680   2.716  0.3122 -0.0685 -0.6140
 1663SOL    MW4 6727   4.264   4.656   2.670 -0.0882  0.1736 -0.1433
 1664SOL     OW 6728   4.030   0.099   2.741 -0.1959  0.1718  0.4763
 1664SOL    HW2 6729   4.018   0.103   2.836  2.4184 -1.9261  0.9440
 1664SOL    HW3 6730   3.960   0.042   2.710  0.8674 -1.7698  1.5709
 1664SOL    MW4 6731   4.019   0.092   2.750  0.2894 -0.3611  0.6824
 1665SOL     OW 6732   4.023   0.358   2.658 -0.0608  0.1730 -0.4327
 1665SOL    HW2 6733   4.044   0.270   2.690 -1.5341 -0.0789 -0.1408
 1665SOL    HW3 6734   4.014   0.348   2.563 -2.8755 -0.5702 -0.1425
 1665SOL    MW4 6735   4.025   0.345   2.650 -0.6266  0.0417 -0.3557
 1666SOL     OW 6736   4.244   0.485   2.748 -0.5363 -0.4078 -0.4532
 1666SOL    HW2 6737   4.177   0.431   2.707 -0.6859 -0.5049 -0.0911
 1666SOL    HW3 6738   4.326   0.460   2.705 -0.7731 -0.0964 -1.0819
 1666SOL    MW4 6739   4.246   0.475   2.737 -0.5875 -0.3795 -0.4883
 1667SOL     OW 6740   4.262   0.757   2.642 -0.5659 -0.4288  0.0282
 1667SOL    HW2 6741   4.255   0.668   2.676 -0.8298 -0.2972  0.3191
 1667SOL    HW3 6742   4.236   0.751   2.550 -0.7337 -0.6200  0.0902
 1667SOL    MW4 6743   4.258   0.745   2.634 -0.6227 -0.4367  0.0749
 1668SOL     OW 6744   4.028   0.904   2.742 -0.3135  0.3271  0.1535
 1668SOL    HW2 6745   4.109   0.854   2.737 -0.0803  0.5526  1.5357
 1668SOL    HW3 6746   3.960   0.843   2.714 -0.0095 -0.7015  1.6592
 1668SOL    MW4 6747   4.029   0.890   2.737 -0.2422  0.2211  0.5345
 1669SOL     OW 6748   4.038   1.146   2.633 -0.0771 -0.2696 -0.1892
 1669SOL    HW2 6749   4.109   1.179   2.688  0.0280 -0.9714  0.1032
 1669SOL    HW3 6750   4.026   1.055   2.661 -0.1695 -0.5670 -1.1679
 1669SOL    MW4 6751   4.046   1.138   2.644 -0.0753 -0.4015 -0.2797
 1670SOL     OW 6752   4.280   1.236   2.766  0.4080  0.0694 -0.1173
 1670SOL    HW2 6753   4.280   1.325   2.732 -0.6128 -0.5431 -1.7672
 1670SOL    HW3 6754   4.354   1.193   2.723  0.0406 -0.2683 -0.4234
 1670SOL    MW4 6755   4.290   1.242   2.756  0.2241 -0.0559 -0.3753
 1671SOL     OW 6756   4.297   1.486   2.650 -0.4088 -0.1574 -0.1305
 1671SOL    HW2 6757   4.369   1.547   2.667 -0.8457  0.3449 -0.0648
 1671SOL    HW3 6758   4.279   1.496   2.557 -0.2614 -0.4331 -0.1895
 1671SOL    MW4 6759   4.304   1.495   2.640 -0.4468 -0.1274 -0.1295
 1672SOL     OW 6760   4.087   1.650   2.760  0.4805 -0.1701 -0.6496
 1672SOL    HW2 6761   4.089   1.665   2.854  0.3832 -0.5437 -0.5888
 1672SOL    HW3 6762   4.162   1.593   2.743  0.4624 -0.1531 -0.7876
 1672SOL    MW4 6763   4.097   1.644   2.770  0.4649 -0.2172 -0.6597
 1673SOL     OW 6764   4.058   1.914   2.647  0.3811  0.5183 -0.0587
 1673SOL    HW2 6765   4.125   1.974   2.678  0.3751 -0.1378  1.2963
 1673SOL    HW3 6766   4.082   1.829   2.686 -0.7375  0.0927 -0.2683
 1673SOL    MW4 6767   4.070   1.910   2.656  0.2327  0.3756  0.0920
 1674SOL     OW 6768   4.266   2.063   2.786 -0.4335  0.2128 -0.2277
 1674SOL    HW2 6769   4.242   2.149   2.751 -0.9278  0.0263 -0.3488
 1674SOL    HW3 6770   4.333   2.031   2.725 -0.4197  0.4046 -0.3156
 1674SOL    MW4 6771   4.272   2.070   2.773 -0.4973  0.2131 -0.2551
 1675SOL     OW 6772   4.236   2.296   2.633  0.0986 -0.3617 -0.1653
 1675SOL    HW2 6773   4.163   2.355   2.654 -1.3124 -2.4911  1.1339
 1675SOL    HW3 6774   4.232   2.286   2.538 -0.5423  0.5048 -0.2421
 1675SOL    MW4 6775   4.225   2.303   2.624 -0.1721 -0.5286 -0.0041
 1676SOL     OW 6776   4.017   2.429   2.728  0.1523 -0.1693 -0.6691
 1676SOL    HW2 6777   4.016   2.433   2.823  0.3550  1.2414 -0.7093
 1676SOL    HW3 6778   3.934   2.386   2.705 -1.6915  2.8125  0.0603
 1676SOL    MW4 6779   4.006   2.424   2.737 -0.0639  0.4101 -0.5782
 1677SOL     OW 6780   4.038   2.712   2.663  0.2966  0.5038 -0.0870
 1677SOL    HW2 6781   4.120   2.743   2.699  0.6723 -0.5886  0.0308
 1677SOL    HW3 6782   4.037   2.618   2.684 -0.9974  0.5185 -0.0287
 1677SOL    MW4 6783   4.048   2.703   2.671  0.1755  0.3614 -0.0639
 1678SOL     OW 6784   4.286   2.803   2.762 -0.1054 -0.2641  0.4373
 1678SOL    HW2 6785   4.287   2.828   2.855  1.3124 -0.0622  0.3689
 1678SOL    HW3 6786   4.262   2.884   2.716  1.4688  0.2216  0.4534
 1678SOL    MW4 6787   4.283   2.817   2.769  0.2894 -0.1733  0.4306
 1679SOL     OW 6788   4.255   3.068   2.669 -0.1861 -0.3083 -0.0708
 1679SOL    HW2 6789   4.179   3.122   2.688  0.4738  1.3828 -2.0857
 1679SOL    HW3 6790   4.268   3.076   2.575  1.9373 -1.3101  0.0936
 1679SOL    MW4 6791   4.247   3.076   2.659  0.1812 -0.2172 -0.3150
 1680SOL     OW 6792   4.031   3.204   2.738  0.5880  0.0753 -0.0966
 1680SOL    HW2 6793   4.032   3.300   2.732 -0.2806  0.1641  1.1591
 1680SOL    HW3 6794   4.030   3.186   2.831  2.4746 -1.2031 -0.2947
 1680SOL    MW4 6795   4.031   3.215   2.749  0.7224 -0.0815  0.0432
 1681SOL     OW 6796   4.037   3.471   2.705 -0.2586 -0.3478  0.3800
 1681SOL    HW2 6797   4.118   3.512   2.738 -1.1781 -0.0417  2.3310
 1681SOL    HW3 6798   4.031   3.501   2.614  0.7222  1.3628  0.8467
 1681SOL    MW4 6799   4.047   3.481   2.697 -0.2513 -0.0818  0.6990
 1682SOL     OW 6800   4.253   3.616   2.793  0.4420  1.2018  0.4317
 1682SOL    HW2 6801   4.274   3.620   2.886  0.3081 -1.7152  0.6297
 1682SOL    HW3 6802   4.331   3.576   2.753 -0.5538  0.0285 -0.3416
 1682SOL    MW4 6803   4.266   3.612   2.800  0.2928  0.6621  0.3557
 1683SOL     OW 6804   4.313   3.865   2.650  0.3289 -0.0760 -0.3555
 1683SOL    HW2 6805   4.283   3.790   2.701 -0.2903  0.5052  0.1522
 1683SOL    HW3 6806   4.369   3.915   2.710  0.2904  0.1536 -0.5076
 1683SOL    MW4 6807   4.316   3.862   2.664  0.2422  0.0308 -0.3088
 1684SOL     OW 6808   4.071   3.978   2.727 -0.5382  0.4390 -0.1347
 1684SOL    HW2 6809   4.053   3.977   2.821 -1.9522 -0.6810 -0.4024
 1684SOL    HW3 6810   4.155   3.935   2.718  0.1296  1.5279  0.7107
 1684SOL    MW4 6811   4.080   3.973   2.738 -0.6361  0.4349 -0.0584
 1685SOL     OW 6812   4.042   4.239   2.628 -0.6314 -0.4579  0.1323
 1685SOL    HW2 6813   4.052   4.148   2.654  0.4147 -0.8199 -1.4751
 1685SOL    HW3 6814   4.030   4.236   2.533 -2.1295  0.9807  0.2495
 1685SOL    MW4 6815   4.042   4.227   2.619 -0.6914 -0.3157 -0.0646
 1686SOL     OW 6816   4.266   4.383   2.746  0.0051 -0.2949 -0.3881
 1686SOL    HW2 6817   4.187   4.351   2.703 -0.2648 -1.2151  0.7777
 1686SOL    HW3 6818   4.267   4.477   2.726 -0.9914 -0.4055 -1.0148
 1686SOL    MW4 6819   4.256   4.391   2.738 -0.1616 -0.4306 -0.3171
 1687SOL     OW 6820   0.232   4.636   3.121 -0.1267 -0.0813 -0.1305
 1687SOL    HW2 6821   0.238   4.633   3.217 -1.5101 -0.0681 -0.0309
 1687SOL    HW3 6822   0.156   4.692   3.104  1.3919  1.7067 -1.2727
 1687SOL    MW4 6823   0.223   4.643   3.132 -0.1089  0.1559 -0.2680
 1688SOL     OW 6824   0.007   0.120   3.025  0.2053 -0.4545  0.0130
 1688SOL    HW2 6825  -0.076   0.076   3.043  0.1460 -0.3501 -0.0057
 1688SOL    HW3 6826  -0.009   0.212   3.046  0.2758 -0.4117 -0.1184
 1688SOL    MW4 6827  -0.006   0.126   3.030  0.2065 -0.4351 -0.0064
 1689SOL     OW 6828   4.484   0.386   3.096  0.2189 -0.4276 -0.0362
 1689SOL    HW2 6829   4.505   0.364   3.186  1.0154  0.0767 -0.0953
 1689SOL    HW3 6830   4.402   0.436   3.102  0.4369 -0.1254  0.4326
 1689SOL    MW4 6831   4.476   0.390   3.108  0.3524 -0.3212  0.0184
 1690SOL     OW 6832   0.231   0.492   3.015 -0.6178 -0.3887 -0.4358
 1690SOL    HW2 6833   0.297   0.442   3.064 -0.4189  2.3991  2.3386
 1690SOL    HW3 6834   0.149   0.447   3.034 -0.1940 -0.8370  0.3909
 1690SOL    MW4 6835   0.229   0.480   3.024 -0.5356 -0.0800  0.0391
 1691SOL     OW 6836   0.175   0.734   3.121 -0.6830 -0.1375  0.1475
 1691SOL    HW2 6837   0.199   0.732   3.213  0.2791 -0.1633 -0.0975
 1691SOL    HW3 6838   0.179   0.643   3.092  0.6918  0.0526 -0.3270
 1691SOL    MW4 6839   0.179   0.722   3.129 -0.3746 -0.1158  0.0527
 1692SOL     OW 6840   4.447   0.878   3.012  0.0267  0.1449 -0.1661
 1692SOL    HW2 6841   4.508   0.810   3.043 -0.6881 -0.7479 -0.6841
 1692SOL    HW3 6842   4.474   0.895   2.922 -0.8093 -0.6226 -0.5623
 1692SOL    MW4 6843   4.459   0.871   3.004 -0.1774 -0.0741 -0.2866
 1693SOL     OW 6844   0.018   1.138   3.132 -0.5177 -0.1614  0.3657
 1693SOL    HW2 6845  -0.063   1.184   3.112  0.1836  1.1946  0.5871
 1693SOL    HW3 6846   0.004   1.049   3.099 -1.8317  0.2398 -0.1903
 1693SOL    MW4 6847   0.005   1.132   3.125 -0.5985  0.0703  0.3216
 1694SOL     OW 6848   0.279   1.255   3.033  0.7643 -0.6869 -0.5648
 1694SOL    HW2 6849   0.192   1.240   3.070  1.2232 -0.8854  0.4578
 1694SOL    HW3 6850   0.268   1.244   2.939 -0.7686  1.5021 -0.6522
 1694SOL    MW4 6851   0.266   1.252   3.026  0.6225 -0.4244 -0.4413
 1695SOL     OW 6852   0.260   1.528   3.112  0.6146  0.1356 -0.0824
 1695SOL    HW2 6853   0.181   1.562   3.069 -0.0026  0.3778  1.2156
 1695SOL    HW3 6854   0.272   1.441   3.074 -0.9605 -0.3724  0.5212
 1695SOL    MW4 6855   0.251   1.521   3.101  0.3254  0.1005  0.1683
 1696SOL     OW 6856   0.012   1.674   3.040 -0.3890 -0.2011  0.3875
 1696SOL    HW2 6857  -0.066   1.635   3.080 -0.3439  1.3895  2.0894
 1696SOL    HW3 6858   0.018   1.761   3.079  2.8624 -0.7149  1.1738
 1696SOL    MW4 6859   0.002   1.680   3.051  0.0460 -0.0591  0.7157
 1697SOL     OW 6860   0.033   1.920   3.140 -0.1568 -0.3704 -0.3315
 1697SOL    HW2 6861  -0.044   1.975   3.125  0.0848  0.0440 -0.0423
 1697SOL    HW3 6862   0.106   1.969   3.103  0.1933 -0.0941  0.6950
 1697SOL    MW4 6863   0.032   1.933   3.133 -0.0788 -0.2792 -0.1581
 1698SOL     OW 6864   0.246   2.051   2.997  0.0636  0.4415 -0.3664
 1698SOL    HW2 6865   0.230   2.142   3.021 -1.1350  0.0940  0.1589
 1698SOL    HW3 6866   0.231   2.048   2.902 -1.0279  0.5367 -0.1921
 1698SOL    MW4 6867   0.242   2.062   2.988 -0.2385  0.4079 -0.2742
 1699SOL     OW 6868   0.198   2.305   3.113 -0.1999  0.3312 -0.2353
 1699SOL    HW2 6869   0.198   2.291   3.208 -0.3748 -0.4641 -0.3425
 1699SOL    HW3 6870   0.281   2.348   3.094  0.0807 -0.0161  0.2076
 1699SOL    MW4 6871   0.209   2.309   3.123 -0.1860  0.1805 -0.1910
 1700SOL     OW 6872   4.461   2.450   3.025  0.7136 -0.1804 -0.2352
 1700SOL    HW2 6873   4.487   2.539   3.048 -0.2754  0.4235 -1.3992
 1700SOL    HW3 6874   4.538   2.397   3.046  1.5228  1.0296 -0.0572
 1700SOL    MW4 6875   4.475   2.455   3.031  0.6905  0.0589 -0.3653
 1701SOL     OW 6876   0.016   2.705   3.126  0.2634  0.0946  0.0884
 1701SOL    HW2 6877   0.003   2.705   3.221  0.1838  0.0045  0.0775
 1701SOL    HW3 6878   0.093   2.761   3.113  0.0034  0.4722  0.1681
 1701SOL    MW4 6879   0.024   2.712   3.137  0.2184  0.1323  0.0975
 1702SOL     OW 6880   0.244   2.849   3.017  0.6738 -0.4674  0.3965
 1702SOL    HW2 6881   0.330   2.813   3.041 -0.1331 -2.0758  0.9591
 1702SOL    HW3 6882   0.239   2.835   2.922  0.6605 -1.2354  0.5018
 1702SOL    MW4 6883   0.255   2.842   3.007  0.5656 -0.7811  0.4847
 1703SOL     OW 6884   0.237   3.112   3.145  0.0413 -0.2313  0.1055
 1703SOL    HW2 6885   0.165   3.165   3.110  0.2215  0.2377  0.4465
 1703SOL    HW3 6886   0.230   3.029   3.097  0.9594  0.7871 -1.8569
 1703SOL    MW4 6887   0.227   3.108   3.134  0.1862 -0.0348 -0.1085
 1704SOL     OW 6888   4.479   3.189   3.026 -0.5608  0.2472 -0.0301
 1704SOL    HW2 6889   4.398   3.143   3.049  0.1470 -0.5214  0.9332
 1704SOL    HW3 6890   4.477   3.193   2.930 -1.5781 -0.0522 -0.0306
 1704SOL    MW4 6891   4.468   3.183   3.016 -0.6013  0.1063  0.0970
 1705SOL     OW 6892   4.473   3.455   3.143  0.2695 -0.0109  0.3835
 1705SOL    HW2 6893   4.393   3.504   3.126  0.1906 -0.9263 -2.1841
 1705SOL    HW3 6894   4.452   3.365   3.116  1.2040 -0.9068  2.5709
 1705SOL    MW4 6895   4.459   3.449   3.137  0.3829 -0.2499  0.3333
 1706SOL     OW 6896   0.242   3.593   3.055  0.1567 -0.2149 -0.4360
 1706SOL    HW2 6897   0.246   3.681   3.092 -0.7618 -0.6122  0.6042
 1706SOL    HW3 6898   0.156   3.559   3.080 -0.3702 -0.6071 -2.6573
 1706SOL    MW4 6899   0.231   3.600   3.063 -0.0340 -0.3190 -0.5915
 1707SOL     OW 6900   0.241   3.857   3.152  0.4663  0.0348 -0.0554
 1707SOL    HW2 6901   0.252   3.872   3.246 -1.0097  1.9186 -0.1588
 1707SOL    HW3 6902   0.301   3.918   3.110  0.4899 -0.1883 -0.3518
 1707SOL    MW4 6903   0.250   3.867   3.159  0.2746  0.2539 -0.1082
 1708SOL     OW 6904   4.487   3.971   3.085  0.1036  0.2864  0.3580
 1708SOL    HW2 6905   4.576   3.934   3.089 -0.4312 -1.0216  0.5732
 1708SOL    HW3 6906   4.476   3.996   2.994  0.7790  0.6707  0.3770
 1708SOL    MW4 6907   4.498   3.969   3.074  0.1221  0.1645  0.3889
 1709SOL     OW 6908   0.025   4.259   3.120  0.2625  0.5885 -0.6855
 1709SOL    HW2 6909   0.000   4.267   3.212 -0.7507 -0.6191 -0.8518
 1709SOL    HW3 6910   0.025   4.165   3.102  1.6653  0.7330 -1.6049
 1709SOL    MW4 6911   0.022   4.248   3.130  0.3142  0.4478 -0.8287
 1710SOL     OW 6912   0.210   4.400   2.982 -0.2261  0.3945 -0.2188
 1710SOL    HW2 6913   0.141   4.343   3.016  0.3565  0.1032  0.4854
 1710SOL    HW3 6914   0.204   4.480   3.034  0.0232  0.3366 -0.1007
 1710SOL    MW4 6915   0.200   4.403   2.993 -0.1164  0.3486 -0.1101
 1711SOL     OW 6916   0.720   4.646   3.119  0.2916  0.5285 -0.0217
 1711SOL    HW2 6917   0.729   4.553   3.098 -0.4561  0.4334  0.0639
 1711SOL    HW3 6918   0.641   4.673   3.072  0.1974  0.9889  0.4024
 1711SOL    MW4 6919   0.710   4.637   3.110  0.1804  0.5770  0.0458
 1712SOL     OW 6920   0.495   0.104   3.031  0.5725  0.0371  0.3599
 1712SOL    HW2 6921   0.479   0.184   3.081  1.6785 -0.9627  2.3665
 1712SOL    HW3 6922   0.425   0.044   3.059  0.7770 -0.2877  0.1795
 1712SOL    MW4 6923   0.483   0.107   3.041  0.7454 -0.1377  0.6008
 1713SOL     OW 6924   0.451   0.355   3.140  0.0762 -0.2261  0.7296
 1713SOL    HW2 6925   0.466   0.351   3.234  0.1972 -1.1273  0.6793
 1713SOL    HW3 6926   0.534   0.386   3.103  0.7604 -1.9526  0.7444
 1713SOL    MW4 6927   0.464   0.359   3.148  0.1825 -0.5728  0.7248
 1714SOL     OW 6928   0.672   0.529   3.040 -0.6098 -0.4321 -0.3714
 1714SOL    HW2 6929   0.740   0.478   3.083 -0.0070  0.0568 -0.7536
 1714SOL    HW3 6930   0.689   0.619   3.065 -0.7315 -0.2365 -0.9837
 1714SOL    MW4 6931   0.683   0.534   3.049 -0.5463 -0.3418 -0.5026
 1715SOL     OW 6932   0.680   0.786   3.166  0.2184 -0.1913  0.0656
 1715SOL    HW2 6933   0.670   0.781   3.261 -0.5522 -0.4465 -0.0264
 1715SOL    HW3 6934   0.593   0.810   3.134  0.3129 -0.7694 -0.6305
 1715SOL    MW4 6935   0.667   0.789   3.174  0.1293 -0.3012 -0.0381
 1716SOL     OW 6936   0.441   0.858   3.077 -0.0403  0.1624  0.1180
 1716SOL    HW2 6937   0.356   0.814   3.079  0.5505 -0.9445  1.4751
 1716SOL    HW3 6938   0.457   0.872   2.983 -0.7316 -1.5943 -0.3051
 1716SOL    MW4 6939   0.432   0.854   3.065 -0.0535 -0.2154  0.2413
 1717SOL     OW 6940   0.470   1.104   3.159 -0.3941 -0.3916  0.4146
 1717SOL    HW2 6941   0.453   1.013   3.134  0.2029 -0.5932  0.7173
 1717SOL    HW3 6942   0.405   1.155   3.111 -0.9038 -1.0012  0.4418
 1717SOL    MW4 6943   0.459   1.098   3.150 -0.3826 -0.4988  0.4582
 1718SOL     OW 6944   0.689   1.277   3.080 -0.0043  0.0131  0.1480
 1718SOL    HW2 6945   0.768   1.235   3.114 -0.5828 -0.9762  0.2911
 1718SOL    HW3 6946   0.619   1.214   3.099 -0.7545  0.6987 -0.3540
 1718SOL    MW4 6947   0.690   1.263   3.087 -0.1796 -0.0269  0.1006
 1719SOL     OW 6948   0.716   1.548   3.164  0.5013 -0.2887  0.5169
 1719SOL    HW2 6949   0.719   1.542   3.259 -1.0172 -0.0168  0.5876
 1719SOL    HW3 6950   0.713   1.456   3.135 -1.0002 -0.3439  0.8123
 1719SOL    MW4 6951   0.716   1.535   3.173  0.1028 -0.2602  0.5653
 1720SOL     OW 6952   0.478   1.677   3.034  0.0981 -0.4668  0.3336
 1720SOL    HW2 6953   0.553   1.652   3.089  1.2854 -0.4899 -1.2517
 1720SOL    HW3 6954   0.405   1.626   3.068  0.9734 -0.9960  1.4564
 1720SOL    MW4 6955   0.478   1.667   3.046  0.3703 -0.5398  0.2728
 1721SOL     OW 6956   0.417   1.912   3.152  0.4918  0.3898 -0.5094
 1721SOL    HW2 6957   0.428   1.826   3.112 -0.0189 -0.1297  0.4564
 1721SOL    HW3 6958   0.350   1.954   3.098  0.1920 -0.1029 -0.5280
 1721SOL    MW4 6959   0.410   1.906   3.139  0.3849  0.2563 -0.3848
 1722SOL     OW 6960   0.632   2.069   2.999  0.0601 -0.1686  0.6689
 1722SOL    HW2 6961   0.700   2.022   3.048 -0.1777 -0.2824  0.8913
 1722SOL    HW3 6962   0.550   2.037   3.036 -0.1291 -0.5155 -0.0562
 1722SOL    MW4 6963   0.630   2.058   3.011  0.0038 -0.2291  0.6027
 1723SOL     OW 6964   0.677   2.341   3.081  0.0972 -0.5052  0.1349
 1723SOL    HW2 6965   0.677   2.327   3.176 -0.3225  0.5183  0.2892
 1723SOL    HW3 6966   0.670   2.252   3.045 -0.4367 -0.8615  1.0703
 1723SOL    MW4 6967   0.676   2.327   3.089 -0.0286 -0.4172  0.2787
 1724SOL     OW 6968   0.424   2.458   3.026 -0.5118  0.0059  0.1532
 1724SOL    HW2 6969   0.510   2.419   3.042 -1.3385 -2.1606 -0.5507
 1724SOL    HW3 6970   0.416   2.459   2.931 -0.7552  1.3832  0.1807
 1724SOL    MW4 6971   0.434   2.453   3.016 -0.6530 -0.0982  0.0639
 1725SOL     OW 6972   0.479   2.702   3.153  0.0618  0.2778 -0.4167
 1725SOL    HW2 6973   0.553   2.741   3.108  0.7238 -2.1467 -1.5396
 1725SOL    HW3 6974   0.465   2.619   3.108 -0.5979 -1.2843  2.5378
 1725SOL    MW4 6975   0.487   2.696   3.141  0.0620 -0.2480 -0.1750
 1726SOL     OW 6976   0.704   2.827   3.018 -0.2507 -0.0005 -0.1965
 1726SOL    HW2 6977   0.790   2.796   3.047 -0.3558 -0.5219 -0.4337
 1726SOL    HW3 6978   0.701   2.919   3.044  0.0213 -0.2183  0.6191
 1726SOL    MW4 6979   0.715   2.835   3.026 -0.2286 -0.0978 -0.1202
 1727SOL     OW 6980   0.707   3.089   3.143  0.4912 -0.2478 -0.6906
 1727SOL    HW2 6981   0.713   3.091   3.239  1.1495 -0.9979 -0.7075
 1727SOL    HW3 6982   0.620   3.122   3.124  1.2872  2.4170  0.0554
 1727SOL    MW4 6983   0.697   3.094   3.153  0.6831  0.0048 -0.5946
 1728SOL     OW 6984   0.482   3.211   3.067  0.3161 -0.3908 -0.6397
 1728SOL    HW2 6985   0.479   3.306   3.083  0.7626 -0.3940 -0.5258
 1728SOL    HW3 6986   0.397   3.179   3.097  0.0526  0.0140 -0.9423
 1728SOL    MW4 6987   0.471   3.219   3.073  0.3403 -0.3376 -0.6645
 1729SOL     OW 6988   0.482   3.493   3.117  0.2812  0.4017 -0.1215
 1729SOL    HW2 6989   0.483   3.509   3.211  1.6826 -1.8618  0.2754
 1729SOL    HW3 6990   0.397   3.528   3.088  0.2909  2.1132  1.7670
 1729SOL    MW4 6991   0.471   3.500   3.125  0.4674  0.3288  0.1800
 1730SOL     OW 6992   0.721   3.625   3.028 -0.2565 -0.6523 -0.0274
 1730SOL    HW2 6993   0.791   3.573   3.066  0.4580  0.2669 -0.0781
 1730SOL    HW3 6994   0.642   3.596   3.074  0.5156  0.0797  1.8187
 1730SOL    MW4 6995   0.720   3.615   3.039 -0.0603 -0.4346  0.2091
 1731SOL     OW 6996   0.683   3.886   3.109 -0.0833  0.1642 -0.2134
 1731SOL    HW2 6997   0.681   3.885   3.205 -1.8747 -0.9159 -0.2332
 1731SOL    HW3 6998   0.708   3.796   3.085 -0.1461  0.2913 -0.7634
 1731SOL    MW4 6999   0.686   3.874   3.119 -0.3279  0.0384 -0.2885
 1732SOL     OW 7000   0.426   4.013   3.021 -0.2574  0.0630  0.3181
 1732SOL    HW2 7001   0.506   3.978   3.060  0.2762 -0.6553 -1.3600
 1732SOL    HW3 7002   0.432   3.988   2.929 -2.1322  0.5343  0.0540
 1732SOL    MW4 7003   0.438   4.005   3.014 -0.4343  0.0310  0.0620
 1733SOL     OW 7004   0.413   4.278   3.128 -0.0527  0.5660  0.0691
 1733SOL    HW2 7005   0.404   4.194   3.083 -0.8935  1.0471 -0.6681
 1733SOL    HW3 7006   0.346   4.334   3.089  0.6572  1.6562  0.3890
 1733SOL    MW4 7007   0.403   4.275   3.117 -0.0699  0.7730  0.0141
 1734SOL     OW 7008   0.676   4.364   3.045 -0.4113 -0.3990 -0.3565
 1734SOL    HW2 7009   0.591   4.332   3.078 -0.9419  0.4688 -0.8657
 1734SOL    HW3 7010   0.670   4.355   2.950  0.1179 -0.4578 -0.3845
 1734SOL    MW4 7011   0.664   4.359   3.037 -0.4116 -0.2928 -0.4275
 1735SOL     OW 7012   1.165   0.012   3.120  0.0331 -0.2530 -0.3866
 1735SOL    HW2 7013   1.240   0.050   3.075  0.1572 -1.5433 -1.3030
 1735SOL    HW3 7014   1.088   0.055   3.082  0.1258 -1.4408 -1.9631
 1735SOL    MW4 7015   1.165   0.022   3.109  0.0615 -0.5800 -0.7153
 1736SOL     OW 7016   0.931   0.124   3.019 -0.0101 -0.1268  0.4495
 1736SOL    HW2 7017   0.907   0.213   3.045 -2.8445 -0.3707 -1.1084
 1736SOL    HW3 7018   0.865   0.069   3.060 -1.7015 -0.9426 -3.1352
 1736SOL    MW4 7019   0.919   0.129   3.028 -0.6072 -0.2666 -0.2294
 1737SOL     OW 7020   0.878   0.358   3.141 -0.2886 -0.0177  0.0131
 1737SOL    HW2 7021   0.877   0.347   3.236 -1.2463 -0.1025 -0.0080
 1737SOL    HW3 7022   0.957   0.410   3.124 -0.9006  1.2693  0.9998
 1737SOL    MW4 7023   0.888   0.364   3.151 -0.4958  0.1409  0.1402
 1738SOL     OW 7024   1.119   0.477   3.030 -0.1934 -0.1670  0.4232
 1738SOL    HW2 7025   1.207   0.441   3.042 -0.2908 -0.5042  0.1589
 1738SOL    HW3 7026   1.103   0.467   2.936 -0.9927 -1.2239  0.6679
 1738SOL    MW4 7027   1.129   0.471   3.019 -0.3117 -0.3510  0.4206
 1739SOL     OW 7028   1.115   0.748   3.114 -0.1939  0.6966 -0.1805
 1739SOL    HW2 7029   1.101   0.744   3.209  1.7997  2.4191  0.2241
 1739SOL    HW3 7030   1.112   0.657   3.085  0.8618 -0.0042  1.8189
 1739SOL    MW4 7031   1.113   0.735   3.123  0.2085  0.8314  0.1366
 1740SOL     OW 7032   0.910   0.910   3.026  0.0151 -0.5629 -0.2611
 1740SOL    HW2 7033   0.978   0.854   3.063 -1.4359 -1.2067  1.5175
 1740SOL    HW3 7034   0.829   0.880   3.068 -0.8883  2.4236  0.2092
 1740SOL    MW4 7035   0.908   0.899   3.037 -0.2955 -0.2538  0.0355
 1741SOL     OW 7036   0.919   1.161   3.161  0.2608 -0.2905 -0.1069
 1741SOL    HW2 7037   0.993   1.212   3.128 -0.0398  0.3282  0.1658
 1741SOL    HW3 7038   0.923   1.078   3.113  0.0816  0.4212 -1.3776
 1741SOL    MW4 7039   0.929   1.157   3.151  0.1975 -0.1152 -0.2384
 1742SOL     OW 7040   1.134   1.319   3.031 -0.2476 -0.4872 -0.1046
 1742SOL    HW2 7041   1.218   1.274   3.043 -0.9362 -1.6284  0.5761
 1742SOL    HW3 7042   1.122   1.320   2.936  0.7423  0.0935 -0.2377
 1742SOL    MW4 7043   1.144   1.313   3.020 -0.2077 -0.5612 -0.0324
 1743SOL     OW 7044   1.136   1.574   3.133 -0.0406 -0.0158 -0.5666
 1743SOL    HW2 7045   1.221   1.609   3.106 -0.2817  0.4910 -0.6718
 1743SOL    HW3 7046   1.140   1.482   3.110  0.2801  0.1212 -1.0621
 1743SOL    MW4 7047   1.148   1.567   3.127 -0.0299  0.0691 -0.6459
 1744SOL     OW 7048   0.899   1.707   3.041  0.3416  0.2504 -0.3265
 1744SOL    HW2 7049   0.984   1.667   3.058  0.2798 -0.0000 -0.6088
 1744SOL    HW3 7050   0.836   1.651   3.088  0.4736  1.2178  1.0210
 1744SOL    MW4 7051   0.902   1.694   3.050  0.3509  0.3449 -0.1857
 1745SOL     OW 7052   0.849   1.965   3.110  0.4241  0.0377  0.5498
 1745SOL    HW2 7053   0.852   1.973   3.206 -0.2173 -0.7635  0.6397
 1745SOL    HW3 7054   0.865   1.872   3.094  0.1882  0.1135 -0.1105
 1745SOL    MW4 7055   0.851   1.953   3.121  0.3084 -0.0581  0.4747
 1746SOL     OW 7056   1.096   2.055   3.043 -0.1053  0.4109 -0.3636
 1746SOL    HW2 7057   1.014   2.014   3.073  0.6424 -0.9124 -0.0709
 1746SOL    HW3 7058   1.081   2.075   2.951 -0.6873 -0.0374 -0.3715
 1746SOL    MW4 7059   1.083   2.052   3.035 -0.0836  0.1771 -0.3262
 1747SOL     OW 7060   1.138   2.327   3.139 -0.2016 -0.1692 -0.5925
 1747SOL    HW2 7061   1.060   2.364   3.098 -0.0673 -0.1891 -0.8691
 1747SOL    HW3 7062   1.125   2.232   3.133 -0.1045 -0.1734 -0.7410
 1747SOL    MW4 7063   1.126   2.319   3.133 -0.1711 -0.1724 -0.6485
 1748SOL     OW 7064   0.916   2.458   3.001  0.1300  0.7549  0.2410
 1748SOL    HW2 7065   0.834   2.418   3.029  1.0759 -0.8379  0.8125
 1748SOL    HW3 7066   0.913   2.456   2.905 -0.3153  0.3204  0.2637
 1748SOL    MW4 7067   0.905   2.452   2.992  0.1960  0.4873  0.3192
 1749SOL     OW 7068   0.942   2.726   3.101  0.5453  0.2340  0.3773
 1749SOL    HW2 7069   0.920   2.710   3.192 -1.1219  0.6238  0.0665
 1749SOL    HW3 7070   0.925   2.642   3.057 -0.8446  0.6724  0.0522
 1749SOL    MW4 7071   0.936   2.713   3.107  0.1420  0.3433  0.2933
 1750SOL     OW 7072   1.163   2.871   3.012  0.3421 -0.1474 -0.3387
 1750SOL    HW2 7073   1.180   2.952   3.059  2.0767 -0.8721  0.3370
 1750SOL    HW3 7074   1.080   2.839   3.047  0.7748  0.1935  1.0031
 1750SOL    MW4 7075   1.154   2.878   3.023  0.6281 -0.1981 -0.0727
 1751SOL     OW 7076   1.164   3.112   3.162  0.3078 -0.0968 -0.3091
 1751SOL    HW2 7077   1.225   3.175   3.122  0.0236 -0.7107 -1.7386
 1751SOL    HW3 7078   1.080   3.129   3.119  0.2600 -1.5420 -0.8131
 1751SOL    MW4 7079   1.161   3.123   3.151  0.2639 -0.3686 -0.5641
 1752SOL     OW 7080   0.941   3.197   3.044  0.1373 -0.1739 -0.2805
 1752SOL    HW2 7081   0.859   3.163   3.078 -1.1739  2.9245 -0.2304
 1752SOL    HW3 7082   0.924   3.215   2.952  0.8185  0.3285 -0.3119
 1752SOL    MW4 7083   0.928   3.194   3.037  0.0541  0.3011 -0.2780
 1753SOL     OW 7084   0.930   3.474   3.130  0.1676  0.2265  0.3544
 1753SOL    HW2 7085   1.014   3.506   3.096  0.3100  0.2881  0.7598
 1753SOL    HW3 7086   0.928   3.382   3.105  0.6546  0.0573  0.9041
 1753SOL    MW4 7087   0.941   3.466   3.123  0.2506  0.2122  0.4804
 1754SOL     OW 7088   1.126   3.658   3.044 -0.3957 -0.7730 -0.3111
 1754SOL    HW2 7089   1.202   3.607   3.072 -0.3862 -0.5705  0.0245
 1754SOL    HW3 7090   1.135   3.742   3.089 -1.4974 -1.2059  0.7307
 1754SOL    MW4 7091   1.137   3.662   3.053 -0.5399 -0.8035 -0.1292
 1755SOL     OW 7092   1.162   3.918   3.183  0.3468  0.0212  0.7420
 1755SOL    HW2 7093   1.164   3.912   3.278 -0.4543 -2.8318  0.5990
 1755SOL    HW3 7094   1.082   3.967   3.164 -0.5404 -1.1486  1.4628
 1755SOL    MW4 7095   1.152   3.924   3.193  0.1240 -0.5095  0.8183
 1756SOL     OW 7096   0.932   4.014   3.081 -0.0186 -0.2396 -0.3639
 1756SOL    HW2 7097   0.852   3.977   3.119  1.1829 -1.5749  0.8757
 1756SOL    HW3 7098   0.925   3.993   2.987 -0.7411 -1.0304 -0.1440
 1756SOL    MW4 7099   0.920   4.007   3.073  0.0445 -0.5202 -0.1714
 1757SOL     OW 7100   0.913   4.276   3.130  0.5369  0.2399  0.2955
 1757SOL    HW2 7101   0.917   4.181   3.118 -0.5787  0.3469 -1.0932
 1757SOL    HW3 7102   0.831   4.302   3.089  0.7984  1.8023  0.7231
 1757SOL    MW4 7103   0.903   4.267   3.123  0.4241  0.4606  0.1683
 1758SOL     OW 7104   1.145   4.407   3.045 -0.5910 -0.3408  0.4068
 1758SOL    HW2 7105   1.074   4.360   3.089  0.6303 -0.4252  2.3760
 1758SOL    HW3 7106   1.133   4.498   3.072  0.6416 -0.5172  1.6170
 1758SOL    MW4 7107   1.134   4.413   3.055 -0.2674 -0.3753  0.8261
 1759SOL     OW 7108   1.613   4.635   3.088  0.0864 -0.1528  0.5666
 1759SOL    HW2 7109   1.608   4.649   3.182  1.4782  1.0997  0.4798
 1759SOL    HW3 7110   1.535   4.679   3.053  0.6742  1.2339  0.9575
 1759SOL    MW4 7111   1.602   4.643   3.096  0.3477  0.1955  0.6070
 1760SOL     OW 7112   1.392   0.114   3.000 -0.1403 -0.4431  0.3030
 1760SOL    HW2 7113   1.385   0.202   3.036 -0.8308 -0.6388  0.6623
 1760SOL    HW3 7114   1.367   0.124   2.908 -0.2912 -0.2759  0.3615
 1760SOL    MW4 7115   1.387   0.127   2.993 -0.2514 -0.4469  0.3583
 1761SOL     OW 7116   1.386   0.383   3.070 -0.2969 -0.2173 -0.0525
 1761SOL    HW2 7117   1.394   0.379   3.165  0.0408 -0.6811 -0.0997
 1761SOL    HW3 7118   1.460   0.437   3.042 -0.6492  0.2911 -0.0201
 1761SOL    MW4 7119   1.397   0.390   3.078 -0.2987 -0.2114 -0.0544
 1762SOL     OW 7120   1.597   0.508   2.945  0.0286 -0.4239 -0.1104
 1762SOL    HW2 7121   1.575   0.598   2.970 -0.0246 -0.1515 -1.1066
 1762SOL    HW3 7122   1.570   0.501   2.854 -0.8076 -1.7461  0.2273
 1762SOL    MW4 7123   1.591   0.519   2.937 -0.0888 -0.5624 -0.1972
 1763SOL     OW 7124   1.557   0.786   3.056  0.4701  0.6612  0.1989
 1763SOL    HW2 7125   1.567   0.784   3.151  2.0833  0.1025  0.0406
 1763SOL    HW3 7126   1.472   0.825   3.042 -0.1036  0.0943  1.9005
 1763SOL    MW4 7127   1.547   0.791   3.067  0.6074  0.5127  0.4027
 1764SOL     OW 7128   1.318   0.902   3.008  0.2598  0.5543 -0.1192
 1764SOL    HW2 7129   1.321   0.992   3.041 -0.0658  0.5794 -0.1582
 1764SOL    HW3 7130   1.254   0.858   3.063 -0.6986  0.7419 -1.0620
 1764SOL    MW4 7131   1.310   0.908   3.019  0.0905  0.5825 -0.2487
 1765SOL     OW 7132   1.361   1.151   3.102 -0.1012 -0.1536 -0.7115
 1765SOL    HW2 7133   1.360   1.138   3.197 -0.8395  0.5631 -0.6218
 1765SOL    HW3 7134   1.449   1.185   3.084 -0.1933  0.3597 -0.2026
 1765SOL    MW4 7135   1.373   1.154   3.112 -0.2109  0.0087 -0.6323
 1766SOL     OW 7136   1.606   1.260   2.989 -0.4481  0.1793 -0.7796
 1766SOL    HW2 7137   1.673   1.212   3.038  1.1095  0.3398 -2.6597
 1766SOL    HW3 7138   1.604   1.347   3.029 -0.8085 -0.3767  0.4215
 1766SOL    MW4 7139   1.615   1.265   3.001 -0.2902  0.1271 -0.8693
 1767SOL     OW 7140   1.580   1.507   3.123  0.0841 -0.2913  0.6371
 1767SOL    HW2 7141   1.658   1.559   3.100  0.8240 -1.5207  0.2946
 1767SOL    HW3 7142   1.506   1.561   3.096  0.8758 -0.3296 -1.7736
 1767SOL    MW4 7143   1.581   1.521   3.116  0.2861 -0.4586  0.2737
 1768SOL     OW 7144   1.372   1.694   3.054 -0.1656 -0.4495 -0.2647
 1768SOL    HW2 7145   1.355   1.779   3.094 -1.1552 -0.7402 -0.0397
 1768SOL    HW3 7146   1.380   1.713   2.960  0.8327  0.0507 -0.0780
 1768SOL    MW4 7147   1.371   1.707   3.047 -0.1645 -0.4219 -0.2103
 1769SOL     OW 7148   1.335   1.943   3.134  0.5131 -0.2379  0.0531
 1769SOL    HW2 7149   1.331   1.924   3.228  0.5405 -0.5327 -0.0039
 1769SOL    HW3 7150   1.256   1.993   3.116  0.2091 -0.6894  0.1197
 1769SOL    MW4 7151   1.324   1.947   3.144  0.4767 -0.3364  0.0541
 1770SOL     OW 7152   1.566   2.079   3.046 -0.2843  0.4034 -0.3888
 1770SOL    HW2 7153   1.489   2.031   3.076  0.4512  0.6895  2.0329
 1770SOL    HW3 7154   1.560   2.076   2.950 -1.5803 -2.3547 -0.2667
 1770SOL    MW4 7155   1.555   2.072   3.037 -0.3581  0.0772 -0.0532
 1771SOL     OW 7156   1.561   2.324   3.165 -0.1088 -0.4007 -0.5497
 1771SOL    HW2 7157   1.637   2.367   3.125 -0.8151 -0.1891 -1.6818
 1771SOL    HW3 7158   1.558   2.238   3.123 -0.9012 -0.1517 -1.0004
 1771SOL    MW4 7159   1.571   2.318   3.154 -0.3066 -0.3400 -0.7584
 1772SOL     OW 7160   1.337   2.422   2.999  0.1004 -0.1380 -0.0486
 1772SOL    HW2 7161   1.414   2.394   3.048  0.7994  1.0783 -0.4401
 1772SOL    HW3 7162   1.263   2.382   3.046  0.8163  0.3667  1.5343
 1772SOL    MW4 7163   1.337   2.413   3.012  0.2871  0.0889  0.1087
 1773SOL     OW 7164   1.332   2.681   3.128  0.2372 -0.3762  0.1980
 1773SOL    HW2 7165   1.307   2.602   3.080  1.1048 -0.3922 -0.2416
 1773SOL    HW3 7166   1.268   2.747   3.101 -0.4495 -0.9044  0.5160
 1773SOL    MW4 7167   1.320   2.680   3.118  0.2612 -0.4480  0.1819
 1774SOL     OW 7168   1.538   2.840   3.050  0.4008  0.2963  0.3032
 1774SOL    HW2 7169   1.622   2.798   3.072  1.3767  0.7730 -2.3238
 1774SOL    HW3 7170   1.472   2.780   3.084  1.7985 -0.3275  2.0186
 1774SOL    MW4 7171   1.541   2.826   3.058  0.7139  0.2770  0.1829
 1775SOL     OW 7172   1.557   3.120   3.178 -0.7291  0.1528 -0.0138
 1775SOL    HW2 7173   1.577   3.106   3.271  1.4183 -1.3285 -0.6734
 1775SOL    HW3 7174   1.550   3.032   3.141  1.0201  0.7079 -1.7721
 1775SOL    MW4 7175   1.559   3.106   3.186 -0.2148  0.0310 -0.3328
 1776SOL     OW 7176   1.355   3.284   3.063 -0.3243 -0.0676 -0.2193
 1776SOL    HW2 7177   1.420   3.236   3.115  1.2218  1.4637 -0.6804
 1776SOL    HW3 7178   1.366   3.249   2.974 -0.9043 -0.5874 -0.0879
 1776SOL    MW4 7179   1.365   3.273   3.058 -0.1968  0.0658 -0.2627
 1777SOL     OW 7180   1.356   3.544   3.138  0.5262  0.0538  0.1412
 1777SOL    HW2 7181   1.351   3.539   3.234 -0.7069 -0.8260  0.0393
 1777SOL    HW3 7182   1.362   3.452   3.110 -1.0794  0.2012 -0.7146
 1777SOL    MW4 7183   1.356   3.531   3.147  0.1518 -0.0427  0.0148
 1778SOL     OW 7184   1.609   3.601   3.031  0.1660 -0.4952  0.3633
 1778SOL    HW2 7185   1.519   3.578   3.054 -0.2563  0.7328 -0.0126
 1778SOL    HW3 7186   1.608   3.609   2.935  0.8031 -1.0003  0.3116
 1778SOL    MW4 7187   1.597   3.599   3.021  0.1943 -0.4001  0.3068
 1779SOL     OW 7188   1.601   3.849   3.173 -0.0673 -0.5205 -0.6732
 1779SOL    HW2 7189   1.679   3.888   3.135 -0.0545  0.1853  0.0545
 1779SOL    HW3 7190   1.603   3.758   3.145  1.9991 -0.9730  0.8681
 1779SOL    MW4 7191   1.612   3.842   3.164  0.2069 -0.4873 -0.3736
 1780SOL     OW 7192   1.379   3.992   3.028 -0.0893 -0.1000 -0.0007
 1780SOL    HW2 7193   1.459   3.950   3.059  0.8249  1.2453 -0.4462
 1780SOL    HW3 7194   1.309   3.953   3.080  0.9030 -1.0397  0.6508
 1780SOL    MW4 7195   1.381   3.982   3.039  0.1622 -0.0465  0.0267
 1781SOL     OW 7196   1.373   4.252   3.129  0.1953 -0.1602 -0.6722
 1781SOL    HW2 7197   1.372   4.164   3.091 -1.2453  0.1280 -1.2939
 1781SOL    HW3 7198   1.293   4.293   3.098  0.8538  1.3794 -0.3691
 1781SOL    MW4 7199   1.363   4.246   3.120  0.0920  0.0811 -0.7141
 1782SOL     OW 7200   1.604   4.375   3.006  0.5690 -0.2445  0.1069
 1782SOL    HW2 7201   1.525   4.330   3.038 -0.1810  0.4255 -0.7706
 1782SOL    HW3 7202   1.593   4.465   3.036  0.5949  0.0365 -0.7100
 1782SOL    MW4 7203   1.592   4.381   3.014  0.4735 -0.1187 -0.1168
 1783SOL     OW 7204   2.024   4.625   3.086 -1.1210  0.5687 -0.0969
 1783SOL    HW2 7205   2.043   4.664   3.171  2.4782  2.7100 -1.7378
 1783SOL    HW3 7206   1.953   4.679   3.050  0.3255  2.4424 -0.2113
 1783SOL    MW4 7207   2.017   4.637   3.092 -0.4551  1.0977 -0.3283
 1784SOL     OW 7208   1.820   0.118   3.024 -0.5480 -0.2942  0.0842
 1784SOL    HW2 7209   1.741   0.073   3.055 -1.4058  0.6781 -0.6617
 1784SOL    HW3 7210   1.806   0.129   2.930 -0.1894  1.1808  0.1934
 1784SOL    MW4 7211   1.808   0.114   3.016 -0.6138  0.0287  0.0002
 1785SOL     OW 7212   1.771   0.379   3.122 -0.1181 -0.0854  0.3325
 1785SOL    HW2 7213   1.771   0.290   3.088  1.0675 -0.6233  1.6900
 1785SOL    HW3 7214   1.716   0.428   3.060  0.3005 -1.4540 -1.1707
 1785SOL    MW4 7215   1.764   0.374   3.109  0.0935 -0.3369  0.3135
 1786SOL     OW 7216   2.019   0.477   3.043  0.0396  0.3070 -0.4681
 1786SOL    HW2 7217   1.931   0.443   3.063  0.4071 -0.1742  0.3584
 1786SOL    HW3 7218   2.025   0.472   2.947 -0.7775  0.1907 -0.5190
 1786SOL    MW4 7219   2.008   0.472   3.033 -0.0198  0.2281 -0.3657
 1787SOL     OW 7220   2.009   0.735   3.138 -0.5700 -0.3400  0.7493
 1787SOL    HW2 7221   1.938   0.791   3.107 -0.2222 -0.5235 -0.4109
 1787SOL    HW3 7222   2.001   0.655   3.087 -0.1481 -0.7599  1.3313
 1787SOL    MW4 7223   1.999   0.732   3.127 -0.4684 -0.4197  0.6731
 1788SOL     OW 7224   1.825   0.897   3.044 -0.0602  0.5705 -0.0150
 1788SOL    HW2 7225   1.733   0.869   3.048  0.1067  0.1219  0.6351
 1788SOL    HW3 7226   1.824   0.987   3.077 -0.2421  0.5091  0.1476
 1788SOL    MW4 7227   1.813   0.905   3.049 -0.0622  0.5032  0.0920
 1789SOL     OW 7228   1.817   1.156   3.141 -0.1915  0.0892  0.2571
 1789SOL    HW2 7229   1.819   1.149   3.236  2.7338 -0.8648  0.1797
 1789SOL    HW3 7230   1.894   1.208   3.119 -1.2666  0.9551 -1.5622
 1789SOL    MW4 7231   1.828   1.162   3.151  0.0526  0.0777  0.0069
 1790SOL     OW 7232   2.020   1.299   3.036  0.1001  0.1787 -0.1407
 1790SOL    HW2 7233   2.027   1.383   3.082  1.1403  0.7704 -1.3598
 1790SOL    HW3 7234   2.093   1.248   3.070 -0.0299  0.0716 -0.0230
 1790SOL    MW4 7235   2.031   1.304   3.047  0.2203  0.2427 -0.2859
 1791SOL     OW 7236   2.033   1.559   3.133 -0.1729  0.1603 -0.3713
 1791SOL    HW2 7237   2.030   1.558   3.229 -0.4620 -2.6259 -0.3650
 1791SOL    HW3 7238   2.120   1.594   3.113  0.7324 -1.2072  0.9734
 1791SOL    MW4 7239   2.044   1.564   3.143 -0.0916 -0.3877 -0.1929
 1792SOL     OW 7240   1.803   1.665   3.024  0.1915  0.1115 -0.2619
 1792SOL    HW2 7241   1.790   1.742   3.080  1.4912  0.3133 -0.2374
 1792SOL    HW3 7242   1.882   1.623   3.058  2.4269  1.5842 -3.4598
 1792SOL    MW4 7243   1.812   1.670   3.036  0.6579  0.3324 -0.6807
 1793SOL     OW 7244   1.771   1.909   3.150  0.0687 -0.0326 -0.2745
 1793SOL    HW2 7245   1.856   1.943   3.121  0.5180 -0.7468  0.1997
 1793SOL    HW3 7246   1.708   1.977   3.124  0.6110 -0.1043 -1.8146
 1793SOL    MW4 7247   1.774   1.923   3.143  0.1996 -0.1363 -0.4151
 1794SOL     OW 7248   1.998   2.034   3.036  0.0452 -0.4661 -0.4483
 1794SOL    HW2 7249   2.067   2.001   3.094 -0.5805 -0.8999  0.0548
 1794SOL    HW3 7250   2.010   2.129   3.036 -1.1851 -0.2479  2.0168
 1794SOL    MW4 7251   2.009   2.043   3.044 -0.1996 -0.4947 -0.0567
 1795SOL     OW 7252   2.019   2.324   3.101 -0.5658 -0.1787  0.7415
 1795SOL    HW2 7253   2.022   2.317   3.197  1.2517 -1.3840  0.6454
 1795SOL    HW3 7254   2.104   2.362   3.077 -0.9590  0.0061 -0.3932
 1795SOL    MW4 7255   2.031   2.328   3.110 -0.3779 -0.3130  0.5789
 1796SOL     OW 7256   1.769   2.450   3.029  0.0893  0.4712  0.3543
 1796SOL    HW2 7257   1.760   2.542   3.057  1.1087  0.7865 -0.3145
 1796SOL    HW3 7258   1.855   2.423   3.062 -0.6550 -0.5744  1.4484
 1796SOL    MW4 7259   1.779   2.459   3.037  0.1255  0.3750  0.4103
 1797SOL     OW 7260   1.774   2.717   3.121  0.2953 -0.0708  0.3973
 1797SOL    HW2 7261   1.778   2.713   3.217  0.5270  1.3385  0.4523
 1797SOL    HW3 7262   1.859   2.752   3.095  0.4423 -0.9607 -0.3746
 1797SOL    MW4 7263   1.786   2.721   3.130  0.3452 -0.0024  0.3023
 1798SOL     OW 7264   2.026   2.824   3.038  0.0773 -0.6051  0.0945
 1798SOL    HW2 7265   2.028   2.914   3.071  1.4753 -0.4848 -0.2780
 1798SOL    HW3 7266   2.017   2.834   2.943  2.9719 -0.7549 -0.2449
 1798SOL    MW4 7267   2.025   2.837   3.030  0.6437 -0.6092  0.0010
 1799SOL     OW 7268   2.035   3.070   3.162  0.3659  0.7282 -0.2836
 1799SOL    HW2 7269   2.021   3.078   3.256  2.0208 -0.4901  0.0761
 1799SOL    HW3 7270   1.953   3.101   3.123 -0.6167  0.5025  1.5607
 1799SOL    MW4 7271   2.023   3.075   3.169  0.4544  0.5376  0.0074
 1800SOL     OW 7272   1.808   3.194   3.063 -0.0338 -0.5249  0.3434
 1800SOL    HW2 7273   1.722   3.175   3.100 -0.2783  0.8661  0.5036
 1800SOL    HW3 7274   1.796   3.182   2.969 -0.4595 -0.1066  0.3436
 1800SOL    MW4 7275   1.795   3.190   3.055 -0.1222 -0.2861  0.3645
 1801SOL     OW 7276   1.830   3.470   3.149  0.2157  0.2375  0.7074
 1801SOL    HW2 7277   1.836   3.378   3.123 -1.4365 -0.1527  1.6538
 1801SOL    HW3 7278   1.739   3.494   3.131  0.3698  1.3938  1.4250
 1801SOL    MW4 7279   1.819   3.461   3.143  0.0180  0.3388  0.9270
 1802SOL     OW 7280   2.040   3.590   3.023  0.2774  0.1493 -0.1193
 1802SOL    HW2 7281   2.051   3.675   3.065 -0.8207  0.2889 -0.1000
 1802SOL    HW3 7282   1.958   3.556   3.059  0.4234 -0.6655 -0.5494
 1802SOL    MW4 7283   2.031   3.597   3.033  0.1519  0.0603 -0.1736
 1803SOL     OW 7284   2.070   3.848   3.128  0.0433  0.3827  0.1159
 1803SOL    HW2 7285   2.074   3.854   3.224  0.0096  0.8230  0.0875
 1803SOL    HW3 7286   1.985   3.886   3.105  0.5941  1.4491 -0.1914
 1803SOL    MW4 7287   2.059   3.854   3.138  0.1116  0.5815  0.0713
 1804SOL     OW 7288   1.826   3.967   3.062 -0.2904  0.2748 -0.6565
 1804SOL    HW2 7289   1.821   4.057   3.095 -1.7869 -0.2296  0.5212
 1804SOL    HW3 7290   1.809   3.975   2.968 -2.8231  0.9801 -0.1631
 1804SOL    MW4 7291   1.823   3.980   3.054 -0.8219  0.3011 -0.4358
 1805SOL     OW 7292   1.799   4.226   3.140  0.3557 -0.0511  0.1244
 1805SOL    HW2 7293   1.879   4.267   3.108  0.3340 -0.2008 -0.1238
 1805SOL    HW3 7294   1.728   4.281   3.108  0.3020 -0.5399 -0.6080
 1805SOL    MW4 7295   1.801   4.239   3.132  0.3457 -0.1349 -0.0048
 1806SOL     OW 7296   2.029   4.351   3.044 -0.4214 -0.8611  0.8032
 1806SOL    HW2 7297   2.031   4.445   3.066 -0.8888 -0.7904  0.5574
 1806SOL    HW3 7298   1.998   4.349   2.954  0.5156 -1.2044  0.4837
 1806SOL    MW4 7299   2.025   4.363   3.035 -0.3595 -0.8965  0.7288
 1807SOL     OW 7300   2.443   4.603   3.182 -0.5661  0.0558 -0.4509
 1807SOL    HW2 7301   2.464   4.529   3.125 -0.3174  0.3675 -0.7697
 1807SOL    HW3 7302   2.373   4.649   3.135 -1.2392 -0.3911  0.1018
 1807SOL    MW4 7303   2.436   4.599   3.168 -0.6220  0.0377 -0.4201
 1808SOL     OW 7304   2.272   0.073   3.021  0.0850 -0.7854 -0.3300
 1808SOL    HW2 7305   2.258   0.161   3.055 -1.4083 -0.6641 -1.2726
 1808SOL    HW3 7306   2.192   0.025   3.043  0.8063 -1.8698  0.0080
 1808SOL    MW4 7307   2.260   0.078   3.028 -0.0167 -0.9125 -0.4096
 1809SOL     OW 7308   2.237   0.322   3.133 -0.1586  0.0781  0.1817
 1809SOL    HW2 7309   2.251   0.327   3.227  1.4880 -1.2120  0.0187
 1809SOL    HW3 7310   2.161   0.379   3.117  1.4801  2.8441  1.8340
 1809SOL    MW4 7311   2.229   0.331   3.143  0.2747  0.2728  0.3781
 1810SOL     OW 7312   2.409   0.497   3.018 -0.0632  0.3043  0.0476
 1810SOL    HW2 7313   2.338   0.437   3.040  0.1313 -0.2106 -0.7113
 1810SOL    HW3 7314   2.442   0.466   2.934  0.5923  0.9686  0.0505
 1810SOL    MW4 7315   2.404   0.485   3.010  0.0486  0.3240 -0.0517
 1811SOL     OW 7316   2.467   0.742   3.154  0.1934  0.5266  0.2782
 1811SOL    HW2 7317   2.549   0.780   3.124  0.6302  0.4309  1.3273
 1811SOL    HW3 7318   2.462   0.657   3.109 -0.4021  1.4519 -1.4532
 1811SOL    MW4 7319   2.477   0.736   3.144  0.1721  0.6361  0.1884
 1812SOL     OW 7320   2.237   0.876   3.060  0.1515 -0.2559  0.4809
 1812SOL    HW2 7321   2.313   0.827   3.092 -0.6210 -1.6364  0.2231
 1812SOL    HW3 7322   2.161   0.824   3.086 -0.6726  0.6293 -0.0969
 1812SOL    MW4 7323   2.237   0.863   3.068 -0.0589 -0.3213  0.3707
 1813SOL     OW 7324   2.223   1.143   3.165  0.1639  0.4067 -0.4943
 1813SOL    HW2 7325   2.235   1.118   3.256  0.0928  1.1743 -0.2694
 1813SOL    HW3 7326   2.229   1.061   3.116  1.6534  0.1795  0.0546
 1813SOL    MW4 7327   2.225   1.129   3.171  0.3512  0.4779 -0.3922
 1814SOL     OW 7328   2.490   1.238   3.084  0.0599 -0.5520  0.2406
 1814SOL    HW2 7329   2.405   1.210   3.119 -1.0215  0.5636 -1.4420
 1814SOL    HW3 7330   2.480   1.231   2.989  1.7844 -0.2105  0.0286
 1814SOL    MW4 7331   2.477   1.233   3.076  0.1447 -0.3598 -0.0095
 1815SOL     OW 7332   2.500   1.512   3.159 -0.0988 -0.7263  0.3958
 1815SOL    HW2 7333   2.418   1.545   3.123 -0.1348 -0.4757  0.7036
 1815SOL    HW3 7334   2.506   1.422   3.127 -0.1126 -0.4936 -0.2614
 1815SOL    MW4 7335   2.490   1.505   3.150 -0.1054 -0.6627  0.3498
 1816SOL     OW 7336   2.274   1.669   3.066 -1.3084 -0.4129  0.0130
 1816SOL    HW2 7337   2.272   1.754   3.111  0.0704 -0.8719  0.9708
 1816SOL    HW3 7338   2.260   1.690   2.974 -0.9496  0.8537  0.2395
 1816SOL    MW4 7339   2.272   1.683   3.060 -1.0791 -0.3062  0.1693
 1817SOL     OW 7340   2.232   1.925   3.173  0.0927 -0.2490  0.2845
 1817SOL    HW2 7341   2.303   1.965   3.124 -1.2831 -0.5575 -2.0358
 1817SOL    HW3 7342   2.265   1.917   3.262  1.5486  3.1096  0.0922
 1817SOL    MW4 7343   2.246   1.929   3.178  0.1032  0.1534 -0.0470
 1818SOL     OW 7344   2.471   2.013   3.050  0.2544  0.1190 -0.3704
 1818SOL    HW2 7345   2.560   1.987   3.072  0.1936  1.3886  1.4785
 1818SOL    HW3 7346   2.470   2.019   2.954  1.8795 -0.8119 -0.4539
 1818SOL    MW4 7347   2.483   2.010   3.040  0.4606  0.1638 -0.1376
 1819SOL     OW 7348   2.474   2.288   3.104 -0.5755 -0.1190 -0.4596
 1819SOL    HW2 7349   2.478   2.281   3.200 -3.2357  0.8932 -0.2325
 1819SOL    HW3 7350   2.483   2.197   3.074 -2.8069 -0.8677  0.9317
 1819SOL    MW4 7351   2.476   2.275   3.113 -1.2209 -0.0842 -0.2460
 1820SOL     OW 7352   2.259   2.441   3.022  0.2438 -0.1077 -0.4556
 1820SOL    HW2 7353   2.272   2.520   3.074 -1.0603 -0.4323  0.3829
 1820SOL    HW3 7354   2.327   2.381   3.054  0.3019  0.1594 -0.0670
 1820SOL    MW4 7355   2.270   2.443   3.033  0.0794 -0.1156 -0.2937
 1821SOL     OW 7356   2.228   2.683   3.159 -0.4137  0.1092 -0.2337
 1821SOL    HW2 7357   2.303   2.737   3.134  0.0293 -0.0877  0.6502
 1821SOL    HW3 7358   2.153   2.727   3.120 -0.1121  1.6642  0.9147
 1821SOL    MW4 7359   2.228   2.696   3.151 -0.3154  0.2882  0.0343
 1822SOL     OW 7360   2.450   2.834   3.086  0.3047  0.1774  0.3307
 1822SOL    HW2 7361   2.434   2.925   3.110 -0.8956 -0.1048  0.6261
 1822SOL    HW3 7362   2.444   2.832   2.991 -0.8454  0.1977  0.3955
 1822SOL    MW4 7363   2.447   2.845   3.077 -0.0052  0.1431  0.3784
 1823SOL     OW 7364   2.460   3.092   3.142 -0.2328  0.4365 -0.0674
 1823SOL    HW2 7365   2.447   3.111   3.235  0.5202  2.0264 -0.2790
 1823SOL    HW3 7366   2.376   3.114   3.101 -1.2423 -2.2181  0.5141
 1823SOL    MW4 7367   2.447   3.098   3.149 -0.2666  0.2959 -0.0186
 1824SOL     OW 7368   2.247   3.200   3.033 -0.0138  0.3120 -0.2474
 1824SOL    HW2 7369   2.258   3.292   3.054  0.8622  0.5958 -1.8372
 1824SOL    HW3 7370   2.165   3.175   3.076  0.3258  1.5177  1.1356
 1824SOL    MW4 7371   2.238   3.208   3.041  0.1464  0.5085 -0.2747
 1825SOL     OW 7372   2.253   3.452   3.118 -0.2581 -0.1740 -0.0621
 1825SOL    HW2 7373   2.325   3.507   3.085 -0.6485  0.0056 -0.6138
 1825SOL    HW3 7374   2.174   3.493   3.083 -0.6434 -0.2895  0.6670
 1825SOL    MW4 7375   2.252   3.465   3.109 -0.3605 -0.1655 -0.0386
 1826SOL     OW 7376   2.466   3.595   3.020 -0.2518  0.1285  0.0947
 1826SOL    HW2 7377   2.544   3.543   3.041 -0.7219 -0.7152 -0.1962
 1826SOL    HW3 7378   2.480   3.679   3.063  0.2496 -0.4546  1.1023
 1826SOL    MW4 7379   2.478   3.599   3.029 -0.2475 -0.0596  0.1893
 1827SOL     OW 7380   2.468   3.854   3.107 -0.5307  0.1747  0.0384
 1827SOL    HW2 7381   2.478   3.848   3.202 -1.1797  1.2883  0.1781
 1827SOL    HW3 7382   2.548   3.896   3.077 -1.1844  1.6275  0.3051
 1827SOL    MW4 7383   2.480   3.859   3.115 -0.7024  0.5136  0.0923
 1828SOL     OW 7384   2.253   4.010   3.030 -0.2261 -0.1030  0.2719
 1828SOL    HW2 7385   2.329   3.959   3.060 -0.8283  0.3333  2.6315
 1828SOL    HW3 7386   2.177   3.959   3.057 -0.8718 -1.4321 -3.6431
 1828SOL    MW4 7387   2.253   3.997   3.037 -0.3908 -0.2208  0.0665
 1829SOL     OW 7388   2.284   4.271   3.157 -0.1646  0.4314  0.5402
 1829SOL    HW2 7389   2.289   4.183   3.120 -0.8271 -0.6160  2.8867
 1829SOL    HW3 7390   2.201   4.305   3.125 -0.7431 -0.4724  1.0702
 1829SOL    MW4 7391   2.274   4.264   3.148 -0.3283  0.1745  0.9198
 1830SOL     OW 7392   2.490   4.387   3.001 -0.2796  0.3999  0.5828
 1830SOL    HW2 7393   2.415   4.333   3.026 -0.3336  0.7999  1.3171
 1830SOL    HW3 7394   2.486   4.393   2.906 -0.3864 -0.7327  0.5053
 1830SOL    MW4 7395   2.480   4.381   2.992 -0.3006  0.3033  0.6697
 1831SOL     OW 7396   2.921   4.643   3.102  0.0329  0.0682 -0.2716
 1831SOL    HW2 7397   3.001   4.693   3.085  0.4249 -0.1386  0.8734
 1831SOL    HW3 7398   2.943   4.554   3.076  1.0483 -0.4976  2.3533
 1831SOL    MW4 7399   2.935   4.638   3.096  0.2186 -0.0339  0.2258
 1832SOL     OW 7400   2.646   0.080   3.051 -0.1221 -0.2599 -0.3657
 1832SOL    HW2 7401   2.732   0.046   3.077  0.7050  2.4720  0.6634
 1832SOL    HW3 7402   2.583   0.023   3.095  1.2318  0.8303  3.1521
 1832SOL    MW4 7403   2.649   0.068   3.061  0.1655  0.2443  0.2346
 1833SOL     OW 7404   2.655   0.360   3.115  0.1856 -0.0979  0.0612
 1833SOL    HW2 7405   2.651   0.267   3.092  0.7526 -0.1982  0.3641
 1833SOL    HW3 7406   2.572   0.396   3.085 -0.3662 -0.8656  0.6417
 1833SOL    MW4 7407   2.644   0.352   3.108  0.1874 -0.2124  0.1781
 1834SOL     OW 7408   2.880   0.463   2.709  0.0309  0.2387 -0.0084
 1834SOL    HW2 7409   2.809   0.407   2.678  0.2038 -0.1150  0.2331
 1834SOL    HW3 7410   2.876   0.457   2.804  0.8281 -0.3463 -0.0033
 1834SOL    MW4 7411   2.870   0.455   2.717  0.1590  0.1149  0.0241
 1835SOL     OW 7412   2.915   0.463   2.988 -0.1347  0.0568  0.4874
 1835SOL    HW2 7413   2.925   0.556   3.006  0.8988  0.1970 -0.7576
 1835SOL    HW3 7414   2.837   0.437   3.039  0.2283  1.3291  1.7251
 1835SOL    MW4 7415   2.906   0.471   2.997  0.0496  0.2431  0.4866
 1836SOL     OW 7416   2.978   0.721   3.378  0.6186 -0.3541  0.3675
 1836SOL    HW2 7417   3.040   0.776   3.426 -0.2740  0.9061  0.1065
 1836SOL    HW3 7418   2.965   0.645   3.434  0.9426  0.2783  1.3172
 1836SOL    MW4 7419   2.984   0.719   3.392  0.5436 -0.1043  0.4580
 1837SOL     OW 7420   2.692   0.856   3.046  0.9019 -0.1819 -0.4115
 1837SOL    HW2 7421   2.703   0.949   3.068 -0.2985 -0.3149  0.7845
 1837SOL    HW3 7422   2.775   0.815   3.072  0.3641  0.0598  1.7663
 1837SOL    MW4 7423   2.705   0.863   3.052  0.6723 -0.1675  0.0336
 1838SOL     OW 7424   2.729   1.129   3.148  0.0703 -0.5967 -0.5104
 1838SOL    HW2 7425   2.653   1.180   3.119  1.6609  1.2191 -1.5449
 1838SOL    HW3 7426   2.721   1.126   3.243 -0.5481  0.7795 -0.5155
 1838SOL    MW4 7427   2.718   1.135   3.157  0.1986 -0.1755 -0.6475
 1839SOL     OW 7428   2.965   1.556   3.094 -0.5204  0.1529  0.1958
 1839SOL    HW2 7429   2.953   1.467   3.062  1.5757  0.3100 -1.1542
 1839SOL    HW3 7430   2.943   1.552   3.187 -4.5165 -0.8347 -0.7281
 1839SOL    MW4 7431   2.961   1.544   3.102 -0.7708  0.0433 -0.1044
 1840SOL     OW 7432   2.709   1.682   3.062 -0.2191 -0.2546  0.4489
 1840SOL    HW2 7433   2.790   1.632   3.069 -0.1167 -0.1035  0.3547
 1840SOL    HW3 7434   2.641   1.625   3.098  0.1062  0.0534  1.5583
 1840SOL    MW4 7435   2.711   1.668   3.068 -0.1626 -0.1941  0.5825
 1841SOL     OW 7436   2.714   1.948   3.129  0.2871 -0.2338 -0.2317
 1841SOL    HW2 7437   2.705   1.947   3.225  0.7772  1.3538 -0.1711
 1841SOL    HW3 7438   2.716   1.855   3.105  1.6540 -0.6680  1.4433
 1841SOL    MW4 7439   2.713   1.935   3.139  0.5319 -0.0817 -0.0024
 1842SOL     OW 7440   2.983   2.057   3.012  0.4303  0.0904 -0.1092
 1842SOL    HW2 7441   2.903   2.020   3.049  0.7728  0.0316  0.5698
 1842SOL    HW3 7442   2.963   2.069   2.919 -0.9501  1.6043  0.3607
 1842SOL    MW4 7443   2.970   2.054   3.005  0.2935  0.2820  0.0422
 1843SOL     OW 7444   2.922   2.300   3.118 -0.3156  0.6977  0.4404
 1843SOL    HW2 7445   2.947   2.218   3.075  0.4698  0.4772  1.2972
 1843SOL    HW3 7446   2.838   2.324   3.078 -1.4076 -1.4165  1.3884
 1843SOL    MW4 7447   2.914   2.293   3.107 -0.3557  0.3896  0.6785
 1844SOL     OW 7448   2.678   2.435   3.014 -0.4694  0.3074  0.1379
 1844SOL    HW2 7449   2.679   2.526   3.041  0.1008  0.4140 -0.2195
 1844SOL    HW3 7450   2.598   2.399   3.051 -1.8261  1.5147 -1.5479
 1844SOL    MW4 7451   2.668   2.442   3.022 -0.5729  0.4809 -0.1318
 1845SOL     OW 7452   2.671   2.689   3.127  0.0356  0.2492 -0.5536
 1845SOL    HW2 7453   2.686   2.683   3.221 -0.3811  0.1584 -0.4926
 1845SOL    HW3 7454   2.594   2.745   3.118  0.4998  0.8510 -0.8745
 1845SOL    MW4 7455   2.663   2.695   3.138  0.0417  0.3164 -0.5879
 1846SOL     OW 7456   2.904   2.818   3.062 -0.3490 -0.6572 -0.0848
 1846SOL    HW2 7457   2.974   2.776   3.112 -0.8735  1.4063  2.5436
 1846SOL    HW3 7458   2.824   2.772   3.089 -0.5704  0.1462  0.6848
 1846SOL    MW4 7459   2.902   2.806   3.072 -0.4473 -0.2787  0.3636
 1847SOL     OW 7460   2.928   3.062   3.209  0.3245 -0.1270 -0.0958
 1847SOL    HW2 7461   2.853   3.099   3.162  0.0280  0.0595  0.5269
 1847SOL    HW3 7462   2.924   2.968   3.192 -0.4902 -0.2196  0.5613
 1847SOL    MW4 7463   2.918   3.055   3.200  0.1781 -0.1144  0.0730
 1848SOL     OW 7464   2.705   3.185   3.058 -0.0563  0.3994  0.3505
 1848SOL    HW2 7465   2.698   3.280   3.053 -1.5072  0.3875  1.7147
 1848SOL    HW3 7466   2.616   3.155   3.075  0.6213 -1.0870  1.4295
 1848SOL    MW4 7467   2.692   3.193   3.059 -0.1585  0.2017  0.6731
 1849SOL     OW 7468   2.686   3.455   3.075  0.0582 -0.1289 -0.3880
 1849SOL    HW2 7469   2.704   3.445   3.169 -0.1236 -1.3370 -0.4772
 1849SOL    HW3 7470   2.765   3.496   3.040 -0.0366  0.7001  0.3588
 1849SOL    MW4 7471   2.699   3.459   3.083  0.0217 -0.1788 -0.3011
 1850SOL     OW 7472   2.937   3.572   3.005 -0.0802  0.0482 -0.2288
 1850SOL    HW2 7473   3.019   3.541   3.044  0.4055 -0.0673 -1.3169
 1850SOL    HW3 7474   2.924   3.658   3.043  1.0244  0.4394 -0.7110
 1850SOL    MW4 7475   2.946   3.579   3.015  0.1299  0.0846 -0.4358
 1851SOL     OW 7476   2.946   3.871   3.050 -0.3733  0.1507  0.4085
 1851SOL    HW2 7477   2.938   3.868   3.145 -1.2831 -0.2608  0.3273
 1851SOL    HW3 7478   2.862   3.905   3.020  0.0364  0.6088 -0.2292
 1851SOL    MW4 7479   2.934   3.875   3.059 -0.4396  0.1566  0.3135
 1852SOL     OW 7480   2.688   3.952   2.986 -0.0933  0.1184  0.3224
 1852SOL    HW2 7481   2.691   4.038   3.026 -0.0724  0.4467 -0.3651
 1852SOL    HW3 7482   2.703   3.969   2.893 -0.0975 -0.6242  0.1826
 1852SOL    MW4 7483   2.690   3.966   2.979 -0.0908  0.0639  0.2134
 1853SOL     OW 7484   2.706   4.226   3.101 -0.0302 -0.5513  0.1201
 1853SOL    HW2 7485   2.689   4.219   3.196 -0.2956  0.8743  0.1840
 1853SOL    HW3 7486   2.639   4.287   3.070  0.8681 -0.0285 -0.7785
 1853SOL    MW4 7487   2.695   4.233   3.110  0.0534 -0.2947  0.0100
 1854SOL     OW 7488   2.931   4.384   3.038 -0.1240  0.3428  0.5133
 1854SOL    HW2 7489   3.013   4.348   3.069  0.5432  0.9206 -0.5254
 1854SOL    HW3 7490   2.864   4.325   3.071  0.6804  0.0682  1.6646
 1854SOL    MW4 7491   2.933   4.371   3.046  0.0701  0.3829  0.5281
 1855SOL     OW 7492   3.388   4.659   3.142 -0.2461  0.1980  0.3192
 1855SOL    HW2 7493   3.468   4.700   3.110  0.0779 -0.7668 -0.1471
 1855SOL    HW3 7494   3.391   4.570   3.107 -1.1290 -0.0993  0.9627
 1855SOL    MW4 7495   3.399   4.652   3.133 -0.3197  0.0319  0.3428
 1856SOL     OW 7496   3.157   0.099   3.018 -0.2781 -0.3736  0.2251
 1856SOL    HW2 7497   3.157   0.193   3.037 -1.6368 -0.3843  0.3010
 1856SOL    HW3 7498   3.234   0.065   3.064  0.5429  0.7847 -0.2634
 1856SOL    MW4 7499   3.167   0.107   3.026 -0.3490 -0.2221  0.1705
 1857SOL     OW 7500   3.130   0.373   3.132 -0.4319  0.5421  0.0727
 1857SOL    HW2 7501   3.206   0.415   3.091 -0.5310  0.0295 -0.6436
 1857SOL    HW3 7502   3.054   0.418   3.095 -0.6018 -1.2491 -1.8627
 1857SOL    MW4 7503   3.130   0.385   3.121 -0.4673  0.2382 -0.2770
 1858SOL     OW 7504   3.377   0.487   3.054 -0.1496  0.8412  0.1328
 1858SOL    HW2 7505   3.460   0.465   3.095 -0.5709  0.4790  0.7956
 1858SOL    HW3 7506   3.392   0.473   2.960  0.9880  2.2620  0.0888
 1858SOL    MW4 7507   3.390   0.482   3.047 -0.0548  0.9809  0.2143
 1859SOL     OW 7508   3.389   0.760   3.095  0.2146  0.1287  0.2339
 1859SOL    HW2 7509   3.408   0.764   3.188  2.5967  1.5596 -0.2612
 1859SOL    HW3 7510   3.385   0.667   3.075  1.6973 -0.2058  1.3943
 1859SOL    MW4 7511   3.391   0.749   3.104  0.7246  0.2733  0.3219
 1860SOL     OW 7512   3.149   0.875   3.010  0.4103 -0.1592 -0.5954
 1860SOL    HW2 7513   3.232   0.841   3.046 -0.0640 -0.4285  0.2470
 1860SOL    HW3 7514   3.157   0.970   3.017  1.0120 -0.1441 -1.3390
 1860SOL    MW4 7515   3.161   0.883   3.016  0.4270 -0.1928 -0.5825
 1861SOL     OW 7516   2.931   1.279   3.060  0.3700  0.4256  0.1741
 1861SOL    HW2 7517   2.852   1.229   3.081  0.7404 -0.4167 -0.4222
 1861SOL    HW3 7518   3.003   1.220   3.078  0.8673  1.1566  0.6066
 1861SOL    MW4 7519   2.930   1.265   3.065  0.4842  0.4109  0.1523
 1862SOL     OW 7520   3.414   1.266   3.035 -0.2721 -0.1081  0.5498
 1862SOL    HW2 7521   3.492   1.223   3.069 -0.9478 -0.3994  1.7486
 1862SOL    HW3 7522   3.399   1.339   3.095 -0.4796  0.3960 -0.1180
 1862SOL    MW4 7523   3.422   1.270   3.047 -0.3889 -0.0800  0.6196
 1863SOL     OW 7524   3.363   1.496   3.164  0.5207 -0.3779  0.1973
 1863SOL    HW2 7525   3.346   1.497   3.259  0.8886 -1.2123  0.2744
 1863SOL    HW3 7526   3.307   1.566   3.129  0.9816  0.4769  1.1327
 1863SOL    MW4 7527   3.353   1.506   3.172  0.6301 -0.3752  0.3309
 1864SOL     OW 7528   3.188   1.666   3.008  0.3606 -0.3384  0.2245
 1864SOL    HW2 7529   3.104   1.627   3.032  0.7289 -1.9782 -1.0709
 1864SOL    HW3 7530   3.190   1.663   2.912  1.2821  1.0290  0.1738
 1864SOL    MW4 7531   3.177   1.661   2.998  0.5307 -0.3743  0.0470
 1865SOL     OW 7532   3.187   1.897   3.150 -0.6480  0.0225  0.0089
 1865SOL    HW2 7533   3.201   1.821   3.093  0.3091  0.8290 -0.8668
 1865SOL    HW3 7534   3.119   1.948   3.106 -0.0995  0.5089 -0.2902
 1865SOL    MW4 7535   3.180   1.894   3.137 -0.4492  0.1932 -0.1462
 1866SOL     OW 7536   3.381   2.083   3.069 -0.3766 -0.2121 -0.0294
 1866SOL    HW2 7537   3.458   2.033   3.098  0.2862  1.3945  1.1008
 1866SOL    HW3 7538   3.307   2.035   3.106  0.0376 -1.9981 -1.4583
 1866SOL    MW4 7539   3.381   2.070   3.078 -0.2346 -0.2358 -0.0684
 1867SOL     OW 7540   3.341   2.348   3.155 -0.6858 -0.2126  0.0466
 1867SOL    HW2 7541   3.341   2.328   3.248  1.5829 -0.2767  0.0533
 1867SOL    HW3 7542   3.351   2.263   3.112 -1.1598 -0.1215 -0.2491
 1867SOL    MW4 7543   3.342   2.334   3.162 -0.4487 -0.2091  0.0081
 1868SOL     OW 7544   3.114   2.470   3.037 -0.3235 -0.1428  0.5232
 1868SOL    HW2 7545   3.197   2.437   3.072 -0.2128 -1.3366 -0.8116
 1868SOL    HW3 7546   3.047   2.416   3.080 -0.3255 -0.1475  0.5144
 1868SOL    MW4 7547   3.116   2.458   3.047 -0.3092 -0.3011  0.3457
 1869SOL     OW 7548   3.135   2.713   3.159  0.7140 -0.0301 -0.6236
 1869SOL    HW2 7549   3.147   2.708   3.254  1.5759  0.7070 -0.6896
 1869SOL    HW3 7550   3.122   2.622   3.132 -0.5698 -0.1463  0.3329
 1869SOL    MW4 7551   3.135   2.700   3.168  0.6583  0.0520 -0.5059
 1870SOL     OW 7552   3.375   2.781   3.070 -0.0881  0.1641 -0.4252
 1870SOL    HW2 7553   3.386   2.873   3.094 -1.5134  0.6524 -1.5349
 1870SOL    HW3 7554   3.286   2.759   3.098  0.7723 -1.3279  1.1830
 1870SOL    MW4 7555   3.365   2.790   3.077 -0.1628  0.0317 -0.3593
 1871SOL     OW 7556   3.360   3.030   3.158 -0.7491  0.3064 -0.1496
 1871SOL    HW2 7557   3.347   3.060   3.248 -0.8242 -1.2445  0.3695
 1871SOL    HW3 7558   3.274   3.042   3.117 -0.5655  1.5548 -0.1833
 1871SOL    MW4 7559   3.347   3.036   3.165 -0.7346  0.2663 -0.0856
 1872SOL     OW 7560   3.134   3.188   3.064  0.5826 -0.2019  0.1226
 1872SOL    HW2 7561   3.065   3.160   3.124  1.4211  0.9329  1.6467
 1872SOL    HW3 7562   3.099   3.168   2.977 -1.3500 -0.3421  0.8946
 1872SOL    MW4 7563   3.120   3.181   3.060  0.4385 -0.0708  0.4256
 1873SOL     OW 7564   3.154   3.440   3.134 -0.1602 -0.3864 -0.4275
 1873SOL    HW2 7565   3.227   3.492   3.098 -0.8437  0.1376 -1.0739
 1873SOL    HW3 7566   3.160   3.357   3.088  0.7735 -0.7985  0.4120
 1873SOL    MW4 7567   3.165   3.436   3.123 -0.1273 -0.3715 -0.4020
 1874SOL     OW 7568   3.367   3.586   3.014  0.8904  0.1545 -0.8864
 1874SOL    HW2 7569   3.441   3.539   3.053  0.2106  0.4169  0.7634
 1874SOL    HW3 7570   3.371   3.673   3.053 -0.6546 -0.0316 -0.2565
 1874SOL    MW4 7571   3.377   3.591   3.025  0.5970  0.1645 -0.5853
 1875SOL     OW 7572   3.379   3.846   3.126  0.3317 -0.0926 -0.0795
 1875SOL    HW2 7573   3.366   3.870   3.218 -0.7431  0.1725 -0.2855
 1875SOL    HW3 7574   3.314   3.898   3.079  1.0518 -0.0294 -1.0190
 1875SOL    MW4 7575   3.369   3.856   3.132  0.2847 -0.0491 -0.2308
 1876SOL     OW 7576   3.183   3.990   2.987 -0.2599  0.5916  0.3555
 1876SOL    HW2 7577   3.102   3.942   3.004 -0.5560  0.9536 -0.0383
 1876SOL    HW3 7578   3.179   4.012   2.894  0.0373  1.0834  0.4588
 1876SOL    MW4 7579   3.172   3.987   2.977 -0.2596  0.7045  0.3173
 1877SOL     OW 7580   3.174   4.239   3.121 -0.0204 -0.0618  0.1223
 1877SOL    HW2 7581   3.155   4.239   3.214 -0.5558  0.0096  0.0116
 1877SOL    HW3 7582   3.178   4.147   3.096 -0.1834 -0.0748  0.1497
 1877SOL    MW4 7583   3.172   4.227   3.130 -0.1128 -0.0539  0.1113
 1878SOL     OW 7584   3.375   4.406   3.020  0.1504  0.0455  0.0803
 1878SOL    HW2 7585   3.442   4.351   3.060 -0.1893 -0.7926 -0.4977
 1878SOL    HW3 7586   3.293   4.377   3.059  0.0009  0.3491 -0.0037
 1878SOL    MW4 7587   3.373   4.395   3.030  0.0858 -0.0248 -0.0072
 1879SOL     OW 7588   3.802   4.637   3.154 -0.1471  0.4032 -0.0586
 1879SOL    HW2 7589   3.783   4.548   3.123 -1.2119  0.2310  1.0631
 1879SOL    HW3 7590   3.745   4.693   3.102  2.0958  0.7016 -2.3485
 1879SOL    MW4 7591   3.792   4.633   3.143  0.0083  0.4196 -0.2129
 1880SOL     OW 7592   3.605   0.123   3.021  0.2874 -0.1002 -0.0484
 1880SOL    HW2 7593   3.600   0.215   3.045  0.6279 -0.1574  0.2470
 1880SOL    HW3 7594   3.592   0.123   2.926 -0.4900  0.1728  0.0555
 1880SOL    MW4 7595   3.603   0.135   3.011  0.2296 -0.0717  0.0041
 1881SOL     OW 7596   3.609   0.373   3.153 -0.0843 -0.7699  0.0413
 1881SOL    HW2 7597   3.613   0.373   3.249 -1.6848  2.5610  0.1767
 1881SOL    HW3 7598   3.699   0.390   3.125 -0.0746  0.8013  1.0072
 1881SOL    MW4 7599   3.621   0.375   3.162 -0.2942 -0.1232  0.1864
 1882SOL     OW 7600   3.851   0.429   3.024 -0.5518 -0.1496  0.5964
 1882SOL    HW2 7601   3.924   0.380   3.063 -0.8283 -1.2304 -0.2129
 1882SOL    HW3 7602   3.870   0.520   3.044  1.1792 -0.3901  0.1447
 1882SOL    MW4 7603   3.863   0.434   3.032 -0.3598 -0.3239  0.4299
 1883SOL     OW 7604   3.867   0.692   3.115 -0.0088 -0.5426  0.0021
 1883SOL    HW2 7605   3.835   0.709   3.204 -2.6105  1.0384 -1.1611
 1883SOL    HW3 7606   3.910   0.774   3.089 -1.8465  0.0890 -1.1998
 1883SOL    MW4 7607   3.868   0.705   3.123 -0.5949 -0.2506 -0.3102
 1884SOL     OW 7608   3.652   0.856   3.046 -0.3951  0.0948  0.0716
 1884SOL    HW2 7609   3.699   0.778   3.077 -0.5361 -1.0283 -2.4378
 1884SOL    HW3 7610   3.561   0.839   3.069 -0.6193 -1.1123 -1.6875
 1884SOL    MW4 7611   3.646   0.843   3.053 -0.4432 -0.2127 -0.4919
 1885SOL     OW 7612   3.647   1.153   3.131 -0.0358 -0.1963 -0.0259
 1885SOL    HW2 7613   3.715   1.206   3.089  0.5342  0.2175  1.3900
 1885SOL    HW3 7614   3.654   1.068   3.088  3.0037 -0.9058  1.7000
 1885SOL    MW4 7615   3.657   1.149   3.120  0.4404 -0.2354  0.3884
 1886SOL     OW 7616   3.857   1.301   3.015  0.0959  0.6745 -0.3612
 1886SOL    HW2 7617   3.859   1.383   3.064 -0.4382  0.3940  0.1354
 1886SOL    HW3 7618   3.819   1.325   2.930 -1.3829  0.6959  0.2783
 1886SOL    MW4 7619   3.852   1.315   3.010 -0.1698  0.6404 -0.2115
 1887SOL     OW 7620   3.849   1.543   3.165  0.3759  0.0756  0.4493
 1887SOL    HW2 7621   3.846   1.555   3.260  0.7474  0.9671  0.3501
 1887SOL    HW3 7622   3.760   1.564   3.136  0.4291  0.4208  0.5308
 1887SOL    MW4 7623   3.837   1.547   3.174  0.4315  0.2388  0.4470
 1888SOL     OW 7624   3.611   1.636   3.079 -0.0926 -0.2266  0.1572
 1888SOL    HW2 7625   3.587   1.726   3.103  0.6155 -0.5472  2.1678
 1888SOL    HW3 7626   3.534   1.584   3.103 -0.3021 -0.2177 -0.5101
 1888SOL    MW4 7627   3.598   1.641   3.086 -0.0267 -0.2677  0.3345
 1889SOL     OW 7628   3.600   1.911   3.118  0.1905 -0.0935  0.1183
 1889SOL    HW2 7629   3.608   1.912   3.213 -0.7303 -0.0081  0.1949
 1889SOL    HW3 7630   3.685   1.943   3.086  1.0099 -1.4353  0.8794
 1889SOL    MW4 7631   3.612   1.915   3.126  0.1774 -0.2593  0.2291
 1890SOL     OW 7632   3.843   1.998   3.072  0.9353 -0.0816  0.5590
 1890SOL    HW2 7633   3.817   2.087   3.096 -3.0376 -1.5493  2.1018
 1890SOL    HW3 7634   3.833   1.995   2.976 -2.7143  0.1125  0.8606
 1890SOL    MW4 7635   3.838   2.009   3.062 -0.0703 -0.2496  0.8020
 1891SOL     OW 7636   3.819   2.276   3.126 -0.1443 -0.0026  0.2972
 1891SOL    HW2 7637   3.815   2.271   3.221  0.3010 -1.4716  0.2543
 1891SOL    HW3 7638   3.731   2.304   3.099 -0.5251 -0.4408  1.0795
 1891SOL    MW4 7639   3.807   2.279   3.135 -0.1357 -0.2542  0.3948
 1892SOL     OW 7640   3.584   2.409   3.043  0.2148 -0.2826 -0.1854
 1892SOL    HW2 7641   3.614   2.490   3.084 -0.2013 -0.0462 -0.3545
 1892SOL    HW3 7642   3.503   2.388   3.089 -0.0895 -0.1850 -0.6821
 1892SOL    MW4 7643   3.577   2.417   3.055  0.1199 -0.2387 -0.2732
 1893SOL     OW 7644   3.603   2.651   3.160 -0.1779 -0.2898 -0.4425
 1893SOL    HW2 7645   3.680   2.701   3.134 -0.1526  0.2503  0.6682
 1893SOL    HW3 7646   3.529   2.701   3.123  0.0296 -1.2981 -2.2995
 1893SOL    MW4 7647   3.603   2.665   3.152 -0.1471 -0.3519 -0.5410
 1894SOL     OW 7648   3.800   2.818   3.058  0.0935 -0.0264 -0.0895
 1894SOL    HW2 7649   3.784   2.911   3.077  0.1951 -0.0524  0.1190
 1894SOL    HW3 7650   3.779   2.809   2.965  0.1709  0.2256 -0.1318
 1894SOL    MW4 7651   3.795   2.829   3.048  0.1171  0.0036 -0.0677
 1895SOL     OW 7652   3.782   3.090   3.105 -0.1612  0.0942 -0.8777
 1895SOL    HW2 7653   3.779   3.106   3.200  0.9537  1.6628 -1.0740
 1895SOL    HW3 7654   3.701   3.128   3.072 -0.6793 -0.6920 -0.5324
 1895SOL    MW4 7655   3.771   3.097   3.113 -0.0823  0.1976 -0.8583
 1896SOL     OW 7656   3.534   3.218   3.047  0.1374  0.7345  0.4337
 1896SOL    HW2 7657   3.480   3.143   3.073  0.5913  0.6971  1.3044
 1896SOL    HW3 7658   3.536   3.214   2.951  0.1212 -0.3449  0.4642
 1896SOL    MW4 7659   3.527   3.207   3.038  0.1950  0.5872  0.5529
 1897SOL     OW 7660   3.555   3.481   3.167 -0.2846  0.6535 -0.6163
 1897SOL    HW2 7661   3.643   3.497   3.131 -0.7631 -0.2058 -2.2510
 1897SOL    HW3 7662   3.544   3.386   3.161 -0.8659  0.6241  0.7223
 1897SOL    MW4 7663   3.565   3.471   3.161 -0.4244  0.5364 -0.6554
 1898SOL     OW 7664   3.811   3.583   3.071 -0.0646  0.1719 -0.1996
 1898SOL    HW2 7665   3.835   3.675   3.083  0.4830 -0.0842  0.7221
 1898SOL    HW3 7666   3.814   3.569   2.976 -0.8740  1.2979 -0.4002
 1898SOL    MW4 7667   3.814   3.593   3.060 -0.0992  0.2866 -0.1047
 1899SOL     OW 7668   3.872   3.858   3.127 -0.2307 -0.2364  0.1113
 1899SOL    HW2 7669   3.861   3.867   3.222  0.3670  0.8579  0.0876
 1899SOL    HW3 7670   3.796   3.903   3.090 -0.4855 -0.6995  0.0674
 1899SOL    MW4 7671   3.860   3.865   3.135 -0.1857 -0.1531  0.1023
 1900SOL     OW 7672   3.633   3.967   3.046  0.0294 -0.1070  0.1816
 1900SOL    HW2 7673   3.558   3.916   3.075 -2.0006  1.7455 -1.6438
 1900SOL    HW3 7674   3.628   3.964   2.950  1.5184  1.1380  0.0517
 1900SOL    MW4 7675   3.623   3.960   3.037 -0.0420  0.3018 -0.0763
 1901SOL     OW 7676   3.596   4.233   3.104 -0.1575  0.0664  0.4421
 1901SOL    HW2 7677   3.665   4.286   3.064  0.3491 -0.2014  0.9551
 1901SOL    HW3 7678   3.620   4.142   3.083  0.0404 -0.0689  1.2472
 1901SOL    MW4 7679   3.608   4.228   3.096 -0.0644  0.0134  0.6161
 1902SOL     OW 7680   3.824   4.379   3.057 -0.0090 -0.0842 -0.1883
 1902SOL    HW2 7681   3.888   4.316   3.088  0.7680  0.4097 -0.7833
 1902SOL    HW3 7682   3.834   4.380   2.962  0.4225  1.3722 -0.1438
 1902SOL    MW4 7683   3.834   4.371   3.049  0.1504  0.1731 -0.2611
 1903SOL     OW 7684   4.263   4.610   3.086  0.0168 -0.2006 -0.0578
 1903SOL    HW2 7685   4.274   4.611   3.181  1.0360 -1.3013 -0.1549
 1903SOL    HW3 7686   4.245   4.518   3.065 -0.0861  0.0180 -0.9386
 1903SOL    MW4 7687   4.262   4.598   3.096  0.1378 -0.3171 -0.1869
 1904SOL     OW 7688   4.027   0.072   3.041  0.2814  0.0273  0.2900
 1904SOL    HW2 7689   4.096   0.006   3.052  0.3863  0.2505  0.9897
 1904SOL    HW3 7690   3.947   0.028   3.069  0.1153 -0.2771 -0.6584
 1904SOL    MW4 7691   4.026   0.057   3.046  0.2737  0.0166  0.2573
 1905SOL     OW 7692   4.043   0.316   3.188 -0.3225 -0.2684 -0.0412
 1905SOL    HW2 7693   4.117   0.367   3.156  0.7621 -1.3779  0.6257
 1905SOL    HW3 7694   4.056   0.229   3.150  0.0418 -1.1252  1.9796
 1905SOL    MW4 7695   4.054   0.311   3.179 -0.1311 -0.5278  0.3133
 1906SOL     OW 7696   4.227   0.523   3.065  0.0250  0.6310  0.4375
 1906SOL    HW2 7697   4.218   0.618   3.072 -0.3216  0.6683 -0.4793
 1906SOL    HW3 7698   4.223   0.506   2.971 -1.5997 -0.4699  0.6977
 1906SOL    MW4 7699   4.226   0.533   3.053 -0.2346  0.4907  0.3510
 1907SOL     OW 7700   4.211   0.795   3.132  0.2288  0.2029 -0.1959
 1907SOL    HW2 7701   4.135   0.828   3.083  0.3359  2.5510  1.1689
 1907SOL    HW3 7702   4.287   0.832   3.087  0.3521  1.8747  1.3511
 1907SOL    MW4 7703   4.211   0.804   3.120  0.2589  0.7333  0.1886
 1908SOL     OW 7704   3.990   0.916   3.021  0.1069  0.0653 -0.0717
 1908SOL    HW2 7705   4.029   0.998   3.054 -1.4486  0.9121 -0.2968
 1908SOL    HW3 7706   3.998   0.922   2.926  0.6974 -0.4162 -0.0574
 1908SOL    MW4 7707   3.996   0.928   3.013 -0.0203  0.1135 -0.0997
 1909SOL     OW 7708   4.078   1.155   3.104  0.3426 -0.2330 -0.2470
 1909SOL    HW2 7709   4.059   1.159   3.198 -0.3041  0.2091 -0.3994
 1909SOL    HW3 7710   4.009   1.207   3.063  2.0895  1.7200 -0.7739
 1909SOL    MW4 7711   4.067   1.162   3.111  0.4873  0.0831 -0.3369
 1910SOL     OW 7712   4.309   1.295   3.047  0.0509 -0.1673 -0.0792
 1910SOL    HW2 7713   4.229   1.250   3.074 -1.1136  0.9422 -1.6392
 1910SOL    HW3 7714   4.321   1.271   2.955  1.6122 -0.4621  0.1887
 1910SOL    MW4 7715   4.300   1.286   3.039  0.1040 -0.0598 -0.2496
 1911SOL     OW 7716   4.271   1.535   3.164 -0.0340 -0.0719  0.4741
 1911SOL    HW2 7717   4.194   1.579   3.126  0.5539  0.9155  0.4226
 1911SOL    HW3 7718   4.274   1.451   3.119 -1.5463 -0.4522  1.0311
 1911SOL    MW4 7719   4.261   1.530   3.153 -0.1554  0.0081  0.5407
 1912SOL     OW 7720   4.072   1.676   3.035 -0.1092  0.1559 -0.0834
 1912SOL    HW2 7721   4.083   1.758   3.083 -1.8800 -0.3583  1.2280
 1912SOL    HW3 7722   3.990   1.640   3.067  1.1614 -2.6795  0.1662
 1912SOL    MW4 7723   4.063   1.682   3.046 -0.1750 -0.2861  0.1225
 1913SOL     OW 7724   4.091   1.901   3.174 -0.0789  0.0047  0.6921
 1913SOL    HW2 7725   4.168   1.947   3.141  0.8458 -0.9625  1.4583
 1913SOL    HW3 7726   4.017   1.949   3.137  0.8752  1.3854  0.5199
 1913SOL    MW4 7727   4.092   1.914   3.165  0.1688  0.0594  0.7701
 1914SOL     OW 7728   4.285   2.057   3.054  0.2498  0.4890 -0.3393
 1914SOL    HW2 7729   4.263   2.147   3.079  1.3559  0.7876 -0.4245
 1914SOL    HW3 7730   4.276   2.056   2.959 -1.6541 -0.0191 -0.1761
 1914SOL    MW4 7731   4.281   2.069   3.045  0.1445  0.4616 -0.3290
 1915SOL     OW 7732   4.232   2.317   3.140 -0.1115  0.2980 -0.1465
 1915SOL    HW2 7733   4.168   2.368   3.090 -1.1935 -0.9340 -0.0165
 1915SOL    HW3 7734   4.314   2.331   3.093 -0.7460  0.7065 -1.1587
 1915SOL    MW4 7735   4.234   2.326   3.127 -0.3381  0.1895 -0.2630
 1916SOL     OW 7736   4.023   2.435   3.001  0.0724  0.1977  0.1719
 1916SOL    HW2 7737   4.008   2.524   3.031 -0.5278 -0.1542  0.9445
 1916SOL    HW3 7738   3.970   2.381   3.059  2.3515 -0.8871  1.3316
 1916SOL    MW4 7739   4.014   2.440   3.013  0.2937  0.0081  0.4265
 1917SOL     OW 7740   4.023   2.688   3.138 -0.3252 -0.1197 -0.1508
 1917SOL    HW2 7741   4.018   2.662   3.230 -0.3620  0.5233  0.0311
 1917SOL    HW3 7742   3.954   2.753   3.127 -2.0461 -2.0524 -1.2808
 1917SOL    MW4 7743   4.013   2.693   3.149 -0.5569 -0.2897 -0.2761
 1918SOL     OW 7744   4.261   2.808   3.053  0.3741 -0.3599  0.2922
 1918SOL    HW2 7745   4.184   2.759   3.082  1.0186 -1.1272  0.7252
 1918SOL    HW3 7746   4.335   2.760   3.089  1.1809 -1.1149 -2.2544
 1918SOL    MW4 7747   4.261   2.795   3.062  0.5655 -0.5608  0.0134
 1919SOL     OW 7748   4.252   3.069   3.149 -0.3464  0.4608  0.0520
 1919SOL    HW2 7749   4.168   3.100   3.114  0.1282  1.4072 -0.2586
 1919SOL    HW3 7750   4.259   2.978   3.118 -1.3501  0.3124  0.2522
 1919SOL    MW4 7751   4.242   3.061   3.140 -0.4168  0.5660  0.0374
 1920SOL     OW 7752   4.035   3.166   3.009  0.4729  0.0656  0.5498
 1920SOL    HW2 7753   4.042   3.250   3.054 -0.4241 -0.9245  2.6490
 1920SOL    HW3 7754   3.950   3.132   3.037 -0.1662 -0.5624 -2.0322
 1920SOL    MW4 7755   4.025   3.173   3.019  0.2704 -0.1478  0.4861
 1921SOL     OW 7756   4.018   3.422   3.135 -0.2786 -0.1959  0.2812
 1921SOL    HW2 7757   4.033   3.425   3.229 -1.3483 -1.2843  0.4966
 1921SOL    HW3 7758   3.941   3.477   3.121 -0.0591  0.0501  0.0223
 1921SOL    MW4 7759   4.010   3.430   3.146 -0.3905 -0.3071  0.2754
 1922SOL     OW 7760   4.245   3.600   3.084 -0.1358  0.3787  0.2048
 1922SOL    HW2 7761   4.234   3.687   3.121 -1.7290 -0.0737  0.8490
 1922SOL    HW3 7762   4.162   3.556   3.102  1.0371 -1.6369  0.8530
 1922SOL    MW4 7763   4.233   3.606   3.091 -0.1907  0.0532  0.3755
 1923SOL     OW 7764   4.250   3.870   3.177 -0.1942 -0.1759  0.0498
 1923SOL    HW2 7765   4.189   3.930   3.134  0.5436  1.5257  1.3503
 1923SOL    HW3 7766   4.337   3.898   3.147  0.2282  0.0561  1.4611
 1923SOL    MW4 7767   4.254   3.881   3.167 -0.0410  0.0794  0.4077
 1924SOL     OW 7768   4.072   4.002   3.012  0.1774 -0.4793  0.4463
 1924SOL    HW2 7769   4.065   4.083   3.061 -0.3693 -0.4057  0.2546
 1924SOL    HW3 7770   3.996   3.950   3.041 -0.3129 -0.3166 -0.5304
 1924SOL    MW4 7771   4.061   4.006   3.022  0.0405 -0.4473  0.2921
 1925SOL     OW 7772   4.007   4.221   3.165  0.3061  0.0739 -0.7686
 1925SOL    HW2 7773   4.019   4.218   3.260 -0.0510  0.4262 -0.7124
 1925SOL    HW3 7774   4.085   4.266   3.132  0.1256  0.5189 -0.5865
 1925SOL    MW4 7775   4.019   4.227   3.173  0.2346  0.1793 -0.7372
 1926SOL     OW 7776   4.244   4.335   3.022 -0.1562 -0.1349 -0.3994
 1926SOL    HW2 7777   4.330   4.310   3.055 -0.4055  0.7050  0.9157
 1926SOL    HW3 7778   4.257   4.347   2.928  0.7006 -1.9757 -0.5241
 1926SOL    MW4 7779   4.257   4.333   3.014 -0.0763 -0.2666 -0.2422
 1927SOL     OW 7780   0.248   4.640   3.406  0.1208 -0.3905  0.1300
 1927SOL    HW2 7781   0.318   4.680   3.459  0.3454 -0.3999 -0.1582
 1927SOL    HW3 7782   0.239   4.552   3.442 -0.1319 -0.2014  0.5364
 1927SOL    MW4 7783   0.256   4.634   3.418  0.1170 -0.3667  0.1454
 1928SOL     OW 7784   0.014   0.089   3.519 -0.5382  0.0697  0.0111
 1928SOL    HW2 7785   0.006   0.176   3.481 -1.2994  0.1318  0.3185
 1928SOL    HW3 7786   0.096   0.054   3.483 -0.6032  0.6292 -0.6639
 1928SOL    MW4 7787   0.024   0.096   3.509 -0.6472  0.1517 -0.0377
 1929SOL     OW 7788   0.004   0.319   3.368 -0.7087 -0.0903 -0.1172
 1929SOL    HW2 7789  -0.066   0.376   3.399  0.5496  1.4466 -0.0579
 1929SOL    HW3 7790   0.084   0.358   3.401  0.3130 -0.9321 -1.5262
 1929SOL    MW4 7791   0.005   0.331   3.376 -0.4079  0.0014 -0.2954
 1930SOL     OW 7792   0.220   0.438   3.493  0.0160 -0.3951 -0.8203
 1930SOL    HW2 7793   0.306   0.398   3.481  0.2703  0.4368 -1.8604
 1930SOL    HW3 7794   0.229   0.525   3.455 -1.2994 -0.3127 -0.9611
 1930SOL    MW4 7795   0.232   0.444   3.486 -0.1240 -0.2744 -0.9763
 1931SOL     OW 7796   0.234   0.686   3.393 -0.0791  0.2729 -0.3285
 1931SOL    HW2 7797   0.312   0.718   3.439  0.6659 -2.3253  0.3262
 1931SOL    HW3 7798   0.161   0.735   3.432  0.8905  0.4494  1.3178
 1931SOL    MW4 7799   0.235   0.697   3.404  0.1471 -0.0467 -0.0250
 1932SOL     OW 7800   4.486   0.828   3.475  0.0630 -0.3979  0.1162
 1932SOL    HW2 7801   4.507   0.833   3.568  1.2615 -1.1689 -0.0920
 1932SOL    HW3 7802   4.485   0.919   3.445  1.3979 -0.2342  0.5354
 1932SOL    MW4 7803   4.489   0.841   3.483  0.3977 -0.4779  0.1440
 1933SOL     OW 7804   0.029   1.097   3.398 -0.0431 -0.2746 -0.0938
 1933SOL    HW2 7805   0.090   1.155   3.442 -1.1713  0.2644  0.8028
 1933SOL    HW3 7806   0.031   1.124   3.306 -1.3291  1.8981  0.4875
 1933SOL    MW4 7807   0.037   1.108   3.391 -0.3616  0.0831  0.1013
 1934SOL     OW 7808   0.210   1.291   3.498 -0.1095 -0.0643  0.3275
 1934SOL    HW2 7809   0.293   1.249   3.474 -0.1722  0.3468 -0.6607
 1934SOL    HW3 7810   0.217   1.380   3.462 -0.6842  0.2043  0.8732
 1934SOL    MW4 7811   0.222   1.297   3.490 -0.1936  0.0253  0.2694
 1935SOL     OW 7812   0.215   1.574   3.385 -0.0353 -0.0629  0.1319
 1935SOL    HW2 7813   0.299   1.610   3.415 -0.3052  0.4763  0.2612
 1935SOL    HW3 7814   0.231   1.551   3.294  0.2394  0.0944  0.1365
 1935SOL    MW4 7815   0.228   1.576   3.377 -0.0347  0.0288  0.1497
 1936SOL     OW 7816   0.006   1.674   3.554 -0.2582  0.0496 -0.4154
 1936SOL    HW2 7817  -0.066   1.624   3.516  0.7248 -1.0013 -0.9110
 1936SOL    HW3 7818   0.085   1.633   3.521  0.5893  1.2015  0.1155
 1936SOL    MW4 7819   0.007   1.662   3.545 -0.0167  0.0629 -0.4110
 1937SOL     OW 7820   0.025   1.933   3.429 -0.1958  0.1193  0.0031
 1937SOL    HW2 7821   0.025   1.840   3.448  0.4274  0.0070 -0.5281
 1937SOL    HW3 7822   0.039   1.939   3.335 -2.8845  0.6858 -0.4009
 1937SOL    MW4 7823   0.027   1.922   3.419 -0.4683  0.1793 -0.1204
 1938SOL     OW 7824   0.235   2.074   3.536 -0.3519 -0.1597 -0.8398
 1938SOL    HW2 7825   0.242   2.057   3.630 -0.2793  0.0224 -0.8127
 1938SOL    HW3 7826   0.159   2.021   3.508  1.1915 -2.2787 -1.1719
 1938SOL    MW4 7827   0.226   2.064   3.545 -0.1387 -0.4151 -0.8800
 1939SOL     OW 7828   0.233   2.317   3.388  0.1709 -0.0900  0.0941
 1939SOL    HW2 7829   0.181   2.383   3.434  1.2716 -0.2156  1.5375
 1939SOL    HW3 7830   0.225   2.238   3.441  0.4649 -0.5802 -0.5769
 1939SOL    MW4 7831   0.225   2.315   3.401  0.3549 -0.1712  0.1960
 1940SOL     OW 7832   0.028   2.463   3.500  0.0561 -0.2739  0.1530
 1940SOL    HW2 7833   0.016   2.482   3.593 -0.5894  0.9985 -0.1908
 1940SOL    HW3 7834  -0.053   2.422   3.472  0.9573 -2.4246  0.5819
 1940SOL    MW4 7835   0.016   2.460   3.509  0.0899 -0.3898  0.1640
 1941SOL     OW 7836   4.486   2.733   3.417 -0.2290  0.0146 -0.7242
 1941SOL    HW2 7837   4.575   2.762   3.437 -1.1244  0.8396  2.1649
 1941SOL    HW3 7838   4.485   2.640   3.441 -0.1091 -0.0595 -0.9932
 1941SOL    MW4 7839   4.498   2.724   3.423 -0.3313  0.1135 -0.3786
 1942SOL     OW 7840   0.258   2.824   3.498 -0.1069 -0.0310 -0.4919
 1942SOL    HW2 7841   0.329   2.772   3.461 -0.2271 -0.8075  0.3623
 1942SOL    HW3 7842   0.273   2.912   3.464  0.6610 -0.4128 -1.1585
 1942SOL    MW4 7843   0.269   2.829   3.489 -0.0215 -0.1841 -0.4671
 1943SOL     OW 7844   0.281   3.100   3.424  0.8066 -0.7130 -0.2551
 1943SOL    HW2 7845   0.201   3.145   3.451  0.5599 -0.6465 -1.0773
 1943SOL    HW3 7846   0.283   3.110   3.329  2.4957  0.4873 -0.1201
 1943SOL    MW4 7847   0.271   3.108   3.415  0.9969 -0.5457 -0.3455
 1944SOL     OW 7848   0.029   3.204   3.505 -0.0230 -0.4411  0.4951
 1944SOL    HW2 7849  -0.053   3.157   3.490  0.1463 -0.4193 -0.5296
 1944SOL    HW3 7850   0.009   3.295   3.481  0.6723 -0.6904 -1.0587
 1944SOL    MW4 7851   0.016   3.210   3.500  0.0916 -0.4711  0.1550
 1945SOL     OW 7852   0.021   3.468   3.426 -0.1018 -0.4768  0.2560
 1945SOL    HW2 7853  -0.059   3.503   3.464 -0.2846 -2.7325  2.0841
 1945SOL    HW3 7854   0.004   3.467   3.332  0.0764  4.4861  0.0665
 1945SOL    MW4 7855   0.008   3.472   3.418 -0.1025 -0.1194  0.4721
 1946SOL     OW 7856   0.241   3.627   3.503  0.4008 -0.2472 -0.8070
 1946SOL    HW2 7857   0.241   3.619   3.598  2.5191 -1.2606 -0.8648
 1946SOL    HW3 7858   0.164   3.577   3.474  1.1306 -1.9990  0.2199
 1946SOL    MW4 7859   0.231   3.620   3.512  0.7766 -0.6118 -0.6790
 1947SOL     OW 7860   0.250   3.884   3.433  0.2699 -0.2234  0.0186
 1947SOL    HW2 7861   0.160   3.912   3.450 -0.8375 -0.7224 -4.4501
 1947SOL    HW3 7862   0.247   3.789   3.445  0.0903 -0.2807 -0.4528
 1947SOL    MW4 7863   0.237   3.875   3.437  0.1001 -0.2971 -0.6330
 1948SOL     OW 7864   0.005   3.968   3.516 -0.2314 -0.2045 -0.5730
 1948SOL    HW2 7865   0.005   3.975   3.612 -2.7323  0.2200 -0.5615
 1948SOL    HW3 7866  -0.014   4.056   3.486  0.8630 -0.2726 -1.4936
 1948SOL    MW4 7867   0.002   3.980   3.525 -0.4172 -0.1574 -0.6928
 1949SOL     OW 7868   4.457   4.229   3.393  0.2729 -0.0653 -0.0660
 1949SOL    HW2 7869   4.385   4.283   3.427 -0.2144  0.3195 -1.6474
 1949SOL    HW3 7870   4.536   4.267   3.432 -0.1729  1.0233 -0.1897
 1949SOL    MW4 7871   4.458   4.241   3.403  0.1497  0.1287 -0.2909
 1950SOL     OW 7872   0.201   4.379   3.487  0.0296  0.5054 -0.3757
 1950SOL    HW2 7873   0.208   4.383   3.583 -1.4723 -1.3180 -0.1565
 1950SOL    HW3 7874   0.281   4.335   3.459 -0.2058 -0.2936  0.1826
 1950SOL    MW4 7875   0.212   4.374   3.496 -0.1996  0.1597 -0.2732
 1951SOL     OW 7876   0.698   4.637   3.400  0.1353  0.6116  0.5360
 1951SOL    HW2 7877   0.769   4.686   3.441  0.2235 -0.1810  1.3507
 1951SOL    HW3 7878   0.716   4.642   3.306  1.8936 -0.5063  0.8012
 1951SOL    MW4 7879   0.710   4.644   3.393  0.3790  0.3595  0.6783
 1952SOL     OW 7880   0.479   0.080   3.538 -0.0464  0.4619  0.6044
 1952SOL    HW2 7881   0.494   0.066   3.632  2.3690  0.3903  0.2241
 1952SOL    HW3 7882   0.538   0.018   3.495 -3.2545 -1.6166 -0.9825
 1952SOL    MW4 7883   0.489   0.070   3.545 -0.1510  0.1782  0.3450
 1953SOL     OW 7884   0.473   0.336   3.423 -0.4505  0.0184 -0.5827
 1953SOL    HW2 7885   0.543   0.388   3.462 -1.0140  1.1538 -1.0651
 1953SOL    HW3 7886   0.484   0.248   3.460  1.2432  0.1819 -0.6920
 1953SOL    MW4 7887   0.483   0.331   3.433 -0.3014  0.1898 -0.6609
 1954SOL     OW 7888   0.676   0.491   3.547 -0.1554  0.4523 -0.4222
 1954SOL    HW2 7889   0.675   0.491   3.643  0.1685 -1.0449 -0.3964
 1954SOL    HW3 7890   0.759   0.450   3.524 -2.2322 -3.6280 -1.2509
 1954SOL    MW4 7891   0.687   0.485   3.557 -0.3867 -0.2836 -0.5279
 1955SOL     OW 7892   0.673   0.748   3.451  0.7160 -0.2428 -0.6513
 1955SOL    HW2 7893   0.592   0.789   3.482  0.8131 -0.5215 -0.0121
 1955SOL    HW3 7894   0.669   0.658   3.486  1.7541  0.0310  0.2088
 1955SOL    MW4 7895   0.662   0.741   3.460  0.8658 -0.2434 -0.4535
 1956SOL     OW 7896   0.419   0.841   3.531  0.3327  0.4820  0.1166
 1956SOL    HW2 7897   0.443   0.844   3.624 -3.1229  1.6097  1.0414
 1956SOL    HW3 7898   0.408   0.933   3.506 -1.0495  0.0859 -0.7679
 1956SOL    MW4 7899   0.421   0.853   3.540 -0.3056  0.5786  0.1218
 1957SOL     OW 7900   0.439   1.155   3.430  0.0900 -0.1609  0.6045
 1957SOL    HW2 7901   0.518   1.188   3.473  1.1089 -0.8193 -0.7054
 1957SOL    HW3 7902   0.466   1.141   3.339 -1.5860 -0.2461  0.0995
 1957SOL    MW4 7903   0.453   1.158   3.423  0.0033 -0.2589  0.3650
 1958SOL     OW 7904   0.712   1.255   3.493  0.0150 -0.0495  0.3514
 1958SOL    HW2 7905   0.700   1.347   3.470  1.2946 -0.6092 -2.9004
 1958SOL    HW3 7906   0.804   1.237   3.475 -0.1272 -1.9080  1.2429
 1958SOL    MW4 7907   0.722   1.264   3.488  0.1650 -0.3685  0.0401
 1959SOL     OW 7908   0.682   1.537   3.447  0.0636  0.7748  0.0626
 1959SOL    HW2 7909   0.750   1.586   3.494 -0.0707  0.4951  0.5508
 1959SOL    HW3 7910   0.601   1.583   3.468 -0.2631 -0.5195  1.7261
 1959SOL    MW4 7911   0.681   1.550   3.456  0.0028  0.5672  0.3462
 1960SOL     OW 7912   0.452   1.667   3.505  0.2082 -0.2785  0.0574
 1960SOL    HW2 7913   0.456   1.653   3.599 -0.9868  1.0304  0.3200
 1960SOL    HW3 7914   0.474   1.760   3.494 -0.2233 -0.2846 -0.8925
 1960SOL    MW4 7915   0.455   1.678   3.516 -0.0064 -0.1066 -0.0331
 1961SOL     OW 7916   0.456   1.932   3.459  0.3104  0.3070  0.0608
 1961SOL    HW2 7917   0.373   1.968   3.493  0.4425  1.0604 -0.3958
 1961SOL    HW3 7918   0.451   1.946   3.365  0.3633 -0.9101 -0.1223
 1961SOL    MW4 7919   0.444   1.939   3.451  0.3348  0.2458 -0.0238
 1962SOL     OW 7920   0.667   2.093   3.539 -0.0182 -0.1501  0.3070
 1962SOL    HW2 7921   0.670   2.079   3.633 -1.4660  1.8303  0.6704
 1962SOL    HW3 7922   0.589   2.045   3.510 -0.9495  1.2375  0.4913
 1962SOL    MW4 7923   0.657   2.085   3.547 -0.3321  0.2944  0.3793
 1963SOL     OW 7924   0.674   2.305   3.374  0.3060  0.0409 -0.0484
 1963SOL    HW2 7925   0.739   2.359   3.417  0.0291  0.1028  0.2920
 1963SOL    HW3 7926   0.678   2.221   3.420 -2.0152  1.0166  2.0305
 1963SOL    MW4 7927   0.683   2.301   3.386 -0.0368  0.1776  0.2706
 1964SOL     OW 7928   0.470   2.412   3.516 -0.2115  0.0502 -0.1481
 1964SOL    HW2 7929   0.540   2.359   3.477 -0.4389 -0.1139 -0.3409
 1964SOL    HW3 7930   0.393   2.393   3.462 -0.8421 -1.1308  1.1254
 1964SOL    MW4 7931   0.469   2.403   3.504 -0.3247 -0.1271 -0.0055
 1965SOL     OW 7932   0.483   2.664   3.430  0.3357  0.1646  0.2426
 1965SOL    HW2 7933   0.495   2.574   3.460  1.0291  0.3786  0.6088
 1965SOL    HW3 7934   0.485   2.658   3.334  0.5177 -0.1934  0.2694
 1965SOL    MW4 7935   0.485   2.652   3.421  0.4512  0.1454  0.2944
 1966SOL     OW 7936   0.668   2.852   3.493  0.0491  0.4905  0.2853
 1966SOL    HW2 7937   0.744   2.802   3.465  0.3167  1.1990 -0.2507
 1966SOL    HW3 7938   0.593   2.794   3.474  0.4951 -0.4815  1.4591
 1966SOL    MW4 7939   0.668   2.838   3.487  0.1432  0.4556  0.3695
 1967SOL     OW 7940   0.715   3.127   3.435 -0.0561 -0.3422 -0.4195
 1967SOL    HW2 7941   0.628   3.162   3.451 -0.2437 -1.0230  0.0557
 1967SOL    HW3 7942   0.709   3.035   3.460  0.6406 -0.5313 -0.9351
 1967SOL    MW4 7943   0.703   3.119   3.440  0.0110 -0.4570 -0.4249
 1968SOL     OW 7944   0.480   3.273   3.486 -0.0288 -0.0047  0.5333
 1968SOL    HW2 7945   0.488   3.261   3.581  0.0855 -1.0126  0.4046
 1968SOL    HW3 7946   0.402   3.223   3.462 -0.7383  1.2315  0.2651
 1968SOL    MW4 7947   0.471   3.265   3.496 -0.1073  0.0253  0.4809
 1969SOL     OW 7948   0.491   3.550   3.407 -0.5810 -0.3893  0.2350
 1969SOL    HW2 7949   0.498   3.455   3.420 -0.9873 -0.4673 -0.1155
 1969SOL    HW3 7950   0.404   3.572   3.442 -0.4395 -0.1271  0.4221
 1969SOL    MW4 7951   0.480   3.540   3.414 -0.6160 -0.3648  0.2136
 1970SOL     OW 7952   0.724   3.663   3.479  0.6432  0.4629  0.1947
 1970SOL    HW2 7953   0.789   3.595   3.466  0.5521  0.2464  0.8430
 1970SOL    HW3 7954   0.642   3.625   3.448  0.8417  0.7786 -0.7326
 1970SOL    MW4 7955   0.722   3.649   3.473  0.6573  0.4759  0.1576
 1971SOL     OW 7956   0.692   3.919   3.391 -0.1409 -0.1857 -0.0572
 1971SOL    HW2 7957   0.611   3.950   3.430  1.3309  0.1836  2.8192
 1971SOL    HW3 7958   0.704   3.831   3.426  1.2606  0.1876  0.4522
 1971SOL    MW4 7959   0.683   3.911   3.401  0.2381 -0.0877  0.3896
 1972SOL     OW 7960   0.471   4.008   3.529 -0.4404  0.2111  0.2905
 1972SOL    HW2 7961   0.460   4.097   3.494 -2.6905  0.1458  0.7320
 1972SOL    HW3 7962   0.400   3.958   3.488  1.3470 -1.6217 -0.6566
 1972SOL    MW4 7963   0.460   4.013   3.519 -0.5014 -0.0396  0.2234
 1973SOL     OW 7964   0.427   4.259   3.413 -0.1301  0.2264 -0.7790
 1973SOL    HW2 7965   0.494   4.318   3.448  1.0134 -1.4753 -0.0270
 1973SOL    HW3 7966   0.427   4.276   3.319 -0.0103  1.6210 -0.5304
 1973SOL    MW4 7967   0.436   4.269   3.405  0.0366  0.1860 -0.6468
 1974SOL     OW 7968   0.643   4.391   3.505 -0.3473  0.1498  0.6490
 1974SOL    HW2 7969   0.713   4.332   3.476 -0.9621  0.0316 -0.6119
 1974SOL    HW3 7970   0.674   4.478   3.479 -0.7602  0.0769 -0.0818
 1974SOL    MW4 7971   0.657   4.395   3.498 -0.4829  0.1249  0.3862
 1975SOL     OW 7972   1.155   0.015   3.401 -0.6329  0.1921 -0.0449
 1975SOL    HW2 7973   1.227   0.064   3.440 -1.6332  1.6475  0.0047
 1975SOL    HW3 7974   1.163   0.032   3.307 -0.9009  0.3353 -0.0412
 1975SOL    MW4 7975   1.166   0.024   3.393 -0.8003  0.4030 -0.0379
 1976SOL     OW 7976   0.906   0.119   3.503 -0.3779 -0.2879  0.6239
 1976SOL    HW2 7977   0.918   0.122   3.598  1.2758 -0.1957  0.4362
 1976SOL    HW3 7978   0.987   0.077   3.471 -1.3139 -1.1358 -0.6637
 1976SOL    MW4 7979   0.919   0.114   3.511 -0.2832 -0.3876  0.4294
 1977SOL     OW 7980   0.911   0.377   3.421  0.3560  0.0197 -0.2901
 1977SOL    HW2 7981   1.003   0.401   3.434  0.4234 -1.2693  2.0272
 1977SOL    HW3 7982   0.908   0.283   3.438 -1.3212 -0.0434 -0.7965
 1977SOL    MW4 7983   0.923   0.368   3.425  0.1436 -0.1588 -0.0513
 1978SOL     OW 7984   1.168   0.482   3.461  0.7382  0.2815  0.3827
 1978SOL    HW2 7985   1.159   0.470   3.556 -0.0185  0.3409  0.3163
 1978SOL    HW3 7986   1.148   0.574   3.446 -1.7948 -0.3164 -0.1547
 1978SOL    MW4 7987   1.164   0.492   3.472  0.3042  0.2105  0.3030
 1979SOL     OW 7988   1.122   0.743   3.397 -0.0194 -0.3990  0.5530
 1979SOL    HW2 7989   1.196   0.795   3.427 -1.4143  1.7047  0.4733
 1979SOL    HW3 7990   1.048   0.775   3.448 -1.1618 -1.4061 -0.4400
 1979SOL    MW4 7991   1.122   0.754   3.407 -0.3541 -0.2543  0.4115
 1980SOL     OW 7992   0.921   0.861   3.517  0.5693  0.1784 -0.4486
 1980SOL    HW2 7993   0.926   0.945   3.473 -0.4434  0.0360 -0.8550
 1980SOL    HW3 7994   0.834   0.828   3.496  0.2140 -0.0836  1.2921
 1980SOL    MW4 7995   0.910   0.868   3.509  0.3887  0.1251 -0.2725
 1981SOL     OW 7996   0.956   1.116   3.424  0.4264  0.0860  0.0567
 1981SOL    HW2 7997   1.034   1.167   3.445  1.5920 -1.6369  0.0053
 1981SOL    HW3 7998   0.941   1.133   3.331  1.4275 -0.4831 -0.2135
 1981SOL    MW4 7999   0.964   1.125   3.415  0.7123 -0.2165  0.0143
 1982SOL     OW 8000   1.143   1.308   3.496 -0.6439  0.0347  0.2485
 1982SOL    HW2 8001   1.150   1.310   3.592 -0.3377 -0.8095  0.2472
 1982SOL    HW3 8002   1.124   1.399   3.472 -2.6327 -0.0930  1.2468
 1982SOL    MW4 8003   1.142   1.320   3.506 -0.8659 -0.0936  0.3800
 1983SOL     OW 8004   1.101   1.576   3.425 -0.5082  0.1054  0.0892
 1983SOL    HW2 8005   1.190   1.603   3.448 -0.1432 -2.2260  1.5616
 1983SOL    HW3 8006   1.095   1.590   3.330  1.2221  0.8166  0.0782
 1983SOL    MW4 8007   1.112   1.581   3.415 -0.2317 -0.1085  0.2820
 1984SOL     OW 8008   0.875   1.724   3.527  0.0934  0.5545 -0.1670
 1984SOL    HW2 8009   0.873   1.803   3.472  0.9116  1.0244  0.4676
 1984SOL    HW3 8010   0.950   1.674   3.494 -0.2873  0.1452 -0.4171
 1984SOL    MW4 8011   0.885   1.728   3.515  0.1511  0.5624 -0.1161
 1985SOL     OW 8012   0.890   1.989   3.388  0.4577 -0.1884 -0.0975
 1985SOL    HW2 8013   0.971   2.021   3.428  0.9438 -0.6573 -0.6935
 1985SOL    HW3 8014   0.820   2.023   3.444  1.0439  0.6093  0.1543
 1985SOL    MW4 8015   0.891   1.998   3.401  0.5991 -0.1450 -0.1428
 1986SOL     OW 8016   1.112   2.080   3.534  0.3237  0.2962  0.2088
 1986SOL    HW2 8017   1.178   2.030   3.486 -0.2276  0.1223 -0.3849
 1986SOL    HW3 8018   1.121   2.170   3.502  1.4257  0.6188  1.3972
 1986SOL    MW4 8019   1.122   2.086   3.523  0.3964  0.3159  0.2871
 1987SOL     OW 8020   1.131   2.336   3.423 -0.1953 -0.0133 -0.2935
 1987SOL    HW2 8021   1.215   2.376   3.445 -0.2164 -0.4824  0.6704
 1987SOL    HW3 8022   1.128   2.338   3.327  1.2653 -0.7206 -0.3739
 1987SOL    MW4 8023   1.142   2.342   3.413 -0.0052 -0.1683 -0.1771
 1988SOL     OW 8024   0.892   2.458   3.498 -0.2398 -0.1522 -0.3990
 1988SOL    HW2 8025   0.862   2.447   3.588  0.1807  2.0504  0.0454
 1988SOL    HW3 8026   0.979   2.418   3.496 -0.1659 -0.0223  0.2356
 1988SOL    MW4 8027   0.900   2.452   3.509 -0.1745  0.1552 -0.2565
 1989SOL     OW 8028   0.863   2.715   3.372  0.3134  0.1737 -0.1312
 1989SOL    HW2 8029   0.947   2.749   3.403 -0.0944  0.8990  0.1958
 1989SOL    HW3 8030   0.858   2.626   3.406  0.3762  0.5741  0.9400
 1989SOL    MW4 8031   0.873   2.708   3.380  0.2679  0.3223  0.0534
 1990SOL     OW 8032   1.103   2.810   3.462 -0.3487  0.1097  0.5736
 1990SOL    HW2 8033   1.180   2.757   3.439  0.5247  0.8182  1.8225
 1990SOL    HW3 8034   1.098   2.804   3.558 -0.6567  1.7150  0.6656
 1990SOL    MW4 8035   1.113   2.802   3.472 -0.2741  0.4151  0.7505
 1991SOL     OW 8036   1.154   3.089   3.444  0.4349  0.2324 -0.4109
 1991SOL    HW2 8037   1.140   2.997   3.464 -0.1831  0.3816 -0.1357
 1991SOL    HW3 8038   1.146   3.094   3.348 -0.0184  0.0795 -0.3831
 1991SOL    MW4 8039   1.151   3.078   3.434  0.2935  0.2325 -0.3710
 1992SOL     OW 8040   0.941   3.232   3.534  0.3083 -0.0104  0.0126
 1992SOL    HW2 8041   1.009   3.173   3.501 -1.0261 -1.3979 -0.3095
 1992SOL    HW3 8042   0.861   3.201   3.493 -0.5134  1.6791  0.3108
 1992SOL    MW4 8043   0.940   3.220   3.525  0.0239  0.0293  0.0095
 1993SOL     OW 8044   0.931   3.481   3.435 -0.1964 -0.0155  0.2384
 1993SOL    HW2 8045   0.952   3.395   3.472 -1.2433 -0.9851 -1.3541
 1993SOL    HW3 8046   0.927   3.466   3.340 -2.1000  1.4032  0.0719
 1993SOL    MW4 8047   0.933   3.468   3.427 -0.5857  0.0441  0.0064
 1994SOL     OW 8048   1.147   3.620   3.542 -0.4980  0.4323 -0.2460
 1994SOL    HW2 8049   1.123   3.613   3.635 -0.5273  1.7624 -0.1409
 1994SOL    HW3 8050   1.071   3.584   3.495 -0.2980 -0.6447  0.2587
 1994SOL    MW4 8051   1.134   3.614   3.548 -0.4755  0.4659 -0.1655
 1995SOL     OW 8052   1.130   3.888   3.458  0.2062 -0.2137  0.0572
 1995SOL    HW2 8053   1.202   3.936   3.499 -0.1358 -0.7069  1.2563
 1995SOL    HW3 8054   1.139   3.799   3.492 -1.1581 -0.2000  0.4776
 1995SOL    MW4 8055   1.140   3.883   3.468 -0.0190 -0.2770  0.2708
 1996SOL     OW 8056   0.907   4.022   3.527 -0.0289  0.0333 -0.1907
 1996SOL    HW2 8057   0.978   3.971   3.487 -0.4101  0.6413 -1.6752
 1996SOL    HW3 8058   0.828   3.991   3.484 -0.2927  1.7081 -0.9772
 1996SOL    MW4 8059   0.906   4.011   3.516 -0.1140  0.3347 -0.4902
 1997SOL     OW 8060   0.892   4.272   3.406 -0.2375  0.2330 -0.1354
 1997SOL    HW2 8061   0.917   4.186   3.439  0.5590  0.5570  0.1076
 1997SOL    HW3 8062   0.898   4.263   3.311 -0.0840  0.0428 -0.1088
 1997SOL    MW4 8063   0.896   4.260   3.398 -0.1121  0.2503 -0.1001
 1998SOL     OW 8064   1.133   4.396   3.467  0.0893 -0.1455 -0.2203
 1998SOL    HW2 8065   1.049   4.369   3.431 -0.1222 -0.6337  0.6245
 1998SOL    HW3 8066   1.139   4.489   3.448 -0.4171 -0.2130 -0.7196
 1998SOL    MW4 8067   1.123   4.405   3.459 -0.0055 -0.2189 -0.1750
 1999SOL     OW 8068   1.607   0.014   3.366  0.1671  0.5372  0.3188
 1999SOL    HW2 8069   1.602  -0.074   3.402  0.0975 -0.1589 -1.3660
 1999SOL    HW3 8070   1.522   0.054   3.388  0.3126  0.3015  1.3336
 1999SOL    MW4 8071   1.595   0.008   3.374  0.1771  0.4144  0.2303
 2000SOL     OW 8072   1.389   0.140   3.471  0.1332 -0.2373 -0.6254
 2000SOL    HW2 8073   1.390   0.149   3.566  0.6726  0.3661 -0.6864
 2000SOL    HW3 8074   1.407   0.228   3.438 -0.9052 -0.2703 -1.2984
 2000SOL    MW4 8075   1.392   0.153   3.479  0.0672 -0.1620 -0.7224
 2001SOL     OW 8076   1.402   0.412   3.336 -0.1453  0.1569 -0.1193
 2001SOL    HW2 8077   1.470   0.464   3.378  0.0882 -0.4244  0.2281
 2001SOL    HW3 8078   1.320   0.440   3.377  0.0478 -0.1832  0.4939
 2001SOL    MW4 8079   1.400   0.423   3.347 -0.0889  0.0353  0.0076
 2002SOL     OW 8080   1.627   0.549   3.462  0.3624  0.3169 -0.4038
 2002SOL    HW2 8081   1.621   0.553   3.557  0.2281  0.3414 -0.4125
 2002SOL    HW3 8082   1.689   0.479   3.445 -2.2357 -2.0822 -0.3384
 2002SOL    MW4 8083   1.634   0.540   3.472  0.0018  0.0036 -0.3965
 2003SOL     OW 8084   1.588   0.799   3.318 -0.1871  0.2829  0.1900
 2003SOL    HW2 8085   1.512   0.831   3.367 -0.1987 -0.1939  0.4772
 2003SOL    HW3 8086   1.592   0.706   3.337 -0.9995 -0.1913 -1.7798
 2003SOL    MW4 8087   1.578   0.791   3.327 -0.2958  0.1574 -0.0317
 2004SOL     OW 8088   1.365   0.873   3.497  0.4088  0.3258  0.4871
 2004SOL    HW2 8089   1.375   0.881   3.592  0.1639  0.3557  0.5117
 2004SOL    HW3 8090   1.343   0.962   3.468  0.9469  0.4147  0.3413
 2004SOL    MW4 8091   1.363   0.886   3.505  0.4474  0.3415  0.4711
 2005SOL     OW 8092   1.334   1.141   3.391 -0.1649 -0.0204 -0.3665
 2005SOL    HW2 8093   1.411   1.185   3.426 -0.5764 -0.7903  1.5553
 2005SOL    HW3 8094   1.260   1.193   3.423 -0.5280 -0.4309 -0.5280
 2005SOL    MW4 8095   1.334   1.154   3.400 -0.2671 -0.1762 -0.1345
 2006SOL     OW 8096   1.572   1.253   3.491 -0.4143 -0.5212  0.0267
 2006SOL    HW2 8097   1.576   1.278   3.584  1.5220  1.0032 -0.4195
 2006SOL    HW3 8098   1.649   1.198   3.478 -0.7399 -0.8163 -0.6451
 2006SOL    MW4 8099   1.582   1.249   3.502 -0.2018 -0.3591 -0.1211
 2007SOL     OW 8100   1.577   1.522   3.402  0.3299  0.3452 -0.0335
 2007SOL    HW2 8101   1.583   1.431   3.428 -0.1956  0.1017 -0.7450
 2007SOL    HW3 8102   1.571   1.519   3.306 -0.9558  1.0536  0.0112
 2007SOL    MW4 8103   1.577   1.510   3.393  0.0907  0.4065 -0.1214
 2008SOL     OW 8104   1.343   1.662   3.525  0.1505 -0.1390 -0.2786
 2008SOL    HW2 8105   1.363   1.675   3.618 -0.9394 -0.1632 -0.0333
 2008SOL    HW3 8106   1.418   1.612   3.491 -0.1359 -1.4091  0.9288
 2008SOL    MW4 8107   1.356   1.657   3.533 -0.0309 -0.3098 -0.0870
 2009SOL     OW 8108   1.311   1.918   3.420  0.1308  0.2635 -0.0955
 2009SOL    HW2 8109   1.376   1.971   3.466  0.4695 -0.1712 -0.0680
 2009SOL    HW3 8110   1.304   1.838   3.473  0.1190 -0.0059 -0.5001
 2009SOL    MW4 8111   1.318   1.914   3.433  0.1739  0.1707 -0.1452
 2010SOL     OW 8112   1.505   2.068   3.530 -0.1117 -0.6417  0.4743
 2010SOL    HW2 8113   1.540   2.079   3.618 -0.2702 -0.0481  0.4678
 2010SOL    HW3 8114   1.542   2.141   3.480 -0.1983 -0.8473  0.1065
 2010SOL    MW4 8115   1.515   2.079   3.535 -0.1440 -0.5908  0.4249
 2011SOL     OW 8116   1.610   2.300   3.436  0.4634  0.0723  0.8294
 2011SOL    HW2 8117   1.531   2.346   3.466  1.1660  1.1601  1.0737
 2011SOL    HW3 8118   1.607   2.308   3.340  0.0883 -0.1944  0.8217
 2011SOL    MW4 8119   1.600   2.307   3.427  0.5065  0.1807  0.8605
 2012SOL     OW 8120   1.384   2.422   3.529  0.2507 -0.3885 -0.2487
 2012SOL    HW2 8121   1.379   2.443   3.622 -0.6971 -1.6070 -0.0043
 2012SOL    HW3 8122   1.370   2.506   3.485 -0.7702 -0.0434  0.7012
 2012SOL    MW4 8123   1.381   2.436   3.536 -0.0092 -0.5038 -0.0911
 2013SOL     OW 8124   1.338   2.676   3.413  0.3477 -0.7398  0.0364
 2013SOL    HW2 8125   1.423   2.712   3.437  0.0133  0.9529 -1.2377
 2013SOL    HW3 8126   1.340   2.673   3.317 -0.7564 -1.3865  0.0257
 2013SOL    MW4 8127   1.350   2.680   3.404  0.1580 -0.6015 -0.1330
 2014SOL     OW 8128   1.571   2.776   3.533  0.2894  0.2423 -0.7313
 2014SOL    HW2 8129   1.648   2.725   3.507  0.4421 -0.3989  0.8730
 2014SOL    HW3 8130   1.589   2.865   3.504  1.1626 -0.1255 -1.3228
 2014SOL    MW4 8131   1.584   2.781   3.526  0.4246  0.1090 -0.5975
 2015SOL     OW 8132   1.546   3.048   3.453 -0.1344  0.7743 -0.3730
 2015SOL    HW2 8133   1.618   3.103   3.485 -0.5252  1.6174 -0.9204
 2015SOL    HW3 8134   1.470   3.106   3.454 -0.8824 -0.2125  0.5304
 2015SOL    MW4 8135   1.545   3.063   3.458 -0.2847  0.7553 -0.3262
 2016SOL     OW 8136   1.369   3.262   3.503 -0.1747  0.5959  0.2473
 2016SOL    HW2 8137   1.382   3.244   3.596  1.5599 -1.6178 -0.3781
 2016SOL    HW3 8138   1.292   3.209   3.480 -0.9226  1.5478  0.5071
 2016SOL    MW4 8139   1.360   3.252   3.513 -0.0445  0.4296  0.1991
 2017SOL     OW 8140   1.353   3.505   3.400  0.5947  0.3020  0.0987
 2017SOL    HW2 8141   1.355   3.422   3.448  1.3315  0.3732  0.2018
 2017SOL    HW3 8142   1.293   3.560   3.450  0.2948 -0.0883  0.1703
 2017SOL    MW4 8143   1.345   3.501   3.413  0.6522  0.2601  0.1216
 2018SOL     OW 8144   1.589   3.610   3.524  0.1330 -0.2195 -0.0136
 2018SOL    HW2 8145   1.584   3.631   3.617 -1.7369  0.9011 -0.3396
 2018SOL    HW3 8146   1.509   3.561   3.506  1.6549 -2.6287 -0.5369
 2018SOL    MW4 8147   1.578   3.606   3.534  0.0871 -0.3896 -0.1256
 2019SOL     OW 8148   1.587   3.885   3.443  0.0738 -0.2707 -0.5194
 2019SOL    HW2 8149   1.602   3.800   3.484 -1.7064 -0.0466  0.6928
 2019SOL    HW3 8150   1.592   3.869   3.349 -0.6423 -1.8083 -0.3073
 2019SOL    MW4 8151   1.590   3.872   3.436 -0.2556 -0.4439 -0.3319
 2020SOL     OW 8152   1.370   4.012   3.559  0.2856 -0.0294  0.1310
 2020SOL    HW2 8153   1.371   4.103   3.530  0.2542  0.4113  1.4689
 2020SOL    HW3 8154   1.444   3.972   3.513  0.9014  0.9141  0.2675
 2020SOL    MW4 8155   1.380   4.019   3.549  0.3626  0.1531  0.3252
 2021SOL     OW 8156   1.378   4.276   3.405  0.1278  0.0408  0.2579
 2021SOL    HW2 8157   1.296   4.318   3.433 -0.7536 -1.6630  0.3240
 2021SOL    HW3 8158   1.362   4.251   3.314  1.5163  1.9473 -0.5331
 2021SOL    MW4 8159   1.365   4.278   3.397  0.1947  0.0672  0.1621
 2022SOL     OW 8160   1.579   4.412   3.493 -0.0701  0.3682  0.8680
 2022SOL    HW2 8161   1.656   4.365   3.461 -0.3148  1.0261 -0.7619
 2022SOL    HW3 8162   1.505   4.369   3.451 -0.5249  0.3270  1.7002
 2022SOL    MW4 8163   1.579   4.400   3.483 -0.1625  0.4501  0.7625
 2023SOL     OW 8164   2.026   4.627   3.387 -0.0301  0.6268 -0.4309
 2023SOL    HW2 8165   2.102   4.672   3.423 -0.9757  0.9766  1.2220
 2023SOL    HW3 8166   1.951   4.680   3.416 -1.0334 -0.8999 -0.1503
 2023SOL    MW4 8167   2.026   4.640   3.396 -0.2873  0.4711 -0.1757
 2024SOL     OW 8168   1.824   0.115   3.505 -0.2094 -0.1721  0.4099
 2024SOL    HW2 8169   1.811   0.125   3.599 -0.5645  0.2925  0.3151
 2024SOL    HW3 8170   1.740   0.083   3.473 -0.0134 -0.5617  0.2831
 2024SOL    MW4 8171   1.811   0.112   3.513 -0.2304 -0.1622  0.3808
 2025SOL     OW 8172   1.836   0.360   3.388  0.5133 -0.2095 -0.2286
 2025SOL    HW2 8173   1.822   0.270   3.419 -0.3829 -0.0390 -0.1278
 2025SOL    HW3 8174   1.823   0.354   3.293 -0.2003 -0.0658 -0.1439
 2025SOL    MW4 8175   1.833   0.347   3.380  0.3009 -0.1680 -0.2043
 2026SOL     OW 8176   2.053   0.488   3.511 -0.0901  0.3710  0.0335
 2026SOL    HW2 8177   2.030   0.576   3.483 -1.2367 -0.4401 -1.6267
 2026SOL    HW3 8178   1.980   0.433   3.481 -0.1915 -0.9005  2.4968
 2026SOL    MW4 8179   2.040   0.492   3.504 -0.2549  0.0962  0.1395
 2027SOL     OW 8180   2.027   0.745   3.416 -0.4593 -0.0348  0.2247
 2027SOL    HW2 8181   2.119   0.768   3.430  0.0569 -1.7864 -0.1716
 2027SOL    HW3 8182   2.018   0.741   3.321 -0.2040 -2.6407  0.2749
 2027SOL    MW4 8183   2.038   0.748   3.405 -0.3576 -0.6097  0.1791
 2028SOL     OW 8184   1.781   0.855   3.490  0.1601 -0.8162 -0.7707
 2028SOL    HW2 8185   1.854   0.803   3.457  0.0168 -0.6348 -1.4008
 2028SOL    HW3 8186   1.710   0.839   3.427 -0.7756 -2.0552  0.5694
 2028SOL    MW4 8187   1.781   0.846   3.477  0.0178 -0.9558 -0.6773
 2029SOL     OW 8188   1.807   1.121   3.412  0.7072  0.1718  0.1578
 2029SOL    HW2 8189   1.891   1.162   3.431  0.7421 -0.3283  1.0653
 2029SOL    HW3 8190   1.815   1.032   3.446  0.6220 -0.6151 -1.7631
 2029SOL    MW4 8191   1.819   1.115   3.419  0.7006  0.0019  0.0241
 2030SOL     OW 8192   2.055   1.252   3.537  0.0032  0.2171  0.2644
 2030SOL    HW2 8193   2.041   1.341   3.504 -1.0260 -0.0212  0.0502
 2030SOL    HW3 8194   2.036   1.258   3.630  0.2069  0.2785  0.3029
 2030SOL    MW4 8195   2.051   1.264   3.545 -0.1056  0.1937  0.2413
 2031SOL     OW 8196   2.019   1.520   3.412 -0.4961  0.0906  0.2913
 2031SOL    HW2 8197   2.105   1.546   3.446 -0.3139 -1.0264  0.6881
 2031SOL    HW3 8198   1.960   1.590   3.441  0.1881  0.6191  0.4256
 2031SOL    MW4 8199   2.023   1.533   3.420 -0.3819  0.0130  0.3612
 2032SOL     OW 8200   1.757   1.921   3.409  0.5059  0.2232 -0.4973
 2032SOL    HW2 8201   1.746   1.918   3.314  0.5653 -0.0087 -0.4977
 2032SOL    HW3 8202   1.677   1.961   3.442 -0.3253 -1.4183 -0.4937
 2032SOL    MW4 8203   1.745   1.926   3.400  0.4040 -0.0238 -0.4969
 2033SOL     OW 8204   2.011   2.028   3.463 -0.2372 -0.0490  0.0478
 2033SOL    HW2 8205   1.923   2.001   3.436 -0.1554 -0.4829  0.2031
 2033SOL    HW3 8206   1.998   2.069   3.549 -0.3055 -0.0143  0.0208
 2033SOL    MW4 8207   1.998   2.030   3.471 -0.2354 -0.1020  0.0648
 2034SOL     OW 8208   1.606   3.349   4.751 -0.4491  0.4318 -0.2977
 2034SOL    HW2 8209   1.547   3.380   4.682  1.1308  0.1712 -1.8107
 2034SOL    HW3 8210   1.566   3.380   4.832 -2.3351  0.7876 -1.3244
 2034SOL    MW4 8211   1.593   3.357   4.753 -0.4897  0.4444 -0.6328
 2035SOL     OW 8212   2.030   2.280   3.358  0.4990 -0.0128  0.5332
 2035SOL    HW2 8213   2.093   2.320   3.418  0.3539 -0.3060  0.8791
 2035SOL    HW3 8214   2.013   2.193   3.395 -1.6768  0.8224  1.5885
 2035SOL    MW4 8215   2.036   2.274   3.371  0.1929  0.0587  0.7181
 2036SOL     OW 8216   1.836   2.414   3.536 -0.0528  0.2496 -0.0948
 2036SOL    HW2 8217   1.752   2.378   3.510  0.8143 -2.3121  0.5762
 2036SOL    HW3 8218   1.900   2.369   3.480  1.0461  0.8234  0.6677
 2036SOL    MW4 8219   1.833   2.404   3.525  0.2065 -0.0126  0.0947
 2037SOL     OW 8220   1.799   2.676   3.414  0.0689 -0.2136  0.6228
 2037SOL    HW2 8221   1.869   2.734   3.446 -1.4304  0.6142  2.5537
 2037SOL    HW3 8222   1.822   2.590   3.449 -0.3476  0.2376  2.0440
 2037SOL    MW4 8223   1.812   2.673   3.423 -0.1838 -0.0446  1.0650
 2038SOL     OW 8224   2.006   2.815   3.504 -0.0967 -0.4910  0.3562
 2038SOL    HW2 8225   2.002   2.806   3.600 -2.1279  0.3753  0.3977
 2038SOL    HW3 8226   2.001   2.909   3.489  1.1450 -0.5745 -0.5797
 2038SOL    MW4 8227   2.005   2.826   3.515 -0.2007 -0.3877  0.2382
 2039SOL     OW 8228   1.988   3.080   3.436  0.1648  0.1135  0.3712
 2039SOL    HW2 8229   2.067   3.126   3.463 -1.1578  3.0551 -0.5125
 2039SOL    HW3 8230   1.919   3.118   3.490 -1.0541 -0.4598 -0.7489
 2039SOL    MW4 8231   1.989   3.091   3.447 -0.1705  0.4261  0.1068
 2040SOL     OW 8232   1.747   3.183   3.564 -0.5131  0.0471 -0.1714
 2040SOL    HW2 8233   1.753   3.191   3.659  1.0139 -0.9500 -0.1678
 2040SOL    HW3 8234   1.745   3.274   3.532  0.1466  0.3837  0.7424
 2040SOL    MW4 8235   1.747   3.196   3.572 -0.2246 -0.0401 -0.0505
 2041SOL     OW 8236   1.752   3.425   3.422 -0.3641 -0.0853 -0.9016
 2041SOL    HW2 8237   1.689   3.494   3.442 -1.4032 -0.7407 -1.8553
 2041SOL    HW3 8238   1.793   3.454   3.341  0.3374  0.1803 -0.4541
 2041SOL    MW4 8239   1.749   3.438   3.414 -0.4086 -0.1371 -0.9685
 2042SOL     OW 8240   1.991   3.565   3.531 -0.6546  0.1182 -0.4280
 2042SOL    HW2 8241   2.053   3.528   3.468  0.2008  0.2123  0.3379
 2042SOL    HW3 8242   1.910   3.517   3.517 -0.4178  0.0345 -1.4885
 2042SOL    MW4 8243   1.989   3.554   3.521 -0.5105  0.1194 -0.4668
 2043SOL     OW 8244   2.040   3.816   3.416  0.5577 -0.1113 -0.0109
 2043SOL    HW2 8245   1.961   3.856   3.453  0.7537  0.4421 -0.1798
 2043SOL    HW3 8246   2.048   3.732   3.461  0.6180  0.4210  0.9762
 2043SOL    MW4 8247   2.030   3.810   3.427  0.5918  0.0319  0.0970
 2044SOL     OW 8248   1.838   3.986   3.523  0.2030 -0.5427  0.2405
 2044SOL    HW2 8249   1.837   3.978   3.619 -0.1399  1.1473  0.3946
 2044SOL    HW3 8250   1.746   3.976   3.498  0.1186  0.3420  0.2052
 2044SOL    MW4 8251   1.825   3.983   3.533  0.1466 -0.2034  0.2561
 2045SOL     OW 8252   1.784   4.251   3.407  0.3079 -0.4138  0.4575
 2045SOL    HW2 8253   1.795   4.163   3.443 -1.5121 -1.2472 -0.9581
 2045SOL    HW3 8254   1.803   4.241   3.314  0.1129  0.7154  0.2879
 2045SOL    MW4 8255   1.788   4.238   3.399  0.0418 -0.3748  0.2484
 2046SOL     OW 8256   2.026   4.356   3.484  0.2063  0.3918 -0.2732
 2046SOL    HW2 8257   1.937   4.330   3.460 -0.1815  1.0182  0.4524
 2046SOL    HW3 8258   2.035   4.444   3.448 -0.6748  1.6901  2.4899
 2046SOL    MW4 8259   2.016   4.364   3.476  0.0391  0.6456  0.1869
 2047SOL     OW 8260   2.516   4.590   3.452 -0.0250  0.5520 -0.3361
 2047SOL    HW2 8261   2.521   4.496   3.469 -0.0678  0.6056 -0.0278
 2047SOL    HW3 8262   2.506   4.597   3.357 -0.3958  0.2320 -0.3216
 2047SOL    MW4 8263   2.515   4.579   3.441 -0.0799  0.5164 -0.2937
 2048SOL     OW 8264   2.263   0.054   3.495 -0.4068  0.5414  0.2697
 2048SOL    HW2 8265   2.280   0.136   3.449 -2.4162  1.9246  1.9430
 2048SOL    HW3 8266   2.342   0.002   3.479  2.0055  3.7370  1.2589
 2048SOL    MW4 8267   2.276   0.058   3.487 -0.3536  1.1455  0.6213
 2049SOL     OW 8268   2.288   0.338   3.416  0.2051 -0.2422  0.2683
 2049SOL    HW2 8269   2.359   0.380   3.464  1.1822  0.6821 -1.9105
 2049SOL    HW3 8270   2.208   0.371   3.457  1.0007 -0.6557  2.2102
 2049SOL    MW4 8271   2.287   0.348   3.428  0.4389 -0.1748  0.2370
 2050SOL     OW 8272   2.504   0.473   3.522 -0.1863  0.4065 -0.2148
 2050SOL    HW2 8273   2.503   0.475   3.618  2.9514  0.1469 -0.1267
 2050SOL    HW3 8274   2.515   0.565   3.497 -1.0405  0.4778 -0.3467
 2050SOL    MW4 8275   2.506   0.486   3.532  0.1147  0.3816 -0.2205
 2051SOL     OW 8276   2.514   0.741   3.427 -0.3741  0.0484 -0.1924
 2051SOL    HW2 8277   2.505   0.735   3.332 -0.1082  0.3039 -0.2344
 2051SOL    HW3 8278   2.599   0.783   3.441 -1.6475  2.6335  0.1141
 2051SOL    MW4 8279   2.524   0.746   3.416 -0.5071  0.4232 -0.1574
 2052SOL     OW 8280   2.272   0.808   3.521  0.5785  0.2363  0.1407
 2052SOL    HW2 8281   2.271   0.901   3.496  0.0229  0.7403  1.9256
 2052SOL    HW3 8282   2.357   0.776   3.493  1.3946  1.6953  0.9118
 2052SOL    MW4 8283   2.283   0.816   3.514  0.6130  0.4953  0.4776
 2053SOL     OW 8284   2.256   1.078   3.446 -0.0085  0.2488 -0.1284
 2053SOL    HW2 8285   2.329   1.139   3.458 -1.0326  1.8527 -1.7950
 2053SOL    HW3 8286   2.181   1.123   3.484 -0.1512 -1.4388  1.6774
 2053SOL    MW4 8287   2.256   1.092   3.452 -0.1626  0.2378 -0.1099
 2054SOL     OW 8288   0.891   2.897   4.195 -0.1328 -0.4281 -0.1862
 2054SOL    HW2 8289   0.974   2.936   4.169 -0.3766  0.1330 -0.1238
 2054SOL    HW3 8290   0.895   2.808   4.162  0.0083 -0.0507 -1.1851
 2054SOL    MW4 8291   0.903   2.890   4.187 -0.1463 -0.3040 -0.3099
 2055SOL     OW 8292   2.470   1.515   3.423 -0.0395  0.0142  0.2590
 2055SOL    HW2 8293   2.458   1.429   3.462 -1.5678  0.2293  0.3150
 2055SOL    HW3 8294   2.465   1.500   3.328 -1.1626  0.1423  0.2883
 2055SOL    MW4 8295   2.468   1.502   3.415 -0.3896  0.0596  0.2704
 2056SOL     OW 8296   2.704   1.938   3.419 -0.1767  0.0197  0.3921
 2056SOL    HW2 8297   2.695   1.845   3.441  0.6457 -0.5125 -1.4665
 2056SOL    HW3 8298   2.632   1.980   3.466 -2.0028 -1.8688 -0.6187
 2056SOL    MW4 8299   2.693   1.931   3.428 -0.3090 -0.2997  0.0134
 2057SOL     OW 8300   2.251   1.638   3.517  0.1187 -0.4801 -0.6078
 2057SOL    HW2 8301   2.333   1.605   3.482  0.4397  1.3527 -1.7016
 2057SOL    HW3 8302   2.263   1.639   3.612  0.8044 -1.5965 -0.6809
 2057SOL    MW4 8303   2.263   1.634   3.525  0.2515 -0.3856 -0.7615
 2058SOL     OW 8304   2.287   1.915   3.446 -0.7222 -0.2434 -0.5382
 2058SOL    HW2 8305   2.273   1.824   3.469 -1.4121 -0.8824 -3.2447
 2058SOL    HW3 8306   2.199   1.953   3.442 -0.3681  0.9222  1.8984
 2058SOL    MW4 8307   2.273   1.908   3.448 -0.7665 -0.1739 -0.5739
 2059SOL     OW 8308   2.416   2.293   3.392  0.3476  0.3002 -0.6436
 2059SOL    HW2 8309   2.496   2.331   3.427  0.4448 -0.4513 -0.0544
 2059SOL    HW3 8310   2.346   2.339   3.439  0.4482  0.3533 -0.5438
 2059SOL    MW4 8311   2.417   2.304   3.403  0.3736  0.2081 -0.5529
 2060SOL     OW 8312   2.206   2.405   3.529  0.1729 -0.1063  0.4154
 2060SOL    HW2 8313   2.200   2.411   3.624 -0.6899  1.6637  0.2798
 2060SOL    HW3 8314   2.234   2.493   3.502 -0.1200 -0.4408 -1.0048
 2060SOL    MW4 8315   2.209   2.418   3.538  0.0205  0.0832  0.2100
 2061SOL     OW 8316   2.237   2.662   3.447 -0.0224  0.0809  0.1395
 2061SOL    HW2 8317   2.166   2.718   3.479  0.3314  0.3549  0.4539
 2061SOL    HW3 8318   2.241   2.678   3.353 -0.9245 -0.5606 -0.0088
 2061SOL    MW4 8319   2.228   2.672   3.439 -0.0947  0.0324  0.1612
 2062SOL     OW 8320   2.467   2.840   3.462  0.2404 -0.1878  0.3181
 2062SOL    HW2 8321   2.383   2.797   3.447 -0.1993  0.4740  0.8749
 2062SOL    HW3 8322   2.478   2.840   3.557 -0.8208  2.9124  0.4898
 2062SOL    MW4 8323   2.458   2.835   3.472  0.0424  0.3083  0.4141
 2063SOL     OW 8324   2.464   3.117   3.427  0.1928 -0.3395  0.1898
 2063SOL    HW2 8325   2.544   3.150   3.466  0.3491 -1.0792  0.4960
 2063SOL    HW3 8326   2.469   3.022   3.438 -1.2053 -0.3138  1.1276
 2063SOL    MW4 8327   2.475   3.109   3.433  0.0291 -0.4334  0.3538
 2064SOL     OW 8328   2.217   3.212   3.512  0.0283  0.3593 -0.3125
 2064SOL    HW2 8329   2.215   3.225   3.606  1.4295 -2.4468  0.1460
 2064SOL    HW3 8330   2.308   3.187   3.493 -0.3705  0.2918 -2.3199
 2064SOL    MW4 8331   2.229   3.211   3.522  0.1609 -0.0198 -0.5167
 2065SOL     OW 8332   2.225   3.459   3.390 -0.0824  0.1126 -0.0745
 2065SOL    HW2 8333   2.224   3.369   3.420  0.0852 -0.1198 -0.7560
 2065SOL    HW3 8334   2.228   3.453   3.294 -0.2459  0.8352 -0.1334
 2065SOL    MW4 8335   2.225   3.447   3.381 -0.0818  0.1774 -0.1721
 2066SOL     OW 8336   2.471   3.552   3.469 -0.0713  0.2425 -0.4434
 2066SOL    HW2 8337   2.479   3.639   3.430  0.3674 -0.6665 -2.4696
 2066SOL    HW3 8338   2.386   3.520   3.440  0.1159 -0.3194 -0.3803
 2066SOL    MW4 8339   2.461   3.559   3.460  0.0112  0.0484 -0.7024
 2067SOL     OW 8340   2.478   3.808   3.374  0.2392 -0.6605  0.1992
 2067SOL    HW2 8341   2.560   3.850   3.400  0.6746 -2.1435  1.3175
 2067SOL    HW3 8342   2.410   3.866   3.407  0.8289  0.6196 -0.8011
 2067SOL    MW4 8343   2.480   3.821   3.382  0.3746 -0.6866  0.2148
 2068SOL     OW 8344   2.252   3.965   3.514  0.8188  0.0035  0.0859
 2068SOL    HW2 8345   2.257   4.052   3.474  0.6543 -0.4461 -0.9373
 2068SOL    HW3 8346   2.179   3.922   3.469  1.3104 -0.8940  0.1291
 2068SOL    MW4 8347   2.243   3.970   3.503  0.8619 -0.1743 -0.0434
 2069SOL     OW 8348   2.252   4.208   3.428  0.2412 -0.2134  0.0392
 2069SOL    HW2 8349   2.173   4.255   3.456  0.2834  0.0196 -0.2305
 2069SOL    HW3 8350   2.255   4.220   3.333  1.7147  1.5167  0.2918
 2069SOL    MW4 8351   2.242   4.216   3.419  0.4408  0.0458  0.0367
 2070SOL     OW 8352   2.475   4.343   3.542 -0.3418 -0.0300 -0.6691
 2070SOL    HW2 8353   2.467   4.370   3.633 -1.1236  0.1630 -0.7920
 2070SOL    HW3 8354   2.387   4.315   3.517 -0.8540  2.8287 -2.2935
 2070SOL    MW4 8355   2.462   4.343   3.551 -0.5126  0.3724 -0.8998
 2071SOL     OW 8356   2.930   4.605   3.389 -0.1522 -0.1813 -0.2367
 2071SOL    HW2 8357   2.851   4.638   3.433  0.7925  2.4046 -0.3984
 2071SOL    HW3 8358   2.918   4.630   3.297  0.8994  0.3171 -0.2389
 2071SOL    MW4 8359   2.918   4.613   3.383  0.1113  0.2251 -0.2584
 2072SOL     OW 8360   2.731   0.068   3.525  0.2914 -0.1508 -0.2723
 2072SOL    HW2 8361   2.727   0.149   3.475  0.5706  0.4516  0.6759
 2072SOL    HW3 8362   2.653   0.019   3.498 -0.8791  1.2282  0.5020
 2072SOL    MW4 8363   2.720   0.072   3.515  0.1738  0.1106 -0.0451
 2073SOL     OW 8364   2.701   0.315   3.380 -0.0920 -0.5052  0.0438
 2073SOL    HW2 8365   2.632   0.361   3.429  0.1393 -0.7757  0.6360
 2073SOL    HW3 8366   2.680   0.330   3.288  1.1723  2.5584  0.2302
 2073SOL    MW4 8367   2.689   0.323   3.375  0.1054 -0.1366  0.1469
 2074SOL     OW 8368   2.878   0.485   3.501 -0.0762  0.6760 -0.6380
 2074SOL    HW2 8369   2.874   0.476   3.596  1.4708  0.2308 -0.6029
 2074SOL    HW3 8370   2.815   0.420   3.468  0.4276 -0.1752  0.0499
 2074SOL    MW4 8371   2.869   0.475   3.509  0.1943  0.5050 -0.5424
 2075SOL     OW 8372   2.936   0.734   3.103  0.0253 -0.5527 -0.7000
 2075SOL    HW2 8373   2.957   0.722   3.196  0.1184  0.4840 -0.5884
 2075SOL    HW3 8374   3.006   0.790   3.070 -0.6565  0.0384 -1.1327
 2075SOL    MW4 8375   2.948   0.740   3.111 -0.0525 -0.3379 -0.7424
 2076SOL     OW 8376   2.934   1.280   3.488  0.5413  0.4613  0.2469
 2076SOL    HW2 8377   2.938   1.370   3.454  0.0680  0.6685  0.7288
 2076SOL    HW3 8378   2.939   1.290   3.583 -1.9404  0.1666  0.4543
 2076SOL    MW4 8379   2.935   1.293   3.496  0.1514  0.4498  0.3381
 2077SOL     OW 8380   2.487   1.251   3.532  0.3291  0.5226 -0.2356
 2077SOL    HW2 8381   2.572   1.226   3.496  0.4468  0.5543  0.0184
 2077SOL    HW3 8382   2.505   1.268   3.625  0.5687  3.0622 -0.7053
 2077SOL    MW4 8383   2.501   1.250   3.540  0.3760  0.8619 -0.2642
 2078SOL     OW 8384   4.070   0.575   4.272 -0.5229 -0.3045 -0.6895
 2078SOL    HW2 8385   4.119   0.617   4.202 -0.1203  0.7535  0.2155
 2078SOL    HW3 8386   4.011   0.643   4.304  0.0580 -0.4416  0.7164
 2078SOL    MW4 8387   4.069   0.589   4.267 -0.3934 -0.1830 -0.3848
 2079SOL     OW 8388   3.185   1.143   3.090  0.4643 -0.1041 -0.0047
 2079SOL    HW2 8389   3.178   1.148   3.186 -0.7077 -0.3222 -0.0754
 2079SOL    HW3 8390   3.262   1.197   3.069 -0.2631  1.3122  0.9137
 2079SOL    MW4 8391   3.194   1.151   3.100  0.2134  0.0541  0.1073
 2080SOL     OW 8392   2.679   1.680   3.493 -0.0932 -0.1115 -0.3376
 2080SOL    HW2 8393   2.665   1.691   3.587 -0.2786  0.8440 -0.4697
 2080SOL    HW3 8394   2.625   1.605   3.469 -1.4092  0.7215 -0.0048
 2080SOL    MW4 8395   2.670   1.671   3.502 -0.2916  0.1245 -0.3111
 2081SOL     OW 8396   2.933   2.074   3.546 -0.1535 -0.2253  0.3126
 2081SOL    HW2 8397   2.997   2.015   3.506 -0.3718  0.1721 -0.6464
 2081SOL    HW3 8398   2.849   2.046   3.509 -0.3373  0.2568  0.3679
 2081SOL    MW4 8399   2.930   2.062   3.536 -0.2065 -0.1092  0.1934
 2082SOL     OW 8400   4.215   0.210   4.606  0.5006 -0.3550 -0.6315
 2082SOL    HW2 8401   4.170   0.287   4.640 -0.4745 -1.4293  0.5495
 2082SOL    HW3 8402   4.238   0.234   4.516 -1.0533  0.7817 -0.7435
 2082SOL    MW4 8403   4.212   0.224   4.599  0.1669 -0.3467 -0.4907
 2083SOL     OW 8404   2.919   2.326   3.420 -0.4802 -0.3161 -0.0853
 2083SOL    HW2 8405   2.933   2.243   3.465  0.1228 -0.0711  0.1855
 2083SOL    HW3 8406   2.930   2.305   3.327 -1.4002 -0.7550 -0.0996
 2083SOL    MW4 8407   2.922   2.312   3.414 -0.5219 -0.3417 -0.0515
 2084SOL     OW 8408   2.664   2.415   3.457  0.1180 -0.0626  0.2802
 2084SOL    HW2 8409   2.656   2.420   3.552  0.0299 -0.9585  0.3274
 2084SOL    HW3 8410   2.751   2.377   3.442  1.1981  2.4682 -0.0658
 2084SOL    MW4 8411   2.674   2.410   3.468  0.2489  0.1531  0.2408
 2085SOL     OW 8412   2.679   2.673   3.406  0.1921 -0.4463 -0.4462
 2085SOL    HW2 8413   2.666   2.583   3.437 -1.7369 -0.5373 -1.4501
 2085SOL    HW3 8414   2.594   2.716   3.420  1.0553  1.1971 -0.0986
 2085SOL    MW4 8415   2.666   2.667   3.412  0.0513 -0.2420 -0.5329
 2086SOL     OW 8416   2.902   2.816   3.522  0.7078 -0.4291 -0.0038
 2086SOL    HW2 8417   2.830   2.765   3.484 -2.0268  2.4296  1.0928
 2086SOL    HW3 8418   2.887   2.812   3.617  0.2653  2.5148  0.1091
 2086SOL    MW4 8419   2.890   2.809   3.530  0.2887  0.3364  0.1559
 2087SOL     OW 8420   2.924   3.083   3.489  0.1062 -0.4008 -0.2188
 2087SOL    HW2 8421   2.905   2.990   3.505  0.0509 -0.2635  0.5278
 2087SOL    HW3 8422   2.923   3.091   3.393 -0.1033 -1.1250 -0.2847
 2087SOL    MW4 8423   2.921   3.072   3.478  0.0710 -0.4783 -0.1292
 2088SOL     OW 8424   2.690   3.215   3.535  0.0538  0.1960 -0.0080
 2088SOL    HW2 8425   2.696   3.217   3.630  0.2100  1.2441 -0.0358
 2088SOL    HW3 8426   2.762   3.159   3.507  0.3340  0.3219  0.4664
 2088SOL    MW4 8427   2.700   3.208   3.544  0.1113  0.3507  0.0510
 2089SOL     OW 8428   2.689   3.423   3.356 -0.1365 -0.2134  0.2751
 2089SOL    HW2 8429   2.703   3.336   3.393 -2.4739 -0.9957 -0.5813
 2089SOL    HW3 8430   2.616   3.459   3.406  1.2389  1.5492  1.0633
 2089SOL    MW4 8431   2.682   3.417   3.367 -0.2635 -0.0842  0.2663
 2090SOL     OW 8432   2.905   3.556   3.464  0.2440 -0.0650  0.2690
 2090SOL    HW2 8433   2.911   3.628   3.401 -0.8188  0.1748  0.4276
 2090SOL    HW3 8434   2.826   3.508   3.439 -0.8754  0.7286  2.1062
 2090SOL    MW4 8435   2.895   3.559   3.453 -0.0439  0.0713  0.5324
 2091SOL     OW 8436   2.931   3.805   3.312 -0.2988 -0.3343 -0.5728
 2091SOL    HW2 8437   3.016   3.842   3.338 -1.1908  0.1103  1.8631
 2091SOL    HW3 8438   2.866   3.860   3.356 -1.8594 -0.8837 -2.1240
 2091SOL    MW4 8439   2.934   3.817   3.322 -0.6225 -0.3481 -0.4559
 2092SOL     OW 8440   2.713   3.951   3.418 -0.4700  0.4802 -0.5605
 2092SOL    HW2 8441   2.725   3.944   3.513 -0.8327  1.7809 -0.4139
 2092SOL    HW3 8442   2.694   4.043   3.403  0.6260  0.4817 -2.0325
 2092SOL    MW4 8443   2.712   3.962   3.428 -0.3734  0.6521 -0.7353
 2093SOL     OW 8444   2.684   4.219   3.391 -0.2926  0.0342 -0.2003
 2093SOL    HW2 8445   2.768   4.242   3.432  0.6933 -0.2199 -2.0304
 2093SOL    HW3 8446   2.618   4.264   3.444  1.0401  0.6253  0.9705
 2093SOL    MW4 8447   2.686   4.228   3.404  0.0131  0.0782 -0.2873
 2094SOL     OW 8448   2.914   4.348   3.521  0.1841 -0.1646  0.1583
 2094SOL    HW2 8449   2.923   4.358   3.615 -0.6664  0.2900  0.2013
 2094SOL    HW3 8450   2.911   4.437   3.487  0.8126 -0.3231 -0.3390
 2094SOL    MW4 8451   2.915   4.361   3.529  0.1550 -0.1254  0.0985
 2095SOL     OW 8452   3.349   4.628   3.407  0.3691  0.9510 -0.0551
 2095SOL    HW2 8453   3.277   4.682   3.439  0.9289  1.8948 -0.3631
 2095SOL    HW3 8454   3.354   4.646   3.313  0.2261 -0.0482 -0.2673
 2095SOL    MW4 8455   3.340   4.637   3.399  0.4244  0.9432 -0.1235
 2096SOL     OW 8456   3.124   0.104   3.533  0.2146 -1.2322 -0.2079
 2096SOL    HW2 8457   3.108   0.195   3.510 -1.1696 -1.0571  1.3622
 2096SOL    HW3 8458   3.058   0.054   3.485 -0.4369 -1.1953  0.6441
 2096SOL    MW4 8459   3.114   0.109   3.524 -0.0539 -1.2042  0.1116
 2097SOL     OW 8460   3.115   0.362   3.413 -0.4624 -0.0772 -0.0102
 2097SOL    HW2 8461   3.026   0.386   3.438 -0.6645 -0.5245 -0.2923
 2097SOL    HW3 8462   3.117   0.371   3.317  0.0281  0.7017  0.0662
 2097SOL    MW4 8463   3.104   0.366   3.403 -0.4246 -0.0335 -0.0377
 2098SOL     OW 8464   3.381   0.495   3.465 -0.1912  0.9472  0.0217
 2098SOL    HW2 8465   3.380   0.505   3.560 -3.0051  2.7080 -0.1240
 2098SOL    HW3 8466   3.292   0.467   3.443 -0.6310  3.9542 -2.3693
 2098SOL    MW4 8467   3.369   0.492   3.474 -0.6206  1.5762 -0.3130
 2099SOL     OW 8468   3.377   0.776   3.368  0.3210  0.3162 -0.4765
 2099SOL    HW2 8469   3.447   0.832   3.400  0.0636  0.0457  0.5867
 2099SOL    HW3 8470   3.400   0.688   3.399 -0.5079  0.2341 -0.0615
 2099SOL    MW4 8471   3.389   0.772   3.376  0.1776  0.2697 -0.2816
 2100SOL     OW 8472   3.168   0.904   3.483  0.0927  0.3482  0.3341
 2100SOL    HW2 8473   3.164   0.995   3.454  2.2737  0.3398 -0.0449
 2100SOL    HW3 8474   3.230   0.862   3.422  1.6661 -0.6052  2.5428
 2100SOL    MW4 8475   3.176   0.910   3.471  0.5879  0.2213  0.5755
 2101SOL     OW 8476   3.136   1.145   3.361  0.1212  0.2133  0.1047
 2101SOL    HW2 8477   3.209   1.197   3.396 -0.7367  1.5119 -0.0378
 2101SOL    HW3 8478   3.058   1.182   3.402 -0.5727 -0.4724 -0.5840
 2101SOL    MW4 8479   3.136   1.157   3.371 -0.0834  0.2942 -0.0048
 2102SOL     OW 8480   3.375   1.248   3.484 -0.8482  0.0422 -0.2653
 2102SOL    HW2 8481   3.459   1.208   3.459 -0.7954 -0.6790  1.0171
 2102SOL    HW3 8482   3.366   1.228   3.577 -2.7774 -0.4917 -0.5369
 2102SOL    MW4 8483   3.385   1.240   3.493 -1.0960 -0.1235 -0.1321
 2103SOL     OW 8484   3.125   1.681   3.541 -0.0646 -0.1743  0.2751
 2103SOL    HW2 8485   3.181   1.610   3.510  0.5680  1.0296 -1.4394
 2103SOL    HW3 8486   3.121   1.669   3.636  0.3242 -2.2667  0.0404
 2103SOL    MW4 8487   3.132   1.670   3.550  0.0701 -0.2916  0.0176
 2104SOL     OW 8488   2.915   1.552   3.387 -0.2509  0.5311 -0.4327
 2104SOL    HW2 8489   2.984   1.590   3.441 -0.0599 -0.6098  0.1480
 2104SOL    HW3 8490   2.834   1.593   3.419 -0.1560 -0.2371  0.8433
 2104SOL    MW4 8491   2.913   1.562   3.398 -0.2131  0.2791 -0.1876
 2105SOL     OW 8492   3.149   1.938   3.436 -0.1541  0.3823  0.0438
 2105SOL    HW2 8493   3.131   1.852   3.473 -0.6467 -0.0849 -1.2586
 2105SOL    HW3 8494   3.140   1.926   3.341 -0.9396  2.0263 -0.1050
 2105SOL    MW4 8495   3.146   1.925   3.428 -0.3223  0.5376 -0.1476
 2106SOL     OW 8496   3.383   2.078   3.546 -0.3806 -0.2086  0.1647
 2106SOL    HW2 8497   3.355   2.162   3.509  0.4249 -0.6469 -1.4786
 2106SOL    HW3 8498   3.315   2.016   3.519  0.4160 -0.6092 -0.9405
 2106SOL    MW4 8499   3.370   2.081   3.537 -0.1690 -0.3195 -0.1979
 2107SOL     OW 8500   3.331   2.320   3.438  0.3406 -0.0940  0.6115
 2107SOL    HW2 8501   3.409   2.355   3.480  0.3594 -0.0386  0.5319
 2107SOL    HW3 8502   3.259   2.369   3.478  0.5025  1.3569 -0.8164
 2107SOL    MW4 8503   3.332   2.331   3.448  0.3643  0.1049  0.4125
 2108SOL     OW 8504   3.114   2.458   3.554 -0.0770 -0.0635  0.3124
 2108SOL    HW2 8505   3.119   2.549   3.525  0.4849  0.4884  2.0679
 2108SOL    HW3 8506   3.044   2.419   3.502 -1.3103  1.7689  0.5784
 2108SOL    MW4 8507   3.105   2.465   3.544 -0.1657  0.2513  0.5791
 2109SOL     OW 8508   3.165   2.716   3.451 -0.7176  0.2711  0.0998
 2109SOL    HW2 8509   3.240   2.773   3.464  0.1955 -0.4789 -1.7621
 2109SOL    HW3 8510   3.089   2.772   3.468  0.2432  1.0488  1.9163
 2109SOL    MW4 8511   3.165   2.731   3.455 -0.4706  0.2747  0.0939
 2110SOL     OW 8512   3.409   2.851   3.465  0.0979  0.0333  0.3472
 2110SOL    HW2 8513   3.398   2.841   3.559 -1.0775  0.1986  0.2323
 2110SOL    HW3 8514   3.380   2.940   3.446 -1.1516 -0.5079 -0.3785
 2110SOL    MW4 8515   3.404   2.861   3.475 -0.2222 -0.0165  0.2363
 2111SOL     OW 8516   3.345   3.107   3.434  0.2173  0.0003  0.2858
 2111SOL    HW2 8517   3.432   3.144   3.444 -0.2167  0.8082  1.1441
 2111SOL    HW3 8518   3.286   3.169   3.477 -1.0475  0.5472 -2.1402
 2111SOL    MW4 8519   3.348   3.120   3.441 -0.0069  0.1791  0.0787
 2112SOL     OW 8520   3.130   3.228   3.584 -0.3565  0.2011  0.3457
 2112SOL    HW2 8521   3.129   3.298   3.519 -0.9189 -0.6742 -0.5994
 2112SOL    HW3 8522   3.057   3.171   3.560 -0.4832 -0.2134  1.6563
 2112SOL    MW4 8523   3.120   3.229   3.572 -0.4473  0.0310  0.3939
 2113SOL     OW 8524   3.142   3.451   3.415  0.4202 -0.5907 -0.1741
 2113SOL    HW2 8525   3.053   3.481   3.433  0.3034 -1.4922  0.8301
 2113SOL    HW3 8526   3.146   3.444   3.319 -0.0598  1.0167 -0.3188
 2113SOL    MW4 8527   3.131   3.454   3.405  0.3412 -0.4976 -0.0606
 2114SOL     OW 8528   3.360   3.578   3.562  0.1261 -0.0368  0.0033
 2114SOL    HW2 8529   3.326   3.667   3.556  1.1466  0.2584 -1.5353
 2114SOL    HW3 8530   3.295   3.525   3.516  0.4180  0.1522 -0.6213
 2114SOL    MW4 8531   3.347   3.583   3.555  0.2992  0.0274 -0.2820
 2115SOL     OW 8532   3.271   3.848   3.561 -0.0909 -0.1169  0.0682
 2115SOL    HW2 8533   3.347   3.904   3.544 -0.7508  0.4864 -0.9493
 2115SOL    HW3 8534   3.238   3.877   3.646 -0.7785  1.4499 -0.7232
 2115SOL    MW4 8535   3.277   3.859   3.570 -0.2685  0.1693 -0.1705
 2116SOL     OW 8536   3.155   3.953   3.345  0.3409  0.5684 -0.5277
 2116SOL    HW2 8537   3.200   3.922   3.424 -2.0998 -0.3769  0.5357
 2116SOL    HW3 8538   3.142   4.046   3.360 -0.5530  0.3063  0.4558
 2116SOL    MW4 8539   3.159   3.961   3.357 -0.0989  0.4091 -0.2577
 2117SOL     OW 8540   3.138   4.228   3.384 -0.0594 -0.1114  0.0023
 2117SOL    HW2 8541   3.219   4.270   3.414  0.5626 -0.0423 -1.6883
 2117SOL    HW3 8542   3.070   4.264   3.440  0.8451  1.1155  0.3507
 2117SOL    MW4 8543   3.140   4.238   3.395  0.1416  0.0601 -0.1748
 2118SOL     OW 8544   3.375   4.363   3.471  0.2706 -0.0068 -0.3511
 2118SOL    HW2 8545   3.405   4.352   3.561  1.1914  1.3308 -0.4761
 2118SOL    HW3 8546   3.361   4.458   3.462  0.5707 -0.0842 -1.7222
 2118SOL    MW4 8547   3.377   4.374   3.481  0.4320  0.1593 -0.5486
 2119SOL     OW 8548   3.823   4.613   3.433  0.7851 -0.0639  0.0813
 2119SOL    HW2 8549   3.746   4.650   3.476  0.2554 -2.5434  1.3513
 2119SOL    HW3 8550   3.811   4.633   3.341 -2.1226 -1.6255  0.0740
 2119SOL    MW4 8551   3.811   4.621   3.427  0.3316 -0.5970  0.2480
 2120SOL     OW 8552   3.566   0.070   3.548  0.2798 -0.2603  0.2300
 2120SOL    HW2 8553   3.496   0.018   3.508  0.3120 -0.1244 -0.0038
 2120SOL    HW3 8554   3.574   0.148   3.492  0.4728 -0.1728  0.3759
 2120SOL    MW4 8555   3.558   0.074   3.535  0.3097 -0.2309  0.2184
 2121SOL     OW 8556   3.608   0.330   3.431  0.0426 -0.3498  0.0821
 2121SOL    HW2 8557   3.679   0.387   3.461  0.1721 -0.8552  0.7480
 2121SOL    HW3 8558   3.528   0.378   3.453  0.1751  0.5044 -1.2369
 2121SOL    MW4 8559   3.606   0.344   3.438  0.0770 -0.3038 -0.0038
 2122SOL     OW 8560   3.813   0.483   3.537  0.3465  0.1906  0.1103
 2122SOL    HW2 8561   3.811   0.501   3.631 -1.9064 -1.4296  0.4135
 2122SOL    HW3 8562   3.886   0.422   3.526  0.5535  0.3049  0.8010
 2122SOL    MW4 8563   3.823   0.477   3.548  0.0768 -0.0081  0.2413
 2123SOL     OW 8564   3.812   0.734   3.384  0.1906 -0.3165  0.0679
 2123SOL    HW2 8565   3.879   0.792   3.421 -0.7790  0.8739 -0.0383
 2123SOL    HW3 8566   3.827   0.650   3.428  1.9150 -0.1380 -0.1408
 2123SOL    MW4 8567   3.823   0.731   3.395  0.2902 -0.1359  0.0262
 2124SOL     OW 8568   3.595   0.898   3.477 -0.0131 -0.3754 -0.2796
 2124SOL    HW2 8569   3.587   0.900   3.572 -0.8397  2.2069 -0.3417
 2124SOL    HW3 8570   3.665   0.836   3.459  1.3443  0.4242  2.1158
 2124SOL    MW4 8571   3.603   0.890   3.487  0.0570  0.0708  0.0281
 2125SOL     OW 8572   3.626   1.156   3.404 -0.5994 -0.0571  0.0051
 2125SOL    HW2 8573   3.603   1.065   3.426  1.5096 -0.9066 -1.1787
 2125SOL    HW3 8574   3.640   1.155   3.309  0.1556  1.3428  0.0891
 2125SOL    MW4 8575   3.625   1.144   3.394 -0.2215  0.0156 -0.1400
 2126SOL     OW 8576   3.853   1.250   3.523  0.1658 -0.3138 -0.0091
 2126SOL    HW2 8577   3.823   1.267   3.612  0.5028 -0.3948  0.1194
 2126SOL    HW3 8578   3.777   1.210   3.480  0.1223 -0.6296  0.3512
 2126SOL    MW4 8579   3.839   1.247   3.529  0.2043 -0.3661  0.0556
 2127SOL     OW 8580   3.796   1.518   3.449 -0.4594 -0.0380 -0.6371
 2127SOL    HW2 8581   3.882   1.556   3.468 -0.5832  0.2471 -0.6490
 2127SOL    HW3 8582   3.808   1.424   3.461 -0.7007  0.1875  1.5059
 2127SOL    MW4 8583   3.809   1.511   3.453 -0.5078  0.0293 -0.3560
 2128SOL     OW 8584   3.341   1.506   3.440 -0.3894 -0.0804  0.5888
 2128SOL    HW2 8585   3.409   1.562   3.476  0.0258 -1.1937  1.5644
 2128SOL    HW3 8586   3.369   1.417   3.462 -0.7634 -0.7087 -1.3812
 2128SOL    MW4 8587   3.353   1.502   3.447 -0.3839 -0.3102  0.4578
 2129SOL     OW 8588   3.586   1.913   3.388 -0.1785 -0.5804 -0.3111
 2129SOL    HW2 8589   3.674   1.940   3.415  0.0927 -0.5847 -1.1731
 2129SOL    HW3 8590   3.528   1.952   3.454  0.2803  1.3130 -0.9896
 2129SOL    MW4 8591   3.590   1.922   3.400 -0.0823 -0.3313 -0.5143
 2130SOL     OW 8592   3.832   1.987   3.474  0.1075 -0.3709 -0.6930
 2130SOL    HW2 8593   3.823   2.005   3.568  0.8992  0.5077 -0.7807
 2130SOL    HW3 8594   3.918   1.946   3.466  1.0356  1.5894 -1.2970
 2130SOL    MW4 8595   3.842   1.984   3.486  0.3347  0.0037 -0.7844
 2131SOL     OW 8596   3.825   2.263   3.430 -0.0807 -0.0489 -0.0705
 2131SOL    HW2 8597   3.895   2.300   3.483  0.3181  0.3859 -0.8775
 2131SOL    HW3 8598   3.832   2.169   3.443  0.9165 -0.0350 -0.4424
 2131SOL    MW4 8599   3.835   2.256   3.438  0.1035  0.0103 -0.2260
 2132SOL     OW 8600   3.600   2.395   3.542 -0.1449 -0.4003  0.3736
 2132SOL    HW2 8601   3.614   2.483   3.508  0.3254 -0.5658  0.1383
 2132SOL    HW3 8602   3.669   2.342   3.502  0.2439 -0.6563  1.3635
 2132SOL    MW4 8603   3.611   2.400   3.532 -0.0315 -0.4561  0.4735
 2133SOL     OW 8604   3.608   2.655   3.431  0.6282 -0.5053  0.6120
 2133SOL    HW2 8605   3.538   2.718   3.446  1.3077  0.5561 -0.6349
 2133SOL    HW3 8606   3.615   2.648   3.336  2.6915 -0.0494  0.7016
 2133SOL    MW4 8607   3.600   2.662   3.421  0.9902 -0.3052  0.4592
 2134SOL     OW 8608   3.788   2.820   3.764  0.0132  0.0424  0.0146
 2134SOL    HW2 8609   3.710   2.782   3.803 -0.8127 -0.2162 -1.8192
 2134SOL    HW3 8610   3.792   2.909   3.800 -0.2445 -0.4666  1.3114
 2134SOL    MW4 8611   3.778   2.827   3.774 -0.1297 -0.0587 -0.0563
 2135SOL     OW 8612   3.809   3.098   3.385  0.1025  0.2708 -0.1181
 2135SOL    HW2 8613   3.886   3.128   3.433 -1.5464  0.4520  2.5270
 2135SOL    HW3 8614   3.800   3.005   3.409 -0.1696  0.0912 -0.8817
 2135SOL    MW4 8615   3.818   3.089   3.394 -0.1507  0.2711  0.1302
 2136SOL     OW 8616   3.589   3.209   3.527 -0.5331 -0.0319 -0.5340
 2136SOL    HW2 8617   3.586   3.299   3.492 -0.0177  0.4733  0.6933
 2136SOL    HW3 8618   3.659   3.166   3.478 -0.8435  0.2044 -1.1925
 2136SOL    MW4 8619   3.598   3.216   3.515 -0.5062  0.0660 -0.4590
 2137SOL     OW 8620   3.587   3.486   3.440 -0.5421  0.3570 -0.5019
 2137SOL    HW2 8621   3.512   3.531   3.480  0.8146  2.4215 -0.1790
 2137SOL    HW3 8622   3.573   3.495   3.346 -0.7912  0.5927 -0.4412
 2137SOL    MW4 8623   3.575   3.493   3.433 -0.3960  0.6604 -0.4511
 2138SOL     OW 8624   3.842   3.561   3.521  0.2396  0.1062  0.1239
 2138SOL    HW2 8625   3.833   3.576   3.615 -0.4139 -1.9451  0.4157
 2138SOL    HW3 8626   3.758   3.523   3.495  0.1488  1.3291 -1.4418
 2138SOL    MW4 8627   3.829   3.558   3.530  0.1414 -0.0031 -0.0441
 2139SOL     OW 8628   3.766   3.839   3.443 -0.0236 -0.1217  0.0230
 2139SOL    HW2 8629   3.672   3.852   3.430 -0.1060 -0.7113 -0.0029
 2139SOL    HW3 8630   3.773   3.750   3.478  0.4901  0.0881  0.4597
 2139SOL    MW4 8631   3.754   3.829   3.446  0.0331 -0.1719  0.0775
 2140SOL     OW 8632   3.510   3.930   3.476  0.0427 -0.5567 -0.0724
 2140SOL    HW2 8633   3.546   3.923   3.565 -2.5295 -0.9482  1.0037
 2140SOL    HW3 8634   3.529   4.020   3.450 -0.0146 -0.1260  1.2962
 2140SOL    MW4 8635   3.517   3.941   3.484 -0.3045 -0.5515  0.2501
 2141SOL     OW 8636   3.570   4.174   3.394  0.5380 -0.0070 -0.4235
 2141SOL    HW2 8637   3.509   4.243   3.422  0.1874 -0.5368  0.1412
 2141SOL    HW3 8638   3.587   4.193   3.302 -2.1761 -1.0733 -1.1847
 2141SOL    MW4 8639   3.564   4.186   3.386  0.1335 -0.2174 -0.4497
 2142SOL     OW 8640   3.804   4.335   3.500  0.2957  0.4210  0.1052
 2142SOL    HW2 8641   3.727   4.292   3.461  1.2061 -0.0692 -1.1727
 2142SOL    HW3 8642   3.800   4.425   3.468  0.2114  0.4182  0.1084
 2142SOL    MW4 8643   3.793   4.341   3.491  0.4046  0.3557 -0.0634
 2143SOL     OW 8644   4.297   4.611   3.368 -0.0369 -0.7490  0.3470
 2143SOL    HW2 8645   4.283   4.527   3.411 -0.4952 -0.0439  1.6080
 2143SOL    HW3 8646   4.369   4.651   3.416 -0.8144  0.2169  0.7487
 2143SOL    MW4 8647   4.304   4.605   3.380 -0.2003 -0.5288  0.5665
 2144SOL     OW 8648   4.074   0.034   3.530 -0.2451  0.3444  0.0454
 2144SOL    HW2 8649   4.139  -0.022   3.485 -0.4197 -0.5360  0.8659
 2144SOL    HW3 8650   3.990  -0.004   3.505 -0.3576  0.1368  0.7390
 2144SOL    MW4 8651   4.072   0.021   3.521 -0.2832  0.2008  0.2453
 2145SOL     OW 8652   4.030   0.314   3.451  0.4167  0.0951 -0.1354
 2145SOL    HW2 8653   4.047   0.220   3.461  1.4558  0.2009 -0.8373
 2145SOL    HW3 8654   4.016   0.325   3.357 -1.6479  0.3375  0.1788
 2145SOL    MW4 8655   4.031   0.303   3.440  0.2813  0.1410 -0.1864
 2146SOL     OW 8656   4.247   0.470   3.524  0.1676  0.5340  0.7060
 2146SOL    HW2 8657   4.233   0.556   3.483  0.3778 -0.0913 -0.7070
 2146SOL    HW3 8658   4.177   0.415   3.489  0.8845 -0.2488  0.4886
 2146SOL    MW4 8659   4.236   0.474   3.514  0.2904  0.3482  0.4909
 2147SOL     OW 8660   4.221   0.737   3.406 -0.0672 -0.2780  0.4905
 2147SOL    HW2 8661   4.304   0.770   3.440 -0.5991 -0.2301  1.7809
 2147SOL    HW3 8662   4.220   0.765   3.315  0.5964  1.1689  0.9083
 2147SOL    MW4 8663   4.231   0.745   3.399 -0.0496 -0.0808  0.7160
 2148SOL     OW 8664   4.006   0.887   3.487  0.1082  0.2326 -0.1528
 2148SOL    HW2 8665   4.025   0.976   3.456 -0.0900  0.1393 -0.5449
 2148SOL    HW3 8666   4.086   0.837   3.469  0.7690  0.6807  1.4287
 2148SOL    MW4 8667   4.019   0.892   3.481  0.1688  0.2794  0.0041
 2149SOL     OW 8668   4.075   1.134   3.391  0.1932  0.0263  0.1032
 2149SOL    HW2 8669   4.159   1.173   3.416  0.5877 -0.5286 -0.3548
 2149SOL    HW3 8670   4.012   1.175   3.450  0.6954  0.8867  0.0625
 2149SOL    MW4 8671   4.078   1.145   3.402  0.3114  0.0666  0.0377
 2150SOL     OW 8672   4.298   1.254   3.497  0.4395 -0.2858  0.0276
 2150SOL    HW2 8673   4.305   1.350   3.491 -0.1951 -0.2038  0.4890
 2150SOL    HW3 8674   4.382   1.222   3.467  0.3135  0.3938 -1.0792
 2150SOL    MW4 8675   4.310   1.263   3.492  0.3395 -0.1854 -0.0577
 2151SOL     OW 8676   4.306   1.516   3.453 -0.4784  0.0016  0.2673
 2151SOL    HW2 8677   4.220   1.556   3.468 -0.4340  0.4569 -0.6698
 2151SOL    HW3 8678   4.305   1.492   3.360  0.8563  1.0742 -0.0381
 2151SOL    MW4 8679   4.295   1.518   3.443 -0.2966  0.2033  0.1035
 2152SOL     OW 8680   4.040   1.615   3.496  0.2089  0.1272 -0.1229
 2152SOL    HW2 8681   4.031   1.595   3.589 -0.1263  1.2148  0.0806
 2152SOL    HW3 8682   4.049   1.710   3.492 -1.1562  0.2278 -1.3048
 2152SOL    MW4 8683   4.040   1.625   3.508 -0.0157  0.2840 -0.2520
 2153SOL     OW 8684   4.078   1.897   3.444  0.3549 -0.1495 -0.2390
 2153SOL    HW2 8685   4.151   1.956   3.459 -0.3589  0.6498  0.1260
 2153SOL    HW3 8686   4.078   1.883   3.349  0.2734  0.7681 -0.3759
 2153SOL    MW4 8687   4.088   1.903   3.433  0.2499  0.0769 -0.2089
 2154SOL     OW 8688   4.275   2.078   3.520 -0.2074  0.3556 -0.0316
 2154SOL    HW2 8689   4.295   2.163   3.480 -2.2425 -0.4194 -2.7817
 2154SOL    HW3 8690   4.353   2.025   3.503  0.1294  0.9546 -0.3648
 2154SOL    MW4 8691   4.288   2.082   3.513 -0.4315  0.3324 -0.4382
 2155SOL     OW 8692   4.258   2.353   3.417 -0.2839 -0.3332  0.5680
 2155SOL    HW2 8693   4.174   2.374   3.459 -0.1729  0.3846  0.4320
 2155SOL    HW3 8694   4.236   2.340   3.325 -0.4687 -1.5575  0.7681
 2155SOL    MW4 8695   4.244   2.354   3.411 -0.2937 -0.3998  0.5765
 2156SOL     OW 8696   4.027   2.413   3.559 -0.2947  0.4862 -0.2812
 2156SOL    HW2 8697   4.036   2.427   3.654  0.7720  1.4035 -0.4912
 2156SOL    HW3 8698   4.014   2.501   3.524 -1.3355  0.0752 -0.9286
 2156SOL    MW4 8699   4.027   2.427   3.567 -0.2918  0.5531 -0.3943
 2157SOL     OW 8700   3.810   2.829   3.470 -0.0454 -0.6646  0.2085
 2157SOL    HW2 8701   3.812   2.837   3.566 -1.3219 -1.2327  0.3034
 2157SOL    HW3 8702   3.735   2.771   3.453 -0.9390  0.8682 -1.2270
 2157SOL    MW4 8703   3.800   2.822   3.481 -0.3314 -0.5369  0.0319
 2158SOL     OW 8704   4.028   2.665   3.416 -0.4327 -0.1056 -0.1621
 2158SOL    HW2 8705   3.952   2.720   3.436 -0.4493 -0.4385  0.6973
 2158SOL    HW3 8706   4.103   2.720   3.439 -0.4355 -0.2049  0.0831
 2158SOL    MW4 8707   4.028   2.680   3.422 -0.4354 -0.1626 -0.0162
 2159SOL     OW 8708   4.283   3.069   3.440  0.1105 -0.1900 -0.2264
 2159SOL    HW2 8709   4.278   2.976   3.463  0.0486 -0.7210 -2.2729
 2159SOL    HW3 8710   4.262   3.072   3.346  3.0963  1.5010 -0.9371
 2159SOL    MW4 8711   4.280   3.057   3.430  0.4959 -0.0370 -0.5901
 2160SOL     OW 8712   4.034   3.187   3.482  0.1125 -0.0059 -0.5757
 2160SOL    HW2 8713   4.051   3.277   3.455 -0.3165  0.2450 -0.0175
 2160SOL    HW3 8714   4.120   3.145   3.484  0.2469  0.2116 -1.4736
 2160SOL    MW4 8715   4.047   3.194   3.478  0.0739  0.0558 -0.6204
 2161SOL     OW 8716   4.055   3.459   3.396 -0.0748  0.3384 -0.5885
 2161SOL    HW2 8717   4.133   3.481   3.448 -0.9366  1.1300  0.3823
 2161SOL    HW3 8718   3.984   3.507   3.438 -1.1201 -0.4876 -1.3957
 2161SOL    MW4 8719   4.056   3.469   3.408 -0.3262  0.3340 -0.5670
 2162SOL     OW 8720   4.287   3.570   3.537  0.7491 -0.1986  0.0704
 2162SOL    HW2 8721   4.288   3.580   3.633 -0.8688 -0.2657  0.1074
 2162SOL    HW3 8722   4.287   3.660   3.504  1.5188 -0.1756  0.1228
 2162SOL    MW4 8723   4.287   3.583   3.546  0.6375 -0.2041  0.0820
 2163SOL     OW 8724   4.252   3.846   3.455 -0.2177 -0.3398  0.0798
 2163SOL    HW2 8725   4.342   3.872   3.474  0.2199 -1.8250  0.0559
 2163SOL    HW3 8726   4.241   3.861   3.362 -0.2375  0.5647  0.2262
 2163SOL    MW4 8727   4.262   3.851   3.445 -0.1626 -0.4163  0.0956
 2164SOL     OW 8728   4.015   3.965   3.542 -0.0905 -0.2689 -0.0358
 2164SOL    HW2 8729   4.078   3.906   3.500 -0.6369 -0.4604 -0.5864
 2164SOL    HW3 8730   3.930   3.923   3.529 -0.6885  1.4451 -1.8782
 2164SOL    MW4 8731   4.012   3.952   3.535 -0.2413 -0.0679 -0.3514
 2165SOL     OW 8732   4.043   4.221   3.435 -0.3738 -0.1452 -0.1704
 2165SOL    HW2 8733   4.052   4.141   3.487 -1.2252 -0.1836 -0.0887
 2165SOL    HW3 8734   3.959   4.258   3.462  0.2299  1.0311  0.1540
 2165SOL    MW4 8735   4.033   4.216   3.446 -0.4067  0.0048 -0.1171
 2166SOL     OW 8736   4.253   4.385   3.508  0.4789 -0.4083  0.0577
 2166SOL    HW2 8737   4.247   4.399   3.603  0.5416  0.9047 -0.1153
 2166SOL    HW3 8738   4.170   4.342   3.485  0.1431 -0.0678  0.5997
 2166SOL    MW4 8739   4.241   4.381   3.517  0.4425 -0.1898  0.1063
 2167SOL     OW 8740   0.271   4.618   3.911 -0.1001  0.4165  0.2726
 2167SOL    HW2 8741   0.194   4.669   3.886 -1.5310 -1.2416  1.2149
 2167SOL    HW3 8742   0.268   4.540   3.856  1.3298  0.7025 -0.2234
 2167SOL    MW4 8743   0.260   4.614   3.901 -0.1002  0.2356  0.3316
 2168SOL     OW 8744   0.065   0.071   3.797 -0.1194 -0.3210  0.1568
 2168SOL    HW2 8745   0.057   0.162   3.827 -0.7259 -0.2446 -0.2321
 2168SOL    HW3 8746   0.053   0.076   3.702 -4.2457 -1.3066  0.5506
 2168SOL    MW4 8747   0.063   0.084   3.788 -0.7438 -0.4409  0.1576
 2169SOL     OW 8748   0.013   0.333   3.868  0.5651  0.2582 -0.0679
 2169SOL    HW2 8749  -0.070   0.379   3.856  1.0956  1.5756  1.2080
 2169SOL    HW3 8750   0.079   0.393   3.835  1.2176  0.2180  1.1221
 2169SOL    MW4 8751   0.010   0.347   3.862  0.7210  0.4267  0.2575
 2170SOL     OW 8752   0.226   0.472   3.780  0.6601 -0.2524  0.5299
 2170SOL    HW2 8753   0.256   0.558   3.810  0.3321  0.3747 -0.9160
 2170SOL    HW3 8754   0.198   0.486   3.690  1.4275 -2.0649 -0.0113
 2170SOL    MW4 8755   0.226   0.485   3.772  0.7181 -0.4089  0.2680
 2171SOL     OW 8756   0.258   0.748   3.844  0.0821  0.1066 -0.2129
 2171SOL    HW2 8757   0.244   0.743   3.938 -0.3197 -1.4897 -0.3430
 2171SOL    HW3 8758   0.173   0.775   3.808  0.5029  1.7027 -0.0509
 2171SOL    MW4 8759   0.245   0.751   3.852  0.0846  0.1066 -0.2084
 2172SOL     OW 8760   0.025   0.862   3.741 -0.4602  0.0132  0.2621
 2172SOL    HW2 8761  -0.049   0.811   3.773  0.5389 -1.1363  0.7617
 2172SOL    HW3 8762   0.022   0.943   3.792 -1.7432  0.2546 -0.1760
 2172SOL    MW4 8763   0.015   0.866   3.752 -0.4977 -0.1066  0.2701
 2173SOL     OW 8764   4.287   1.247   3.774  0.2264 -0.2901  0.2557
 2173SOL    HW2 8765   4.310   1.268   3.683  0.4871 -0.3499  0.3064
 2173SOL    HW3 8766   4.281   1.331   3.818 -1.8632 -0.1372 -0.2765
 2173SOL    MW4 8767   4.289   1.261   3.767 -0.0143 -0.2779  0.1922
 2174SOL     OW 8768   0.236   1.280   3.773  0.1500  0.3347  0.7266
 2174SOL    HW2 8769   0.179   1.207   3.799  0.2130  0.1048  0.2214
 2174SOL    HW3 8770   0.225   1.286   3.678  0.8498  0.3864  0.6483
 2174SOL    MW4 8771   0.227   1.271   3.764  0.2506  0.3113  0.6495
 2175SOL     OW 8772   4.469   1.632   3.824  0.3470 -0.0522  0.1258
 2175SOL    HW2 8773   4.482   1.723   3.848 -1.5338  0.3813 -0.4624
 2175SOL    HW3 8774   4.469   1.631   3.728 -1.6872 -0.3361  0.1018
 2175SOL    MW4 8775   4.471   1.644   3.814 -0.1693 -0.0324  0.0451
 2176SOL     OW 8776   0.009   1.890   3.891  0.0559 -0.6466  0.3659
 2176SOL    HW2 8777   0.014   1.894   3.986 -0.2141  1.2260  0.3138
 2176SOL    HW3 8778  -0.066   1.946   3.868  3.0584  2.9249 -1.2167
 2176SOL    MW4 8779  -0.001   1.898   3.900  0.4158  0.0716  0.1502
 2177SOL     OW 8780   2.804   1.244   4.606 -0.0489  0.1137 -0.2261
 2177SOL    HW2 8781   2.741   1.172   4.597 -1.5926  1.4612 -0.4399
 2177SOL    HW3 8782   2.750   1.321   4.625  1.4723  1.4501 -1.1789
 2177SOL    MW4 8783   2.789   1.244   4.608 -0.0517  0.4678 -0.3800
 2178SOL     OW 8784   0.230   2.039   3.838 -0.2414 -0.1850  0.3577
 2178SOL    HW2 8785   0.202   2.127   3.860  1.9220  0.5320  0.3709
 2178SOL    HW3 8786   0.151   1.986   3.843 -1.4927  1.6924  0.6675
 2178SOL    MW4 8787   0.216   2.043   3.841 -0.1210  0.1574  0.4003
 2179SOL     OW 8788   0.488   1.649   3.776  0.1961 -0.4503  0.1938
 2179SOL    HW2 8789   0.405   1.613   3.808  0.4277 -0.4322  0.8286
 2179SOL    HW3 8790   0.496   1.734   3.818 -0.1459  0.1680 -0.9845
 2179SOL    MW4 8791   0.478   1.655   3.786  0.1815 -0.3664  0.1221
 2180SOL     OW 8792   4.471   2.441   3.791 -0.1136 -0.4589 -0.3525
 2180SOL    HW2 8793   4.555   2.412   3.826 -0.6292 -1.3719  0.1573
 2180SOL    HW3 8794   4.456   2.527   3.830 -0.0301 -0.8669  0.5957
 2180SOL    MW4 8795   4.480   2.448   3.801 -0.1706 -0.6330 -0.1602
 2181SOL     OW 8796   4.239   2.794   3.826 -0.3817  0.2327 -0.0040
 2181SOL    HW2 8797   4.151   2.759   3.839  0.2440 -1.5147 -0.2747
 2181SOL    HW3 8798   4.233   2.886   3.852 -2.6034  0.4895 -1.3588
 2181SOL    MW4 8799   4.227   2.802   3.831 -0.5927  0.0360 -0.2182
 2182SOL     OW 8800   0.200   2.774   3.761  0.3840  0.3768  0.2320
 2182SOL    HW2 8801   0.259   2.710   3.801  0.7224  0.0987 -0.6747
 2182SOL    HW3 8802   0.238   2.789   3.674  0.9655  2.6952  0.8538
 2182SOL    MW4 8803   0.213   2.767   3.755  0.5053  0.6461  0.1948
 2183SOL     OW 8804   0.221   3.066   3.842  0.3110 -0.3600 -0.2421
 2183SOL    HW2 8805   0.145   3.117   3.814  0.1935 -0.8704 -0.8806
 2183SOL    HW3 8806   0.211   2.982   3.797  1.2585 -0.4313 -0.3417
 2183SOL    MW4 8807   0.210   3.062   3.832  0.4205 -0.4365 -0.3393
 2184SOL     OW 8808   4.477   3.201   3.792 -0.1863  0.3527  0.0979
 2184SOL    HW2 8809   4.467   3.210   3.697  0.5542 -0.0853 -0.0262
 2184SOL    HW3 8810   4.402   3.148   3.819  1.7173 -2.8848 -0.8119
 2184SOL    MW4 8811   4.465   3.196   3.783  0.1631 -0.1321 -0.0389
 2185SOL     OW 8812   0.007   3.471   3.873  0.2259  0.2471  0.2339
 2185SOL    HW2 8813   0.086   3.508   3.833 -1.3815  1.6322 -1.7588
 2185SOL    HW3 8814   0.004   3.381   3.840  0.0487  0.7325 -1.0973
 2185SOL    MW4 8815   0.017   3.464   3.863 -0.0095  0.4938 -0.2048
 2186SOL     OW 8816   0.228   3.589   3.785 -0.0516  0.5730  0.1317
 2186SOL    HW2 8817   0.234   3.682   3.804  0.6319  0.9270 -1.7492
 2186SOL    HW3 8818   0.311   3.553   3.818 -0.2824  0.6464  0.7893
 2186SOL    MW4 8819   0.240   3.596   3.792  0.0081  0.6294 -0.0296
 2187SOL     OW 8820   4.483   3.977   3.788  0.1022 -0.1451 -0.3640
 2187SOL    HW2 8821   4.401   3.954   3.831  1.4368 -1.2086  1.7112
 2187SOL    HW3 8822   4.549   3.924   3.833  1.9718  0.9623 -1.7417
 2187SOL    MW4 8823   4.481   3.967   3.800  0.5255 -0.1395 -0.2718
 2188SOL     OW 8824   0.207   3.862   3.902  0.1653  0.0801  0.2236
 2188SOL    HW2 8825   0.228   3.828   3.989  1.5342 -0.0750 -0.1649
 2188SOL    HW3 8826   0.282   3.916   3.878  0.0195 -0.2625 -1.0606
 2188SOL    MW4 8827   0.219   3.865   3.910  0.3267  0.0145  0.0029
 2189SOL     OW 8828   0.023   4.262   3.865 -0.4419  0.4263 -0.0734
 2189SOL    HW2 8829   0.028   4.172   3.832 -0.2589 -0.0790  1.2928
 2189SOL    HW3 8830  -0.060   4.295   3.831 -0.1512  0.0142 -1.2349
 2189SOL    MW4 8831   0.013   4.254   3.856 -0.3796  0.3052 -0.0465
 2190SOL     OW 8832   0.243   4.383   3.763  0.1495 -0.1599 -0.6775
 2190SOL    HW2 8833   0.318   4.348   3.811 -0.4593  1.9865  1.9839
 2190SOL    HW3 8834   0.167   4.343   3.806 -0.3722  1.0473 -0.4567
 2190SOL    MW4 8835   0.243   4.373   3.775  0.0003  0.2828 -0.2973
 2191SOL     OW 8836   0.708   4.613   3.915  0.1273  0.1459  0.1872
 2191SOL    HW2 8837   0.682   4.540   3.859 -0.4112  0.1305  0.4521
 2191SOL    HW3 8838   0.638   4.678   3.904 -0.8183 -0.4998  2.0490
 2191SOL    MW4 8839   0.695   4.612   3.906 -0.0686  0.0582  0.4680
 2192SOL     OW 8840   0.491   0.090   3.823  0.4419  0.2503 -0.1397
 2192SOL    HW2 8841   0.487   0.185   3.838  0.2775  0.3799 -1.0062
 2192SOL    HW3 8842   0.405   0.058   3.850  0.6331  0.2886  0.5320
 2192SOL    MW4 8843   0.479   0.099   3.829  0.4454  0.2725 -0.1652
 2193SOL     OW 8844   0.432   0.359   3.943  0.2324 -0.5317 -0.5548
 2193SOL    HW2 8845   0.507   0.402   3.905 -0.4791  0.1797 -1.1670
 2193SOL    HW3 8846   0.356   0.399   3.900 -0.4895 -1.3294 -0.0538
 2193SOL    MW4 8847   0.432   0.370   3.932  0.0433 -0.5431 -0.5691
 2194SOL     OW 8848   0.650   0.478   3.827  0.2171 -0.0579 -0.2833
 2194SOL    HW2 8849   0.732   0.430   3.830  0.0213 -0.2913  1.6368
 2194SOL    HW3 8850   0.674   0.569   3.847  0.4175  0.4562 -2.7237
 2194SOL    MW4 8851   0.664   0.484   3.830  0.2177 -0.0209 -0.3521
 2195SOL     OW 8852   1.189   1.340   3.782 -0.2506  0.3709 -0.0090
 2195SOL    HW2 8853   1.171   1.422   3.828 -1.6350  0.3798 -0.5476
 2195SOL    HW3 8854   1.126   1.278   3.817  0.7816 -0.4767  0.3784
 2195SOL    MW4 8855   1.179   1.343   3.792 -0.2972  0.2601 -0.0288
 2196SOL     OW 8856   0.493   0.866   3.807 -0.3197  0.1930 -0.5387
 2196SOL    HW2 8857   0.483   0.960   3.816  1.2494  0.1430  2.2429
 2196SOL    HW3 8858   0.410   0.830   3.840  0.2665  0.5305  1.3893
 2196SOL    MW4 8859   0.481   0.873   3.813 -0.0353  0.2310  0.0827
 2197SOL     OW 8860   0.478   1.139   3.841  0.0389  0.4001 -0.4535
 2197SOL    HW2 8861   0.472   1.141   3.937  0.8020  0.6595 -0.4040
 2197SOL    HW3 8862   0.400   1.187   3.811 -0.5141 -0.2019  0.0219
 2197SOL    MW4 8863   0.467   1.146   3.850  0.0666  0.3548 -0.3843
 2198SOL     OW 8864   0.930   1.735   3.820  0.0649 -0.4283 -0.0487
 2198SOL    HW2 8865   0.907   1.730   3.728 -0.0988 -2.1371  0.0516
 2198SOL    HW3 8866   0.861   1.685   3.864  0.2170  0.2534  0.9830
 2198SOL    MW4 8867   0.918   1.727   3.814  0.0634 -0.5639  0.1006
 2199SOL     OW 8868   4.042   1.110   4.089  0.2990 -0.7115  0.7400
 2199SOL    HW2 8869   4.042   1.200   4.122 -0.2937  0.1467 -1.5504
 2199SOL    HW3 8870   4.111   1.066   4.140  0.8104  1.0935  1.6572
 2199SOL    MW4 8871   4.051   1.116   4.100  0.2885 -0.3601  0.5589
 2200SOL     OW 8872   0.244   1.527   3.880  0.4223  0.2782  0.4805
 2200SOL    HW2 8873   0.241   1.439   3.843  2.0327  0.2237  0.4741
 2200SOL    HW3 8874   0.156   1.563   3.864  0.1665 -0.8450 -0.6492
 2200SOL    MW4 8875   0.232   1.520   3.873  0.6010  0.1228  0.3304
 2201SOL     OW 8876   0.737   1.543   3.894  0.3106  0.4482 -0.2448
 2201SOL    HW2 8877   0.755   1.453   3.867 -1.4989  0.5793 -2.0582
 2201SOL    HW3 8878   0.655   1.565   3.849 -0.7140  2.0787  2.3414
 2201SOL    MW4 8879   0.729   1.534   3.884 -0.0634  0.6807 -0.1428
 2202SOL     OW 8880   0.699   2.028   3.820  0.1911 -0.0746 -0.3398
 2202SOL    HW2 8881   0.774   2.002   3.874  1.7887  1.5160 -1.7277
 2202SOL    HW3 8882   0.680   2.118   3.849 -1.6584 -0.7264  0.5089
 2202SOL    MW4 8883   0.707   2.037   3.831  0.1578  0.0491 -0.4110
 2203SOL     OW 8884   2.558   1.449   4.580 -0.3619 -0.4762  0.4696
 2203SOL    HW2 8885   2.508   1.530   4.588  0.2236  0.0104 -0.6533
 2203SOL    HW3 8886   2.566   1.435   4.486  0.1186 -1.4750  0.6539
 2203SOL    MW4 8887   2.552   1.458   4.569 -0.2213 -0.5440  0.3457
 2204SOL     OW 8888   0.445   2.408   3.798  0.2745  0.1134 -0.2363
 2204SOL    HW2 8889   0.434   2.500   3.821 -1.1087 -0.1737  0.2482
 2204SOL    HW3 8890   0.445   2.407   3.702  1.4193  0.7363 -0.2575
 2204SOL    MW4 8891   0.444   2.420   3.788  0.2431  0.1578 -0.1752
 2205SOL     OW 8892   0.435   2.655   3.889  0.0658  0.0175 -0.2230
 2205SOL    HW2 8893   0.453   2.631   3.980  0.7346  0.3602 -0.2606
 2205SOL    HW3 8894   0.513   2.703   3.862 -0.2759  0.1993 -0.8756
 2205SOL    MW4 8895   0.447   2.658   3.898  0.1090  0.0865 -0.3142
 2206SOL     OW 8896   0.809   2.401   3.758 -0.0093  0.2064 -0.0683
 2206SOL    HW2 8897   0.739   2.350   3.800  0.4132  0.5776  1.1123
 2206SOL    HW3 8898   0.886   2.385   3.812  0.6376  0.4211 -0.9163
 2206SOL    MW4 8899   0.810   2.393   3.771  0.1318  0.2835 -0.0246
 2207SOL     OW 8900   2.876   3.229   4.243 -0.6036  0.2154  0.2101
 2207SOL    HW2 8901   2.890   3.137   4.221 -0.8211  0.2851 -0.2320
 2207SOL    HW3 8902   2.860   3.230   4.337  1.0030 -0.0287  0.5133
 2207SOL    MW4 8903   2.876   3.217   4.252 -0.4203  0.1924  0.1917
 2208SOL     OW 8904   0.462   3.209   3.774  0.0961 -0.4735  0.2808
 2208SOL    HW2 8905   0.519   3.163   3.835  0.2575  1.3891  1.5769
 2208SOL    HW3 8906   0.374   3.179   3.795  0.2632 -0.7193  0.6243
 2208SOL    MW4 8907   0.458   3.199   3.785  0.1394 -0.2601  0.4971
 2209SOL     OW 8908   0.468   3.466   3.853 -0.4554  0.1651 -0.0386
 2209SOL    HW2 8909   0.491   3.481   3.944  0.3653  0.4375 -0.2849
 2209SOL    HW3 8910   0.475   3.372   3.841  3.1472  0.4638 -0.7774
 2209SOL    MW4 8911   0.472   3.456   3.863  0.1282  0.2403 -0.1688
 2210SOL     OW 8912   0.683   3.635   3.757  0.3318 -0.4171 -0.4481
 2210SOL    HW2 8913   0.611   3.572   3.769 -1.0151  0.6295 -2.6311
 2210SOL    HW3 8914   0.691   3.643   3.662  2.1276  0.8754 -0.1970
 2210SOL    MW4 8915   0.674   3.628   3.746  0.3910 -0.1087 -0.7029
 2211SOL     OW 8916   0.666   3.888   3.896  0.0455  0.6335  0.0058
 2211SOL    HW2 8917   0.747   3.934   3.876  0.1504  0.2246 -0.5369
 2211SOL    HW3 8918   0.668   3.810   3.840 -0.4449  0.3201  0.4167
 2211SOL    MW4 8919   0.677   3.884   3.886 -0.0053  0.5381 -0.0117
 2212SOL     OW 8920   0.423   3.997   3.797 -0.1738 -0.7244  0.0003
 2212SOL    HW2 8921   0.502   3.967   3.841 -0.7148 -1.1248  0.7112
 2212SOL    HW3 8922   0.443   3.990   3.704  0.9290 -0.0097  0.1691
 2212SOL    MW4 8923   0.436   3.992   3.791 -0.0997 -0.6828  0.1163
 2213SOL     OW 8924   0.415   4.241   3.918  0.6063  0.4897 -0.0852
 2213SOL    HW2 8925   0.498   4.273   3.882  0.5891 -0.8292 -1.3315
 2213SOL    HW3 8926   0.402   4.156   3.876 -0.0136 -0.5608  2.1751
 2213SOL    MW4 8927   0.424   4.234   3.907  0.5222  0.1769  0.0484
 2214SOL     OW 8928   0.635   4.345   3.778 -0.7965  0.0678  0.0159
 2214SOL    HW2 8929   0.721   4.315   3.807 -0.2456  1.3344 -0.2601
 2214SOL    HW3 8930   0.643   4.353   3.683 -0.6932  1.7886  0.1577
 2214SOL    MW4 8931   0.647   4.342   3.769 -0.7101  0.4621 -0.0019
 2215SOL     OW 8932   1.133   4.624   3.805  0.0707 -0.1011 -0.3622
 2215SOL    HW2 8933   1.138   4.614   3.900 -0.2880 -0.7648 -0.4130
 2215SOL    HW3 8934   1.202   4.687   3.784  0.6982 -0.5897  0.2418
 2215SOL    MW4 8935   1.143   4.631   3.815  0.1061 -0.2532 -0.2894
 2216SOL     OW 8936   0.899   0.104   3.789 -0.0425  0.3223 -0.4366
 2216SOL    HW2 8937   0.973   0.043   3.789 -0.0314  0.3320 -0.9375
 2216SOL    HW3 8938   0.829   0.057   3.832 -0.2335 -0.3013 -1.4067
 2216SOL    MW4 8939   0.900   0.090   3.794 -0.0662  0.2413 -0.6306
 2217SOL     OW 8940   0.909   0.387   3.851 -0.4983 -0.0477 -0.2198
 2217SOL    HW2 8941   0.932   0.418   3.939  1.6275 -0.3842 -0.6133
 2217SOL    HW3 8942   0.920   0.292   3.855 -1.9010 -0.2231 -0.4392
 2217SOL    MW4 8943   0.914   0.379   3.863 -0.4029 -0.1152 -0.3006
 2218SOL     OW 8944   3.347   2.217   4.243  0.3314  0.0160  0.0428
 2218SOL    HW2 8945   3.424   2.170   4.210 -0.0217 -0.4188 -0.1595
 2218SOL    HW3 8946   3.300   2.152   4.296 -1.8640 -0.8546 -2.8289
 2218SOL    MW4 8947   3.351   2.202   4.246 -0.0048 -0.1562 -0.3629
 2219SOL     OW 8948   1.177   0.728   3.893  0.2938 -0.2384  0.0261
 2219SOL    HW2 8949   1.252   0.777   3.859 -0.5922  0.7701 -0.5233
 2219SOL    HW3 8950   1.189   0.728   3.988  0.2408  1.1896  0.0499
 2219SOL    MW4 8951   1.188   0.735   3.901  0.1699  0.0830 -0.0432
 2220SOL     OW 8952   0.945   0.876   3.795  0.0332 -0.0061  0.1257
 2220SOL    HW2 8953   1.030   0.838   3.819 -0.6272 -1.5524  0.0110
 2220SOL    HW3 8954   0.941   0.867   3.700 -0.7319 -0.9441  0.2384
 2220SOL    MW4 8955   0.956   0.870   3.785 -0.1549 -0.3339  0.1256
 2221SOL     OW 8956   0.898   1.140   4.131  0.0732 -0.0632  0.1663
 2221SOL    HW2 8957   0.967   1.093   4.178 -0.2307 -1.5826 -0.8577
 2221SOL    HW3 8958   0.916   1.123   4.039 -0.8888  0.6548 -0.1606
 2221SOL    MW4 8959   0.910   1.132   4.125 -0.0939 -0.1689 -0.0114
 2222SOL     OW 8960   1.800   1.690   3.765 -0.2317 -0.6168 -0.0944
 2222SOL    HW2 8961   1.889   1.689   3.801  0.3471 -1.5324 -1.5145
 2222SOL    HW3 8962   1.813   1.690   3.670 -1.7499 -1.2623 -0.3082
 2222SOL    MW4 8963   1.814   1.690   3.757 -0.3555 -0.8228 -0.3102
 2223SOL     OW 8964   1.766   4.452   4.587  0.1144  0.0288 -0.1264
 2223SOL    HW2 8965   1.771   4.460   4.491  1.2120  0.5683 -0.0234
 2223SOL    HW3 8966   1.816   4.373   4.607  0.2035  0.1240  0.0324
 2223SOL    MW4 8967   1.773   4.443   4.577  0.2708  0.1125 -0.0925
 2224SOL     OW 8968   0.774   3.250   4.514 -0.2502 -0.1449  0.2715
 2224SOL    HW2 8969   0.810   3.253   4.426  0.1485  0.9267  0.4712
 2224SOL    HW3 8970   0.752   3.340   4.535 -0.5561 -0.4245  1.1849
 2224SOL    MW4 8971   0.776   3.262   4.506 -0.2381 -0.0405  0.4187
 2225SOL     OW 8972   4.073   1.844   4.121 -0.2642  0.0209 -0.2525
 2225SOL    HW2 8973   4.158   1.825   4.162 -0.0290  2.1567  0.2886
 2225SOL    HW3 8974   4.010   1.794   4.173  0.4571 -0.2320  0.3875
 2225SOL    MW4 8975   4.076   1.835   4.133 -0.1383  0.2694 -0.0968
 2226SOL     OW 8976   1.795   1.158   4.120 -0.0833  0.2032  0.3896
 2226SOL    HW2 8977   1.778   1.250   4.140 -0.7365  0.1847 -0.0498
 2226SOL    HW3 8978   1.792   1.153   4.025  2.0614  0.1127  0.2938
 2226SOL    MW4 8979   1.792   1.169   4.110  0.1135  0.1888  0.3190
 2227SOL     OW 8980   1.575   1.549   3.852  0.3976 -0.3343 -0.1396
 2227SOL    HW2 8981   1.654   1.597   3.828 -0.4767  1.4316  0.4578
 2227SOL    HW3 8982   1.503   1.604   3.822 -0.6475 -0.5037  1.9592
 2227SOL    MW4 8983   1.575   1.562   3.845  0.1442 -0.1237  0.2160
 2228SOL     OW 8984   2.274   1.617   3.804 -0.0208  0.3658 -0.1672
 2228SOL    HW2 8985   2.188   1.649   3.831 -0.2927 -0.0802 -0.5120
 2228SOL    HW3 8986   2.327   1.696   3.797 -0.6450  0.7331 -0.8334
 2228SOL    MW4 8987   2.270   1.632   3.807 -0.1392  0.3554 -0.3006
 2229SOL     OW 8988   0.673   3.067   3.920 -0.1497  0.0770 -0.3504
 2229SOL    HW2 8989   0.756   3.104   3.890 -0.0672 -0.6930 -1.1188
 2229SOL    HW3 8990   0.676   3.074   4.015  0.8995 -0.1544 -0.3584
 2229SOL    MW4 8991   0.684   3.073   3.928 -0.0004 -0.0551 -0.4528
 2230SOL     OW 8992   1.300   2.422   3.815 -0.2513  0.0754  0.3292
 2230SOL    HW2 8993   1.329   2.513   3.817 -0.7912  0.2827 -1.0293
 2230SOL    HW3 8994   1.369   2.374   3.860  0.8284  0.9293 -0.3902
 2230SOL    MW4 8995   1.313   2.428   3.821 -0.1801  0.2155  0.0551
 2231SOL     OW 8996   1.122   3.055   3.830  0.1066  0.1953 -0.0339
 2231SOL    HW2 8997   1.208   3.090   3.807  0.6337 -1.9616 -1.4907
 2231SOL    HW3 8998   1.118   2.970   3.786 -1.9994 -0.5953  1.5998
 2231SOL    MW4 8999   1.133   3.048   3.821 -0.1018 -0.1938 -0.0107
 2232SOL     OW 9000   0.894   3.203   3.810 -0.2502 -0.4985  0.4774
 2232SOL    HW2 9001   0.979   3.163   3.830  0.6717  0.7307 -0.8158
 2232SOL    HW3 9002   0.898   3.220   3.716 -2.5902 -1.8818  0.0964
 2232SOL    MW4 9003   0.906   3.200   3.800 -0.4373 -0.5188  0.2565
 2233SOL     OW 9004   0.887   3.486   3.880 -0.1416  0.0895 -0.4050
 2233SOL    HW2 9005   0.909   3.394   3.867  2.1582  0.5857 -0.1000
 2233SOL    HW3 9006   0.823   3.505   3.811 -0.5433 -1.6922 -0.5458
 2233SOL    MW4 9007   0.881   3.477   3.869  0.1088 -0.0806 -0.3834
 2234SOL     OW 9008   1.137   3.585   3.810 -0.2355  0.3323 -0.2621
 2234SOL    HW2 9009   1.141   3.677   3.836  2.2573  0.2962 -0.4035
 2234SOL    HW3 9010   1.074   3.546   3.870  1.0999  1.4822  1.9727
 2234SOL    MW4 9011   1.129   3.592   3.822  0.2695  0.4792  0.0143
 2235SOL     OW 9012   1.145   3.847   3.869 -0.1578 -0.5538 -0.0949
 2235SOL    HW2 9013   1.136   3.844   3.965 -0.0682 -1.7684 -0.1138
 2235SOL    HW3 9014   1.226   3.896   3.854 -0.6399  0.4247  0.4207
 2235SOL    MW4 9015   1.154   3.853   3.880 -0.2097 -0.5851 -0.0293
 2236SOL     OW 9016   0.915   3.984   3.807  0.0570 -0.2043  0.0432
 2236SOL    HW2 9017   0.998   3.937   3.818 -0.8246 -1.8580 -0.2014
 2236SOL    HW3 9018   0.901   3.985   3.712 -0.5453 -0.5398  0.1267
 2236SOL    MW4 9019   0.924   3.978   3.796 -0.1388 -0.4668  0.0219
 2237SOL     OW 9020   0.896   4.262   3.854  0.8356 -0.1678  0.2818
 2237SOL    HW2 9021   0.978   4.297   3.818 -0.5809  1.9966 -0.9522
 2237SOL    HW3 9022   0.905   4.167   3.845  2.8137  0.0707 -0.6945
 2237SOL    MW4 9023   0.908   4.254   3.849  0.9097  0.1493 -0.0098
 2238SOL     OW 9024   1.135   4.347   3.755  0.2971  0.1130  0.0375
 2238SOL    HW2 9025   1.147   4.333   3.661  0.1459  1.0770 -0.1314
 2238SOL    HW3 9026   1.131   4.442   3.765 -0.7554 -0.0062  0.8896
 2238SOL    MW4 9027   1.136   4.358   3.744  0.1384  0.2246  0.1278
 2239SOL     OW 9028   1.349   0.121   3.735  0.2920 -0.0161  0.3946
 2239SOL    HW2 9029   1.352   0.197   3.794  0.7799  0.9909 -0.8855
 2239SOL    HW3 9030   1.420   0.064   3.765  2.7393  2.0421 -1.2080
 2239SOL    MW4 9031   1.359   0.124   3.747  0.6793  0.3883  0.0143
 2240SOL     OW 9032   1.137   0.483   3.748 -0.2068  0.1165 -0.0536
 2240SOL    HW2 9033   1.149   0.565   3.796  1.1648 -1.0169  1.5760
 2240SOL    HW3 9034   1.050   0.452   3.774  0.0296  0.1230  0.7381
 2240SOL    MW4 9035   1.127   0.490   3.758  0.0054 -0.0322  0.2661
 2241SOL     OW 9036   1.577   0.518   3.722  0.1285 -0.0853  0.0769
 2241SOL    HW2 9037   1.582   0.603   3.765 -1.7288 -0.9809  2.1339
 2241SOL    HW3 9038   1.645   0.465   3.764  0.4404 -0.0140 -0.3296
 2241SOL    MW4 9039   1.586   0.522   3.733 -0.0756 -0.1941  0.2947
 2242SOL     OW 9040   1.769   0.377   3.860  0.0891  0.3103  0.4536
 2242SOL    HW2 9041   1.780   0.285   3.839  0.9811  0.3058  0.9398
 2242SOL    HW3 9042   1.855   0.416   3.845 -0.4624  1.2091 -0.4716
 2242SOL    MW4 9043   1.782   0.370   3.855  0.1340  0.4283  0.3955
 2243SOL     OW 9044   1.199   0.232   4.164  0.3791 -0.1481 -0.2235
 2243SOL    HW2 9045   1.134   0.302   4.171  0.1829 -0.3971  0.4500
 2243SOL    HW3 9046   1.281   0.278   4.146  0.0632  0.1797 -0.8723
 2243SOL    MW4 9047   1.201   0.247   4.162  0.3114 -0.1377 -0.2203
 2244SOL     OW 9048   1.373   0.887   3.773  0.0626  0.2475 -0.4984
 2244SOL    HW2 9049   1.447   0.845   3.817  0.0129  0.1835 -0.4760
 2244SOL    HW3 9050   1.360   0.970   3.820 -0.2049  0.0255 -0.1814
 2244SOL    MW4 9051   1.381   0.893   3.785  0.0209  0.2097 -0.4535
 2245SOL     OW 9052   1.577   0.998   4.244 -0.0197 -0.1509 -0.4362
 2245SOL    HW2 9053   1.653   1.047   4.213  0.2030  0.9543  1.7948
 2245SOL    HW3 9054   1.501   1.050   4.215  0.1064 -0.3721 -1.1801
 2245SOL    MW4 9055   1.577   1.011   4.236  0.0263 -0.0342 -0.2398
 2246SOL     OW 9056   1.367   1.159   3.878 -0.2744 -0.1853 -0.1945
 2246SOL    HW2 9057   1.318   1.235   3.845  0.9096  1.4992  1.8065
 2246SOL    HW3 9058   1.349   1.157   3.972  0.9563 -1.4581  0.0355
 2246SOL    MW4 9059   1.358   1.169   3.886  0.0442 -0.1310  0.0999
 2247SOL     OW 9060   2.122   2.387   4.578 -0.6168  0.6804 -0.0310
 2247SOL    HW2 9061   2.114   2.316   4.643 -1.3815  1.0469  0.2843
 2247SOL    HW3 9062   2.138   2.342   4.495  0.3074  0.1999  0.3948
 2247SOL    MW4 9063   2.123   2.372   4.576 -0.5956  0.6654  0.0668
 2248SOL     OW 9064   1.730   1.922   4.107  0.0646 -0.0653 -0.3521
 2248SOL    HW2 9065   1.795   1.945   4.173 -1.1346  1.2030  0.4221
 2248SOL    HW3 9066   1.667   1.867   4.153 -1.3810  1.7378 -0.1118
 2248SOL    MW4 9067   1.730   1.918   4.121 -0.2844  0.3400 -0.2189
 2249SOL     OW 9068   0.464   1.362   4.491 -0.0405 -0.1706  0.3476
 2249SOL    HW2 9069   0.375   1.393   4.505  0.1115  0.2326  0.4243
 2249SOL    HW3 9070   0.477   1.367   4.396 -0.3978 -1.0503  0.2518
 2249SOL    MW4 9071   0.454   1.367   4.480 -0.0676 -0.2334  0.3448
 2250SOL     OW 9072   1.968   4.180   4.572 -0.0178  0.0679 -0.1751
 2250SOL    HW2 9073   1.979   4.163   4.479 -0.1500  0.7515 -0.3185
 2250SOL    HW3 9074   1.877   4.157   4.591 -0.3431  1.0748 -0.4746
 2250SOL    MW4 9075   1.958   4.175   4.562 -0.0782  0.2909 -0.2337
 2251SOL     OW 9076   2.634   1.668   4.151 -0.2466  0.1086  0.4252
 2251SOL    HW2 9077   2.728   1.676   4.139 -0.4295  1.0345 -0.5129
 2251SOL    HW3 9078   2.609   1.748   4.197 -0.9140  1.0826 -1.5490
 2251SOL    MW4 9079   2.643   1.680   4.155 -0.3588  0.3592  0.0415
 2252SOL     OW 9080   3.734   3.865   4.879  0.3787 -0.1376 -0.3566
 2252SOL    HW2 9081   3.777   3.922   4.943 -0.1262  0.1246 -0.2543
 2252SOL    HW3 9082   3.645   3.899   4.871  0.6032  0.1731 -1.6245
 2252SOL    MW4 9083   3.728   3.877   4.887  0.3419 -0.0622 -0.5102
 2253SOL     OW 9084   0.065   3.501   4.136 -0.1460 -0.0726 -0.1576
 2253SOL    HW2 9085   0.095   3.591   4.142 -1.4197  0.2595  1.4799
 2253SOL    HW3 9086   0.040   3.491   4.044 -0.0791  1.2626 -0.3308
 2253SOL    MW4 9087   0.066   3.511   4.124 -0.3052  0.1473  0.0353
 2254SOL     OW 9088   1.642   3.868   4.590  0.4642 -0.5557 -0.0038
 2254SOL    HW2 9089   1.712   3.825   4.541  0.6230  0.5678 -0.7861
 2254SOL    HW3 9090   1.563   3.820   4.565  0.4476  0.3967 -1.8777
 2254SOL    MW4 9091   1.641   3.856   4.580  0.4829 -0.2818 -0.3538
 2255SOL     OW 9092   1.151   1.593   3.908  0.1193  0.3286  0.4924
 2255SOL    HW2 9093   1.133   1.611   4.001 -0.7767  0.9884  0.1928
 2255SOL    HW3 9094   1.087   1.646   3.860  0.5432 -0.0526 -0.5070
 2255SOL    MW4 9095   1.140   1.603   3.914  0.0571  0.3655  0.3211
 2256SOL     OW 9096   1.368   3.184   3.781 -0.1918 -0.1951 -0.4430
 2256SOL    HW2 9097   1.367   3.267   3.829  1.6400  0.5833 -1.6830
 2256SOL    HW3 9098   1.426   3.128   3.833  0.9588  0.3036 -1.1737
 2256SOL    MW4 9099   1.376   3.188   3.794  0.2017 -0.0265 -0.7029
 2257SOL     OW 9100   1.380   3.441   3.876 -0.4843  0.2691  0.4655
 2257SOL    HW2 9101   1.305   3.485   3.835 -1.2709  0.8194  2.4535
 2257SOL    HW3 9102   1.456   3.491   3.845 -0.9359 -0.0640 -1.2718
 2257SOL    MW4 9103   1.380   3.454   3.866 -0.6475  0.2975  0.4985
 2258SOL     OW 9104   2.202   3.484   4.154 -0.1238  0.7500  0.4110
 2258SOL    HW2 9105   2.202   3.574   4.185 -1.9645  0.9581 -0.1423
 2258SOL    HW3 9106   2.131   3.442   4.203  0.0115 -0.1135 -0.1279
 2258SOL    MW4 9107   2.192   3.490   4.164 -0.3488  0.6638  0.2670
 2259SOL     OW 9108   1.617   3.836   3.948 -0.4443 -0.0048 -0.4044
 2259SOL    HW2 9109   1.624   3.865   4.039  1.1899  0.7063 -0.7389
 2259SOL    HW3 9110   1.538   3.879   3.915  0.5476  2.0602 -0.1544
 2259SOL    MW4 9111   1.607   3.845   3.955 -0.0978  0.3617 -0.4156
 2260SOL     OW 9112   1.394   3.940   3.818 -0.3100  0.0490 -0.4114
 2260SOL    HW2 9113   1.409   4.030   3.845 -0.3596  0.2833 -1.1504
 2260SOL    HW3 9114   1.399   3.942   3.722 -0.8168 -0.6350 -0.4613
 2260SOL    MW4 9115   1.396   3.952   3.809 -0.3834 -0.0103 -0.5155
 2261SOL     OW 9116   1.392   4.204   3.841 -0.0182 -0.0406  0.4635
 2261SOL    HW2 9117   1.309   4.243   3.814 -0.0377 -0.0693  0.4834
 2261SOL    HW3 9118   1.458   4.266   3.809 -0.0589  0.1186  0.6862
 2261SOL    MW4 9119   1.390   4.217   3.833 -0.0261 -0.0234  0.4957
 2262SOL     OW 9120   1.565   4.399   3.765  0.3358  0.0177 -0.2594
 2262SOL    HW2 9121   1.564   4.398   3.669 -1.0956  0.5781 -0.2594
 2262SOL    HW3 9122   1.641   4.346   3.788  1.4124  0.8595 -1.7166
 2262SOL    MW4 9123   1.575   4.392   3.755  0.2888  0.2027 -0.4518
 2263SOL     OW 9124   2.011   4.640   4.155 -0.0685 -0.0312  0.1922
 2263SOL    HW2 9125   2.016   4.627   4.061 -0.2457  2.0421 -0.1334
 2263SOL    HW3 9126   2.070   4.575   4.192  1.2019  0.1659 -1.4462
 2263SOL    MW4 9127   2.019   4.630   4.148  0.0758  0.2685 -0.0668
 2264SOL     OW 9128   1.798   0.102   3.782  0.4754 -0.4140 -0.3333
 2264SOL    HW2 9129   1.870   0.057   3.826  1.1390  1.0646  0.1043
 2264SOL    HW3 9130   1.719   0.065   3.823  1.0709  0.7910  2.0367
 2264SOL    MW4 9131   1.797   0.091   3.793  0.6415 -0.0600  0.0370
 2265SOL     OW 9132   1.987   0.211   4.603  0.3679 -0.2986 -0.0551
 2265SOL    HW2 9133   1.923   0.281   4.617 -0.9199 -1.4321 -0.2093
 2265SOL    HW3 9134   2.007   0.215   4.509  1.0250  0.4673  0.1080
 2265SOL    MW4 9135   1.981   0.221   4.592  0.2847 -0.3471 -0.0544
 2266SOL     OW 9136   2.280   0.379   3.881 -0.2631  0.2103 -0.5046
 2266SOL    HW2 9137   2.275   0.294   3.837  0.9758  1.7812 -3.9134
 2266SOL    HW3 9138   2.201   0.426   3.852 -0.5642  0.5079  0.7573
 2266SOL    MW4 9139   2.269   0.374   3.871 -0.1395  0.4569 -0.7880
 2267SOL     OW 9140   2.052   0.776   3.847 -0.0473 -0.7611 -0.0579
 2267SOL    HW2 9141   1.973   0.813   3.808  0.0635 -0.3374  0.1176
 2267SOL    HW3 9142   2.034   0.775   3.941  0.4218 -0.0245  0.0429
 2267SOL    MW4 9143   2.039   0.781   3.855  0.0291 -0.6080 -0.0215
 2268SOL     OW 9144   1.797   0.851   3.763  0.3472 -0.1676 -0.2827
 2268SOL    HW2 9145   1.804   0.939   3.801  0.5180 -0.9814  1.6315
 2268SOL    HW3 9146   1.789   0.866   3.669  0.3385  1.9003  0.0246
 2268SOL    MW4 9147   1.797   0.865   3.755  0.3686 -0.0021  0.0107
 2269SOL     OW 9148   1.877   1.672   4.141  0.2491 -0.1126 -0.4560
 2269SOL    HW2 9149   1.814   1.743   4.129 -1.2437 -1.4938 -0.9812
 2269SOL    HW3 9150   1.925   1.695   4.220 -1.1853  0.7695  0.1725
 2269SOL    MW4 9151   1.875   1.684   4.150 -0.1371 -0.1785 -0.4420
 2270SOL     OW 9152   2.246   2.106   3.789 -0.3324 -0.1689 -0.0930
 2270SOL    HW2 9153   2.168   2.117   3.735 -0.7635  0.7741  0.7266
 2270SOL    HW3 9154   2.213   2.087   3.876  0.3681 -1.5871 -0.1086
 2270SOL    MW4 9155   2.232   2.105   3.793 -0.2968 -0.2315  0.0131
 2271SOL     OW 9156   1.296   2.779   4.143 -0.2475  0.1693 -0.6356
 2271SOL    HW2 9157   1.249   2.722   4.204  0.9476 -2.0359 -1.6857
 2271SOL    HW3 9158   1.382   2.792   4.184 -0.2106  0.4671 -0.8124
 2271SOL    MW4 9159   1.301   2.773   4.157 -0.0849 -0.0823 -0.7973
 2272SOL     OW 9160   1.802   1.655   3.483 -0.2893 -0.1318 -0.3736
 2272SOL    HW2 9161   1.780   1.745   3.461 -1.4625 -0.1698  0.6118
 2272SOL    HW3 9162   1.725   1.604   3.460  0.0342 -0.7562 -0.0957
 2272SOL    MW4 9163   1.789   1.660   3.477 -0.4014 -0.2192 -0.2069
 2273SOL     OW 9164   3.650   2.901   4.289 -0.5403 -0.0817  0.0466
 2273SOL    HW2 9165   3.578   2.963   4.303 -0.3483  0.3016 -0.6366
 2273SOL    HW3 9166   3.609   2.826   4.247 -0.6500 -0.1178  0.2173
 2273SOL    MW4 9167   3.635   2.900   4.286 -0.5295 -0.0360 -0.0210
 2274SOL     OW 9168   0.922   1.966   3.970 -0.1242 -0.0148  0.1803
 2274SOL    HW2 9169   0.938   1.882   3.927 -0.8764 -0.0306 -0.0750
 2274SOL    HW3 9170   0.992   2.023   3.939 -0.8684  0.0767 -1.3316
 2274SOL    MW4 9171   0.933   1.962   3.960 -0.3216 -0.0049 -0.0527
 2275SOL     OW 9172   4.238   4.258   4.543 -0.0493 -0.4141  0.0388
 2275SOL    HW2 9173   4.328   4.292   4.539 -0.1806 -0.1672 -0.7142
 2275SOL    HW3 9174   4.243   4.189   4.610  0.3178  0.7429  1.2458
 2275SOL    MW4 9175   4.251   4.253   4.552 -0.0176 -0.2289  0.0987
 2276SOL     OW 9176   1.789   1.958   3.828  0.3673 -0.3002  0.0854
 2276SOL    HW2 9177   1.785   1.943   3.923 -1.1484  0.9436  0.2388
 2276SOL    HW3 9178   1.789   1.870   3.790 -0.7979 -0.7923  1.1898
 2276SOL    MW4 9179   1.788   1.945   3.836  0.0136 -0.2009  0.2513
 2277SOL     OW 9180   4.232   2.863   4.268 -0.5444 -0.1978 -0.1470
 2277SOL    HW2 9181   4.316   2.908   4.279 -0.7551  0.2781 -0.4976
 2277SOL    HW3 9182   4.200   2.850   4.358 -0.4500  0.2785 -0.0458
 2277SOL    MW4 9183   4.239   2.867   4.282 -0.5593 -0.0720 -0.1802
 2278SOL     OW 9184   1.401   3.683   4.523  0.1503 -0.2274 -0.0855
 2278SOL    HW2 9185   1.362   3.694   4.437  1.8058 -1.1493 -0.9877
 2278SOL    HW3 9186   1.410   3.589   4.534  1.2782 -0.0735  0.4589
 2278SOL    MW4 9187   1.397   3.672   4.513  0.5175 -0.3288 -0.1326
 2279SOL     OW 9188   1.167   3.708   4.677 -0.0449 -0.4900  0.0725
 2279SOL    HW2 9189   1.251   3.708   4.633  0.1635  0.5399  0.4559
 2279SOL    HW3 9190   1.141   3.801   4.680 -0.4753 -0.6405  1.2968
 2279SOL    MW4 9191   1.174   3.720   4.671 -0.0741 -0.3741  0.2851
 2280SOL     OW 9192   1.777   3.209   3.831  0.1053  0.4626  1.0543
 2280SOL    HW2 9193   1.799   3.296   3.865  1.0127  0.9564 -0.7154
 2280SOL    HW3 9194   1.852   3.154   3.853  1.6109  1.2625 -1.7699
 2280SOL    MW4 9195   1.790   3.213   3.838  0.4238  0.6335  0.4482
 2281SOL     OW 9196   1.583   3.604   3.807  0.2903  0.3674 -0.4282
 2281SOL    HW2 9197   1.662   3.561   3.841 -0.2823 -0.5472 -0.2385
 2281SOL    HW3 9198   1.568   3.676   3.868  1.0092  0.5824 -0.4944
 2281SOL    MW4 9199   1.592   3.608   3.820  0.3097  0.2751 -0.4117
 2282SOL     OW 9200   1.993   3.641   3.792  0.4414 -0.1697 -0.3773
 2282SOL    HW2 9201   2.067   3.589   3.823 -1.3903 -2.3600  0.4523
 2282SOL    HW3 9202   1.993   3.630   3.697  0.4737 -1.1308 -0.2670
 2282SOL    MW4 9203   2.003   3.633   3.784  0.2041 -0.5853 -0.2532
 2283SOL     OW 9204   2.046   3.888   3.935  0.0126  0.4241 -0.1471
 2283SOL    HW2 9205   2.131   3.914   3.900 -0.8042  1.9596 -1.0557
 2283SOL    HW3 9206   2.025   3.806   3.889  1.3722 -0.4091  0.7068
 2283SOL    MW4 9207   2.055   3.880   3.924  0.0842  0.5167 -0.1545
 2284SOL     OW 9208   1.822   3.984   3.810 -0.1336 -0.1918  0.3756
 2284SOL    HW2 9209   1.907   3.972   3.853  0.2879 -1.7104 -0.8046
 2284SOL    HW3 9210   1.763   3.924   3.856 -0.8725  1.6611  1.9174
 2284SOL    MW4 9211   1.825   3.974   3.822 -0.1754 -0.1476  0.4234
 2285SOL     OW 9212   1.770   4.248   3.864 -0.3956 -0.0050  0.8727
 2285SOL    HW2 9213   1.777   4.157   3.835 -0.8625 -0.2974  1.6381
 2285SOL    HW3 9214   1.853   4.287   3.840 -0.4875 -0.4296 -0.1635
 2285SOL    MW4 9215   1.782   4.241   3.857 -0.4694 -0.1001  0.8366
 2286SOL     OW 9216   2.006   4.369   3.758 -0.0670 -0.0988  0.0022
 2286SOL    HW2 9217   2.090   4.327   3.772 -0.0834 -0.4661 -0.9327
 2286SOL    HW3 9218   1.991   4.362   3.663 -0.1527  1.8576 -0.1544
 2286SOL    MW4 9219   2.015   4.363   3.747 -0.0806  0.1111 -0.1416
 2287SOL     OW 9220   2.468   4.643   3.886  0.8211 -0.0840  0.0535
 2287SOL    HW2 9221   2.463   4.620   3.979 -0.5047  0.7355  0.2100
 2287SOL    HW3 9222   2.558   4.671   3.872  0.6925  1.0782  1.4329
 2287SOL    MW4 9223   2.479   4.644   3.896  0.6289  0.1769  0.2563
 2288SOL     OW 9224   2.244   0.111   3.770 -0.6083  0.3344 -0.0838
 2288SOL    HW2 9225   2.312   0.052   3.803 -0.0516  1.7996  1.4345
 2288SOL    HW3 9226   2.240   0.092   3.677  1.2888 -0.3771 -0.0534
 2288SOL    MW4 9227   2.253   0.101   3.762 -0.2844  0.4338  0.1206
 2289SOL     OW 9228   2.031   0.497   3.798 -0.0234  0.4320 -0.3018
 2289SOL    HW2 9229   2.052   0.487   3.705 -0.3781 -0.0005 -0.3420
 2289SOL    HW3 9230   2.022   0.591   3.811 -2.2384  0.4001 -1.2423
 2289SOL    MW4 9231   2.032   0.508   3.787 -0.3622  0.3707 -0.4315
 2290SOL     OW 9232   2.291   0.870   3.784  0.4255  0.0596 -0.1526
 2290SOL    HW2 9233   2.202   0.837   3.793  0.8771 -1.0177  0.4534
 2290SOL    HW3 9234   2.311   0.859   3.691  0.4443 -1.0804 -0.0245
 2290SOL    MW4 9235   2.282   0.864   3.773  0.4873 -0.2329 -0.0558
 2291SOL     OW 9236   0.221   3.746   4.165  0.3958  0.6404 -0.6281
 2291SOL    HW2 9237   0.178   3.821   4.207  0.1957 -0.2536  0.7971
 2291SOL    HW3 9238   0.309   3.745   4.203 -0.0707 -0.6994  0.4415
 2291SOL    MW4 9239   0.227   3.756   4.176  0.3079  0.3459 -0.2985
 2292SOL     OW 9240   2.012   1.262   3.807 -0.2597  0.3256  0.1741
 2292SOL    HW2 9241   2.007   1.341   3.862  0.8146  1.9533 -2.0039
 2292SOL    HW3 9242   2.099   1.227   3.824  0.0381  0.7774 -0.4088
 2292SOL    MW4 9243   2.023   1.268   3.817 -0.0784  0.6000 -0.1900
 2293SOL     OW 9244   0.884   1.916   4.262  0.3042  0.0290 -0.0154
 2293SOL    HW2 9245   0.963   1.862   4.268  0.3609  0.3090  1.8967
 2293SOL    HW3 9246   0.873   1.930   4.168  3.2432  1.0397 -0.2801
 2293SOL    MW4 9247   0.893   1.911   4.250  0.6995  0.1993  0.2022
 2294SOL     OW 9248   2.719   0.888   3.769  0.1282  0.4825  0.0401
 2294SOL    HW2 9249   2.713   0.979   3.799 -0.4129  0.5003 -0.1154
 2294SOL    HW3 9250   2.640   0.846   3.803  0.7066 -0.0992  0.6751
 2294SOL    MW4 9251   2.708   0.895   3.777  0.1333  0.4081  0.1032
 2295SOL     OW 9252   1.979   2.120   3.711  0.4210 -0.1724  0.2929
 2295SOL    HW2 9253   1.915   2.069   3.760  0.2036  0.7458  0.9879
 2295SOL    HW3 9254   1.959   2.211   3.733 -0.4478  0.3433 -2.4258
 2295SOL    MW4 9255   1.968   2.125   3.720  0.2778  0.0169  0.0257
 2296SOL     OW 9256   2.014   2.821   3.800  0.0753 -0.0448 -0.3347
 2296SOL    HW2 9257   1.943   2.774   3.844 -0.4539  0.8661 -0.2025
 2296SOL    HW3 9258   2.093   2.772   3.824 -0.6008 -1.6422 -1.2751
 2296SOL    MW4 9259   2.015   2.808   3.809 -0.0839 -0.1354 -0.4413
 2297SOL     OW 9260   2.904   1.574   3.865  0.2028 -0.3866  0.3233
 2297SOL    HW2 9261   2.896   1.597   3.958 -0.2645 -2.5320  0.8375
 2297SOL    HW3 9262   2.823   1.606   3.826  0.6235  0.9815  0.5381
 2297SOL    MW4 9263   2.892   1.581   3.872  0.1967 -0.4891  0.4194
 2298SOL     OW 9264   2.407   1.866   3.779 -0.0077 -0.3695 -0.1288
 2298SOL    HW2 9265   2.425   1.884   3.871 -0.4147 -0.0320 -0.1141
 2298SOL    HW3 9266   2.334   1.924   3.757 -0.0792 -0.6348 -0.5949
 2298SOL    MW4 9267   2.400   1.876   3.788 -0.0708 -0.3600 -0.1884
 2299SOL     OW 9268   1.950   2.654   4.388  0.3584 -0.2672  0.8212
 2299SOL    HW2 9269   1.880   2.589   4.396  0.1013 -0.5857 -3.0570
 2299SOL    HW3 9270   2.014   2.613   4.330  1.7959  1.6443  1.0157
 2299SOL    MW4 9271   1.949   2.640   4.381  0.5141 -0.0572  0.3352
 2300SOL     OW 9272   2.219   3.200   3.805  0.1010 -0.1496 -0.2841
 2300SOL    HW2 9273   2.218   3.288   3.843 -1.5202  0.2517 -1.1989
 2300SOL    HW3 9274   2.153   3.152   3.856  1.3510 -0.9990  0.5573
 2300SOL    MW4 9275   2.210   3.205   3.817  0.0520 -0.2089 -0.2940
 2301SOL     OW 9276   1.477   2.344   4.419 -0.6312  0.3260 -0.4349
 2301SOL    HW2 9277   1.448   2.309   4.334 -2.4169 -0.4982  0.4845
 2301SOL    HW3 9278   1.405   2.402   4.446 -0.3754  0.0530  0.8298
 2301SOL    MW4 9279   1.464   2.347   4.411 -0.8332  0.1812 -0.1469
 2302SOL     OW 9280   0.587   4.365   4.752  0.4356  0.4278  0.0159
 2302SOL    HW2 9281   0.499   4.334   4.773  0.5965 -1.1851 -1.5837
 2302SOL    HW3 9282   0.583   4.389   4.660  1.6300  0.4863 -0.0280
 2302SOL    MW4 9283   0.575   4.364   4.743  0.6144  0.2227 -0.2007
 2303SOL     OW 9284   1.788   2.562   4.690  0.4468 -0.0794  0.6073
 2303SOL    HW2 9285   1.870   2.586   4.733  1.0298  1.7019 -1.4237
 2303SOL    HW3 9286   1.760   2.642   4.645 -0.8385 -1.5062 -1.2034
 2303SOL    MW4 9287   1.795   2.576   4.690  0.3542 -0.0324  0.1006
 2304SOL     OW 9288   1.354   2.689   3.872 -0.4023 -0.0499 -0.2211
 2304SOL    HW2 9289   1.434   2.742   3.863 -0.4176 -0.1435 -0.9263
 2304SOL    HW3 9290   1.317   2.716   3.956 -0.6259  1.3641 -0.7554
 2304SOL    MW4 9291   1.360   2.699   3.882 -0.4339  0.1242 -0.3846
 2305SOL     OW 9292   2.442   3.042   3.849  0.1004 -0.4335  0.5977
 2305SOL    HW2 9293   2.527   3.087   3.848 -0.1608  0.0538  0.0766
 2305SOL    HW3 9294   2.378   3.111   3.833 -0.2123 -1.1960 -1.7280
 2305SOL    MW4 9295   2.445   3.057   3.847  0.0248 -0.4699  0.2222
 2306SOL     OW 9296   2.431   3.610   3.769  0.0059 -0.1485 -0.1154
 2306SOL    HW2 9297   2.502   3.561   3.810 -0.3815 -1.0876 -0.5650
 2306SOL    HW3 9298   2.439   3.593   3.675 -0.1066  0.6830 -0.2865
 2306SOL    MW4 9299   2.441   3.601   3.762 -0.0601 -0.1628 -0.1974
 2307SOL     OW 9300   2.513   3.868   3.851 -0.0391 -0.5246 -0.3904
 2307SOL    HW2 9301   2.568   3.914   3.788 -2.0669 -0.6675 -2.3263
 2307SOL    HW3 9302   2.495   3.783   3.811 -0.5749 -0.9900  0.8113
 2307SOL    MW4 9303   2.518   3.863   3.838 -0.3772 -0.6049 -0.4873
 2308SOL     OW 9304   2.266   3.991   3.800  0.1554 -0.3918  0.0865
 2308SOL    HW2 9305   2.345   3.942   3.821  0.4403  0.0513  0.0460
 2308SOL    HW3 9306   2.253   3.977   3.706  0.6260  0.1793 -0.0640
 2308SOL    MW4 9307   2.275   3.983   3.790  0.2551 -0.2580  0.0613
 2309SOL     OW 9308   2.231   4.251   3.890 -0.0893  0.4064 -0.2308
 2309SOL    HW2 9309   2.232   4.253   3.986 -0.2651  1.8526 -0.2474
 2309SOL    HW3 9310   2.247   4.159   3.868 -1.2926 -0.1596  1.1964
 2309SOL    MW4 9311   2.233   4.239   3.900 -0.2713  0.5226 -0.0448
 2310SOL     OW 9312   2.476   4.379   3.814  0.2700  0.1865  0.1986
 2310SOL    HW2 9313   2.400   4.336   3.854  0.9939 -0.4850  0.8441
 2310SOL    HW3 9314   2.463   4.472   3.833 -0.3129  0.0604  0.4298
 2310SOL    MW4 9315   2.464   4.386   3.821  0.2887  0.0811  0.3140
 2311SOL     OW 9316   2.985   4.624   3.916  0.6794  0.2439  0.6704
 2311SOL    HW2 9317   3.053   4.688   3.894  0.6364  0.5619  1.4382
 2311SOL    HW3 9318   2.974   4.634   4.011 -1.9106  1.6371  0.2509
 2311SOL    MW4 9319   2.993   4.634   3.926  0.3319  0.4697  0.7164
 2312SOL     OW 9320   2.739   0.048   3.819  0.0654 -0.6285  0.0449
 2312SOL    HW2 9321   2.815   0.008   3.859  0.7957  1.4609  0.8204
 2312SOL    HW3 9322   2.762   0.056   3.726  0.9541  0.3000  0.3316
 2312SOL    MW4 9323   2.752   0.044   3.812  0.2789 -0.2304  0.1850
 2313SOL     OW 9324   3.740   0.829   4.661  0.1472 -0.2856 -0.0912
 2313SOL    HW2 9325   3.726   0.844   4.754  0.1094 -0.0993 -0.1279
 2313SOL    HW3 9326   3.742   0.916   4.622 -1.8934 -0.4319 -0.5652
 2313SOL    MW4 9327   3.738   0.842   4.668 -0.1271 -0.2804 -0.1583
 2314SOL     OW 9328   2.922   0.740   3.874 -0.6317  0.0877  0.6508
 2314SOL    HW2 9329   2.849   0.786   3.834 -0.6263  0.0525  0.6007
 2314SOL    HW3 9330   3.001   0.780   3.836 -0.6303 -0.1524  0.3963
 2314SOL    MW4 9331   2.923   0.751   3.864 -0.6306  0.0514  0.6106
 2315SOL     OW 9332   2.750   0.869   3.482 -0.0568  0.2646  0.5550
 2315SOL    HW2 9333   2.761   0.857   3.577 -0.0862 -0.8557  0.4253
 2315SOL    HW3 9334   2.831   0.835   3.444 -0.7737 -0.9523  0.0751
 2315SOL    MW4 9335   2.762   0.863   3.490 -0.1552 -0.0437  0.4747
 2316SOL     OW 9336   3.297   4.528   4.489 -0.1520 -0.6646  0.3858
 2316SOL    HW2 9337   3.282   4.619   4.515  1.4362  0.1638 -1.4661
 2316SOL    HW3 9338   3.233   4.512   4.419  0.9981 -0.2470 -0.7866
 2316SOL    MW4 9339   3.286   4.538   4.483  0.2093 -0.5007 -0.0129
 2317SOL     OW 9340   2.419   4.354   4.636  0.4097  0.3955 -0.6742
 2317SOL    HW2 9341   2.331   4.386   4.613  0.3338  0.8049  0.1550
 2317SOL    HW3 9342   2.412   4.259   4.630  0.2962  0.4803 -1.9783
 2317SOL    MW4 9343   2.406   4.346   4.632  0.3846  0.4616 -0.7367
 2318SOL     OW 9344   2.943   1.318   3.773  0.1708 -0.0578  0.0619
 2318SOL    HW2 9345   2.873   1.272   3.819 -0.0427 -0.0413 -0.2468
 2318SOL    HW3 9346   2.948   1.404   3.815 -1.8238  0.9490 -1.7010
 2318SOL    MW4 9347   2.935   1.323   3.785 -0.1206  0.0772 -0.2112
 2319SOL     OW 9348   3.187   1.917   3.896 -0.5923 -0.0115  0.0621
 2319SOL    HW2 9349   3.185   1.836   3.845 -2.6041  1.2567 -1.9616
 2319SOL    HW3 9350   3.257   1.968   3.857 -0.0925 -0.3013  0.5798
 2319SOL    MW4 9351   3.196   1.913   3.884 -0.7918  0.1177 -0.1366
 2320SOL     OW 9352   2.422   3.371   4.488 -0.3005 -0.1555  0.0880
 2320SOL    HW2 9353   2.333   3.337   4.497 -0.1673 -1.0454 -1.7497
 2320SOL    HW3 9354   2.437   3.374   4.394  2.2297 -1.6601  0.4043
 2320SOL    MW4 9355   2.412   3.367   4.477  0.0510 -0.4714 -0.1125
 2321SOL     OW 9356   2.497   2.932   4.468  0.5112 -0.4991  0.2068
 2321SOL    HW2 9357   2.536   3.016   4.493 -1.2847  0.6749 -0.8826
 2321SOL    HW3 9358   2.403   2.945   4.476  0.2488 -2.7171  0.9464
 2321SOL    MW4 9359   2.490   2.945   4.472  0.2396 -0.6371  0.1607
 2322SOL     OW 9360   3.151   2.450   3.832  0.2326  0.5895  0.4519
 2322SOL    HW2 9361   3.152   2.446   3.737  1.2282  1.8835  0.3942
 2322SOL    HW3 9362   3.164   2.543   3.853 -1.0952  0.4937  1.8386
 2322SOL    MW4 9363   3.153   2.462   3.822  0.1886  0.7477  0.6270
 2323SOL     OW 9364   0.724   0.020   4.365 -0.3043  0.4665 -0.2543
 2323SOL    HW2 9365   0.756   0.035   4.454 -0.9438  0.0255  0.0530
 2323SOL    HW3 9366   0.731   0.105   4.322  1.0915  0.4152 -0.1305
 2323SOL    MW4 9367   0.729   0.033   4.371 -0.2046  0.4015 -0.1974
 2324SOL     OW 9368   2.661   1.675   3.763 -0.3822  0.1648 -0.5038
 2324SOL    HW2 9369   2.604   1.626   3.823  1.3341 -0.8587  0.3159
 2324SOL    HW3 9370   2.662   1.764   3.799  0.5159 -0.4050  0.9429
 2324SOL    MW4 9371   2.653   1.681   3.776 -0.0372 -0.0455 -0.2050
 2325SOL     OW 9372   3.523   0.374   4.164  0.2454  0.0730 -0.2735
 2325SOL    HW2 9373   3.451   0.315   4.185  2.0248 -2.5729 -1.4250
 2325SOL    HW3 9374   3.539   0.361   4.071  1.5672  1.3553 -0.2429
 2325SOL    MW4 9375   3.515   0.365   4.155  0.6545 -0.1069 -0.4215
 2326SOL     OW 9376   2.905   2.805   3.790  0.4336  0.4896  0.1116
 2326SOL    HW2 9377   2.984   2.759   3.818  0.2022 -0.0824 -0.1632
 2326SOL    HW3 9378   2.833   2.751   3.823  0.1295  1.7806  1.6565
 2326SOL    MW4 9379   2.905   2.792   3.798  0.3629  0.5841  0.2794
 2327SOL     OW 9380   4.263   3.866   4.222  0.0320 -0.2433  0.0581
 2327SOL    HW2 9381   4.239   3.956   4.242 -1.0255 -0.2752 -0.9850
 2327SOL    HW3 9382   4.256   3.860   4.126  3.6120 -0.4386 -0.2421
 2327SOL    MW4 9383   4.259   3.877   4.212  0.3648 -0.2732 -0.1187
 2328SOL     OW 9384   2.687   3.176   3.820 -0.1761 -0.5826 -0.1835
 2328SOL    HW2 9385   2.679   3.269   3.843 -1.5633 -1.0523  1.3317
 2328SOL    HW3 9386   2.757   3.143   3.877 -0.0040 -0.5712 -0.3882
 2328SOL    MW4 9387   2.695   3.184   3.831 -0.3364 -0.6430 -0.0105
 2329SOL     OW 9388   2.675   3.462   3.851 -0.1357  0.3711 -0.3203
 2329SOL    HW2 9389   2.700   3.461   3.943  0.2724 -0.8635 -0.4276
 2329SOL    HW3 9390   2.745   3.511   3.808 -0.5519  1.3243  0.0801
 2329SOL    MW4 9391   2.688   3.468   3.857 -0.1366  0.3340 -0.2813
 2330SOL     OW 9392   2.900   3.592   3.757  0.2511  0.5816  0.2138
 2330SOL    HW2 9393   2.974   3.537   3.784 -0.1994  0.3678  1.0182
 2330SOL    HW3 9394   2.910   3.601   3.662  0.5711 -0.5436  0.1360
 2330SOL    MW4 9395   2.911   3.586   3.748  0.2339  0.4051  0.3095
 2331SOL     OW 9396   2.928   3.861   3.842 -0.0408 -0.3653 -0.3800
 2331SOL    HW2 9397   2.922   3.858   3.937 -0.1328 -0.0589 -0.3750
 2331SOL    HW3 9398   2.918   3.770   3.814  1.3327 -0.6386 -0.0200
 2331SOL    MW4 9399   2.926   3.849   3.851  0.1285 -0.3612 -0.3319
 2332SOL     OW 9400   2.706   3.979   3.694 -0.1574 -0.1005  0.0621
 2332SOL    HW2 9401   2.676   4.060   3.733 -0.2419  0.3815 -0.9815
 2332SOL    HW3 9402   2.780   3.952   3.749 -0.7748  0.1263  1.0205
 2332SOL    MW4 9403   2.712   3.986   3.706 -0.2501 -0.0069  0.0505
 2333SOL     OW 9404   2.697   4.214   3.820  0.0877 -0.2842 -0.2575
 2333SOL    HW2 9405   2.779   4.263   3.816  0.1017 -0.3613 -1.1083
 2333SOL    HW3 9406   2.628   4.281   3.814  0.0965 -0.2805 -0.3148
 2333SOL    MW4 9407   2.698   4.229   3.819  0.0906 -0.2942 -0.3772
 2334SOL     OW 9408   2.945   4.358   3.791  0.2876  0.3037  0.5780
 2334SOL    HW2 9409   3.017   4.297   3.807  0.3376  0.2165  0.0248
 2334SOL    HW3 9410   2.964   4.434   3.846  0.5113  0.0512  0.8491
 2334SOL    MW4 9411   2.957   4.360   3.801  0.3235  0.2594  0.5407
 2335SOL     OW 9412   4.278   3.429   4.861 -0.2770  0.2101 -0.1637
 2335SOL    HW2 9413   4.214   3.372   4.904  0.2067  0.2358  0.5921
 2335SOL    HW3 9414   4.340   3.370   4.819 -0.0486  0.1777  0.2164
 2335SOL    MW4 9415   4.277   3.414   4.861 -0.1826  0.2091 -0.0138
 2336SOL     OW 9416   3.380   4.582   3.889  0.3710 -0.0847  0.3809
 2336SOL    HW2 9417   3.365   4.578   3.983  2.0459 -1.6624  0.5947
 2336SOL    HW3 9418   3.446   4.650   3.877  0.1645  0.1097  0.3340
 2336SOL    MW4 9419   3.386   4.590   3.900  0.5648 -0.2680  0.4029
 2337SOL     OW 9420   3.204   0.115   3.806  0.3763  0.2735  0.0101
 2337SOL    HW2 9421   3.263   0.042   3.826 -1.3348 -0.9892  0.6767
 2337SOL    HW3 9422   3.185   0.106   3.713 -0.6015 -0.7591  0.2935
 2337SOL    MW4 9423   3.209   0.104   3.796  0.0215 -0.0294  0.1354
 2338SOL     OW 9424   2.151   3.251   4.511 -0.2334 -0.0432 -0.0932
 2338SOL    HW2 9425   2.122   3.271   4.600 -0.2857  0.2661 -0.1794
 2338SOL    HW3 9426   2.185   3.162   4.516  0.0909  0.1004  0.3163
 2338SOL    MW4 9427   2.152   3.242   4.523 -0.1974  0.0165 -0.0510
 2339SOL     OW 9428   1.233   1.428   4.526 -0.6567  0.1855  0.0400
 2339SOL    HW2 9429   1.252   1.519   4.544  0.1969  0.2098 -0.9831
 2339SOL    HW3 9430   1.252   1.416   4.433 -0.3496 -1.1373  0.2530
 2339SOL    MW4 9431   1.238   1.438   4.516 -0.5037  0.0141 -0.0668
 2340SOL     OW 9432   2.713   1.148   3.420 -0.1741 -0.1602 -0.0967
 2340SOL    HW2 9433   2.790   1.201   3.441  0.5366 -0.8137 -0.9963
 2340SOL    HW3 9434   2.736   1.060   3.451 -0.5811 -0.3392 -0.2973
 2340SOL    MW4 9435   2.726   1.143   3.427 -0.1340 -0.2700 -0.2418
 2341SOL     OW 9436   2.128   3.736   4.722 -0.1570  0.2522  0.4427
 2341SOL    HW2 9437   2.137   3.826   4.690 -2.3714  0.2968 -0.1566
 2341SOL    HW3 9438   2.116   3.746   4.816  2.1351  0.3920  0.7532
 2341SOL    MW4 9439   2.128   3.749   4.730 -0.1469  0.2768  0.4048
 2342SOL     OW 9440   0.007   1.960   4.147  0.0066  0.3504 -0.7333
 2342SOL    HW2 9441  -0.024   2.029   4.206 -1.4750 -1.0593  0.1650
 2342SOL    HW3 9442   0.075   1.914   4.198  0.0566  0.3155 -0.8319
 2342SOL    MW4 9443   0.012   1.963   4.162 -0.1822  0.1599 -0.6275
 2343SOL     OW 9444   2.882   0.464   3.773  0.4145 -0.4026 -0.0075
 2343SOL    HW2 9445   2.891   0.549   3.816  0.2519 -0.7288  0.6805
 2343SOL    HW3 9446   2.826   0.413   3.833 -0.1842 -0.7083 -0.8255
 2343SOL    MW4 9447   2.876   0.469   3.787  0.3140 -0.4860 -0.0243
 2344SOL     OW 9448   3.620   1.919   3.895  0.0603 -0.2280 -0.6881
 2344SOL    HW2 9449   3.547   1.978   3.877 -0.1860 -0.1063  0.6617
 2344SOL    HW3 9450   3.697   1.963   3.858 -0.1127  0.9619  0.3330
 2344SOL    MW4 9451   3.621   1.932   3.888  0.0050 -0.0550 -0.3753
 2345SOL     OW 9452   3.814   1.684   4.542 -0.1054  0.0233 -0.2945
 2345SOL    HW2 9453   3.898   1.640   4.554 -0.1858 -0.3314 -0.9902
 2345SOL    HW3 9454   3.830   1.774   4.572 -0.1001 -0.6133  1.6172
 2345SOL    MW4 9455   3.827   1.690   4.547 -0.1154 -0.1076 -0.1340
 2346SOL     OW 9456   2.882   2.348   3.877 -0.3520 -0.1734 -0.0091
 2346SOL    HW2 9457   2.894   2.254   3.865 -0.6466 -0.3592  1.0995
 2346SOL    HW3 9458   2.971   2.383   3.882 -0.2148 -0.7033  1.7901
 2346SOL    MW4 9459   2.895   2.340   3.876 -0.3729 -0.2675  0.3746
 2347SOL     OW 9460   3.410   2.083   3.827  0.6347 -0.2176  0.2474
 2347SOL    HW2 9461   3.406   2.082   3.731  1.3564 -1.7746  0.2050
 2347SOL    HW3 9462   3.388   2.172   3.852 -0.4605 -0.0354 -1.3381
 2347SOL    MW4 9463   3.407   2.094   3.818  0.5856 -0.3989  0.0327
 2348SOL     OW 9464   2.945   2.072   3.837 -0.1471 -0.0501 -0.4289
 2348SOL    HW2 9465   3.017   2.020   3.871 -0.5943  1.2390  2.7408
 2348SOL    HW3 9466   2.953   2.066   3.742  1.4530 -3.5394 -0.1510
 2348SOL    MW4 9467   2.955   2.065   3.829  0.0048 -0.3405  0.0260
 2349SOL     OW 9468   3.149   2.713   3.898 -0.1080  0.0323 -0.1966
 2349SOL    HW2 9469   3.131   2.749   3.985 -2.2976  0.7168 -0.8929
 2349SOL    HW3 9470   3.223   2.764   3.865 -0.7244  1.3149  0.3696
 2349SOL    MW4 9471   3.156   2.725   3.905 -0.4783  0.2916 -0.2139
 2350SOL     OW 9472   3.375   2.823   3.763  0.1937  0.1473 -0.4584
 2350SOL    HW2 9473   3.444   2.766   3.798 -0.2613  0.1854  0.5063
 2350SOL    HW3 9474   3.391   2.908   3.804  0.4696  0.5500 -1.3892
 2350SOL    MW4 9475   3.386   2.827   3.773  0.1700  0.2055 -0.4539
 2351SOL     OW 9476   3.390   3.038   3.931 -0.4416 -0.0340 -0.1367
 2351SOL    HW2 9477   3.440   3.107   3.887  0.3488  0.6700  1.8042
 2351SOL    HW3 9478   3.299   3.061   3.917 -0.1904  0.6663 -0.6374
 2351SOL    MW4 9479   3.385   3.050   3.923 -0.3045  0.1514  0.0534
 2352SOL     OW 9480   3.127   3.161   3.879 -0.2301  0.4240  0.0572
 2352SOL    HW2 9481   3.045   3.111   3.880  0.8735 -1.4514  0.2989
 2352SOL    HW3 9482   3.148   3.169   3.786  0.5688 -1.2961  0.0613
 2352SOL    MW4 9483   3.119   3.155   3.866  0.0210 -0.0503  0.0896
 2353SOL     OW 9484   3.119   3.447   3.910  0.2097 -0.6639 -0.1204
 2353SOL    HW2 9485   3.090   3.444   4.001 -0.4322 -1.0407 -0.3361
 2353SOL    HW3 9486   3.145   3.357   3.890 -2.4351 -1.2277 -1.2052
 2353SOL    MW4 9487   3.119   3.435   3.920 -0.2239 -0.7882 -0.2918
 2354SOL     OW 9488   3.353   3.606   3.837 -0.2870  0.0030 -0.3268
 2354SOL    HW2 9489   3.360   3.592   3.743  1.1703  1.4302 -0.4542
 2354SOL    HW3 9490   3.276   3.556   3.864 -1.8976  1.1739 -2.6199
 2354SOL    MW4 9491   3.343   3.598   3.828 -0.3073  0.3455 -0.6461
 2355SOL     OW 9492   3.580   3.919   3.744 -0.2474 -0.4724  0.3263
 2355SOL    HW2 9493   3.590   4.011   3.767 -0.3361 -0.0910 -1.1691
 2355SOL    HW3 9494   3.513   3.887   3.804  0.4207  0.2015  1.4618
 2355SOL    MW4 9495   3.573   3.927   3.755 -0.1712 -0.3331  0.2787
 2356SOL     OW 9496   3.182   3.954   3.797  0.0716  0.3683 -0.6362
 2356SOL    HW2 9497   3.186   4.050   3.804  0.8110  0.2219  1.3982
 2356SOL    HW3 9498   3.096   3.931   3.834  0.0228  0.2258 -0.8395
 2356SOL    MW4 9499   3.171   3.964   3.803  0.1626  0.3302 -0.3946
 2357SOL     OW 9500   3.181   4.222   3.838 -0.0017  0.2157  0.5404
 2357SOL    HW2 9501   3.174   4.222   3.933 -1.4036  0.7167  0.4502
 2357SOL    HW3 9502   3.268   4.258   3.820  0.6074 -0.6756  1.6393
 2357SOL    MW4 9503   3.192   4.227   3.848 -0.1063  0.1640  0.6735
 2358SOL     OW 9504   3.622   4.204   3.842  0.1202  0.2312  0.1432
 2358SOL    HW2 9505   3.715   4.221   3.828  0.1786  0.3227  0.6335
 2358SOL    HW3 9506   3.605   4.235   3.931 -0.3278 -0.0029  0.1412
 2358SOL    MW4 9507   3.632   4.210   3.852  0.0687  0.2122  0.2077
 2359SOL     OW 9508   3.592   0.074   3.826 -0.6264  0.0532 -0.1077
 2359SOL    HW2 9509   3.593   0.074   3.731 -0.0554 -0.3726 -0.0987
 2359SOL    HW3 9510   3.666   0.019   3.852  1.7231  3.3533  0.5911
 2359SOL    MW4 9511   3.602   0.067   3.817 -0.2410  0.4324 -0.0143
 2360SOL     OW 9512   3.413   4.341   3.758 -0.4270 -0.8626 -0.3582
 2360SOL    HW2 9513   3.483   4.288   3.795 -1.4052 -2.9312 -1.4099
 2360SOL    HW3 9514   3.422   4.426   3.801  1.4643 -1.7266  0.9988
 2360SOL    MW4 9515   3.423   4.345   3.769 -0.3064 -1.2493 -0.3181
 2361SOL     OW 9516   4.005   0.762   4.515  0.3099 -0.4732 -0.2370
 2361SOL    HW2 9517   3.918   0.774   4.554  0.4430  1.1610 -0.3745
 2361SOL    HW3 9518   4.031   0.674   4.541 -1.4707 -1.0717 -0.3703
 2361SOL    MW4 9519   3.997   0.752   4.524  0.0927 -0.3366 -0.2728
 2362SOL     OW 9520   4.051   0.327   3.904 -0.1356 -0.5384 -0.1009
 2362SOL    HW2 9521   4.041   0.234   3.884  1.4401 -1.1545  1.8341
 2362SOL    HW3 9522   4.044   0.333   3.999 -1.4165  1.5010 -0.2852
 2362SOL    MW4 9523   4.049   0.316   3.914 -0.0973 -0.3506  0.1302
 2363SOL     OW 9524   3.596   0.344   3.899 -0.0316 -0.0689 -0.3520
 2363SOL    HW2 9525   3.518   0.379   3.855  0.9017  0.5262 -1.5709
 2363SOL    HW3 9526   3.594   0.250   3.880 -0.2725 -0.0024 -0.6776
 2363SOL    MW4 9527   3.585   0.336   3.890  0.0598  0.0184 -0.5558
 2364SOL     OW 9528   1.422   0.427   4.536 -0.2015 -0.2145  0.1013
 2364SOL    HW2 9529   1.381   0.349   4.499  0.8346  0.0425 -1.6293
 2364SOL    HW3 9530   1.509   0.396   4.565 -0.0909  0.1208  0.1280
 2364SOL    MW4 9531   1.428   0.413   4.535 -0.0502 -0.1363 -0.1235
 2365SOL     OW 9532   3.139   0.388   3.835 -0.4163 -0.2045  0.1946
 2365SOL    HW2 9533   3.047   0.405   3.816 -0.9729  1.1783  3.6190
 2365SOL    HW3 9534   3.156   0.301   3.800 -2.7836 -0.1062 -1.2777
 2365SOL    MW4 9535   3.129   0.379   3.828 -0.8020 -0.0091  0.4523
 2366SOL     OW 9536   3.592   0.889   3.740  0.1029  0.1192 -0.2834
 2366SOL    HW2 9537   3.514   0.839   3.762  0.1525  0.4901  0.7464
 2366SOL    HW3 9538   3.661   0.854   3.797  0.3404  0.7723 -0.1614
 2366SOL    MW4 9539   3.591   0.878   3.750  0.1407  0.2543 -0.1314
 2367SOL     OW 9540   3.573   1.662   3.812 -0.3771  0.4244 -0.0994
 2367SOL    HW2 9541   3.587   1.754   3.833 -4.2658  0.9374  0.7238
 2367SOL    HW3 9542   3.558   1.661   3.718  1.5380  0.3215 -0.4264
 2367SOL    MW4 9543   3.573   1.674   3.803 -0.6375  0.4785 -0.0339
 2368SOL     OW 9544   3.538   1.663   3.540  0.1658  0.7458 -0.0213
 2368SOL    HW2 9545   3.619   1.614   3.523 -0.3564 -0.1326 -0.0209
 2368SOL    HW3 9546   3.542   1.736   3.479  0.0915 -0.3231 -1.3436
 2368SOL    MW4 9547   3.549   1.666   3.530  0.0870  0.4890 -0.1960
 2369SOL     OW 9548   3.374   1.629   4.431 -0.0710 -0.2348 -0.1344
 2369SOL    HW2 9549   3.288   1.609   4.468 -0.3571  1.3167  0.1112
 2369SOL    HW3 9550   3.436   1.585   4.489 -0.6266  0.3003  0.8887
 2369SOL    MW4 9551   3.371   1.621   4.444 -0.1819  0.0405  0.0324
 2370SOL     OW 9552   3.833   2.009   3.750 -0.1947  0.0118  0.1611
 2370SOL    HW2 9553   3.911   1.966   3.787  0.2218  0.9835  0.4389
 2370SOL    HW3 9554   3.831   2.095   3.793 -0.8248  0.3997 -0.6353
 2370SOL    MW4 9555   3.843   2.015   3.761 -0.2232  0.1912  0.0930
 2371SOL     OW 9556   3.602   2.392   3.828  0.0949 -0.5610  0.3105
 2371SOL    HW2 9557   3.594   2.376   3.734 -1.2584  0.3974  0.2441
 2371SOL    HW3 9558   3.519   2.361   3.865  0.9040 -1.6150  1.2952
 2371SOL    MW4 9559   3.590   2.386   3.821  0.0234 -0.5736  0.4318
 2372SOL     OW 9560   0.639   2.271   3.921  0.0459  0.6620 -0.0252
 2372SOL    HW2 9561   0.559   2.315   3.893 -1.2001 -1.4687  0.1097
 2372SOL    HW3 9562   0.659   2.309   4.007 -1.4353  0.4355  0.4304
 2372SOL    MW4 9563   0.631   2.282   3.929 -0.3139  0.3510  0.0525
 2373SOL     OW 9564   3.584   2.665   3.875  0.7104 -0.3106 -0.4597
 2373SOL    HW2 9565   3.553   2.660   3.966 -0.2558  0.2466 -0.7556
 2373SOL    HW3 9566   3.593   2.573   3.849 -0.9632 -0.4949 -0.4510
 2373SOL    MW4 9567   3.581   2.652   3.884  0.3622 -0.2611 -0.4973
 2374SOL     OW 9568   1.980   1.485   4.525  0.1314  0.1730  0.2458
 2374SOL    HW2 9569   2.033   1.545   4.578  0.2472 -1.1863  1.7111
 2374SOL    HW3 9570   2.037   1.408   4.512 -0.8270 -0.5564  0.3238
 2374SOL    MW4 9571   1.995   1.483   4.530  0.0201 -0.1025  0.4501
 2375SOL     OW 9572   1.689   0.335   4.571 -0.3551 -0.3827  0.1345
 2375SOL    HW2 9573   1.671   0.244   4.592  0.5236 -0.5915 -0.0254
 2375SOL    HW3 9574   1.723   0.333   4.482  0.4325  0.0173  0.4247
 2375SOL    MW4 9575   1.691   0.323   4.562 -0.1353 -0.3575  0.1521
 2376SOL     OW 9576   3.572   3.207   3.800  0.5830  0.4961  0.0077
 2376SOL    HW2 9577   3.577   3.295   3.837  1.3526  0.4029  0.1227
 2376SOL    HW3 9578   3.590   3.220   3.706  1.4530  0.3679  0.1522
 2376SOL    MW4 9579   3.575   3.221   3.792  0.7994  0.4671  0.0420
 2377SOL     OW 9580   3.587   3.462   3.899 -0.0824  0.0919 -0.0044
 2377SOL    HW2 9581   3.595   3.469   3.994 -1.6383 -0.5462  0.1964
 2377SOL    HW3 9582   3.509   3.514   3.877 -0.4625 -0.7767 -0.7711
 2377SOL    MW4 9583   3.578   3.470   3.908 -0.3376 -0.1070 -0.0792
 2378SOL     OW 9584   3.810   3.606   3.797 -0.3902  0.5138  0.0092
 2378SOL    HW2 9585   3.803   3.693   3.837  0.1850  0.2298  0.7348
 2378SOL    HW3 9586   3.739   3.555   3.837 -2.0764  1.2263 -1.9615
 2378SOL    MW4 9587   3.799   3.611   3.808 -0.5369  0.5705 -0.1552
 2379SOL     OW 9588   3.789   3.835   3.928  0.2197 -0.4089 -0.1317
 2379SOL    HW2 9589   3.860   3.891   3.896  0.1027 -0.6500 -0.8380
 2379SOL    HW3 9590   3.710   3.871   3.885  0.0113 -0.5335  0.1463
 2379SOL    MW4 9591   3.788   3.848   3.918  0.1767 -0.4570 -0.1881
 2380SOL     OW 9592   2.244   2.704   3.911  0.2849 -0.1337  0.1874
 2380SOL    HW2 9593   2.265   2.726   4.002  0.7942  1.0823 -0.2115
 2380SOL    HW3 9594   2.323   2.726   3.862 -0.1338 -0.3827 -0.6083
 2380SOL    MW4 9595   2.257   2.710   3.917  0.2968 -0.0060  0.0300
 2381SOL     OW 9596   3.198   3.871   4.737  0.3026 -0.1475  0.3001
 2381SOL    HW2 9597   3.287   3.871   4.775 -0.4732  0.8367  2.2051
 2381SOL    HW3 9598   3.184   3.781   4.708  1.8680 -0.3482  0.1178
 2381SOL    MW4 9599   3.208   3.859   4.738  0.4070 -0.0441  0.5279
 2382SOL     OW 9600   3.865   4.335   3.795  0.1413 -0.0891  0.2527
 2382SOL    HW2 9601   3.850   4.424   3.827 -1.7343 -0.6965  1.1475
 2382SOL    HW3 9602   3.868   4.345   3.700 -1.7075  0.7506  0.2393
 2382SOL    MW4 9603   3.863   4.348   3.787 -0.3500 -0.0587  0.3688
 2383SOL     OW 9604   4.301   4.647   3.875 -0.1262 -0.6358 -0.6822
 2383SOL    HW2 9605   4.295   4.642   3.970 -1.1947  0.0903 -0.7107
 2383SOL    HW3 9606   4.393   4.665   3.858  0.0650 -0.7362  0.2157
 2383SOL    MW4 9607   4.312   4.648   3.885 -0.2427 -0.5536 -0.5674
 2384SOL     OW 9608   4.047   0.056   3.800 -0.0400 -0.0612 -0.4268
 2384SOL    HW2 9609   4.135   0.034   3.831 -0.6211 -1.6538  0.1421
 2384SOL    HW3 9610   4.052   0.043   3.705  0.4013  0.0480 -0.4191
 2384SOL    MW4 9611   4.060   0.051   3.791 -0.0587 -0.2569 -0.3505
 2385SOL     OW 9612   0.677   2.409   4.158 -0.3742 -0.6226 -0.1940
 2385SOL    HW2 9613   0.673   2.360   4.240 -0.5253  0.0710  0.2179
 2385SOL    HW3 9614   0.597   2.462   4.159 -0.0549 -0.1443 -0.4933
 2385SOL    MW4 9615   0.666   2.409   4.169 -0.3520 -0.4680 -0.1793
 2386SOL     OW 9616   4.257   0.484   3.790  0.1334 -0.1308  0.3826
 2386SOL    HW2 9617   4.183   0.438   3.830 -0.4109  0.1128 -0.3342
 2386SOL    HW3 9618   4.248   0.467   3.696  0.4528  0.6647  0.2006
 2386SOL    MW4 9619   4.246   0.476   3.783  0.1035  0.0063  0.2642
 2387SOL     OW 9620   4.279   0.753   3.838 -0.0210  0.3447 -0.6036
 2387SOL    HW2 9621   4.262   0.659   3.823 -2.1251  0.3267  1.6184
 2387SOL    HW3 9622   4.203   0.797   3.799 -1.5717  0.7789  2.7836
 2387SOL    MW4 9623   4.267   0.746   3.831 -0.5031  0.3996  0.1361
 2388SOL     OW 9624   4.040   0.874   3.764  0.5094  0.0257 -0.0242
 2388SOL    HW2 9625   4.029   0.965   3.793 -0.8009 -0.0127 -0.3940
 2388SOL    HW3 9626   4.027   0.877   3.670  1.4660 -0.3928 -0.1704
 2388SOL    MW4 9627   4.037   0.887   3.756  0.4625 -0.0345 -0.0920
 2389SOL     OW 9628   3.789   1.282   3.793  0.0511 -0.5362  0.3495
 2389SOL    HW2 9629   3.872   1.238   3.779 -0.2627 -0.5648 -1.5597
 2389SOL    HW3 9630   3.812   1.368   3.829  0.8628 -0.7030  0.2194
 2389SOL    MW4 9631   3.803   1.288   3.796  0.1166 -0.5621  0.0803
 2390SOL     OW 9632   2.182   3.990   4.649  0.2204  0.2621  0.8320
 2390SOL    HW2 9633   2.270   4.018   4.623  0.1989  1.0746  1.6212
 2390SOL    HW3 9634   2.126   4.064   4.627 -0.3647 -0.4663 -0.1839
 2390SOL    MW4 9635   2.186   4.003   4.643  0.1404  0.2737  0.8025
 2391SOL     OW 9636   3.784   4.104   4.220  0.1662  0.1312 -0.0443
 2391SOL    HW2 9637   3.864   4.146   4.191  0.7652 -0.7543  0.3157
 2391SOL    HW3 9638   3.716   4.141   4.164  0.9662  0.1855 -0.9891
 2391SOL    MW4 9639   3.785   4.114   4.209  0.3510  0.0215 -0.1216
 2392SOL     OW 9640   3.831   3.831   4.212 -0.6732 -0.0947 -0.4091
 2392SOL    HW2 9641   3.820   3.830   4.117 -1.7863 -0.7019 -0.2760
 2392SOL    HW3 9642   3.818   3.923   4.236  1.1149  0.3433 -0.9993
 2392SOL    MW4 9643   3.828   3.843   4.203 -0.5841 -0.1171 -0.4692
 2393SOL     OW 9644   3.820   2.234   3.897 -0.1175  0.0040 -0.0376
 2393SOL    HW2 9645   3.823   2.229   3.993 -3.3801 -1.1319  0.0730
 2393SOL    HW3 9646   3.746   2.292   3.879  1.1080  1.0295 -1.8983
 2393SOL    MW4 9647   3.811   2.241   3.907 -0.3862 -0.0107 -0.2685
 2394SOL     OW 9648   4.268   2.083   3.818  0.2882 -0.0235  0.5985
 2394SOL    HW2 9649   4.275   2.172   3.851  1.0828 -0.2161  0.9431
 2394SOL    HW3 9650   4.256   2.093   3.723  1.0748  0.4248  0.5469
 2394SOL    MW4 9651   4.267   2.096   3.810  0.4964  0.0100  0.6371
 2395SOL     OW 9652   4.275   2.338   3.955 -0.0684 -0.5781  0.0463
 2395SOL    HW2 9653   4.349   2.361   3.899 -0.5867 -0.8237 -0.7488
 2395SOL    HW3 9654   4.199   2.374   3.910 -0.3768  0.1289  1.1313
 2395SOL    MW4 9655   4.275   2.346   3.941 -0.1779 -0.5174  0.0846
 2396SOL     OW 9656   4.026   2.429   3.833 -0.2104 -0.1035 -0.0170
 2396SOL    HW2 9657   4.010   2.514   3.875  0.5248  0.3157 -0.5675
 2396SOL    HW3 9658   3.951   2.376   3.858 -0.6935  0.7189  0.3169
 2396SOL    MW4 9659   4.014   2.433   3.842 -0.1774  0.0606 -0.0453
 2397SOL     OW 9660   1.802   3.749   4.357  0.2250 -0.3555 -0.7146
 2397SOL    HW2 9661   1.787   3.676   4.297  1.5007 -1.1563 -0.0800
 2397SOL    HW3 9662   1.882   3.791   4.323  0.0405  0.1735 -0.5077
 2397SOL    MW4 9663   1.811   3.745   4.344  0.3690 -0.3915 -0.6037
 2398SOL     OW 9664   4.242   2.814   3.540 -0.2838 -0.0089  0.0778
 2398SOL    HW2 9665   4.249   2.811   3.635 -0.7832  1.4716  0.1722
 2398SOL    HW3 9666   4.326   2.782   3.509 -0.3298 -1.0690  1.0027
 2398SOL    MW4 9667   4.254   2.809   3.548 -0.3562  0.0467  0.2122
 2399SOL     OW 9668   4.227   3.064   3.886  0.3922  0.0832 -0.1551
 2399SOL    HW2 9669   4.164   3.113   3.834  0.9678  0.4687 -0.4834
 2399SOL    HW3 9670   4.190   3.063   3.974  0.3479  1.0492 -0.1601
 2399SOL    MW4 9671   4.214   3.070   3.891  0.4621  0.2613 -0.1991
 2400SOL     OW 9672   4.072   3.493   3.865 -0.5786  0.1950 -0.0195
 2400SOL    HW2 9673   4.074   3.405   3.828  0.7139 -0.3335  1.2692
 2400SOL    HW3 9674   3.992   3.532   3.829 -2.0700 -2.0672  0.7025
 2400SOL    MW4 9675   4.061   3.487   3.855 -0.6051 -0.1731  0.2458
 2401SOL     OW 9676   1.594   1.680   4.504  0.6616  0.4379  0.0441
 2401SOL    HW2 9677   1.520   1.655   4.559  1.8137 -0.4168  1.2475
 2401SOL    HW3 9678   1.641   1.597   4.488  1.9014  1.1139  0.1322
 2401SOL    MW4 9679   1.591   1.665   4.509  0.9772  0.4143  0.2141
 2402SOL     OW 9680   4.066   3.041   4.121  0.3771  0.7346 -0.0380
 2402SOL    HW2 9681   4.105   2.975   4.177  0.5853  1.0486  0.1852
 2402SOL    HW3 9682   3.971   3.027   4.131  0.4137 -0.9733 -1.6957
 2402SOL    MW4 9683   4.059   3.030   4.130  0.4086  0.5505 -0.2275
 2403SOL     OW 9684   4.070   3.233   4.881  0.7512  0.0653 -0.3373
 2403SOL    HW2 9685   4.081   3.280   4.798  0.0757 -1.2597 -1.1799
 2403SOL    HW3 9686   3.983   3.259   4.912  1.1192  0.7869  0.1201
 2403SOL    MW4 9687   4.060   3.243   4.874  0.7100 -0.0141 -0.3886
 2404SOL     OW 9688   4.009   3.977   3.819 -0.1813  0.2951  0.3258
 2404SOL    HW2 9689   4.045   4.057   3.856 -1.0725  1.8003 -1.9148
 2404SOL    HW3 9690   4.022   3.987   3.724 -2.8831 -0.8725 -0.2164
 2404SOL    MW4 9691   4.016   3.989   3.811 -0.6547  0.3397 -0.0415
 2405SOL     OW 9692   0.960   3.659   4.254 -0.2308  0.0801 -0.5481
 2405SOL    HW2 9693   0.903   3.718   4.303  0.0114  0.0023 -0.1721
 2405SOL    HW3 9694   1.005   3.607   4.321 -0.4036 -0.4983 -0.8747
 2405SOL    MW4 9695   0.959   3.660   4.269 -0.2217 -0.0064 -0.5417
 2406SOL     OW 9696   4.260   4.386   3.782  0.1808 -0.0901 -0.5522
 2406SOL    HW2 9697   4.270   4.474   3.817 -0.4106 -0.0634 -0.4443
 2406SOL    HW3 9698   4.200   4.343   3.842 -1.2519  0.1190 -1.8198
 2406SOL    MW4 9699   4.254   4.392   3.795 -0.0858 -0.0591 -0.7052
 2407SOL     OW 9700   2.497   0.807   4.625  0.0604  0.4566 -1.0382
 2407SOL    HW2 9701   2.447   0.844   4.698  0.7910 -0.8516  0.1343
 2407SOL    HW3 9702   2.436   0.746   4.584 -0.1676  0.7806 -1.1826
 2407SOL    MW4 9703   2.482   0.804   4.629  0.1266  0.3268 -0.9031
 2408SOL     OW 9704   0.022   3.937   4.639  0.3980  0.3471 -0.3300
 2408SOL    HW2 9705   0.006   3.881   4.563 -0.5928  1.9323 -1.3087
 2408SOL    HW3 9706   0.064   4.015   4.603  0.4417  0.8681  0.8244
 2408SOL    MW4 9707   0.026   3.940   4.625  0.2732  0.6249 -0.3071
 2409SOL     OW 9708   1.344   3.742   4.243  0.0190 -0.1903  0.4441
 2409SOL    HW2 9709   1.265   3.771   4.198  0.3104  0.2792  0.2339
 2409SOL    HW3 9710   1.353   3.650   4.218 -0.4935 -0.2621  0.5214
 2409SOL    MW4 9711   1.335   3.733   4.234 -0.0101 -0.1376  0.4263
 2410SOL     OW 9712   0.164   4.125   4.474 -0.2051  0.0393 -0.1674
 2410SOL    HW2 9713   0.145   4.078   4.392 -0.6733 -1.7060  0.9149
 2410SOL    HW3 9714   0.257   4.146   4.468 -0.3126  0.2273 -1.3001
 2410SOL    MW4 9715   0.174   4.121   4.462 -0.2810 -0.1664 -0.1745
 2411SOL     OW 9716   4.357   2.620   4.621 -0.2576  0.2510 -0.0273
 2411SOL    HW2 9717   4.437   2.567   4.624 -1.0161 -1.0597 -1.7550
 2411SOL    HW3 9718   4.386   2.706   4.593  0.6850  0.0765  0.3895
 2411SOL    MW4 9719   4.372   2.624   4.618 -0.2332  0.0546 -0.2003
 2412SOL     OW 9720   0.388   3.801   4.698 -0.5793  0.1205 -0.2379
 2412SOL    HW2 9721   0.436   3.824   4.778  0.2551  2.4945 -1.3847
 2412SOL    HW3 9722   0.302   3.773   4.729 -0.3529  1.2255  1.4805
 2412SOL    MW4 9723   0.383   3.800   4.713 -0.4393  0.5794 -0.1626
 2413SOL     OW 9724   4.006   0.318   4.183  0.5401 -0.3862 -0.2001
 2413SOL    HW2 9725   4.072   0.275   4.238 -0.7642 -1.2668  0.6965
 2413SOL    HW3 9726   4.003   0.408   4.215  1.1503 -0.4033 -0.0977
 2413SOL    MW4 9727   4.014   0.324   4.195  0.4487 -0.5046 -0.0682
 2414SOL     OW 9728   3.742   2.462   4.305  0.0432  0.0491 -0.1728
 2414SOL    HW2 9729   3.791   2.471   4.386 -0.2816  2.2428 -0.2062
 2414SOL    HW3 9730   3.650   2.470   4.331 -0.1302 -0.5155 -0.5915
 2414SOL    MW4 9731   3.737   2.464   4.319 -0.0226  0.2639 -0.2322
 2415SOL     OW 9732   0.968   1.154   3.865 -0.4198  0.4517 -0.3680
 2415SOL    HW2 9733   0.886   1.188   3.828  0.4949  1.0800 -1.8928
 2415SOL    HW3 9734   0.973   1.064   3.834  0.3734  0.9956 -1.8734
 2415SOL    MW4 9735   0.957   1.147   3.856 -0.1944  0.6064 -0.7677
 2416SOL     OW 9736   1.780   1.889   4.564 -0.5444  0.1103 -0.0734
 2416SOL    HW2 9737   1.721   1.959   4.590  0.4308  0.9876 -0.2087
 2416SOL    HW3 9738   1.727   1.809   4.571 -1.6704  0.8561  0.0294
 2416SOL    MW4 9739   1.765   1.887   4.568 -0.5642  0.3245 -0.0782
 2417SOL     OW 9740   3.997   0.013   4.559  0.3641 -0.0512  0.5919
 2417SOL    HW2 9741   4.080   0.059   4.571  1.2264 -1.7155  1.2395
 2417SOL    HW3 9742   4.019  -0.079   4.571 -1.9690 -0.3652  2.8552
 2417SOL    MW4 9743   4.011   0.007   4.562  0.1698 -0.3122  0.9756
 2418SOL     OW 9744   4.069   1.524   4.488  0.4045 -0.4650 -0.4439
 2418SOL    HW2 9745   4.077   1.447   4.544 -0.3571  0.2431  0.6535
 2418SOL    HW3 9746   4.049   1.489   4.401  1.7670 -1.5803 -0.3156
 2418SOL    MW4 9747   4.067   1.509   4.484  0.4835 -0.5187 -0.2823
 2419SOL     OW 9748   3.136   0.853   3.750 -0.3202  0.1711  0.8572
 2419SOL    HW2 9749   3.150   0.938   3.793  0.0373  0.0846  0.9092
 2419SOL    HW3 9750   3.147   0.872   3.657  0.8689 -0.0468  0.9519
 2419SOL    MW4 9751   3.139   0.867   3.743 -0.1163  0.1310  0.8764
 2420SOL     OW 9752   0.494   0.318   4.705 -0.8439  0.5572  0.2296
 2420SOL    HW2 9753   0.544   0.399   4.695 -1.5630  1.0151  0.3101
 2420SOL    HW3 9754   0.560   0.251   4.725 -0.2622  1.1451  0.2885
 2420SOL    MW4 9755   0.509   0.320   4.706 -0.8620  0.6952  0.2475
 2421SOL     OW 9756   1.825   3.111   4.421 -0.1270  0.2081 -0.1061
 2421SOL    HW2 9757   1.838   3.146   4.509  0.0700 -1.9762  0.7485
 2421SOL    HW3 9758   1.731   3.117   4.406 -0.2914 -0.4147  0.6786
 2421SOL    MW4 9759   1.815   3.116   4.431 -0.1225 -0.1621  0.1097
 2422SOL     OW 9760   3.522   1.278   4.553  0.0443  0.0458 -0.0287
 2422SOL    HW2 9761   3.431   1.261   4.578 -0.1674  1.0103 -0.1011
 2422SOL    HW3 9762   3.519   1.288   4.458  0.3297 -0.5494 -0.0983
 2422SOL    MW4 9763   3.510   1.277   4.544  0.0539  0.0945 -0.0472
 2423SOL     OW 9764   2.290   0.649   4.529  0.7152  0.1605  0.7396
 2423SOL    HW2 9765   2.290   0.565   4.575  1.2228  0.5076  1.3726
 2423SOL    HW3 9766   2.257   0.628   4.441  0.8344 -0.6974  0.8965
 2423SOL    MW4 9767   2.285   0.635   4.523  0.7980  0.0931  0.8430
 2424SOL     OW 9768   2.699   1.934   3.875  0.0365  0.3356 -0.0807
 2424SOL    HW2 9769   2.787   1.971   3.884 -0.6080  1.5173  2.0624
 2424SOL    HW3 9770   2.645   2.009   3.848 -0.7601  0.2903  1.3246
 2424SOL    MW4 9771   2.703   1.949   3.873 -0.1535  0.4857  0.3872
 2425SOL     OW 9772   0.015   2.965   4.293  0.6778 -0.0766  0.0623
 2425SOL    HW2 9773   0.078   2.984   4.223  0.8751 -0.3291  0.1726
 2425SOL    HW3 9774   0.020   3.042   4.351 -1.5584  1.4485 -1.7046
 2425SOL    MW4 9775   0.024   2.978   4.292  0.4091  0.0913 -0.1564
 2426SOL     OW 9776   0.770   4.155   4.662  0.0331 -0.1493  1.0198
 2426SOL    HW2 9777   0.710   4.100   4.612  1.4419 -0.8884  0.1067
 2426SOL    HW3 9778   0.714   4.215   4.711 -1.3791  0.0893 -0.8768
 2426SOL    MW4 9779   0.755   4.155   4.662  0.0327 -0.2151  0.6490
 2427SOL     OW 9780   0.241   3.064   4.128 -0.5124 -0.2862 -0.0932
 2427SOL    HW2 9781   0.275   3.152   4.145 -0.0315 -0.2037 -1.4162
 2427SOL    HW3 9782   0.230   3.060   4.033 -0.4992 -1.6620 -0.0527
 2427SOL    MW4 9783   0.244   3.075   4.118 -0.4472 -0.4568 -0.2618
 2428SOL     OW 9784   4.278   3.649   3.796  0.1282 -0.0357 -0.4228
 2428SOL    HW2 9785   4.211   3.585   3.821  0.4897 -0.5885 -0.8815
 2428SOL    HW3 9786   4.361   3.607   3.817  0.3193  1.2006  1.4894
 2428SOL    MW4 9787   4.280   3.635   3.802  0.2012  0.0546 -0.2310
 2429SOL     OW 9788   4.237   0.739   4.123 -0.0236  0.6642  0.4468
 2429SOL    HW2 9789   4.251   0.749   4.029  1.2250  0.5670  0.6197
 2429SOL    HW3 9790   4.320   0.706   4.157  0.1357  2.4603  1.8697
 2429SOL    MW4 9791   4.250   0.736   4.115  0.1626  0.8883  0.6571
 2430SOL     OW 9792   1.806   3.478   3.921  0.1977  0.1318 -0.9737
 2430SOL    HW2 9793   1.872   3.535   3.882 -0.3016  0.6961 -1.0024
 2430SOL    HW3 9794   1.821   3.486   4.016 -0.3120  0.8458 -0.9514
 2430SOL    MW4 9795   1.817   3.486   3.929  0.0647  0.3004 -0.9747
 2431SOL     OW 9796   1.112   3.849   4.139  0.0183  0.3279 -0.0897
 2431SOL    HW2 9797   1.110   3.930   4.190 -0.6443 -0.1704  0.6811
 2431SOL    HW3 9798   1.052   3.790   4.184  0.7918 -0.7342 -0.4208
 2431SOL    MW4 9799   1.104   3.852   4.152  0.0330  0.1218 -0.0319
 2432SOL     OW 9800   3.309   0.867   4.576  0.3009 -0.0429 -0.4230
 2432SOL    HW2 9801   3.261   0.944   4.605  0.8994  0.2405 -0.1745
 2432SOL    HW3 9802   3.343   0.890   4.490 -1.3584 -0.8338 -1.3066
 2432SOL    MW4 9803   3.307   0.880   4.568  0.1609 -0.1098 -0.5069
 2433SOL     OW 9804   2.239   2.991   4.508  0.5579 -0.0712  0.2036
 2433SOL    HW2 9805   2.222   2.998   4.414  0.6690 -0.5518  0.1464
 2433SOL    HW3 9806   2.172   2.931   4.540  1.8501 -1.6388  0.0521
 2433SOL    MW4 9807   2.228   2.984   4.500  0.7432 -0.3414  0.1760
 2434SOL     OW 9808   1.028   2.393   4.557  0.1872 -0.4018  0.5316
 2434SOL    HW2 9809   0.990   2.318   4.511  0.9118 -0.3192 -0.2297
 2434SOL    HW3 9810   1.115   2.363   4.584 -0.0976 -0.3226  1.5297
 2434SOL    MW4 9811   1.035   2.379   4.554  0.2453 -0.3805  0.5627
 2435SOL     OW 9812   4.257   0.991   4.233  0.5525 -0.1320 -0.4069
 2435SOL    HW2 9813   4.247   0.900   4.206  0.6384 -0.3226  0.1898
 2435SOL    HW3 9814   4.220   0.994   4.321  0.7279  0.3664 -0.3472
 2435SOL    MW4 9815   4.251   0.980   4.241  0.5870 -0.0914 -0.3200
 2436SOL     OW 9816   0.689   0.748   4.212  0.0578  0.4473 -0.1176
 2436SOL    HW2 9817   0.684   0.756   4.117 -0.8222  0.2804 -0.0907
 2436SOL    HW3 9818   0.603   0.714   4.237  0.3268  0.3908  0.7249
 2436SOL    MW4 9819   0.677   0.744   4.203 -0.0228  0.4178 -0.0029
 2437SOL     OW 9820   4.264   1.498   4.188 -0.4074 -0.4759 -0.0428
 2437SOL    HW2 9821   4.265   1.592   4.208  0.5317 -0.3249 -0.7604
 2437SOL    HW3 9822   4.268   1.494   4.092 -0.7026 -1.2442 -0.0260
 2437SOL    MW4 9823   4.265   1.510   4.178 -0.3219 -0.5573 -0.1345
 2438SOL     OW 9824   2.913   0.678   4.144  0.2397  0.0067 -0.1762
 2438SOL    HW2 9825   2.987   0.618   4.140 -0.2183 -0.5054 -1.1841
 2438SOL    HW3 9826   2.911   0.719   4.057  0.7644  1.7382  0.6111
 2438SOL    MW4 9827   2.922   0.676   4.132  0.2489  0.1676 -0.2046
 2439SOL     OW 9828   1.344   3.469   4.150 -0.4614  0.4636 -0.1119
 2439SOL    HW2 9829   1.355   3.450   4.057 -0.5911  0.4299 -0.1214
 2439SOL    HW3 9830   1.275   3.408   4.179 -1.0001  1.0417 -0.1816
 2439SOL    MW4 9831   1.336   3.458   4.142 -0.5496  0.5355 -0.1216
 2440SOL     OW 9832   3.801   4.164   4.499 -0.1305 -0.6642  0.1997
 2440SOL    HW2 9833   3.785   4.150   4.406  1.7600 -0.6011 -0.1507
 2440SOL    HW3 9834   3.844   4.084   4.529  1.6467  0.3497  0.4147
 2440SOL    MW4 9835   3.804   4.152   4.491  0.3533 -0.5221  0.1822
 2441SOL     OW 9836   4.459   3.753   4.434 -0.4014  0.2817  0.0539
 2441SOL    HW2 9837   4.398   3.683   4.455 -1.1307  1.1101  0.7476
 2441SOL    HW3 9838   4.414   3.804   4.367 -0.3472  0.7181  0.3491
 2441SOL    MW4 9839   4.445   3.750   4.428 -0.4907  0.4482  0.1845
 2442SOL     OW 9840   0.382   0.684   4.595 -0.2915 -0.0876 -0.1646
 2442SOL    HW2 9841   0.305   0.637   4.628  0.8118 -0.9102  1.2980
 2442SOL    HW3 9842   0.455   0.649   4.646  0.8544  1.7363 -0.5047
 2442SOL    MW4 9843   0.382   0.673   4.606  0.0053  0.0445 -0.0167
 2443SOL     OW 9844   2.722   3.964   4.548 -0.0456 -0.0655 -0.2846
 2443SOL    HW2 9845   2.778   4.017   4.492  0.7703 -1.2699 -0.6518
 2443SOL    HW3 9846   2.779   3.941   4.622 -0.2597 -0.7178 -0.3157
 2443SOL    MW4 9847   2.737   3.968   4.551  0.0339 -0.3104 -0.3371
 2444SOL     OW 9848   4.474   0.111   4.720 -0.0166  0.3727  0.3739
 2444SOL    HW2 9849   4.536   0.167   4.673 -0.7444 -0.1325 -1.2273
 2444SOL    HW3 9850   4.390   0.125   4.676 -0.3830 -1.3133  0.4846
 2444SOL    MW4 9851   4.471   0.120   4.708 -0.1612  0.0836  0.1774
 2445SOL     OW 9852   3.587   0.587   4.558 -0.4673 -0.1911 -0.1786
 2445SOL    HW2 9853   3.599   0.672   4.602  1.3854 -0.9094  0.7626
 2445SOL    HW3 9854   3.545   0.533   4.624 -0.2448 -0.4503 -0.2492
 2445SOL    MW4 9855   3.583   0.591   4.573 -0.1936 -0.3201 -0.0634
 2446SOL     OW 9856   1.306   1.936   4.235 -0.5848  0.4876 -0.1233
 2446SOL    HW2 9857   1.389   1.889   4.248 -2.0726 -2.0288  0.7497
 2446SOL    HW3 9858   1.293   1.937   4.140 -0.2411 -0.3976 -0.1839
 2446SOL    MW4 9859   1.315   1.930   4.224 -0.7358  0.0387 -0.0157
 2447SOL     OW 9860   4.164   0.990   4.496 -0.0027  0.7205 -0.3583
 2447SOL    HW2 9861   4.114   0.910   4.514  1.8214 -0.5136 -0.6400
 2447SOL    HW3 9862   4.242   0.982   4.550  1.0821  1.4037 -1.7912
 2447SOL    MW4 9863   4.168   0.978   4.506  0.3815  0.6478 -0.5846
 2448SOL     OW 9864   3.751   3.342   4.290  0.2705 -0.0889  0.6029
 2448SOL    HW2 9865   3.712   3.285   4.356 -0.0192 -0.1948  0.3375
 2448SOL    HW3 9866   3.814   3.395   4.339 -0.7642  0.6341  1.1732
 2448SOL    MW4 9867   3.755   3.342   4.305  0.0958 -0.0076  0.6433
 2449SOL     OW 9868   2.107   2.166   4.752  0.5710 -0.1995 -0.2616
 2449SOL    HW2 9869   2.091   2.093   4.691  0.4993  0.9280 -1.6219
 2449SOL    HW3 9870   2.020   2.203   4.768  0.6803 -0.0289 -0.0553
 2449SOL    MW4 9871   2.093   2.161   4.746  0.5758 -0.0284 -0.4139
 2450SOL     OW 9872   1.800   0.334   4.321 -0.3960  0.1499 -0.0410
 2450SOL    HW2 9873   1.889   0.301   4.310  0.2669  1.5768  0.8461
 2450SOL    HW3 9874   1.764   0.336   4.232  1.1048  1.2816 -0.6536
 2450SOL    MW4 9875   1.807   0.330   4.308 -0.1104  0.4875 -0.0043
 2451SOL     OW 9876   0.603   2.367   4.645  0.2025 -1.0239  0.0455
 2451SOL    HW2 9877   0.617   2.461   4.637 -0.4105 -0.8665  0.7868
 2451SOL    HW3 9878   0.510   2.358   4.665  0.2187 -1.8020 -0.2074
 2451SOL    MW4 9879   0.593   2.378   4.646  0.1237 -1.1058  0.1101
 2452SOL     OW 9880   2.954   0.850   4.533 -0.2759 -0.4820 -0.1381
 2452SOL    HW2 9881   2.985   0.932   4.571 -1.0370 -0.5211  0.5687
 2452SOL    HW3 9882   2.956   0.866   4.438 -1.5605  0.7628  0.0370
 2452SOL    MW4 9883   2.959   0.863   4.525 -0.5457 -0.3229 -0.0219
 2453SOL     OW 9884   3.162   0.586   4.238 -0.3658  0.0882 -0.3318
 2453SOL    HW2 9885   3.248   0.609   4.201 -0.8941  1.3520 -0.8209
 2453SOL    HW3 9886   3.170   0.606   4.331  0.1173 -0.5435 -0.2356
 2453SOL    MW4 9887   3.174   0.592   4.246 -0.3715  0.1717 -0.3834
 2454SOL     OW 9888   1.677   0.259   4.088  0.6946 -0.0301  0.4357
 2454SOL    HW2 9889   1.707   0.314   4.016 -0.7747 -0.0330 -0.2001
 2454SOL    HW3 9890   1.583   0.276   4.093  0.6432 -0.6632  1.8118
 2454SOL    MW4 9891   1.669   0.268   4.079  0.4939 -0.1140  0.5331
 2455SOL     OW 9892   0.140   4.527   4.704 -0.1626 -0.0317 -0.2329
 2455SOL    HW2 9893   0.085   4.603   4.721 -0.4593 -0.2940 -0.0156
 2455SOL    HW3 9894   0.225   4.564   4.681 -0.2221  0.3633  0.1679
 2455SOL    MW4 9895   0.144   4.542   4.703 -0.2096 -0.0138 -0.1512
 2456SOL     OW 9896   1.554   2.919   4.190 -0.3041  0.0816 -0.0912
 2456SOL    HW2 9897   1.639   2.875   4.200 -0.4453 -0.1632  0.0320
 2456SOL    HW3 9898   1.566   2.975   4.113  0.2953  0.8144  0.5278
 2456SOL    MW4 9899   1.567   2.920   4.181 -0.2435  0.1459  0.0072
 2457SOL     OW 9900   3.100   0.345   4.129  0.6835 -0.5637  0.0092
 2457SOL    HW2 9901   3.125   0.429   4.168  0.6685 -0.3575 -0.4086
 2457SOL    HW3 9902   3.108   0.360   4.034  1.5754 -1.3214 -0.0389
 2457SOL    MW4 9903   3.104   0.358   4.121  0.7992 -0.6365 -0.0525
 2458SOL     OW 9904   4.294   3.544   4.556  0.3458 -0.0549 -0.2777
 2458SOL    HW2 9905   4.312   3.477   4.490 -0.2523 -0.4015 -0.0938
 2458SOL    HW3 9906   4.360   3.529   4.624 -1.0371 -1.7707  0.7297
 2458SOL    MW4 9907   4.305   3.533   4.557  0.0844 -0.3269 -0.1202
 2459SOL     OW 9908   2.093   2.061   4.018  0.3010  0.3693 -0.4425
 2459SOL    HW2 9909   2.142   2.040   4.098  0.4196  0.1914 -0.5630
 2459SOL    HW3 9910   2.029   2.127   4.046  0.4643  0.4436 -0.2403
 2459SOL    MW4 9911   2.091   2.067   4.033  0.3381  0.3555 -0.4325
 2460SOL     OW 9912   2.801   1.300   4.332  0.2588 -0.3983  0.6406
 2460SOL    HW2 9913   2.813   1.280   4.425 -0.3235  0.1815  0.8418
 2460SOL    HW3 9914   2.874   1.357   4.309  1.4227 -1.9949  0.2860
 2460SOL    MW4 9915   2.812   1.305   4.341  0.3355 -0.5324  0.6204
 2461SOL     OW 9916   0.021   1.134   4.147  0.1240  0.1602 -0.5464
 2461SOL    HW2 9917   0.032   1.205   4.210  0.0929  0.9710 -1.4312
 2461SOL    HW3 9918  -0.061   1.091   4.172 -0.5981  1.3378 -0.8647
 2461SOL    MW4 9919   0.012   1.138   4.159  0.0253  0.4225 -0.7052
 2462SOL     OW 9920   0.138   3.729   4.774 -0.2739 -0.1103 -0.1548
 2462SOL    HW2 9921   0.133   3.655   4.715 -0.7512  0.7542 -1.2096
 2462SOL    HW3 9922   0.106   3.803   4.723 -0.3466  0.7157  1.0657
 2462SOL    MW4 9923   0.133   3.729   4.760 -0.3465  0.1128 -0.1326
 2463SOL     OW 9924   2.019   3.333   4.272  0.0667 -0.3031  0.2513
 2463SOL    HW2 9925   2.001   3.246   4.238 -0.2851 -0.4449  0.7846
 2463SOL    HW3 9926   2.047   3.319   4.362 -0.3329  0.1551  0.4542
 2463SOL    MW4 9927   2.020   3.320   4.279 -0.0322 -0.2615  0.3486
 2464SOL     OW 9928   3.006   3.433   4.809 -0.1026 -0.1482 -0.3420
 2464SOL    HW2 9929   3.066   3.486   4.756  1.1616 -1.6022 -0.4137
 2464SOL    HW3 9930   3.008   3.347   4.768 -1.0863 -0.6099  0.5598
 2464SOL    MW4 9931   3.014   3.429   4.797 -0.0656 -0.4010 -0.2327
 2465SOL     OW 9932   3.583   3.729   4.295  0.4931 -0.3457  0.1226
 2465SOL    HW2 9933   3.582   3.750   4.388  1.6189  0.9396 -0.1288
 2465SOL    HW3 9934   3.668   3.761   4.265 -0.0014 -0.4476 -1.4073
 2465SOL    MW4 9935   3.594   3.736   4.303  0.5765 -0.1898 -0.1121
 2466SOL     OW 9936   2.517   1.252   3.817  0.0004  0.1984  0.2703
 2466SOL    HW2 9937   2.428   1.219   3.832  0.0575  0.5388  1.3742
 2466SOL    HW3 9938   2.527   1.323   3.880  0.6581  0.8971 -0.6101
 2466SOL    MW4 9939   2.506   1.257   3.827  0.0947  0.3356  0.2999
 2467SOL     OW 9940   4.134   1.992   4.565  0.1550 -0.7416  0.2339
 2467SOL    HW2 9941   4.196   2.060   4.593  1.4726 -2.1806  0.8795
 2467SOL    HW3 9942   4.097   2.026   4.483  1.2196  0.4998  0.2507
 2467SOL    MW4 9943   4.138   2.006   4.558  0.4697 -0.7677  0.3214
 2468SOL     OW 9944   3.562   1.551   4.624 -0.6236 -0.0614  0.1689
 2468SOL    HW2 9945   3.640   1.590   4.586 -2.1340  1.4980 -1.4796
 2468SOL    HW3 9946   3.572   1.457   4.610  0.4618  0.2191 -0.9692
 2468SOL    MW4 9947   3.573   1.544   4.617 -0.6795  0.1814 -0.1988
 2469SOL     OW 9948   3.365   4.592   4.169 -0.1522 -0.5363  0.1330
 2469SOL    HW2 9949   3.288   4.547   4.204  1.3916 -1.7352  2.0944
 2469SOL    HW3 9950   3.346   4.685   4.182 -1.0343 -0.8364  1.0916
 2469SOL    MW4 9951   3.352   4.598   4.176 -0.0648 -0.7334  0.5174
 2470SOL     OW 9952   0.823   3.813   4.451 -0.3112  0.0071  0.2853
 2470SOL    HW2 9953   0.747   3.871   4.456 -0.2894  0.1374 -0.8362
 2470SOL    HW3 9954   0.895   3.864   4.488 -0.5070  0.3266  0.2209
 2470SOL    MW4 9955   0.822   3.827   4.457 -0.3341  0.0663  0.1287
 2471SOL     OW 9956   1.670   2.412   4.121  0.3027 -0.4190 -0.0157
 2471SOL    HW2 9957   1.748   2.361   4.100  0.2193 -0.2802 -0.6925
 2471SOL    HW3 9958   1.685   2.446   4.209  1.2276  0.0286 -0.3428
 2471SOL    MW4 9959   1.682   2.410   4.130  0.4137 -0.3419 -0.1488
 2472SOL     OW 9960   2.208   3.477   3.869  0.9313  0.3936 -0.0010
 2472SOL    HW2 9961   2.289   3.517   3.837  1.7454 -2.0442 -1.1430
 2472SOL    HW3 9962   2.219   3.472   3.964  3.4078 -2.4413 -0.3408
 2472SOL    MW4 9963   2.220   3.481   3.877  1.3657 -0.3023 -0.1965
 2473SOL     OW 9964   4.025   2.976   4.780  0.6471  0.1240  0.4573
 2473SOL    HW2 9965   4.038   3.057   4.830 -0.1204  0.0290  0.8234
 2473SOL    HW3 9966   3.993   3.005   4.695 -0.7944  0.1486  1.0048
 2473SOL    MW4 9967   4.023   2.990   4.776  0.3562  0.1144  0.5779
 2474SOL     OW 9968   3.600   1.092   4.197  0.3038  0.5727 -0.4880
 2474SOL    HW2 9969   3.691   1.070   4.214 -0.0659 -0.6237 -0.0014
 2474SOL    HW3 9970   3.593   1.094   4.101  1.1106  1.8846 -0.5307
 2474SOL    MW4 9971   3.611   1.089   4.186  0.3617  0.5879 -0.4292
 2475SOL     OW 9972   0.186   1.439   4.513  0.4851  1.1604 -0.0618
 2475SOL    HW2 9973   0.167   1.528   4.544  1.0282  1.0428  0.6021
 2475SOL    HW3 9974   0.129   1.429   4.436 -1.0448  1.3586  1.0288
 2475SOL    MW4 9975   0.176   1.450   4.507  0.3549  1.1710  0.1693
 2476SOL     OW 9976   3.018   1.490   4.305  0.2953  0.3664  0.7726
 2476SOL    HW2 9977   3.024   1.532   4.391  0.3605  1.6905  0.1231
 2476SOL    HW3 9978   3.105   1.452   4.292  0.3523  0.3436  1.1953
 2476SOL    MW4 9979   3.030   1.490   4.315  0.3114  0.5381  0.7429
 2477SOL     OW 9980   3.565   4.234   4.096 -0.0035  0.1355 -0.2070
 2477SOL    HW2 9981   3.499   4.179   4.139 -0.9070  0.8454 -0.6582
 2477SOL    HW3 9982   3.584   4.303   4.160  0.9019 -0.5198  0.2380
 2477SOL    MW4 9983   3.558   4.236   4.110 -0.0033  0.1435 -0.2079
 2478SOL     OW 9984   0.595   4.376   4.464  0.0044  0.1395  0.0699
 2478SOL    HW2 9985   0.548   4.452   4.430  0.1375 -0.6884 -2.0079
 2478SOL    HW3 9986   0.677   4.373   4.414  0.9633 -0.1329  1.6193
 2478SOL    MW4 9987   0.600   4.385   4.453  0.1485 -0.0052  0.0005
 2479SOL     OW 9988   1.401   0.604   4.300 -0.1410  0.4279  0.1470
 2479SOL    HW2 9989   1.422   0.568   4.386 -0.4444  1.4814  0.6764
 2479SOL    HW3 9990   1.479   0.652   4.273  0.8766 -1.9742 -1.3059
 2479SOL    MW4 9991   1.414   0.606   4.308 -0.0466  0.2500  0.0253
 2480SOL     OW 9992   2.714   3.660   4.185 -0.1333 -0.0742  0.0729
 2480SOL    HW2 9993   2.717   3.679   4.279 -0.0967  2.1457 -0.3528
 2480SOL    HW3 9994   2.705   3.565   4.180  0.7352 -0.3015  2.3059
 2480SOL    MW4 9995   2.713   3.650   4.197 -0.0136  0.1888  0.3114
 2481SOL     OW 9996   1.596   3.902   4.226  0.5171  0.0597 -0.1389
 2481SOL    HW2 9997   1.653   3.864   4.293 -0.4666  0.7337  1.1109
 2481SOL    HW3 9998   1.514   3.852   4.233  0.1576  0.6115 -0.3322
 2481SOL    MW4 9999   1.593   3.891   4.236  0.3399  0.2215  0.0000
 2482SOL     OW10000   3.835   3.915   4.623 -0.0676  0.0775 -0.1773
 2482SOL    HW210001   3.823   3.905   4.718 -1.5533 -0.8957 -0.4544
 2482SOL    HW310002   3.924   3.886   4.607  0.2928  0.5119  0.9545
 2482SOL    MW410003   3.845   3.910   4.634 -0.2158  0.0069 -0.0639
 2483SOL     OW10004   1.071   0.341   4.568  0.6465  0.1271  0.2408
 2483SOL    HW210005   1.105   0.419   4.611  1.5353 -0.4328  0.5626
 2483SOL    HW310006   1.146   0.306   4.520  0.5688 -1.1920  1.0593
 2483SOL    MW410007   1.085   0.346   4.567  0.7534 -0.1208  0.3915
 2484SOL     OW10008   1.331   1.947   3.948  0.2468 -0.2481  0.3182
 2484SOL    HW210009   1.263   1.995   3.901  0.0457 -1.7724 -0.9982
 2484SOL    HW310010   1.411   1.997   3.931 -0.1206  0.1623 -0.2227
 2484SOL    MW410011   1.333   1.960   3.939  0.1718 -0.3951  0.0732
 2485SOL     OW10012   2.518   0.453   3.785  0.0134  0.3227 -0.3784
 2485SOL    HW210013   2.581   0.404   3.837  0.9320 -1.9197 -3.4851
 2485SOL    HW310014   2.433   0.429   3.821  0.7130  0.5686  1.4931
 2485SOL    MW410015   2.515   0.444   3.797  0.2267  0.0593 -0.5414
 2486SOL     OW10016   3.592   2.049   4.227  0.0844  0.1048  0.0651
 2486SOL    HW210017   3.552   2.039   4.313  1.1874 -0.1332  0.5525
 2486SOL    HW310018   3.610   1.960   4.198  0.9736  0.2453  0.1820
 2486SOL    MW410019   3.589   2.036   4.235  0.3474  0.0918  0.1454
 2487SOL     OW10020   0.290   3.337   4.179  0.0491 -0.3628  0.1620
 2487SOL    HW210021   0.215   3.388   4.147  0.1701  0.3254  0.9547
 2487SOL    HW310022   0.366   3.391   4.159  0.1450 -0.0194  1.3980
 2487SOL    MW410023   0.290   3.351   4.172  0.0777 -0.2270  0.4292
 2488SOL     OW10024   1.771   0.999   4.590 -0.1913 -0.2462  0.0382
 2488SOL    HW210025   1.858   1.022   4.559 -0.5103 -0.6793 -1.1847
 2488SOL    HW310026   1.713   1.063   4.549 -0.5033 -0.2501  0.4689
 2488SOL    MW410027   1.775   1.010   4.581 -0.2745 -0.3039 -0.0663
 2489SOL     OW10028   1.874   3.308   4.640  0.1081 -0.1735  0.4003
 2489SOL    HW210029   1.792   3.329   4.684  0.4828  0.3955  0.8294
 2489SOL    HW310030   1.902   3.391   4.602  1.1984 -0.0715  1.4358
 2489SOL    MW410031   1.867   3.322   4.641  0.3014 -0.0846  0.5937
 2490SOL     OW10032   3.773   3.305   4.981  0.5919  0.1735  0.5705
 2490SOL    HW210033   3.783   3.285   5.073  0.3478  0.6627  0.7101
 2490SOL    HW310034   3.801   3.397   4.973 -0.5956  0.5386  0.3952
 2490SOL    MW410035   3.778   3.315   4.992  0.4032  0.2861  0.5655
 2491SOL     OW10036   2.082   1.728   4.342 -0.1457  0.2976  0.2609
 2491SOL    HW210037   2.104   1.706   4.433 -0.1820  1.4395  0.5548
 2491SOL    HW310038   2.104   1.821   4.334 -1.9508  0.6943 -0.3407
 2491SOL    MW410039   2.088   1.738   4.353 -0.3886  0.5007  0.2208
 2492SOL     OW10040   2.627   1.052   4.518 -0.0003 -0.1150 -0.2221
 2492SOL    HW210041   2.589   1.055   4.430 -2.4519 -0.1976  0.7929
 2492SOL    HW310042   2.628   0.959   4.540  1.3149 -0.1581 -0.4422
 2492SOL    MW410043   2.622   1.040   4.509 -0.1502 -0.1316 -0.1173
 2493SOL     OW10044   3.856   1.032   4.264  0.0426 -0.2393 -0.0699
 2493SOL    HW210045   3.850   0.938   4.249 -0.1579 -0.2545  0.1063
 2493SOL    HW310046   3.919   1.063   4.198  0.6919 -0.6144  0.3642
 2493SOL    MW410047   3.864   1.024   4.253  0.1018 -0.2908  0.0110
 2494SOL     OW10048   0.442   4.165   4.425  0.2967 -0.0197  0.2756
 2494SOL    HW210049   0.495   4.243   4.442  0.7404 -0.4311  0.7991
 2494SOL    HW310050   0.423   4.169   4.331 -1.1001  1.6085  0.5896
 2494SOL    MW410051   0.446   4.176   4.415  0.1709  0.1411  0.3862
 2495SOL     OW10052   2.374   2.432   4.344  0.1066  0.1298  0.0729
 2495SOL    HW210053   2.311   2.361   4.355 -1.0474  0.7824 -2.0982
 2495SOL    HW310054   2.423   2.408   4.265  1.0940  0.7397  0.4937
 2495SOL    MW410055   2.372   2.419   4.335  0.0846  0.2964 -0.1578
 2496SOL     OW10056   0.650   0.007   4.709 -0.5777 -0.2490  0.1766
 2496SOL    HW210057   0.641  -0.076   4.757  1.0216 -0.4662  0.1441
 2496SOL    HW310058   0.745   0.018   4.699 -0.7373  1.9609  0.8343
 2496SOL    MW410059   0.661  -0.002   4.714 -0.3878  0.0138  0.2589
 2497SOL     OW10060   2.145   1.686   4.607  0.0661 -0.8977  0.3138
 2497SOL    HW210061   2.234   1.688   4.641  0.6459 -0.3852 -1.1862
 2497SOL    HW310062   2.111   1.774   4.622 -0.7130 -1.5123  2.2201
 2497SOL    MW410063   2.152   1.698   4.613  0.0398 -0.9112  0.3676
 2498SOL     OW10064   1.459   3.407   4.539  0.4581  0.1868 -0.1557
 2498SOL    HW210065   1.392   3.338   4.533  0.6773 -0.0676  0.3165
 2498SOL    HW310066   1.504   3.403   4.454 -1.1371  1.4092 -1.0859
 2498SOL    MW410067   1.456   3.397   4.527  0.2766  0.3147 -0.2160
 2499SOL     OW10068   3.584   3.803   4.568 -0.7095  0.1400 -0.2912
 2499SOL    HW210069   3.665   3.853   4.575 -0.4582 -0.2967  0.0005
 2499SOL    HW310070   3.610   3.713   4.588 -1.4463  0.1572  0.8131
 2499SOL    MW410071   3.598   3.798   4.572 -0.7737  0.0849 -0.1068
 2500SOL     OW10072   0.245   2.742   4.578 -0.0072 -0.1627  0.2459
 2500SOL    HW210073   0.164   2.791   4.564 -0.0080 -0.2705 -0.1294
 2500SOL    HW310074   0.303   2.803   4.622  0.5680  0.7118 -1.6655
 2500SOL    MW410075   0.242   2.756   4.582  0.0686 -0.0613 -0.0553
 2501SOL     OW10076   4.463   4.233   4.151  0.2030 -0.2879  0.0630
 2501SOL    HW210077   4.490   4.242   4.060  0.6825 -0.6379  0.1655
 2501SOL    HW310078   4.470   4.321   4.187 -0.6682 -0.0185 -0.4214
 2501SOL    MW410079   4.468   4.245   4.144  0.1512 -0.2990  0.0124
 2502SOL     OW10080   2.716   0.637   4.565 -0.3006 -0.0080  0.7721
 2502SOL    HW210081   2.792   0.694   4.581 -1.0290  1.0469  0.5829
 2502SOL    HW310082   2.641   0.691   4.590 -1.0012 -0.9444  0.6922
 2502SOL    MW410083   2.716   0.652   4.570 -0.4890  0.0076  0.7362
 2503SOL     OW10084   2.698   0.307   3.913  0.0385  0.3755 -0.7193
 2503SOL    HW210085   2.709   0.217   3.883  1.8905  0.8751 -1.6565
 2503SOL    HW310086   2.689   0.300   4.008 -0.9024 -0.8630 -0.8805
 2503SOL    MW410087   2.698   0.294   3.922  0.1588  0.2780 -0.8640
 2504SOL     OW10088   4.136   3.265   4.263 -0.9089 -0.3169  0.0959
 2504SOL    HW210089   4.141   3.333   4.196  0.1204 -0.5492 -0.0822
 2504SOL    HW310090   4.101   3.188   4.217 -0.5187 -0.3783 -0.1060
 2504SOL    MW410091   4.132   3.264   4.248 -0.7215 -0.3557  0.0458
 2505SOL     OW10092   1.827   3.517   4.205 -0.6047  0.4235 -0.4088
 2505SOL    HW210093   1.751   3.461   4.224  0.4340 -0.5690  0.9005
 2505SOL    HW310094   1.903   3.464   4.229  0.4784  1.7193 -0.9108
 2505SOL    MW410095   1.827   3.502   4.211 -0.3247  0.4637 -0.3018
 2506SOL     OW10096   3.044   1.117   4.615 -0.1605 -0.0721 -0.1272
 2506SOL    HW210097   3.112   1.178   4.588 -0.9892  0.3121 -1.4175
 2506SOL    HW310098   2.966   1.172   4.625 -0.5323 -0.6708  0.2944
 2506SOL    MW410099   3.042   1.132   4.613 -0.3190 -0.1004 -0.2413
 2507SOL     OW10100   4.096   3.814   4.586  0.0767  0.3205  0.3164
 2507SOL    HW210101   4.105   3.739   4.645  1.5286 -0.2188 -0.5654
 2507SOL    HW310102   4.092   3.775   4.499  1.0429  1.2712 -0.1649
 2507SOL    MW410103   4.096   3.799   4.583  0.3963  0.3746  0.1364
 2508SOL     OW10104   1.422   2.725   4.403 -0.1295  0.3895 -0.0401
 2508SOL    HW210105   1.506   2.764   4.378  0.4366 -1.0159 -0.3584
 2508SOL    HW310106   1.442   2.671   4.479 -0.6032 -0.5611 -0.5877
 2508SOL    MW410107   1.435   2.723   4.410 -0.1173  0.0787 -0.1545
 2509SOL     OW10108   2.317   2.299   4.010  0.2373 -0.4996 -0.3688
 2509SOL    HW210109   2.403   2.332   4.035  0.1540  0.1890 -0.9722
 2509SOL    HW310110   2.297   2.231   4.075  0.9153 -0.1562  0.1996
 2509SOL    MW410111   2.325   2.294   4.022  0.3159 -0.3633 -0.3734
 2510SOL     OW10112   2.276   0.368   4.170 -0.1582  0.1723  0.5138
 2510SOL    HW210113   2.280   0.380   4.075  0.8429 -0.0212  0.5281
 2510SOL    HW310114   2.268   0.457   4.204 -0.0962  0.2744  0.2670
 2510SOL    MW410115   2.276   0.381   4.162 -0.0181  0.1602  0.4830
 2511SOL     OW10116   2.779   1.088   4.162 -0.2878 -0.2113  0.6721
 2511SOL    HW210117   2.688   1.058   4.166 -0.8931  1.2673 -1.3603
 2511SOL    HW310118   2.780   1.167   4.216  0.0593 -0.8287  1.5833
 2511SOL    MW410119   2.767   1.095   4.170 -0.3219 -0.0978  0.5240
 2512SOL     OW10120   3.527   1.334   4.278  0.2460 -0.0935  0.2701
 2512SOL    HW210121   3.537   1.247   4.238  1.6332 -0.1558  0.7586
 2512SOL    HW310122   3.592   1.389   4.235  0.9374  0.1376  1.5748
 2512SOL    MW410123   3.537   1.330   4.267  0.5202 -0.0713  0.5069
 2513SOL     OW10124   2.407   1.206   4.622  0.0104 -0.4176 -0.6591
 2513SOL    HW210125   2.474   1.149   4.585  0.0247 -0.2427 -0.9067
 2513SOL    HW310126   2.452   1.289   4.638  0.1782 -0.7138  0.4129
 2513SOL    MW410127   2.422   1.210   4.619  0.0343 -0.4337 -0.5503
 2514SOL     OW10128   2.287   3.745   4.286 -0.2318 -0.2026  0.1323
 2514SOL    HW210129   2.330   3.719   4.368  0.3830 -1.5396 -0.5802
 2514SOL    HW310130   2.360   3.765   4.227 -0.5969 -1.5802 -0.8071
 2514SOL    MW410131   2.302   3.744   4.289 -0.1988 -0.5608 -0.0854
 2515SOL     OW10132   2.016   1.045   4.482 -0.3193 -0.3817  0.0876
 2515SOL    HW210133   2.040   0.973   4.540  0.7439 -0.1828 -0.1082
 2515SOL    HW310134   2.082   1.112   4.498 -0.7140  0.1482 -0.4866
 2515SOL    MW410135   2.028   1.044   4.492 -0.2310 -0.2856 -0.0138
 2516SOL     OW10136   1.049   2.358   3.904 -0.4601  0.2603 -0.1910
 2516SOL    HW210137   1.139   2.373   3.875 -0.0681  0.6116  1.1673
 2516SOL    HW310138   1.054   2.359   4.000 -1.5007 -2.0867 -0.0779
 2516SOL    MW410139   1.062   2.360   3.913 -0.5456 -0.0029  0.0029
 2517SOL     OW10140   3.601   0.622   4.276  0.6028  0.1560 -0.1822
 2517SOL    HW210141   3.609   0.614   4.371 -1.0734  0.9514  0.0585
 2517SOL    HW310142   3.564   0.539   4.247  0.1595  0.2816  0.0112
 2517SOL    MW410143   3.597   0.610   4.285  0.3231  0.2775 -0.1249
 2518SOL     OW10144   0.639   2.255   4.406 -0.0908 -0.2462 -0.3347
 2518SOL    HW210145   0.547   2.236   4.389 -0.1690 -0.3670  0.2298
 2518SOL    HW310146   0.641   2.289   4.495  0.4925 -0.8542 -0.1130
 2518SOL    MW410147   0.627   2.257   4.416 -0.0241 -0.3424 -0.2308
 2519SOL     OW10148   3.874   1.706   4.269  0.5793 -0.2750 -0.2835
 2519SOL    HW210149   3.855   1.698   4.363  0.5863 -0.8729 -0.3350
 2519SOL    HW310150   3.798   1.752   4.233  0.1790 -0.8151 -0.1337
 2519SOL    MW410151   3.862   1.711   4.277  0.5276 -0.4252 -0.2704
 2520SOL     OW10152   1.117   2.785   3.736 -0.0938  0.1460 -0.0372
 2520SOL    HW210153   1.190   2.754   3.789 -0.1570  1.7290  1.0132
 2520SOL    HW310154   1.041   2.736   3.768  0.0598  0.3258  0.5998
 2520SOL    MW410155   1.117   2.774   3.747 -0.0818  0.3784  0.1855
 2521SOL     OW10156   3.749   1.083   4.554 -0.5681 -0.0027 -0.2575
 2521SOL    HW210157   3.766   1.066   4.461 -0.7397 -1.8197  0.0182
 2521SOL    HW310158   3.671   1.138   4.554 -1.5070 -1.2896 -1.1658
 2521SOL    MW410159   3.741   1.088   4.542 -0.7145 -0.4121 -0.3414
 2522SOL     OW10160   1.359   2.226   4.202 -0.2364 -0.2943  0.1348
 2522SOL    HW210161   1.276   2.268   4.225 -0.4980 -0.7930  0.1134
 2522SOL    HW310162   1.349   2.136   4.233 -0.7164 -1.0746 -2.2637
 2522SOL    MW410163   1.347   2.220   4.209 -0.3343 -0.4630 -0.1850
 2523SOL     OW10164   1.129   1.007   4.537  0.1107  0.0693  0.2008
 2523SOL    HW210165   1.204   1.067   4.542 -0.6518  0.9940  0.6338
 2523SOL    HW310166   1.053   1.064   4.530 -0.5781 -0.8680 -0.0784
 2523SOL    MW410167   1.129   1.022   4.537 -0.0809  0.0677  0.2213
 2524SOL     OW10168   1.581   0.744   3.887 -0.4827 -0.5036  0.0441
 2524SOL    HW210169   1.602   0.740   3.980 -1.3311 -1.6714  0.1972
 2524SOL    HW310170   1.657   0.788   3.847 -0.2971  0.3728  1.3212
 2524SOL    MW410171   1.594   0.749   3.894 -0.5701 -0.5420  0.2327
 2525SOL     OW10172   3.177   4.042   4.521  0.1825  0.0444 -0.0253
 2525SOL    HW210173   3.234   4.118   4.529 -0.5627  0.5626  0.4036
 2525SOL    HW310174   3.188   3.994   4.603 -1.2889  1.0515  0.7727
 2525SOL    MW410175   3.186   4.045   4.533 -0.1099  0.2456  0.1364
 2526SOL     OW10176   0.768   3.490   4.127 -0.0381  0.1235 -0.2413
 2526SOL    HW210177   0.798   3.497   4.036  0.5694  2.1820  0.0892
 2526SOL    HW310178   0.819   3.556   4.174 -2.0013  0.6864  1.1499
 2526SOL    MW410179   0.779   3.500   4.121 -0.2170  0.4694 -0.0143
 2527SOL     OW10180   4.379   2.597   4.213  0.1307 -0.1892  0.0428
 2527SOL    HW210181   4.397   2.600   4.119 -1.0171 -1.9439 -0.2506
 2527SOL    HW310182   4.369   2.689   4.238  0.6928  0.3154 -1.4882
 2527SOL    MW410183   4.380   2.610   4.204  0.0539 -0.3543 -0.1984
 2528SOL     OW10184   1.456   2.593   4.648 -0.0913 -0.5556  0.7352
 2528SOL    HW210185   1.548   2.576   4.669 -0.6077 -1.7135  2.0897
 2528SOL    HW310186   1.421   2.636   4.727 -0.4337  0.9471 -0.2089
 2528SOL    MW410187   1.463   2.597   4.661 -0.2047 -0.5102  0.7892
 2529SOL     OW10188   3.897   2.384   4.554 -0.1070  0.2138 -0.4413
 2529SOL    HW210189   3.832   2.435   4.602 -0.6811 -1.2447  0.3907
 2529SOL    HW310190   3.978   2.399   4.601 -0.1319  0.8958 -0.6115
 2529SOL    MW410191   3.899   2.393   4.567 -0.1857  0.1113 -0.3543
 2530SOL     OW10192   3.840   0.487   4.614  0.0989 -0.4193 -0.4784
 2530SOL    HW210193   3.761   0.538   4.596 -0.8768 -1.9254 -0.5196
 2530SOL    HW310194   3.814   0.396   4.600  1.2639 -1.0970  1.5864
 2530SOL    MW410195   3.827   0.482   4.609  0.1240 -0.7074 -0.2117
 2531SOL     OW10196   1.063   1.576   4.168 -0.1745 -0.1997 -0.5381
 2531SOL    HW210197   1.070   1.647   4.232  1.4687 -1.7269  1.0311
 2531SOL    HW310198   1.000   1.515   4.206  0.5061 -0.9257 -0.5598
 2531SOL    MW410199   1.056   1.578   4.181  0.1320 -0.4970 -0.3343
 2532SOL     OW10200   0.923   0.063   4.617 -0.1772 -0.1682 -0.4859
 2532SOL    HW210201   0.957   0.150   4.595  0.9720  0.2034  2.4797
 2532SOL    HW310202   0.996   0.003   4.601 -1.0755 -0.6747 -2.8537
 2532SOL    MW410203   0.937   0.067   4.612 -0.1442 -0.1860 -0.4072
 2533SOL     OW10204   1.214   0.535   4.679 -0.0811 -0.2958  0.5157
 2533SOL    HW210205   1.246   0.520   4.768  0.4213 -0.5344  0.2985
 2533SOL    HW310206   1.288   0.514   4.623 -0.2347  0.3633  0.0599
 2533SOL    MW410207   1.228   0.530   4.683 -0.0350 -0.2404  0.4268
 2534SOL     OW10208   3.155   1.654   3.811  0.3104  0.0606  0.1142
 2534SOL    HW210209   3.218   1.595   3.852  0.6277  0.4015  0.1253
 2534SOL    HW310210   3.069   1.622   3.840  0.4457 -0.7764 -0.4041
 2534SOL    MW410211   3.152   1.642   3.820  0.3700 -0.0049  0.0474
 2535SOL     OW10212   1.602   1.182   4.459 -0.2575 -0.0366 -0.0017
 2535SOL    HW210213   1.592   1.125   4.383 -0.6395  0.8912 -0.6500
 2535SOL    HW310214   1.515   1.182   4.500 -0.2392  0.0270  0.0370
 2535SOL    MW410215   1.589   1.174   4.454 -0.3057  0.0942 -0.0820
 2536SOL     OW10216   3.095   3.840   4.348 -0.0160  0.0556  0.5085
 2536SOL    HW210217   3.181   3.838   4.306 -0.9772  3.0906 -1.8189
 2536SOL    HW310218   3.103   3.906   4.416 -0.6421  0.6897 -0.0335
 2536SOL    MW410219   3.107   3.848   4.351 -0.2255  0.5398  0.1297
 2537SOL     OW10220   1.852   2.292   4.673  0.0395  0.3318 -0.0950
 2537SOL    HW210221   1.886   2.282   4.584 -0.4191  0.4965 -0.2898
 2537SOL    HW310222   1.822   2.383   4.676 -0.2809  0.2166  0.1151
 2537SOL    MW410223   1.853   2.303   4.662 -0.0634  0.3381 -0.0935
 2538SOL     OW10224   2.303   2.691   4.228 -0.2006  0.2070  0.6805
 2538SOL    HW210225   2.273   2.618   4.281  0.9332  0.1116  1.2102
 2538SOL    HW310226   2.396   2.674   4.214 -0.5393  0.0928 -1.5723
 2538SOL    MW410227   2.312   2.679   4.233 -0.0956  0.1791  0.4535
 2539SOL     OW10228   1.613   0.040   4.590 -0.0036  0.2179 -0.3026
 2539SOL    HW210229   1.671  -0.034   4.606  0.5155  0.6143 -0.3706
 2539SOL    HW310230   1.530  -0.001   4.562 -0.5778 -0.4603  2.2142
 2539SOL    MW410231   1.609   0.024   4.588 -0.0108  0.1807  0.0200
 2540SOL     OW10232   0.224   0.216   4.605 -0.2448 -0.0180  0.5184
 2540SOL    HW210233   0.298   0.264   4.640  0.4680 -0.9736  0.3307
 2540SOL    HW310234   0.217   0.245   4.514  0.3028 -0.4054  0.3506
 2540SOL    MW410235   0.232   0.226   4.597 -0.0785 -0.1952  0.4711
 2541SOL     OW10236   1.827   2.823   4.180  0.2056 -0.0896  0.2695
 2541SOL    HW210237   1.853   2.767   4.253  2.2966  0.4631 -0.0357
 2541SOL    HW310238   1.878   2.903   4.190 -0.4223  0.5038 -1.0893
 2541SOL    MW410239   1.837   2.826   4.191  0.3988  0.0618  0.0501
 2542SOL     OW10240   2.048   0.235   4.286  0.0786  0.7814 -0.0059
 2542SOL    HW210241   2.125   0.273   4.243  1.0398 -0.6252  0.4505
 2542SOL    HW310242   2.035   0.151   4.242  0.2424 -0.0506  1.5044
 2542SOL    MW410243   2.057   0.229   4.274  0.2270  0.4861  0.2542
 2543SOL     OW10244   1.327   1.664   4.634  0.1928  0.2242 -0.2516
 2543SOL    HW210245   1.351   1.691   4.723  0.0187  0.9600 -0.4333
 2543SOL    HW310246   1.300   1.744   4.590  2.4895  0.2785 -1.6931
 2543SOL    MW410247   1.327   1.678   4.640  0.4729  0.3287 -0.4659
 2544SOL     OW10248   1.566   3.051   3.929 -0.1604 -0.1692 -0.4269
 2544SOL    HW210249   1.585   2.974   3.876  1.0862  0.3771 -0.7796
 2544SOL    HW310250   1.634   3.114   3.906 -0.5702  0.6696  0.6081
 2544SOL    MW410251   1.577   3.049   3.919 -0.0501  0.0134 -0.3369
 2545SOL     OW10252   2.389   1.806   4.365  0.0534  0.3430  0.0121
 2545SOL    HW210253   2.315   1.866   4.366 -0.1142  0.1339  0.9756
 2545SOL    HW310254   2.461   1.857   4.326 -0.5715  0.5599 -0.8752
 2545SOL    MW410255   2.389   1.821   4.360 -0.0513  0.3439  0.0224
 2546SOL     OW10256   3.829   2.758   4.458  0.2876 -0.4237 -0.0603
 2546SOL    HW210257   3.750   2.804   4.431 -0.5108 -1.3668  0.6489
 2546SOL    HW310258   3.863   2.720   4.376 -0.4895 -0.7747 -0.2225
 2546SOL    MW410259   3.823   2.759   4.443  0.0799 -0.5944  0.0124
 2547SOL     OW10260   3.377   1.224   3.782  0.2859  0.2178 -0.2614
 2547SOL    HW210261   3.443   1.170   3.826 -1.4714 -1.5290  0.3176
 2547SOL    HW310262   3.383   1.309   3.825  0.7242 -0.5461  1.2285
 2547SOL    MW410263   3.386   1.228   3.793  0.1118 -0.1134  0.0114
 2548SOL     OW10264   2.229   4.210   4.156 -0.1670  0.2166 -0.2414
 2548SOL    HW210265   2.304   4.167   4.196 -0.4053 -1.3277 -1.4221
 2548SOL    HW310266   2.152   4.167   4.195 -0.4077 -0.1122 -1.0735
 2548SOL    MW410267   2.229   4.199   4.166 -0.2301 -0.0305 -0.5069
 2549SOL     OW10268   1.270   2.372   4.718 -0.3153 -0.5595  0.0090
 2549SOL    HW210269   1.229   2.434   4.779  0.4871 -1.1516  1.1616
 2549SOL    HW310270   1.355   2.410   4.699  0.2167 -1.3431  0.7919
 2549SOL    MW410271   1.276   2.385   4.724 -0.1394 -0.7408  0.2646
 2550SOL     OW10272   1.551   3.125   4.388 -0.0942  0.0928 -0.1102
 2550SOL    HW210273   1.547   3.113   4.483  0.4769  0.2205 -0.0623
 2550SOL    HW310274   1.523   3.042   4.351 -0.9819  0.2648  0.1628
 2550SOL    MW410275   1.547   3.113   4.396 -0.1360  0.1323 -0.0677
 2551SOL     OW10276   1.211   4.179   4.518 -0.0017  0.1645 -0.0780
 2551SOL    HW210277   1.148   4.250   4.533  0.8118  1.4079 -2.3833
 2551SOL    HW310278   1.296   4.218   4.539  0.3104 -0.6076  0.0982
 2551SOL    MW410279   1.214   4.193   4.523  0.1467  0.2270 -0.3591
 2552SOL     OW10280   3.236   1.305   4.565  0.0686 -0.2419  0.1732
 2552SOL    HW210281   3.188   1.386   4.581 -0.1309 -0.1639 -0.8081
 2552SOL    HW310282   3.251   1.304   4.471  1.1536 -0.7446  0.3447
 2552SOL    MW410283   3.231   1.315   4.555  0.1853 -0.2980  0.0668
 2553SOL     OW10284   0.023   1.386   4.268  0.2005 -0.1791 -0.1564
 2553SOL    HW210285  -0.053   1.436   4.236 -0.2716 -0.4346  0.5584
 2553SOL    HW310286   0.098   1.432   4.231 -0.2836  0.2792 -0.5962
 2553SOL    MW410287   0.023   1.399   4.259  0.0744 -0.1523 -0.1206
 2554SOL     OW10288   1.090   2.325   4.207  0.1559  0.1758 -0.1822
 2554SOL    HW210289   1.105   2.414   4.237  0.7408 -0.5716  1.8076
 2554SOL    HW310290   1.013   2.295   4.256  0.1639 -0.5315 -0.5906
 2554SOL    MW410291   1.082   2.333   4.217  0.2341 -0.0162  0.0267
 2555SOL     OW10292   2.253   1.142   3.862 -0.1623 -0.0250  0.0375
 2555SOL    HW210293   2.254   1.130   3.957 -1.4857 -0.2908  0.0219
 2555SOL    HW310294   2.268   1.054   3.827 -1.0475 -0.1660 -0.0029
 2555SOL    MW410295   2.255   1.128   3.870 -0.4537 -0.0787  0.0300
 2556SOL     OW10296   1.789   1.124   3.830 -0.6149 -0.1148  0.1400
 2556SOL    HW210297   1.725   1.193   3.818 -1.6102 -1.2081 -1.0252
 2556SOL    HW310298   1.873   1.169   3.836 -1.2482  1.1895 -0.6159
 2556SOL    MW410299   1.792   1.139   3.829 -0.8297 -0.0868 -0.1137
 2557SOL     OW10300   3.802   3.569   4.860  0.1269  0.1975  0.4325
 2557SOL    HW210301   3.777   3.660   4.877  0.0365  0.6134 -1.6912
 2557SOL    HW310302   3.889   3.575   4.821  1.1193 -0.8193  2.4534
 2557SOL    MW410303   3.810   3.582   4.857  0.2458  0.1180  0.4187
 2558SOL     OW10304   3.340   3.855   4.217  0.0815  0.5095 -0.3021
 2558SOL    HW210305   3.357   3.857   4.123  0.7287 -0.5647 -0.2156
 2558SOL    HW310306   3.412   3.802   4.254 -1.2443 -0.7511  0.5507
 2558SOL    MW410307   3.352   3.848   4.210 -0.0079  0.2015 -0.1783
 2559SOL     OW10308   4.352   3.000   4.705  0.3182 -0.1907 -0.5483
 2559SOL    HW210309   4.311   3.024   4.622 -0.3197  2.9254  0.5875
 2559SOL    HW310310   4.278   2.983   4.764  0.6992  1.1664  0.3362
 2559SOL    MW410311   4.337   3.001   4.702  0.2847  0.3996 -0.2813
 2560SOL     OW10312   3.987   4.384   4.516 -0.0694 -0.3725  0.1093
 2560SOL    HW210313   4.073   4.342   4.525 -0.4178 -0.8804  1.1493
 2560SOL    HW310314   3.925   4.311   4.516 -0.5335  0.0209 -0.1709
 2560SOL    MW410315   3.991   4.368   4.517 -0.1767 -0.3877  0.2098
 2561SOL     OW10316   1.921   2.370   3.800 -0.4624  0.2458 -0.2090
 2561SOL    HW210317   1.879   2.395   3.718  1.8721 -1.5932 -2.0306
 2561SOL    HW310318   2.013   2.393   3.789  0.0431 -0.7752  1.5576
 2561SOL    MW410319   1.928   2.376   3.788 -0.0877 -0.1316 -0.2162
 2562SOL     OW10320   4.152   2.472   4.318 -0.1558  0.0085 -0.0179
 2562SOL    HW210321   4.147   2.390   4.268  0.9652 -0.0412 -0.0557
 2562SOL    HW310322   4.237   2.510   4.295 -0.1476  0.5871  0.9215
 2562SOL    MW410323   4.162   2.466   4.308 -0.0067  0.0782  0.1011
 2563SOL     OW10324   3.798   3.103   4.131 -0.1871 -0.5820  0.7527
 2563SOL    HW210325   3.775   3.190   4.162 -1.2001  0.2670 -2.1715
 2563SOL    HW310326   3.738   3.044   4.177 -1.3083  0.5730  0.7879
 2563SOL    MW410327   3.787   3.107   4.141 -0.4687 -0.3176  0.3719
 2564SOL     OW10328   4.014   1.224   4.500 -0.1246 -0.4172 -0.2778
 2564SOL    HW210329   3.932   1.195   4.539  0.0618  0.7042  1.0090
 2564SOL    HW310330   4.072   1.148   4.506 -0.0666 -0.2340  1.8032
 2564SOL    MW410331   4.011   1.210   4.506 -0.0920 -0.2451  0.1664
 2565SOL     OW10332   2.182   2.444   3.806  0.3872 -0.4622  0.3445
 2565SOL    HW210333   2.234   2.381   3.856  0.0449 -0.0898  1.1825
 2565SOL    HW310334   2.193   2.527   3.853 -0.0756 -0.1464 -0.1015
 2565SOL    MW410335   2.190   2.446   3.819  0.2809 -0.3715  0.3963
 2566SOL     OW10336   0.458   2.913   4.675 -0.0854  0.5551 -0.0859
 2566SOL    HW210337   0.472   2.976   4.604  1.3840 -2.2233 -2.3737
 2566SOL    HW310338   0.546   2.886   4.700 -0.6635  0.3251  1.7292
 2566SOL    MW410339   0.472   2.918   4.669  0.0322  0.1585 -0.1483
 2567SOL     OW10340   1.015   0.736   4.584 -0.4521  0.3488  0.5124
 2567SOL    HW210341   1.084   0.671   4.599 -1.2398 -0.6469 -0.0693
 2567SOL    HW310342   1.061   0.819   4.579  0.5918 -0.1679  1.1899
 2567SOL    MW410343   1.030   0.738   4.586 -0.4183  0.1493  0.5250
 2568SOL     OW10344   4.099   0.501   4.551  0.0426  0.2689  0.0153
 2568SOL    HW210345   4.011   0.468   4.570  0.4580 -1.0574 -0.3284
 2568SOL    HW310346   4.099   0.515   4.456 -0.5703  2.6061  0.3205
 2568SOL    MW410347   4.087   0.498   4.541  0.0162  0.4022  0.0100
 2569SOL     OW10348   2.872   3.025   3.955 -0.0240 -0.1706 -0.1643
 2569SOL    HW210349   2.878   2.992   4.045  0.4248  1.1986  0.3103
 2569SOL    HW310350   2.889   2.947   3.901  0.0614 -0.9305  0.9266
 2569SOL    MW410351   2.875   3.010   3.960  0.0467 -0.0904  0.0424
 2570SOL     OW10352   3.069   3.422   4.194 -0.0485  0.1995 -0.3468
 2570SOL    HW210353   2.997   3.361   4.209 -0.7457  1.1846  0.4037
 2570SOL    HW310354   3.056   3.491   4.259  1.4692  0.4861 -0.3253
 2570SOL    MW410355   3.058   3.423   4.204  0.0594  0.3669 -0.2451
 2571SOL     OW10356   4.059   1.869   3.842 -0.6396  0.0379  0.0169
 2571SOL    HW210357   4.128   1.935   3.832 -0.5867 -0.1059 -0.5932
 2571SOL    HW310358   4.067   1.841   3.933  0.2404 -0.1168 -0.0956
 2571SOL    MW410359   4.069   1.874   3.853 -0.5164 -0.0014 -0.0784
 2572SOL     OW10360   1.739   2.806   4.563  1.2293  0.4325 -0.4686
 2572SOL    HW210361   1.701   2.887   4.598  0.6361 -1.0346  2.3909
 2572SOL    HW310362   1.834   2.820   4.570  1.1329  0.2134  1.7532
 2572SOL    MW410363   1.746   2.819   4.569  1.1384  0.2100  0.2012
 2573SOL     OW10364   0.602   1.752   4.333 -0.1702  0.1538  0.0547
 2573SOL    HW210365   0.639   1.693   4.268 -0.2883  1.9597 -1.6865
 2573SOL    HW310366   0.675   1.809   4.358 -0.8941  1.4977 -0.8396
 2573SOL    MW410367   0.617   1.751   4.328 -0.2813  0.5695 -0.2933
 2574SOL     OW10368   3.583   4.192   4.677 -0.2606  0.0293 -0.0571
 2574SOL    HW210369   3.567   4.286   4.683 -1.8030 -0.0178 -2.4677
 2574SOL    HW310370   3.655   4.184   4.615  0.6029 -0.3529  0.9789
 2574SOL    MW410371   3.590   4.203   4.670 -0.3502 -0.0277 -0.2384
 2575SOL     OW10372   2.209   4.466   4.262 -0.1266  0.2242 -0.1122
 2575SOL    HW210373   2.201   4.441   4.354  2.9538 -0.3836  0.0589
 2575SOL    HW310374   2.221   4.383   4.216 -0.5092  0.6143 -0.9205
 2575SOL    MW410375   2.210   4.452   4.268  0.2294  0.1955 -0.1960
 2576SOL     OW10376   0.429   0.350   4.237  0.0351  0.2824 -0.2956
 2576SOL    HW210377   0.408   0.351   4.143 -0.5665  0.7644 -0.1585
 2576SOL    HW310378   0.436   0.442   4.261  1.7497  0.1283 -0.1987
 2576SOL    MW410379   0.427   0.362   4.228  0.1820  0.3257 -0.2646
 2577SOL     OW10380   1.094   3.216   4.750 -0.5853  0.1638 -0.1792
 2577SOL    HW210381   1.049   3.298   4.772 -1.7934 -0.1095 -1.5003
 2577SOL    HW310382   1.023   3.154   4.732  0.3226 -1.1103  0.5611
 2577SOL    MW410383   1.079   3.219   4.750 -0.6249 -0.0405 -0.2561
 2578SOL     OW10384   2.217   2.950   4.245  0.2064  0.3363 -0.6029
 2578SOL    HW210385   2.261   2.864   4.243 -0.6457 -0.0891 -1.5011
 2578SOL    HW310386   2.279   3.009   4.202  0.4066 -0.0128 -0.7981
 2578SOL    MW410387   2.231   2.946   4.239  0.1206  0.2337 -0.7472
 2579SOL     OW10388   2.040   3.847   4.232  0.3147 -0.2122 -0.3132
 2579SOL    HW210389   2.127   3.812   4.248  0.3788  0.0037 -0.1865
 2579SOL    HW310390   2.031   3.848   4.137  0.4169 -0.3106 -0.3245
 2579SOL    MW410391   2.050   3.842   4.221  0.3366 -0.1967 -0.2980
 2580SOL     OW10392   0.347   1.810   4.601 -0.5113 -0.0837  0.0897
 2580SOL    HW210393   0.263   1.765   4.598  0.0911 -1.2173  0.0535
 2580SOL    HW310394   0.412   1.742   4.584  0.4146  0.7934  0.0318
 2580SOL    MW410395   0.344   1.795   4.598 -0.3096 -0.1174  0.0768
 2581SOL     OW10396   1.345   1.178   4.589 -0.1684 -0.1412 -0.0024
 2581SOL    HW210397   1.302   1.261   4.568  0.1554 -0.0197 -0.1880
 2581SOL    HW310398   1.355   1.180   4.684  1.1771  0.6886 -0.1539
 2581SOL    MW410399   1.341   1.189   4.598  0.0519 -0.0155 -0.0467
 2582SOL     OW10400   3.485   3.957   4.781  0.3677  0.0365  0.2302
 2582SOL    HW210401   3.512   3.900   4.709  1.7225  1.2461 -0.2395
 2582SOL    HW310402   3.518   4.044   4.758 -1.3235  0.9608  1.1244
 2582SOL    MW410403   3.493   3.961   4.769  0.3235  0.3183  0.2856
 2583SOL     OW10404   1.482   1.541   4.124  0.2465  0.5393  0.3085
 2583SOL    HW210405   1.496   1.553   4.030 -1.7331 -0.3376 -0.1243
 2583SOL    HW310406   1.560   1.496   4.155  0.6194  0.2500 -1.0461
 2583SOL    MW410407   1.494   1.537   4.116  0.0345  0.3855  0.0730
 2584SOL     OW10408   0.172   0.242   4.305  0.1176 -0.0608  0.1383
 2584SOL    HW210409   0.170   0.150   4.279 -0.0652 -0.1556  0.4732
 2584SOL    HW310410   0.260   0.272   4.284  0.8668 -0.8881  1.9460
 2584SOL    MW410411   0.183   0.234   4.299  0.1923 -0.1824  0.4215
 2585SOL     OW10412   2.903   3.854   4.135  0.4836  0.2274 -0.2337
 2585SOL    HW210413   2.963   3.837   4.208  0.7264  1.1959 -0.2011
 2585SOL    HW310414   2.845   3.778   4.134  0.9908 -0.1811  0.4555
 2585SOL    MW410415   2.903   3.842   4.145  0.5825  0.3014 -0.1383
 2586SOL     OW10416   0.483   3.585   4.542  0.1059  0.1202  0.2187
 2586SOL    HW210417   0.440   3.648   4.600  0.9429  0.3202  0.6466
 2586SOL    HW310418   0.425   3.510   4.540 -0.6073  0.6680  0.2107
 2586SOL    MW410419   0.470   3.584   4.550  0.1222  0.2191  0.2737
 2587SOL     OW10420   2.706   0.361   4.640 -0.1753  0.2608 -0.1240
 2587SOL    HW210421   2.707   0.455   4.621 -1.5829  0.2343 -0.3885
 2587SOL    HW310422   2.797   0.334   4.629  0.1707  1.5095 -0.4820
 2587SOL    MW410423   2.718   0.370   4.636 -0.3154  0.4221 -0.2065
 2588SOL     OW10424   2.949   0.251   4.575 -0.4263 -0.0784 -0.4499
 2588SOL    HW210425   2.928   0.161   4.596  2.1568 -0.4701  0.6449
 2588SOL    HW310426   2.935   0.257   4.480 -0.2248 -1.7516 -0.6054
 2588SOL    MW410427   2.945   0.240   4.565 -0.0587 -0.3508 -0.3262
 2589SOL     OW10428   2.645   0.293   4.203  0.9844 -0.0676  0.0367
 2589SOL    HW210429   2.639   0.382   4.237 -0.2729 -0.6685  1.4268
 2589SOL    HW310430   2.559   0.255   4.218  1.1634 -1.1657 -1.5790
 2589SOL    MW410431   2.633   0.300   4.209  0.8421 -0.2918  0.0072
 2590SOL     OW10432   3.818   3.086   3.855 -0.3268 -0.5035 -0.4430
 2590SOL    HW210433   3.838   3.085   3.948 -0.3198 -1.1087 -0.4516
 2590SOL    HW310434   3.727   3.118   3.851  0.6399  2.4195 -0.4189
 2590SOL    MW410435   3.809   3.090   3.867 -0.1984 -0.1976 -0.4406
 2591SOL     OW10436   4.025   1.355   4.237  0.1636  0.3823  0.6278
 2591SOL    HW210437   4.040   1.316   4.323  0.5490 -0.9681 -0.0291
 2591SOL    HW310438   4.104   1.405   4.219 -0.3676  1.5448  1.5189
 2591SOL    MW410439   4.037   1.356   4.246  0.1440  0.3575  0.6590
 2592SOL     OW10440   1.248   2.968   4.437 -0.1784 -0.1430 -0.1524
 2592SOL    HW210441   1.160   2.931   4.440  0.1991 -0.9735  1.0252
 2592SOL    HW310442   1.306   2.892   4.430  0.5747  0.2234  1.7600
 2592SOL    MW410443   1.244   2.953   4.436 -0.0292 -0.2041  0.2551
 2593SOL     OW10444   4.394   3.384   4.355 -0.0033  0.0782 -0.4209
 2593SOL    HW210445   4.435   3.435   4.285  0.2065 -1.0254 -1.1228
 2593SOL    HW310446   4.314   3.350   4.316 -0.6187  0.6432  0.3402
 2593SOL    MW410447   4.389   3.386   4.340 -0.0567  0.0074 -0.4134
 2594SOL     OW10448   3.071   2.211   4.445 -0.1062  0.5598 -0.3511
 2594SOL    HW210449   3.129   2.234   4.518  1.3855 -2.5571 -0.4617
 2594SOL    HW310450   2.983   2.212   4.483  0.6172 -0.6243  1.4095
 2594SOL    MW410451   3.067   2.214   4.460  0.1860 -0.0079 -0.1335
 2595SOL     OW10452   2.922   1.682   4.120 -0.1211  0.4646 -0.1266
 2595SOL    HW210453   2.952   1.645   4.203 -1.5973 -0.0593  0.1834
 2595SOL    HW310454   2.980   1.756   4.105  0.4910  0.2520  1.1077
 2595SOL    MW410455   2.934   1.687   4.129 -0.2351  0.3674  0.0768
 2596SOL     OW10456   4.475   4.477   4.252  0.3928 -0.3386  0.4702
 2596SOL    HW210457   4.547   4.539   4.243  1.3422 -1.4227  0.4869
 2596SOL    HW310458   4.479   4.449   4.344  0.3832 -0.9328  0.2888
 2596SOL    MW410459   4.485   4.482   4.263  0.5164 -0.5603  0.4482
 2597SOL     OW10460   2.234   0.378   4.624  0.2402  0.3407 -0.0270
 2597SOL    HW210461   2.169   0.309   4.637  1.2022 -0.1952  2.2387
 2597SOL    HW310462   2.318   0.335   4.643  0.9400  1.8486  0.3614
 2597SOL    MW410463   2.237   0.363   4.628  0.4594  0.4689  0.3233
 2598SOL     OW10464   1.602   2.809   3.807  0.1278 -0.0582  0.1822
 2598SOL    HW210465   1.663   2.741   3.836  0.2192 -0.3532 -0.6596
 2598SOL    HW310466   1.608   2.806   3.711 -1.5723 -0.4356  0.0738
 2598SOL    MW410467   1.611   2.799   3.798 -0.0845 -0.1469  0.0570
 2599SOL     OW10468   3.560   4.455   4.567  0.1232 -0.3227  0.3141
 2599SOL    HW210469   3.625   4.520   4.595  1.0448 -1.1141  0.0322
 2599SOL    HW310470   3.480   4.506   4.553  0.5322  0.5847  1.1871
 2599SOL    MW410471   3.558   4.471   4.569  0.2987 -0.3076  0.3920
 2600SOL     OW10472   1.534   2.070   3.805  0.2394  0.2978  0.3077
 2600SOL    HW210473   1.535   2.146   3.864  0.9017 -0.5009  1.3466
 2600SOL    HW310474   1.625   2.042   3.800  0.0234 -0.3079 -0.2407
 2600SOL    MW410475   1.546   2.077   3.812  0.2983  0.1125  0.3724
 2601SOL     OW10476   3.810   4.605   3.899 -0.2655  0.2695 -0.4495
 2601SOL    HW210477   3.892   4.636   3.861 -0.5444 -0.6836 -1.8663
 2601SOL    HW310478   3.816   4.627   3.992  1.6974  0.0048 -0.5064
 2601SOL    MW410479   3.821   4.612   3.906 -0.0432  0.1087 -0.6437
 2602SOL     OW10480   3.140   4.464   4.246 -0.4212  0.5972  0.8410
 2602SOL    HW210481   3.136   4.382   4.197  1.0620  0.7376  0.4557
 2602SOL    HW310482   3.066   4.515   4.215 -0.9315 -0.3148  0.5526
 2602SOL    MW410483   3.130   4.459   4.236 -0.2925  0.4954  0.7520
 2603SOL     OW10484   3.832   0.502   3.849  0.1927  0.2379  0.1103
 2603SOL    HW210485   3.916   0.458   3.853 -0.1365 -0.3618  0.4249
 2603SOL    HW310486   3.770   0.440   3.887 -0.7732 -0.2241 -2.1610
 2603SOL    MW410487   3.835   0.488   3.854  0.0217  0.0979 -0.1478
 2604SOL     OW10488   3.570   4.458   4.286  0.1644 -0.4759  0.0450
 2604SOL    HW210489   3.566   4.470   4.381  0.8129 -1.4458  0.2046
 2604SOL    HW310490   3.493   4.504   4.252 -0.9556 -1.4991  1.1787
 2604SOL    MW410491   3.560   4.466   4.294  0.1020 -0.7391  0.2155
 2605SOL     OW10492   3.204   1.091   4.170  0.6427 -0.2548 -0.0213
 2605SOL    HW210493   3.194   1.100   4.075 -0.0857  0.8677  0.1472
 2605SOL    HW310494   3.134   1.032   4.196 -0.2459  0.8089  0.0349
 2605SOL    MW410495   3.194   1.085   4.161  0.4294  0.0336  0.0086
 2606SOL     OW10496   2.517   0.985   4.252 -0.1698 -0.1142 -0.1919
 2606SOL    HW210497   2.438   1.020   4.211 -0.6228 -0.6666  0.2086
 2606SOL    HW310498   2.514   0.891   4.235 -1.0654 -0.5778  2.2229
 2606SOL    MW410499   2.506   0.977   4.245 -0.3479 -0.2483  0.1798
 2607SOL     OW10500   2.370   1.895   4.049 -0.0160  0.0202  0.1373
 2607SOL    HW210501   2.455   1.878   4.091  0.2694  1.1623  0.0528
 2607SOL    HW310502   2.335   1.971   4.096 -0.8213 -0.2097 -0.0842
 2607SOL    MW410503   2.377   1.903   4.060 -0.0846  0.1407  0.0968
 2608SOL     OW10504   2.312   0.979   4.764  0.2437 -0.1452  0.0557
 2608SOL    HW210505   2.231   0.960   4.717  1.5899 -1.2188 -1.9105
 2608SOL    HW310506   2.342   1.063   4.727  1.7315 -1.3962 -1.6661
 2608SOL    MW410507   2.305   0.988   4.753  0.6177 -0.4519 -0.4315
 2609SOL     OW10508   4.021   2.044   4.317 -0.3940  0.1373 -0.0185
 2609SOL    HW210509   4.033   1.962   4.268 -0.7956  0.3925 -0.5485
 2609SOL    HW310510   3.940   2.080   4.283 -0.0478  0.9235 -0.0112
 2609SOL    MW410511   4.012   2.038   4.306 -0.4010  0.2747 -0.0877
 2610SOL     OW10512   3.943   2.649   4.213 -0.2426  0.2583 -0.2803
 2610SOL    HW210513   3.880   2.577   4.203  1.0091 -0.7889 -0.9549
 2610SOL    HW310514   4.026   2.605   4.232  0.5395  1.5355 -0.6736
 2610SOL    MW410515   3.946   2.633   4.214  0.0255  0.2890 -0.4206
 2611SOL     OW10516   0.148   4.021   4.214  0.2995 -0.1499 -0.4765
 2611SOL    HW210517   0.094   4.092   4.180  0.7325  0.6113  0.3986
 2611SOL    HW310518   0.238   4.051   4.200  0.4876  0.3278  1.6149
 2611SOL    MW410519   0.153   4.034   4.208  0.3815  0.0138 -0.0849
 2612SOL     OW10520   2.275   1.410   4.267 -0.2755  0.0365 -0.1456
 2612SOL    HW210521   2.252   1.484   4.210 -1.1426  0.5477  0.8328
 2612SOL    HW310522   2.369   1.422   4.285  0.0471 -0.2351 -1.5899
 2612SOL    MW410523   2.285   1.422   4.262 -0.3471  0.0682 -0.2074
 2613SOL     OW10524   3.810   0.780   3.890  0.1370  0.5113  0.3036
 2613SOL    HW210525   3.889   0.807   3.843 -0.2481 -0.7747 -1.1036
 2613SOL    HW310526   3.805   0.686   3.878 -0.5645  0.2937  2.0587
 2613SOL    MW410527   3.820   0.771   3.883 -0.0064  0.3129  0.3495
 2614SOL     OW10528   2.702   3.400   4.114 -0.4035  0.5191  0.2010
 2614SOL    HW210529   2.612   3.367   4.121 -0.3383 -0.1791 -1.7736
 2614SOL    HW310530   2.756   3.333   4.157 -0.8707  1.2503  1.9604
 2614SOL    MW410531   2.697   3.387   4.120 -0.4563  0.5236  0.1721
 2615SOL     OW10532   1.998   4.116   4.292  0.1744 -0.1532  0.0239
 2615SOL    HW210533   1.989   4.021   4.287  1.0170 -0.1880 -1.0724
 2615SOL    HW310534   1.926   4.149   4.238  1.2922 -0.2325 -1.5415
 2615SOL    MW410535   1.987   4.108   4.284  0.4332 -0.1683 -0.3276
 2616SOL     OW10536   0.814   0.424   4.457  0.2474 -0.4545 -0.4427
 2616SOL    HW210537   0.842   0.506   4.419 -0.1687  0.1294  0.4951
 2616SOL    HW310538   0.894   0.382   4.487  0.3812 -0.0563 -0.2485
 2616SOL    MW410539   0.828   0.429   4.456  0.2102 -0.3249 -0.2937
 2617SOL     OW10540   0.894   3.280   4.244 -0.2997 -0.2588  0.0211
 2617SOL    HW210541   0.990   3.278   4.245 -0.3248 -1.8161  0.2704
 2617SOL    HW310542   0.872   3.371   4.226  1.2323  0.1067 -0.0412
 2617SOL    MW410543   0.904   3.292   4.242 -0.1008 -0.4156  0.0458
 2618SOL     OW10544   3.448   0.404   4.722  0.1768 -0.2651 -0.1862
 2618SOL    HW210545   3.418   0.408   4.813  0.9883 -3.8806  0.2986
 2618SOL    HW310546   3.369   0.382   4.672  0.1256 -0.2071 -0.1325
 2618SOL    MW410547   3.433   0.402   4.727  0.2770 -0.7344 -0.1149
 2619SOL     OW10548   0.940   3.450   4.755 -0.3576 -0.2394 -0.7829
 2619SOL    HW210549   0.948   3.544   4.772  0.3169 -0.2842 -0.8378
 2619SOL    HW310550   0.891   3.444   4.673 -0.8374  0.0527 -0.5204
 2619SOL    MW410551   0.935   3.462   4.747 -0.3319 -0.2067 -0.7558
 2620SOL     OW10552   1.354   4.475   4.204 -0.4031  0.2887  0.4908
 2620SOL    HW210553   1.424   4.516   4.154 -0.4980 -0.6975 -0.4565
 2620SOL    HW310554   1.277   4.531   4.188 -0.0095  0.9741  0.9741
 2620SOL    MW410555   1.353   4.488   4.195 -0.3637  0.2494  0.4296
 2621SOL     OW10556   3.963   2.698   4.758 -0.1409 -0.0329  0.1365
 2621SOL    HW210557   4.039   2.641   4.764 -1.4905 -1.7660  1.4273
 2621SOL    HW310558   3.998   2.787   4.768  1.6108 -0.8517  1.5035
 2621SOL    MW410559   3.977   2.702   4.760 -0.0880 -0.3695  0.4873
 2622SOL     OW10560   0.384   4.663   4.638  0.2462  0.3105 -0.0202
 2622SOL    HW210561   0.469   4.692   4.670 -0.0496  1.1108  0.0646
 2622SOL    HW310562   0.332   4.743   4.632 -0.4857 -0.1614 -0.1152
 2622SOL    MW410563   0.388   4.677   4.642  0.1106  0.3538 -0.0215
 2623SOL     OW10564   4.437   2.123   4.366  0.1520 -0.0422  0.1853
 2623SOL    HW210565   4.490   2.200   4.347  0.8952 -0.4011  0.7840
 2623SOL    HW310566   4.351   2.143   4.329  1.0349  0.0551 -1.8757
 2623SOL    MW410567   4.433   2.136   4.359  0.3662 -0.0768 -0.0072
 2624SOL     OW10568   2.673   4.489   4.230  0.4046 -0.2808  0.4205
 2624SOL    HW210569   2.591   4.528   4.201  1.1176  0.7225 -0.2920
 2624SOL    HW310570   2.674   4.402   4.189 -0.2025 -0.2124  0.2577
 2624SOL    MW410571   2.663   4.483   4.221  0.4184 -0.1397  0.3052
 2625SOL     OW10572   0.240   0.960   4.223 -0.4705  0.2584  0.4202
 2625SOL    HW210573   0.155   1.002   4.213  0.4980  2.2692  0.5039
 2625SOL    HW310574   0.260   0.968   4.316 -0.4465 -0.7651  0.5162
 2625SOL    MW410575   0.231   0.966   4.234 -0.3396  0.3887  0.4439
 2626SOL     OW10576   0.866   4.604   4.147  0.1178  0.2054 -0.6981
 2626SOL    HW210577   0.811   4.632   4.221  0.4448  0.6540 -0.6244
 2626SOL    HW310578   0.805   4.598   4.073 -0.2201 -0.2957 -0.3793
 2626SOL    MW410579   0.851   4.607   4.147  0.1163  0.1988 -0.6461
 2627SOL     OW10580   0.889   2.669   3.848 -0.4175  0.2567 -0.1033
 2627SOL    HW210581   0.811   2.723   3.833 -1.1787 -0.3081  1.6886
 2627SOL    HW310582   0.866   2.583   3.812 -0.8522 -0.0731  0.9509
 2627SOL    MW410583   0.876   2.665   3.841 -0.5753  0.1385  0.2720
 2628SOL     OW10584   2.398   3.642   4.532 -0.3476  0.3259 -0.6796
 2628SOL    HW210585   2.397   3.547   4.530 -0.7455  0.3049  0.1145
 2628SOL    HW310586   2.324   3.666   4.588 -1.4071  1.1578 -2.3897
 2628SOL    MW410587   2.388   3.633   4.539 -0.5403  0.4330 -0.8001
 2629SOL     OW10588   3.999   4.263   4.180 -0.2166  0.0761  0.2607
 2629SOL    HW210589   4.002   4.359   4.183 -0.7153  0.0983 -0.0037
 2629SOL    HW310590   4.074   4.236   4.233  0.0309  0.6128  0.1910
 2629SOL    MW410591   4.009   4.272   4.187 -0.2499  0.1502  0.2160
 2630SOL     OW10592   0.971   2.887   4.475 -0.0658 -0.3078  0.0206
 2630SOL    HW210593   0.947   2.895   4.382 -0.6785  0.3029  0.2281
 2630SOL    HW310594   0.951   2.796   4.497 -0.2112 -0.3722 -0.3616
 2630SOL    MW410595   0.965   2.876   4.465 -0.1658 -0.2358 -0.0029
 2631SOL     OW10596   4.249   1.497   3.920  0.0764 -0.0420 -0.2954
 2631SOL    HW210597   4.329   1.537   3.887  0.0252  0.1574 -0.1731
 2631SOL    HW310598   4.179   1.534   3.865 -0.1522  1.2114  0.8444
 2631SOL    MW410599   4.250   1.507   3.908  0.0396  0.1497 -0.1290
 2632SOL     OW10600   0.874   2.620   4.121  0.2751  0.2458  0.1021
 2632SOL    HW210601   0.885   2.628   4.026 -0.2622  1.5688  0.1410
 2632SOL    HW310602   0.813   2.547   4.131  0.0918  0.2926 -0.5893
 2632SOL    MW410603   0.868   2.612   4.110  0.1800  0.4268  0.0162
 2633SOL     OW10604   3.146   1.837   4.159 -0.3416 -0.0083  0.2376
 2633SOL    HW210605   3.171   1.892   4.234 -0.6366 -0.5362  0.7245
 2633SOL    HW310606   3.181   1.884   4.083 -2.5999  2.0809  0.4037
 2633SOL    MW410607   3.154   1.851   4.159 -0.6785  0.1978  0.3238
 2634SOL     OW10608   3.370   1.650   4.147  0.7540  0.6226  0.5922
 2634SOL    HW210609   3.293   1.707   4.151 -0.1096 -0.5472  0.6510
 2634SOL    HW310610   3.397   1.640   4.239 -0.5049 -0.9804  0.7883
 2634SOL    MW410611   3.364   1.656   4.160  0.4740  0.2569  0.6256
 2635SOL     OW10612   0.341   2.298   4.726 -0.1737  0.2445  0.0614
 2635SOL    HW210613   0.385   2.286   4.810  1.6859  1.7637 -0.6452
 2635SOL    HW310614   0.314   2.210   4.700  0.2877 -0.3944  1.6934
 2635SOL    MW410615   0.343   2.284   4.733  0.1326  0.3610  0.1841
 2636SOL     OW10616   1.221   3.241   4.516 -0.1382 -0.3257  0.3828
 2636SOL    HW210617   1.177   3.233   4.600  1.2312 -1.7958  0.9932
 2636SOL    HW310618   1.236   3.151   4.488  1.3982  0.1440 -0.3616
 2636SOL    MW410619   1.218   3.228   4.523  0.2453 -0.4578  0.3653
 2637SOL     OW10620   3.323   2.901   4.199 -0.0575  0.9390  0.4162
 2637SOL    HW210621   3.237   2.858   4.198  0.1597  0.4633  1.3628
 2637SOL    HW310622   3.336   2.930   4.109 -0.9346  0.4613  0.1206
 2637SOL    MW410623   3.313   2.899   4.187 -0.1445  0.8132  0.5021
 2638SOL     OW10624   3.313   3.357   4.362  0.3488 -0.3757 -0.9040
 2638SOL    HW210625   3.234   3.347   4.309  0.4444  0.0522 -1.1331
 2638SOL    HW310626   3.377   3.397   4.302  0.0515  1.3745 -0.1028
 2638SOL    MW410627   3.311   3.361   4.347  0.3221 -0.0885 -0.8287
 2639SOL     OW10628   3.778   0.172   4.541 -0.4589 -0.0966  0.5992
 2639SOL    HW210629   3.858   0.120   4.538 -0.0066  0.5485  1.1449
 2639SOL    HW310630   3.756   0.187   4.449 -1.7900 -3.0207  0.4222
 2639SOL    MW410631   3.786   0.167   4.528 -0.5751 -0.3973  0.6480
 2640SOL     OW10632   4.320   2.175   4.614  0.3364 -0.3914 -0.0256
 2640SOL    HW210633   4.302   2.269   4.619  2.0186 -0.1115  1.2418
 2640SOL    HW310634   4.373   2.165   4.534 -0.8625 -0.4602 -0.8317
 2640SOL    MW410635   4.324   2.186   4.604  0.4001 -0.3638  0.0353
 2641SOL     OW10636   3.990   2.698   3.902 -0.2144 -0.7262  0.3754
 2641SOL    HW210637   3.909   2.724   3.857 -0.0377 -0.6072  0.1252
 2641SOL    HW310638   3.971   2.709   3.995 -1.4338 -3.3183  0.4874
 2641SOL    MW410639   3.977   2.703   3.908 -0.3519 -1.0526  0.3569
 2642SOL     OW10640   2.061   2.602   4.777 -0.0856  0.3471  0.4021
 2642SOL    HW210641   2.061   2.554   4.694  1.7981  2.3512 -0.7791
 2642SOL    HW310642   2.109   2.545   4.837 -1.1194 -0.9325  0.0383
 2642SOL    MW410643   2.067   2.588   4.774  0.0262  0.4427  0.1988
 2643SOL     OW10644   4.198   3.107   4.492 -0.0071  0.1515  0.0294
 2643SOL    HW210645   4.208   3.154   4.409  0.4218 -1.1813 -0.6806
 2643SOL    HW310646   4.113   3.065   4.487 -0.1468  0.3793  0.4299
 2643SOL    MW410647   4.188   3.108   4.481  0.0310  0.0060 -0.0114
 2644SOL     OW10648   2.564   4.610   4.689  0.2798 -0.2930 -0.1245
 2644SOL    HW210649   2.542   4.571   4.773  1.2962 -0.3611  0.1092
 2644SOL    HW310650   2.539   4.543   4.625  1.6860 -1.1964  0.2559
 2644SOL    MW410651   2.558   4.596   4.691  0.5994 -0.4210 -0.0434
 2645SOL     OW10652   0.132   3.538   4.545  0.1837  0.1129 -0.0092
 2645SOL    HW210653   0.097   3.572   4.462  0.6329 -0.0772 -0.2775
 2645SOL    HW310654   0.193   3.469   4.519  1.6871  1.2528  0.4059
 2645SOL    MW410655   0.135   3.534   4.530  0.4413  0.2384  0.0105
 2646SOL     OW10656   4.170   3.511   4.125 -0.1879 -0.1715 -0.1118
 2646SOL    HW210657   4.116   3.565   4.183 -0.5918 -0.7845  0.0825
 2646SOL    HW310658   4.133   3.525   4.038  0.6559  1.0490 -0.2947
 2646SOL    MW410659   4.158   3.520   4.121 -0.1302 -0.0913 -0.1101
 2647SOL     OW10660   0.310   3.348   4.459  0.1920  0.1463 -0.5122
 2647SOL    HW210661   0.381   3.291   4.489  0.7205  1.4254  0.7718
 2647SOL    HW310662   0.320   3.350   4.364  2.0328  0.4618 -0.3382
 2647SOL    MW410663   0.321   3.341   4.450  0.5046  0.3564 -0.3195
 2648SOL     OW10664   1.787   4.224   4.154 -0.2896 -0.1549  0.2671
 2648SOL    HW210665   1.701   4.191   4.182 -0.4941 -1.1859 -1.5224
 2648SOL    HW310666   1.780   4.232   4.059  1.3166  0.6297  0.1922
 2648SOL    MW410667   1.774   4.221   4.145 -0.1048 -0.1879  0.0210
 2649SOL     OW10668   2.913   4.622   4.182  0.3884 -0.0051 -0.0888
 2649SOL    HW210669   2.910   4.703   4.233 -0.2356 -0.5599  0.7716
 2649SOL    HW310670   2.838   4.571   4.213  0.0304 -0.3760 -1.5354
 2649SOL    MW410671   2.903   4.626   4.193  0.2589 -0.1268 -0.1659
 2650SOL     OW10672   4.066   3.690   4.321 -0.6727 -0.0278  0.0549
 2650SOL    HW210673   4.140   3.740   4.286 -0.8508  1.1036  1.2595
 2650SOL    HW310674   3.989   3.730   4.281 -0.7789  0.2908  0.5775
 2650SOL    MW410675   4.065   3.701   4.311 -0.7100  0.1636  0.2832
 2651SOL     OW10676   1.114   4.547   4.556  0.8424  0.4837  0.2095
 2651SOL    HW210677   1.067   4.466   4.542  0.6853  0.7361 -0.8366
 2651SOL    HW310678   1.202   4.530   4.523  1.2726  0.2437  1.4680
 2651SOL    MW410679   1.120   4.534   4.549  0.8785  0.4854  0.2375
 2652SOL     OW10680   0.097   1.104   4.529 -0.3922  0.1251  0.1663
 2652SOL    HW210681   0.116   1.197   4.537 -1.1749  0.3587 -0.5353
 2652SOL    HW310682   0.182   1.061   4.532  0.0088  0.9018 -0.0203
 2652SOL    MW410683   0.110   1.111   4.530 -0.4426  0.2584  0.0491
 2653SOL     OW10684   1.481   2.289   3.955  0.0445  0.4213 -0.2767
 2653SOL    HW210685   1.546   2.342   4.002  0.8416 -0.5722 -0.2443
 2653SOL    HW310686   1.422   2.257   4.023 -0.1635  0.8777 -0.2400
 2653SOL    MW410687   1.482   2.292   3.970  0.1222  0.3507 -0.2673
 2654SOL     OW10688   3.749   0.222   4.260  0.0987  0.0606  0.5710
 2654SOL    HW210689   3.675   0.277   4.236  0.6836 -0.1820 -1.9778
 2654SOL    HW310690   3.824   0.262   4.216  0.6513 -2.3309 -0.7453
 2654SOL    MW410691   3.749   0.234   4.251  0.2489 -0.2869  0.0610
 2655SOL     OW10692   1.159   3.271   4.229 -0.6011  0.4030 -0.2084
 2655SOL    HW210693   1.158   3.182   4.194 -1.5926  0.3507 -0.0441
 2655SOL    HW310694   1.193   3.262   4.318 -1.1644  0.1301 -0.0209
 2655SOL    MW410695   1.164   3.258   4.236 -0.8063  0.3600 -0.1616
 2656SOL     OW10696   1.032   1.713   4.426  0.4069 -0.4470  0.4641
 2656SOL    HW210697   1.095   1.776   4.461 -1.1109  1.0497  0.6205
 2656SOL    HW310698   0.957   1.719   4.486 -0.7092 -0.6584 -0.8709
 2656SOL    MW410699   1.030   1.722   4.439  0.0594 -0.2775  0.3080
 2657SOL     OW10700   3.835   0.768   4.179  0.2122 -0.4195  0.0606
 2657SOL    HW210701   3.764   0.705   4.192 -0.4348  0.5200  1.2192
 2657SOL    HW310702   3.833   0.789   4.086 -0.5981 -0.9083 -0.0348
 2657SOL    MW410703   3.825   0.763   4.169  0.0200 -0.3600  0.2003
 2658SOL     OW10704   1.638   0.740   4.206 -0.0774  0.1988 -0.4641
 2658SOL    HW210705   1.711   0.698   4.252 -1.0069 -0.5186  0.3820
 2658SOL    HW310706   1.635   0.829   4.241  0.7275  0.4004 -0.8966
 2658SOL    MW410707   1.647   0.746   4.217 -0.0939  0.1308 -0.4096
 2659SOL     OW10708   3.811   1.547   3.905  0.2719  0.3486 -0.0712
 2659SOL    HW210709   3.790   1.517   3.994  3.2057  0.6920  0.7837
 2659SOL    HW310710   3.728   1.581   3.872 -0.9935 -0.2147  2.3557
 2659SOL    MW410711   3.797   1.548   3.912  0.4921  0.3196  0.3619
 2660SOL     OW10712   1.324   4.226   4.104 -0.6662 -0.1691 -0.1254
 2660SOL    HW210713   1.311   4.319   4.126 -1.9844  0.1565 -2.1251
 2660SOL    HW310714   1.352   4.227   4.012  0.7120 -1.6912  0.2531
 2660SOL    MW410715   1.326   4.239   4.095 -0.6582 -0.3271 -0.3395
 2661SOL     OW10716   2.465   0.197   4.601 -0.0253 -0.1304  0.1931
 2661SOL    HW210717   2.501   0.110   4.618  0.8621  0.3046  0.6026
 2661SOL    HW310718   2.540   0.256   4.610 -0.4675  0.6027 -0.7799
 2661SOL    MW410719   2.480   0.193   4.604  0.0334  0.0237  0.1187
 2662SOL     OW10720   0.872   1.165   4.552  0.1354 -0.1180 -0.0397
 2662SOL    HW210721   0.778   1.150   4.554  0.1691 -0.2561  1.0602
 2662SOL    HW310722   0.884   1.251   4.591  0.4993 -0.3099  0.2850
 2662SOL    MW410723   0.861   1.174   4.557  0.1879 -0.1615  0.1488
 2663SOL     OW10724   4.052   1.607   3.760 -0.9154 -0.0451  0.5982
 2663SOL    HW210725   4.055   1.697   3.791  0.4987 -0.9426  3.3018
 2663SOL    HW310726   3.980   1.567   3.809  0.8919 -1.3090  2.3135
 2663SOL    MW410727   4.043   1.613   3.770 -0.4902 -0.3302  1.1811
 2664SOL     OW10728   0.360   2.167   4.362 -0.1303  0.3221 -0.6161
 2664SOL    HW210729   0.333   2.135   4.448 -1.4852 -0.4613 -1.3076
 2664SOL    HW310730   0.395   2.089   4.318  1.7564  0.9813 -0.3323
 2664SOL    MW410731   0.361   2.152   4.368 -0.0602  0.3057 -0.6700
 2665SOL     OW10732   4.225   3.860   3.947  0.1842 -0.1896 -0.2851
 2665SOL    HW210733   4.255   3.785   3.895  0.9576  0.7680 -1.2406
 2665SOL    HW310734   4.140   3.883   3.909 -0.5980 -1.2661  0.7428
 2665SOL    MW410735   4.218   3.853   3.935  0.1826 -0.2053 -0.2756
 2666SOL     OW10736   2.080   2.437   4.213 -0.6888 -0.0916 -0.0987
 2666SOL    HW210737   2.145   2.460   4.146  0.2763 -0.7393  0.5842
 2666SOL    HW310738   2.118   2.360   4.256 -1.1238  0.5218  1.4174
 2666SOL    MW410739   2.094   2.430   4.210 -0.6185 -0.0963  0.1917
 2667SOL     OW10740   1.092   3.533   4.466  0.0623 -0.3920 -0.5237
 2667SOL    HW210741   1.130   3.448   4.488  1.0155  0.3763  0.8840
 2667SOL    HW310742   1.097   3.583   4.547 -0.5530  0.9775 -1.3214
 2667SOL    MW410743   1.098   3.528   4.480  0.1069 -0.1099 -0.4425
 2668SOL     OW10744   3.591   1.950   4.722 -0.4322  0.0402  0.3231
 2668SOL    HW210745   3.571   2.044   4.731  0.5727  0.2682  0.2962
 2668SOL    HW310746   3.685   1.948   4.704 -0.4348 -0.9844  0.4163
 2668SOL    MW410747   3.601   1.962   4.721 -0.3004 -0.0650  0.3319
 2669SOL     OW10748   3.183   3.603   4.665 -0.0228  1.1636  0.0387
 2669SOL    HW210749   3.255   3.539   4.671  0.9156  2.1386 -0.5348
 2669SOL    HW310750   3.135   3.577   4.587 -1.4950 -0.6860  1.5208
 2669SOL    MW410751   3.186   3.591   4.656 -0.0930  1.0483  0.1583
 2670SOL     OW10752   4.451   3.252   4.755  0.1515 -0.0021  0.3126
 2670SOL    HW210753   4.426   3.160   4.755 -1.4979  0.4212 -1.2948
 2670SOL    HW310754   4.480   3.269   4.665 -1.1655  1.4519  0.1484
 2670SOL    MW410755   4.452   3.242   4.743 -0.2389  0.2453  0.0787
 2671SOL     OW10756   1.112   4.102   4.252  0.2492 -0.0126 -0.0861
 2671SOL    HW210757   1.173   4.152   4.197  1.6896 -1.3519  0.2771
 2671SOL    HW310758   1.129   4.134   4.341  0.1169 -0.0871 -0.0347
 2671SOL    MW410759   1.122   4.113   4.257  0.4218 -0.1993 -0.0319
 2672SOL     OW10760   2.857   3.271   4.510 -0.1178  0.4800 -0.2911
 2672SOL    HW210761   2.932   3.247   4.564  1.0776  0.8698 -1.7354
 2672SOL    HW310762   2.834   3.359   4.539  0.0233  0.3798  0.1229
 2672SOL    MW410763   2.864   3.280   4.521  0.0584  0.5183 -0.4272
 2673SOL     OW10764   0.974   0.401   4.143 -0.4651  0.3899  0.7124
 2673SOL    HW210765   0.963   0.479   4.198 -2.6150  0.1200  0.7021
 2673SOL    HW310766   0.895   0.350   4.158  0.2163 -1.0555 -0.4952
 2673SOL    MW410767   0.962   0.404   4.153 -0.6589  0.1636  0.5512
 2674SOL     OW10768   4.242   1.734   4.571 -0.0034 -0.2831  0.0014
 2674SOL    HW210769   4.185   1.660   4.549  0.2261  0.4968 -3.5774
 2674SOL    HW310770   4.182   1.805   4.593 -0.3996 -0.0636 -1.7154
 2674SOL    MW410771   4.227   1.733   4.571 -0.0257 -0.1513 -0.6976
 2675SOL     OW10772   0.971   4.312   4.533  0.1483 -0.1110 -0.2431
 2675SOL    HW210773   0.923   4.343   4.456 -0.6940 -0.4611  0.1312
 2675SOL    HW310774   0.904   4.269   4.587  0.8815 -0.5877  0.2971
 2675SOL    MW410775   0.955   4.310   4.530  0.1339 -0.2198 -0.1225
 2676SOL     OW10776   0.226   4.653   4.198 -0.0868  0.3161 -0.0918
 2676SOL    HW210777   0.309   4.633   4.241 -0.1511  1.3234  0.5232
 2676SOL    HW310778   0.236   4.621   4.108  0.5129 -0.6580  0.3199
 2676SOL    MW410779   0.238   4.646   4.192 -0.0162  0.3204  0.0439
 2677SOL     OW10780   3.472   1.912   4.475 -0.1198 -0.6045  0.2596
 2677SOL    HW210781   3.438   1.825   4.456 -0.9978 -0.0634 -0.6746
 2677SOL    HW310782   3.514   1.903   4.561 -1.2376 -1.6528  0.7039
 2677SOL    MW410783   3.473   1.900   4.484 -0.3829 -0.6713  0.1950
 2678SOL     OW10784   4.397   0.949   4.657 -0.4149 -0.0829  0.0353
 2678SOL    HW210785   4.462   0.999   4.608 -0.6580 -0.6901 -0.9114
 2678SOL    HW310786   4.434   0.943   4.746  0.9622 -0.6428 -0.5510
 2678SOL    MW410787   4.411   0.955   4.663 -0.2651 -0.2369 -0.1664
 2679SOL     OW10788   1.036   3.960   4.607 -0.1229  0.3124 -0.0081
 2679SOL    HW210789   0.992   4.023   4.664  2.2100  0.4475  1.6896
 2679SOL    HW310790   1.099   4.013   4.558  0.4750 -0.4162 -0.0220
 2679SOL    MW410791   1.038   3.975   4.608  0.2637  0.2344  0.2141
 2680SOL     OW10792   2.432   1.703   4.636  0.7048  0.2612 -0.1445
 2680SOL    HW210793   2.411   1.737   4.549 -1.0111  0.6244  0.3814
 2680SOL    HW310794   2.462   1.779   4.685 -0.5240  0.5072  0.2386
 2680SOL    MW410795   2.433   1.717   4.631  0.3164  0.3415 -0.0248
 2681SOL     OW10796   2.424   0.175   4.304  0.2955 -0.0201  0.3506
 2681SOL    HW210797   2.364   0.243   4.275 -1.2324 -1.1543  0.8063
 2681SOL    HW310798   2.431   0.188   4.399  2.7220  1.6363 -0.0027
 2681SOL    MW410799   2.417   0.186   4.313  0.4139  0.0488  0.3638
 2682SOL     OW10800   0.263   2.357   4.192 -0.0326 -0.8267 -0.2223
 2682SOL    HW210801   0.185   2.373   4.245  0.0434 -0.3014 -0.2602
 2682SOL    HW310802   0.316   2.297   4.244  0.1555 -0.1189  0.4209
 2682SOL    MW410803   0.260   2.351   4.206  0.0023 -0.6640 -0.1421
 2683SOL     OW10804   4.160   2.447   4.612 -0.4662 -0.0612  0.3914
 2683SOL    HW210805   4.227   2.511   4.636 -0.3486 -0.6664  1.6695
 2683SOL    HW310806   4.147   2.461   4.518  0.8462  0.6161  0.3025
 2683SOL    MW410807   4.167   2.457   4.602 -0.2775 -0.0520  0.5484
 2684SOL     OW10808   2.506   1.507   3.966 -0.3639 -0.0496 -0.5329
 2684SOL    HW210809   2.515   1.563   4.044 -0.6154 -0.1220 -0.4518
 2684SOL    HW310810   2.415   1.517   3.941 -0.6760 -1.2825  0.1184
 2684SOL    MW410811   2.496   1.516   3.973 -0.4382 -0.2218 -0.4361
 2685SOL     OW10812   3.260   1.329   4.293 -0.5237 -0.3866 -0.3324
 2685SOL    HW210813   3.352   1.339   4.270 -1.2069  0.5921 -2.8553
 2685SOL    HW310814   3.236   1.244   4.257 -1.4889  0.9625 -3.0567
 2685SOL    MW410815   3.269   1.319   4.285 -0.7412 -0.0795 -1.0242
 2686SOL     OW10816   2.268   1.119   4.155  0.1840  0.0628  0.1234
 2686SOL    HW210817   2.194   1.070   4.190  1.5194 -0.0260  2.9427
 2686SOL    HW310818   2.251   1.210   4.179  0.5066  0.1874 -0.1068
 2686SOL    MW410819   2.256   1.125   4.163  0.4029  0.0674  0.4649
 2687SOL     OW10820   2.058   1.954   4.605  0.0924 -0.4459  0.3710
 2687SOL    HW210821   2.106   1.981   4.527  0.4435 -1.5249  0.2004
 2687SOL    HW310822   1.969   1.939   4.575 -0.1261  0.5923  0.4860
 2687SOL    MW410823   2.053   1.955   4.591  0.1099 -0.4512  0.3638
 2688SOL     OW10824   0.720   0.744   3.920  0.0231 -0.0678  0.2698
 2688SOL    HW210825   0.789   0.780   3.865  0.0396 -0.6566 -0.0967
 2688SOL    HW310826   0.640   0.787   3.890  0.1406  0.1512  0.2726
 2688SOL    MW410827   0.718   0.754   3.909  0.0408 -0.1165  0.2217
 2689SOL     OW10828   0.804   0.731   4.774  0.1576 -0.1725  0.0269
 2689SOL    HW210829   0.786   0.806   4.832  0.2456  0.6143 -0.9399
 2689SOL    HW310830   0.879   0.759   4.722  0.1239 -0.9021 -0.4182
 2689SOL    MW410831   0.811   0.745   4.775  0.1648 -0.1650 -0.1593
 2690SOL     OW10832   0.009   2.844   4.524  0.3569 -0.5972 -0.1816
 2690SOL    HW210833  -0.019   2.918   4.578 -0.6765 -0.4008 -0.9960
 2690SOL    HW310834   0.019   2.880   4.436  1.6331 -1.0213 -0.2319
 2690SOL    MW410835   0.007   2.859   4.520  0.3891 -0.6270 -0.2961
 2691SOL     OW10836   0.448   4.619   4.379  0.2285  0.4975 -0.4847
 2691SOL    HW210837   0.539   4.646   4.373  0.6946 -0.7229  0.8752
 2691SOL    HW310838   0.426   4.626   4.472 -1.5226  2.2130 -0.9914
 2691SOL    MW410839   0.457   4.624   4.390  0.0589  0.5627 -0.3719
 2692SOL     OW10840   2.768   1.142   3.890  0.0215  0.2623 -0.8077
 2692SOL    HW210841   2.677   1.171   3.886  0.0504  0.4682  0.0165
 2692SOL    HW310842   2.783   1.123   3.982  0.9294  0.5844 -0.8887
 2692SOL    MW410843   2.758   1.143   3.901  0.1450  0.3321 -0.7098
 2693SOL     OW10844   3.549   2.226   4.716  0.4519  0.5708  0.2155
 2693SOL    HW210845   3.456   2.236   4.697  0.4467 -0.5370 -0.4059
 2693SOL    HW310846   3.578   2.313   4.745 -0.5860  1.1174 -0.3817
 2693SOL    MW410847   3.541   2.239   4.717  0.3145  0.4966  0.0548
 2694SOL     OW10848   2.907   4.124   4.219  0.0339  0.1999 -0.3272
 2694SOL    HW210849   2.921   4.138   4.313  0.1203  1.0359 -0.4603
 2694SOL    HW310850   2.899   4.029   4.210 -0.2420  0.1318  0.5642
 2694SOL    MW410851   2.908   4.114   4.230  0.0086  0.3014 -0.2270
 2695SOL     OW10852   2.506   2.075   3.536  0.2807 -0.2237 -0.3609
 2695SOL    HW210853   2.461   2.145   3.490  1.3618  0.5010 -0.3301
 2695SOL    HW310854   2.440   2.006   3.547 -0.1956 -0.0787 -2.2797
 2695SOL    MW410855   2.492   2.075   3.532  0.3603 -0.1090 -0.6099
 2696SOL     OW10856   0.428   1.929   4.187  0.1702  0.6701 -0.4539
 2696SOL    HW210857   0.476   1.861   4.235 -1.5790 -0.1014  0.2517
 2696SOL    HW310858   0.462   1.922   4.097  1.4645  0.2450  0.0435
 2696SOL    MW410859   0.439   1.919   4.182  0.1102  0.5124 -0.2952
 2697SOL     OW10860   3.371   0.733   3.841 -0.4299  0.2643 -0.1150
 2697SOL    HW210861   3.367   0.737   3.937 -1.7840 -0.7514 -0.1032
 2697SOL    HW310862   3.290   0.775   3.812 -0.8929 -1.0361 -0.7485
 2697SOL    MW410863   3.360   0.739   3.850 -0.6700 -0.0412 -0.1972
 2698SOL     OW10864   4.225   4.139   4.284 -0.7800 -0.1773 -0.1672
 2698SOL    HW210865   4.309   4.168   4.247 -0.5666 -0.4017  0.1423
 2698SOL    HW310866   4.236   4.147   4.379 -0.3041 -2.3729 -0.0061
 2698SOL    MW410867   4.237   4.144   4.292 -0.6890 -0.4964 -0.1049
 2699SOL     OW10868   1.713   1.445   4.478 -0.1650  0.5344  0.1297
 2699SOL    HW210869   1.805   1.460   4.499 -0.0885 -0.6470  0.6895
 2699SOL    HW310870   1.699   1.352   4.497 -1.2259  0.4814 -0.8852
 2699SOL    MW410871   1.724   1.435   4.483 -0.2948  0.3716  0.0696
 2700SOL     OW10872   3.860   1.940   4.605 -0.4669 -0.2414  0.1300
 2700SOL    HW210873   3.955   1.941   4.591 -0.6449 -1.8613 -1.4725
 2700SOL    HW310874   3.826   2.008   4.546 -0.4287 -0.8323 -0.5866
 2700SOL    MW410875   3.868   1.949   4.595 -0.4857 -0.5331 -0.1760
 2701SOL     OW10876   2.187   2.386   4.913 -0.7248 -0.3393  0.1548
 2701SOL    HW210877   2.190   2.315   4.849  1.2468 -0.6730  0.5807
 2701SOL    HW310878   2.171   2.343   4.996 -2.5456  0.0229  0.0020
 2701SOL    MW410879   2.185   2.371   4.915 -0.7048 -0.3352  0.1907
 2702SOL     OW10880   2.225   1.665   4.110  0.0313  0.0756 -0.5695
 2702SOL    HW210881   2.271   1.746   4.087  1.2652 -0.5053 -0.1971
 2702SOL    HW310882   2.185   1.683   4.195  0.8075  0.1131 -0.2033
 2702SOL    MW410883   2.226   1.678   4.118  0.2964  0.0039 -0.4721
 2703SOL     OW10884   2.020   0.741   4.122 -0.5476  0.1389 -0.3734
 2703SOL    HW210885   2.023   0.832   4.154  0.7337 -0.3783  1.0425
 2703SOL    HW310886   1.942   0.704   4.162 -0.0378  0.0830  0.5955
 2703SOL    MW410887   2.010   0.748   4.132 -0.3116  0.0633 -0.0591
 2704SOL     OW10888   4.165   3.841   4.938  0.2683  0.0876  0.1680
 2704SOL    HW210889   4.183   3.901   4.866  0.9194  1.2153  1.2321
 2704SOL    HW310890   4.251   3.805   4.961  0.0168 -0.5271  0.1401
 2704SOL    MW410891   4.179   3.844   4.932  0.3204  0.1552  0.3047
 2705SOL     OW10892   3.156   1.102   3.888 -0.2296 -0.5304  0.4393
 2705SOL    HW210893   3.076   1.154   3.874 -0.3726 -0.6536  0.7802
 2705SOL    HW310894   3.226   1.154   3.849 -0.2022  0.4700  1.7974
 2705SOL    MW410895   3.154   1.116   3.881 -0.2449 -0.4148  0.6633
 2706SOL     OW10896   1.176   0.738   4.190 -0.4002  0.1300 -0.3163
 2706SOL    HW210897   1.096   0.696   4.220 -0.7974  0.0985 -1.3992
 2706SOL    HW310898   1.246   0.695   4.240 -0.9138 -0.9315 -0.5039
 2706SOL    MW410899   1.175   0.727   4.201 -0.5203 -0.0142 -0.4845
 2707SOL     OW10900   2.788   3.543   4.597 -0.3427 -0.3090 -0.5049
 2707SOL    HW210901   2.782   3.574   4.688 -1.6386 -1.6671 -0.1056
 2707SOL    HW310902   2.755   3.615   4.544  1.3366  0.8746  0.0185
 2707SOL    MW410903   2.783   3.556   4.602 -0.2923 -0.3321 -0.3834
 2708SOL     OW10904   2.687   2.656   3.862  0.1758 -0.0727 -0.4597
 2708SOL    HW210905   2.669   2.569   3.828  2.5629 -0.7931  0.0229
 2708SOL    HW310906   2.656   2.654   3.953  1.4827 -0.8727 -0.0279
 2708SOL    MW410907   2.680   2.645   3.869  0.6633 -0.2735 -0.3390
 2709SOL     OW10908   1.968   3.063   4.197 -0.0126 -0.6639 -0.2682
 2709SOL    HW210909   2.053   3.022   4.214  0.1709 -0.5758 -0.9299
 2709SOL    HW310910   1.927   3.071   4.283  1.2557  0.6123  0.2489
 2709SOL    MW410911   1.974   3.059   4.211  0.1789 -0.4840 -0.2871
 2710SOL     OW10912   3.575   1.105   3.909  0.3609  0.5915 -0.2512
 2710SOL    HW210913   3.595   1.022   3.865 -0.9719  0.2003 -0.1501
 2710SOL    HW310914   3.629   1.170   3.865  0.7288 -0.1801 -0.9523
 2710SOL    MW410915   3.585   1.102   3.898  0.2337  0.4381 -0.3302
 2711SOL     OW10916   1.122   2.590   4.288 -0.1474  0.3730 -0.2569
 2711SOL    HW210917   1.095   2.559   4.375  0.9720  1.5314  0.5259
 2711SOL    HW310918   1.041   2.595   4.238 -0.5946 -1.9805  0.1576
 2711SOL    MW410919   1.108   2.586   4.293 -0.0587  0.2153 -0.0992
 2712SOL     OW10920   2.593   2.704   4.560 -0.0855  0.0477  0.1966
 2712SOL    HW210921   2.567   2.784   4.514  0.8539  0.1599 -0.1554
 2712SOL    HW310922   2.510   2.665   4.589 -0.5449  1.3171  0.6607
 2712SOL    MW410923   2.579   2.710   4.558 -0.0222  0.2298  0.2108
 2713SOL     OW10924   2.658   2.407   3.734  0.4802 -0.1187 -0.1585
 2713SOL    HW210925   2.604   2.329   3.748 -1.2959  1.3954  1.5239
 2713SOL    HW310926   2.741   2.386   3.777 -0.3156 -0.6989  1.1080
 2713SOL    MW410927   2.662   2.394   3.741  0.1411  0.0043  0.2306
 2714SOL     OW10928   3.508   0.164   4.612  0.3788 -0.6348  0.1097
 2714SOL    HW210929   3.494   0.238   4.671 -0.5544 -0.5330 -0.2288
 2714SOL    HW310930   3.603   0.158   4.603  0.5025 -0.1864  1.0340
 2714SOL    MW410931   3.519   0.173   4.619  0.2723 -0.5622  0.1869
 2715SOL     OW10932   3.395   0.468   3.735  0.7348  0.1583 -0.5714
 2715SOL    HW210933   3.304   0.447   3.757  0.9342 -0.5333 -0.3999
 2715SOL    HW310934   3.408   0.557   3.768  0.5531 -0.2729  0.6970
 2715SOL    MW410935   3.385   0.477   3.742  0.7372  0.0102 -0.3815
 2716SOL     OW10936   4.212   2.224   4.223 -0.6232  0.1088 -0.2115
 2716SOL    HW210937   4.129   2.175   4.221  0.7728 -2.3420 -1.7453
 2716SOL    HW310938   4.224   2.253   4.132  0.6836 -0.4827 -0.2393
 2716SOL    MW410939   4.202   2.221   4.210 -0.2666 -0.2925 -0.4182
 2717SOL     OW10940   4.478   0.379   4.145  0.4744 -0.1738  0.3423
 2717SOL    HW210941   4.545   0.331   4.194  0.2095 -0.2376  0.6426
 2717SOL    HW310942   4.497   0.359   4.053  0.3700 -0.8496  0.4661
 2717SOL    MW410943   4.490   0.370   4.139  0.4258 -0.2714  0.3982
 2718SOL     OW10944   0.908   2.189   4.386 -0.0532 -0.1297 -0.1780
 2718SOL    HW210945   0.910   2.111   4.331 -1.1917 -0.2979  0.0185
 2718SOL    HW310946   0.815   2.208   4.399  0.1776  2.1429 -1.4859
 2718SOL    MW410947   0.896   2.181   4.380 -0.1730  0.1481 -0.3252
 2719SOL     OW10948   2.889   4.182   4.493 -0.6237 -0.3613  0.6249
 2719SOL    HW210949   2.859   4.271   4.511  0.5665  0.3489 -0.8481
 2719SOL    HW310950   2.962   4.169   4.554  0.3000  0.2878 -0.3467
 2719SOL    MW410951   2.895   4.192   4.504 -0.3450 -0.1822  0.3028
 2720SOL     OW10952   0.924   2.628   4.595  0.2491 -0.0823 -0.3546
 2720SOL    HW210953   0.956   2.540   4.578  0.3369 -0.2291  0.5457
 2720SOL    HW310954   0.829   2.619   4.596  0.2707 -0.3152  0.4565
 2720SOL    MW410955   0.916   2.615   4.593  0.2636 -0.1326 -0.1287
 2721SOL     OW10956   2.487   0.720   4.180 -0.5281 -0.3396 -0.0637
 2721SOL    HW210957   2.506   0.714   4.086 -1.1746 -1.2210 -0.1421
 2721SOL    HW310958   2.548   0.659   4.221 -0.8980 -0.6573  0.0067
 2721SOL    MW410959   2.498   0.711   4.173 -0.6621 -0.4978 -0.0644
 2722SOL     OW10960   0.499   3.518   4.152 -0.3191  0.2345  0.8593
 2722SOL    HW210961   0.586   3.480   4.167 -0.1722  0.6034  0.9263
 2722SOL    HW310962   0.505   3.608   4.184  0.0203  1.0659 -1.4628
 2722SOL    MW410963   0.511   3.525   4.158 -0.2549  0.3929  0.5617
 2723SOL     OW10964   2.452   4.080   4.572 -0.0041  0.2005 -0.1500
 2723SOL    HW210965   2.535   4.034   4.571  0.5310  1.1638 -1.6501
 2723SOL    HW310966   2.432   4.097   4.480 -2.5057 -1.1442  0.0928
 2723SOL    MW410967   2.460   4.077   4.560 -0.2635  0.1502 -0.3161
 2724SOL     OW10968   0.603   3.970   4.529  0.1678 -0.0175  0.5068
 2724SOL    HW210969   0.552   3.915   4.589 -1.5592 -0.2148 -1.0849
 2724SOL    HW310970   0.539   4.031   4.493  1.6159  1.5315  0.4909
 2724SOL    MW410971   0.588   3.971   4.532  0.1310  0.1607  0.2947
 2725SOL     OW10972   2.910   0.209   4.295 -0.3296  0.5745  0.2477
 2725SOL    HW210973   2.819   0.227   4.273 -1.0467 -2.4279  0.4919
 2725SOL    HW310974   2.960   0.246   4.222 -1.9889 -0.4523 -1.4615
 2725SOL    MW410975   2.905   0.216   4.282 -0.6435  0.0429  0.0548
 2726SOL     OW10976   1.612   4.662   4.178 -0.0836 -0.3920 -0.4674
 2726SOL    HW210977   1.664   4.742   4.180 -0.1300 -0.3814  1.4029
 2726SOL    HW310978   1.662   4.599   4.231 -1.4620 -0.6654  0.5526
 2726SOL    MW410979   1.625   4.664   4.186 -0.2718 -0.4267 -0.0854
 2727SOL     OW10980   0.348   0.968   4.490 -0.2496  0.8265  0.8838
 2727SOL    HW210981   0.419   1.031   4.506 -0.4194  1.2934 -0.1268
 2727SOL    HW310982   0.375   0.889   4.536  0.2324  1.4703  1.7241
 2727SOL    MW410983   0.361   0.966   4.498 -0.2084  0.9730  0.8616
 2728SOL     OW10984   3.666   3.548   4.611  0.1515 -0.0779  0.0250
 2728SOL    HW210985   3.711   3.560   4.695  1.4094  0.9158 -0.7618
 2728SOL    HW310986   3.732   3.509   4.554 -0.0222  1.2170 -1.0974
 2728SOL    MW410987   3.681   3.545   4.614  0.2947  0.2241 -0.2270
 2729SOL     OW10988   2.395   3.091   4.107  0.5974  0.1544  0.2155
 2729SOL    HW210989   2.469   3.041   4.142  2.0396  1.3271 -1.0624
 2729SOL    HW310990   2.409   3.091   4.012 -0.7562  0.8318  0.0060
 2729SOL    MW410991   2.407   3.085   4.099  0.6089  0.3984  0.0191
 2730SOL     OW10992   4.470   2.678   3.920 -0.0425  0.1428 -0.1297
 2730SOL    HW210993   4.390   2.721   3.889 -0.4240 -0.0021  0.6445
 2730SOL    HW310994   4.540   2.717   3.867 -0.5555  0.6854 -0.4147
 2730SOL    MW410995   4.469   2.689   3.909 -0.1602  0.1955 -0.0651
 2731SOL     OW10996   1.371   1.718   3.794 -0.2482 -0.2566  0.1926
 2731SOL    HW210997   1.290   1.685   3.834 -0.4018  0.2975  0.3464
 2731SOL    HW310998   1.382   1.806   3.832  0.5599 -0.4325  0.3628
 2731SOL    MW410999   1.361   1.725   3.804 -0.1620 -0.2066  0.2356
 2732SOL     OW11000   0.694   2.854   4.779 -0.3419  0.3414 -0.1058
 2732SOL    HW211001   0.672   2.880   4.869 -1.3004  1.8262 -0.7335
 2732SOL    HW311002   0.778   2.895   4.762 -0.1922  0.1165  0.0953
 2732SOL    MW411003   0.702   2.863   4.789 -0.4486  0.5076 -0.1616
 2733SOL     OW11004   2.856   2.645   4.652 -0.1654 -0.0053 -0.2138
 2733SOL    HW211005   2.770   2.685   4.640 -0.6120 -0.8409  0.1144
 2733SOL    HW311006   2.918   2.716   4.639 -0.9136  0.6294 -0.3480
 2733SOL    MW411007   2.852   2.659   4.648 -0.3228 -0.0319 -0.1879
 2734SOL     OW11008   3.928   3.032   4.522 -0.7321  0.1119 -0.1387
 2734SOL    HW211009   3.890   2.946   4.503 -0.1643 -0.4423  1.1835
 2734SOL    HW311010   3.865   3.094   4.487 -0.5985 -0.8433 -2.1659
 2734SOL    MW411011   3.915   3.029   4.515 -0.6397 -0.0870 -0.2322
 2735SOL     OW11012   1.571   4.658   3.892 -0.9134 -0.3646  0.0940
 2735SOL    HW211013   1.575   4.568   3.859  0.0635 -0.0606 -0.6522
 2735SOL    HW311014   1.591   4.650   3.986  1.2965 -0.7213 -0.3706
 2735SOL    MW411015   1.574   4.645   3.900 -0.4928 -0.3715 -0.0656
 2736SOL     OW11016   3.221   1.997   4.373  0.3498 -0.0285  0.1000
 2736SOL    HW211017   3.291   1.985   4.437  0.4349  0.6364  0.1415
 2736SOL    HW311018   3.166   2.066   4.410 -0.4952 -0.7584  0.2056
 2736SOL    MW411019   3.223   2.005   4.386  0.2494 -0.0372  0.1192
 2737SOL     OW11020   1.144   4.631   4.109  0.0121 -0.2504  0.4625
 2737SOL    HW211021   1.051   4.609   4.119 -0.5633 -0.1971 -3.6466
 2737SOL    HW311022   1.149   4.724   4.129 -0.5051 -0.5956  2.2662
 2737SOL    MW411023   1.132   4.640   4.113 -0.1320 -0.2890  0.1583
 2738SOL     OW11024   3.494   2.699   4.153  0.2162 -0.1027 -0.1885
 2738SOL    HW211025   3.494   2.628   4.217  0.4621 -0.2829 -0.3885
 2738SOL    HW311026   3.434   2.765   4.190  0.9762  0.1518  0.6171
 2738SOL    MW411027   3.486   2.699   4.167  0.3488 -0.0930 -0.1082
 2739SOL     OW11028   1.380   0.374   3.844  0.2403  0.0796 -0.0805
 2739SOL    HW211029   1.308   0.414   3.796  0.0175 -0.8876 -0.5413
 2739SOL    HW311030   1.459   0.412   3.805  0.0153  0.4061 -0.2194
 2739SOL    MW411031   1.381   0.384   3.833  0.1813 -0.0049 -0.1595
 2740SOL     OW11032   1.603   2.149   4.599  0.1711 -0.6066 -0.2721
 2740SOL    HW211033   1.678   2.203   4.623 -0.8701  1.2856 -1.1226
 2740SOL    HW311034   1.565   2.193   4.523 -0.6388 -2.6394 -1.0977
 2740SOL    MW411035   1.608   2.162   4.592 -0.0732 -0.6251 -0.4935
 2741SOL     OW11036   2.438   4.600   4.176  0.1548 -0.3356  0.0502
 2741SOL    HW211037   2.426   4.691   4.203  1.9433 -0.3618  1.0248
 2741SOL    HW311038   2.362   4.554   4.210 -1.2253  0.9408 -1.2298
 2741SOL    MW411039   2.427   4.606   4.184  0.2086 -0.1707  0.0095
 2742SOL     OW11040   0.457   1.374   4.201  0.0379  0.1657 -0.1816
 2742SOL    HW211041   0.547   1.401   4.185  0.4556 -0.0676  1.6100
 2742SOL    HW311042   0.449   1.290   4.157  0.2504  0.8382 -1.5406
 2742SOL    MW411043   0.468   1.367   4.193  0.1211  0.2235 -0.1245
 2743SOL     OW11044   0.168   0.496   4.624 -0.0502 -0.4292 -0.4330
 2743SOL    HW211045   0.194   0.404   4.634 -1.0948 -0.7400 -0.4972
 2743SOL    HW311046   0.083   0.492   4.580 -0.3539  0.5517  0.0457
 2743SOL    MW411047   0.160   0.483   4.620 -0.2281 -0.3408 -0.3777
 2744SOL     OW11048   4.372   0.633   4.504  0.2791 -0.1687 -0.2731
 2744SOL    HW211049   4.358   0.715   4.551 -0.2877 -0.3747 -0.0802
 2744SOL    HW311050   4.294   0.581   4.522  0.2812 -0.4402 -1.0444
 2744SOL    MW411051   4.360   0.637   4.513  0.2041 -0.2317 -0.3495
 2745SOL     OW11052   4.088   3.340   4.620 -0.0804  0.5301  0.3005
 2745SOL    HW211053   4.122   3.256   4.591  0.2412  0.0734  1.9973
 2745SOL    HW311054   4.158   3.403   4.601  0.3629  0.1386  0.6401
 2745SOL    MW411055   4.101   3.337   4.613  0.0200  0.4182  0.5689
 2746SOL     OW11056   0.004   4.363   4.516  0.2393  0.1085  0.0038
 2746SOL    HW211057   0.053   4.281   4.512 -1.2564 -0.7481 -1.2030
 2746SOL    HW311058   0.048   4.414   4.585  1.6813 -1.3571  0.1997
 2746SOL    MW411059   0.016   4.359   4.524  0.2322 -0.1979 -0.1292
 2747SOL     OW11060   0.954   1.433   4.568  0.0748  0.0296  0.2047
 2747SOL    HW211061   0.932   1.526   4.574  0.1042 -0.0465  1.4938
 2747SOL    HW311062   1.049   1.432   4.553  0.1457  0.1999  0.6226
 2747SOL    MW411063   0.964   1.445   4.567  0.0880  0.0421  0.4301
 2748SOL     OW11064   4.137   2.774   4.523  0.1057  0.2102 -0.2431
 2748SOL    HW211065   4.051   2.751   4.559  0.6020 -0.5984  0.4320
 2748SOL    HW311066   4.186   2.692   4.524  0.5897  0.4791 -1.4776
 2748SOL    MW411067   4.132   2.760   4.528  0.2356  0.1390 -0.3171
 2749SOL     OW11068   1.732   2.462   4.382  0.4200 -0.3784  0.2295
 2749SOL    HW211069   1.788   2.385   4.391  1.8184  0.8849  2.8251
 2749SOL    HW311070   1.648   2.434   4.418 -0.2107 -1.7860 -2.2175
 2749SOL    MW411071   1.728   2.448   4.388  0.5213 -0.3974  0.2494
 2750SOL     OW11072   3.814   2.205   4.179  0.3108 -0.2380 -0.3643
 2750SOL    HW211073   3.732   2.157   4.194  1.3526 -1.1057  2.9053
 2750SOL    HW311074   3.798   2.292   4.217  0.2343  0.3151 -1.6142
 2750SOL    MW411075   3.801   2.210   4.186  0.4380 -0.2797 -0.0978
 2751SOL     OW11076   3.468   2.493   4.344 -0.2423 -0.4599  0.3797
 2751SOL    HW211077   3.400   2.517   4.407 -0.8417  0.3715 -0.5522
 2751SOL    HW311078   3.435   2.414   4.301 -0.0955 -0.7038  0.7151
 2751SOL    MW411079   3.455   2.486   4.346 -0.3021 -0.3824  0.3009
 2752SOL     OW11080   1.583   1.302   3.761  0.1759 -0.1781  0.2845
 2752SOL    HW211081   1.578   1.392   3.792  0.4716 -0.1023  0.1188
 2752SOL    HW311082   1.515   1.256   3.809 -0.2334  0.2188  0.0856
 2752SOL    MW411083   1.574   1.308   3.771  0.1608 -0.1158  0.2363
 2753SOL     OW11084   4.409   3.710   4.945 -0.0433 -0.4504 -0.3362
 2753SOL    HW211085   4.485   3.745   4.899  0.5166 -1.5420 -0.2547
 2753SOL    HW311086   4.403   3.619   4.917  0.0696 -1.0191  1.4393
 2753SOL    MW411087   4.418   3.703   4.935  0.0453 -0.6697 -0.0906
 2754SOL     OW11088   3.154   0.647   4.530 -0.1168 -0.0308 -0.2489
 2754SOL    HW211089   3.078   0.703   4.542  0.4085  0.1958  2.2400
 2754SOL    HW311090   3.229   0.705   4.540  0.4100 -0.8930  0.8534
 2754SOL    MW411091   3.154   0.662   4.532  0.0219 -0.1146  0.2246
 2755SOL     OW11092   3.313   0.193   4.219 -0.0269 -0.2414  0.2708
 2755SOL    HW211093   3.301   0.179   4.313 -0.6181  0.0397  0.2389
 2755SOL    HW311094   3.238   0.246   4.193  0.7133  0.6162 -0.1503
 2755SOL    MW411095   3.302   0.198   4.228 -0.0072 -0.0911  0.2112
 2756SOL     OW11096   3.404   3.421   4.621  0.0656  0.3755  0.3550
 2756SOL    HW211097   3.374   3.398   4.533 -0.0942  0.4746  0.3850
 2756SOL    HW311098   3.485   3.470   4.607  0.1633  0.1937  0.2717
 2756SOL    MW411099   3.411   3.424   4.608  0.0575  0.3648  0.3481
 2757SOL     OW11100   0.193   1.808   4.283  0.0555  0.1350  0.0834
 2757SOL    HW211101   0.196   1.721   4.243 -0.7766  0.2494 -0.2291
 2757SOL    HW311102   0.268   1.854   4.247  0.4530 -0.4244  0.1873
 2757SOL    MW411103   0.203   1.802   4.273 -0.0019  0.0764  0.0563
 2758SOL     OW11104   2.038   1.474   3.996  0.5481  0.1448 -0.0830
 2758SOL    HW211105   1.972   1.535   4.028 -0.3176 -0.8999  0.1706
 2758SOL    HW311106   2.121   1.509   4.028 -0.0573  0.5439  1.0882
 2758SOL    MW411107   2.040   1.486   4.004  0.3538  0.0596  0.1054
 2759SOL     OW11108   3.452   3.106   4.315  0.1280 -0.0294  0.0829
 2759SOL    HW211109   3.388   3.058   4.262 -1.4164  0.3350  1.5677
 2759SOL    HW311110   3.413   3.193   4.326  0.3632 -0.1369  1.8893
 2759SOL    MW411111   3.438   3.111   4.309 -0.0446  0.0045  0.5174
 2760SOL     OW11112   0.479   3.759   4.282  0.4774  0.1566 -0.0029
 2760SOL    HW211113   0.524   3.841   4.263 -2.2520  1.3776 -1.5796
 2760SOL    HW311114   0.506   3.737   4.371  1.4600  2.6367  0.3624
 2760SOL    MW411115   0.488   3.767   4.292  0.2469  0.6447 -0.1631
 2761SOL     OW11116   2.508   0.704   3.872 -0.0585 -0.4648 -0.4424
 2761SOL    HW211117   2.504   0.616   3.834  0.1105 -0.7021  0.0891
 2761SOL    HW311118   2.419   0.737   3.866 -0.0871 -0.6034 -0.8022
 2761SOL    MW411119   2.496   0.697   3.866 -0.0401 -0.5144 -0.4196
 2762SOL     OW11120   1.581   3.054   4.670  0.0678 -0.2050  0.5758
 2762SOL    HW211121   1.509   3.007   4.713  1.2264 -0.7554  1.9679
 2762SOL    HW311122   1.576   3.143   4.705  0.2389 -0.3184  0.8881
 2762SOL    MW411123   1.571   3.060   4.680  0.2433 -0.2923  0.8011
 2763SOL     OW11124   0.517   3.163   4.502 -0.2673 -0.0083 -0.4637
 2763SOL    HW211125   0.492   3.101   4.434 -0.5414  0.8581 -1.1564
 2763SOL    HW311126   0.613   3.168   4.497 -0.1882 -0.8817  0.0493
 2763SOL    MW411127   0.527   3.155   4.493 -0.2931 -0.0091 -0.4873
 2764SOL     OW11128   2.646   3.720   4.440 -0.1780  0.2647  0.1096
 2764SOL    HW211129   2.660   3.806   4.481 -0.0663 -1.1075  3.1040
 2764SOL    HW311130   2.558   3.695   4.468 -0.1697 -0.6597 -0.6773
 2764SOL    MW411131   2.636   3.728   4.449 -0.1624 -0.0381  0.4010
 2765SOL     OW11132   1.124   3.004   4.118  0.0090 -0.3765 -0.3366
 2765SOL    HW211133   1.128   3.014   4.023 -0.5169 -0.5262 -0.3773
 2765SOL    HW311134   1.180   2.928   4.137 -0.3068 -0.6703 -0.5819
 2765SOL    MW411135   1.132   2.995   4.108 -0.1020 -0.4351 -0.3743
 2766SOL     OW11136   0.405   4.111   4.162  0.1982 -0.0135 -0.0989
 2766SOL    HW211137   0.488   4.064   4.152  0.4348  0.1393  1.0169
 2766SOL    HW311138   0.410   4.183   4.100  0.9531  0.0579  0.0428
 2766SOL    MW411139   0.417   4.114   4.153  0.3291  0.0157  0.0672
 2767SOL     OW11140   2.453   4.101   4.269 -0.2009 -0.1455 -0.1160
 2767SOL    HW211141   2.455   4.012   4.233  1.3372 -0.1922  0.0410
 2767SOL    HW311142   2.524   4.146   4.223 -1.0684  1.0408 -0.2910
 2767SOL    MW411143   2.463   4.095   4.258 -0.1123  0.0052 -0.1187
 2768SOL     OW11144   2.009   3.072   3.931 -0.1186  0.2017 -0.2831
 2768SOL    HW211145   2.001   2.984   3.895  0.0089  0.3253 -0.6220
 2768SOL    HW311146   1.978   3.065   4.021 -0.3740 -0.1304 -0.3981
 2768SOL    MW411147   2.004   3.060   3.938 -0.1354  0.1738 -0.3431
 2769SOL     OW11148   0.662   1.016   4.247 -0.5028  0.3776 -0.2370
 2769SOL    HW211149   0.741   1.051   4.206 -0.0938  0.4617  0.6219
 2769SOL    HW311150   0.680   0.923   4.260  0.3908  0.8456  2.1104
 2769SOL    MW411151   0.675   1.009   4.243 -0.3309  0.4505  0.1860
 2770SOL     OW11152   1.425   0.379   4.125 -0.0015 -0.5949 -0.3234
 2770SOL    HW211153   1.407   0.411   4.037  0.0079  0.8388  0.1803
 2770SOL    HW311154   1.418   0.456   4.181  1.7347 -1.1461  0.7079
 2770SOL    MW411155   1.422   0.393   4.121  0.2290 -0.4785 -0.1211
 2771SOL     OW11156   1.279   0.203   4.436 -0.2246 -0.1205 -0.0549
 2771SOL    HW211157   1.319   0.121   4.464 -0.2200  0.3442  1.3076
 2771SOL    HW311158   1.290   0.203   4.341  0.6875 -1.2117  0.0382
 2771SOL    MW411159   1.286   0.192   4.427 -0.1036 -0.2031  0.1369
 2772SOL     OW11160   2.697   0.561   4.275 -0.0833 -0.7117 -0.0961
 2772SOL    HW211161   2.702   0.579   4.369  0.3438  0.9085 -0.4206
 2772SOL    HW311162   2.767   0.613   4.236  0.3199 -2.0672 -1.2272
 2772SOL    MW411163   2.707   0.570   4.282  0.0260 -0.6767 -0.2880
 2773SOL     OW11164   4.258   4.655   4.158  0.0053  0.2136  0.5693
 2773SOL    HW211165   4.318   4.588   4.191 -0.5166 -0.0814  0.9371
 2773SOL    HW311166   4.173   4.630   4.194 -0.3727  0.5161 -0.1002
 2773SOL    MW411167   4.254   4.643   4.167 -0.1130  0.2146  0.5293
 2774SOL     OW11168   0.713   3.092   4.199  0.6951  0.1138  0.0637
 2774SOL    HW211169   0.772   3.168   4.199  0.0523  0.6241  0.1455
 2774SOL    HW311170   0.770   3.018   4.179  1.0689  0.8468 -1.7621
 2774SOL    MW411171   0.728   3.092   4.196  0.6596  0.2780 -0.1664
 2775SOL     OW11172   0.475   2.705   4.398 -0.3915  0.5537 -0.5211
 2775SOL    HW211173   0.396   2.718   4.450 -0.7599  1.8274 -1.3681
 2775SOL    HW311174   0.486   2.788   4.350 -0.0999 -0.5979 -2.4840
 2775SOL    MW411175   0.466   2.718   4.398 -0.4016  0.5698 -0.8912
 2776SOL     OW11176   1.312   2.088   4.658 -0.6261  0.1371  0.1152
 2776SOL    HW211177   1.284   2.176   4.683  0.2322  0.8211 -1.2754
 2776SOL    HW311178   1.406   2.097   4.640 -0.4747 -1.1238  0.2040
 2776SOL    MW411179   1.321   2.101   4.659 -0.4929  0.0613 -0.0572
 2777SOL     OW11180   3.391   0.956   4.319  0.3736  0.1552  0.4500
 2777SOL    HW211181   3.308   0.987   4.283  0.3700 -1.2107 -0.7513
 2777SOL    HW311182   3.457   1.012   4.277  0.2355 -0.3309 -0.4388
 2777SOL    MW411183   3.389   0.967   4.309  0.3548 -0.0890  0.1740
 2778SOL     OW11184   1.076   2.583   4.841 -0.3009  0.1366 -0.0807
 2778SOL    HW211185   1.022   2.521   4.891 -0.5398 -0.2469 -0.8152
 2778SOL    HW311186   1.023   2.604   4.764  0.1525  0.5765 -0.2729
 2778SOL    MW411187   1.062   2.577   4.838 -0.2725  0.1438 -0.2027
 2779SOL     OW11188   1.268   1.401   4.240 -0.1613 -0.1150  0.3404
 2779SOL    HW211189   1.344   1.444   4.200 -0.1455 -0.4803 -0.0219
 2779SOL    HW311190   1.194   1.457   4.217  0.0268  0.3729  0.8944
 2779SOL    MW411191   1.268   1.414   4.232 -0.1342 -0.0988  0.3657
 2780SOL     OW11192   1.533   1.779   4.255  0.3150  0.3020  0.0919
 2780SOL    HW211193   1.510   1.697   4.211  0.7087  0.3826 -0.2612
 2780SOL    HW311194   1.559   1.752   4.343  0.6298  0.0293 -0.0873
 2780SOL    MW411195   1.533   1.765   4.261  0.4085  0.2767  0.0219
 2781SOL     OW11196   1.119   2.090   3.819 -0.0756  0.2882 -0.1120
 2781SOL    HW211197   1.125   2.074   3.725 -0.6272  0.7017 -0.2197
 2781SOL    HW311198   1.080   2.177   3.826 -0.0961  0.2306  0.4989
 2781SOL    MW411199   1.115   2.100   3.807 -0.1510  0.3352 -0.0458
 2782SOL     OW11200   4.040   3.216   3.758  0.2330  0.6789 -0.3767
 2782SOL    HW211201   4.044   3.213   3.663  2.6411 -1.6735 -0.2350
 2782SOL    HW311202   3.955   3.177   3.780  0.2244  0.0425 -1.5170
 2782SOL    MW411203   4.029   3.211   3.749  0.5503  0.2842 -0.5085
 2783SOL     OW11204   0.234   1.531   4.173  0.0193  0.1155  0.0443
 2783SOL    HW211205   0.315   1.483   4.187  0.0578  0.1636 -0.0162
 2783SOL    HW311206   0.226   1.539   4.078 -2.0563 -3.3556 -0.1524
 2783SOL    MW411207   0.243   1.526   4.163 -0.2495 -0.3362  0.0105
 2784SOL     OW11208   1.230   1.898   4.493 -0.4493  0.4527  0.1512
 2784SOL    HW211209   1.258   1.966   4.555  0.7790  0.2860 -0.2188
 2784SOL    HW311210   1.250   1.934   4.407  1.0506 -0.7367 -0.0166
 2784SOL    MW411211   1.236   1.912   4.490 -0.0895  0.2738  0.0796
 2785SOL     OW11212   2.173   1.297   4.484 -0.2943  0.7416 -0.3816
 2785SOL    HW211213   2.255   1.273   4.528 -0.3279 -1.6428 -1.5627
 2785SOL    HW311214   2.201   1.342   4.405 -0.1109  0.0214 -0.7326
 2785SOL    MW411215   2.187   1.300   4.479 -0.2744  0.3321 -0.5836
 2786SOL     OW11216   0.458   1.891   3.914 -0.2728 -0.0541 -0.0608
 2786SOL    HW211217   0.537   1.934   3.881 -0.6280  1.8900  1.5426
 2786SOL    HW311218   0.386   1.946   3.885 -0.9609 -1.1228 -0.4193
 2786SOL    MW411219   0.459   1.904   3.906 -0.4104  0.0614  0.1037
 2787SOL     OW11220   3.758   1.472   4.168  0.3687  0.2795  0.2906
 2787SOL    HW211221   3.797   1.389   4.196 -0.2532  0.0205  0.3869
 2787SOL    HW311222   3.805   1.539   4.217  0.9440 -0.0097  0.1331
 2787SOL    MW411223   3.769   1.470   4.178  0.3626  0.2071  0.2828
 2788SOL     OW11224   3.183   0.387   4.602 -0.4658 -1.0780 -0.1823
 2788SOL    HW211225   3.099   0.342   4.610 -0.6723 -0.5724  0.5311
 2788SOL    HW311226   3.161   0.477   4.580 -0.1614 -0.6956  1.0277
 2788SOL    MW411227   3.169   0.393   4.600 -0.4530 -0.9608  0.0715
 2789SOL     OW11228   2.008   2.814   4.591  0.0524  0.7080 -0.5405
 2789SOL    HW211229   1.994   2.761   4.512 -1.9542  0.9250 -0.3496
 2789SOL    HW311230   2.043   2.751   4.655  0.0432  0.1613 -1.0606
 2789SOL    MW411231   2.011   2.799   4.589 -0.2136  0.6645 -0.5836
 2790SOL     OW11232   1.571   3.379   4.279 -0.2974 -0.1986 -0.0557
 2790SOL    HW211233   1.494   3.391   4.224  0.7560 -0.7172 -1.6948
 2790SOL    HW311234   1.569   3.287   4.303  0.5515 -0.5529 -1.2823
 2790SOL    MW411235   1.561   3.369   4.275 -0.0464 -0.3140 -0.4339
 2791SOL     OW11236   3.392   1.493   3.921 -0.1256 -0.2317  0.0492
 2791SOL    HW211237   3.445   1.557   3.872  1.1221 -1.4693 -0.2356
 2791SOL    HW311238   3.391   1.528   4.011  2.2560 -0.8430  0.3408
 2791SOL    MW411239   3.399   1.506   3.926  0.3531 -0.4756  0.0501
 2792SOL     OW11240   1.846   0.716   4.568 -0.0059 -0.1967 -0.0565
 2792SOL    HW211241   1.810   0.804   4.560 -0.2601 -0.4377 -1.5784
 2792SOL    HW311242   1.803   0.680   4.646 -1.7191  0.1501 -0.8335
 2792SOL    MW411243   1.836   0.723   4.577 -0.2655 -0.1827 -0.3600
 2793SOL     OW11244   2.534   2.165   3.801  0.0944 -0.0047  0.3795
 2793SOL    HW211245   2.512   2.124   3.717 -0.8135 -0.5680  0.8790
 2793SOL    HW311246   2.450   2.168   3.848  0.1062  2.6129  0.2724
 2793SOL    MW411247   2.520   2.160   3.796 -0.0241  0.2661  0.4313
 2794SOL     OW11248   2.598   2.946   4.206 -0.8385  0.0037  0.1035
 2794SOL    HW211249   2.690   2.970   4.205 -0.4498 -1.4666 -0.5795
 2794SOL    HW311250   2.578   2.930   4.299 -0.4254  0.3628  0.2548
 2794SOL    MW411251   2.607   2.947   4.218 -0.7329 -0.1431  0.0334
 2795SOL     OW11252   0.817   1.672   4.613 -0.2769  0.1604 -0.0512
 2795SOL    HW211253   0.724   1.649   4.602 -0.2495  0.4516 -0.9523
 2795SOL    HW311254   0.818   1.732   4.687 -0.9313  0.8575 -0.5928
 2795SOL    MW411255   0.805   1.677   4.621 -0.3596  0.2910 -0.2413
 2796SOL     OW11256   1.704   4.131   4.647  0.4123  0.0634  0.5394
 2796SOL    HW211257   1.705   4.108   4.740 -0.7313 -0.0371  0.5333
 2796SOL    HW311258   1.667   4.055   4.603  0.4034  0.3338  0.0728
 2796SOL    MW411259   1.699   4.118   4.654  0.2602  0.0858  0.4768
 2797SOL     OW11260   1.839   0.608   4.320 -0.2322 -0.2150  0.3044
 2797SOL    HW211261   1.811   0.518   4.341  1.5280 -0.4724  1.7213
 2797SOL    HW311262   1.865   0.645   4.405 -0.9524  1.6536 -0.2632
 2797SOL    MW411263   1.839   0.601   4.334 -0.0951 -0.0024  0.4168
 2798SOL     OW11264   2.042   1.787   3.900 -0.0739  0.1111 -0.2911
 2798SOL    HW211265   2.053   1.739   3.983 -1.6637 -0.4465 -0.3943
 2798SOL    HW311266   2.044   1.879   3.926 -1.2476 -0.0704  0.4607
 2798SOL    MW411267   2.044   1.793   3.915 -0.4387  0.0135 -0.2058
 2799SOL     OW11268   2.850   4.642   4.633 -0.2567  0.1620 -0.0082
 2799SOL    HW211269   2.763   4.658   4.669  0.0209  0.3708  0.5643
 2799SOL    HW311270   2.840   4.561   4.583 -0.6490 -0.1046  0.4927
 2799SOL    MW411271   2.837   4.634   4.631 -0.2720  0.1545  0.1335
 2800SOL     OW11272   0.197   2.322   3.903 -0.4383  0.2781  0.1620
 2800SOL    HW211273   0.280   2.342   3.860 -0.1780  1.8160  1.3270
 2800SOL    HW311274   0.216   2.324   3.996 -1.6488  0.0197  0.4329
 2800SOL    MW411275   0.210   2.325   3.909 -0.5636  0.4470  0.3517
 2801SOL     OW11276   3.596   3.233   4.767  0.8540  0.0550 -0.1959
 2801SOL    HW211277   3.650   3.271   4.837  0.9707  0.7347 -0.6456
 2801SOL    HW311278   3.527   3.298   4.753  0.0317 -0.7104  0.2310
 2801SOL    MW411279   3.594   3.247   4.775  0.7608  0.0436 -0.1988
 2802SOL     OW11280   3.360   2.313   3.988  0.1405  0.2706  0.3272
 2802SOL    HW211281   3.273   2.345   3.962  0.0516  1.5644  2.1883
 2802SOL    HW311282   3.346   2.272   4.073  1.2235 -0.2639  0.2622
 2802SOL    MW411283   3.346   2.312   3.996  0.2716  0.3707  0.5641
 2803SOL     OW11284   3.394   0.745   4.144  0.3163  0.2227 -0.4570
 2803SOL    HW211285   3.375   0.816   4.205 -0.2878  0.0982 -0.5047
 2803SOL    HW311286   3.470   0.700   4.182 -0.5340 -0.3358  0.6072
 2803SOL    MW411287   3.402   0.748   4.157  0.1247  0.1326 -0.3223
 2804SOL     OW11288   0.863   4.147   4.135  0.1845 -0.2130 -0.8251
 2804SOL    HW211289   0.882   4.193   4.053 -0.0269  1.1946 -0.0912
 2804SOL    HW311290   0.949   4.127   4.171  0.2890  1.0340 -0.3616
 2804SOL    MW411291   0.877   4.151   4.129  0.1704  0.1373 -0.6671
 2805SOL     OW11292   2.463   2.796   3.738  0.0239  0.0431 -0.4397
 2805SOL    HW211293   2.531   2.756   3.792 -1.2163 -0.9606  0.4177
 2805SOL    HW311294   2.457   2.886   3.770  0.6568  0.0193 -0.2446
 2805SOL    MW411295   2.471   2.803   3.749 -0.0563 -0.0925 -0.3009
 2806SOL     OW11296   0.949   0.633   4.308  0.2100 -0.1086  0.3701
 2806SOL    HW211297   0.972   0.661   4.397 -1.4213 -1.7529  1.3394
 2806SOL    HW311298   0.865   0.677   4.291  0.6907  0.4891 -0.5213
 2806SOL    MW411299   0.941   0.643   4.318  0.0582 -0.2467  0.3805
 2807SOL     OW11300   4.020   4.519   4.234  0.2317 -0.3526 -0.0339
 2807SOL    HW211301   3.931   4.550   4.216  0.5945  0.3554 -0.6403
 2807SOL    HW311302   4.017   4.490   4.325 -0.6340 -0.3764 -0.0680
 2807SOL    MW411303   4.008   4.520   4.244  0.1655 -0.2627 -0.1183
 2808SOL     OW11304   0.670   1.552   4.165  0.3738  0.1744 -0.0674
 2808SOL    HW211305   0.681   1.542   4.070  0.4995 -0.5241  0.0246
 2808SOL    HW311306   0.742   1.504   4.204  1.7067  2.4192  0.3498
 2808SOL    MW411307   0.681   1.545   4.158  0.5662  0.3784 -0.0005
 2809SOL     OW11308   2.440   3.339   4.210 -0.0149  0.0778  0.6469
 2809SOL    HW211309   2.362   3.389   4.188  0.7030  0.8501 -0.1984
 2809SOL    HW311310   2.422   3.251   4.178 -0.3939  0.3359  0.1520
 2809SOL    MW411311   2.428   3.334   4.203  0.0296  0.2139  0.4702
 2810SOL     OW11312   1.526   4.168   4.278 -0.2179  0.5298 -0.2831
 2810SOL    HW211313   1.458   4.183   4.212 -1.4665  0.1910  0.9007
 2810SOL    HW311314   1.530   4.073   4.288 -0.6161  0.6065  0.6949
 2810SOL    MW411315   1.517   4.158   4.270 -0.4351  0.4950  0.0019
 2811SOL     OW11316   1.810   2.664   3.931 -0.0515 -0.0649  0.5693
 2811SOL    HW211317   1.816   2.571   3.955 -0.5810 -0.5163 -0.9604
 2811SOL    HW311318   1.780   2.707   4.010 -1.7018 -1.4932  0.7590
 2811SOL    MW411319   1.807   2.657   3.945 -0.3392 -0.3130  0.3924
 2812SOL     OW11320   4.261   0.237   4.312  0.2215  0.2289  0.4427
 2812SOL    HW211321   4.251   0.147   4.281 -1.2296  0.9815 -1.3643
 2812SOL    HW311322   4.318   0.278   4.247  0.5807  0.7085  1.0609
 2812SOL    MW411323   4.267   0.230   4.299  0.0768  0.3914  0.2861
 2813SOL     OW11324   3.738   2.172   4.517 -0.1134  0.1227 -0.2531
 2813SOL    HW211325   3.803   2.243   4.523  0.6025 -0.5055 -0.5090
 2813SOL    HW311326   3.673   2.194   4.583 -0.0947  1.2271 -0.5774
 2813SOL    MW411327   3.738   2.185   4.526 -0.0167  0.1857 -0.3290
 2814SOL     OW11328   3.406   3.864   3.952  0.2215  1.0103  0.4897
 2814SOL    HW211329   3.388   3.771   3.940  0.1087  1.2293 -1.1473
 2814SOL    HW311330   3.334   3.908   3.907 -0.2993  1.8989  2.1490
 2814SOL    MW411331   3.394   3.858   3.944  0.1378  1.1566  0.4926
 2815SOL     OW11332   0.087   1.697   4.542  0.2458 -0.2932  0.6723
 2815SOL    HW211333  -0.007   1.707   4.556  0.3648  1.6341  0.1581
 2815SOL    HW311334   0.103   1.739   4.457  1.6495 -0.1949  0.9804
 2815SOL    MW411335   0.076   1.704   4.532  0.4467 -0.0259  0.6452
 2816SOL     OW11336   3.674   3.168   4.489  0.1301 -0.0950  0.2642
 2816SOL    HW211337   3.604   3.129   4.436  0.0389  0.2435  0.1284
 2816SOL    HW311338   3.643   3.161   4.579 -0.1645  0.2200  0.1887
 2816SOL    MW411339   3.660   3.162   4.494  0.0792 -0.0086  0.2365
 2817SOL     OW11340   3.365   4.243   4.500  0.0785 -0.0052 -0.3336
 2817SOL    HW211341   3.458   4.241   4.523  0.1736  2.7631 -0.2576
 2817SOL    HW311342   3.336   4.331   4.525 -2.2962 -0.4415 -1.3884
 2817SOL    MW411343   3.373   4.254   4.507 -0.2222  0.3028 -0.4625
 2818SOL     OW11344   2.804   3.621   4.860  0.0267 -0.1614 -0.2870
 2818SOL    HW211345   2.876   3.559   4.846 -0.4949 -0.6608 -0.7381
 2818SOL    HW311346   2.752   3.582   4.931  0.7051  0.6490  0.6752
 2818SOL    MW411347   2.807   3.608   4.868  0.0474 -0.1204 -0.2198
 2819SOL     OW11348   1.720   1.429   4.201  0.1489 -0.0321  0.2049
 2819SOL    HW211349   1.773   1.507   4.186 -1.0827  0.9189  0.7392
 2819SOL    HW311350   1.707   1.426   4.296 -2.5193  0.9624 -0.0775
 2819SOL    MW411351   1.725   1.439   4.211 -0.3655  0.2246  0.2384
 2820SOL     OW11352   1.101   1.014   4.256 -0.0952 -0.7943 -0.8447
 2820SOL    HW211353   1.121   1.035   4.347  2.0077  1.1983 -1.7372
 2820SOL    HW311354   1.125   0.922   4.247  1.2446 -0.5529  0.1632
 2820SOL    MW411355   1.107   1.005   4.267  0.3589 -0.4995 -0.8297
 2821SOL     OW11356   1.472   4.294   4.537  0.1317 -0.2143 -0.0878
 2821SOL    HW211357   1.497   4.255   4.454  2.3062  1.0856 -0.0863
 2821SOL    HW311358   1.534   4.260   4.600 -0.7807 -0.2808  0.7927
 2821SOL    MW411359   1.483   4.285   4.534  0.2981 -0.0520  0.0286
 2822SOL     OW11360   0.430   1.119   4.116  0.2230 -0.7445 -0.0981
 2822SOL    HW211361   0.508   1.074   4.148  0.5494 -0.0517  0.0928
 2822SOL    HW311362   0.357   1.071   4.153  0.5845 -0.3560  1.1371
 2822SOL    MW411363   0.431   1.107   4.125  0.3138 -0.6019  0.0906
 2823SOL     OW11364   1.319   2.715   4.865  0.0178  0.3109 -0.2501
 2823SOL    HW211365   1.312   2.804   4.828 -0.7702  0.5647  0.5080
 2823SOL    HW311366   1.230   2.679   4.857 -0.3455  0.6313  2.0561
 2823SOL    MW411367   1.306   2.722   4.859 -0.1341  0.3865  0.1540
 2824SOL     OW11368   0.244   0.708   4.117 -0.0616 -0.0306 -0.0389
 2824SOL    HW211369   0.162   0.669   4.145  0.9770 -1.6052  0.8989
 2824SOL    HW311370   0.240   0.798   4.148 -0.2036 -0.9153  2.6107
 2824SOL    MW411371   0.233   0.715   4.124  0.0567 -0.3551  0.4344
 2825SOL     OW11372   1.342   1.137   4.169  0.0904  0.5603 -0.2084
 2825SOL    HW211373   1.320   1.229   4.184  0.0952  0.1886  2.4993
 2825SOL    HW311374   1.259   1.091   4.177  0.4893  0.0650  1.3723
 2825SOL    MW411375   1.329   1.143   4.172  0.1436  0.4460  0.3581
 2826SOL     OW11376   0.595   1.110   4.519  0.3819  0.5422 -0.0010
 2826SOL    HW211377   0.552   1.195   4.522  1.1435  0.9868 -1.2232
 2826SOL    HW311378   0.614   1.096   4.426 -0.7966 -1.5021  0.0400
 2826SOL    MW411379   0.592   1.119   4.507  0.3269  0.3310 -0.1574
 2827SOL     OW11380   2.022   1.013   4.210 -0.3886 -0.4687 -0.1452
 2827SOL    HW211381   2.023   1.016   4.306 -0.1243 -0.3537 -0.1514
 2827SOL    HW311382   1.952   1.075   4.186  1.3675  1.6005 -0.0929
 2827SOL    MW411383   2.013   1.022   4.220 -0.1221 -0.1806 -0.1392
 2828SOL     OW11384   3.359   4.128   4.258 -0.1241  0.4074  0.4353
 2828SOL    HW211385   3.364   4.034   4.274 -1.3984  0.3874  0.7310
 2828SOL    HW311386   3.376   4.167   4.344 -0.4841  0.4309  0.4955
 2828SOL    MW411387   3.362   4.121   4.272 -0.3395  0.4086  0.4821
 2829SOL     OW11388   0.644   3.961   4.170  0.1322 -0.0033 -0.3338
 2829SOL    HW211389   0.643   3.924   4.082  0.4944  0.6341 -0.6133
 2829SOL    HW311390   0.718   4.023   4.169  0.8549 -0.8142  0.7504
 2829SOL    MW411391   0.654   3.964   4.158  0.2754 -0.0262 -0.2279
 2830SOL     OW11392   1.905   2.245   4.389 -0.5123  0.0474  0.0746
 2830SOL    HW211393   1.856   2.173   4.348  0.7136 -0.6216 -0.2409
 2830SOL    HW311394   1.996   2.228   4.365 -0.0308  0.8320  1.3276
 2830SOL    MW411395   1.910   2.233   4.381 -0.2872  0.0627  0.1988
 2831SOL     OW11396   3.773   4.614   4.194 -0.4777  0.2689 -0.2797
 2831SOL    HW211397   3.768   4.704   4.225 -2.5612  0.5030 -1.1796
 2831SOL    HW311398   3.700   4.570   4.236  0.3595 -0.9427 -0.0663
 2831SOL    MW411399   3.763   4.620   4.204 -0.6423  0.1397 -0.3705
 2832SOL     OW11400   0.475   2.973   4.297  0.8225  0.2156 -0.4318
 2832SOL    HW211401   0.552   3.017   4.261  0.6715 -0.0744 -1.1219
 2832SOL    HW311402   0.408   2.981   4.229  0.4702 -0.1647 -0.1351
 2832SOL    MW411403   0.476   2.979   4.283  0.7561  0.1271 -0.4840
 2833SOL     OW11404   2.993   0.922   4.252 -0.1264 -0.6284  0.5457
 2833SOL    HW211405   2.975   0.837   4.212 -0.0936 -0.6662  0.6108
 2833SOL    HW311406   2.920   0.978   4.224  0.2171 -0.4851 -0.0610
 2833SOL    MW411407   2.981   0.918   4.243 -0.0768 -0.6145  0.4740
 2834SOL     OW11408   4.081   4.229   3.919  0.6008 -0.2693 -0.5877
 2834SOL    HW211409   4.007   4.275   3.878  0.2348 -1.0263 -0.7685
 2834SOL    HW311410   4.065   4.237   4.013 -0.7391 -2.1044 -0.6407
 2834SOL    MW411411   4.069   4.236   3.926  0.3757 -0.6108 -0.6182
 2835SOL     OW11412   0.451   2.572   4.150 -0.3959  0.1157 -0.4628
 2835SOL    HW211413   0.461   2.615   4.235  0.2015  1.5669 -1.2465
 2835SOL    HW311414   0.380   2.509   4.163  1.1866 -1.2729  1.7144
 2835SOL    MW411415   0.443   2.569   4.163 -0.1083  0.1237 -0.2789
 2836SOL     OW11416   3.143   4.224   4.108 -0.2528  0.2885  0.0023
 2836SOL    HW211417   3.064   4.183   4.142 -0.3262  1.7421  1.6796
 2836SOL    HW311418   3.214   4.182   4.157 -0.0928  0.0492 -0.4306
 2836SOL    MW411419   3.142   4.213   4.119 -0.2413  0.4487  0.1669
 2837SOL     OW11420   2.899   3.877   4.755 -0.4719 -0.4178  0.5336
 2837SOL    HW211421   2.855   3.809   4.806  0.6203 -0.9620  0.7654
 2837SOL    HW311422   2.992   3.864   4.774 -0.1601  0.2321 -0.5439
 2837SOL    MW411423   2.906   3.866   4.764 -0.2866 -0.4039  0.4220
 2838SOL     OW11424   0.225   2.082   4.593  0.3370 -0.0052 -0.3685
 2838SOL    HW211425   0.252   1.994   4.619  0.2662 -0.6237 -2.2469
 2838SOL    HW311426   0.129   2.077   4.590  0.2788  0.4894  0.6975
 2838SOL    MW411427   0.216   2.070   4.596  0.3200 -0.0219 -0.4759
 2839SOL     OW11428   0.757   3.544   4.536 -0.4610 -0.3151  0.0372
 2839SOL    HW211429   0.665   3.573   4.537 -0.0867  0.9034  0.3982
 2839SOL    HW311430   0.803   3.614   4.490  0.2799 -0.9718 -0.2284
 2839SOL    MW411431   0.751   3.557   4.530 -0.3138 -0.2410  0.0496
 2840SOL     OW11432   0.555   1.597   4.564 -0.6023 -0.2063 -0.3230
 2840SOL    HW211433   0.523   1.513   4.532 -0.8586  0.9779 -3.3085
 2840SOL    HW311434   0.572   1.648   4.485  3.4788  1.1538  1.2837
 2840SOL    MW411435   0.553   1.593   4.549 -0.0976  0.1293 -0.5050
 2841SOL     OW11436   2.606   3.162   4.549  0.5278 -0.6274 -0.0964
 2841SOL    HW211437   2.693   3.200   4.551  0.1944  0.0955  1.6038
 2841SOL    HW311438   2.548   3.237   4.532  0.1793 -1.0016 -0.5718
 2841SOL    MW411439   2.610   3.177   4.547  0.4377 -0.5815  0.0653
 2842SOL     OW11440   2.228   0.637   4.263  0.9181  0.2219  0.0047
 2842SOL    HW211441   2.163   0.662   4.197  0.5748  0.1851  0.3250
 2842SOL    HW311442   2.307   0.686   4.240  1.2129 -0.8108 -1.2079
 2842SOL    MW411443   2.230   0.647   4.251  0.9117  0.0808 -0.1130
 2843SOL     OW11444   3.413   1.749   4.765  0.1073  0.5431 -0.5351
 2843SOL    HW211445   3.468   1.675   4.737  0.0759  0.0480  0.6752
 2843SOL    HW311446   3.474   1.821   4.776  0.5911 -0.1089  1.1847
 2843SOL    MW411447   3.429   1.748   4.763  0.1669  0.3917 -0.1488
 2844SOL     OW11448   1.781   4.453   4.301  0.0632 -0.1229 -0.0809
 2844SOL    HW211449   1.773   4.376   4.245 -1.0403  0.8495 -1.3148
 2844SOL    HW311450   1.853   4.503   4.263 -1.5291  1.1859 -1.5088
 2844SOL    MW411451   1.789   4.450   4.288 -0.2924  0.1779 -0.4320
 2845SOL     OW11452   0.837   4.378   4.290  0.5131  0.2974  0.2378
 2845SOL    HW211453   0.843   4.292   4.247 -0.8014  0.4062 -0.1625
 2845SOL    HW311454   0.877   4.439   4.228 -0.3544  0.2815 -0.3317
 2845SOL    MW411455   0.843   4.374   4.276  0.2252  0.3099  0.1101
 2846SOL     OW11456   0.717   1.280   3.766 -0.4331 -0.4049 -0.1769
 2846SOL    HW211457   0.717   1.274   3.670  1.1543  0.6029 -0.2492
 2846SOL    HW311458   0.629   1.252   3.791 -1.0712 -0.0812 -1.9740
 2846SOL    MW411459   0.705   1.276   3.756 -0.3079 -0.2294 -0.4234
 2847SOL     OW11460   2.021   4.618   3.868  0.3113 -0.2838  0.0103
 2847SOL    HW211461   2.099   4.661   3.834  0.2391 -0.8304 -0.8476
 2847SOL    HW311462   2.011   4.540   3.815 -0.3938 -0.6106  0.6111
 2847SOL    MW411463   2.030   4.614   3.857  0.2086 -0.3991 -0.0238
 2848SOL     OW11464   4.051   1.151   3.809 -0.8168 -0.2111  0.1334
 2848SOL    HW211465   4.141   1.177   3.793 -1.2139  0.3785 -1.2515
 2848SOL    HW311466   4.043   1.145   3.904  0.9419 -1.2510  0.2231
 2848SOL    MW411467   4.062   1.153   3.820 -0.6371 -0.2706 -0.0372
 2849SOL     OW11468   0.707   0.278   4.259  0.1221  0.0682  0.4046
 2849SOL    HW211469   0.614   0.299   4.252  0.4976  1.5095 -0.7274
 2849SOL    HW311470   0.737   0.327   4.336 -0.2409 -1.1382  1.3193
 2849SOL    MW411471   0.699   0.287   4.268  0.1237  0.0992  0.3757
 2850SOL     OW11472   2.142   4.383   4.533  0.2314  0.2327 -0.0754
 2850SOL    HW211473   2.096   4.459   4.569  0.5364 -0.0492  0.9232
 2850SOL    HW311474   2.097   4.307   4.571 -0.1129 -0.0889 -1.1180
 2850SOL    MW411475   2.130   4.383   4.543  0.2260  0.1531 -0.0815
 2851SOL     OW11476   2.671   4.245   4.112  0.1132  0.3289  0.3752
 2851SOL    HW211477   2.753   4.205   4.140  0.5793  1.6025  0.8588
 2851SOL    HW311478   2.675   4.245   4.016  1.0387  1.0926  0.4037
 2851SOL    MW411479   2.682   4.240   4.103  0.2968  0.5980  0.4430
 2852SOL     OW11480   3.916   3.487   4.463  0.0062  0.2508 -0.6390
 2852SOL    HW211481   3.985   3.543   4.428  0.0398  1.3131  1.0957
 2852SOL    HW311482   3.959   3.435   4.531 -0.5894 -0.0407 -0.4816
 2852SOL    MW411483   3.931   3.487   4.467 -0.0675  0.3526 -0.3891
 2853SOL     OW11484   4.079   3.640   4.787  0.3198 -0.1943 -0.0466
 2853SOL    HW211485   4.152   3.578   4.794  0.1746 -0.3526  0.0732
 2853SOL    HW311486   4.096   3.704   4.857 -0.1255 -0.7288  0.5629
 2853SOL    MW411487   4.091   3.641   4.797  0.2422 -0.2856  0.0491
 2854SOL     OW11488   3.031   3.580   4.434 -0.0364 -0.8992 -0.0645
 2854SOL    HW211489   2.957   3.583   4.494 -0.0119  0.5437 -0.0930
 2854SOL    HW311490   3.046   3.671   4.410  1.3114 -1.2495 -0.5956
 2854SOL    MW411491   3.023   3.593   4.439  0.1447 -0.7551 -0.1383
 2855SOL     OW11492   3.948   4.009   4.990  0.2838  0.1235 -0.2488
 2855SOL    HW211493   4.000   4.087   5.012 -1.1493  1.2049 -0.6031
 2855SOL    HW311494   4.012   3.938   4.986  1.5227  1.1588  0.7506
 2855SOL    MW411495   3.964   4.010   4.992  0.2580  0.4029 -0.1631
 2856SOL     OW11496   0.462   0.635   4.295  0.0588  0.6069  0.4950
 2856SOL    HW211497   0.445   0.634   4.389 -0.1725  0.4298  0.4523
 2856SOL    HW311498   0.381   0.669   4.257  0.7049  2.1543  0.4718
 2856SOL    MW411499   0.449   0.639   4.302  0.1136  0.7877  0.4864
 2857SOL     OW11500   1.300   2.990   4.727 -0.6392 -0.1262  0.1857
 2857SOL    HW211501   1.263   2.990   4.639  0.5383 -0.5376 -0.3330
 2857SOL    HW311502   1.233   3.030   4.782 -1.7216 -0.6177 -0.7587
 2857SOL    MW411503   1.287   2.995   4.723 -0.6267 -0.2453 -0.0072
 2858SOL     OW11504   4.294   1.782   4.263 -0.6105  0.3855 -0.5349
 2858SOL    HW211505   4.362   1.834   4.220  1.5436 -1.3776  0.5784
 2858SOL    HW311506   4.304   1.803   4.356  0.2833 -1.9553 -0.0762
 2858SOL    MW411507   4.304   1.792   4.270 -0.2084 -0.1559 -0.3271
 2859SOL     OW11508   2.389   2.525   4.618  0.4299 -0.1931  0.1640
 2859SOL    HW211509   2.391   2.496   4.526  1.4769 -0.9342  0.4079
 2859SOL    HW311510   2.296   2.533   4.638  0.1215 -2.1824 -0.3204
 2859SOL    MW411511   2.377   2.522   4.608  0.5276 -0.5531  0.1326
 2860SOL     OW11512   0.893   3.024   4.701 -0.5220  0.1365  0.4510
 2860SOL    HW211513   0.928   2.968   4.631 -0.1674  1.3240 -0.3517
 2860SOL    HW311514   0.839   3.088   4.655 -0.4646  0.7960  1.2911
 2860SOL    MW411515   0.891   3.025   4.685 -0.4676  0.3800  0.4563
 2861SOL     OW11516   3.611   1.794   4.140  0.1229  0.2476 -0.2694
 2861SOL    HW211517   3.530   1.743   4.149  0.2680  0.0911  0.1270
 2861SOL    HW311518   3.611   1.822   4.048 -0.2047 -0.0452 -0.3591
 2861SOL    MW411519   3.600   1.791   4.129  0.0987  0.1884 -0.2284
 2862SOL     OW11520   1.982   3.565   4.536 -0.0726  0.6433  0.1639
 2862SOL    HW211521   1.924   3.627   4.492 -0.0634  0.6000  0.0923
 2862SOL    HW311522   2.020   3.615   4.608  0.2614  0.8453 -0.1501
 2862SOL    MW411523   1.980   3.580   4.540 -0.0273  0.6642  0.1130
 2863SOL     OW11524   2.000   4.613   4.619 -0.6280  0.4852 -0.0657
 2863SOL    HW211525   1.908   4.587   4.612 -0.6416  0.9519 -1.9204
 2863SOL    HW311526   1.997   4.709   4.624 -0.2468  0.4922  0.0355
 2863SOL    MW411527   1.988   4.623   4.619 -0.5796  0.5479 -0.2971
 2864SOL     OW11528   4.257   4.007   4.688  0.2968 -0.0885 -0.0040
 2864SOL    HW211529   4.348   3.981   4.679  0.2287 -0.0523 -0.8939
 2864SOL    HW311530   4.207   3.933   4.652  0.0037  0.1302 -0.0564
 2864SOL    MW411531   4.262   3.994   4.682  0.2489 -0.0551 -0.1287
 2865SOL     OW11532   0.638   2.629   4.617  0.4952 -0.4868 -0.6191
 2865SOL    HW211533   0.581   2.653   4.544 -1.6918 -2.0074  0.5181
 2865SOL    HW311534   0.631   2.703   4.678  1.2043  0.1522 -1.3108
 2865SOL    MW411535   0.630   2.642   4.616  0.3002 -0.6034 -0.5603
 2866SOL     OW11536   0.650   2.807   3.791  0.1178 -0.0984  0.0678
 2866SOL    HW211537   0.654   2.888   3.841 -0.9727  0.3418 -0.5447
 2866SOL    HW311538   0.650   2.835   3.700 -0.2096 -0.7841 -0.1447
 2866SOL    MW411539   0.650   2.821   3.786 -0.0693 -0.1311 -0.0412
 2867SOL     OW11540   0.047   2.382   4.365 -0.2355 -0.0191 -0.0752
 2867SOL    HW211541   0.083   2.423   4.443 -1.6783 -0.0494  0.6228
 2867SOL    HW311542  -0.011   2.448   4.328 -1.6606 -0.9938  0.4000
 2867SOL    MW411543   0.044   2.396   4.370 -0.6139 -0.1516  0.0796
 2868SOL     OW11544   2.568   2.685   4.124  0.3774 -0.2743  0.1896
 2868SOL    HW211545   2.590   2.773   4.155  0.8652 -0.0552 -0.7570
 2868SOL    HW311546   2.620   2.627   4.179  0.3282  0.0454  0.5786
 2868SOL    MW411547   2.578   2.689   4.135  0.4354 -0.2034  0.1163
 2869SOL     OW11548   3.280   2.276   4.674 -0.2024  0.1910  0.0019
 2869SOL    HW211549   3.216   2.255   4.743 -1.9121  2.7671 -0.7158
 2869SOL    HW311550   3.298   2.369   4.687  0.0259  0.5206 -2.5515
 2869SOL    MW411551   3.274   2.285   4.685 -0.3977  0.5744 -0.4301
 2870SOL     OW11552   2.557   1.432   4.297 -0.2216 -0.3201 -0.3801
 2870SOL    HW211553   2.628   1.368   4.295 -0.4966 -0.5895 -1.6878
 2870SOL    HW311554   2.596   1.512   4.261 -1.1288 -1.0347 -2.9942
 2870SOL    MW411555   2.571   1.434   4.292 -0.3777 -0.4500 -0.8979
 2871SOL     OW11556   4.481   0.641   4.218  0.2941  0.3334  0.5649
 2871SOL    HW211557   4.481   0.552   4.184  0.7127  0.1037  1.1604
 2871SOL    HW311558   4.454   0.633   4.309 -0.8141  0.9464  0.2965
 2871SOL    MW411559   4.478   0.628   4.225  0.2027  0.3840  0.6080
 2872SOL     OW11560   1.392   4.568   4.469 -0.1839 -0.3382 -0.0294
 2872SOL    HW211561   1.396   4.548   4.375 -1.1014 -0.5391 -0.0314
 2872SOL    HW311562   1.427   4.489   4.511 -0.4605 -0.5417 -0.1760
 2872SOL    MW411563   1.397   4.555   4.462 -0.3414 -0.3920 -0.0496
 2873SOL     OW11564   0.022   1.108   3.860  0.0278  0.3249 -0.1859
 2873SOL    HW211565   0.016   1.120   3.955  0.4194  1.1791 -0.2667
 2873SOL    HW311566  -0.061   1.143   3.827 -0.6700 -1.1476 -0.0623
 2873SOL    MW411567   0.010   1.114   3.868 -0.0126  0.2433 -0.1798
 2874SOL     OW11568   2.838   2.404   4.829 -0.2222 -0.2816  0.0869
 2874SOL    HW211569   2.844   2.490   4.788 -0.6030 -0.1196  0.3700
 2874SOL    HW311570   2.747   2.377   4.815  0.4561 -1.6482 -2.0213
 2874SOL    MW411571   2.827   2.412   4.821 -0.1831 -0.4408 -0.1545
 2875SOL     OW11572   1.924   2.277   4.064 -0.1202 -0.3327 -0.2164
 2875SOL    HW211573   1.928   2.313   3.975  0.7022 -0.2945 -0.1680
 2875SOL    HW311574   1.980   2.335   4.115  0.6346 -1.2507  0.0128
 2875SOL    MW411575   1.932   2.290   4.059  0.0880 -0.4487 -0.1798
 2876SOL     OW11576   2.500   3.854   4.145  0.0654 -0.6647 -0.0912
 2876SOL    HW211577   2.502   3.878   4.052  1.0712 -1.5203 -0.3119
 2876SOL    HW311578   2.553   3.774   4.149 -0.8196 -1.1964  1.0618
 2876SOL    MW411579   2.507   3.846   4.133  0.0811 -0.8476  0.0310
 2877SOL     OW11580   2.717   4.405   4.516  0.6036 -0.1787  0.0481
 2877SOL    HW211581   2.684   4.449   4.438 -0.6491  0.8185  1.1077
 2877SOL    HW311582   2.640   4.359   4.551  1.0570 -0.3104  0.8848
 2877SOL    MW411583   2.702   4.405   4.510  0.4981 -0.0639  0.2990
 2878SOL     OW11584   0.060   3.187   4.468 -0.4486 -0.2829 -0.2530
 2878SOL    HW211585   0.007   3.260   4.437 -0.2478  0.0688  0.2069
 2878SOL    HW311586   0.150   3.211   4.445 -0.3666 -0.3155  0.0260
 2878SOL    MW411587   0.065   3.200   4.461 -0.4113 -0.2408 -0.1554
 2879SOL     OW11588   1.888   1.957   4.321  0.0071  0.2526 -0.5397
 2879SOL    HW211589   1.981   1.980   4.325  0.0560  0.0405 -0.4699
 2879SOL    HW311590   1.867   1.927   4.409 -0.7989  2.9023  0.2285
 2879SOL    MW411591   1.897   1.956   4.333 -0.0929  0.5742 -0.4292
 2880SOL     OW11592   3.269   0.155   4.491  0.4626  0.2588  0.3279
 2880SOL    HW211593   3.233   0.233   4.534 -0.0679 -0.0325  0.4125
 2880SOL    HW311594   3.355   0.143   4.531 -0.2850 -0.3831  1.7612
 2880SOL    MW411595   3.276   0.164   4.502  0.2940  0.1357  0.5283
 2881SOL     OW11596   2.094   0.834   4.629 -0.2482 -0.4010  0.0180
 2881SOL    HW211597   2.166   0.778   4.601 -0.1168 -0.5863  0.7240
 2881SOL    HW311598   2.016   0.778   4.624 -0.1462 -0.5892  0.5361
 2881SOL    MW411599   2.093   0.819   4.624 -0.2174 -0.4503  0.1788
 2882SOL     OW11600   3.047   2.223   4.833  0.4101  0.1808 -0.3925
 2882SOL    HW211601   3.002   2.148   4.794  0.5887  0.4930 -1.2011
 2882SOL    HW311602   2.977   2.283   4.858  0.2694 -0.2344  0.2113
 2882SOL    MW411603   3.032   2.221   4.831  0.4153  0.1674 -0.4196
 2883SOL     OW11604   3.524   3.480   4.198  0.1394 -0.2118  0.3919
 2883SOL    HW211605   3.526   3.572   4.224 -1.0693 -0.3840  1.1375
 2883SOL    HW311606   3.606   3.444   4.232  0.9936  0.7715 -0.6051
 2883SOL    MW411607   3.535   3.488   4.206  0.0927 -0.1047  0.3586
 2884SOL     OW11608   0.131   2.476   4.605  0.1077 -0.3187  0.0015
 2884SOL    HW211609   0.171   2.563   4.604 -0.0417 -0.2115  1.9206
 2884SOL    HW311610   0.194   2.421   4.651 -0.8743 -0.6741  0.9531
 2884SOL    MW411611   0.144   2.481   4.611 -0.0416 -0.3514  0.3805
 2885SOL     OW11612   0.637   0.545   4.645  0.1201  0.6297  0.0109
 2885SOL    HW211613   0.692   0.507   4.575 -0.7172  0.6366 -0.6612
 2885SOL    HW311614   0.698   0.594   4.699  0.8694  0.1772 -0.4105
 2885SOL    MW411615   0.652   0.546   4.643  0.1085  0.5708 -0.1335
 2886SOL     OW11616   0.875   1.414   4.288 -0.4150 -0.1836 -0.1249
 2886SOL    HW211617   0.885   1.418   4.383 -0.5777 -1.0764 -0.0676
 2886SOL    HW311618   0.860   1.321   4.269  1.0902 -0.2368 -1.1687
 2886SOL    MW411619   0.875   1.402   4.298 -0.2379 -0.3085 -0.2556
 2887NA      NA11620   0.219   3.383   0.705  0.2508  0.0629 -0.2446
 2888NA      NA11621   3.394   0.756   1.144  0.3015  0.0200 -0.4125
 2889NA      NA11622   2.842   2.268   0.752  0.2640 -0.5724 -0.0307
   4.49070   4.66690  10.00000
