Gromacs Runs On Most of All Computer Systems in water
11584
    1RU5    O5'    1   2.392   2.559   3.963  0.0816  0.3024  0.4057
    1RU5    H5T    2   2.429   2.473   3.985  3.1469  1.2110 -0.9941
    1RU5    C5'    3   2.449   2.594   3.836 -0.2564 -0.7072  0.4618
    1RU5   H5'1    4   2.381   2.663   3.787  0.2946  0.7089  1.6695
    1RU5   H5'2    5   2.447   2.508   3.769 -0.5244  0.5785 -1.1936
    1RU5    C4'    6   2.585   2.648   3.846 -0.2924 -0.2703 -0.3589
    1RU5    H4'    7   2.625   2.655   3.745 -0.9679  0.4340 -0.5838
    1RU5    O4'    8   2.582   2.775   3.909 -0.1120  0.3184 -0.1506
    1RU5    C1'    9   2.714   2.805   3.955  0.3961 -0.4808  0.7714
    1RU5    H1'   10   2.767   2.868   3.884 -1.6302 -0.1726 -0.5316
    1RU5     N1   11   2.716   2.867   4.090  0.2723  0.5268 -0.1966
    1RU5     C6   12   2.618   2.845   4.181  0.0593  0.0116 -0.2429
    1RU5     H6   13   2.532   2.787   4.153 -0.7560  0.5910  1.0375
    1RU5     C5   14   2.618   2.916   4.295  0.6270 -0.1094 -0.0711
    1RU5     H5   15   2.539   2.890   4.365  0.8573 -1.4336 -0.2983
    1RU5     C4   16   2.729   3.002   4.333 -0.3016  0.8909  0.0576
    1RU5     O4   17   2.734   3.068   4.438  0.5039  0.1994 -0.8669
    1RU5     N3   18   2.819   3.026   4.233  0.5577 -0.1452  0.4547
    1RU5     H3   19   2.904   3.077   4.253 -0.4403  2.0960 -0.8207
    1RU5     C2   20   2.818   2.959   4.114 -0.2258  0.3643  1.2194
    1RU5     O2   21   2.908   2.979   4.031 -0.4794 -0.3856 -0.3570
    1RU5    C3'   22   2.675   2.567   3.938  0.4842  0.2147  0.1300
    1RU5    H3'   23   2.632   2.554   4.037 -2.2775  0.4260 -1.0034
    1RU5    C2'   24   2.790   2.671   3.963  0.1055  0.8935 -0.3243
    1RU5   H2'1   25   2.836   2.648   4.059  1.7804  0.4254 -1.2151
    1RU5    O2'   26   2.877   2.658   3.849 -0.1180  0.6993 -0.1173
    1RU5   HO'2   27   2.963   2.625   3.877 -0.8647 -0.2290  1.0735
    1RU5    O3'   28   2.717   2.442   3.877 -0.2365  0.5377  0.5480
    2RG3      P   29   2.688   2.308   3.962 -0.1698 -0.1690 -0.2109
    2RG3    O1P   30   2.708   2.192   3.876  0.7778 -0.3908  0.2193
    2RG3    O2P   31   2.559   2.329   4.033  0.0997  0.2947 -0.4002
    2RG3    O5'   32   2.798   2.303   4.080  0.4473 -0.5126  0.8776
    2RG3    C5'   33   2.934   2.280   4.049 -0.0942  1.3070 -0.8818
    2RG3   H5'1   34   2.960   2.329   3.955 -0.0600 -0.6362 -1.9199
    2RG3   H5'2   35   2.940   2.172   4.036 -0.4831  1.2968 -0.9795
    2RG3    C4'   36   3.024   2.324   4.165 -0.0400 -0.5101 -0.1106
    2RG3    H4'   37   3.126   2.295   4.141  0.7523  0.3698  2.0729
    2RG3    O4'   38   3.018   2.467   4.188 -0.0462  0.1676 -0.2143
    2RG3    C1'   39   3.038   2.494   4.327 -0.0768 -0.0537  0.1433
    2RG3    H1'   40   3.114   2.569   4.348  0.0968  0.2973 -1.6566
    2RG3     N9   41   2.912   2.551   4.378  0.7447  0.4824 -0.0400
    2RG3     C8   42   2.781   2.511   4.360 -0.2041  0.4554 -0.3187
    2RG3     H8   43   2.759   2.439   4.283 -0.3727  1.4642 -1.2111
    2RG3     N7   44   2.692   2.578   4.430 -0.4376  0.3275 -0.2625
    2RG3     C5   45   2.768   2.676   4.499 -0.0542 -0.1123 -0.2964
    2RG3     C6   46   2.726   2.782   4.588  0.4334 -0.0297 -0.4760
    2RG3     O6   47   2.612   2.805   4.628 -0.3689 -0.2217 -0.1367
    2RG3     N1   48   2.835   2.855   4.629 -0.0938  0.2483  0.1301
    2RG3     H1   49   2.819   2.935   4.689  0.7303 -0.4538  1.3173
    2RG3     C2   50   2.964   2.829   4.604  0.7386  0.1165  0.3359
    2RG3     N2   51   3.050   2.888   4.675 -0.1907 -0.0110 -0.4005
    2RG3    H21   52   3.023   2.960   4.742  0.2302 -0.9643  0.8231
    2RG3    H22   53   3.147   2.882   4.648 -0.0198 -0.8832  0.3642
    2RG3     N3   54   3.007   2.733   4.522 -0.0685 -0.3810  0.1872
    2RG3     C4   55   2.905   2.662   4.462  0.2164 -0.0172  0.3379
    2RG3    C3'   56   2.991   2.262   4.303 -0.4086 -0.0952  0.4006
    2RG3    H3'   57   2.885   2.271   4.327 -1.1429  0.5290 -2.8509
    2RG3    C2'   58   3.063   2.359   4.393 -0.4484  0.3426 -0.1227
    2RG3   H2'1   59   3.032   2.359   4.498  0.9451 -0.5031  0.3060
    2RG3    O2'   60   3.200   2.344   4.387 -0.3647 -0.3491 -0.0833
    2RG3   HO'2   61   3.223   2.267   4.438  0.3000  0.7058  1.2438
    2RG3    O3'   62   3.031   2.127   4.308  0.2113  0.2640 -0.3534
    2RG3    H3T   63   2.979   2.081   4.375  1.1640  2.0351  1.6437
    5SOL     OW   64   0.698   3.065   1.106  0.1327 -0.2075  0.0088
    5SOL    HW2   65   0.772   3.118   1.138 -0.4372  0.8138 -0.3329
    5SOL    HW3   66   0.697   2.988   1.162  1.0857  0.0667  0.4127
    5SOL    MW4   67   0.708   3.062   1.117  0.1832 -0.0367  0.0169
    6SOL     OW   68   3.402   1.143   0.366 -0.5444  0.3823 -0.3142
    6SOL    HW2   69   3.455   1.199   0.422  1.4258 -1.1848 -0.5735
    6SOL    HW3   70   3.357   1.205   0.307 -1.2409  1.9042  1.7533
    6SOL    MW4   71   3.403   1.159   0.365 -0.3765  0.3762 -0.0756
    7SOL     OW   72   4.288   1.981   0.728 -0.1726  0.1250 -0.0339
    7SOL    HW2   73   4.231   1.930   0.787  1.8354 -1.7146  0.3942
    7SOL    HW3   74   4.278   1.938   0.643  0.2205  0.0833 -0.0594
    7SOL    MW4   75   4.279   1.968   0.725  0.1440 -0.1231  0.0192
    8SOL     OW   76   1.593   3.478   0.348 -0.2933  0.0071 -0.1920
    8SOL    HW2   77   1.572   3.525   0.430  1.5869 -0.7741  0.7673
    8SOL    HW3   78   1.681   3.508   0.326  0.7822 -2.7041  0.2005
    8SOL    MW4   79   1.602   3.488   0.356  0.0968 -0.4539 -0.0136
    9SOL     OW   80   0.996   1.311   0.945 -0.4008 -0.1499  0.1794
    9SOL    HW2   81   1.002   1.384   1.006  2.5349  0.9321 -1.2990
    9SOL    HW3   82   0.943   1.344   0.872 -0.1031  0.1102  0.0784
    9SOL    MW4   83   0.990   1.325   0.943  0.0258  0.0273 -0.0290
   10SOL     OW   84   3.599   0.949   0.380 -0.1199 -0.4299  0.2362
   10SOL    HW2   85   3.540   0.906   0.443 -0.6174 -0.4926 -0.2746
   10SOL    HW3   86   3.552   1.028   0.353 -0.1393 -0.6797 -0.4630
   10SOL    MW4   87   3.585   0.953   0.385 -0.1884 -0.4711  0.0766
   11SOL     OW   88   2.984   0.332   0.714  0.1668 -0.1670  0.1376
   11SOL    HW2   89   3.049   0.289   0.770 -0.5535 -0.8806  0.4338
   11SOL    HW3   90   3.014   0.422   0.708  0.6809 -0.2732  1.0342
   11SOL    MW4   91   2.997   0.338   0.721  0.1397 -0.2751  0.2950
   12SOL     OW   92   4.291   1.277   1.207 -0.2523 -0.7204 -0.0356
   12SOL    HW2   93   4.376   1.240   1.182  1.3850  2.5151  0.4507
   12SOL    HW3   94   4.290   1.271   1.303  0.6550  1.5871  0.1708
   12SOL    MW4   95   4.302   1.272   1.217  0.0834  0.0110  0.0558
   13SOL     OW   96   1.997   2.872   1.241  0.3171  0.1513 -0.4074
   13SOL    HW2   97   2.058   2.817   1.190 -0.1734 -0.7779 -0.0103
   13SOL    HW3   98   1.913   2.828   1.233 -0.4199  1.7149 -1.3683
   13SOL    MW4   99   1.994   2.859   1.233  0.1552  0.2348 -0.4818
   14SOL     OW  100   1.860   3.097   0.489 -0.3299 -0.2441 -0.2226
   14SOL    HW2  101   1.870   3.003   0.477  0.5905  0.0843 -2.1418
   14SOL    HW3  102   1.768   3.114   0.469 -0.0795 -0.4992 -1.6598
   14SOL    MW4  103   1.849   3.087   0.485 -0.1756 -0.2346 -0.6655
   15SOL     OW  104   2.134   3.809   0.839  0.1140  0.0749 -0.1327
   15SOL    HW2  105   2.177   3.888   0.808 -2.1046  1.5341  0.3820
   15SOL    HW3  106   2.142   3.814   0.935 -0.9019  0.1894 -0.0530
   15SOL    MW4  107   2.141   3.820   0.848 -0.3128  0.2825 -0.0542
   16SOL     OW  108   1.266   0.391   0.842 -0.5813 -0.2551  0.0322
   16SOL    HW2  109   1.314   0.309   0.851 -0.8533 -0.5556 -1.1816
   16SOL    HW3  110   1.327   0.449   0.795 -0.8306 -0.1528 -0.1654
   16SOL    MW4  111   1.281   0.388   0.837 -0.6500 -0.2812 -0.1540
   17SOL     OW  112   1.189   4.282   0.999  0.5067 -0.0850  0.1470
   17SOL    HW2  113   1.284   4.270   1.004  0.4056 -1.4927 -0.9228
   17SOL    HW3  114   1.167   4.332   1.078  2.0506 -0.3042  0.7401
   17SOL    MW4  115   1.199   4.287   1.010  0.6971 -0.2995  0.0842
   18SOL     OW  116   2.440   3.908   0.353  0.0681 -0.0898 -0.3615
   18SOL    HW2  117   2.437   4.003   0.338 -2.9471  0.1560  1.3252
   18SOL    HW3  118   2.527   3.882   0.325  0.7994  3.1211 -1.2856
   18SOL    MW4  119   2.451   3.917   0.347 -0.2334  0.3664 -0.2609
   19SOL     OW  120   4.442   0.314   0.391 -0.0344  0.4657  0.5242
   19SOL    HW2  121   4.408   0.264   0.465 -2.0319 -0.0312 -0.6963
   19SOL    HW3  122   4.504   0.254   0.348 -2.2284 -0.9379 -0.7887
   19SOL    MW4  123   4.446   0.299   0.395 -0.5875  0.2149  0.1900
   20SOL     OW  124   2.079   2.332   0.873  0.5804 -0.3644 -0.2570
   20SOL    HW2  125   2.108   2.414   0.831 -1.1918  1.3106  1.6660
   20SOL    HW3  126   2.159   2.279   0.879  1.9627  1.6009 -0.6624
   20SOL    MW4  127   2.094   2.336   0.868  0.5293  0.1159 -0.0567
   21SOL     OW  128   0.054   1.150   1.120 -0.0784  0.5358 -0.2526
   21SOL    HW2  129   0.031   1.144   1.028 -1.9599 -1.1777  0.2839
   21SOL    HW3  130   0.048   1.060   1.152  0.8446  1.0629  1.4706
   21SOL    MW4  131   0.050   1.138   1.112 -0.2049  0.3793  0.0455
   22SOL     OW  132   1.667   1.310   0.535  0.1576 -0.1212  0.2016
   22SOL    HW2  133   1.576   1.312   0.506 -0.3387 -1.0846  1.6144
   22SOL    HW3  134   1.701   1.397   0.514 -1.2186  0.3914  0.0569
   22SOL    MW4  135   1.660   1.322   0.529 -0.0894 -0.1807  0.3689
   23SOL     OW  136   3.411   2.845   0.762 -0.0423  0.8249  0.1388
   23SOL    HW2  137   3.447   2.933   0.770  1.0001  0.4872 -0.8420
   23SOL    HW3  138   3.486   2.786   0.772 -0.6985  0.0374  0.5851
   23SOL    MW4  139   3.425   2.849   0.765  0.0086  0.6764  0.0683
   24SOL     OW  140   2.984   3.789   0.856 -0.3292  0.3615  0.1853
   24SOL    HW2  141   2.942   3.816   0.938  0.6367  1.6690  0.2612
   24SOL    HW3  142   3.076   3.813   0.867 -0.1955  0.5263 -1.2707
   24SOL    MW4  143   2.990   3.796   0.868 -0.1841  0.5560  0.0033
   25SOL     OW  144   2.883   0.719   0.850 -0.0974  0.4909 -0.3605
   25SOL    HW2  145   2.970   0.690   0.821 -0.5745  0.0275 -1.3564
   25SOL    HW3  146   2.887   0.717   0.946  1.0074  0.5389 -0.3999
   25SOL    MW4  147   2.895   0.715   0.859 -0.0148  0.4361 -0.4971
   26SOL     OW  148   4.192   2.625   0.535  0.0687 -0.2153  0.2961
   26SOL    HW2  149   4.221   2.583   0.454  1.9598 -0.4511  1.0814
   26SOL    HW3  150   4.106   2.586   0.552  0.4115 -1.4415 -0.6839
   26SOL    MW4  151   4.184   2.614   0.527  0.3633 -0.4079  0.2704
   27SOL     OW  152   3.007   1.854   0.782 -0.2097  0.1536  0.3229
   27SOL    HW2  153   2.917   1.875   0.805 -0.4361 -1.6973  1.2911
   27SOL    HW3  154   3.059   1.883   0.857 -0.0452  0.9588 -0.1079
   27SOL    MW4  155   3.002   1.860   0.795 -0.2177  0.0155  0.3938
   28SOL     OW  156   3.339   0.593   0.418 -0.0605  0.0985 -0.1472
   28SOL    HW2  157   3.328   0.505   0.453 -0.5395  0.7106  1.2627
   28SOL    HW3  158   3.253   0.634   0.427 -0.2952  0.1860 -2.3285
   28SOL    MW4  159   3.326   0.587   0.424 -0.1547  0.1907 -0.2490
   29SOL     OW  160   3.571   0.371   1.183 -0.0625 -0.3295  0.0525
   29SOL    HW2  161   3.576   0.339   1.093 -0.7594  0.5731 -0.3175
   29SOL    HW3  162   3.644   0.432   1.190  0.5640 -1.1139  0.3972
   29SOL    MW4  163   3.581   0.375   1.172 -0.0720 -0.3139  0.0494
   30SOL     OW  164   2.972   0.306   0.446  0.3304  0.0846 -0.3579
   30SOL    HW2  165   2.888   0.340   0.417  0.8046 -0.0116 -1.9096
   30SOL    HW3  166   2.970   0.314   0.541 -0.8987  1.2960 -0.4718
   30SOL    MW4  167   2.961   0.311   0.455  0.2308  0.2317 -0.5777
   31SOL     OW  168   2.537   1.807   0.516  0.3762  0.4334 -0.0975
   31SOL    HW2  169   2.449   1.832   0.488 -0.5329 -0.1257  2.1358
   31SOL    HW3  170   2.582   1.891   0.529  0.2883  0.7144 -1.5514
   31SOL    MW4  171   2.531   1.822   0.514  0.2446  0.3967  0.0054
   32SOL     OW  172   2.007   2.316   1.160  0.0201  0.2488 -0.1872
   32SOL    HW2  173   2.015   2.316   1.065 -0.4259  2.1276 -0.2538
   32SOL    HW3  174   2.071   2.382   1.189  0.7512 -0.9200  0.8685
   32SOL    MW4  175   2.017   2.325   1.152  0.0577  0.3426 -0.0567
   33SOL     OW  176   3.392   4.279   0.466 -0.4332 -0.2515  0.0730
   33SOL    HW2  177   3.326   4.221   0.505 -0.1173 -0.4780  0.2792
   33SOL    HW3  178   3.456   4.219   0.427 -0.3592 -0.0338 -0.1402
   33SOL    MW4  179   3.392   4.263   0.466 -0.3815 -0.2532  0.0721
   34SOL     OW  180   0.527   1.323   0.868 -0.1220  0.1872  0.0463
   34SOL    HW2  181   0.534   1.280   0.954 -1.8893  2.6184  1.4761
   34SOL    HW3  182   0.444   1.290   0.833  0.2219 -0.2168 -0.3827
   34SOL    MW4  183   0.517   1.313   0.875 -0.3098  0.4547  0.1783
   35SOL     OW  184   3.570   1.725   0.400  0.1054  0.2577  0.1968
   35SOL    HW2  185   3.599   1.726   0.491  1.2289 -0.0360 -0.1468
   35SOL    HW3  186   3.641   1.680   0.353 -0.1818  0.9484 -0.9150
   35SOL    MW4  187   3.583   1.719   0.406  0.2158  0.3101  0.0048
   36SOL     OW  188   2.955   2.062   1.204  0.2320 -0.2832 -0.0576
   36SOL    HW2  189   2.911   2.137   1.165  1.3733  0.5315  0.1934
   36SOL    HW3  190   2.947   2.075   1.298 -2.1900 -2.0514  0.0295
   36SOL    MW4  191   2.948   2.073   1.211  0.0629 -0.4094 -0.0129
   37SOL     OW  192   0.698   2.581   0.776  0.2469  0.3147 -0.5983
   37SOL    HW2  193   0.643   2.658   0.787  0.3485  0.3117 -0.0355
   37SOL    HW3  194   0.698   2.564   0.682 -1.2098 -0.0361 -0.5470
   37SOL    MW4  195   0.690   2.589   0.765  0.0681  0.2680 -0.5172
   38SOL     OW  196   3.610   0.261   0.405  0.3169  0.0306 -0.7189
   38SOL    HW2  197   3.607   0.356   0.390  1.3708  0.2230  0.2660
   38SOL    HW3  198   3.700   0.236   0.386  0.3465 -0.5802  0.2121
   38SOL    MW4  199   3.621   0.270   0.400  0.4599 -0.0246 -0.4661
   39SOL     OW  200   2.661   1.098   1.169 -0.4024 -0.1812 -0.0191
   39SOL    HW2  201   2.592   1.141   1.220 -0.6714 -1.9231  1.1083
   39SOL    HW3  202   2.742   1.142   1.196 -0.5345 -1.1171  1.9717
   39SOL    MW4  203   2.662   1.110   1.179 -0.4554 -0.5344  0.3924
   40SOL     OW  204   4.229   2.906   0.502 -0.0961 -0.2843 -0.0031
   40SOL    HW2  205   4.226   2.811   0.510 -1.1643 -0.4046 -1.6601
   40SOL    HW3  206   4.140   2.932   0.479  0.1763  1.1295  0.4296
   40SOL    MW4  207   4.217   2.897   0.500 -0.2007 -0.1140 -0.1646
   41SOL     OW  208   2.390   0.042   1.166 -0.3209 -0.8890  0.7024
   41SOL    HW2  209   2.336   0.110   1.208  0.3490 -0.4357  0.8374
   41SOL    HW3  210   2.355   0.035   1.077 -0.7417 -0.7504  0.8556
   41SOL    MW4  211   2.378   0.050   1.160 -0.2882 -0.8110  0.7403
   42SOL     OW  212   0.066   2.261   0.698 -0.1262 -0.4661 -0.0773
   42SOL    HW2  213   0.118   2.313   0.758  0.7134 -2.5551  1.0675
   42SOL    HW3  214  -0.014   2.311   0.685  0.6650  1.0913  0.9650
   42SOL    MW4  215   0.062   2.274   0.704  0.0889 -0.5364  0.2113
   43SOL     OW  216   2.942   3.994   0.619  0.2261 -0.1594  0.2569
   43SOL    HW2  217   2.956   3.901   0.600 -0.2718 -0.0725 -0.5803
   43SOL    HW3  218   2.899   3.995   0.704  2.2822 -0.5799  1.3358
   43SOL    MW4  219   2.938   3.982   0.628  0.4315 -0.2031  0.2888
   44SOL     OW  220   1.810   1.075   1.107  0.0778 -0.5629 -0.5004
   44SOL    HW2  221   1.836   1.079   1.015  1.8255 -3.0483 -0.1525
   44SOL    HW3  222   1.881   1.119   1.154 -0.1560 -0.4686 -0.2351
   44SOL    MW4  223   1.823   1.081   1.101  0.2775 -0.8783 -0.4196
   45SOL     OW  224   3.899   0.265   0.800  0.0696 -0.0993 -0.3844
   45SOL    HW2  225   3.881   0.319   0.723 -1.4268 -0.5694 -0.3923
   45SOL    HW3  226   3.816   0.266   0.849  1.1179  0.5163  1.4167
   45SOL    MW4  227   3.885   0.273   0.796  0.0105 -0.0801 -0.1478
   46SOL     OW  228   3.083   2.204   0.243  0.4421 -0.0707  0.0169
   46SOL    HW2  229   3.089   2.295   0.273 -1.0475 -0.1270  0.5047
   46SOL    HW3  230   3.002   2.171   0.282  0.9345 -1.5910 -0.2217
   46SOL    MW4  231   3.073   2.212   0.252  0.3104 -0.2787  0.0498
   47SOL     OW  232   1.020   0.280   0.783  0.0082 -0.4887 -0.2184
   47SOL    HW2  233   1.050   0.218   0.716  0.9798  0.4986 -0.7222
   47SOL    HW3  234   1.101   0.318   0.818 -0.3008 -2.9228  3.4484
   47SOL    MW4  235   1.035   0.276   0.779  0.0955 -0.6796  0.1989
   48SOL     OW  236   0.004   3.766   0.789 -0.7614  0.0502 -0.4553
   48SOL    HW2  237   0.076   3.818   0.825 -0.3757 -0.5574 -0.3427
   48SOL    HW3  238  -0.066   3.829   0.775 -0.8093  0.3518  1.0728
   48SOL    MW4  239   0.005   3.781   0.792 -0.7167  0.0098 -0.2388
   49SOL     OW  240   2.224   0.223   1.286 -0.0806  0.0130 -0.0400
   49SOL    HW2  241   2.234   0.288   1.217 -0.5276  0.6337  0.4737
   49SOL    HW3  242   2.134   0.193   1.279  0.6216 -1.8775 -1.4210
   49SOL    MW4  243   2.214   0.228   1.276 -0.0470 -0.1546 -0.1545
   50SOL     OW  244   3.320   2.994   0.413  0.2756  0.2791  0.1329
   50SOL    HW2  245   3.367   3.078   0.421  0.6771  0.0111  0.6156
   50SOL    HW3  246   3.228   3.018   0.420  0.3626  0.7413 -0.2229
   50SOL    MW4  247   3.314   3.008   0.415  0.3400  0.3047  0.1496
   51SOL     OW  248   3.962   0.777   0.861 -0.5689  0.0194 -0.4688
   51SOL    HW2  249   3.916   0.769   0.944  1.1899  0.3780  0.5523
   51SOL    HW3  250   3.912   0.842   0.812 -2.3387 -1.1129 -0.2084
   51SOL    MW4  251   3.950   0.784   0.865 -0.5705 -0.0827 -0.2998
   52SOL     OW  252   3.672   3.401   0.368 -0.2841  0.3370 -0.2201
   52SOL    HW2  253   3.709   3.488   0.386 -1.6330  0.8224  0.2760
   52SOL    HW3  254   3.740   3.340   0.397  0.2040  1.2085  0.5192
   52SOL    MW4  255   3.686   3.405   0.374 -0.3974  0.5162 -0.0571
   53SOL     OW  256   3.186   3.210   1.238  0.1754  0.1760 -0.1008
   53SOL    HW2  257   3.108   3.166   1.203  0.4033 -1.0267  0.8924
   53SOL    HW3  258   3.259   3.167   1.193  0.3594  0.0242  0.3438
   53SOL    MW4  259   3.185   3.198   1.227  0.2298 -0.0026  0.0888
   54SOL     OW  260   3.807   3.900   0.309 -0.2696 -0.3802 -0.5937
   54SOL    HW2  261   3.857   3.882   0.230  1.6597 -0.2012  0.5561
   54SOL    HW3  262   3.806   3.817   0.356 -3.0197 -1.0015 -1.6332
   54SOL    MW4  263   3.813   3.887   0.305 -0.3777 -0.4385 -0.5791
   55SOL     OW  264   3.187   1.158   0.674 -0.6455 -0.3378  0.0679
   55SOL    HW2  265   3.275   1.168   0.709 -0.1541 -1.2167 -0.8574
   55SOL    HW3  266   3.165   1.244   0.637  1.0488 -0.8851 -2.3632
   55SOL    MW4  267   3.195   1.171   0.673 -0.3572 -0.5258 -0.3750
   56SOL     OW  268   1.147   0.729   0.823  0.5697 -0.7014 -0.0745
   56SOL    HW2  269   1.230   0.694   0.791  0.6713 -1.1205  0.6294
   56SOL    HW3  270   1.085   0.658   0.811  0.0475  0.0149 -1.6867
   56SOL    MW4  271   1.150   0.715   0.817  0.5141 -0.6621 -0.1943
   57SOL     OW  272   0.762   3.999   0.920  0.0223 -0.3266 -0.2929
   57SOL    HW2  273   0.771   3.959   1.006  0.3250  0.3139 -0.0231
   57SOL    HW3  274   0.824   4.072   0.921 -0.0967 -0.2106 -0.9913
   57SOL    MW4  275   0.772   4.003   0.931  0.0465 -0.2270 -0.3493
   58SOL     OW  276   3.500   2.787   0.510 -0.3357  0.2144 -0.0792
   58SOL    HW2  277   3.458   2.814   0.592 -0.2081  0.6426 -0.1574
   58SOL    HW3  278   3.463   2.845   0.443 -1.8358 -1.3380 -0.6392
   58SOL    MW4  279   3.490   2.798   0.512 -0.5167  0.0660 -0.1633
   59SOL     OW  280   0.806   3.606   0.191 -0.6314  0.6251 -0.0110
   59SOL    HW2  281   0.862   3.652   0.130 -1.2309 -0.7072 -1.5962
   59SOL    HW3  282   0.790   3.668   0.262 -1.6465  2.9381 -2.2184
   59SOL    MW4  283   0.811   3.620   0.193 -0.8444  0.7544 -0.5114
   60SOL     OW  284   3.056   2.058   0.585  0.0271 -0.6586 -0.2000
   60SOL    HW2  285   3.027   2.140   0.625  2.7190  0.2926 -0.1248
   60SOL    HW3  286   3.044   1.993   0.654  2.0520  0.4885  1.3043
   60SOL    MW4  287   3.051   2.060   0.600  0.6497 -0.3819  0.0083
   61SOL     OW  288   2.903   1.537   0.467  0.6119  0.5775  0.3630
   61SOL    HW2  289   2.835   1.482   0.505  0.0967 -0.0157 -1.3541
   61SOL    HW3  290   2.979   1.479   0.459  0.5374  0.5277 -0.0253
   61SOL    MW4  291   2.904   1.522   0.471  0.5341  0.4926  0.0852
   62SOL     OW  292   3.937   2.840   0.726 -0.1205 -0.0925 -0.1864
   62SOL    HW2  293   3.979   2.776   0.784  0.1359 -0.5327 -0.8494
   62SOL    HW3  294   3.844   2.835   0.748  0.0335  0.0572  0.4900
   62SOL    MW4  295   3.930   2.831   0.736 -0.0663 -0.1309 -0.1847
   63SOL     OW  296   2.536   2.303   0.924 -0.1661  0.4624 -0.3065
   63SOL    HW2  297   2.451   2.272   0.892 -0.5379 -0.1159  1.1917
   63SOL    HW3  298   2.599   2.242   0.886 -0.6069 -0.2428  0.0697
   63SOL    MW4  299   2.533   2.291   0.915 -0.2732  0.2930 -0.0592
   64SOL     OW  300   3.589   4.068   0.350  0.1780  0.1913 -0.4935
   64SOL    HW2  301   3.654   4.010   0.311 -0.3714 -0.2992 -0.6867
   64SOL    HW3  302   3.517   4.010   0.376 -1.1511  0.9938 -2.2999
   64SOL    MW4  303   3.588   4.053   0.348 -0.0696  0.2332 -0.7573
   65SOL     OW  304   2.527   1.520   0.388  0.0086  0.4801 -0.4397
   65SOL    HW2  305   2.526   1.606   0.430  1.7718  0.0207  0.5766
   65SOL    HW3  306   2.566   1.535   0.302 -2.2009  1.1468 -1.3817
   65SOL    MW4  307   2.532   1.533   0.382 -0.0501  0.5075 -0.4299
   66SOL     OW  308   2.363   2.233   0.541 -0.4010 -0.2493 -0.2609
   66SOL    HW2  309   2.444   2.183   0.544  0.4318  0.9537 -2.3586
   66SOL    HW3  310   2.311   2.191   0.472 -1.6787 -1.1588  1.2216
   66SOL    MW4  311   2.367   2.221   0.532 -0.4597 -0.2108 -0.3422
   67SOL     OW  312   0.050   2.013   0.813 -0.6721  0.2580  0.3243
   67SOL    HW2  313   0.058   2.104   0.785  1.2327 -0.0927 -0.2906
   67SOL    HW3  314  -0.041   1.990   0.793 -0.8424  1.6654 -0.5653
   67SOL    MW4  315   0.039   2.022   0.807 -0.4432  0.3974  0.1258
   68SOL     OW  316   1.218   1.607   0.899 -0.2871 -0.3257  0.2529
   68SOL    HW2  317   1.183   1.583   0.985  0.5507 -0.1620  0.6450
   68SOL    HW3  318   1.199   1.700   0.891 -0.0180 -0.2520  0.4383
   68SOL    MW4  319   1.211   1.616   0.910 -0.1410 -0.2942  0.3291
   69SOL     OW  320   0.334   1.546   0.877 -0.6610  0.0268 -0.0274
   69SOL    HW2  321   0.253   1.504   0.847 -1.1253  0.3017  0.8205
   69SOL    HW3  322   0.392   1.473   0.900 -0.7996 -0.1695 -0.2951
   69SOL    MW4  323   0.331   1.531   0.876 -0.7406  0.0372  0.0491
   70SOL     OW  324   1.066   3.470   0.302 -0.5351  0.1626 -0.3156
   70SOL    HW2  325   1.048   3.377   0.315 -1.0088  0.5969  2.5562
   70SOL    HW3  326   0.981   3.509   0.283 -0.3084  0.0095 -1.7138
   70SOL    MW4  327   1.053   3.463   0.301 -0.5677  0.1996 -0.1212
   71SOL     OW  328   2.602   0.021   0.534  0.0071 -0.1635  0.2217
   71SOL    HW2  329   2.573   0.112   0.522  0.2675 -0.1327 -0.2111
   71SOL    HW3  330   2.686   0.029   0.580  0.4516 -0.1356 -0.5680
   71SOL    MW4  331   2.609   0.034   0.538  0.1001 -0.1554  0.0604
   72SOL     OW  332   2.216   3.691   0.568 -0.0426 -0.4974  0.3498
   72SOL    HW2  333   2.205   3.714   0.660  0.3006 -0.3366  0.3519
   72SOL    HW3  334   2.302   3.647   0.565 -0.0122 -0.4193  0.0906
   72SOL    MW4  335   2.226   3.688   0.580  0.0067 -0.4661  0.3159
   73SOL     OW  336   2.464   3.569   0.540  0.2259  0.0890 -0.3087
   73SOL    HW2  337   2.465   3.480   0.503 -0.3281 -0.3400  0.6612
   73SOL    HW3  338   2.463   3.554   0.635  0.1905  1.1414 -0.1458
   73SOL    MW4  339   2.464   3.555   0.548  0.1485  0.1712 -0.1593
   74SOL     OW  340   1.655   1.002   0.461 -0.3266 -0.3604 -0.4593
   74SOL    HW2  341   1.670   1.095   0.446 -0.4006 -0.2117  0.3651
   74SOL    HW3  342   1.633   0.996   0.554  2.0811 -1.4850  0.0939
   74SOL    MW4  343   1.654   1.013   0.471 -0.0187 -0.4891 -0.2775
   75SOL     OW  344   0.563   0.804   0.714 -0.4085 -0.5095 -0.1268
   75SOL    HW2  345   0.470   0.787   0.725 -0.3544 -1.1191 -0.6255
   75SOL    HW3  346   0.605   0.743   0.775 -0.3646  0.3578  0.7305
   75SOL    MW4  347   0.556   0.793   0.724 -0.3956 -0.4755 -0.0795
   76SOL     OW  348   1.519   2.859   0.503 -0.6207 -0.2915  0.5615
   76SOL    HW2  349   1.478   2.927   0.448 -4.0493 -2.3023  0.4700
   76SOL    HW3  350   1.516   2.895   0.592 -0.5052  0.5365  0.2336
   76SOL    MW4  351   1.513   2.873   0.507 -1.0580 -0.4478  0.5062
   77SOL     OW  352   0.286   0.734   0.819  0.3888 -0.2554 -0.2274
   77SOL    HW2  353   0.293   0.734   0.915 -0.5935 -0.1504 -0.1424
   77SOL    HW3  354   0.253   0.821   0.798 -0.3586 -0.6215 -0.5791
   77SOL    MW4  355   0.282   0.746   0.829  0.1606 -0.2899 -0.2626
   78SOL     OW  356   1.027   1.181   0.332  0.0904  0.1288  0.6825
   78SOL    HW2  357   0.938   1.148   0.343 -1.1556  2.9406 -0.2717
   78SOL    HW3  358   1.039   1.242   0.405  1.3683 -0.4792  0.9879
   78SOL    MW4  359   1.017   1.185   0.343  0.0947  0.4196  0.5969
   79SOL     OW  360   1.044   1.537   0.676 -0.3668 -0.4051  0.0058
   79SOL    HW2  361   1.108   1.553   0.746 -0.3779 -1.5928  0.3127
   79SOL    HW3  362   1.024   1.623   0.641  0.7895  0.0595  0.4593
   79SOL    MW4  363   1.050   1.550   0.681 -0.2156 -0.5004  0.1062
   80SOL     OW  364   3.814   4.660   1.169  0.0700 -0.2112  0.1821
   80SOL    HW2  365   3.802   4.645   1.075 -1.4540 -0.1358  0.3487
   80SOL    HW3  366   3.835   4.574   1.205 -0.5801 -0.4717 -0.0540
   80SOL    MW4  367   3.815   4.647   1.161 -0.2165 -0.2356  0.1730
   81SOL     OW  368   3.657   2.751   1.119  0.3555  0.0948 -0.3991
   81SOL    HW2  369   3.570   2.782   1.145  0.6544 -0.3514  1.2151
   81SOL    HW3  370   3.660   2.660   1.148  2.4423  0.9617  2.4588
   81SOL    MW4  371   3.646   2.743   1.126  0.6702  0.1502  0.1909
   82SOL     OW  372   3.719   2.487   0.744  0.6884 -0.0128 -0.4212
   82SOL    HW2  373   3.703   2.403   0.787  1.2284 -0.1725 -0.5191
   82SOL    HW3  374   3.640   2.503   0.692  0.1040  0.1051  0.5028
   82SOL    MW4  375   3.707   2.478   0.743  0.6826 -0.0186 -0.3122
   83SOL     OW  376   0.481   4.026   1.229  0.2334 -0.3025 -0.4926
   83SOL    HW2  377   0.405   3.969   1.217  0.6255 -0.6426 -1.3815
   83SOL    HW3  378   0.466   4.098   1.167  0.3491 -0.0710 -0.2511
   83SOL    MW4  379   0.469   4.028   1.219  0.3004 -0.3166 -0.5780
   84SOL     OW  380   3.486   4.300   0.915 -0.3495 -0.4064 -0.3050
   84SOL    HW2  381   3.451   4.376   0.869 -1.2776  0.2828  1.4922
   84SOL    HW3  382   3.543   4.257   0.851 -1.3793  0.6787 -1.9776
   84SOL    MW4  383   3.489   4.304   0.901 -0.6080 -0.1726 -0.2885
   85SOL     OW  384   3.369   3.085   1.092 -0.2586  0.2725 -0.0733
   85SOL    HW2  385   3.448   3.135   1.110  0.0036 -0.4349  0.7688
   85SOL    HW3  386   3.335   3.123   1.011  0.5793  1.0164 -0.0886
   85SOL    MW4  387   3.375   3.097   1.083 -0.1135  0.2770  0.0358
   86SOL     OW  388   0.047   3.697   0.511 -0.2346 -0.7092  0.0644
   86SOL    HW2  389   0.103   3.623   0.532  0.2686 -0.3245  0.0812
   86SOL    HW3  390   0.013   3.727   0.595  2.1810  1.1498  0.4290
   86SOL    MW4  391   0.050   3.691   0.525  0.1505 -0.4132  0.1147
   87SOL     OW  392   4.390   2.033   0.323 -0.3799  0.3563  0.1266
   87SOL    HW2  393   4.365   1.970   0.391  0.0759  1.5509  1.4168
   87SOL    HW3  394   4.397   1.980   0.244 -1.0038 -1.0471  0.9764
   87SOL    MW4  395   4.387   2.018   0.322 -0.4015  0.3288  0.4089
   88SOL     OW  396   4.293   1.540   1.128 -0.2597  0.2697  0.1826
   88SOL    HW2  397   4.305   1.448   1.154  0.0859  0.3376  0.2548
   88SOL    HW3  398   4.372   1.584   1.158  0.3775  0.2539 -1.4388
   88SOL    MW4  399   4.305   1.533   1.135 -0.1297  0.2763 -0.0218
   89SOL     OW  400   2.950   2.246   0.758  0.4583 -0.2236  0.3927
   89SOL    HW2  401   2.925   2.337   0.745  0.8050 -0.0644  0.8427
   89SOL    HW3  402   3.023   2.249   0.820  1.2076 -0.7267 -0.4410
   89SOL    MW4  403   2.957   2.258   0.765  0.6027 -0.2692  0.3420
   90SOL     OW  404   3.373   2.155   0.315 -0.2161  0.0200  0.2116
   90SOL    HW2  405   3.359   2.124   0.404 -2.2256  1.1285  0.3010
   90SOL    HW3  406   3.285   2.158   0.276  0.5704  0.0912 -1.6224
   90SOL    MW4  407   3.360   2.151   0.321 -0.3777  0.1757 -0.0186
   91SOL     OW  408   1.787   1.912   0.850  0.0228  0.1025 -0.4541
   91SOL    HW2  409   1.803   1.920   0.944 -2.9341 -1.7194  0.2624
   91SOL    HW3  410   1.826   1.991   0.812  0.3221  1.3928  2.4220
   91SOL    MW4  411   1.794   1.924   0.857 -0.3278  0.0324  0.0199
   92SOL     OW  412   2.295   3.452   1.150  0.0349 -0.5184 -0.2214
   92SOL    HW2  413   2.275   3.377   1.207  1.3815 -1.2945 -0.7341
   92SOL    HW3  414   2.293   3.416   1.061 -1.0092  0.4456 -0.5918
   92SOL    MW4  415   2.292   3.437   1.146  0.0749 -0.4938 -0.3380
   93SOL     OW  416   2.759   0.314   0.892 -0.1024  0.3063  0.3405
   93SOL    HW2  417   2.676   0.345   0.855 -0.3135 -2.5802 -1.8159
   93SOL    HW3  418   2.826   0.344   0.831 -0.0902 -1.5990 -0.5933
   93SOL    MW4  419   2.757   0.322   0.879 -0.1285 -0.3259 -0.0672
   94SOL     OW  420   0.482   0.386   0.877  0.0270 -0.2432 -0.1280
   94SOL    HW2  421   0.543   0.457   0.857 -0.2878  0.6936  2.0404
   94SOL    HW3  422   0.526   0.307   0.847  2.7146  0.2989  2.2046
   94SOL    MW4  423   0.496   0.385   0.870  0.3400 -0.0481  0.4659
   95SOL     OW  424   4.257   1.850   0.475  0.3537  0.0083  0.0104
   95SOL    HW2  425   4.168   1.836   0.444  0.5154  2.5986 -1.7757
   95SOL    HW3  426   4.293   1.761   0.486 -1.3631 -1.0218 -2.3549
   95SOL    MW4  427   4.250   1.836   0.473  0.1483  0.2140 -0.5373
   96SOL     OW  428   2.446   2.857   1.235  0.2125 -0.3164  0.2592
   96SOL    HW2  429   2.515   2.809   1.189  0.9991  0.3673  0.7195
   96SOL    HW3  430   2.475   2.859   1.326  1.0991  2.5741 -0.0532
   96SOL    MW4  431   2.459   2.851   1.241  0.4332  0.1550  0.2787
   97SOL     OW  432   3.485   2.526   0.601  0.0360 -0.2122 -0.2888
   97SOL    HW2  433   3.497   2.620   0.585  1.6606 -0.1201  1.2061
   97SOL    HW3  434   3.478   2.487   0.514 -1.0352  1.3244 -0.9254
   97SOL    MW4  435   3.486   2.534   0.588  0.1090  0.0029 -0.1756
   98SOL     OW  436   1.472   2.310   0.552  0.2054  0.6032  0.4811
   98SOL    HW2  437   1.419   2.389   0.559 -1.1842 -0.1157 -1.3441
   98SOL    HW3  438   1.461   2.265   0.636 -1.0910  1.0777  0.5627
   98SOL    MW4  439   1.464   2.314   0.564 -0.1490  0.5713  0.2510
   99SOL     OW  440   2.451   3.574   0.816 -0.0432  0.2032 -0.2760
   99SOL    HW2  441   2.362   3.540   0.826 -0.3483  0.4690 -1.8950
   99SOL    HW3  442   2.507   3.505   0.850 -0.8227 -0.4304 -0.2582
   99SOL    MW4  443   2.446   3.560   0.822 -0.1864  0.1545 -0.4873
  100SOL     OW  444   1.971   3.529   0.842  0.3566  0.1194 -0.4097
  100SOL    HW2  445   1.912   3.458   0.868 -1.7823  1.8105 -0.5511
  100SOL    HW3  446   1.962   3.534   0.747 -0.9850  1.8323 -0.2097
  100SOL    MW4  447   1.962   3.520   0.833 -0.1025  0.5686 -0.4019
  101SOL     OW  448   3.205   0.273   0.891 -0.1193  0.1477 -0.7737
  101SOL    HW2  449   3.160   0.289   0.975 -0.6186  2.2710 -1.4139
  101SOL    HW3  450   3.241   0.185   0.900  1.1550  0.9039  2.3000
  101SOL    MW4  451   3.204   0.263   0.904 -0.0172  0.5276 -0.4526
  102SOL     OW  452   0.230   2.308   1.146  0.2105 -0.4850 -0.1697
  102SOL    HW2  453   0.234   2.223   1.189  1.0810  0.3092  1.3733
  102SOL    HW3  454   0.155   2.352   1.186  1.4038  0.4980  1.0104
  102SOL    MW4  455   0.221   2.303   1.157  0.4828 -0.2506  0.1894
  103SOL     OW  456   1.278   1.237   0.211 -0.4893 -0.0650  0.5232
  103SOL    HW2  457   1.251   1.250   0.120  0.8021 -2.1398 -0.1809
  103SOL    HW3  458   1.198   1.209   0.256 -0.8051 -0.5268 -0.3085
  103SOL    MW4  459   1.264   1.235   0.205 -0.3607 -0.3997  0.3206
  104SOL     OW  460   0.185   3.087   0.880  0.1881  0.1810  0.1974
  104SOL    HW2  461   0.270   3.101   0.840 -0.3964 -0.2187 -1.1849
  104SOL    HW3  462   0.201   3.097   0.974  2.1590 -2.0005  0.1162
  104SOL    MW4  463   0.198   3.090   0.887  0.3711 -0.1595  0.0043
  105SOL     OW  464   1.444   1.185   0.863  0.4358 -0.2557  0.2003
  105SOL    HW2  465   1.494   1.154   0.788  0.7228  1.6779 -0.4215
  105SOL    HW3  466   1.353   1.175   0.837  0.5186 -1.0714  0.2137
  105SOL    MW4  467   1.439   1.180   0.850  0.4846 -0.1082  0.1202
  106SOL     OW  468   1.514   4.454   0.864  0.2540 -0.0031  0.0638
  106SOL    HW2  469   1.550   4.481   0.779 -0.5302  1.5069  0.1961
  106SOL    HW3  470   1.432   4.503   0.872 -0.2606 -1.0205  1.1767
  106SOL    MW4  471   1.508   4.464   0.854  0.0826  0.0615  0.2280
  107SOL     OW  472   1.755   3.679   0.953 -0.1346 -0.0983  0.5962
  107SOL    HW2  473   1.843   3.662   0.921 -0.4121 -0.2311 -0.1028
  107SOL    HW3  474   1.755   3.772   0.976 -0.1429  0.1625 -0.4575
  107SOL    MW4  475   1.767   3.689   0.952 -0.1724 -0.0811  0.3650
  108SOL     OW  476   2.427   1.143   0.560 -0.2382  0.1224  0.0644
  108SOL    HW2  477   2.435   1.065   0.505  1.0423  0.8131 -0.7474
  108SOL    HW3  478   2.513   1.153   0.600 -0.1213  1.6209 -0.5325
  108SOL    MW4  479   2.439   1.134   0.558 -0.0536  0.4112 -0.1215
  109SOL     OW  480   0.062   3.322   0.761 -0.1859  0.0464  0.2394
  109SOL    HW2  481  -0.000   3.270   0.711  0.5345 -0.3416 -0.2696
  109SOL    HW3  482   0.120   3.257   0.802  0.8188  0.4400 -0.5346
  109SOL    MW4  483   0.062   3.306   0.760  0.0417  0.0472  0.0702
  110SOL     OW  484   0.803   2.655   0.096 -0.4440  0.2004  0.0840
  110SOL    HW2  485   0.790   2.684   0.006 -1.2541 -0.1012  0.0984
  110SOL    HW3  486   0.894   2.677   0.116 -0.5554  1.1729 -0.4705
  110SOL    MW4  487   0.813   2.662   0.087 -0.5656  0.2890  0.0127
  111SOL     OW  488   3.559   1.328   0.518  0.1914 -0.3166  0.2540
  111SOL    HW2  489   3.528   1.303   0.605 -1.0182 -0.5681 -0.2283
  111SOL    HW3  490   3.506   1.404   0.494 -1.3706 -1.8303 -1.3257
  111SOL    MW4  491   3.548   1.335   0.526 -0.1740 -0.5493 -0.0181
  112SOL     OW  492   2.928   4.227   0.968 -0.4272  0.2482  0.0601
  112SOL    HW2  493   2.890   4.139   0.975  0.7240 -0.3074 -0.4487
  112SOL    HW3  494   2.899   4.259   0.883 -2.2030  1.0355  0.9395
  112SOL    MW4  495   2.919   4.219   0.958 -0.5097  0.2789  0.1090
  113SOL     OW  496   2.646   2.708   1.132 -0.2150 -0.2619  0.1911
  113SOL    HW2  497   2.630   2.727   1.040 -2.6791 -0.0178  0.6310
  113SOL    HW3  498   2.638   2.612   1.139 -0.9754 -0.1950  0.3022
  113SOL    MW4  499   2.643   2.698   1.121 -0.6406 -0.2208  0.2638
  114SOL     OW  500   2.716   3.842   0.318  0.4658  0.3251 -0.0385
  114SOL    HW2  501   2.748   3.826   0.229 -1.2719  0.8548 -0.7793
  114SOL    HW3  502   2.757   3.925   0.343 -1.6050  1.9262 -1.6705
  114SOL    MW4  503   2.726   3.851   0.310 -0.0365  0.6061 -0.3516
  115SOL     OW  504   1.407   4.242   0.720 -0.4313  0.5431 -0.3648
  115SOL    HW2  505   1.477   4.183   0.692 -1.7111 -0.8123 -0.7256
  115SOL    HW3  506   1.452   4.306   0.776  0.9179 -0.9769  0.3428
  115SOL    MW4  507   1.422   4.243   0.724 -0.4221  0.1636 -0.3191
  116SOL     OW  508   3.892   4.037   0.839 -0.4394 -0.6239 -0.1999
  116SOL    HW2  509   3.888   4.020   0.933 -0.1317  2.2112  0.3801
  116SOL    HW3  510   3.808   4.076   0.818  0.5615  1.4564 -0.4824
  116SOL    MW4  511   3.881   4.040   0.849 -0.2666  0.0248 -0.1607
  117SOL     OW  512   0.156   0.520   0.485  0.2028 -0.1022 -0.2964
  117SOL    HW2  513   0.085   0.458   0.465 -1.5936  1.1916  1.8028
  117SOL    HW3  514   0.189   0.491   0.570 -0.2057  1.3674  0.3864
  117SOL    MW4  515   0.151   0.508   0.494 -0.0881  0.2624  0.0706
  118SOL     OW  516   2.384   2.528   0.524  0.1331  0.5748 -0.2687
  118SOL    HW2  517   2.449   2.540   0.593  0.2180  1.3909 -0.4842
  118SOL    HW3  518   2.383   2.434   0.508  1.9997  0.6582 -0.9690
  118SOL    MW4  519   2.392   2.517   0.531  0.3905  0.6936 -0.3895
  119SOL     OW  520   0.471   1.812   0.905 -0.2533  0.0671  0.3781
  119SOL    HW2  521   0.560   1.778   0.892 -0.1949  0.6427 -0.7928
  119SOL    HW3  522   0.414   1.740   0.879 -0.1250 -0.0611  0.4528
  119SOL    MW4  523   0.475   1.798   0.900 -0.2287  0.1261  0.2335
  120SOL     OW  524   2.990   0.034   0.496 -0.0066 -0.3104  0.4734
  120SOL    HW2  525   2.966   0.122   0.465 -0.8840 -0.3144  1.1089
  120SOL    HW3  526   2.949   0.027   0.582 -1.4575 -1.9939 -0.3112
  120SOL    MW4  527   2.981   0.045   0.503 -0.3138 -0.5330  0.4538
  121SOL     OW  528   3.826   4.643   0.888 -0.0971  0.0709  0.2704
  121SOL    HW2  529   3.878   4.713   0.850  2.0265 -1.4363  0.2744
  121SOL    HW3  530   3.762   4.619   0.821  0.1013  1.0414 -0.2578
  121SOL    MW4  531   3.824   4.649   0.874  0.2091  0.0000  0.2013
  122SOL     OW  532   2.001   4.235   1.024 -0.1999  0.5744  0.0434
  122SOL    HW2  533   1.944   4.158   1.012 -1.2546  1.4442 -0.6059
  122SOL    HW3  534   1.991   4.285   0.944  0.0788  1.6696  0.6812
  122SOL    MW4  535   1.992   4.231   1.012 -0.3024  0.8340  0.0418
  123SOL     OW  536   1.703   4.500   1.068  0.2716  0.3940  0.0727
  123SOL    HW2  537   1.679   4.431   1.130  0.2568  0.3876  0.0596
  123SOL    HW3  538   1.650   4.483   0.990 -1.1649  1.5300  0.7708
  123SOL    MW4  539   1.692   4.489   1.066  0.0801  0.5431  0.1630
  124SOL     OW  540   2.915   2.552   0.958  0.3541  0.3220  0.0717
  124SOL    HW2  541   2.897   2.474   1.009  0.0269 -0.5739 -1.3711
  124SOL    HW3  542   2.997   2.586   0.992 -0.4578  0.4348  1.9812
  124SOL    MW4  543   2.923   2.546   0.969  0.2036  0.2191  0.1333
  125SOL     OW  544   0.666   4.446   1.065  0.4632 -0.3663  0.6963
  125SOL    HW2  545   0.677   4.540   1.059  0.6332 -0.5813 -3.4748
  125SOL    HW3  546   0.730   4.418   1.130  2.0902  2.1001  0.1820
  125SOL    MW4  547   0.676   4.455   1.073  0.7003 -0.0691  0.0781
  126SOL     OW  548   2.081   3.837   1.120  0.4808 -0.5382 -0.5207
  126SOL    HW2  549   2.139   3.887   1.177 -0.5447 -0.4290  0.4557
  126SOL    HW3  550   2.083   3.748   1.156  0.0546 -0.5383 -0.4968
  126SOL    MW4  551   2.089   3.832   1.132  0.2892 -0.5236 -0.3887
  127SOL     OW  552   0.618   4.636   0.471  0.4531  0.0523 -0.1560
  127SOL    HW2  553   0.650   4.723   0.496  1.1556 -0.8441  2.1490
  127SOL    HW3  554   0.692   4.596   0.424  0.5415  0.2596 -0.1956
  127SOL    MW4  555   0.632   4.642   0.468  0.5574 -0.0386  0.1429
  128SOL     OW  556   0.643   2.346   0.902  0.0871 -0.1958 -0.2506
  128SOL    HW2  557   0.562   2.301   0.877 -1.4212  2.0743  0.3227
  128SOL    HW3  558   0.632   2.435   0.867  0.6084  1.2548  3.1183
  128SOL    MW4  559   0.631   2.352   0.894 -0.0432  0.2949  0.2696
  129SOL     OW  560   2.663   4.235   0.678 -0.2950 -0.1832  0.3713
  129SOL    HW2  561   2.638   4.300   0.744 -1.0159  0.9854 -1.0270
  129SOL    HW3  562   2.758   4.244   0.670 -0.2351 -0.1734  1.0850
  129SOL    MW4  563   2.672   4.244   0.686 -0.3824 -0.0277  0.2810
  130SOL     OW  564   1.224   2.458   0.849 -0.4628  0.2080 -0.4494
  130SOL    HW2  565   1.261   2.546   0.847  0.1178  0.0268  1.3544
  130SOL    HW3  566   1.299   2.400   0.838 -0.5803 -0.0960  0.3308
  130SOL    MW4  567   1.238   2.462   0.848 -0.4016  0.1440 -0.1084
  131SOL     OW  568   0.985   2.181   0.457 -0.2947  0.1960 -0.0871
  131SOL    HW2  569   1.011   2.257   0.509 -1.2751  1.0106 -0.7671
  131SOL    HW3  570   0.893   2.197   0.435 -0.3980 -0.9887 -0.5903
  131SOL    MW4  571   0.976   2.193   0.461 -0.4377  0.1471 -0.2432
  132SOL     OW  572   2.238   3.221   0.381 -0.4627 -1.2099 -0.0327
  132SOL    HW2  573   2.193   3.244   0.462 -0.2560  0.7148 -0.4413
  132SOL    HW3  574   2.228   3.126   0.374 -2.0921 -1.1547  1.2749
  132SOL    MW4  575   2.231   3.212   0.390 -0.6509 -0.9487  0.0859
  133SOL     OW  576   4.473   0.376   0.810 -0.6752  0.1952 -0.0186
  133SOL    HW2  577   4.560   0.399   0.779  0.5385 -0.6084  2.6901
  133SOL    HW3  578   4.445   0.305   0.752  0.4010  0.5727 -1.0153
  133SOL    MW4  579   4.481   0.370   0.798 -0.3738  0.1390  0.2073
  134SOL     OW  580   3.275   0.002   0.896 -0.0524  0.2560 -0.4587
  134SOL    HW2  581   3.288  -0.025   0.987  0.0118 -0.1949 -0.6038
  134SOL    HW3  582   3.319  -0.066   0.844 -0.5606  0.2272 -0.8481
  134SOL    MW4  583   3.283  -0.010   0.901 -0.1109  0.1926 -0.5293
  135SOL     OW  584   1.548   4.057   0.562 -0.0755 -0.2424 -0.3275
  135SOL    HW2  585   1.487   4.010   0.504 -0.8054  1.0666 -0.6486
  135SOL    HW3  586   1.586   3.989   0.618 -1.0632 -1.2165 -0.8258
  135SOL    MW4  587   1.545   4.042   0.562 -0.3023 -0.1984 -0.4357
  136SOL     OW  588   3.975   1.801   0.400  0.1088 -0.0805  0.1085
  136SOL    HW2  589   3.940   1.868   0.342  1.7271 -0.2425 -1.1022
  136SOL    HW3  590   3.920   1.724   0.384  1.1123 -0.4120 -1.9539
  136SOL    MW4  591   3.964   1.800   0.390  0.4549 -0.1456 -0.3234
  137SOL     OW  592   0.406   0.413   0.482  0.1807  0.4281  0.4862
  137SOL    HW2  593   0.325   0.461   0.466  0.4526  1.1761  1.3061
  137SOL    HW3  594   0.470   0.480   0.506  0.4299 -0.3629  2.1399
  137SOL    MW4  595   0.404   0.428   0.483  0.2495  0.4225  0.8126
  138SOL     OW  596   1.916   3.831   0.673  0.4253 -0.3180 -0.1970
  138SOL    HW2  597   1.920   3.745   0.633  0.1407 -1.5753  2.3525
  138SOL    HW3  598   1.995   3.836   0.728  0.3404  0.9687 -0.1630
  138SOL    MW4  599   1.927   3.820   0.675  0.3765 -0.3142  0.1439
  139SOL     OW  600   1.276   1.652   1.264 -0.4681  0.0675  0.4987
  139SOL    HW2  601   1.360   1.637   1.221 -0.8996  0.6696 -0.5709
  139SOL    HW3  602   1.215   1.595   1.219 -0.9551  0.8161  0.1991
  139SOL    MW4  603   1.279   1.643   1.252 -0.5894  0.2457  0.3179
  140SOL     OW  604   4.290   3.770   0.384  0.4307 -0.1338 -0.4143
  140SOL    HW2  605   4.378   3.735   0.398  1.0445  0.7916 -1.7872
  140SOL    HW3  606   4.231   3.696   0.399  1.4678 -0.8262  0.2646
  140SOL    MW4  607   4.294   3.756   0.387  0.6485 -0.1032 -0.5058
  141SOL     OW  608   1.732   2.420   0.516  0.3881  0.2304  0.4503
  141SOL    HW2  609   1.743   2.492   0.454  0.2048  1.1865  1.5121
  141SOL    HW3  610   1.641   2.393   0.506  0.2793  0.5712  0.5079
  141SOL    MW4  611   1.722   2.426   0.506  0.3495  0.4013  0.5980
  142SOL     OW  612   1.996   2.800   0.720 -0.3816 -0.0197 -0.2161
  142SOL    HW2  613   1.917   2.796   0.774 -1.1320 -0.0628 -1.2973
  142SOL    HW3  614   2.035   2.885   0.740 -1.2717  0.4498 -0.4507
  142SOL    MW4  615   1.991   2.811   0.730 -0.5981  0.0367 -0.3896
  143SOL     OW  616   1.500   3.636   0.542 -0.3198 -0.5948 -0.5143
  143SOL    HW2  617   1.411   3.601   0.547 -0.2299 -0.5905  1.1878
  143SOL    HW3  618   1.540   3.614   0.626  0.6856  1.0209 -0.5431
  143SOL    MW4  619   1.493   3.629   0.553 -0.1752 -0.3810 -0.2936
  144SOL     OW  620   3.448   1.240   0.744 -0.6410  0.0525  0.1028
  144SOL    HW2  621   3.454   1.319   0.799 -1.0369  0.1315  0.0342
  144SOL    HW3  622   3.499   1.174   0.791 -1.3819 -0.0245  0.8218
  144SOL    MW4  623   3.455   1.242   0.757 -0.7911  0.0528  0.1885
  145SOL     OW  624   2.768   1.079   0.513 -0.0660  0.3827  0.0121
  145SOL    HW2  625   2.761   1.174   0.520 -0.5345  0.3142  0.4876
  145SOL    HW3  626   2.779   1.049   0.603 -1.6214 -0.1495  0.0260
  145SOL    MW4  627   2.769   1.087   0.526 -0.3331  0.3035  0.0766
  146SOL     OW  628   3.207   4.088   0.591 -0.3993 -0.5162  0.1102
  146SOL    HW2  629   3.233   4.111   0.681 -1.7837  1.5475  0.0005
  146SOL    HW3  630   3.115   4.062   0.599 -0.1076 -1.7989 -0.4994
  146SOL    MW4  631   3.198   4.088   0.604 -0.5434 -0.4134  0.0153
  147SOL     OW  632   1.109   0.079   0.611 -0.2636  0.1616  0.2899
  147SOL    HW2  633   1.082  -0.002   0.655 -0.5115  0.7387  1.2177
  147SOL    HW3  634   1.193   0.057   0.570 -0.5868 -0.7210  0.0705
  147SOL    MW4  635   1.116   0.065   0.611 -0.3390  0.1213  0.3833
  148SOL     OW  636   4.067   1.945   1.112  0.0916 -0.1537 -0.1566
  148SOL    HW2  637   4.064   1.861   1.159  0.8911 -0.4625 -0.6464
  148SOL    HW3  638   4.059   1.921   1.020  0.1331  0.3270 -0.2853
  148SOL    MW4  639   4.065   1.931   1.106  0.2027 -0.1309 -0.2383
  149SOL     OW  640   3.254   3.631   0.476  0.2046 -0.4681 -0.1696
  149SOL    HW2  641   3.164   3.661   0.489  0.2902  0.1821 -1.0233
  149SOL    HW3  642   3.246   3.550   0.426  0.0911 -0.4799 -0.1322
  149SOL    MW4  643   3.241   3.625   0.471  0.2012 -0.3839 -0.2773
  150SOL     OW  644   1.085   3.418   0.719  0.0384 -0.7043 -0.2649
  150SOL    HW2  645   1.140   3.460   0.653  0.5246 -0.6113  0.1895
  150SOL    HW3  646   1.015   3.481   0.736  0.4778 -0.2903  0.0369
  150SOL    MW4  647   1.083   3.432   0.713  0.1605 -0.6375 -0.1650
  151SOL     OW  648   1.963   0.283   0.408 -0.2619 -0.0592  0.1230
  151SOL    HW2  649   1.986   0.268   0.499 -0.9653 -0.4976  0.2364
  151SOL    HW3  650   1.900   0.214   0.387 -0.2318  0.1358 -0.6430
  151SOL    MW4  651   1.957   0.272   0.417 -0.3506 -0.0913  0.0369
  152SOL     OW  652   3.639   0.266   0.908  0.0771 -0.4861 -0.1200
  152SOL    HW2  653   3.639   0.360   0.893  0.0256 -0.6553 -1.2288
  152SOL    HW3  654   3.590   0.230   0.834  2.0030 -1.5566 -0.8980
  152SOL    MW4  655   3.633   0.273   0.897  0.3245 -0.6497 -0.3690
  153SOL     OW  656   3.070   0.723   0.450  0.0962 -0.1077  0.0453
  153SOL    HW2  657   3.088   0.816   0.436  0.8694 -0.3456 -0.5460
  153SOL    HW3  658   2.983   0.710   0.413  0.6315  0.0469 -1.2709
  153SOL    MW4  659   3.060   0.734   0.444  0.2689 -0.1187 -0.2064
  154SOL     OW  660   2.605   4.440   0.405  0.7495  0.0389  0.2055
  154SOL    HW2  661   2.558   4.523   0.411  0.5679 -0.1692  1.8451
  154SOL    HW3  662   2.620   4.414   0.496  1.4137 -1.3804 -0.2948
  154SOL    MW4  663   2.601   4.447   0.418  0.8130 -0.1755  0.3558
  155SOL     OW  664   0.447   2.844   0.130 -0.5689  0.0481  0.7164
  155SOL    HW2  665   0.509   2.783   0.170  1.4779  0.0325 -2.3366
  155SOL    HW3  666   0.474   2.930   0.162  0.8385  0.0031 -0.3010
  155SOL    MW4  667   0.459   2.847   0.139 -0.1132  0.0401  0.1794
  156SOL     OW  668   2.345   3.192   0.748 -0.1406 -0.6147 -0.0357
  156SOL    HW2  669   2.396   3.231   0.676  0.8552 -0.8254  0.5463
  156SOL    HW3  670   2.411   3.153   0.805 -0.9382 -0.5169  0.9572
  156SOL    MW4  671   2.361   3.192   0.746 -0.1147 -0.6294  0.1721
  157SOL     OW  672   2.501   0.271   0.476  0.3801  0.6913 -0.1898
  157SOL    HW2  673   2.499   0.300   0.567  0.8675 -1.8530  0.6697
  157SOL    HW3  674   2.412   0.240   0.458  0.2370  1.3569 -0.6300
  157SOL    MW4  675   2.489   0.270   0.485  0.4253  0.4435 -0.1345
  158SOL     OW  676   1.440   2.260   0.821  0.1455 -0.4451 -0.3987
  158SOL    HW2  677   1.414   2.169   0.835 -0.8796 -0.2848 -1.1890
  158SOL    HW3  678   1.526   2.267   0.862  0.0138 -1.6364  0.1101
  158SOL    MW4  679   1.448   2.249   0.829 -0.0073 -0.5808 -0.4359
  159SOL     OW  680   2.826   4.112   0.362  0.1294 -0.2610 -0.3447
  159SOL    HW2  681   2.856   4.074   0.444  1.5383 -1.0084 -1.1959
  159SOL    HW3  682   2.848   4.205   0.370  0.5856 -0.3940 -0.0243
  159SOL    MW4  683   2.833   4.120   0.374  0.3755 -0.3777 -0.4147
  160SOL     OW  684   2.606   4.423   0.897  0.5339  0.3449  0.0421
  160SOL    HW2  685   2.536   4.479   0.864  0.1482 -0.2001 -0.0770
  160SOL    HW3  686   2.573   4.389   0.980  0.9050  0.5596  0.2792
  160SOL    MW4  687   2.593   4.426   0.903  0.5322  0.3014  0.0576
  161SOL     OW  688   1.639   3.876   0.745  0.4165 -0.2973 -0.1664
  161SOL    HW2  689   1.655   3.951   0.802  1.3293 -0.0069 -0.8053
  161SOL    HW3  690   1.724   3.835   0.734 -0.0293 -1.2587 -0.0642
  161SOL    MW4  691   1.652   3.881   0.751  0.4780 -0.3855 -0.2373
  162SOL     OW  692   1.885   2.168   0.486 -0.1341  0.3274 -0.2295
  162SOL    HW2  693   1.816   2.101   0.489 -0.2441  0.3790 -1.4688
  162SOL    HW3  694   1.838   2.251   0.481  0.0186  0.4085 -0.3020
  162SOL    MW4  695   1.870   2.170   0.486 -0.1284  0.3450 -0.4026
  163SOL     OW  696   0.169   1.927   0.568 -0.2293 -0.0452  0.3121
  163SOL    HW2  697   0.125   1.956   0.648 -0.8786  1.2305 -0.4975
  163SOL    HW3  698   0.147   1.994   0.503 -0.4719 -1.5495 -1.1797
  163SOL    MW4  699   0.160   1.940   0.570 -0.3470 -0.0753  0.0085
  164SOL     OW  700   0.007   4.276   0.645 -0.0550 -0.0681  0.1285
  164SOL    HW2  701  -0.035   4.237   0.721 -2.0001 -0.7043 -1.2354
  164SOL    HW3  702  -0.047   4.249   0.571  1.4858  0.9831 -1.4263
  164SOL    MW4  703  -0.005   4.267   0.645 -0.1084 -0.0138 -0.2567
  165SOL     OW  704   2.969   1.150   0.340 -0.5742 -0.0737 -0.6417
  165SOL    HW2  705   3.036   1.082   0.338 -1.1741 -0.6640 -0.8711
  165SOL    HW3  706   2.901   1.115   0.398 -0.4611  0.7337 -0.0038
  165SOL    MW4  707   2.969   1.136   0.348 -0.6387 -0.0451 -0.5879
  166SOL     OW  708   2.226   3.221   1.267 -1.0768 -0.3912  0.4039
  166SOL    HW2  709   2.158   3.187   1.209  0.0577 -0.8680 -0.6862
  166SOL    HW3  710   2.306   3.179   1.237  0.2817  2.7056 -0.5736
  166SOL    MW4  711   2.228   3.211   1.255 -0.7479 -0.0458  0.1311
  167SOL     OW  712   1.862   3.530   0.260 -0.0387 -0.3504  0.0299
  167SOL    HW2  713   1.864   3.558   0.168  0.0575  0.1409  0.1864
  167SOL    HW3  714   1.891   3.439   0.257 -1.7196 -0.8909 -0.6482
  167SOL    MW4  715   1.866   3.521   0.247 -0.2478 -0.3569 -0.0389
  168SOL     OW  716   0.753   4.422   0.803  1.1024  0.5390  0.1146
  168SOL    HW2  717   0.670   4.409   0.756  0.5308 -0.8853  1.4662
  168SOL    HW3  718   0.727   4.470   0.882  1.7326  0.9998  0.0414
  168SOL    MW4  719   0.738   4.426   0.807  1.1101  0.4120  0.2832
  169SOL     OW  720   3.839   1.063   0.497  0.6630  0.2836  0.0024
  169SOL    HW2  721   3.913   1.011   0.468  1.1405  1.9798 -1.9984
  169SOL    HW3  722   3.762   1.014   0.469  1.0630 -0.4639  0.2173
  169SOL    MW4  723   3.838   1.050   0.489  0.7784  0.4089 -0.2332
  170SOL     OW  724   3.384   1.823   0.678 -0.1384 -0.2240  0.6664
  170SOL    HW2  725   3.342   1.742   0.704  1.1206 -1.1754 -0.1986
  170SOL    HW3  726   3.478   1.803   0.677  0.1412  1.0422 -0.1862
  170SOL    MW4  727   3.391   1.810   0.681  0.0648 -0.1825  0.4398
  171SOL     OW  728   3.465   1.472   0.907 -0.2790 -0.2081 -0.0206
  171SOL    HW2  729   3.557   1.497   0.903 -0.2772 -0.2392 -0.1729
  171SOL    HW3  730   3.443   1.476   1.000  0.0168 -0.7286  0.0750
  171SOL    MW4  731   3.474   1.476   0.919 -0.2396 -0.2809 -0.0280
  172SOL     OW  732   3.798   3.655   0.453  0.1822 -0.1684 -0.2363
  172SOL    HW2  733   3.887   3.618   0.460  0.8118  1.1645 -0.9677
  172SOL    HW3  734   3.769   3.665   0.543  0.9038 -0.3235  0.0208
  172SOL    MW4  735   3.806   3.651   0.466  0.3607 -0.0129 -0.2989
  173SOL     OW  736   3.384   1.524   0.451 -0.2682  0.0756 -0.3245
  173SOL    HW2  737   3.437   1.598   0.424 -0.3722 -0.5620 -2.3787
  173SOL    HW3  738   3.357   1.545   0.540  2.0937  1.1398  0.1743
  173SOL    MW4  739   3.387   1.536   0.459  0.0296  0.1320 -0.5297
  174SOL     OW  740   3.613   4.621   0.264 -0.0165  0.1579  0.3180
  174SOL    HW2  741   3.519   4.602   0.264  0.1330 -0.5881 -1.1830
  174SOL    HW3  742   3.623   4.691   0.199  0.4796  0.1507  0.3849
  174SOL    MW4  743   3.602   4.628   0.255  0.0689  0.0591  0.1288
  175SOL     OW  744   4.373   1.417   0.670 -0.0043 -0.3773 -0.0071
  175SOL    HW2  745   4.315   1.343   0.651  0.5806 -0.9369  0.3598
  175SOL    HW3  746   4.322   1.474   0.728 -0.2019 -0.8518  0.2890
  175SOL    MW4  747   4.358   1.415   0.675  0.0472 -0.5138  0.0803
  176SOL     OW  748   2.617   2.865   0.585 -0.1496  0.8070 -0.3128
  176SOL    HW2  749   2.638   2.802   0.516 -0.0169  1.5194 -0.9340
  176SOL    HW3  750   2.521   2.869   0.586 -0.3308 -2.1726  2.2734
  176SOL    MW4  751   2.607   2.857   0.576 -0.1562  0.5076 -0.0535
  177SOL     OW  752   4.126   4.225   0.703 -0.1777  0.1885  0.4968
  177SOL    HW2  753   4.070   4.255   0.775 -0.6386  0.1819  0.1455
  177SOL    HW3  754   4.173   4.303   0.675  0.2990  0.1083  1.0663
  177SOL    MW4  755   4.125   4.239   0.709 -0.1755  0.1769  0.5256
  178SOL     OW  756   0.801   4.185   0.531 -0.1009  0.0948 -0.0324
  178SOL    HW2  757   0.706   4.180   0.540 -0.2806 -0.8909 -2.3186
  178SOL    HW3  758   0.835   4.126   0.598 -1.1065  0.1460  0.5275
  178SOL    MW4  759   0.793   4.177   0.541 -0.2573 -0.0286 -0.2601
  179SOL     OW  760   4.360   4.172   0.441 -0.5424 -0.5411 -0.0593
  179SOL    HW2  761   4.422   4.153   0.370  0.0195 -1.4979  0.6679
  179SOL    HW3  762   4.277   4.185   0.396  0.0364  0.0582 -0.9958
  179SOL    MW4  763   4.358   4.171   0.425 -0.3915 -0.5879 -0.0869
  180SOL     OW  764   0.370   3.027   0.505  0.5394  0.5225 -0.4126
  180SOL    HW2  765   0.444   3.058   0.453  1.1510  0.4073  0.3691
  180SOL    HW3  766   0.388   2.934   0.518  0.9316  0.7646  0.8607
  180SOL    MW4  767   0.382   3.019   0.500  0.6719  0.5391 -0.1415
  181SOL     OW  768   2.493   3.869   1.136 -0.4586 -0.0894  0.1272
  181SOL    HW2  769   2.517   3.876   1.044 -2.1180  0.8019 -0.2486
  181SOL    HW3  770   2.499   3.775   1.155  2.5636 -0.0040 -0.1155
  181SOL    MW4  771   2.497   3.857   1.126 -0.2789  0.0393  0.0455
  182SOL     OW  772   2.842   3.362   0.512 -0.3017  0.3731 -0.2346
  182SOL    HW2  773   2.800   3.435   0.467 -0.3244 -0.3682 -1.4435
  182SOL    HW3  774   2.784   3.288   0.497  0.5630 -0.2725 -0.4382
  182SOL    MW4  775   2.829   3.362   0.504 -0.1905  0.1898 -0.4209
  183SOL     OW  776   0.956   4.221   0.877 -0.1054 -0.1989  0.8138
  183SOL    HW2  777   0.909   4.302   0.857  1.1854  0.4715  0.4426
  183SOL    HW3  778   1.037   4.250   0.918  0.8506 -1.2689 -0.3000
  183SOL    MW4  779   0.960   4.235   0.880  0.1910 -0.2513  0.6178
  184SOL     OW  780   4.106   0.182   0.613  0.8342  0.2035  0.3069
  184SOL    HW2  781   4.106   0.259   0.557  0.8532 -1.0801 -1.5114
  184SOL    HW3  782   4.070   0.213   0.696  0.6236  2.1093 -0.4660
  184SOL    MW4  783   4.101   0.196   0.616  0.8087  0.2856 -0.0350
  185SOL     OW  784   2.205   4.357   0.393  0.3074  0.0178 -0.0123
  185SOL    HW2  785   2.220   4.442   0.435  0.9628  0.0464 -0.2978
  185SOL    HW3  786   2.150   4.378   0.317  1.5740  0.3966 -0.8561
  185SOL    MW4  787   2.200   4.371   0.388  0.5608  0.0715 -0.1613
  186SOL     OW  788   1.905   0.808   0.453  0.3999  0.0948 -0.2632
  186SOL    HW2  789   1.819   0.849   0.447  0.0166 -0.4943  1.0424
  186SOL    HW3  790   1.887   0.714   0.449  0.8358 -0.0800  1.4478
  186SOL    MW4  791   1.891   0.801   0.451  0.4069 -0.0059  0.1347
  187SOL     OW  792   3.166   2.785   0.865  0.2384  0.3116 -0.0987
  187SOL    HW2  793   3.182   2.756   0.954  0.9834  2.7385  0.5851
  187SOL    HW3  794   3.251   2.810   0.831 -0.2623  0.8733 -0.9713
  187SOL    MW4  795   3.179   2.784   0.872  0.2706  0.7060 -0.1236
  188SOL     OW  796   2.437   0.726   1.229 -0.0559 -0.0738  0.8558
  188SOL    HW2  797   2.438   0.636   1.263 -0.7208 -0.2027  0.5562
  188SOL    HW3  798   2.347   0.756   1.243 -0.1987  0.0609 -0.2701
  188SOL    MW4  799   2.425   0.718   1.235 -0.1624 -0.0730  0.6678
  189SOL     OW  800   3.761   4.465   0.450  0.3139 -0.0843 -0.3078
  189SOL    HW2  801   3.844   4.513   0.455  0.0273  0.5937 -2.0260
  189SOL    HW3  802   3.712   4.509   0.381 -1.6043 -0.3188  0.8790
  189SOL    MW4  803   3.766   4.477   0.442  0.0229 -0.0262 -0.3779
  190SOL     OW  804   0.993   4.382   0.484  0.3469  0.6842  0.3109
  190SOL    HW2  805   0.935   4.309   0.503  1.3869  0.4707  2.8550
  190SOL    HW3  806   1.070   4.341   0.444 -0.1842  0.6936 -0.7318
  190SOL    MW4  807   0.996   4.367   0.481  0.4140  0.6571  0.5090
  191SOL     OW  808   2.532   2.692   0.371  0.5165 -1.0528 -0.6031
  191SOL    HW2  809   2.473   2.628   0.411  0.0879  0.3214  1.0761
  191SOL    HW3  810   2.581   2.643   0.306 -0.7656 -2.7699 -0.3133
  191SOL    MW4  811   2.531   2.677   0.368  0.2904 -1.0982 -0.3434
  192SOL     OW  812   3.655   1.750   0.665  0.0547  0.1646 -0.3204
  192SOL    HW2  813   3.680   1.681   0.726  0.0532 -0.4346 -0.9923
  192SOL    HW3  814   3.715   1.823   0.685 -1.0479  0.5826  1.4973
  192SOL    MW4  815   3.667   1.751   0.675 -0.0911  0.1407 -0.1692
  193SOL     OW  816   0.588   3.570   0.886  1.1209  0.2180  0.6106
  193SOL    HW2  817   0.537   3.645   0.854 -0.0571 -1.0208 -0.4938
  193SOL    HW3  818   0.545   3.545   0.969  0.3001 -0.4206  0.0059
  193SOL    MW4  819   0.575   3.576   0.893  0.8572 -0.0293  0.3850
  194SOL     OW  820   4.020   1.163   0.879  0.3091 -0.6401 -0.0078
  194SOL    HW2  821   4.031   1.152   0.973 -0.8138  0.7252  0.3179
  194SOL    HW3  822   3.937   1.119   0.859  0.4225 -0.7185 -0.3055
  194SOL    MW4  823   4.010   1.156   0.889  0.1764 -0.4703 -0.0041
  195SOL     OW  824   1.717   2.652   0.371 -0.1034  0.0130  0.5452
  195SOL    HW2  825   1.640   2.704   0.391  0.1535  0.9577 -0.8812
  195SOL    HW3  826   1.791   2.710   0.387  0.1188  0.7889 -2.9601
  195SOL    MW4  827   1.717   2.666   0.376 -0.0402  0.2401 -0.1055
  196SOL     OW  828   0.450   3.889   0.481 -0.0949 -0.1875 -0.1010
  196SOL    HW2  829   0.361   3.893   0.446 -0.4281 -1.2750  0.5833
  196SOL    HW3  830   0.468   3.978   0.510 -1.7127 -0.3583  1.5231
  196SOL    MW4  831   0.441   3.901   0.480 -0.3523 -0.3533  0.2036
  197SOL     OW  832   2.874   2.833   1.204 -0.4904  0.2673  0.0051
  197SOL    HW2  833   2.792   2.787   1.187 -0.6498  0.3929  0.4471
  197SOL    HW3  834   2.892   2.817   1.296  1.4223 -2.1023 -0.7213
  197SOL    MW4  835   2.866   2.825   1.214 -0.2589 -0.0288 -0.0324
  198SOL     OW  836   1.193   3.205   0.848 -0.3810 -0.4515 -0.3871
  198SOL    HW2  837   1.288   3.211   0.850 -0.4124 -0.2645  1.0759
  198SOL    HW3  838   1.165   3.283   0.801  0.1371  0.0658  0.1577
  198SOL    MW4  839   1.202   3.216   0.842 -0.3167 -0.3586 -0.1222
  199SOL     OW  840   0.451   1.965   1.127  0.4282  0.4541  0.0463
  199SOL    HW2  841   0.535   2.010   1.136  1.3232 -0.8183 -1.5693
  199SOL    HW3  842   0.458   1.917   1.045 -1.8486  0.2133 -0.0539
  199SOL    MW4  843   0.463   1.964   1.117  0.2459  0.2545 -0.1801
  200SOL     OW  844   1.555   0.689   1.125  0.0878  0.5507  0.4652
  200SOL    HW2  845   1.494   0.617   1.106 -1.3544  2.2418 -1.6430
  200SOL    HW3  846   1.499   0.757   1.164  1.4054  0.6127  2.2988
  200SOL    MW4  847   1.539   0.689   1.128  0.0713  0.7820  0.4289
  201SOL     OW  848   0.283   1.274   1.233 -0.4806  0.6566 -0.1960
  201SOL    HW2  849   0.261   1.354   1.185 -0.6953 -0.5321 -2.1041
  201SOL    HW3  850   0.209   1.215   1.216  0.5125 -0.5832 -0.2471
  201SOL    MW4  851   0.270   1.277   1.225 -0.3779  0.3361 -0.4544
  202SOL     OW  852   1.381   3.331   0.238 -0.1291  0.4455  0.0514
  202SOL    HW2  853   1.304   3.384   0.256 -1.3095 -0.8284 -1.1331
  202SOL    HW3  854   1.454   3.381   0.274 -1.3472  2.3317 -0.0647
  202SOL    MW4  855   1.380   3.345   0.245 -0.4455  0.5262 -0.1202
  203SOL     OW  856   0.010   2.862   0.375 -0.6085  0.1037  0.5475
  203SOL    HW2  857   0.060   2.942   0.386 -1.1708  0.2737  1.9035
  203SOL    HW3  858  -0.078   2.884   0.406 -0.9312 -0.8464  0.3249
  203SOL    MW4  859   0.005   2.875   0.380 -0.7253  0.0007  0.6971
  204SOL     OW  860   0.008   2.750   1.146  0.4633 -0.2088 -0.1633
  204SOL    HW2  861  -0.064   2.799   1.187  0.8300  0.7147 -0.6019
  204SOL    HW3  862   0.011   2.783   1.056  0.5866 -1.1970 -0.5252
  204SOL    MW4  863  -0.001   2.761   1.140  0.5279 -0.2172 -0.2691
  205SOL     OW  864   1.342   1.903   1.154 -0.6500 -0.3158 -0.1904
  205SOL    HW2  865   1.273   1.955   1.196  0.3586 -0.7959  2.1431
  205SOL    HW3  866   1.331   1.815   1.189  2.0427 -0.0823  1.3607
  205SOL    MW4  867   1.331   1.898   1.164 -0.1618 -0.3483  0.3222
  206SOL     OW  868   4.301   3.942   0.604 -0.0132  0.0447 -0.7664
  206SOL    HW2  869   4.303   4.023   0.553 -0.3456 -0.0119 -0.8761
  206SOL    HW3  870   4.295   3.873   0.538 -0.3998 -0.0307 -0.6524
  206SOL    MW4  871   4.300   3.944   0.589 -0.1082  0.0274 -0.7658
  207SOL     OW  872   1.133   4.130   0.689  0.1866  0.7763 -0.3729
  207SOL    HW2  873   1.220   4.154   0.720  0.8035 -1.1308 -0.5360
  207SOL    HW3  874   1.072   4.175   0.747  1.2998 -0.0104  1.4180
  207SOL    MW4  875   1.136   4.139   0.701  0.4148  0.4215 -0.1581
  208SOL     OW  876   0.919   1.778   0.626  0.3896 -0.5731 -0.3876
  208SOL    HW2  877   0.861   1.853   0.613 -1.0612 -1.2952  1.5515
  208SOL    HW3  878   1.007   1.815   0.630 -0.2196  0.9047 -0.5165
  208SOL    MW4  879   0.923   1.793   0.625  0.1179 -0.4734 -0.1487
  209SOL     OW  880   4.002   4.411   0.889  0.1654  0.4417 -0.5927
  209SOL    HW2  881   4.002   4.386   0.981  1.1495  0.1645 -0.6649
  209SOL    HW3  882   3.952   4.493   0.886  0.4115  0.6209  0.2254
  209SOL    MW4  883   3.995   4.418   0.900  0.3281  0.4287 -0.4943
  210SOL     OW  884   0.997   2.776   0.325  0.0343 -0.8265 -0.3052
  210SOL    HW2  885   1.004   2.725   0.406 -1.8089  0.6780  0.8324
  210SOL    HW3  886   1.059   2.848   0.336 -0.8104 -0.1607  0.1300
  210SOL    MW4  887   1.006   2.779   0.337 -0.3203 -0.5403 -0.0977
  211SOL     OW  888   0.163   1.422   0.663 -0.1349  0.4393  0.1854
  211SOL    HW2  889   0.068   1.423   0.668 -0.1217  0.3452  0.4689
  211SOL    HW3  890   0.185   1.494   0.604 -0.3983  0.2159 -0.1886
  211SOL    MW4  891   0.154   1.431   0.656 -0.1679  0.3973  0.1734
  212SOL     OW  892   0.929   2.731   1.151 -0.2644 -0.3392  0.2208
  212SOL    HW2  893   0.938   2.640   1.178  1.1250 -0.8821 -1.9567
  212SOL    HW3  894   1.006   2.775   1.186  1.3845 -0.9819 -2.4590
  212SOL    MW4  895   0.940   2.725   1.159  0.1364 -0.4957 -0.4201
  213SOL     OW  896   4.052   3.777   0.743  0.5702  0.5970  0.3657
  213SOL    HW2  897   4.099   3.709   0.791  1.5834  0.8097 -0.3079
  213SOL    HW3  898   3.960   3.764   0.766  0.6255 -1.7445 -0.7067
  213SOL    MW4  899   4.046   3.767   0.753  0.7114  0.3161  0.1354
  214SOL     OW  900   2.774   0.050   0.769  0.1129  0.1973 -0.1485
  214SOL    HW2  901   2.747   0.128   0.818 -1.0734 -0.5657  0.4326
  214SOL    HW3  902   2.844   0.011   0.823 -0.4998 -0.0920  0.4418
  214SOL    MW4  903   2.780   0.055   0.783 -0.1242  0.0585  0.0061
  215SOL     OW  904   4.272   0.777   1.141  0.3662  0.1166  0.3563
  215SOL    HW2  905   4.263   0.682   1.144  1.8489  0.0279  2.6429
  215SOL    HW3  906   4.266   0.799   1.048  1.3824 -2.3429 -0.3150
  215SOL    MW4  907   4.270   0.768   1.129  0.6957 -0.2196  0.5695
  216SOL     OW  908   0.214   4.404   0.379  0.0694  0.6163 -0.1236
  216SOL    HW2  909   0.226   4.405   0.474  0.9723  1.4106 -0.2426
  216SOL    HW3  910   0.200   4.312   0.358  1.1152  0.2831  0.6206
  216SOL    MW4  911   0.214   4.392   0.389  0.3265  0.6776 -0.0411
  217SOL     OW  912   2.893   3.394   0.765 -0.0088  0.1015  0.2705
  217SOL    HW2  913   2.986   3.415   0.768  0.4524 -1.6855 -0.4874
  217SOL    HW3  914   2.873   3.384   0.672 -0.5683 -1.0755  0.5045
  217SOL    MW4  915   2.902   3.395   0.753 -0.0219 -0.2894  0.2014
  218SOL     OW  916   3.810   0.445   0.606  0.2071 -0.2394  0.8469
  218SOL    HW2  917   3.784   0.432   0.514  0.0331  0.9475  0.7282
  218SOL    HW3  918   3.895   0.488   0.601 -0.0530  0.3190  1.2475
  218SOL    MW4  919   3.818   0.449   0.593  0.1500 -0.0091  0.8841
  219SOL     OW  920   2.075   0.516   1.029 -0.3081  0.2930  0.2486
  219SOL    HW2  921   2.103   0.587   0.973  0.6068  0.0230  0.3642
  219SOL    HW3  922   2.050   0.559   1.111  1.1010  0.3946  0.6324
  219SOL    MW4  923   2.075   0.531   1.033 -0.0014  0.2708  0.3145
  220SOL     OW  924   0.877   4.371   1.272 -0.0001 -0.2595 -0.6006
  220SOL    HW2  925   0.820   4.401   1.343  0.3769  1.2654 -0.9255
  220SOL    HW3  926   0.874   4.275   1.277 -1.6613 -0.1785  0.1217
  220SOL    MW4  927   0.869   4.362   1.282 -0.1695 -0.0477 -0.5481
  221SOL     OW  928   2.048   1.243   0.452 -0.0586  0.1101  0.1884
  221SOL    HW2  929   1.988   1.285   0.390 -0.0087  0.8750  0.6622
  221SOL    HW3  930   2.130   1.293   0.444  0.8781 -1.5735 -1.2329
  221SOL    MW4  931   2.051   1.255   0.443  0.0718 -0.0112  0.0634
  222SOL     OW  932   2.140   1.739   0.663 -0.2843  0.5273  0.4463
  222SOL    HW2  933   2.048   1.735   0.689  0.0778 -1.0225  1.5815
  222SOL    HW3  934   2.182   1.792   0.730  0.1724 -1.2921  1.6479
  222SOL    MW4  935   2.134   1.745   0.675 -0.1764  0.0827  0.7547
  223SOL     OW  936   1.823   1.853   1.136  0.4083 -0.2408 -0.0391
  223SOL    HW2  937   1.747   1.909   1.152  1.3490  1.2059 -0.5426
  223SOL    HW3  938   1.897   1.900   1.175  1.4118 -0.5733 -1.4836
  223SOL    MW4  939   1.823   1.866   1.144  0.6648 -0.0937 -0.2961
  224SOL     OW  940   2.619   2.087   0.545  0.0870 -0.2591 -0.6863
  224SOL    HW2  941   2.639   2.114   0.634 -2.3544  0.2617 -0.2695
  224SOL    HW3  942   2.698   2.107   0.495  1.3652 -0.3129  1.2978
  224SOL    MW4  943   2.632   2.093   0.550 -0.0663 -0.1974 -0.3695
  225SOL     OW  944   4.069   3.610   0.505  0.1568  0.4993 -0.2923
  225SOL    HW2  945   4.088   3.524   0.542  0.1891  0.3910 -0.5602
  225SOL    HW3  946   4.072   3.669   0.580 -0.5310  0.1719  0.0025
  225SOL    MW4  947   4.072   3.606   0.520  0.0706  0.4418 -0.2887
  226SOL     OW  948   1.436   2.116   0.352 -0.4587  0.2994  0.7138
  226SOL    HW2  949   1.346   2.083   0.348 -0.9234  1.6289 -0.2423
  226SOL    HW3  950   1.432   2.193   0.409 -0.0301  0.6587  0.2683
  226SOL    MW4  951   1.424   2.122   0.359 -0.4634  0.5221  0.5289
  227SOL     OW  952   3.347   4.505   0.296  0.1908  0.2431 -0.6627
  227SOL    HW2  953   3.356   4.424   0.347 -0.2427  0.7349  0.2068
  227SOL    HW3  954   3.266   4.494   0.247 -0.8375  0.8892  0.8440
  227SOL    MW4  955   3.338   4.493   0.296 -0.0019  0.3934 -0.3492
  228SOL     OW  956   3.015   1.150   0.897  0.3778  0.2033 -0.6252
  228SOL    HW2  957   3.084   1.137   0.832  1.2658 -0.0297  0.3548
  228SOL    HW3  958   3.053   1.119   0.979 -1.2289 -0.7948 -0.2406
  228SOL    MW4  959   3.030   1.144   0.899  0.2828  0.0408 -0.4451
  229SOL     OW  960   0.615   0.160   0.790  0.1858  0.3653  0.6283
  229SOL    HW2  961   0.681   0.178   0.722  0.5820  0.6707  1.0888
  229SOL    HW3  962   0.535   0.142   0.741  1.1680 -2.4849 -0.0445
  229SOL    MW4  963   0.613   0.160   0.775  0.3677  0.0295  0.6003
  230SOL     OW  964   2.732   0.443   0.408 -0.1314 -0.4237 -0.1150
  230SOL    HW2  965   2.733   0.508   0.479 -1.2285  0.0956 -0.5563
  230SOL    HW3  966   2.643   0.407   0.411  0.4269 -1.8386  0.0471
  230SOL    MW4  967   2.720   0.447   0.418 -0.2024 -0.5419 -0.1519
  231SOL     OW  968   0.007   2.876   0.884  0.5936  0.5017 -0.0140
  231SOL    HW2  969  -0.075   2.924   0.896  0.6245  0.3946  0.6629
  231SOL    HW3  970   0.073   2.944   0.871  0.8534  0.7430  2.2075
  231SOL    MW4  971   0.005   2.891   0.884  0.6323  0.5193  0.3685
  232SOL     OW  972   1.199   3.584   0.522  0.3771  1.0021 -0.4890
  232SOL    HW2  973   1.147   3.556   0.446 -0.4292  0.3423  0.3018
  232SOL    HW3  974   1.162   3.669   0.545 -1.0170  0.1027  0.6676
  232SOL    MW4  975   1.187   3.592   0.515  0.0868  0.7961 -0.2321
  233SOL     OW  976   3.133   1.091   1.172 -0.0971  0.1707  0.1327
  233SOL    HW2  977   3.051   1.136   1.195  0.3420  0.2348  1.6397
  233SOL    HW3  978   3.202   1.152   1.196  0.4079  0.1333 -1.1756
  233SOL    MW4  979   3.131   1.105   1.178  0.0274  0.1743  0.1590
  234SOL     OW  980   3.167   3.299   0.436 -0.5807 -0.3947 -0.0211
  234SOL    HW2  981   3.097   3.353   0.472 -0.5789  0.2698 -0.9923
  234SOL    HW3  982   3.121   3.227   0.392 -0.8360  1.6599 -3.3102
  234SOL    MW4  983   3.152   3.296   0.435 -0.6144 -0.0362 -0.5832
  235SOL     OW  984   2.813   1.796   0.319  0.0011  0.4580 -0.2228
  235SOL    HW2  985   2.727   1.781   0.358  0.1572 -0.5174 -0.2235
  235SOL    HW3  986   2.867   1.726   0.355  0.4806  0.3210 -1.1885
  235SOL    MW4  987   2.809   1.784   0.329  0.0849  0.3113 -0.3503
  236SOL     OW  988   0.436   2.484   0.571  0.2498  0.0720 -0.2591
  236SOL    HW2  989   0.409   2.442   0.489  0.4910 -0.4957 -0.0488
  236SOL    HW3  990   0.417   2.577   0.558 -0.1731 -0.0869 -0.7728
  236SOL    MW4  991   0.430   2.491   0.559  0.2258 -0.0241 -0.2992
  237SOL     OW  992   4.007   4.622   0.495 -0.0950  0.5165  0.8595
  237SOL    HW2  993   4.077   4.558   0.502  0.4184  0.8293 -1.0711
  237SOL    HW3  994   4.035   4.695   0.551 -0.1924 -0.4632  2.2248
  237SOL    MW4  995   4.020   4.623   0.504 -0.0401  0.4282  0.7849
  238SOL     OW  996   2.471   1.508   0.882 -0.3499 -0.0419  0.0886
  238SOL    HW2  997   2.523   1.432   0.856 -0.8061 -0.0743 -0.7379
  238SOL    HW3  998   2.386   1.494   0.841 -0.3669  1.0389 -0.2550
  238SOL    MW4  999   2.467   1.496   0.873 -0.4125  0.0964 -0.0658
  239SOL     OW 1000   2.873   2.495   0.694 -0.3099 -0.0700 -0.4020
  239SOL    HW2 1001   2.779   2.482   0.679 -0.3757 -0.4202  0.2810
  239SOL    HW3 1002   2.878   2.526   0.784  0.3533 -1.6213  0.1086
  239SOL    MW4 1003   2.861   2.497   0.704 -0.2315 -0.3209 -0.2445
  240SOL     OW 1004   4.382   0.179   0.632  0.2041 -0.1247 -0.1881
  240SOL    HW2 1005   4.286   0.177   0.628  0.1354  0.1128  1.0915
  240SOL    HW3 1006   4.406   0.091   0.660  0.4018 -0.3748 -1.1266
  240SOL    MW4 1007   4.372   0.167   0.635  0.2213 -0.1264 -0.1432
  241SOL     OW 1008   0.943   1.927   0.901  0.5214 -0.2190  0.1033
  241SOL    HW2 1009   0.932   2.014   0.863 -0.2706 -0.1462  0.4917
  241SOL    HW3 1010   0.922   1.938   0.994 -0.8722 -1.1007 -0.0972
  241SOL    MW4 1011   0.939   1.940   0.908  0.2331 -0.3257  0.1281
  242SOL     OW 1012   0.489   4.078   0.843  0.1033  0.1541 -0.6253
  242SOL    HW2 1013   0.458   4.131   0.917 -2.0932 -1.7688 -0.0798
  242SOL    HW3 1014   0.573   4.044   0.872 -0.4161 -0.0259  0.7517
  242SOL    MW4 1015   0.496   4.080   0.857 -0.2551 -0.1235 -0.3717
  243SOL     OW 1016   1.408   1.620   0.508  0.0748 -0.2418 -0.0419
  243SOL    HW2 1017   1.320   1.659   0.507  0.4107  0.5222 -1.1496
  243SOL    HW3 1018   1.461   1.680   0.456  0.9428 -1.4443 -0.5636
  243SOL    MW4 1019   1.403   1.633   0.501  0.2337 -0.2996 -0.2568
  244SOL     OW 1020   2.726   1.350   0.553 -0.2843 -0.1287  0.2749
  244SOL    HW2 1021   2.709   1.357   0.647 -1.2746 -2.4399  0.2975
  244SOL    HW3 1022   2.649   1.389   0.512  0.0144  0.6160  0.4160
  244SOL    MW4 1023   2.714   1.356   0.560 -0.3755 -0.3352  0.2965
  245SOL     OW 1024   4.070   1.845   0.851 -0.2721 -0.1932  0.2280
  245SOL    HW2 1025   3.992   1.865   0.799  0.1428 -1.5174 -0.9430
  245SOL    HW3 1026   4.086   1.752   0.835  1.9008  0.1999 -0.0406
  245SOL    MW4 1027   4.061   1.835   0.842  0.0691 -0.3161  0.0380
  246SOL     OW 1028   3.099   2.655   0.625  0.3402 -0.0622  0.3766
  246SOL    HW2 1029   3.117   2.695   0.710  0.1927  0.3884  0.1987
  246SOL    HW3 1030   3.012   2.618   0.634  0.0812  0.5032  0.2351
  246SOL    MW4 1031   3.090   2.656   0.637  0.2863  0.0720  0.3345
  247SOL     OW 1032   0.498   0.902   1.203  0.5050 -0.2926 -0.0493
  247SOL    HW2 1033   0.564   0.837   1.180  0.7150 -0.6447  1.4924
  247SOL    HW3 1034   0.487   0.893   1.298  0.4569  1.8575  0.1698
  247SOL    MW4 1035   0.505   0.892   1.212  0.5263 -0.0554  0.1830
  248SOL     OW 1036   3.178   2.238   0.913 -0.1132 -0.0495  0.0402
  248SOL    HW2 1037   3.225   2.155   0.904 -0.3784 -0.5369  2.8299
  248SOL    HW3 1038   3.225   2.298   0.854  1.2937 -1.6642 -0.5340
  248SOL    MW4 1039   3.191   2.235   0.904  0.0374 -0.3271  0.3325
  249SOL     OW 1040   2.626   1.293   0.816 -0.4218  0.3112  0.3387
  249SOL    HW2 1041   2.598   1.218   0.869 -1.1228  2.2978  2.8460
  249SOL    HW3 1042   2.715   1.311   0.846  0.3149 -0.4324 -1.3441
  249SOL    MW4 1043   2.634   1.286   0.827 -0.4170  0.4752  0.4475
  250SOL     OW 1044   4.272   0.922   0.521 -0.1282 -0.0187 -0.2322
  250SOL    HW2 1045   4.327   0.853   0.559 -0.6056 -0.3253 -0.0862
  250SOL    HW3 1046   4.315   0.945   0.439  0.6757  0.3384  0.2773
  250SOL    MW4 1047   4.285   0.916   0.515 -0.0849 -0.0122 -0.1457
  251SOL     OW 1048   1.899   1.444   0.906  0.1868 -0.9768 -0.0466
  251SOL    HW2 1049   1.805   1.427   0.898 -0.0325  0.7071 -1.5258
  251SOL    HW3 1050   1.939   1.386   0.841  0.1798 -1.8105  0.6962
  251SOL    MW4 1051   1.892   1.434   0.896  0.1570 -0.8647 -0.1438
  252SOL     OW 1052   3.357   0.485   0.730 -0.0680 -0.3791 -0.2515
  252SOL    HW2 1053   3.353   0.436   0.648  1.6812 -0.3518 -0.3659
  252SOL    HW3 1054   3.306   0.432   0.792  0.1672 -1.3472 -0.8710
  252SOL    MW4 1055   3.350   0.471   0.728  0.1936 -0.5032 -0.3483
  253SOL     OW 1056   0.919   0.331   1.234  0.0385  0.0792  0.6870
  253SOL    HW2 1057   0.915   0.270   1.161 -1.7905  0.4456  0.4753
  253SOL    HW3 1058   0.917   0.275   1.312 -0.1413 -0.2040  0.4798
  253SOL    MW4 1059   0.918   0.315   1.235 -0.2264  0.0902  0.6319
  254SOL     OW 1060   2.784   4.544   1.070  0.5063  0.0458 -0.5510
  254SOL    HW2 1061   2.739   4.601   1.131  1.3938 -0.3133  0.4505
  254SOL    HW3 1062   2.715   4.511   1.012 -0.1305  1.4578 -0.6116
  254SOL    MW4 1063   2.769   4.547   1.070  0.5393  0.1850 -0.4270
  255SOL     OW 1064   1.664   4.363   0.391 -0.3731 -0.0095 -0.3455
  255SOL    HW2 1065   1.572   4.359   0.415  0.1520 -2.1568  1.4459
  255SOL    HW3 1066   1.682   4.280   0.347  0.7657  0.3355 -0.5689
  255SOL    MW4 1067   1.654   4.352   0.388 -0.1535 -0.2475 -0.1386
  256SOL     OW 1068   2.297   1.371   0.479 -0.0721 -0.4119  0.6899
  256SOL    HW2 1069   2.358   1.432   0.437  0.2115 -0.7540  0.6007
  256SOL    HW3 1070   2.349   1.292   0.495 -0.4524 -0.6523  0.7490
  256SOL    MW4 1071   2.311   1.369   0.475 -0.0849 -0.4886  0.6859
  257SOL     OW 1072   0.435   3.136   0.751  0.0976  0.4033 -0.1678
  257SOL    HW2 1073   0.409   3.081   0.676  1.6949 -0.1655 -0.3081
  257SOL    HW3 1074   0.494   3.081   0.802  0.0078  1.2423  0.8549
  257SOL    MW4 1075   0.439   3.121   0.747  0.2964  0.4389 -0.0514
  258SOL     OW 1076   0.721   1.573   0.637 -0.0067 -0.1265 -0.0194
  258SOL    HW2 1077   0.764   1.491   0.664  1.5210  0.3470 -0.9163
  258SOL    HW3 1078   0.793   1.628   0.607 -1.0119  1.6197  0.7308
  258SOL    MW4 1079   0.736   1.569   0.636  0.0622  0.1664 -0.0388
  259SOL     OW 1080   1.893   0.041   0.853  0.2792  0.0764  0.4252
  259SOL    HW2 1081   1.917   0.130   0.878 -1.5541  0.8301 -0.3870
  259SOL    HW3 1082   1.937  -0.015   0.917  1.7117  1.5348  0.7525
  259SOL    MW4 1083   1.902   0.045   0.865  0.2264  0.3682  0.3611
  260SOL     OW 1084   2.016   3.111   1.100  0.0489  0.0312  0.1670
  260SOL    HW2 1085   2.001   3.032   1.152  0.5460  0.1689  0.5169
  260SOL    HW3 1086   1.952   3.174   1.132 -0.5752 -0.3365 -0.3429
  260SOL    MW4 1087   2.006   3.108   1.111  0.0322  0.0005  0.1459
  261SOL     OW 1088   0.907   3.487   1.122  0.2968 -0.3191 -0.0332
  261SOL    HW2 1089   0.851   3.546   1.173 -0.4296  0.0642 -1.2459
  261SOL    HW3 1090   0.876   3.497   1.032  1.3822 -1.1890 -0.5120
  261SOL    MW4 1091   0.896   3.496   1.117  0.3442 -0.3834 -0.2564
  262SOL     OW 1092   0.667   1.560   1.112 -0.0304 -0.0791 -0.3214
  262SOL    HW2 1093   0.594   1.610   1.148  0.3330  0.7595 -0.7283
  262SOL    HW3 1094   0.687   1.603   1.029  0.4216 -0.7802 -0.5825
  262SOL    MW4 1095   0.660   1.572   1.106  0.0772 -0.0609 -0.4096
  263SOL     OW 1096   0.242   1.547   1.137  0.0723 -0.0373 -0.5028
  263SOL    HW2 1097   0.277   1.535   1.049  0.2498  1.1043 -0.6013
  263SOL    HW3 1098   0.312   1.593   1.184 -0.1188 -0.4258  0.1629
  263SOL    MW4 1099   0.256   1.552   1.131  0.0705  0.0620 -0.4280
  264SOL     OW 1100   3.334   0.734   1.117  0.1304  0.3211 -0.1897
  264SOL    HW2 1101   3.266   0.776   1.169 -0.7638 -0.9816 -0.3061
  264SOL    HW3 1102   3.324   0.641   1.133  0.0451 -0.0829 -2.4334
  264SOL    MW4 1103   3.324   0.728   1.126  0.0012  0.0959 -0.5012
  265SOL     OW 1104   1.203   1.787   0.506 -0.1658  0.0533  0.0203
  265SOL    HW2 1105   1.205   1.830   0.592  2.4425 -0.0945  0.0614
  265SOL    HW3 1106   1.192   1.858   0.443  0.1901  0.3878  0.3371
  265SOL    MW4 1107   1.202   1.802   0.509  0.2253  0.0780  0.0675
  266SOL     OW 1108   1.833   0.528   0.741  0.1957  0.2964  0.3321
  266SOL    HW2 1109   1.802   0.531   0.651 -0.1314  0.4094  0.4466
  266SOL    HW3 1110   1.923   0.559   0.737  0.1361  0.4327  0.0627
  266SOL    MW4 1111   1.841   0.533   0.729  0.1447  0.3293  0.3116
  267SOL     OW 1112   1.782   4.644   0.384  0.2626  0.1812 -0.0787
  267SOL    HW2 1113   1.752   4.570   0.330 -0.9107  1.1381 -0.7639
  267SOL    HW3 1114   1.703   4.697   0.398  1.0519  1.2069  0.5678
  267SOL    MW4 1115   1.768   4.641   0.379  0.2118  0.4425 -0.0838
  268SOL     OW 1116   0.920   4.094   1.283  0.2300  0.2073  0.0307
  268SOL    HW2 1117   0.980   4.039   1.232  1.1491  0.1319  1.1828
  268SOL    HW3 1118   0.937   4.070   1.374 -0.5582  1.2060  0.4484
  268SOL    MW4 1119   0.930   4.083   1.288  0.2472  0.3290  0.2378
  269SOL     OW 1120   3.093   1.348   0.483 -0.1133 -0.0201 -0.0677
  269SOL    HW2 1121   3.047   1.278   0.435 -0.5077 -0.1820  0.5368
  269SOL    HW3 1122   3.169   1.368   0.429  0.6840 -1.7811  0.3603
  269SOL    MW4 1123   3.097   1.341   0.470 -0.0601 -0.2739  0.0685
  270SOL     OW 1124   2.751   3.193   1.246  0.0385  0.2147 -0.5262
  270SOL    HW2 1125   2.809   3.149   1.183  0.8112  1.1414 -0.4507
  270SOL    HW3 1126   2.749   3.284   1.218  0.7363  0.7250  1.0774
  270SOL    MW4 1127   2.758   3.199   1.234  0.2322  0.4044 -0.3047
  271SOL     OW 1128   2.028   2.013   1.266 -0.0532 -0.3227 -0.0254
  271SOL    HW2 1129   2.026   2.105   1.242 -0.3749 -0.2010  0.4741
  271SOL    HW3 1130   2.015   2.012   1.361 -0.3428 -0.8941 -0.0683
  271SOL    MW4 1131   2.026   2.025   1.275 -0.1340 -0.3822  0.0349
  272SOL     OW 1132   2.753   1.898   0.897 -0.2292  0.5046 -0.3047
  272SOL    HW2 1133   2.669   1.860   0.872  0.0155 -0.3281  0.1426
  272SOL    HW3 1134   2.744   1.918   0.990 -0.2479  1.2571 -0.4651
  272SOL    MW4 1135   2.741   1.896   0.906 -0.1993  0.4939 -0.2668
  273SOL     OW 1136   0.728   3.906   1.198  0.0341  0.0110  0.5259
  273SOL    HW2 1137   0.790   3.970   1.234  1.0718 -1.2044  0.9354
  273SOL    HW3 1138   0.642   3.946   1.211  0.5824  0.7564  1.9683
  273SOL    MW4 1139   0.725   3.920   1.205  0.2433 -0.0508  0.7702
  274SOL     OW 1140   0.376   3.733   0.722 -0.2962  0.5209 -0.3732
  274SOL    HW2 1141   0.376   3.782   0.640 -3.1548  1.4310  0.1162
  274SOL    HW3 1142   0.330   3.651   0.701 -0.9571  0.7186  0.2778
  274SOL    MW4 1143   0.370   3.728   0.708 -0.7605  0.6671 -0.2227
  275SOL     OW 1144   0.926   0.539   0.774 -0.1692  0.1458 -0.1245
  275SOL    HW2 1145   0.944   0.556   0.682  1.6109  0.9427  0.3593
  275SOL    HW3 1146   0.942   0.445   0.784  0.1675  0.1653 -0.4884
  275SOL    MW4 1147   0.930   0.528   0.763  0.1101  0.2536 -0.1087
  276SOL     OW 1148   2.876   3.111   0.839  0.3686  0.3660 -0.5615
  276SOL    HW2 1149   2.943   3.078   0.778  1.1789 -0.8985  0.9841
  276SOL    HW3 1150   2.888   3.206   0.839  1.3371  0.2516 -1.2524
  276SOL    MW4 1151   2.886   3.119   0.831  0.6032  0.1841 -0.4488
  277SOL     OW 1152   0.743   3.323   0.292 -0.0530  0.0238  0.1717
  277SOL    HW2 1153   0.735   3.391   0.225  0.5636  0.0981  0.1773
  277SOL    HW3 1154   0.709   3.364   0.372 -0.4977  0.0353 -0.0186
  277SOL    MW4 1155   0.737   3.338   0.294 -0.0302  0.0348  0.1473
  278SOL     OW 1156   0.705   2.050   0.600 -0.0697  0.2039 -0.2784
  278SOL    HW2 1157   0.618   2.022   0.630 -0.5885  2.3439  0.2863
  278SOL    HW3 1158   0.689   2.128   0.548  1.4118 -0.1329 -1.2605
  278SOL    MW4 1159   0.692   2.056   0.597  0.0573  0.4418 -0.3335
  279SOL     OW 1160   1.765   0.250   1.149 -0.4477  0.2222 -0.1731
  279SOL    HW2 1161   1.742   0.337   1.184 -0.4539 -0.0256  0.4520
  279SOL    HW3 1162   1.799   0.268   1.062  0.5014  0.9503  0.3318
  279SOL    MW4 1163   1.766   0.264   1.142 -0.3233  0.2855 -0.0238
  280SOL     OW 1164   1.593   1.753   0.348  0.4641  0.2819  0.4836
  280SOL    HW2 1165   1.627   1.833   0.389  2.8743 -0.0908 -0.6624
  280SOL    HW3 1166   1.591   1.774   0.254 -1.9172  0.0455  0.4672
  280SOL    MW4 1167   1.597   1.766   0.341  0.4680  0.2016  0.3303
  281SOL     OW 1168   2.264   0.155   0.454 -0.0167  0.1177 -0.2416
  281SOL    HW2 1169   2.260   0.066   0.491  0.7815  0.7221  1.3285
  281SOL    HW3 1170   2.178   0.169   0.415 -0.8569 -0.5539  1.3501
  281SOL    MW4 1171   2.252   0.145   0.453 -0.0222  0.1088  0.1756
  282SOL     OW 1172   4.050   2.748   1.208  0.3078  0.2904  0.1738
  282SOL    HW2 1173   3.968   2.785   1.241  0.2945 -0.3339  0.8312
  282SOL    HW3 1174   4.057   2.663   1.250  0.8150 -0.0711 -0.6276
  282SOL    MW4 1175   4.040   2.742   1.218  0.3734  0.1605  0.1549
  283SOL     OW 1176   2.157   3.843   0.344 -0.3809  0.3253  0.0507
  283SOL    HW2 1177   2.188   3.789   0.417 -0.9707  0.0057  0.0615
  283SOL    HW3 1178   2.236   3.859   0.292 -0.3611 -1.2809 -0.4431
  283SOL    MW4 1179   2.172   3.838   0.347 -0.4559  0.0713 -0.0130
  284SOL     OW 1180   2.304   0.379   1.093  0.7088  0.5422 -0.3331
  284SOL    HW2 1181   2.356   0.414   1.165  0.4687  1.8901 -0.8053
  284SOL    HW3 1182   2.236   0.445   1.078  0.2008 -0.1627 -1.1818
  284SOL    MW4 1183   2.302   0.392   1.101  0.6101  0.6270 -0.5074
  285SOL     OW 1184   3.760   3.237   0.746  0.0971 -0.4265  0.4122
  285SOL    HW2 1185   3.779   3.258   0.654 -0.6333 -0.8888  0.1489
  285SOL    HW3 1186   3.838   3.194   0.778  0.0916 -0.8868 -0.1965
  285SOL    MW4 1187   3.773   3.234   0.738  0.0002 -0.5481  0.2971
  286SOL     OW 1188   4.386   1.615   0.450  0.5968 -0.3956 -0.3668
  286SOL    HW2 1189   4.480   1.619   0.433  0.3311 -1.7867 -2.3536
  286SOL    HW3 1190   4.376   1.544   0.514  1.1152  1.5721  2.0029
  286SOL    MW4 1191   4.397   1.606   0.456  0.6294 -0.3195 -0.3163
  287SOL     OW 1192   4.287   4.469   0.917  0.0923 -0.6019 -0.1445
  287SOL    HW2 1193   4.280   4.545   0.975  0.8563  0.6103 -1.5885
  287SOL    HW3 1194   4.196   4.445   0.899 -0.1932  0.6610 -0.5102
  287SOL    MW4 1195   4.274   4.476   0.922  0.1550 -0.2751 -0.3833
  288SOL     OW 1196   1.420   0.882   0.348  0.3566  0.4893 -0.0877
  288SOL    HW2 1197   1.350   0.936   0.385  0.1928 -0.3462  0.8383
  288SOL    HW3 1198   1.501   0.921   0.379  0.2846  1.0332 -0.5758
  288SOL    MW4 1199   1.421   0.894   0.357  0.3256  0.4508 -0.0300
  289SOL     OW 1200   3.306   1.389   0.230 -0.1331 -0.1519  0.9497
  289SOL    HW2 1201   3.277   1.441   0.155 -0.8125 -0.8778  0.7007
  289SOL    HW3 1202   3.325   1.453   0.298 -0.8589  0.4253  0.6083
  289SOL    MW4 1203   3.305   1.404   0.229 -0.3185 -0.1714  0.8718
  290SOL     OW 1204   0.707   2.853   1.261 -0.2413 -0.0848 -0.1783
  290SOL    HW2 1205   0.785   2.805   1.232 -0.5077 -2.2511  2.5281
  290SOL    HW3 1206   0.634   2.809   1.218 -0.2939 -0.7480  0.5688
  290SOL    MW4 1207   0.708   2.841   1.251 -0.2834 -0.4582  0.2774
  291SOL     OW 1208   3.251   0.334   0.520  0.2316 -0.3054 -0.4605
  291SOL    HW2 1209   3.167   0.358   0.481  0.2486  1.8357  0.7361
  291SOL    HW3 1210   3.253   0.239   0.515 -2.6462 -0.4545  0.2377
  291SOL    MW4 1211   3.240   0.325   0.514 -0.1459 -0.0426 -0.2106
  292SOL     OW 1212   3.605   0.529   0.385  0.1944  0.2194  0.6856
  292SOL    HW2 1213   3.667   0.600   0.367 -0.3633  0.4859 -0.2421
  292SOL    HW3 1214   3.523   0.574   0.403 -0.2640 -0.2055 -0.3389
  292SOL    MW4 1215   3.603   0.545   0.385  0.0601  0.1985  0.4281
  293SOL     OW 1216   2.964   4.443   1.265 -0.2923 -0.0287  0.1087
  293SOL    HW2 1217   2.896   4.461   1.200 -0.2976  0.4683  0.2552
  293SOL    HW3 1218   3.014   4.524   1.272  0.3414 -0.4016 -0.0228
  293SOL    MW4 1219   2.962   4.456   1.258 -0.2093 -0.0124  0.1106
  294SOL     OW 1220   4.302   3.161   0.652  0.2394 -0.1052  0.4111
  294SOL    HW2 1221   4.293   3.122   0.739  0.5333  0.8104  0.8491
  294SOL    HW3 1222   4.290   3.087   0.592 -1.8830 -0.4132  1.1678
  294SOL    MW4 1223   4.299   3.146   0.656 -0.0019 -0.0253  0.5688
  295SOL     OW 1224   1.705   4.084   0.332  0.5882 -0.5737 -0.0485
  295SOL    HW2 1225   1.649   4.073   0.408 -0.2984  1.0250 -0.4415
  295SOL    HW3 1226   1.789   4.047   0.358  0.3762  0.2068  1.8063
  295SOL    MW4 1227   1.709   4.077   0.345  0.4433 -0.2594  0.1444
  296SOL     OW 1228   3.735   1.582   0.880 -0.2864  0.2468  0.8341
  296SOL    HW2 1229   3.807   1.525   0.853  1.1554  2.7671 -0.8343
  296SOL    HW3 1230   3.753   1.601   0.972  0.2369 -0.5108  0.8899
  296SOL    MW4 1231   3.747   1.577   0.889 -0.0274  0.4795  0.6213
  297SOL     OW 1232   3.992   4.023   0.518 -0.0071  0.2235 -0.2417
  297SOL    HW2 1233   3.922   4.083   0.548 -0.9413 -0.1242 -1.6835
  297SOL    HW3 1234   3.948   3.964   0.457  1.8953  1.0183 -2.4396
  297SOL    MW4 1235   3.977   4.023   0.514  0.1209  0.2828 -0.7219
  298SOL     OW 1236   1.130   2.991   0.681  0.6026  0.2103 -0.3236
  298SOL    HW2 1237   1.132   3.061   0.746  0.6859  0.5127 -0.6495
  298SOL    HW3 1238   1.166   2.915   0.727 -0.2746  0.1629  0.2800
  298SOL    MW4 1239   1.135   2.991   0.695  0.4979  0.2439 -0.2870
  299SOL     OW 1240   1.949   4.569   0.603 -0.7191  0.0005  0.0653
  299SOL    HW2 1241   1.872   4.574   0.546  0.1819  1.8506 -1.0178
  299SOL    HW3 1242   1.930   4.631   0.674 -0.2889  0.3625 -0.1335
  299SOL    MW4 1243   1.936   4.578   0.605 -0.5434  0.2918 -0.1039
  300SOL     OW 1244   0.526   2.786   0.832  0.0784 -0.5156  0.3550
  300SOL    HW2 1245   0.510   2.762   0.924 -1.4947 -0.7202  0.0505
  300SOL    HW3 1246   0.452   2.749   0.785  0.5697  0.1033 -0.9230
  300SOL    MW4 1247   0.514   2.778   0.838 -0.0644 -0.4611  0.1463
  301SOL     OW 1248   4.158   2.215   0.662 -0.1039  0.0339  0.5584
  301SOL    HW2 1249   4.222   2.151   0.692  1.4045  1.2991  0.0944
  301SOL    HW3 1250   4.168   2.217   0.567  0.6173  1.7327  0.6631
  301SOL    MW4 1251   4.168   2.207   0.653  0.1907  0.4249  0.5110
  302SOL     OW 1252   0.194   3.935   0.434  0.2674 -0.2448 -0.0422
  302SOL    HW2 1253   0.154   3.850   0.455  1.2626 -0.3947  1.2811
  302SOL    HW3 1254   0.194   3.982   0.517 -1.0386  1.3799 -0.9515
  302SOL    MW4 1255   0.189   3.930   0.447  0.2264 -0.0501  0.0124
  303SOL     OW 1256   3.625   3.464   0.845 -0.4656  0.2642  0.3616
  303SOL    HW2 1257   3.559   3.466   0.775  0.3915  0.8633 -0.4464
  303SOL    HW3 1258   3.687   3.397   0.817 -0.9886 -0.6596  1.3738
  303SOL    MW4 1259   3.624   3.455   0.832 -0.4218  0.2213  0.3886
  304SOL     OW 1260   2.136   2.076   0.388 -0.3183  0.5018  0.6672
  304SOL    HW2 1261   2.122   2.107   0.299  0.6871 -0.3204  0.2084
  304SOL    HW3 1262   2.057   2.101   0.435 -0.7846  1.0889 -0.4136
  304SOL    MW4 1263   2.124   2.083   0.383 -0.2472  0.4706  0.4641
  305SOL     OW 1264   2.147   2.551   0.705  0.4320 -0.3456 -0.7790
  305SOL    HW2 1265   2.104   2.637   0.703  0.0797 -0.4846  0.5023
  305SOL    HW3 1266   2.193   2.546   0.622  1.2890  1.5228 -0.4489
  305SOL    MW4 1267   2.148   2.562   0.694  0.4985 -0.1173 -0.5664
  306SOL     OW 1268   0.179   1.652   0.490  0.3256 -0.0732  0.5231
  306SOL    HW2 1269   0.274   1.652   0.479  0.2466 -0.4164 -0.1062
  306SOL    HW3 1270   0.159   1.743   0.513  0.6407  0.3186 -0.7225
  306SOL    MW4 1271   0.189   1.664   0.492  0.3568 -0.0666  0.2757
  307SOL     OW 1272   0.728   3.470   0.528 -1.2634  0.1165 -0.1068
  307SOL    HW2 1273   0.643   3.453   0.568 -1.5331 -0.3484 -0.8795
  307SOL    HW3 1274   0.786   3.404   0.566 -1.4874 -0.2367 -0.3783
  307SOL    MW4 1275   0.724   3.459   0.539 -1.3286  0.0083 -0.2445
  308SOL     OW 1276   0.731   2.248   0.406 -0.0176 -0.4768 -0.0466
  308SOL    HW2 1277   0.685   2.233   0.323 -0.8795 -0.9867  0.5177
  308SOL    HW3 1278   0.712   2.339   0.427  0.2233 -0.3370 -0.4123
  308SOL    MW4 1279   0.722   2.258   0.397 -0.0995 -0.5257 -0.0204
  309SOL     OW 1280   3.688   2.767   0.829  0.2618 -0.1387 -0.2623
  309SOL    HW2 1281   3.703   2.776   0.923  0.1892  2.2255 -0.4491
  309SOL    HW3 1282   3.706   2.675   0.811  1.9711 -0.2467  1.7542
  309SOL    MW4 1283   3.692   2.756   0.839  0.4778  0.1588 -0.0208
  310SOL     OW 1284   0.991   3.823   0.879 -0.2033 -0.4431 -0.2482
  310SOL    HW2 1285   0.915   3.881   0.866  1.3901  1.8417  0.2776
  310SOL    HW3 1286   1.052   3.849   0.810  0.1782 -2.1558 -0.5591
  310SOL    MW4 1287   0.989   3.834   0.868  0.0573 -0.3679 -0.2199
  311SOL     OW 1288   3.887   1.916   0.641 -0.7275  0.3837  0.0608
  311SOL    HW2 1289   3.879   2.010   0.621 -1.9106  0.4774  0.9124
  311SOL    HW3 1290   3.929   1.879   0.563 -1.5037  1.3953 -0.8652
  311SOL    MW4 1291   3.891   1.924   0.628 -0.9863  0.5296  0.0509
  312SOL     OW 1292   0.328   1.216   0.723 -0.0962  0.0197  0.3589
  312SOL    HW2 1293   0.393   1.213   0.654  0.9425  0.5099  1.3022
  312SOL    HW3 1294   0.257   1.270   0.687  0.9242  1.2042  0.0740
  312SOL    MW4 1295   0.327   1.223   0.709  0.1755  0.2407  0.4458
  313SOL     OW 1296   2.737   3.609   0.482 -0.0747  0.0837  0.0032
  313SOL    HW2 1297   2.654   3.598   0.529  0.3289  0.8418  0.9092
  313SOL    HW3 1298   2.723   3.686   0.427  0.0325  0.2180  0.1643
  313SOL    MW4 1299   2.724   3.617   0.481 -0.0074  0.2015  0.1440
  314SOL     OW 1300   3.936   2.525   0.542 -0.0430  0.3812  0.0668
  314SOL    HW2 1301   3.874   2.508   0.613 -0.8390  1.8868 -0.2270
  314SOL    HW3 1302   3.897   2.599   0.495  0.8096 -0.1846 -1.5371
  314SOL    MW4 1303   3.923   2.533   0.545 -0.0353  0.5052 -0.1836
  315SOL     OW 1304   0.992   0.741   0.304 -0.2206 -0.0091 -0.2814
  315SOL    HW2 1305   1.010   0.755   0.211  0.8829 -1.2711 -0.2645
  315SOL    HW3 1306   1.033   0.815   0.348  1.5223 -0.7901 -0.5830
  315SOL    MW4 1307   1.000   0.753   0.298  0.1550 -0.2787 -0.3190
  316SOL     OW 1308   0.047   2.611   0.458 -0.8014  0.8229 -0.5240
  316SOL    HW2 1309   0.040   2.703   0.436 -0.5893  1.0191  0.1979
  316SOL    HW3 1310   0.036   2.608   0.553 -2.8380 -0.1124 -0.7631
  316SOL    MW4 1311   0.045   2.623   0.468 -1.0421  0.7255 -0.4603
  317SOL     OW 1312   3.378   3.904   0.471 -0.4144 -0.1317 -0.0250
  317SOL    HW2 1313   3.304   3.960   0.492 -1.0802 -1.1501  0.4011
  317SOL    HW3 1314   3.338   3.823   0.437  0.4530 -1.0756  1.1411
  317SOL    MW4 1315   3.363   3.900   0.469 -0.3879 -0.3905  0.1851
  318SOL     OW 1316   3.162   1.919   1.049 -0.2556 -0.1252 -0.2123
  318SOL    HW2 1317   3.088   1.947   1.103  0.8378 -1.2465  1.9262
  318SOL    HW3 1318   3.239   1.957   1.093  0.5374  0.1154 -1.7837
  318SOL    MW4 1319   3.163   1.928   1.062 -0.0067 -0.2414 -0.1376
  319SOL     OW 1320   2.876   1.384   0.886 -0.5568  0.2082 -0.1748
  319SOL    HW2 1321   2.928   1.441   0.829 -0.8086  1.3763  0.7501
  319SOL    HW3 1322   2.928   1.304   0.895 -0.7784 -0.2343 -2.5023
  319SOL    MW4 1323   2.889   1.381   0.880 -0.6192  0.3040 -0.3598
  320SOL     OW 1324   3.732   3.691   0.716 -0.0559 -0.2124 -0.1537
  320SOL    HW2 1325   3.656   3.749   0.713  0.3359  0.3360  0.3342
  320SOL    HW3 1326   3.705   3.617   0.771 -0.3499 -0.1839 -0.2614
  320SOL    MW4 1327   3.719   3.689   0.723 -0.0432 -0.1361 -0.1035
  321SOL     OW 1328   4.343   2.443   0.684  0.2805 -0.6879  0.4083
  321SOL    HW2 1329   4.263   2.391   0.689 -0.7670  0.8595  0.0684
  321SOL    HW3 1330   4.315   2.526   0.646  2.1628 -0.3435 -0.2563
  321SOL    MW4 1331   4.329   2.447   0.680  0.3905 -0.4382  0.2758
  322SOL     OW 1332   3.274   3.897   0.893  0.1974  0.1606  0.5654
  322SOL    HW2 1333   3.308   3.894   0.983  1.4288  1.1377  0.1571
  322SOL    HW3 1334   3.264   3.990   0.875 -0.7133 -0.0608 -0.0692
  322SOL    MW4 1335   3.277   3.909   0.903  0.2396  0.2604  0.4278
  323SOL     OW 1336   0.527   1.226   0.543  0.0275 -0.0305  0.0639
  323SOL    HW2 1337   0.564   1.309   0.512 -1.5037  0.9555  0.8228
  323SOL    HW3 1338   0.603   1.171   0.560  1.0213  0.7096 -1.8245
  323SOL    MW4 1339   0.542   1.230   0.541 -0.0435  0.1973 -0.0851
  324SOL     OW 1340   3.261   2.440   0.743  0.5097 -0.3006 -0.0762
  324SOL    HW2 1341   3.203   2.498   0.693  0.1422  0.2229  0.9365
  324SOL    HW3 1342   3.349   2.469   0.720  0.3235  0.8449  0.6078
  324SOL    MW4 1343   3.265   2.452   0.734  0.4365 -0.0803  0.1476
  325SOL     OW 1344   2.631   3.365   0.892 -0.3324  0.2815  0.4127
  325SOL    HW2 1345   2.616   3.271   0.885 -2.1442  0.4889  1.2114
  325SOL    HW3 1346   2.713   3.380   0.844  0.2046 -1.7468  0.6329
  325SOL    MW4 1347   2.640   3.354   0.885 -0.5004  0.0415  0.5472
  326SOL     OW 1348   3.816   0.998   0.769 -0.2738 -0.5334 -0.2555
  326SOL    HW2 1349   3.808   1.013   0.675 -1.9798 -2.6443 -0.4701
  326SOL    HW3 1350   3.728   1.012   0.803  0.1113 -0.8179  0.8649
  326SOL    MW4 1351   3.804   1.002   0.761 -0.4482 -0.8492 -0.1360
  327SOL     OW 1352   0.704   3.071   0.846 -0.2442 -0.1965 -0.4029
  327SOL    HW2 1353   0.711   3.056   0.940 -0.0633  0.0456 -0.3751
  327SOL    HW3 1354   0.731   2.989   0.806 -2.6015 -1.0791 -0.2097
  327SOL    MW4 1355   0.709   3.058   0.853 -0.5313 -0.2809 -0.3738
  328SOL     OW 1356   2.860   2.313   1.138  0.5412  0.0490  0.2797
  328SOL    HW2 1357   2.942   2.341   1.179  0.4717 -0.5426  0.8129
  328SOL    HW3 1358   2.793   2.365   1.181  0.3614 -1.2357  1.5885
  328SOL    MW4 1359   2.862   2.324   1.149  0.5083 -0.1984  0.5227
  329SOL     OW 1360   0.682   2.514   0.480  0.0934  0.8438 -0.9533
  329SOL    HW2 1361   0.596   2.487   0.512  0.7506 -1.8402 -1.2560
  329SOL    HW3 1362   0.664   2.575   0.409 -1.5278  1.1188 -0.3147
  329SOL    MW4 1363   0.668   2.518   0.475 -0.0337  0.5257 -0.9090
  330SOL     OW 1364   0.755   1.053   0.660 -0.0031  0.3891 -0.0999
  330SOL    HW2 1365   0.681   1.001   0.691 -1.4647  1.0707 -2.3355
  330SOL    HW3 1366   0.831   0.998   0.676 -0.9506 -0.3329  2.2236
  330SOL    MW4 1367   0.755   1.039   0.667 -0.3209  0.3837 -0.0883
  331SOL     OW 1368   0.723   3.742   0.425 -0.1517 -0.0576  0.3854
  331SOL    HW2 1369   0.753   3.677   0.489  1.0282  0.1689  0.0671
  331SOL    HW3 1370   0.657   3.793   0.472  0.7812  0.1743  1.4623
  331SOL    MW4 1371   0.719   3.740   0.440  0.1271  0.0026  0.4855
  332SOL     OW 1372   3.585   1.063   0.894  0.0698  0.0616  0.1713
  332SOL    HW2 1373   3.530   0.985   0.887 -0.3551  0.4480 -0.9727
  332SOL    HW3 1374   3.586   1.084   0.987 -1.2671 -0.2811  0.2758
  332SOL    MW4 1375   3.578   1.056   0.905 -0.1628  0.0672  0.0342
  333SOL     OW 1376   3.790   4.196   0.540 -0.3694 -0.0729  0.2421
  333SOL    HW2 1377   3.783   4.291   0.551 -2.4794 -0.2481  0.5906
  333SOL    HW3 1378   3.734   4.177   0.465 -0.7130 -1.1460  0.7664
  333SOL    MW4 1379   3.781   4.206   0.532 -0.6931 -0.2375  0.3572
  334SOL     OW 1380   0.233   4.435   0.649 -0.0141  0.0420  0.0070
  334SOL    HW2 1381   0.238   4.519   0.695  1.2084  0.1582 -0.3119
  334SOL    HW3 1382   0.148   4.398   0.675 -0.7793  1.5825 -0.1986
  334SOL    MW4 1383   0.222   4.441   0.658  0.0462  0.2604 -0.0622
  335SOL     OW 1384   3.144   4.289   1.148  0.2871  0.6326 -0.3220
  335SOL    HW2 1385   3.110   4.262   1.062 -0.8238  0.3732  0.1953
  335SOL    HW3 1386   3.082   4.355   1.178  0.7033  0.7526  0.2683
  335SOL    MW4 1387   3.131   4.294   1.140  0.1953  0.6146 -0.1758
  336SOL     OW 1388   0.503   3.247   1.228 -0.2567 -0.1738  0.1814
  336SOL    HW2 1389   0.501   3.337   1.194 -2.0789 -0.4590 -0.5458
  336SOL    HW3 1390   0.574   3.205   1.180  0.0609  0.6450 -0.0863
  336SOL    MW4 1391   0.512   3.254   1.217 -0.4553 -0.1035  0.0502
  337SOL     OW 1392   2.571   0.863   0.465 -0.3521  0.2128  0.3598
  337SOL    HW2 1393   2.630   0.937   0.450  0.7933 -1.0517 -1.5461
  337SOL    HW3 1394   2.628   0.794   0.501 -0.7936 -0.7564 -0.7623
  337SOL    MW4 1395   2.586   0.864   0.468 -0.2594 -0.0819 -0.0397
  338SOL     OW 1396   2.113   0.980   0.776 -0.4967  0.0455  0.2626
  338SOL    HW2 1397   2.117   0.976   0.680 -0.7059  1.5755  0.1799
  338SOL    HW3 1398   2.155   1.062   0.798  0.1960 -0.6476  1.5426
  338SOL    MW4 1399   2.119   0.990   0.766 -0.4330  0.1560  0.4206
  339SOL     OW 1400   2.115   0.979   0.514  0.4877  0.3368  0.0243
  339SOL    HW2 1401   2.090   1.062   0.475  0.1723  0.1465 -0.1865
  339SOL    HW3 1402   2.039   0.922   0.500  0.5188  0.1522  0.5747
  339SOL    MW4 1403   2.102   0.982   0.507  0.4501  0.2874  0.0690
  340SOL     OW 1404   3.961   3.084   0.848  0.4968 -0.3582  0.3336
  340SOL    HW2 1405   3.943   3.002   0.802 -0.9854  0.9008 -1.4075
  340SOL    HW3 1406   4.054   3.100   0.832  0.3075 -0.6255 -1.0883
  340SOL    MW4 1407   3.971   3.075   0.840  0.2761 -0.2277 -0.0836
  341SOL     OW 1408   2.891   4.416   0.434 -0.1644 -0.2861 -0.0049
  341SOL    HW2 1409   2.798   4.418   0.413 -0.2480 -0.9481  0.2988
  341SOL    HW3 1410   2.920   4.507   0.422 -0.8125 -0.1050 -0.2371
  341SOL    MW4 1411   2.883   4.428   0.429 -0.2606 -0.3500  0.0045
  342SOL     OW 1412   2.009   1.223   1.261 -0.4014 -0.3241  0.1242
  342SOL    HW2 1413   2.083   1.196   1.207 -0.2308  0.5335 -0.0783
  342SOL    HW3 1414   1.983   1.308   1.226 -0.4065  0.1522  1.2583
  342SOL    MW4 1415   2.015   1.230   1.250 -0.3798 -0.1482  0.2470
  343SOL     OW 1416   1.655   1.989   0.488 -0.0987 -0.0956 -0.2406
  343SOL    HW2 1417   1.603   1.964   0.564  0.4475  1.1568  0.5664
  343SOL    HW3 1418   1.594   2.036   0.431 -0.0352  0.7300  0.3640
  343SOL    MW4 1419   1.640   1.992   0.490 -0.0181  0.1786 -0.0543
  344SOL     OW 1420   4.438   4.527   0.397  0.1059 -1.0664  0.0202
  344SOL    HW2 1421   4.463   4.609   0.353  0.1485 -0.6793  0.7526
  344SOL    HW3 1422   4.516   4.472   0.392  0.5355 -0.5380  0.7245
  344SOL    MW4 1423   4.452   4.531   0.391  0.1683 -0.9460  0.2097
  345SOL     OW 1424   0.514   3.405   0.666 -0.7076 -0.8434  0.5158
  345SOL    HW2 1425   0.503   3.312   0.681  4.8289 -1.7598  0.0039
  345SOL    HW3 1426   0.544   3.440   0.750  1.1897 -0.3572 -0.3232
  345SOL    MW4 1427   0.517   3.398   0.679  0.2733 -0.9003  0.3376
  346SOL     OW 1428   1.185   2.013   0.318  0.4565  0.7414 -0.2263
  346SOL    HW2 1429   1.127   2.063   0.376  1.3527  1.8008 -0.2361
  346SOL    HW3 1430   1.130   1.990   0.243  0.2456  2.4098 -0.6040
  346SOL    MW4 1431   1.170   2.016   0.316  0.5471  1.1013 -0.2775
  347SOL     OW 1432   1.046   0.563   0.484 -0.0668  0.3160 -0.5631
  347SOL    HW2 1433   1.020   0.483   0.439  0.9138 -0.1830 -0.2492
  347SOL    HW3 1434   1.022   0.634   0.424  0.3893 -0.2911 -1.4629
  347SOL    MW4 1435   1.039   0.562   0.470  0.1228  0.1700 -0.6405
  348SOL     OW 1436   1.909   0.315   0.936  0.9011  0.0802  0.1091
  348SOL    HW2 1437   1.956   0.386   0.980 -0.4827  0.7279  0.5542
  348SOL    HW3 1438   1.870   0.355   0.859 -0.1429 -0.1086  0.5258
  348SOL    MW4 1439   1.910   0.329   0.932  0.5808  0.1408  0.2228
  349SOL     OW 1440   0.666   0.602   0.885 -0.2152 -0.7752 -0.1256
  349SOL    HW2 1441   0.752   0.578   0.850  0.1791  1.2603 -0.6711
  349SOL    HW3 1442   0.686   0.649   0.966 -0.9417 -2.3236  0.9537
  349SOL    MW4 1443   0.680   0.605   0.891 -0.2590 -0.7109 -0.0552
  350SOL     OW 1444   0.736   1.730   0.894  0.0958 -0.0712  0.3944
  350SOL    HW2 1445   0.755   1.679   0.815 -0.3102 -0.2617  0.4181
  350SOL    HW3 1446   0.801   1.800   0.894 -0.0398  0.0565 -0.2246
  350SOL    MW4 1447   0.747   1.733   0.884  0.0243 -0.0796  0.3159
  351SOL     OW 1448   4.146   0.377   0.390 -0.5162  0.0311  0.1570
  351SOL    HW2 1449   4.235   0.373   0.355 -0.2519  0.3310  0.7890
  351SOL    HW3 1450   4.112   0.461   0.358 -1.9244 -1.7531 -3.2625
  351SOL    MW4 1451   4.154   0.388   0.381 -0.6676 -0.1647 -0.2108
  352SOL     OW 1452   4.041   0.594   0.654 -0.0104  0.1320 -0.1699
  352SOL    HW2 1453   4.014   0.651   0.726 -0.6369  0.1019 -0.3819
  352SOL    HW3 1454   4.137   0.591   0.661 -0.0826 -0.0633  0.8065
  352SOL    MW4 1455   4.050   0.601   0.665 -0.1020  0.1023 -0.0691
  353SOL     OW 1456   1.167   1.843   0.763 -0.3957  0.0933  0.5527
  353SOL    HW2 1457   1.242   1.893   0.795 -0.6936  0.3452  0.8559
  353SOL    HW3 1458   1.093   1.875   0.815 -0.3545 -1.6059  1.6840
  353SOL    MW4 1459   1.167   1.854   0.774 -0.4295 -0.0975  0.7420
  354SOL     OW 1460   4.483   3.519   1.193  0.3273  0.0179 -0.4833
  354SOL    HW2 1461   4.554   3.582   1.201  1.8661 -1.5916 -1.1986
  354SOL    HW3 1462   4.470   3.508   1.099 -0.8616  0.2845 -0.3626
  354SOL    MW4 1463   4.491   3.526   1.182  0.3735 -0.1590 -0.5617
  355SOL     OW 1464   1.972   4.362   0.765 -0.3151  0.5789  0.0556
  355SOL    HW2 1465   1.977   4.437   0.706  0.8849 -0.2450 -0.9200
  355SOL    HW3 1466   2.026   4.295   0.723  0.4317 -0.0760  2.0096
  355SOL    MW4 1467   1.980   4.363   0.752 -0.0583  0.3839  0.1847
  356SOL     OW 1468   1.045   4.510   0.721 -0.0149 -0.6423  0.2948
  356SOL    HW2 1469   0.950   4.507   0.715  0.0199 -1.2810  0.0187
  356SOL    HW3 1470   1.076   4.467   0.642  0.5280  1.2954 -0.5650
  356SOL    MW4 1471   1.037   4.504   0.710  0.0613 -0.4702  0.1449
  357SOL     OW 1472   3.571   2.204   0.732 -0.1872 -0.8562  0.4053
  357SOL    HW2 1473   3.641   2.193   0.667 -0.4165  0.3862 -0.0667
  357SOL    HW3 1474   3.491   2.211   0.680 -0.4081 -0.1643  0.8221
  357SOL    MW4 1475   3.570   2.204   0.717 -0.2463 -0.6008  0.3980
  358SOL     OW 1476   0.843   4.543   0.313  0.3001  0.4397 -0.0396
  358SOL    HW2 1477   0.889   4.508   0.389  0.1404  1.7149  0.6475
  358SOL    HW3 1478   0.863   4.481   0.243  2.5139  0.5883  0.4144
  358SOL    MW4 1479   0.851   4.530   0.314  0.5711  0.6275  0.1109
  359SOL     OW 1480   1.599   2.309   1.186 -0.2282  0.2260  0.4233
  359SOL    HW2 1481   1.621   2.311   1.092 -1.0185 -2.0055  0.1702
  359SOL    HW3 1482   1.536   2.380   1.197 -1.5810 -0.6975 -1.1267
  359SOL    MW4 1483   1.594   2.318   1.175 -0.5109 -0.1903  0.1854
  360SOL     OW 1484   4.224   2.241   0.378  0.1721 -0.1931 -0.2906
  360SOL    HW2 1485   4.278   2.166   0.352  2.4469  1.0866  0.6157
  360SOL    HW3 1486   4.262   2.315   0.331 -0.4955  0.8188  0.7463
  360SOL    MW4 1487   4.236   2.241   0.368  0.3839  0.1094 -0.0342
  361SOL     OW 1488   0.769   2.908   0.396  0.1843  0.3670  0.2422
  361SOL    HW2 1489   0.785   2.923   0.489  0.1918  0.0470  0.2937
  361SOL    HW3 1490   0.853   2.876   0.362  0.3284  0.9830  0.0191
  361SOL    MW4 1491   0.783   2.906   0.404  0.2043  0.4063  0.2196
  362SOL     OW 1492   1.153   2.983   0.405  0.2116  0.0918  0.2499
  362SOL    HW2 1493   1.146   2.990   0.500  0.1262  0.1680  0.2377
  362SOL    HW3 1494   1.114   3.064   0.372 -2.2760 -1.1427  0.0621
  362SOL    MW4 1495   1.147   2.995   0.413 -0.1279 -0.0610  0.2235
  363SOL     OW 1496   0.953   2.631   0.572  0.2471 -0.1071  0.0535
  363SOL    HW2 1497   0.874   2.604   0.526 -0.8279  1.3142  1.0109
  363SOL    HW3 1498   0.988   2.551   0.610 -0.1335 -0.9156 -1.2596
  363SOL    MW4 1499   0.947   2.617   0.571  0.0551 -0.0262  0.0066
  364SOL     OW 1500   0.855   2.886   0.660  0.2783 -0.0403  0.2977
  364SOL    HW2 1501   0.870   2.793   0.677  0.7763 -0.1322 -0.6207
  364SOL    HW3 1502   0.940   2.927   0.675  0.1660  0.2008  0.2790
  364SOL    MW4 1503   0.868   2.879   0.664  0.3292 -0.0205  0.1740
  365SOL     OW 1504   0.109   4.145   0.276  0.4179 -0.0785 -0.0531
  365SOL    HW2 1505   0.112   4.122   0.183 -2.2676 -0.6799 -0.0180
  365SOL    HW3 1506   0.131   4.064   0.322 -1.0096 -0.5213 -0.1229
  365SOL    MW4 1507   0.112   4.131   0.269 -0.1248 -0.2165 -0.0577
  366SOL     OW 1508   1.895   1.295   0.683 -0.3131 -0.1880  0.1285
  366SOL    HW2 1509   1.961   1.284   0.614  0.6943  0.4140  0.9812
  366SOL    HW3 1510   1.813   1.304   0.635  0.5348  1.5951 -1.1041
  366SOL    MW4 1511   1.893   1.295   0.667 -0.0684  0.1267  0.0784
  367SOL     OW 1512   1.128   4.453   1.207 -0.1912 -0.1601  0.3145
  367SOL    HW2 1513   1.175   4.444   1.290  1.2701 -1.6122 -0.6326
  367SOL    HW3 1514   1.043   4.412   1.223  0.0791 -0.4164  1.1037
  367SOL    MW4 1515   1.123   4.446   1.220  0.0372 -0.3853  0.2936
  368SOL     OW 1516   2.190   0.899   1.258 -0.1082  0.1848  0.6698
  368SOL    HW2 1517   2.215   0.963   1.192 -0.6722 -1.0206 -0.7360
  368SOL    HW3 1518   2.095   0.899   1.258 -0.1214 -0.9578  0.3419
  368SOL    MW4 1519   2.181   0.907   1.250 -0.1843 -0.1250  0.4411
  369SOL     OW 1520   0.704   3.646   1.279 -0.0407 -0.1291  0.6223
  369SOL    HW2 1521   0.712   3.644   1.374 -0.8755  0.2885  0.7009
  369SOL    HW3 1522   0.712   3.738   1.256  1.8959 -0.3886  0.1254
  369SOL    MW4 1523   0.706   3.658   1.288  0.1047 -0.1085  0.5672
  370SOL     OW 1524   3.853   1.987   0.237  0.6937  0.2499  0.1298
  370SOL    HW2 1525   3.764   1.984   0.273  0.1186  0.2988 -1.2765
  370SOL    HW3 1526   3.879   2.078   0.245  0.2166  0.4331 -0.4342
  370SOL    MW4 1527   3.844   1.998   0.243  0.5550  0.2806 -0.1301
  371SOL     OW 1528   2.252   1.822   0.408  0.0546  0.3673  0.0832
  371SOL    HW2 1529   2.197   1.776   0.471 -1.6360 -0.7102 -2.1053
  371SOL    HW3 1530   2.213   1.909   0.402  0.6138  0.6896  0.9779
  371SOL    MW4 1531   2.240   1.828   0.416 -0.0949  0.2676 -0.0875
  372SOL     OW 1532   0.145   2.635   0.734  0.1534 -0.4648 -0.1265
  372SOL    HW2 1533   0.180   2.562   0.786  0.6310  0.5778  1.0201
  372SOL    HW3 1534   0.121   2.701   0.798  0.0492  0.5338 -1.1884
  372SOL    MW4 1535   0.147   2.634   0.749  0.2027 -0.1955 -0.1153
  373SOL     OW 1536   4.276   2.064   1.248  0.0619 -0.2083  0.1218
  373SOL    HW2 1537   4.273   2.157   1.225  1.1355 -0.0982  0.4086
  373SOL    HW3 1538   4.205   2.024   1.197 -2.1947  1.2015  2.0676
  373SOL    MW4 1539   4.266   2.071   1.238 -0.0944 -0.0079  0.4163
  374SOL     OW 1540   1.073   1.522   1.132 -0.1682  0.7785  0.3619
  374SOL    HW2 1541   1.007   1.573   1.179 -1.0491 -1.1490  1.2894
  374SOL    HW3 1542   1.093   1.449   1.191 -0.5182 -1.1285 -1.8033
  374SOL    MW4 1543   1.067   1.519   1.146 -0.3306  0.2726  0.1985
  375SOL     OW 1544   1.026   0.944   0.688  0.1164 -0.3699  0.1818
  375SOL    HW2 1545   1.072   1.017   0.729 -1.0219 -0.0225  0.8634
  375SOL    HW3 1546   1.065   0.866   0.727  0.1968 -0.0854  0.6695
  375SOL    MW4 1547   1.037   0.943   0.698 -0.0232 -0.2865  0.3361
  376SOL     OW 1548   1.885   2.164   0.768  0.3913  0.1299 -0.3110
  376SOL    HW2 1549   1.881   2.193   0.677 -1.1122  2.0370  0.3493
  376SOL    HW3 1550   1.958   2.214   0.806  0.3232  0.1278 -0.1783
  376SOL    MW4 1551   1.894   2.174   0.761  0.1838  0.3812 -0.2064
  377SOL     OW 1552   3.163   0.985   0.422  0.8157  0.3906 -0.2039
  377SOL    HW2 1553   3.258   0.987   0.408  1.3660 -2.1372  2.5262
  377SOL    HW3 1554   3.150   1.028   0.507 -0.3116 -0.3221 -0.0017
  377SOL    MW4 1555   3.174   0.991   0.432  0.7401 -0.0370  0.1830
  378SOL     OW 1556   4.310   0.632   0.724  0.0869 -0.0413 -0.1384
  378SOL    HW2 1557   4.354   0.573   0.785  0.6184  0.7484  0.2622
  378SOL    HW3 1558   4.382   0.676   0.678 -0.2658  1.6026  0.8503
  378SOL    MW4 1559   4.326   0.630   0.726  0.1101  0.2798  0.0449
  379SOL     OW 1560   1.380   2.749   1.080 -0.4082 -0.1703 -0.0423
  379SOL    HW2 1561   1.429   2.812   1.134  0.6625 -0.8852 -0.1751
  379SOL    HW3 1562   1.396   2.664   1.121  0.2473 -0.6966 -1.3699
  379SOL    MW4 1563   1.388   2.746   1.093 -0.1805 -0.3340 -0.2350
  380SOL     OW 1564   2.692   0.845   1.292  0.0833 -0.7270  1.1292
  380SOL    HW2 1565   2.678   0.932   1.254  0.3108 -0.6739  1.1693
  380SOL    HW3 1566   2.606   0.803   1.286  0.5319 -1.3738 -1.1033
  380SOL    MW4 1567   2.679   0.851   1.286  0.1729 -0.8053  0.8398
  381SOL     OW 1568   2.301   2.177   0.803  0.1899  0.1803  0.2158
  381SOL    HW2 1569   2.294   2.189   0.708  1.6936  1.0694  0.2033
  381SOL    HW3 1570   2.307   2.082   0.814 -0.2348  0.0548 -0.5590
  381SOL    MW4 1571   2.301   2.166   0.792  0.3321  0.2811  0.1119
  382SOL     OW 1572   1.563   2.948   0.783  0.7221 -0.1528  0.5527
  382SOL    HW2 1573   1.488   3.007   0.788 -0.1347 -1.3781  3.1625
  382SOL    HW3 1574   1.639   3.006   0.775 -0.3927  1.1333 -1.0820
  382SOL    MW4 1575   1.563   2.963   0.783  0.4621 -0.1447  0.6813
  383SOL     OW 1576   3.489   0.802   0.874 -0.0565 -0.1132  0.3225
  383SOL    HW2 1577   3.419   0.805   0.939 -1.6183  1.2169 -1.3670
  383SOL    HW3 1578   3.508   0.709   0.863 -1.2453 -0.4567  1.1282
  383SOL    MW4 1579   3.482   0.790   0.881 -0.4194  0.0169  0.2060
  384SOL     OW 1580   1.565   0.455   0.369  0.4090 -0.4164  0.5183
  384SOL    HW2 1581   1.554   0.423   0.279  1.4335  2.2825 -0.5999
  384SOL    HW3 1582   1.487   0.507   0.386  1.1409  0.6927  0.4856
  384SOL    MW4 1583   1.553   0.457   0.359  0.6407  0.0860  0.3665
  385SOL     OW 1584   0.951   0.131   1.013  0.8198 -0.1597 -0.2571
  385SOL    HW2 1585   1.026   0.083   1.050  1.0640 -0.8632 -1.6332
  385SOL    HW3 1586   0.989   0.185   0.944  0.3344  0.9968  0.3628
  385SOL    MW4 1587   0.966   0.132   1.009  0.7879 -0.0999 -0.3568
  386SOL     OW 1588   4.181   1.567   0.839  0.0008  0.7398 -0.2792
  386SOL    HW2 1589   4.200   1.560   0.933  1.6243  0.1833 -0.6425
  386SOL    HW3 1590   4.097   1.520   0.829  1.1036 -1.4910  0.4894
  386SOL    MW4 1591   4.172   1.560   0.850  0.3600  0.3721 -0.2257
  387SOL     OW 1592   1.334   0.639   0.455 -0.4062 -0.1776  0.2914
  387SOL    HW2 1593   1.239   0.629   0.459 -0.4984  1.2834  2.7472
  387SOL    HW3 1594   1.348   0.717   0.403 -0.6002  0.0337  0.5510
  387SOL    MW4 1595   1.323   0.648   0.449 -0.4439  0.0430  0.6497
  388SOL     OW 1596   1.173   1.303   1.271  0.5775  0.1390 -0.0851
  388SOL    HW2 1597   1.159   1.302   1.366  0.1925  1.1085 -0.1271
  388SOL    HW3 1598   1.102   1.249   1.236  0.2095  0.4886  0.1196
  388SOL    MW4 1599   1.161   1.296   1.279  0.4783  0.3130 -0.0637
  389SOL     OW 1600   2.991   3.728   0.577 -0.1050  0.4408  0.3299
  389SOL    HW2 1601   2.914   3.677   0.554 -0.4351  0.8795  0.4573
  389SOL    HW3 1602   3.001   3.715   0.671  0.2556  0.0033  0.2320
  389SOL    MW4 1603   2.982   3.720   0.586 -0.1009  0.4408  0.3337
  390SOL     OW 1604   1.506   1.087   1.115 -0.3437  0.0586 -0.1829
  390SOL    HW2 1605   1.479   1.127   1.032  0.6499 -0.0386 -0.5618
  390SOL    HW3 1606   1.602   1.085   1.110 -0.1676  1.9171  1.8384
  390SOL    MW4 1607   1.515   1.092   1.103 -0.1893  0.2911  0.0339
  391SOL     OW 1608   1.405   1.334   0.459 -0.2805  0.0346 -0.1676
  391SOL    HW2 1609   1.399   1.314   0.366  0.4027 -0.6250 -0.0725
  391SOL    HW3 1610   1.397   1.429   0.464 -0.4956  0.0542 -0.8830
  391SOL    MW4 1611   1.403   1.344   0.447 -0.2189 -0.0498 -0.2494
  392SOL     OW 1612   2.500   4.282   1.123 -1.0435 -0.0906  0.0083
  392SOL    HW2 1613   2.434   4.232   1.075 -1.2235 -0.1272  0.2990
  392SOL    HW3 1614   2.451   4.337   1.183 -0.7909 -0.4869  0.5809
  392SOL    MW4 1615   2.485   4.283   1.125 -1.0340 -0.1478  0.1223
  393SOL     OW 1616   3.949   1.423   0.793 -0.4148 -0.0176  0.1516
  393SOL    HW2 1617   3.909   1.418   0.706 -1.0296  0.6206  0.3883
  393SOL    HW3 1618   3.975   1.334   0.813 -0.8708 -0.2803 -0.4118
  393SOL    MW4 1619   3.947   1.411   0.784 -0.5562  0.0318  0.1085
  394SOL     OW 1620   0.232   0.013   0.830  0.0189 -0.3173 -0.1210
  394SOL    HW2 1621   0.260   0.079   0.767 -1.0909 -0.7466 -1.0720
  394SOL    HW3 1622   0.141  -0.004   0.809  0.4441 -2.6089 -0.2715
  394SOL    MW4 1623   0.224   0.019   0.819 -0.0714 -0.6763 -0.2663
  395SOL     OW 1624   1.216   2.748   0.822  0.0359  0.6887 -0.0785
  395SOL    HW2 1625   1.126   2.720   0.838  0.3703 -0.6935 -0.5846
  395SOL    HW3 1626   1.252   2.766   0.909 -0.2432 -0.3035  0.2486
  395SOL    MW4 1627   1.209   2.747   0.835  0.0432  0.3755 -0.1022
  396SOL     OW 1628   2.487   0.649   0.699  0.4340  0.1021 -0.5947
  396SOL    HW2 1629   2.435   0.690   0.631  0.1823  0.3175 -0.2761
  396SOL    HW3 1630   2.467   0.699   0.778 -1.8399 -2.2086  0.3451
  396SOL    MW4 1631   2.478   0.661   0.701  0.1011 -0.1744 -0.4287
  397SOL     OW 1632   2.867   2.069   0.378  0.3207  0.3272  0.0970
  397SOL    HW2 1633   2.935   2.038   0.438  0.2782 -0.7039 -0.3851
  397SOL    HW3 1634   2.854   1.997   0.317 -0.1971  1.0697 -0.6812
  397SOL    MW4 1635   2.874   2.056   0.378  0.2465  0.2890 -0.0693
  398SOL     OW 1636   2.279   1.894   0.844 -0.3253 -0.5023  0.3663
  398SOL    HW2 1637   2.370   1.866   0.835  0.2352  1.3689  0.0899
  398SOL    HW3 1638   2.267   1.906   0.939  0.0905  0.4267  0.3093
  398SOL    MW4 1639   2.289   1.892   0.856 -0.1965 -0.1328  0.3223
  399SOL     OW 1640   3.093   3.013   0.704 -0.0653 -0.9137  0.1110
  399SOL    HW2 1641   3.147   3.079   0.747 -0.1346 -0.2443 -0.7882
  399SOL    HW3 1642   3.100   2.935   0.758  1.9367 -0.8855 -0.0830
  399SOL    MW4 1643   3.101   3.012   0.717  0.1898 -0.8214 -0.0333
  400SOL     OW 1644   0.154   0.136   0.261 -0.2759  0.0774 -0.3958
  400SOL    HW2 1645   0.223   0.086   0.305 -1.1986 -0.8139  0.0708
  400SOL    HW3 1646   0.197   0.173   0.184  0.3282 -1.8389 -1.0171
  400SOL    MW4 1647   0.169   0.134   0.257 -0.3180 -0.2930 -0.4162
  401SOL     OW 1648   2.430   2.303   1.182  0.5735 -0.0249  0.4258
  401SOL    HW2 1649   2.488   2.301   1.106 -1.8360 -1.0903 -1.4612
  401SOL    HW3 1650   2.440   2.217   1.221  1.7992  0.5160  1.3250
  401SOL    MW4 1651   2.439   2.291   1.177  0.4175 -0.0942  0.2954
  402SOL     OW 1652   3.778   1.577   0.324 -0.0926 -0.1072 -0.4588
  402SOL    HW2 1653   3.812   1.509   0.382  1.8400  0.1470 -1.2747
  402SOL    HW3 1654   3.793   1.543   0.235  0.1297  1.0118 -0.8573
  402SOL    MW4 1655   3.784   1.563   0.320  0.1915  0.0739 -0.6191
  403SOL     OW 1656   2.962   3.079   1.108  0.5273 -0.0163 -0.1402
  403SOL    HW2 1657   2.936   3.070   1.016  0.3667 -0.2717 -0.0703
  403SOL    HW3 1658   2.961   2.989   1.142  2.2960 -0.1407 -0.3516
  403SOL    MW4 1659   2.958   3.066   1.100  0.7396 -0.0665 -0.1589
  404SOL     OW 1660   0.641   0.590   0.534  0.0360  0.5601  0.0211
  404SOL    HW2 1661   0.707   0.624   0.474  1.4157  1.0739  1.7957
  404SOL    HW3 1662   0.608   0.668   0.579 -0.4288  0.0987  0.4836
  404SOL    MW4 1663   0.645   0.605   0.532  0.1568  0.5670  0.3163
  405SOL     OW 1664   0.393   2.271   0.757  0.0807  0.3635  0.0595
  405SOL    HW2 1665   0.415   2.324   0.681 -2.5246  0.5072 -0.6401
  405SOL    HW3 1666   0.409   2.181   0.728 -1.5603  0.3706 -0.9098
  405SOL    MW4 1667   0.398   2.266   0.743 -0.4795  0.3831 -0.1606
  406SOL     OW 1668   1.798   3.331   0.897  0.5531  0.3771 -0.1616
  406SOL    HW2 1669   1.725   3.374   0.853  0.0862  0.0910  0.3225
  406SOL    HW3 1670   1.813   3.251   0.847  0.7695  0.6139 -0.4738
  406SOL    MW4 1671   1.790   3.326   0.885  0.5201  0.3707 -0.1389
  407SOL     OW 1672   1.610   0.990   0.737 -0.0119 -0.5117  0.5021
  407SOL    HW2 1673   1.594   0.911   0.789 -0.1684  2.0407  4.5414
  407SOL    HW3 1674   1.694   1.022   0.768 -0.2829  1.2805 -0.5733
  407SOL    MW4 1675   1.619   0.983   0.748 -0.0683  0.0615  0.8931
  408SOL     OW 1676   3.631   3.499   1.126  0.6240  0.1193  0.2681
  408SOL    HW2 1677   3.646   3.502   1.031 -0.4964  0.7702  0.1045
  408SOL    HW3 1678   3.632   3.406   1.147  0.9579 -0.0296 -0.3698
  408SOL    MW4 1679   3.633   3.487   1.116  0.5202  0.1857  0.1624
  409SOL     OW 1680   0.251   0.465   0.745 -0.0802 -0.8200  0.5717
  409SOL    HW2 1681   0.334   0.428   0.776  0.2740  0.0735  0.6930
  409SOL    HW3 1682   0.254   0.556   0.772  0.4619  0.1320 -2.4772
  409SOL    MW4 1683   0.262   0.472   0.752  0.0381 -0.5765  0.1854
  410SOL     OW 1684   3.792   0.744   0.313  0.5752 -0.3018 -0.1027
  410SOL    HW2 1685   3.726   0.810   0.329 -0.6565 -1.7659  0.9589
  410SOL    HW3 1686   3.861   0.762   0.377 -0.2415 -0.6817  0.8971
  410SOL    MW4 1687   3.793   0.755   0.323  0.3049 -0.5450  0.1693
  411SOL     OW 1688   0.470   2.736   1.090 -0.0505 -0.5318 -0.5407
  411SOL    HW2 1689   0.393   2.791   1.109 -0.5768 -0.7290 -2.0266
  411SOL    HW3 1690   0.447   2.650   1.124  0.2810 -0.1440  0.6981
  411SOL    MW4 1691   0.456   2.732   1.097 -0.0762 -0.5066 -0.5732
  412SOL     OW 1692   1.137   0.921   0.444  0.8770 -0.0556 -0.2395
  412SOL    HW2 1693   1.123   0.926   0.538  0.5955  0.5690 -0.3118
  412SOL    HW3 1694   1.099   1.002   0.410  0.8731 -0.3351 -0.9014
  412SOL    MW4 1695   1.130   0.933   0.452  0.8395 -0.0101 -0.3364
  413SOL     OW 1696   2.583   1.023   0.909 -0.0317 -0.3236  0.2503
  413SOL    HW2 1697   2.659   1.016   0.851 -0.2374 -0.7924  0.0338
  413SOL    HW3 1698   2.620   1.046   0.994  0.5062 -2.0825  0.5138
  413SOL    MW4 1699   2.598   1.025   0.912  0.0122 -0.6176  0.2564
  414SOL     OW 1700   2.825   0.980   0.778  0.3221  0.6175  0.3410
  414SOL    HW2 1701   2.845   0.891   0.805 -1.5071 -0.2363 -0.9782
  414SOL    HW3 1702   2.884   1.035   0.829  0.6171 -1.2673  2.0795
  414SOL    MW4 1703   2.835   0.976   0.788  0.1197  0.2562  0.3964
  415SOL     OW 1704   2.033   0.595   1.303 -0.4808 -0.6254 -0.7403
  415SOL    HW2 1705   2.050   0.548   1.384 -0.8627  0.8609  0.2303
  415SOL    HW3 1706   2.013   0.685   1.331 -2.6268 -0.5659 -2.3282
  415SOL    MW4 1707   2.032   0.601   1.318 -0.8142 -0.4215 -0.8217
  416SOL     OW 1708   1.750   2.769   0.918 -0.2386  0.4635  0.3085
  416SOL    HW2 1709   1.676   2.826   0.897  0.5709  1.3493 -0.1876
  416SOL    HW3 1710   1.725   2.684   0.884 -0.8409  0.8648 -0.2639
  416SOL    MW4 1711   1.737   2.766   0.911 -0.2112  0.6332  0.1675
  417SOL     OW 1712   3.122   0.314   1.145  0.3416 -0.1933  0.1589
  417SOL    HW2 1713   3.065   0.385   1.176  0.5042 -0.2513  0.6023
  417SOL    HW3 1714   3.080   0.234   1.176  0.2751 -0.2750 -0.1488
  417SOL    MW4 1715   3.109   0.313   1.153  0.3543 -0.2117  0.1768
  418SOL     OW 1716   1.881   1.658   0.738  0.0313 -0.4077 -0.4935
  418SOL    HW2 1717   1.882   1.587   0.802  0.3246  0.9791  1.0885
  418SOL    HW3 1718   1.851   1.735   0.787  0.3415  0.7074 -1.9944
  418SOL    MW4 1719   1.877   1.659   0.753  0.1110 -0.0776 -0.4827
  419SOL     OW 1720   1.174   3.968   0.278 -0.2871 -0.3054  0.0052
  419SOL    HW2 1721   1.099   3.956   0.336  0.2616  0.7950  0.9646
  419SOL    HW3 1722   1.247   3.927   0.325  0.1605  0.5852  0.0941
  419SOL    MW4 1723   1.174   3.961   0.292 -0.1556 -0.0427  0.1435
  420SOL     OW 1724   2.074   3.043   0.831 -0.2592 -0.3752  0.1076
  420SOL    HW2 1725   2.122   3.120   0.801 -0.3516 -0.7015 -0.8825
  420SOL    HW3 1726   2.073   3.051   0.927 -0.0439  0.7142  0.0214
  420SOL    MW4 1727   2.080   3.054   0.840 -0.2429 -0.2744 -0.0345
  421SOL     OW 1728   2.224   2.932   0.372  0.3869 -0.1423  0.0584
  421SOL    HW2 1729   2.278   2.877   0.315  0.6751  0.6742 -0.4766
  421SOL    HW3 1730   2.251   2.909   0.461  1.3899  0.0219 -0.1977
  421SOL    MW4 1731   2.235   2.922   0.376  0.5572 -0.0129 -0.0460
  422SOL     OW 1732   2.703   2.145   0.787  0.0201  0.3910 -0.2174
  422SOL    HW2 1733   2.792   2.180   0.790  0.0877  0.2885 -1.0024
  422SOL    HW3 1734   2.713   2.053   0.813  0.1886  0.2935 -0.6251
  422SOL    MW4 1735   2.716   2.138   0.791  0.0513  0.3648 -0.3747
  423SOL     OW 1736   3.170   3.421   0.819  0.1849  0.6270 -0.4337
  423SOL    HW2 1737   3.238   3.487   0.805  0.3223  0.5829  0.0188
  423SOL    HW3 1738   3.133   3.442   0.905 -0.8447  1.0676 -0.9731
  423SOL    MW4 1739   3.174   3.432   0.829  0.0670  0.6797 -0.4451
  424SOL     OW 1740   3.275   1.574   0.721 -0.0777  0.0358 -0.0653
  424SOL    HW2 1741   3.310   1.544   0.805  1.0140  0.0612 -0.4966
  424SOL    HW3 1742   3.181   1.562   0.729 -0.0850  0.9581  1.5256
  424SOL    MW4 1743   3.267   1.568   0.733  0.0653  0.1608  0.0877
  425SOL     OW 1744   3.833   1.387   0.525 -0.0173 -0.1516 -0.0501
  425SOL    HW2 1745   3.737   1.383   0.532 -0.1989  1.0679 -1.6369
  425SOL    HW3 1746   3.859   1.297   0.508 -0.7668 -0.7120  1.6632
  425SOL    MW4 1747   3.824   1.375   0.524 -0.1402 -0.0645 -0.0334
  426SOL     OW 1748   2.048   3.276   0.595 -0.0986 -0.2459 -0.4783
  426SOL    HW2 1749   2.013   3.362   0.573 -0.1537 -0.5579 -1.6977
  426SOL    HW3 1750   1.978   3.215   0.572 -0.4416 -0.5524  1.3223
  426SOL    MW4 1751   2.034   3.279   0.589 -0.1512 -0.3278 -0.4016
  427SOL     OW 1752   0.877   3.563   0.830 -0.4377 -0.0614  0.0727
  427SOL    HW2 1753   0.906   3.650   0.854  1.2095 -0.8399  0.9890
  427SOL    HW3 1754   0.783   3.563   0.848 -0.7240  1.9296 -1.2525
  427SOL    MW4 1755   0.868   3.574   0.836 -0.2581  0.0985  0.0187
  428SOL     OW 1756   2.238   1.477   0.728 -0.3435 -0.3673  0.3018
  428SOL    HW2 1757   2.287   1.452   0.650  0.5486 -0.5458  0.9185
  428SOL    HW3 1758   2.193   1.558   0.704 -0.4802 -0.7005 -0.5650
  428SOL    MW4 1759   2.238   1.484   0.714 -0.2439 -0.4349  0.2689
  429SOL     OW 1760   4.265   3.987   0.901  0.1614 -0.5464  0.0786
  429SOL    HW2 1761   4.270   3.945   0.987  2.4459 -0.5101 -0.0090
  429SOL    HW3 1762   4.317   4.067   0.911 -0.2261 -0.1427 -1.1260
  429SOL    MW4 1763   4.273   3.992   0.914  0.4115 -0.4883 -0.0919
  430SOL     OW 1764   4.004   2.363   0.889  0.1091  0.3374  0.3212
  430SOL    HW2 1765   4.070   2.432   0.893 -0.0592  0.4464  1.5955
  430SOL    HW3 1766   4.035   2.304   0.821  1.2933  0.6289  0.5950
  430SOL    MW4 1767   4.017   2.364   0.881  0.2432  0.3903  0.5255
  431SOL     OW 1768   1.204   4.226   0.395 -0.0206 -0.0442 -0.6285
  431SOL    HW2 1769   1.211   4.155   0.331  0.4619  0.0760 -0.7122
  431SOL    HW3 1770   1.167   4.184   0.473 -1.2305 -0.0492 -1.2004
  431SOL    MW4 1771   1.200   4.211   0.397 -0.1165 -0.0286 -0.7150
  432SOL     OW 1772   4.150   3.526   0.844  0.0811 -0.4545  0.3939
  432SOL    HW2 1773   4.104   3.502   0.924 -0.7523 -0.3888 -0.0557
  432SOL    HW3 1774   4.243   3.517   0.866 -0.1416 -0.5715  1.3186
  432SOL    MW4 1775   4.156   3.522   0.858 -0.0582 -0.4613  0.4566
  433SOL     OW 1776   2.591   2.487   0.727 -0.1344  0.1482 -0.1964
  433SOL    HW2 1777   2.606   2.572   0.769  2.2062 -0.0668 -0.4830
  433SOL    HW3 1778   2.574   2.427   0.800 -1.3382  0.7794  0.0410
  433SOL    MW4 1779   2.591   2.490   0.742  0.0157  0.2029 -0.2029
  434SOL     OW 1780   1.429   3.865   0.368  0.3897  0.2116  0.4078
  434SOL    HW2 1781   1.442   3.787   0.422 -2.0976  0.0608  0.8472
  434SOL    HW3 1782   1.507   3.869   0.312  0.0090 -3.2883 -0.4683
  434SOL    MW4 1783   1.441   3.855   0.367  0.0112 -0.2699  0.3501
  435SOL     OW 1784   0.608   2.697   0.315  0.0439 -0.0186  0.1270
  435SOL    HW2 1785   0.648   2.772   0.360  1.5285 -0.5288 -0.3466
  435SOL    HW3 1786   0.662   2.683   0.238 -0.4508 -1.3639  0.0157
  435SOL    MW4 1787   0.620   2.705   0.311  0.1745 -0.2637  0.0498
  436SOL     OW 1788   2.268   4.127   1.031  0.2318  0.3691 -0.1703
  436SOL    HW2 1789   2.278   4.073   0.953  0.1556 -0.7247  0.5620
  436SOL    HW3 1790   2.188   4.178   1.015 -0.5431 -0.8410 -0.2339
  436SOL    MW4 1791   2.259   4.127   1.019  0.1194  0.0653 -0.0821
  437SOL     OW 1792   2.980   4.533   0.875 -0.2817 -0.0251  0.4761
  437SOL    HW2 1793   3.054   4.591   0.892  1.6877 -2.5445  0.9413
  437SOL    HW3 1794   2.935   4.525   0.959 -0.1462  0.2542  0.5741
  437SOL    MW4 1795   2.984   4.539   0.888 -0.0041 -0.3209  0.5504
  438SOL     OW 1796   3.343   2.094   0.586 -0.0909  0.4048  0.1648
  438SOL    HW2 1797   3.248   2.086   0.579 -0.2411  0.9776  1.3756
  438SOL    HW3 1798   3.373   2.007   0.611 -0.2783  0.1874 -0.3599
  438SOL    MW4 1799   3.335   2.082   0.588 -0.1352  0.4518  0.2553
  439SOL     OW 1800   3.174   2.473   0.387  0.1511  0.5091  0.1469
  439SOL    HW2 1801   3.214   2.485   0.474  0.6709 -0.9399  0.1359
  439SOL    HW3 1802   3.140   2.559   0.364  1.8249  1.4097  0.8900
  439SOL    MW4 1803   3.175   2.486   0.396  0.4406  0.4368  0.2435
  440SOL     OW 1804   1.385   3.563   1.126 -0.4695 -0.1109  0.4694
  440SOL    HW2 1805   1.370   3.558   1.032 -1.3909 -0.6315  0.6355
  440SOL    HW3 1806   1.384   3.472   1.155  2.7991 -0.1863  0.5557
  440SOL    MW4 1807   1.383   3.551   1.117 -0.1597 -0.1898  0.5027
  441SOL     OW 1808   1.691   2.284   0.915 -0.2460 -0.0916  0.4241
  441SOL    HW2 1809   1.685   2.371   0.877  0.6641 -0.3611 -0.3579
  441SOL    HW3 1810   1.755   2.238   0.860 -3.4999 -2.4712 -1.5535
  441SOL    MW4 1811   1.699   2.289   0.902 -0.5552 -0.4408  0.0600
  442SOL     OW 1812   2.440   4.599   0.783  0.3449 -0.3568 -0.4719
  442SOL    HW2 1813   2.505   4.628   0.718  1.8169 -1.1646  0.6047
  442SOL    HW3 1814   2.386   4.676   0.799  0.4218  0.0669 -2.1025
  442SOL    MW4 1815   2.441   4.613   0.776  0.5493 -0.4077 -0.5451
  443SOL     OW 1816   2.476   3.279   0.502 -0.1847 -0.1814 -0.0701
  443SOL    HW2 1817   2.544   3.218   0.475 -0.7480 -0.7255 -0.2633
  443SOL    HW3 1818   2.397   3.251   0.455 -0.5633  0.3939  0.2088
  443SOL    MW4 1819   2.474   3.267   0.493 -0.3090 -0.1769 -0.0588
  444SOL     OW 1820   3.523   0.202   0.659 -0.1701 -0.0256 -0.2947
  444SOL    HW2 1821   3.551   0.233   0.573  0.1148  2.3213  0.6376
  444SOL    HW3 1822   3.436   0.164   0.642 -0.6933  1.6033 -1.3933
  444SOL    MW4 1823   3.515   0.201   0.645 -0.2019  0.4989 -0.3166
  445SOL     OW 1824   3.462   0.814   0.571  0.2231  0.3780  0.0452
  445SOL    HW2 1825   3.411   0.738   0.541  0.9707 -0.4590  0.8315
  445SOL    HW3 1826   3.445   0.817   0.665 -0.5946  1.8056 -0.1431
  445SOL    MW4 1827   3.453   0.804   0.580  0.2136  0.4559  0.1241
  446SOL     OW 1828   0.229   3.890   0.874  0.0770 -0.0812  0.1333
  446SOL    HW2 1829   0.288   3.823   0.841 -1.3038 -0.6248 -1.2918
  446SOL    HW3 1830   0.242   3.965   0.816  0.5223  0.3711  0.8044
  446SOL    MW4 1831   0.238   3.891   0.862 -0.0464 -0.0932  0.0337
  447SOL     OW 1832   1.490   1.530   1.123  0.1901  0.0527  0.5712
  447SOL    HW2 1833   1.470   1.455   1.179  0.2946 -0.3548  0.0596
  447SOL    HW3 1834   1.540   1.494   1.050 -0.8659  0.4205 -0.3419
  447SOL    MW4 1835   1.494   1.516   1.121  0.0646  0.0474  0.3833
  448SOL     OW 1836   3.264   3.166   0.853 -0.0679  0.1675  0.1485
  448SOL    HW2 1837   3.344   3.155   0.801 -1.6551 -0.2852 -2.2889
  448SOL    HW3 1838   3.236   3.256   0.834 -1.7496 -0.6688 -1.3998
  448SOL    MW4 1839   3.271   3.177   0.844 -0.4992 -0.0024 -0.3774
  449SOL     OW 1840   0.376   2.354   0.332  0.1009 -0.2036  0.2158
  449SOL    HW2 1841   0.357   2.428   0.275  0.1431  0.4843  1.0885
  449SOL    HW3 1842   0.296   2.302   0.331 -0.2855  0.3868  0.4029
  449SOL    MW4 1843   0.363   2.357   0.324  0.0555 -0.0348  0.3556
  450SOL     OW 1844   4.417   1.083   0.872  0.0161 -0.4152 -0.0424
  450SOL    HW2 1845   4.364   1.126   0.805 -0.6299 -0.6050  0.3402
  450SOL    HW3 1846   4.358   1.019   0.912 -1.5874  3.6507  4.7031
  450SOL    MW4 1847   4.402   1.081   0.869 -0.2804  0.0963  0.6342
  451SOL     OW 1848   1.957   2.829   0.439  0.3714 -0.2840  0.5012
  451SOL    HW2 1849   1.983   2.808   0.529 -0.1223  0.7346  0.8887
  451SOL    HW3 1850   2.039   2.837   0.391  0.6143 -1.6063  0.6765
  451SOL    MW4 1851   1.971   2.827   0.445  0.3382 -0.3240  0.5755
  452SOL     OW 1852   0.582   3.095   0.320 -0.5963  0.4037  0.0932
  452SOL    HW2 1853   0.650   3.033   0.345 -0.4292  0.4001 -0.3549
  452SOL    HW3 1854   0.630   3.177   0.304 -0.8285  0.6783  0.8003
  452SOL    MW4 1855   0.597   3.098   0.321 -0.6049  0.4394  0.1274
  453SOL     OW 1856   0.120   2.172   0.446  0.0570 -0.3549  0.5107
  453SOL    HW2 1857   0.101   2.209   0.532 -0.4230 -0.7244  0.5688
  453SOL    HW3 1858   0.034   2.151   0.409  0.2884 -0.8444  0.2355
  453SOL    MW4 1859   0.107   2.174   0.452  0.0242 -0.4680  0.4821
  454SOL     OW 1860   3.780   2.739   0.415  0.4384 -0.4302  0.5223
  454SOL    HW2 1861   3.690   2.765   0.431 -0.0721 -1.7998 -0.0403
  454SOL    HW3 1862   3.774   2.669   0.349  2.0271  0.7746 -0.9631
  454SOL    MW4 1863   3.768   2.733   0.408  0.5805 -0.4518  0.2521
  455SOL     OW 1864   1.130   1.320   0.533  0.2690 -0.0484  0.2656
  455SOL    HW2 1865   1.224   1.339   0.523  0.2237  1.3081  2.1027
  455SOL    HW3 1866   1.094   1.399   0.574 -1.4464 -1.0381  0.7061
  455SOL    MW4 1867   1.138   1.333   0.537  0.0366 -0.0001  0.5661
  456SOL     OW 1868   2.736   0.337   1.167  0.1035  0.2226  0.4706
  456SOL    HW2 1869   2.727   0.252   1.211  0.2849  0.3309  0.7171
  456SOL    HW3 1870   2.747   0.314   1.074 -0.3199 -0.0030  0.4725
  456SOL    MW4 1871   2.736   0.323   1.160  0.0718  0.2071  0.5033
  457SOL     OW 1872   3.235   4.178   0.848 -0.0937  1.1034  0.1303
  457SOL    HW2 1873   3.317   4.219   0.873 -0.0875  1.1514  0.0308
  457SOL    HW3 1874   3.177   4.251   0.826  0.0334  1.0459 -0.4080
  457SOL    MW4 1875   3.238   4.193   0.848 -0.0758  1.1024  0.0461
  458SOL     OW 1876   2.202   0.530   0.651  0.0297 -0.1745 -0.0919
  458SOL    HW2 1877   2.258   0.563   0.580  1.9722 -1.4687  0.7814
  458SOL    HW3 1878   2.203   0.599   0.716 -1.6131  0.9447 -1.2260
  458SOL    MW4 1879   2.210   0.543   0.650  0.0691 -0.1976 -0.1264
  459SOL     OW 1880   0.513   1.166   1.119 -0.6632  0.7708 -0.2108
  459SOL    HW2 1881   0.430   1.186   1.162 -1.0450 -1.4072  0.1226
  459SOL    HW3 1882   0.530   1.075   1.141  1.5518  1.0329 -0.7443
  459SOL    MW4 1883   0.504   1.157   1.127 -0.4213  0.5181 -0.2371
  460SOL     OW 1884   4.246   3.028   0.898  0.4744 -0.0290  0.0103
  460SOL    HW2 1885   4.263   3.062   0.986 -0.8045 -0.1074  0.3044
  460SOL    HW3 1886   4.210   2.941   0.913  0.9538 -0.3320 -0.6192
  460SOL    MW4 1887   4.243   3.021   0.911  0.3686 -0.0796 -0.0340
  461SOL     OW 1888   4.037   1.163   1.148 -0.3004 -0.2966  0.5324
  461SOL    HW2 1889   4.042   1.070   1.172 -0.8829 -0.4815 -0.0375
  461SOL    HW3 1890   4.122   1.199   1.173 -0.3132 -0.8373  1.3646
  461SOL    MW4 1891   4.049   1.155   1.154 -0.3796 -0.3924  0.5671
  462SOL     OW 1892   1.165   0.764   1.114  0.3075 -0.3642 -0.3643
  462SOL    HW2 1893   1.155   0.748   1.020 -0.9561 -0.1186 -0.2821
  462SOL    HW3 1894   1.157   0.678   1.154  0.5591 -0.4314 -0.4560
  462SOL    MW4 1895   1.162   0.751   1.107  0.1740 -0.3407 -0.3655
  463SOL     OW 1896   1.574   0.071   1.077 -0.5443 -0.6070 -0.0432
  463SOL    HW2 1897   1.620  -0.012   1.089  1.9979  0.7551  0.0577
  463SOL    HW3 1898   1.638   0.138   1.101 -1.7124  1.4904 -2.4659
  463SOL    MW4 1899   1.588   0.069   1.082 -0.3629 -0.1505 -0.3495
  464SOL     OW 1900   4.059   3.900   0.189  0.2291  0.3615  0.0797
  464SOL    HW2 1901   4.125   3.889   0.257 -0.5654 -2.2939  0.4787
  464SOL    HW3 1902   4.091   3.849   0.115 -0.8422 -0.0720 -0.1010
  464SOL    MW4 1903   4.072   3.892   0.188 -0.0172 -0.0463  0.1085
  465SOL     OW 1904   0.694   0.046   1.016  0.3031  0.1963 -0.4578
  465SOL    HW2 1905   0.659   0.080   0.934  0.1203 -0.4117 -0.6328
  465SOL    HW3 1906   0.789   0.055   1.007  0.2666  0.4743 -0.5819
  465SOL    MW4 1907   0.702   0.052   1.004  0.2742  0.1528 -0.4972
  466SOL     OW 1908   2.515   0.373   0.762  0.9223 -0.4506 -0.3638
  466SOL    HW2 1909   2.480   0.459   0.738  0.9232 -1.2554 -3.4895
  466SOL    HW3 1910   2.453   0.339   0.826 -0.1608  1.0602 -0.5903
  466SOL    MW4 1911   2.502   0.380   0.768  0.7794 -0.3574 -0.8060
  467SOL     OW 1912   0.538   4.142   0.573 -0.2134  0.5468  0.4696
  467SOL    HW2 1913   0.508   4.232   0.578 -2.2035 -0.0362 -0.5410
  467SOL    HW3 1914   0.541   4.113   0.664  1.0676  1.8167  0.8439
  467SOL    MW4 1915   0.534   4.150   0.586 -0.3069  0.6375  0.3856
  468SOL     OW 1916   3.618   4.033   1.223 -0.2624 -0.1043  0.4265
  468SOL    HW2 1917   3.613   4.016   1.317 -0.7664  1.1213  0.6331
  468SOL    HW3 1918   3.549   3.978   1.186  1.2907 -2.1382  0.5419
  468SOL    MW4 1919   3.608   4.024   1.231 -0.1240 -0.2103  0.4690
  469SOL     OW 1920   4.016   0.822   0.480  0.1964  0.5418  0.7043
  469SOL    HW2 1921   4.025   0.735   0.519 -0.7512  0.6391  1.1572
  469SOL    HW3 1922   4.103   0.861   0.489  0.0319  0.4982  2.5757
  469SOL    MW4 1923   4.029   0.815   0.486  0.0496  0.5489  1.0110
  470SOL     OW 1924   1.707   4.317   0.677 -0.0989  0.2698  0.1205
  470SOL    HW2 1925   1.792   4.354   0.704  0.7829 -0.0114 -2.1675
  470SOL    HW3 1926   1.705   4.330   0.583 -3.2761  1.5571  0.3146
  470SOL    MW4 1927   1.718   4.324   0.668 -0.4019  0.4025 -0.1557
  471SOL     OW 1928   1.637   0.051   0.711  0.4472  0.1410 -0.4785
  471SOL    HW2 1929   1.725   0.041   0.748  0.4152 -0.8218 -0.6664
  471SOL    HW3 1930   1.587   0.096   0.779  1.3260  1.5121 -0.7148
  471SOL    MW4 1931   1.642   0.056   0.725  0.5589  0.1949 -0.5345
  472SOL     OW 1932   0.337   2.752   0.521 -0.2109 -0.0949  0.0023
  472SOL    HW2 1933   0.342   2.721   0.431  0.1660  0.8789 -0.3053
  472SOL    HW3 1934   0.250   2.723   0.551 -0.0476 -1.0514 -0.4256
  472SOL    MW4 1935   0.326   2.744   0.513 -0.1396 -0.0923 -0.0948
  473SOL     OW 1936   3.393   3.896   1.154  0.0205  0.0889  0.1277
  473SOL    HW2 1937   3.313   3.933   1.193  0.6296  0.2183  1.2811
  473SOL    HW3 1938   3.381   3.801   1.162 -0.3508  0.0928 -0.3824
  473SOL    MW4 1939   3.380   3.888   1.160  0.0515  0.1063  0.2124
  474SOL     OW 1940   1.422   2.634   0.648  0.4438  0.1754 -0.1145
  474SOL    HW2 1941   1.336   2.671   0.667 -0.8738 -2.1635 -1.3549
  474SOL    HW3 1942   1.468   2.703   0.600 -1.4864  0.7325 -1.2126
  474SOL    MW4 1943   1.417   2.648   0.644  0.0154 -0.0601 -0.4230
  475SOL     OW 1944   2.693   3.093   0.459 -0.1528 -0.0455  0.1441
  475SOL    HW2 1945   2.755   3.057   0.396 -1.6232  1.8562 -2.4827
  475SOL    HW3 1946   2.648   3.017   0.494  1.1163 -1.1907 -0.6468
  475SOL    MW4 1947   2.695   3.078   0.455 -0.1793  0.0546 -0.3069
  476SOL     OW 1948   4.183   4.422   0.513 -0.1987  0.5469  0.2939
  476SOL    HW2 1949   4.152   4.375   0.435 -1.1204  2.3594 -0.4731
  476SOL    HW3 1950   4.268   4.458   0.487 -0.0447  0.3183  0.4773
  476SOL    MW4 1951   4.190   4.420   0.499 -0.3004  0.7558  0.2169
  477SOL     OW 1952   3.772   2.163   0.548  0.1399 -0.2709  0.4305
  477SOL    HW2 1953   3.707   2.129   0.487 -0.3165 -1.4506  1.5494
  477SOL    HW3 1954   3.826   2.222   0.495 -2.2057  1.2089 -0.3596
  477SOL    MW4 1955   3.771   2.166   0.533 -0.2296 -0.2313  0.4739
  478SOL     OW 1956   1.338   3.538   0.861 -0.2093 -0.0632 -0.2278
  478SOL    HW2 1957   1.351   3.632   0.850 -0.9634  0.2594  1.5316
  478SOL    HW3 1958   1.244   3.525   0.848 -0.2613 -0.4173  0.4644
  478SOL    MW4 1959   1.327   3.549   0.858 -0.3158 -0.0670  0.0956
  479SOL     OW 1960   3.122   2.769   0.365 -0.0686  0.1997 -0.1674
  479SOL    HW2 1961   3.205   2.816   0.364  0.6418 -1.0396 -2.1810
  479SOL    HW3 1962   3.111   2.741   0.456  0.5342  2.4041  0.6054
  479SOL    MW4 1963   3.131   2.771   0.377  0.1044  0.3269 -0.3312
  480SOL     OW 1964   0.455   1.700   1.229  0.4709  0.8062  0.2827
  480SOL    HW2 1965   0.424   1.787   1.203 -0.9216  0.4615  0.7841
  480SOL    HW3 1966   0.456   1.703   1.325  0.4164  0.2681  0.2970
  480SOL    MW4 1967   0.451   1.712   1.238  0.2800  0.6897  0.3507
  481SOL     OW 1968   1.551   1.885   0.719  0.4158  0.2251 -0.4994
  481SOL    HW2 1969   1.632   1.888   0.769  0.8646  0.4282 -1.2260
  481SOL    HW3 1970   1.524   1.793   0.721  0.3511  0.2592  0.2302
  481SOL    MW4 1971   1.558   1.873   0.726  0.4665  0.2563 -0.4990
  482SOL     OW 1972   1.855   3.992   1.044 -0.1454  0.8977 -0.1376
  482SOL    HW2 1973   1.925   3.928   1.059 -1.5144 -0.9113 -1.2745
  482SOL    HW3 1974   1.818   4.007   1.131 -1.8309 -2.2700 -0.2384
  482SOL    MW4 1975   1.859   3.986   1.058 -0.5484  0.2408 -0.3008
  483SOL     OW 1976   3.870   3.248   0.496  0.0018  0.0365 -0.0070
  483SOL    HW2 1977   3.887   3.157   0.469  1.7356  0.7810 -1.4527
  483SOL    HW3 1978   3.951   3.276   0.539 -0.4625  0.9747  0.2666
  483SOL    MW4 1979   3.883   3.239   0.498  0.1695  0.2587 -0.1616
  484SOL     OW 1980   4.474   4.581   0.725  0.5753 -0.4617 -0.6649
  484SOL    HW2 1981   4.471   4.522   0.649 -0.4489  0.0160 -1.0176
  484SOL    HW3 1982   4.407   4.547   0.784  0.2055  0.1433 -0.7265
  484SOL    MW4 1983   4.464   4.569   0.723  0.3915 -0.3185 -0.7197
  485SOL     OW 1984   0.283   4.640   1.113 -0.2770  0.4423  0.3494
  485SOL    HW2 1985   0.289   4.655   1.018 -0.4925 -0.0210  0.2626
  485SOL    HW3 1986   0.358   4.687   1.149  1.1562 -1.3076 -0.2793
  485SOL    MW4 1987   0.294   4.648   1.105 -0.1163  0.1502  0.2550
  486SOL     OW 1988   0.042   0.109   1.182  0.2123 -0.4647 -0.3098
  486SOL    HW2 1989   0.049   0.202   1.160  0.6260 -0.3844  0.1395
  486SOL    HW3 1990   0.119   0.069   1.141  0.1961 -0.5577 -0.2500
  486SOL    MW4 1991   0.053   0.116   1.173  0.2647 -0.4664 -0.2426
  487SOL     OW 1992   0.005   0.391   1.085  0.0578 -0.3875  0.1398
  487SOL    HW2 1993  -0.003   0.368   0.993  0.0173 -0.9900  0.2931
  487SOL    HW3 1994  -0.082   0.423   1.109  0.5669  1.5438 -0.5058
  487SOL    MW4 1995  -0.008   0.392   1.076  0.1192 -0.2122  0.0747
  488SOL     OW 1996   0.204   0.496   1.266  0.1449 -0.5039  0.1584
  488SOL    HW2 1997   0.123   0.474   1.220 -1.2848 -1.8448  3.1827
  488SOL    HW3 1998   0.240   0.570   1.217 -1.7454 -1.2735 -2.5292
  488SOL    MW4 1999   0.198   0.503   1.253 -0.2931 -0.7824  0.2027
  489SOL     OW 2000   1.372   3.807   0.800  0.4235  0.0254 -0.2305
  489SOL    HW2 2001   1.456   3.839   0.768  0.8635 -1.5364 -0.6794
  489SOL    HW3 2002   1.366   3.841   0.889  2.0583 -0.7866  0.2178
  489SOL    MW4 2003   1.382   3.816   0.807  0.6971 -0.2880 -0.2306
  490SOL     OW 2004   1.984   1.485   1.167  0.2407 -0.2656  0.7944
  490SOL    HW2 2005   1.898   1.521   1.190  0.0284 -1.0105  1.1682
  490SOL    HW3 2006   1.986   1.488   1.071 -0.7492 -1.5035  0.7281
  490SOL    MW4 2007   1.973   1.490   1.157  0.0820 -0.5273  0.8349
  491SOL     OW 2008   0.048   0.880   1.231 -0.2012  0.1501 -0.4316
  491SOL    HW2 2009   0.041   0.885   1.327 -0.2101  0.8065 -0.4610
  491SOL    HW3 2010  -0.041   0.858   1.202 -0.5385  1.3823 -0.3706
  491SOL    MW4 2011   0.035   0.878   1.240 -0.2470  0.3994 -0.4275
  492SOL     OW 2012   0.719   1.324   1.241 -0.2243 -0.4543 -0.0981
  492SOL    HW2 2013   0.695   1.412   1.214 -0.0576  0.2965  2.1467
  492SOL    HW3 2014   0.653   1.268   1.200 -0.9781  0.8001 -0.6313
  492SOL    MW4 2015   0.707   1.328   1.232 -0.3018 -0.1897  0.1278
  493SOL     OW 2016   0.696   2.076   1.216 -0.1569  0.0944 -0.1801
  493SOL    HW2 2017   0.700   2.169   1.193 -0.8326 -0.3028 -2.0050
  493SOL    HW3 2018   0.702   2.075   1.312  1.5126  1.8998 -0.2170
  493SOL    MW4 2019   0.697   2.088   1.226 -0.0259  0.2801 -0.4258
  494SOL     OW 2020   0.016   1.724   1.213  0.8286  0.2302  0.1726
  494SOL    HW2 2021   0.029   1.812   1.178 -1.4878  0.0251 -1.2648
  494SOL    HW3 2022   0.092   1.675   1.182 -0.4689  0.4153 -3.4490
  494SOL    MW4 2023   0.028   1.729   1.204  0.3519  0.2276 -0.4948
  495SOL     OW 2024   4.265   2.333   1.162  0.2807 -0.0106 -0.4698
  495SOL    HW2 2025   4.341   2.383   1.191 -0.3222 -0.0554  1.2930
  495SOL    HW3 2026   4.190   2.381   1.197 -0.2988 -2.1068  1.2791
  495SOL    MW4 2027   4.265   2.346   1.171  0.1249 -0.2930 -0.0064
  496SOL     OW 2028   0.252   2.065   1.284 -0.6858 -0.3845  0.4737
  496SOL    HW2 2029   0.328   2.045   1.231 -0.6045  0.6784  0.1835
  496SOL    HW3 2030   0.177   2.042   1.229 -0.6210  1.6323 -0.4984
  496SOL    MW4 2031   0.252   2.059   1.270 -0.6665  0.0219  0.3072
  497SOL     OW 2032   0.021   2.465   1.227  0.5493 -0.4438  0.0939
  497SOL    HW2 2033   0.042   2.552   1.195  2.2669 -1.2456 -0.9926
  497SOL    HW3 2034   0.013   2.476   1.322  0.5337  0.9141 -0.0513
  497SOL    MW4 2035   0.023   2.478   1.236  0.7734 -0.3705 -0.0687
  498SOL     OW 2036   0.863   3.223   0.625 -0.4010  0.1383  0.0545
  498SOL    HW2 2037   0.924   3.266   0.685  1.1945 -1.3627 -0.4465
  498SOL    HW3 2038   0.798   3.182   0.682 -0.0537  0.4188  0.6602
  498SOL    MW4 2039   0.862   3.223   0.641 -0.1447 -0.0226  0.0683
  499SOL     OW 2040   0.951   2.697   0.879 -0.5388  0.3841  0.2320
  499SOL    HW2 2041   0.921   2.722   0.967 -2.2943 -0.2747 -0.1655
  499SOL    HW3 2042   0.884   2.638   0.847  1.0940 -0.9300 -0.8080
  499SOL    MW4 2043   0.939   2.693   0.887 -0.5550  0.1240  0.0423
  500SOL     OW 2044   0.426   2.476   1.248  0.7461 -0.5785  0.3230
  500SOL    HW2 2045   0.439   2.464   1.342  0.3617  0.2165  0.4780
  500SOL    HW3 2046   0.357   2.413   1.225  0.6722 -0.6044  0.6152
  500SOL    MW4 2047   0.418   2.466   1.257  0.6856 -0.4768  0.3819
  501SOL     OW 2048   0.239   2.871   1.205  0.0084  0.0530  0.0627
  501SOL    HW2 2049   0.238   2.965   1.189  0.1372 -0.2543 -1.8362
  501SOL    HW3 2050   0.153   2.841   1.174  0.7509 -0.7554 -1.1979
  501SOL    MW4 2051   0.227   2.879   1.199  0.1234 -0.0944 -0.3542
  502SOL     OW 2052   0.022   3.266   1.286 -0.1365  0.1796 -0.2181
  502SOL    HW2 2053  -0.048   3.226   1.236 -0.3830 -0.1439  0.3777
  502SOL    HW3 2054   0.008   3.360   1.276 -1.3692  0.1261  0.8733
  502SOL    MW4 2055   0.011   3.273   1.278 -0.3317  0.1297  0.0045
  503SOL     OW 2056   0.317   2.625   0.265  0.3589  0.0088 -0.5228
  503SOL    HW2 2057   0.221   2.627   0.275  0.0895 -0.7396 -2.6793
  503SOL    HW3 2058   0.335   2.687   0.195  1.4181 -0.1704 -0.4110
  503SOL    MW4 2059   0.306   2.633   0.257  0.4631 -0.1135 -0.7926
  504SOL     OW 2060   0.202   2.414   0.888  0.1061  0.0583 -0.2534
  504SOL    HW2 2061   0.195   2.389   0.981 -0.7300  0.5333 -0.1769
  504SOL    HW3 2062   0.272   2.359   0.853  0.8301  0.2913  0.8068
  504SOL    MW4 2063   0.210   2.403   0.896  0.0913  0.1519 -0.1034
  505SOL     OW 2064   0.233   3.129   1.151  0.2453  0.0259 -0.5632
  505SOL    HW2 2065   0.314   3.170   1.183  0.7407 -1.3528 -0.0236
  505SOL    HW3 2066   0.166   3.195   1.167  1.0684  0.7366  0.0596
  505SOL    MW4 2067   0.235   3.143   1.158  0.4192 -0.0620 -0.4098
  506SOL     OW 2068   0.031   4.028   1.260  0.2669  0.2768 -0.2145
  506SOL    HW2 2069   0.053   4.021   1.353  1.9708  1.3710 -0.5119
  506SOL    HW3 2070  -0.055   3.986   1.252  0.7080 -1.0360  1.6118
  506SOL    MW4 2071   0.023   4.021   1.271  0.5499  0.2480 -0.0128
  507SOL     OW 2072   0.017   4.298   1.201  0.3187 -0.2425 -0.5952
  507SOL    HW2 2073   0.020   4.206   1.225 -0.4411 -0.2595 -0.5543
  507SOL    HW3 2074   0.108   4.325   1.196  0.5023 -0.2813  2.1042
  507SOL    MW4 2075   0.029   4.290   1.203  0.2427 -0.2499 -0.2335
  508SOL     OW 2076   0.269   4.388   1.223  0.2374  0.1309  0.1962
  508SOL    HW2 2077   0.266   4.404   1.317 -1.6710  2.3504 -0.2050
  508SOL    HW3 2078   0.265   4.475   1.183  2.3251 -0.6775 -1.9574
  508SOL    MW4 2079   0.268   4.401   1.230  0.2610  0.3171 -0.1409
  509SOL     OW 2080   0.458   4.261   1.078  0.1737  0.3148 -0.5435
  509SOL    HW2 2081   0.541   4.309   1.068  0.9611 -0.9082 -0.0062
  509SOL    HW3 2082   0.403   4.319   1.131  0.2171  1.6872 -1.9578
  509SOL    MW4 2083   0.462   4.275   1.084  0.2833  0.3343 -0.6592
  510SOL     OW 2084   0.491   0.119   1.210  0.7023 -0.1024 -0.1362
  510SOL    HW2 2085   0.485   0.214   1.195  0.9299  0.0740  0.8345
  510SOL    HW3 2086   0.573   0.093   1.170  0.6153  0.1039 -0.4501
  510SOL    MW4 2087   0.501   0.128   1.203  0.7209 -0.0519 -0.0495
  511SOL     OW 2088   0.457   0.380   1.171  0.1479 -0.0934 -0.5170
  511SOL    HW2 2089   0.473   0.386   1.077  2.1120  0.5322 -0.1684
  511SOL    HW3 2090   0.367   0.410   1.182  0.2379  0.8315 -2.0845
  511SOL    MW4 2091   0.447   0.385   1.160  0.4189  0.1112 -0.6779
  512SOL     OW 2092   0.703   0.477   1.309 -0.3362 -0.0791 -0.1767
  512SOL    HW2 2093   0.621   0.448   1.270 -0.0655 -0.2806 -0.6016
  512SOL    HW3 2094   0.768   0.413   1.278  0.2068  0.7881 -0.8453
  512SOL    MW4 2095   0.701   0.465   1.300 -0.2288  0.0087 -0.3209
  513SOL     OW 2096   0.687   0.698   1.146 -0.6578 -0.5283 -0.0742
  513SOL    HW2 2097   0.756   0.762   1.164 -1.8239  0.6418  0.2451
  513SOL    HW3 2098   0.708   0.624   1.203  0.7991 -0.5179 -0.5750
  513SOL    MW4 2099   0.699   0.697   1.156 -0.6195 -0.3726 -0.0981
  514SOL     OW 2100   0.295   0.735   1.102  0.1434 -0.0007  0.2787
  514SOL    HW2 2101   0.367   0.790   1.134  1.9169 -2.4509  0.6662
  514SOL    HW3 2102   0.216   0.787   1.116  1.8731  2.9552 -0.5990
  514SOL    MW4 2103   0.294   0.749   1.108  0.6056  0.0660  0.2141
  515SOL     OW 2104   0.905   0.857   1.208  0.2146  0.1779 -0.3786
  515SOL    HW2 2105   0.976   0.816   1.159  0.8399  1.4810 -0.5839
  515SOL    HW3 2106   0.910   0.950   1.185 -1.9484  0.1974 -0.8665
  515SOL    MW4 2107   0.915   0.864   1.199  0.0117  0.3524 -0.4700
  516SOL     OW 2108   0.884   1.686   1.245  0.0092  0.4490  0.1241
  516SOL    HW2 2109   0.802   1.665   1.199  0.7070  0.3726 -1.1114
  516SOL    HW3 2110   0.902   1.777   1.221 -0.8480  1.1778  2.1609
  516SOL    MW4 2111   0.875   1.695   1.236 -0.0119  0.5352  0.2300
  517SOL     OW 2112   3.928   2.288   0.351 -0.9302 -0.6176  0.1334
  517SOL    HW2 2113   4.019   2.259   0.357 -0.8409 -0.1889  0.9102
  517SOL    HW3 2114   3.928   2.375   0.390 -1.8522 -1.0007  1.0023
  517SOL    MW4 2115   3.940   2.296   0.357 -1.0397 -0.6118  0.3505
  518SOL     OW 2116   0.930   1.946   1.179  0.2435  0.1909 -0.4014
  518SOL    HW2 2117   0.851   1.998   1.189  0.0423 -0.3380  0.9490
  518SOL    HW3 2118   1.000   2.001   1.213 -0.0426 -0.5840  1.4970
  518SOL    MW4 2119   0.929   1.960   1.185  0.1791  0.0188  0.0273
  519SOL     OW 2120   1.462   3.220   0.780 -0.2462 -0.2108  0.0555
  519SOL    HW2 2121   1.518   3.233   0.703 -0.6854 -2.1682 -0.6166
  519SOL    HW3 2122   1.523   3.199   0.850 -0.0948 -1.9935 -0.5974
  519SOL    MW4 2123   1.478   3.219   0.779 -0.2842 -0.7041 -0.1193
  520SOL     OW 2124   1.390   2.501   1.188  0.1150 -0.1522 -0.3473
  520SOL    HW2 2125   1.391   2.486   1.282  2.3787  0.8520 -0.1740
  520SOL    HW3 2126   1.309   2.459   1.157 -1.0883  0.2560  2.1376
  520SOL    MW4 2127   1.379   2.493   1.196  0.2550  0.0341  0.0033
  521SOL     OW 2128   0.047   1.994   1.116 -0.0176 -0.5419  0.0146
  521SOL    HW2 2129  -0.042   2.018   1.138 -0.5289 -1.3651 -1.0859
  521SOL    HW3 2130   0.055   2.013   1.022  0.4777 -1.8200 -0.2231
  521SOL    MW4 2131   0.037   2.000   1.106 -0.0197 -0.8191 -0.1620
  522SOL     OW 2132   1.617   3.227   0.530  0.0992 -0.4346 -0.0404
  522SOL    HW2 2133   1.536   3.190   0.495  0.2039 -0.2441 -0.4876
  522SOL    HW3 2134   1.618   3.317   0.496  0.5793 -0.4895 -0.1669
  522SOL    MW4 2135   1.606   3.234   0.521  0.1764 -0.4165 -0.1162
  523SOL     OW 2136   1.150   3.138   1.119 -0.3964  0.3936 -0.0899
  523SOL    HW2 2137   1.142   3.043   1.129  0.1771  0.3908  0.3541
  523SOL    HW3 2138   1.165   3.151   1.025  0.0478  0.0074 -0.0721
  523SOL    MW4 2139   1.151   3.127   1.108 -0.2620  0.3424 -0.0288
  524SOL     OW 2140   1.667   2.533   0.786 -0.0452  0.1181  0.8225
  524SOL    HW2 2141   1.582   2.571   0.766 -0.4558 -0.7152  0.9802
  524SOL    HW3 2142   1.703   2.505   0.701  0.2831  0.9079  0.6999
  524SOL    MW4 2143   1.661   2.534   0.772 -0.0560  0.1123  0.8271
  525SOL     OW 2144   0.497   3.532   1.144 -0.3882 -0.1298  0.5919
  525SOL    HW2 2145   0.571   3.568   1.193 -0.1236 -0.0791  0.1638
  525SOL    HW3 2146   0.420   3.564   1.190 -0.1444 -0.4254  1.2144
  525SOL    MW4 2147   0.497   3.541   1.156 -0.3211 -0.1619  0.6175
  526SOL     OW 2148   1.591   3.496   0.772  0.4001 -0.1211 -0.1418
  526SOL    HW2 2149   1.499   3.471   0.785  0.2943  0.3656  0.0654
  526SOL    HW3 2150   1.606   3.564   0.837  1.4087 -1.4116  0.9846
  526SOL    MW4 2151   1.581   3.501   0.782  0.5192 -0.2267  0.0341
  527SOL     OW 2152   4.108   4.195   0.325 -0.2045 -0.5067  0.2590
  527SOL    HW2 2153   4.067   4.152   0.401 -0.1048 -1.0630 -0.0023
  527SOL    HW3 2154   4.075   4.147   0.249  0.3376 -0.4703 -0.0008
  527SOL    MW4 2155   4.098   4.183   0.325 -0.1197 -0.5755  0.1903
  528SOL     OW 2156   0.786   1.323   0.774 -0.2104 -0.2125 -0.0770
  528SOL    HW2 2157   0.698   1.336   0.807 -0.3919  0.7691 -0.9224
  528SOL    HW3 2158   0.786   1.234   0.738 -0.2463 -0.9750  1.7650
  528SOL    MW4 2159   0.775   1.313   0.773 -0.2391 -0.1837  0.0544
  529SOL     OW 2160   1.276   4.592   0.876 -0.1468 -0.6131  0.4719
  529SOL    HW2 2161   1.230   4.637   0.947  0.0702  0.7528 -0.2276
  529SOL    HW3 2162   1.207   4.558   0.820 -0.3154 -0.2681  0.4684
  529SOL    MW4 2163   1.261   4.594   0.878 -0.1403 -0.3872  0.3792
  530SOL     OW 2164   0.228   3.876   1.146 -0.3112 -0.4516  0.1688
  530SOL    HW2 2165   0.154   3.934   1.166  0.7474  0.8705  0.3308
  530SOL    HW3 2166   0.240   3.885   1.051  1.4120  1.5419  0.5383
  530SOL    MW4 2167   0.220   3.885   1.136  0.0558 -0.0141  0.2390
  531SOL     OW 2168   0.223   4.097   0.668 -0.1627  0.4920  0.3914
  531SOL    HW2 2169   0.298   4.146   0.704  0.2974  0.3097 -0.3095
  531SOL    HW3 2170   0.153   4.162   0.662  0.3744  1.0235 -0.3183
  531SOL    MW4 2171   0.224   4.112   0.672 -0.0311  0.5379  0.2053
  532SOL     OW 2172   1.577   0.165   0.437  0.1080 -0.1746  0.1602
  532SOL    HW2 2173   1.576   0.260   0.433 -0.9149 -0.1236  1.4037
  532SOL    HW3 2174   1.599   0.145   0.528  1.3136 -1.1429 -0.3198
  532SOL    MW4 2175   1.580   0.175   0.448  0.1321 -0.2956  0.2609
  533SOL     OW 2176   1.971   0.112   1.261 -0.0407  0.0095 -0.1318
  533SOL    HW2 2177   1.979   0.046   1.193  0.0859 -0.1666  0.0527
  533SOL    HW3 2178   1.911   0.177   1.225  0.2514  0.0608 -0.5236
  533SOL    MW4 2179   1.964   0.112   1.247  0.0144 -0.0069 -0.1590
  534SOL     OW 2180   1.197   0.028   1.124  0.0588  0.4996  0.3678
  534SOL    HW2 2181   1.211   0.078   1.205  0.1919 -0.0328  0.6746
  534SOL    HW3 2182   1.179  -0.061   1.154  1.4187  0.0138 -0.2418
  534SOL    MW4 2183   1.196   0.023   1.139  0.2558  0.3652  0.3277
  535SOL     OW 2184   1.446   4.205   1.063  0.0985 -0.2137  0.1283
  535SOL    HW2 2185   1.511   4.209   0.992 -0.6427  0.9229 -0.4906
  535SOL    HW3 2186   1.490   4.248   1.136 -0.8040  2.7529 -0.9913
  535SOL    MW4 2187   1.461   4.211   1.063 -0.1183  0.3276 -0.1011
  536SOL     OW 2188   1.156   0.517   1.268 -0.0577  0.0669 -0.2068
  536SOL    HW2 2189   1.159   0.520   1.364 -0.2631 -0.7471 -0.1709
  536SOL    HW3 2190   1.084   0.457   1.248 -0.4262  0.7337 -0.8805
  536SOL    MW4 2191   1.147   0.510   1.278 -0.1334  0.0474 -0.2910
  537SOL     OW 2192   1.628   0.712   0.837  0.2954 -0.3232  0.1563
  537SOL    HW2 2193   1.626   0.691   0.930  0.3825 -1.5498 -0.1188
  537SOL    HW3 2194   1.698   0.658   0.801  0.1632  0.0328 -0.6502
  537SOL    MW4 2195   1.637   0.702   0.844  0.2893 -0.4380  0.0136
  538SOL     OW 2196   1.169   1.165   0.773 -0.0259  0.1186 -0.0445
  538SOL    HW2 2197   1.115   1.202   0.843 -1.7776 -1.6005 -0.4223
  538SOL    HW3 2198   1.170   1.233   0.705 -0.3432  0.8247  0.6442
  538SOL    MW4 2199   1.162   1.179   0.774 -0.2987 -0.0153 -0.0035
  539SOL     OW 2200   1.874   1.087   0.839  0.3856  0.2054  0.3258
  539SOL    HW2 2201   1.946   1.030   0.811 -1.0102 -1.2205 -0.5293
  539SOL    HW3 2202   1.879   1.163   0.781  1.0001 -0.0492  0.0436
  539SOL    MW4 2203   1.884   1.089   0.828  0.2824 -0.0163  0.1758
  540SOL     OW 2204   1.140   1.307   1.535 -0.0261 -0.2357 -0.0234
  540SOL    HW2 2205   1.223   1.260   1.544  0.3799  0.2876 -0.9450
  540SOL    HW3 2206   1.074   1.245   1.567  0.7071 -0.6783  0.6592
  540SOL    MW4 2207   1.142   1.292   1.540  0.1241 -0.2251 -0.0550
  541SOL     OW 2208   3.649   4.124   0.757  0.3375 -0.2258 -0.3244
  541SOL    HW2 2209   3.603   4.041   0.743 -1.5590  0.8025 -0.4367
  541SOL    HW3 2210   3.682   4.147   0.670 -0.7209  0.0279 -0.6712
  541SOL    MW4 2211   3.647   4.116   0.744 -0.0525 -0.0567 -0.3849
  542SOL     OW 2212   1.147   2.090   1.261 -0.1236  0.2962  0.4107
  542SOL    HW2 2213   1.158   2.182   1.238 -0.8792  0.4332  0.5822
  542SOL    HW3 2214   1.146   2.089   1.357  0.6355  0.0181  0.4162
  542SOL    MW4 2215   1.148   2.102   1.271 -0.1231  0.2775  0.4338
  543SOL     OW 2216   1.025   2.392   0.675 -0.3282  0.5301  0.2967
  543SOL    HW2 2217   1.078   2.414   0.752 -1.1852  2.3699  0.3780
  543SOL    HW3 2218   0.962   2.327   0.707  0.6067 -0.2079  0.6641
  543SOL    MW4 2219   1.024   2.386   0.690 -0.3179  0.6754  0.3559
  544SOL     OW 2220   0.859   2.180   0.788  0.2310  0.2207  0.1348
  544SOL    HW2 2221   0.816   2.135   0.715  0.2593  0.8953 -0.2957
  544SOL    HW3 2222   0.790   2.234   0.827  0.3358  0.2307  0.3059
  544SOL    MW4 2223   0.845   2.181   0.783  0.2486  0.3111  0.1006
  545SOL     OW 2224   3.002   1.573   0.729 -0.0054 -0.1499  0.7203
  545SOL    HW2 2225   2.971   1.575   0.639  1.1267 -0.6976  0.3002
  545SOL    HW3 2226   2.997   1.664   0.759  0.2582  0.1422 -0.1260
  545SOL    MW4 2227   2.997   1.585   0.721  0.1788 -0.1836  0.5531
  546SOL     OW 2228   0.234   3.517   0.632 -0.0295 -0.0515  0.2140
  546SOL    HW2 2229   0.169   3.451   0.656  0.1160 -0.6590 -1.0040
  546SOL    HW3 2230   0.315   3.467   0.617 -0.2212  0.2081 -1.9279
  546SOL    MW4 2231   0.236   3.502   0.633 -0.0356 -0.0975 -0.2292
  547SOL     OW 2232   0.929   2.474   1.252 -0.0338  0.1759 -0.3650
  547SOL    HW2 2233   0.941   2.448   1.343  1.9084  1.9273 -0.0743
  547SOL    HW3 2234   0.845   2.437   1.227  0.1058 -1.6083  1.6697
  547SOL    MW4 2235   0.920   2.466   1.261  0.2409  0.1714 -0.0583
  548SOL     OW 2236   1.171   2.866   1.196  0.1068 -0.6197 -0.5320
  548SOL    HW2 2237   1.175   2.861   1.292  0.1879  1.0802 -0.4257
  548SOL    HW3 2238   1.236   2.803   1.166  1.5581  0.3132  0.5837
  548SOL    MW4 2239   1.180   2.857   1.205  0.3090 -0.2728 -0.3706
  549SOL     OW 2240   4.135   2.778   0.932  0.0882 -0.1650  0.3398
  549SOL    HW2 2241   4.195   2.705   0.913  0.5517  0.0304  0.9880
  549SOL    HW3 2242   4.107   2.762   1.023 -1.5702 -0.7501 -0.2575
  549SOL    MW4 2243   4.140   2.766   0.942 -0.0691 -0.2162  0.3465
  550SOL     OW 2244   2.527   3.973   0.614 -0.2139  0.2325 -0.1327
  550SOL    HW2 2245   2.593   4.041   0.600  1.1480 -1.0196  0.0880
  550SOL    HW3 2246   2.508   3.939   0.527  0.7367 -0.5924 -0.0299
  550SOL    MW4 2247   2.534   3.978   0.601  0.0911 -0.0415 -0.0900
  551SOL     OW 2248   2.327   2.719   0.829  0.1019  0.4689 -0.7058
  551SOL    HW2 2249   2.264   2.667   0.781 -0.8708  1.7418 -0.8342
  551SOL    HW3 2250   2.294   2.721   0.919  0.6327  0.0872 -0.5006
  551SOL    MW4 2251   2.315   2.713   0.835  0.0434  0.5867 -0.6957
  552SOL     OW 2252   0.897   3.213   1.227 -0.0213 -0.1690 -0.3879
  552SOL    HW2 2253   0.897   3.304   1.197  1.5132 -0.4326 -1.2510
  552SOL    HW3 2254   0.981   3.178   1.197 -1.4261 -2.4486 -1.7865
  552SOL    MW4 2255   0.908   3.220   1.219 -0.0043 -0.5045 -0.6864
  553SOL     OW 2256   1.066   3.904   1.159 -0.1333  0.0366  0.4754
  553SOL    HW2 2257   1.093   3.825   1.205 -0.7958 -0.3298  0.2410
  553SOL    HW3 2258   1.029   3.873   1.077  0.9629  0.6785 -0.2851
  553SOL    MW4 2259   1.065   3.890   1.154 -0.0762  0.0727  0.3442
  554SOL     OW 2260   0.008   0.760   0.569 -0.0309 -0.2137  0.1202
  554SOL    HW2 2261   0.052   0.680   0.539 -0.6192 -0.6670  0.4319
  554SOL    HW3 2262   0.079   0.821   0.588  0.3556  0.1523 -2.3379
  554SOL    MW4 2263   0.023   0.757   0.568 -0.0577 -0.2252 -0.1630
  555SOL     OW 2264   2.163   0.718   0.863 -0.1394  0.2056 -0.3589
  555SOL    HW2 2265   2.253   0.734   0.892 -0.2785  0.3562 -0.0125
  555SOL    HW3 2266   2.137   0.799   0.820 -0.6395  0.7193  0.8826
  555SOL    MW4 2267   2.171   0.731   0.861 -0.2236  0.2933 -0.1494
  556SOL     OW 2268   0.980   0.267   0.427  0.1573  0.2253  0.0082
  556SOL    HW2 2269   1.015   0.196   0.480  1.7706 -0.0493 -1.4160
  556SOL    HW3 2270   0.989   0.238   0.337  0.7437  2.1759 -0.5950
  556SOL    MW4 2271   0.986   0.254   0.422  0.4476  0.4464 -0.2593
  557SOL     OW 2272   1.972   4.574   1.066  0.5644 -0.6746  0.3084
  557SOL    HW2 2273   1.880   4.555   1.079  0.2237  1.1116  0.6853
  557SOL    HW3 2274   2.019   4.502   1.107 -0.6543 -1.0998  0.9455
  557SOL    MW4 2275   1.966   4.562   1.073  0.3587 -0.4950  0.4421
  558SOL     OW 2276   1.339   0.004   0.460 -0.1811  0.0699  0.2319
  558SOL    HW2 2277   1.423   0.048   0.446 -0.3799 -0.2640 -2.1487
  558SOL    HW3 2278   1.362  -0.088   0.472 -0.2407 -0.0607 -0.6881
  558SOL    MW4 2279   1.353  -0.002   0.460 -0.2152  0.0085 -0.2036
  559SOL     OW 2280   1.369   0.452   1.095 -0.2117 -0.2894  0.7968
  559SOL    HW2 2281   1.326   0.443   1.009  0.7075 -0.1940  0.3257
  559SOL    HW3 2282   1.297   0.472   1.155 -0.7608  0.4529 -0.0944
  559SOL    MW4 2283   1.354   0.454   1.091 -0.1628 -0.1789  0.6169
  560SOL     OW 2284   1.753   0.508   1.240 -0.3858  0.1055  0.7669
  560SOL    HW2 2285   1.839   0.544   1.260 -0.0185  0.9292 -1.9791
  560SOL    HW3 2286   1.701   0.584   1.213 -1.1317 -0.7374 -0.2210
  560SOL    MW4 2287   1.757   0.523   1.239 -0.4359  0.1029  0.2742
  561SOL     OW 2288   2.112   4.179   0.601  0.0992  0.4257  0.7707
  561SOL    HW2 2289   2.155   4.236   0.537  0.1213  0.5617  0.9061
  561SOL    HW3 2290   2.043   4.136   0.551  0.3799  0.2174  0.5565
  561SOL    MW4 2291   2.109   4.181   0.586  0.1390  0.4158  0.7603
  562SOL     OW 2292   1.389   0.865   1.241  0.9812  0.5912  0.1234
  562SOL    HW2 2293   1.418   0.946   1.200 -1.3268  0.7068 -1.3494
  562SOL    HW3 2294   1.313   0.838   1.190  1.5928 -2.4065  0.7109
  562SOL    MW4 2295   1.383   0.872   1.229  0.7572  0.2109  0.0066
  563SOL     OW 2296   2.525   1.786   0.803  0.5026 -0.3315  0.4627
  563SOL    HW2 2297   2.529   1.694   0.827 -1.0466  0.0114  2.1472
  563SOL    HW3 2298   2.522   1.786   0.707 -1.5887 -2.1221  0.4818
  563SOL    MW4 2299   2.525   1.774   0.793  0.0224 -0.5226  0.6875
  564SOL     OW 2300   0.941   1.160   1.169 -0.1733 -0.0567 -0.1302
  564SOL    HW2 2301   0.960   1.206   1.086 -0.5550 -0.2384 -0.3203
  564SOL    HW3 2302   0.875   1.215   1.212  1.1146  0.8180  0.7438
  564SOL    MW4 2303   0.935   1.174   1.163 -0.0538  0.0347 -0.0398
  565SOL     OW 2304   1.343   2.000   0.891  0.2681 -0.6210 -0.1327
  565SOL    HW2 2305   1.339   1.967   0.981 -0.8552 -0.5449 -0.1527
  565SOL    HW3 2306   1.425   1.964   0.856  0.7199 -0.6465  0.9185
  565SOL    MW4 2307   1.353   1.991   0.898  0.1796 -0.6144  0.0033
  566SOL     OW 2308   0.686   2.349   1.168 -0.2787 -0.0426  0.1082
  566SOL    HW2 2309   0.687   2.355   1.073 -0.9446 -0.1678  0.0906
  566SOL    HW3 2310   0.607   2.396   1.194  0.6246  1.2094  0.6875
  566SOL    MW4 2311   0.676   2.356   1.159 -0.2474  0.1059  0.1822
  567SOL     OW 2312   0.997   3.228   0.375 -0.1773 -0.2673  0.1054
  567SOL    HW2 2313   0.922   3.252   0.322  0.4018  0.6960 -0.2860
  567SOL    HW3 2314   0.964   3.229   0.465 -0.0518  2.5644  0.1729
  567SOL    MW4 2315   0.983   3.231   0.380 -0.0844  0.2332  0.0627
  568SOL     OW 2316   1.590   2.036   1.235 -0.0274  0.1680 -0.1640
  568SOL    HW2 2317   1.583   2.126   1.203  1.2475  0.3804  0.1526
  568SOL    HW3 2318   1.509   1.994   1.205 -1.3132  1.8093  0.9417
  568SOL    MW4 2319   1.578   2.042   1.226 -0.0288  0.4122  0.0236
  569SOL     OW 2320   1.749   2.736   1.187  0.9677  0.1480  0.4467
  569SOL    HW2 2321   1.778   2.654   1.228  1.4937  0.1611  0.1023
  569SOL    HW3 2322   1.763   2.723   1.094 -2.2559 -0.7111  0.0064
  569SOL    MW4 2323   1.754   2.723   1.180  0.6118  0.0362  0.3432
  570SOL     OW 2324   4.414   3.510   0.922  0.6942 -0.2456  0.2218
  570SOL    HW2 2325   4.442   3.598   0.899  1.7768 -0.6153  0.0876
  570SOL    HW3 2326   4.465   3.453   0.865 -0.4300 -0.9418 -0.1144
  570SOL    MW4 2327   4.424   3.514   0.911  0.6890 -0.3860  0.1598
  571SOL     OW 2328   1.968   3.572   0.540 -0.2280 -0.1686  0.5182
  571SOL    HW2 2329   1.946   3.577   0.447 -0.3284  1.4845  0.6052
  571SOL    HW3 2330   2.056   3.610   0.545 -0.0882 -0.5721  1.0443
  571SOL    MW4 2331   1.977   3.578   0.528 -0.2228 -0.0033  0.5991
  572SOL     OW 2332   1.558   2.926   1.218 -0.1893  0.5128 -0.1007
  572SOL    HW2 2333   1.632   2.867   1.208  0.3306  0.5490  2.8926
  572SOL    HW3 2334   1.577   2.999   1.159  2.3786  0.6995  0.8790
  572SOL    MW4 2335   1.570   2.928   1.209  0.2180  0.5422  0.4236
  573SOL     OW 2336   1.577   3.152   1.032 -0.0252 -0.8652  0.3500
  573SOL    HW2 2337   1.656   3.188   1.072  0.5205 -1.4465 -0.1847
  573SOL    HW3 2338   1.506   3.204   1.068  0.9203  2.5343 -2.3678
  573SOL    MW4 2339   1.578   3.163   1.042  0.1715 -0.4935 -0.0792
  574SOL     OW 2340   1.390   3.283   1.173  0.1507 -0.0345  0.3103
  574SOL    HW2 2341   1.423   3.254   1.258  1.1541 -0.1844 -0.1339
  574SOL    HW3 2342   1.311   3.229   1.159 -0.3534  0.4033  1.4093
  574SOL    MW4 2343   1.384   3.272   1.182  0.2166  0.0036  0.3966
  575SOL     OW 2344   1.155   3.626   1.237  0.4754  0.3780  0.0477
  575SOL    HW2 2345   1.238   3.598   1.198  0.1215 -0.9723  0.2498
  575SOL    HW3 2346   1.088   3.584   1.182 -0.0366 -1.4014  1.9727
  575SOL    MW4 2347   1.157   3.617   1.224  0.3612 -0.0350  0.3283
  576SOL     OW 2348   1.585   3.676   1.301  0.6832 -0.1472 -0.4574
  576SOL    HW2 2349   1.658   3.614   1.291 -1.3897 -3.0287  1.3682
  576SOL    HW3 2350   1.522   3.649   1.234 -0.5740 -0.5655  0.8763
  576SOL    MW4 2351   1.587   3.664   1.291  0.2438 -0.5825 -0.0405
  577SOL     OW 2352   1.497   3.941   1.291  0.2622 -0.3651  0.1366
  577SOL    HW2 2353   1.430   3.943   1.222 -1.2117 -0.2289  1.5241
  577SOL    HW3 2354   1.535   3.854   1.286 -0.1524 -0.5089 -0.5553
  577SOL    MW4 2355   1.493   3.930   1.281  0.0131 -0.3657  0.2283
  578SOL     OW 2356   1.333   3.952   1.055 -0.4618 -0.2396 -0.0956
  578SOL    HW2 2357   1.375   4.038   1.049 -0.6359 -0.2792 -2.0231
  578SOL    HW3 2358   1.240   3.972   1.072 -0.6155 -0.0366 -1.1791
  578SOL    MW4 2359   1.326   3.966   1.057 -0.5052 -0.2179 -0.4929
  579SOL     OW 2360   1.408   0.225   1.246  0.3745 -0.1103  0.3648
  579SOL    HW2 2361   1.408   0.302   1.188  1.5684 -0.5036 -0.1921
  579SOL    HW3 2362   1.463   0.161   1.200  0.3488 -0.8738  1.3751
  579SOL    MW4 2363   1.416   0.227   1.232  0.5286 -0.2629  0.4245
  580SOL     OW 2364   2.320   0.194   0.897 -0.0521 -0.2453 -0.0936
  580SOL    HW2 2365   2.256   0.220   0.830 -0.1198  0.4064  0.2256
  580SOL    HW3 2366   2.306   0.255   0.968  1.7364  0.6368 -0.4923
  580SOL    MW4 2367   2.310   0.205   0.897  0.1752 -0.0430 -0.1041
  581SOL     OW 2368   2.218   4.578   0.558 -0.3334 -0.1692  0.0071
  581SOL    HW2 2369   2.257   4.559   0.644 -0.1723  2.9105  0.6833
  581SOL    HW3 2370   2.124   4.580   0.575 -0.2998  0.4694  0.1394
  581SOL    MW4 2371   2.211   4.576   0.572 -0.3076  0.3214  0.1138
  582SOL     OW 2372   2.073   4.386   1.237 -0.7207  0.3708 -0.1293
  582SOL    HW2 2373   2.043   4.310   1.188  0.1270 -0.6639  0.9300
  582SOL    HW3 2374   2.025   4.382   1.320 -1.9814  1.9890 -0.7417
  582SOL    MW4 2375   2.063   4.375   1.242 -0.7751  0.4478 -0.0703
  583SOL     OW 2376   2.745   0.655   0.608 -0.1191  0.7646 -0.1677
  583SOL    HW2 2377   2.664   0.640   0.656  0.9965 -1.8035  0.9976
  583SOL    HW3 2378   2.807   0.686   0.674  0.4904  0.4591 -0.5909
  583SOL    MW4 2379   2.742   0.657   0.623  0.1085  0.3854 -0.0698
  584SOL     OW 2380   2.278   4.026   0.762  0.0913  0.2374 -0.2874
  584SOL    HW2 2381   2.227   4.066   0.692  0.3717 -3.9215 -3.0258
  584SOL    HW3 2382   2.363   4.009   0.723  0.1469 -2.4705  0.9422
  584SOL    MW4 2383   2.282   4.029   0.748  0.1357 -0.6690 -0.4864
  585SOL     OW 2384   3.600   0.522   0.818 -0.5907  0.8423  0.1725
  585SOL    HW2 2385   3.639   0.551   0.735 -0.4998 -0.0345 -0.0955
  585SOL    HW3 2386   3.514   0.488   0.794 -0.1076 -0.4905  0.2585
  585SOL    MW4 2387   3.594   0.521   0.804 -0.5147  0.5507  0.1485
  586SOL     OW 2388   1.912   0.873   1.282 -0.0576  0.5783 -0.6074
  586SOL    HW2 2389   1.864   0.892   1.362 -1.0985  0.3737 -1.1841
  586SOL    HW3 2390   1.860   0.914   1.213  0.9883  1.0065 -1.1493
  586SOL    MW4 2391   1.899   0.881   1.284 -0.0570  0.6078 -0.7550
  587SOL     OW 2392   1.446   1.297   1.285  0.5279  0.0042 -0.0838
  587SOL    HW2 2393   1.485   1.226   1.233  0.3801 -0.3848  0.3304
  587SOL    HW3 2394   1.353   1.274   1.291  0.1083  1.2434 -1.5764
  587SOL    MW4 2395   1.439   1.284   1.279  0.4531  0.1165 -0.2261
  588SOL     OW 2396   1.828   0.542   0.443  0.3279  0.6379  0.2093
  588SOL    HW2 2397   1.736   0.533   0.420  0.3852  0.6625 -0.0298
  588SOL    HW3 2398   1.868   0.461   0.410  0.2519  0.2648  1.0139
  588SOL    MW4 2399   1.821   0.530   0.436  0.3254  0.5919  0.2839
  589SOL     OW 2400   0.447   1.584   0.589 -0.3186  0.2450 -0.3121
  589SOL    HW2 2401   0.541   1.595   0.598 -0.4772  1.2370  0.2112
  589SOL    HW3 2402   0.417   1.562   0.677 -0.5453 -0.3076 -0.5257
  589SOL    MW4 2403   0.455   1.583   0.602 -0.3694  0.3029 -0.2713
  590SOL     OW 2404   1.735   1.603   1.243 -0.0432  0.6659 -0.1260
  590SOL    HW2 2405   1.767   1.679   1.196  0.8141 -0.3772 -1.2612
  590SOL    HW3 2406   1.654   1.578   1.197 -1.1964  1.8185  1.2202
  590SOL    MW4 2407   1.728   1.609   1.231 -0.0823  0.6804 -0.0982
  591SOL     OW 2408   1.411   3.094   0.375 -0.3174 -0.8399 -0.2908
  591SOL    HW2 2409   1.410   3.168   0.315  0.1478 -1.1689 -0.7098
  591SOL    HW3 2410   1.322   3.060   0.373 -0.9387  0.6431  1.0800
  591SOL    MW4 2411   1.399   3.099   0.367 -0.3381 -0.6876 -0.1653
  592SOL     OW 2412   2.226   1.892   1.118 -0.0156  0.2874 -0.3150
  592SOL    HW2 2413   2.168   1.936   1.181  0.5347  0.1896  0.2633
  592SOL    HW3 2414   2.229   1.801   1.148 -0.6629 -0.0117 -1.1525
  592SOL    MW4 2415   2.219   1.886   1.131 -0.0281  0.2351 -0.3492
  593SOL     OW 2416   2.583   3.087   0.848 -0.0208  0.2873 -0.1512
  593SOL    HW2 2417   2.571   3.041   0.932 -2.4355 -1.4265 -1.3703
  593SOL    HW3 2418   2.675   3.074   0.826  0.6962  0.8999  2.2952
  593SOL    MW4 2419   2.593   3.079   0.856 -0.2451  0.1421  0.0107
  594SOL     OW 2420   1.805   2.449   1.306  0.3932  0.2334  0.0905
  594SOL    HW2 2421   1.876   2.392   1.276  0.8216 -0.5965  2.5734
  594SOL    HW3 2422   1.726   2.406   1.275  0.8593 -0.1921 -0.5294
  594SOL    MW4 2423   1.804   2.436   1.298  0.5113  0.0677  0.3363
  595SOL     OW 2424   1.623   1.422   0.902 -0.0763 -0.2032  0.1028
  595SOL    HW2 2425   1.594   1.487   0.839 -1.2313  0.6276  1.4579
  595SOL    HW3 2426   1.563   1.349   0.891 -0.2602 -0.0686  0.1961
  595SOL    MW4 2427   1.611   1.421   0.892 -0.2530 -0.0757  0.2939
  596SOL     OW 2428   2.489   3.119   1.167 -0.1353 -0.7731 -0.0193
  596SOL    HW2 2429   2.493   3.031   1.202  0.9447 -0.2814  1.1420
  596SOL    HW3 2430   2.575   3.156   1.187 -0.5049  0.4649 -0.6815
  596SOL    MW4 2431   2.501   3.113   1.174 -0.0417 -0.5448  0.0465
  597SOL     OW 2432   3.133   2.683   1.140 -0.4403  0.1994  0.4678
  597SOL    HW2 2433   3.120   2.597   1.180  0.6682 -0.0527  0.2916
  597SOL    HW3 2434   3.051   2.730   1.157 -0.9955 -0.8348  0.6928
  597SOL    MW4 2435   3.120   2.678   1.147 -0.3672  0.0298  0.4743
  598SOL     OW 2436   1.822   3.233   1.229  0.0333 -0.1623  0.1672
  598SOL    HW2 2437   1.808   3.234   1.323 -1.7559  1.8608 -0.0647
  598SOL    HW3 2438   1.826   3.326   1.204  2.8010 -0.6488 -1.4535
  598SOL    MW4 2439   1.821   3.246   1.238  0.1622  0.0403 -0.0771
  599SOL     OW 2440   1.795   3.513   1.199  0.0447 -0.8387  0.2546
  599SOL    HW2 2441   1.884   3.548   1.206 -0.4824  0.8531 -1.0161
  599SOL    HW3 2442   1.767   3.538   1.111 -1.4366 -1.9847  0.3869
  599SOL    MW4 2443   1.803   3.521   1.188 -0.2202 -0.7665  0.1044
  600SOL     OW 2444   2.065   3.598   1.213 -0.0091 -0.0634  0.5824
  600SOL    HW2 2445   2.053   3.594   1.308  0.4007 -1.4873  0.5938
  600SOL    HW3 2446   2.152   3.562   1.198 -1.4502 -3.2603 -0.5944
  600SOL    MW4 2447   2.074   3.592   1.224 -0.1452 -0.6733  0.4287
  601SOL     OW 2448   1.663   4.132   0.872  0.3620  0.3513 -0.0820
  601SOL    HW2 2449   1.710   4.188   0.810  0.1623 -1.1787 -1.6412
  601SOL    HW3 2450   1.730   4.103   0.934  0.9537  0.3351 -0.7205
  601SOL    MW4 2451   1.678   4.136   0.872  0.4137  0.1473 -0.3719
  602SOL     OW 2452   1.733   4.079   1.291  0.0385  0.2355  0.3096
  602SOL    HW2 2453   1.773   4.058   1.375 -0.3571  1.9165  0.9380
  602SOL    HW3 2454   1.652   4.028   1.289  0.5961 -0.6651  0.4492
  602SOL    MW4 2455   1.727   4.069   1.302  0.0600  0.3390  0.4110
  603SOL     OW 2456   1.623   4.315   1.241 -0.0498 -0.3772 -0.1376
  603SOL    HW2 2457   1.667   4.237   1.277 -2.7001 -1.7077  0.3962
  603SOL    HW3 2458   1.598   4.365   1.319  0.9218  0.6086 -0.4553
  603SOL    MW4 2459   1.626   4.311   1.256 -0.2712 -0.4230 -0.1092
  604SOL     OW 2460   2.154   0.249   0.681  0.1834 -0.1478 -0.3350
  604SOL    HW2 2461   2.168   0.343   0.686 -1.4363 -0.0040  2.2521
  604SOL    HW3 2462   2.200   0.222   0.601  0.5553  2.8241 -1.1726
  604SOL    MW4 2463   2.162   0.258   0.671  0.0191  0.2633 -0.1041
  605SOL     OW 2464   3.268   0.057   0.485  0.1308  0.2624 -0.4761
  605SOL    HW2 2465   3.298  -0.017   0.432 -2.7634 -1.6138  0.3338
  605SOL    HW3 2466   3.172   0.050   0.484 -0.0892  1.7982  2.6623
  605SOL    MW4 2467   3.259   0.046   0.478 -0.2799  0.2175  0.0449
  606SOL     OW 2468   2.329   4.457   1.309  0.2882  0.2582 -0.2220
  606SOL    HW2 2469   2.238   4.450   1.279  0.0746 -0.0346  0.4894
  606SOL    HW3 2470   2.363   4.535   1.265  0.4765 -1.0854 -2.5234
  606SOL    MW4 2471   2.322   4.467   1.299  0.2847  0.0424 -0.4319
  607SOL     OW 2472   2.497   0.457   1.288 -0.0013 -0.1731  0.5692
  607SOL    HW2 2473   2.578   0.429   1.244  1.0916  0.3709  2.1771
  607SOL    HW3 2474   2.519   0.454   1.382 -1.9749 -0.3975  1.0406
  607SOL    MW4 2475   2.511   0.453   1.295 -0.1175 -0.1310  0.8436
  608SOL     OW 2476   2.291   1.211   0.828 -0.6502 -0.1212 -0.1443
  608SOL    HW2 2477   2.348   1.187   0.755  0.5332 -1.3342  1.1515
  608SOL    HW3 2478   2.253   1.295   0.803  0.7247  0.0793 -1.5789
  608SOL    MW4 2479   2.293   1.219   0.815 -0.3126 -0.2548 -0.1627
  609SOL     OW 2480   0.932   3.946   0.417  0.6812  0.0090  0.4423
  609SOL    HW2 2481   0.865   3.878   0.424  1.6678 -0.9241  1.1363
  609SOL    HW3 2482   0.884   4.027   0.400 -0.6025 -0.6671  0.8185
  609SOL    MW4 2483   0.917   3.948   0.416  0.6419 -0.2036  0.5834
  610SOL     OW 2484   2.233   1.140   1.120 -0.2163 -0.1346  0.1067
  610SOL    HW2 2485   2.299   1.176   1.179 -1.2106 -1.4436  2.0723
  610SOL    HW3 2486   2.263   1.164   1.032  2.8605 -0.7179  0.9617
  610SOL    MW4 2487   2.246   1.148   1.116  0.0584 -0.3842  0.4787
  611SOL     OW 2488   1.961   3.274   0.306  0.1262 -0.2733 -0.4450
  611SOL    HW2 2489   1.931   3.207   0.368  0.8835  0.3678  0.6461
  611SOL    HW3 2490   2.052   3.250   0.289  0.1360 -0.0212 -0.7373
  611SOL    MW4 2491   1.969   3.262   0.312  0.2275 -0.1557 -0.3396
  612SOL     OW 2492   1.468   1.631   0.783  0.0055 -0.0711  0.6587
  612SOL    HW2 2493   1.394   1.601   0.835  0.2632 -1.6540  0.1371
  612SOL    HW3 2494   1.444   1.611   0.693  0.4011  0.8558  0.3397
  612SOL    MW4 2495   1.455   1.625   0.778  0.0918 -0.1576  0.5478
  613SOL     OW 2496   2.443   1.526   1.168 -0.4438  0.2613  0.3240
  613SOL    HW2 2497   2.356   1.557   1.195  0.0230  2.6502 -0.7878
  613SOL    HW3 2498   2.451   1.554   1.077  1.5247  0.1513  0.4388
  613SOL    MW4 2499   2.432   1.534   1.160 -0.1225  0.5620  0.1925
  614SOL     OW 2500   3.463   2.415   0.353 -0.4143  0.5697 -0.6558
  614SOL    HW2 2501   3.428   2.327   0.345 -0.4899  0.4346  1.1132
  614SOL    HW3 2502   3.400   2.470   0.306 -0.5464 -0.2641 -1.4649
  614SOL    MW4 2503   3.450   2.411   0.346 -0.4418  0.4420 -0.5291
  615SOL     OW 2504   1.134   3.853   0.639 -0.2223 -0.3380 -0.4869
  615SOL    HW2 2505   1.222   3.826   0.665  0.1086  0.4533 -0.7789
  615SOL    HW3 2506   1.134   3.948   0.650 -2.4828 -0.6854  4.0120
  615SOL    MW4 2507   1.145   3.862   0.644 -0.4770 -0.2794  0.0681
  616SOL     OW 2508   2.451   2.028   1.237 -0.4906 -0.2693 -0.1065
  616SOL    HW2 2509   2.528   1.996   1.191  0.3567  0.2796  0.8999
  616SOL    HW3 2510   2.377   1.983   1.196  0.3945 -1.0432 -0.8603
  616SOL    MW4 2511   2.451   2.018   1.226 -0.2620 -0.2990 -0.0731
  617SOL     OW 2512   1.802   3.100   0.758  0.0750 -0.1301 -0.6170
  617SOL    HW2 2513   1.885   3.071   0.797  0.2462  1.0008 -0.1440
  617SOL    HW3 2514   1.820   3.105   0.664  0.2171 -0.9436 -0.6443
  617SOL    MW4 2515   1.815   3.097   0.750  0.1165 -0.0882 -0.5583
  618SOL     OW 2516   2.204   2.482   1.238  0.1093  0.0064  0.6540
  618SOL    HW2 2517   2.215   2.502   1.331  0.5942  0.2840  0.5404
  618SOL    HW3 2518   2.279   2.427   1.216 -0.3609 -0.6025  0.5816
  618SOL    MW4 2519   2.216   2.478   1.247  0.1113 -0.0374  0.6294
  619SOL     OW 2520   1.172   2.366   1.140  0.3288  0.5509  0.4666
  619SOL    HW2 2521   1.082   2.389   1.165  0.3659 -0.1710  1.3127
  619SOL    HW3 2522   1.174   2.374   1.045 -0.3050  1.7127  0.5495
  619SOL    MW4 2523   1.160   2.370   1.131  0.2501  0.6089  0.5891
  620SOL     OW 2524   2.654   2.456   1.259  0.2837 -0.2219  0.0360
  620SOL    HW2 2525   2.676   2.455   1.353  0.3441  0.0905  0.0258
  620SOL    HW3 2526   2.575   2.402   1.253 -0.4587  0.7908  0.4529
  620SOL    MW4 2527   2.647   2.449   1.271  0.1936 -0.0474  0.0896
  621SOL     OW 2528   2.241   2.732   1.097 -0.6729  0.1154  0.3107
  621SOL    HW2 2529   2.304   2.789   1.141 -0.5035 -0.0424  0.2725
  621SOL    HW3 2530   2.238   2.654   1.152 -0.2212 -0.2144 -0.1364
  621SOL    MW4 2531   2.249   2.729   1.110 -0.5910  0.0510  0.2468
  622SOL     OW 2532   0.153   0.968   0.702  0.3962 -0.0620  0.5306
  622SOL    HW2 2533   0.203   1.049   0.690 -1.1330  0.5432 -2.1198
  622SOL    HW3 2534   0.077   0.995   0.754 -0.6049  0.4330 -1.1604
  622SOL    MW4 2535   0.150   0.982   0.707  0.0623  0.0832 -0.0422
  623SOL     OW 2536   2.528   3.588   1.219 -0.2962 -0.2883  0.2364
  623SOL    HW2 2537   2.513   3.600   1.313 -2.3873  1.7157 -0.2947
  623SOL    HW3 2538   2.445   3.554   1.186 -0.2996  1.0331 -1.1793
  623SOL    MW4 2539   2.515   3.585   1.227 -0.5727  0.1504 -0.0205
  624SOL     OW 2540   2.744   3.453   1.145 -0.5897  0.2014 -0.2122
  624SOL    HW2 2541   2.673   3.504   1.184 -0.4769  0.0130  0.2439
  624SOL    HW3 2542   2.716   3.438   1.055 -1.5727 -0.6783  0.2264
  624SOL    MW4 2543   2.731   3.458   1.139 -0.7045  0.0606 -0.0942
  625SOL     OW 2544   2.697   4.055   1.198  0.3900  0.2055  0.0986
  625SOL    HW2 2545   2.632   3.988   1.175  1.0498  0.0962 -1.5170
  625SOL    HW3 2546   2.651   4.138   1.188  0.7181  0.1663 -1.8323
  625SOL    MW4 2547   2.682   4.057   1.194  0.5205  0.1855 -0.3694
  626SOL     OW 2548   2.265   3.978   1.276  0.1195  0.2862 -0.2040
  626SOL    HW2 2549   2.351   3.951   1.244 -0.1216 -0.3550 -0.3026
  626SOL    HW3 2550   2.242   4.053   1.221  0.3163  0.0431 -0.6218
  626SOL    MW4 2551   2.273   3.984   1.265  0.1137  0.1695 -0.2719
  627SOL     OW 2552   1.951   3.992   0.452 -0.0710 -0.5862  0.1365
  627SOL    HW2 2553   1.921   3.937   0.525  0.7631 -0.0862  0.8615
  627SOL    HW3 2554   2.020   3.940   0.410  0.6125 -0.1774  0.7307
  627SOL    MW4 2555   1.956   3.978   0.456  0.1293 -0.4661  0.3106
  628SOL     OW 2556   2.914   3.890   1.123  0.0945  0.0922 -0.0001
  628SOL    HW2 2557   2.841   3.949   1.141 -0.8100 -0.1976 -2.4841
  628SOL    HW3 2558   2.992   3.941   1.141 -0.7045  0.9297  1.1294
  628SOL    MW4 2559   2.915   3.904   1.128 -0.1302  0.1645 -0.1789
  629SOL     OW 2560   3.365   3.619   1.186  0.8373  0.0236 -0.5784
  629SOL    HW2 2561   3.443   3.565   1.177  0.1731 -1.0299 -0.0620
  629SOL    HW3 2562   3.293   3.562   1.159  0.0055  0.2771  1.0484
  629SOL    MW4 2563   3.366   3.604   1.181  0.6399 -0.0820 -0.2956
  630SOL     OW 2564   3.387   4.478   0.700  0.3942  0.1020  0.2606
  630SOL    HW2 2565   3.388   4.416   0.627  1.0553  0.2347  0.1555
  630SOL    HW3 2566   3.469   4.527   0.691  0.4651  0.1348  1.0833
  630SOL    MW4 2567   3.398   4.476   0.689  0.4909  0.1240  0.3554
  631SOL     OW 2568   2.678   0.064   1.241  0.4420 -0.3060  0.1207
  631SOL    HW2 2569   2.684   0.044   1.334  0.8775 -0.3667  0.0800
  631SOL    HW3 2570   2.584   0.071   1.224  0.4063  1.2367  0.8842
  631SOL    MW4 2571   2.666   0.062   1.251  0.4947 -0.1104  0.2161
  632SOL     OW 2572   2.950   0.507   1.233 -0.0033 -0.4248 -0.3471
  632SOL    HW2 2573   2.877   0.454   1.200 -1.1316  0.1306  1.2011
  632SOL    HW3 2574   2.933   0.595   1.198  0.4266 -0.4885 -0.7253
  632SOL    MW4 2575   2.938   0.512   1.224 -0.0956 -0.3600 -0.1929
  633SOL     OW 2576   2.890   0.756   1.127  0.3430  0.6769 -0.6313
  633SOL    HW2 2577   2.970   0.790   1.167  0.9248 -1.4098  0.0817
  633SOL    HW3 2578   2.820   0.780   1.188  1.1273 -1.8469  1.3646
  633SOL    MW4 2579   2.891   0.763   1.140  0.5233  0.0686 -0.2738
  634SOL     OW 2580   2.426   0.791   0.946 -0.1619  0.1905 -0.2036
  634SOL    HW2 2581   2.433   0.763   1.038 -0.8194  1.0625  0.1288
  634SOL    HW3 2582   2.482   0.868   0.941  1.8491 -1.3163 -1.1721
  634SOL    MW4 2583   2.434   0.798   0.958  0.0167  0.1068 -0.2875
  635SOL     OW 2584   2.462   1.256   1.273  0.1715 -0.4014 -0.1753
  635SOL    HW2 2585   2.461   1.259   1.369 -0.3585 -1.6805 -0.1324
  635SOL    HW3 2586   2.467   1.348   1.247 -0.5086  0.0116  1.0727
  635SOL    MW4 2587   2.462   1.269   1.282  0.0117 -0.5157 -0.0050
  636SOL     OW 2588   2.906   1.242   1.234  0.6958  0.6979 -0.5896
  636SOL    HW2 2589   2.894   1.265   1.326 -1.8439 -1.5207 -0.2860
  636SOL    HW3 2590   2.902   1.325   1.187  0.9640  1.7424  1.1979
  636SOL    MW4 2591   2.904   1.256   1.240  0.3958  0.5430 -0.3138
  637SOL     OW 2592   2.878   1.529   1.125 -0.2425 -0.2509 -0.0658
  637SOL    HW2 2593   2.965   1.567   1.131  0.0984 -1.2097  1.0932
  637SOL    HW3 2594   2.874   1.491   1.037  0.1218  0.7122 -0.4984
  637SOL    MW4 2595   2.889   1.529   1.114 -0.1495 -0.2503  0.0299
  638SOL     OW 2596   2.658   1.655   1.243  0.0302 -0.6444  0.3635
  638SOL    HW2 2597   2.723   1.596   1.206  0.8329  1.3025 -1.4825
  638SOL    HW3 2598   2.574   1.615   1.220  0.5144  0.1348 -3.1190
  638SOL    MW4 2599   2.655   1.642   1.235  0.2000 -0.2848 -0.3394
  639SOL     OW 2600   2.702   1.931   1.159  0.1947  0.2683 -0.2264
  639SOL    HW2 2601   2.790   1.955   1.188  0.3109 -1.7608  1.1863
  639SOL    HW3 2602   2.694   1.838   1.180 -2.0509  0.2637 -0.9494
  639SOL    MW4 2603   2.712   1.922   1.166 -0.0863  0.0000 -0.1355
  640SOL     OW 2604   3.609   2.008   0.377  0.4263 -0.1343  0.1155
  640SOL    HW2 2605   3.532   2.046   0.335  0.6392  0.7653  0.5130
  640SOL    HW3 2606   3.587   1.916   0.389 -2.1123  0.8116  3.6101
  640SOL    MW4 2607   3.596   2.001   0.373  0.1192  0.1094  0.6290
  641SOL     OW 2608   3.740   2.509   0.255  0.4715  0.3631 -0.0829
  641SOL    HW2 2609   3.650   2.478   0.260  0.2174  1.3556  1.8658
  641SOL    HW3 2610   3.793   2.429   0.252 -0.3927 -0.2449  0.5870
  641SOL    MW4 2611   3.735   2.494   0.255  0.3238  0.4139  0.2626
  642SOL     OW 2612   2.608   2.740   0.853  0.4096  0.0312  0.4551
  642SOL    HW2 2613   2.636   2.798   0.783  0.4962  1.1984  1.4279
  642SOL    HW3 2614   2.513   2.747   0.854  0.4237  0.2269  0.6137
  642SOL    MW4 2615   2.599   2.748   0.844  0.4232  0.2112  0.6043
  643SOL     OW 2616   2.313   0.762   0.506 -0.3713  0.5620 -0.3389
  643SOL    HW2 2617   2.233   0.809   0.483 -0.7624  0.2751  0.4591
  643SOL    HW3 2618   2.383   0.814   0.465 -0.9156  1.0855 -0.6151
  643SOL    MW4 2619   2.312   0.775   0.497 -0.4947  0.5932 -0.2700
  644SOL     OW 2620   3.388   2.832   1.190 -0.0936 -0.4587 -0.5768
  644SOL    HW2 2621   3.377   2.920   1.152  0.2198 -0.3864 -0.5021
  644SOL    HW3 2622   3.302   2.792   1.183 -0.3450  0.0150 -0.2240
  644SOL    MW4 2623   3.375   2.839   1.184 -0.0854 -0.3865 -0.5205
  645SOL     OW 2624   3.401   2.028   0.888 -0.2349 -0.9461 -0.0660
  645SOL    HW2 2625   3.460   2.076   0.830  0.2325  0.3354  1.4407
  645SOL    HW3 2626   3.368   1.956   0.834 -0.3638  0.6116 -2.1360
  645SOL    MW4 2627   3.404   2.025   0.873 -0.1900 -0.5715 -0.1402
  646SOL     OW 2628   3.824   3.675   1.185  0.0637 -0.2840 -0.0840
  646SOL    HW2 2629   3.814   3.665   1.280 -1.7030  0.2463 -0.2020
  646SOL    HW3 2630   3.755   3.621   1.147 -0.1538  0.6463 -1.0389
  646SOL    MW4 2631   3.814   3.667   1.193 -0.1981 -0.0916 -0.2257
  647SOL     OW 2632   0.513   4.411   0.629  0.5160  0.2419 -0.1157
  647SOL    HW2 2633   0.537   4.478   0.565 -1.5859  0.8946 -0.2608
  647SOL    HW3 2634   0.419   4.423   0.642  0.5435 -1.1967  1.5923
  647SOL    MW4 2635   0.504   4.422   0.622  0.2424  0.1378  0.0905
  648SOL     OW 2636   3.351   3.599   0.748 -0.6976  0.1650 -0.0087
  648SOL    HW2 2637   3.373   3.681   0.792 -0.4941  0.4511 -0.6397
  648SOL    HW3 2638   3.310   3.626   0.666 -0.4950 -0.3609 -0.2855
  648SOL    MW4 2639   3.349   3.613   0.743 -0.6440  0.1333 -0.1284
  649SOL     OW 2640   2.958   3.628   1.216 -0.4261  0.4033 -0.0776
  649SOL    HW2 2641   2.881   3.579   1.186  0.6591 -0.4951 -1.4594
  649SOL    HW3 2642   2.952   3.713   1.171  0.5031 -0.4593 -1.8905
  649SOL    MW4 2643   2.947   3.633   1.206 -0.1602  0.1709 -0.4990
  650SOL     OW 2644   2.761   4.023   0.840  0.1837 -0.4719 -0.8791
  650SOL    HW2 2645   2.709   3.943   0.845 -1.1011  0.3454 -0.8419
  650SOL    HW3 2646   2.701   4.089   0.804  0.6852  0.8925  0.6721
  650SOL    MW4 2647   2.746   4.021   0.836  0.0801 -0.1845 -0.6696
  651SOL     OW 2648   2.578   3.817   0.840  0.2323  0.1764  0.2618
  651SOL    HW2 2649   2.536   3.731   0.839 -0.5197  0.5351  0.5658
  651SOL    HW3 2650   2.570   3.849   0.750 -0.2126  0.2726  0.3342
  651SOL    MW4 2651   2.571   3.810   0.828  0.0741  0.2365  0.3114
  652SOL     OW 2652   3.381   4.344   1.283 -0.2364 -0.5549  0.0069
  652SOL    HW2 2653   3.458   4.337   1.227 -0.2704  2.2796 -0.4434
  652SOL    HW3 2654   3.307   4.329   1.224 -0.1491 -0.8066 -0.0414
  652SOL    MW4 2655   3.381   4.341   1.268 -0.2294 -0.2141 -0.0589
  653SOL     OW 2656   1.400   0.592   0.716  0.4153 -0.2349  0.1975
  653SOL    HW2 2657   1.484   0.633   0.740 -0.7224  2.0604  0.4557
  653SOL    HW3 2658   1.388   0.616   0.624 -0.5450  0.5742  0.5173
  653SOL    MW4 2659   1.410   0.601   0.707  0.1386  0.1747  0.2738
  654SOL     OW 2660   2.911   4.372   1.539 -0.2478  0.1626  0.0509
  654SOL    HW2 2661   2.919   4.462   1.571 -1.2948  0.6998 -1.1241
  654SOL    HW3 2662   2.913   4.381   1.443 -0.9660 -0.9936 -0.0849
  654SOL    MW4 2663   2.912   4.385   1.530 -0.4811  0.0806 -0.1220
  655SOL     OW 2664   2.222   3.415   0.879  0.1418 -0.2151 -0.0891
  655SOL    HW2 2665   2.232   3.333   0.830  0.0866  0.3207 -1.0098
  655SOL    HW3 2666   2.134   3.445   0.858  0.0510 -0.0706  0.4861
  655SOL    MW4 2667   2.212   3.408   0.870  0.1225 -0.1254 -0.1347
  656SOL     OW 2668   3.092   2.427   1.248  0.1972 -0.3083  0.4994
  656SOL    HW2 2669   3.163   2.371   1.217 -1.2330 -1.7410 -0.2691
  656SOL    HW3 2670   3.102   2.429   1.343  2.2013  0.8041  0.2789
  656SOL    MW4 2671   3.102   2.420   1.256  0.2732 -0.3505  0.3690
  657SOL     OW 2672   1.386   4.404   0.498  0.5928  0.1072  0.1440
  657SOL    HW2 2673   1.393   4.362   0.583  0.1362  1.0424  0.6551
  657SOL    HW3 2674   1.336   4.343   0.444 -1.1435  0.5503  1.2432
  657SOL    MW4 2675   1.381   4.391   0.502  0.3035  0.2894  0.3565
  658SOL     OW 2676   3.124   0.839   1.246  0.1774 -0.1544  0.0215
  658SOL    HW2 2677   3.116   0.835   1.342  1.9113 -1.0214  0.1596
  658SOL    HW3 2678   3.127   0.933   1.227 -0.7690  0.0329  0.7619
  658SOL    MW4 2679   3.124   0.851   1.256  0.2813 -0.2441  0.1374
  659SOL     OW 2680   4.421   4.224   0.902 -0.2698 -0.2613 -0.4078
  659SOL    HW2 2681   4.484   4.236   0.974 -1.2656  0.2604  0.3917
  659SOL    HW3 2682   4.366   4.302   0.905  0.0953  0.0864 -2.1865
  659SOL    MW4 2683   4.422   4.236   0.912 -0.3533 -0.1464 -0.5370
  660SOL     OW 2684   3.349   1.245   1.233  0.0027  0.4951 -0.5427
  660SOL    HW2 2685   3.357   1.248   1.328  0.1436  0.2615 -0.5489
  660SOL    HW3 2686   3.361   1.336   1.205  0.6675  0.4556 -0.3955
  660SOL    MW4 2687   3.352   1.258   1.242  0.1090  0.4591 -0.5242
  661SOL     OW 2688   3.379   1.505   1.163 -0.2461 -0.4618 -0.2698
  661SOL    HW2 2689   3.442   1.568   1.199 -0.1068 -0.3497 -0.7052
  661SOL    HW3 2690   3.294   1.546   1.178 -0.0403  0.8018 -2.4148
  661SOL    MW4 2691   3.376   1.519   1.170 -0.2005 -0.2804 -0.6102
  662SOL     OW 2692   3.121   1.661   1.153 -0.2954 -0.4682 -0.1414
  662SOL    HW2 2693   3.141   1.670   1.246  0.4379 -0.5920 -0.2808
  662SOL    HW3 2694   3.136   1.748   1.117  0.4169 -0.6630 -0.3227
  662SOL    MW4 2695   3.126   1.673   1.161 -0.1047 -0.5102 -0.1837
  663SOL     OW 2696   1.788   1.549   0.494  0.4061  0.2134  0.1278
  663SOL    HW2 2697   1.846   1.593   0.556 -1.1536  0.9844  1.1021
  663SOL    HW3 2698   1.726   1.618   0.468 -0.0565 -0.5825 -0.8980
  663SOL    MW4 2699   1.787   1.564   0.499  0.1394  0.2102  0.1210
  664SOL     OW 2700   3.333   2.033   1.223 -0.3416 -0.0089 -0.3502
  664SOL    HW2 2701   3.415   2.018   1.177  0.0311  0.0979  0.2869
  664SOL    HW3 2702   3.324   2.129   1.225 -0.2192 -0.0070  0.0517
  664SOL    MW4 2703   3.342   2.044   1.217 -0.2761  0.0055 -0.2131
  665SOL     OW 2704   2.923   4.324   0.685 -0.0487 -0.3520 -0.4692
  665SOL    HW2 2705   2.942   4.400   0.740 -1.9155 -0.0447 -0.2221
  665SOL    HW3 2706   2.933   4.357   0.595  0.3012 -0.1265 -0.3498
  665SOL    MW4 2707   2.927   4.339   0.680 -0.2489 -0.2823 -0.4209
  666SOL     OW 2708   3.320   2.309   1.150 -0.3499 -0.1283 -0.2000
  666SOL    HW2 2709   3.283   2.291   1.064  0.1305  1.3397 -0.7349
  666SOL    HW3 2710   3.386   2.377   1.134 -0.0115 -0.0904  1.2699
  666SOL    MW4 2711   3.324   2.315   1.136 -0.2420  0.0706 -0.0767
  667SOL     OW 2712   3.018   3.007   0.432  0.3828 -0.7045  0.0269
  667SOL    HW2 2713   3.023   2.996   0.527 -0.9620 -2.5357 -0.0803
  667SOL    HW3 2714   3.025   2.918   0.397  0.0864 -0.1227 -1.5566
  667SOL    MW4 2715   3.020   2.993   0.440  0.1664 -0.8693 -0.1962
  668SOL     OW 2716   3.640   4.608   0.690 -0.0124  0.1830  0.3521
  668SOL    HW2 2717   3.664   4.575   0.603  0.5218  0.3461  0.4341
  668SOL    HW3 2718   3.617   4.700   0.676 -1.3853 -0.1776  0.1436
  668SOL    MW4 2719   3.640   4.615   0.676 -0.1233  0.1574  0.3354
  669SOL     OW 2720   3.149   3.469   1.092 -0.0605 -0.2548  0.4232
  669SOL    HW2 2721   3.092   3.527   1.143 -0.2021 -0.2019  0.2046
  669SOL    HW3 2722   3.133   3.382   1.130 -1.5860 -0.5191 -0.7490
  669SOL    MW4 2723   3.139   3.465   1.104 -0.2806 -0.2828  0.2397
  670SOL     OW 2724   4.264   2.517   0.948 -0.0351  0.0675 -0.4397
  670SOL    HW2 2725   4.277   2.450   1.016 -0.9344 -0.2328 -0.5554
  670SOL    HW3 2726   4.316   2.486   0.874 -0.1766 -0.3309 -0.3749
  670SOL    MW4 2727   4.273   2.504   0.947 -0.1726 -0.0246 -0.4464
  671SOL     OW 2728   0.452   1.998   0.700 -0.2264  0.2032  0.0725
  671SOL    HW2 2729   0.378   1.966   0.649 -1.2940  0.9298  1.1530
  671SOL    HW3 2730   0.456   1.939   0.776 -1.1496  1.5585  1.2016
  671SOL    MW4 2731   0.443   1.986   0.703 -0.4891  0.4779  0.3640
  672SOL     OW 2732   0.381   0.155   0.626  0.1594  0.0043 -0.3638
  672SOL    HW2 2733   0.368   0.244   0.593 -0.3377 -0.0858 -0.4158
  672SOL    HW3 2734   0.384   0.100   0.548  1.2167  0.0664 -0.3690
  672SOL    MW4 2735   0.380   0.160   0.611  0.2333  0.0006 -0.3713
  673SOL     OW 2736   0.728   0.228   0.543 -0.2246 -0.1722  0.6526
  673SOL    HW2 2737   0.812   0.245   0.501 -1.1134  0.7318 -0.7850
  673SOL    HW3 2738   0.675   0.305   0.525 -2.0469 -1.5609 -0.1625
  673SOL    MW4 2739   0.732   0.240   0.535 -0.5822 -0.2361  0.3554
  674SOL     OW 2740   3.141   4.006   1.214  0.1325  0.2279 -0.1749
  674SOL    HW2 2741   3.140   4.101   1.198  0.7077  0.2388 -0.1560
  674SOL    HW3 2742   3.129   3.997   1.308 -0.0266  0.2805 -0.1906
  674SOL    MW4 2743   3.139   4.017   1.224  0.1874  0.2360 -0.1744
  675SOL     OW 2744   3.359   4.576   1.140 -0.2474 -0.5430  0.2502
  675SOL    HW2 2745   3.368   4.506   1.205  0.9141  0.3185  1.0349
  675SOL    HW3 2746   3.439   4.628   1.150 -0.7239  0.4207 -0.8975
  675SOL    MW4 2747   3.371   4.573   1.150 -0.1569 -0.3018  0.2024
  676SOL     OW 2748   1.436   0.157   0.856 -0.0066  0.0241  0.2861
  676SOL    HW2 2749   1.369   0.091   0.840 -0.6368  0.6143  0.4675
  676SOL    HW3 2750   1.477   0.131   0.938 -1.1938  0.6263  1.0825
  676SOL    MW4 2751   1.433   0.145   0.865 -0.2464  0.1814  0.4151
  677SOL     OW 2752   3.555   0.087   1.228 -0.0068 -0.1403  0.2080
  677SOL    HW2 2753   3.644   0.052   1.216 -0.1924 -0.3015 -0.7002
  677SOL    HW3 2754   3.564   0.181   1.211 -0.0271 -0.1712  0.0252
  677SOL    MW4 2755   3.568   0.095   1.224 -0.0336 -0.1656  0.0640
  678SOL     OW 2756   3.559   0.110   1.506  0.8093  0.2635  0.2635
  678SOL    HW2 2757   3.639   0.066   1.536 -0.2743 -0.7288  1.7408
  678SOL    HW3 2758   3.550   0.082   1.415  1.1570 -1.0992  0.6263
  678SOL    MW4 2759   3.569   0.100   1.498  0.7126 -0.0472  0.5062
  679SOL     OW 2760   3.306   0.490   1.247 -0.2179  0.4816 -0.0462
  679SOL    HW2 2761   3.391   0.449   1.234 -0.4810 -0.5972  1.4948
  679SOL    HW3 2762   3.244   0.428   1.209 -0.3141  1.3402 -1.3094
  679SOL    MW4 2763   3.309   0.476   1.240 -0.2654  0.4525 -0.0095
  680SOL     OW 2764   3.815   0.520   1.234  1.0203  0.3185 -0.3114
  680SOL    HW2 2765   3.818   0.609   1.199 -0.8426 -0.2448 -2.0352
  680SOL    HW3 2766   3.879   0.472   1.182  0.6146  0.2291 -0.7370
  680SOL    MW4 2767   3.823   0.525   1.222  0.7210  0.2325 -0.5950
  681SOL     OW 2768   3.824   0.780   1.124 -0.3044  0.1306  0.0980
  681SOL    HW2 2769   3.890   0.833   1.169 -0.6117 -0.0054  0.7162
  681SOL    HW3 2770   3.742   0.827   1.136 -0.6149 -0.5733  0.8209
  681SOL    MW4 2771   3.822   0.793   1.131 -0.3860  0.0198  0.2749
  682SOL     OW 2772   3.592   0.872   1.242 -0.3503 -0.0465  0.0634
  682SOL    HW2 2773   3.586   0.960   1.204 -2.1393 -0.3432 -0.3519
  682SOL    HW3 2774   3.543   0.816   1.182  2.1758 -1.6700 -0.6112
  682SOL    MW4 2775   3.585   0.876   1.229 -0.2530 -0.2999 -0.0803
  683SOL     OW 2776   3.598   1.132   1.159  0.1807 -0.1805  0.1097
  683SOL    HW2 2777   3.660   1.198   1.190 -1.0210  2.2037 -2.3450
  683SOL    HW3 2778   3.512   1.166   1.185 -0.3913 -1.5228  0.0485
  683SOL    MW4 2779   3.595   1.145   1.167 -0.0534 -0.0429 -0.2222
  684SOL     OW 2780   3.809   1.282   1.241  0.1436 -0.4611  0.2423
  684SOL    HW2 2781   3.805   1.280   1.336  1.0723  1.6350  0.3567
  684SOL    HW3 2782   3.899   1.260   1.220  0.3016  0.4611 -0.0763
  684SOL    MW4 2783   3.820   1.279   1.251  0.2868 -0.0628  0.2154
  685SOL     OW 2784   3.812   1.577   1.151 -0.0270  0.1476  0.3344
  685SOL    HW2 2785   3.820   1.484   1.169  0.4948  0.1445  0.0745
  685SOL    HW3 2786   3.888   1.617   1.193  0.4142  0.3114 -0.5999
  685SOL    MW4 2787   3.823   1.570   1.159  0.0999  0.1688  0.1768
  686SOL     OW 2788   3.577   1.692   1.248 -0.2973  0.2522  0.4299
  686SOL    HW2 2789   3.567   1.779   1.208 -0.0471  0.1062  0.0447
  686SOL    HW3 2790   3.668   1.668   1.231 -0.3808 -0.1057  0.4885
  686SOL    MW4 2791   3.587   1.700   1.240 -0.2751  0.1858  0.3870
  687SOL     OW 2792   3.565   1.942   1.089 -0.2045 -0.3041 -0.6962
  687SOL    HW2 2793   3.522   1.991   1.019  0.6592 -0.1777 -1.1398
  687SOL    HW3 2794   3.653   1.980   1.094  0.0647 -0.9886 -0.2137
  687SOL    MW4 2795   3.571   1.954   1.081 -0.0551 -0.3777 -0.6912
  688SOL     OW 2796   3.824   2.060   1.203  0.1995  0.3554  0.2951
  688SOL    HW2 2797   3.900   2.008   1.179 -0.1271  0.0039  0.0109
  688SOL    HW3 2798   3.819   2.054   1.298  0.5157  0.3678  0.3132
  688SOL    MW4 2799   3.833   2.053   1.212  0.1981  0.3109  0.2600
  689SOL     OW 2800   3.834   2.326   1.104 -0.1984 -0.2746  0.3012
  689SOL    HW2 2801   3.888   2.339   1.026  0.9553  0.4866  1.2122
  689SOL    HW3 2802   3.842   2.233   1.123 -3.9092 -1.4125 -2.9213
  689SOL    MW4 2803   3.842   2.316   1.096 -0.5357 -0.3245 -0.0038
  690SOL     OW 2804   3.586   2.480   1.152  0.3439 -0.1494 -0.1378
  690SOL    HW2 2805   3.578   2.460   1.245 -0.0106 -0.3154 -0.2050
  690SOL    HW3 2806   3.668   2.440   1.126  0.0046 -0.8653 -0.1011
  690SOL    MW4 2807   3.596   2.472   1.161  0.2525 -0.2656 -0.1417
  691SOL     OW 2808   3.835   2.889   1.258 -0.0912  0.6370  0.0549
  691SOL    HW2 2809   3.768   2.842   1.208 -0.5206  2.0403 -0.7148
  691SOL    HW3 2810   3.809   2.878   1.349 -1.1069  0.7705 -0.2124
  691SOL    MW4 2811   3.822   2.881   1.263 -0.2818  0.8399 -0.0820
  692SOL     OW 2812   3.949   2.967   0.482 -0.3138  0.5260  0.3246
  692SOL    HW2 2813   3.956   2.943   0.574 -1.0303 -1.1399 -0.0515
  692SOL    HW3 2814   3.872   2.922   0.450  1.1906 -0.7468 -1.6524
  692SOL    MW4 2815   3.940   2.958   0.489 -0.2098  0.1380  0.0141
  693SOL     OW 2816   3.635   3.229   1.194  0.2867 -0.1615  0.2910
  693SOL    HW2 2817   3.649   3.227   1.289 -0.2682  0.2309  0.3812
  693SOL    HW3 2818   3.708   3.179   1.158  1.0347  0.5081  0.8671
  693SOL    MW4 2819   3.647   3.222   1.202  0.3121 -0.0217  0.3790
  694SOL     OW 2820   3.439   3.237   0.437  0.2709 -0.1291  0.5656
  694SOL    HW2 2821   3.502   3.302   0.408 -0.2710 -0.1556 -0.6835
  694SOL    HW3 2822   3.356   3.285   0.443 -0.4385 -1.0193 -1.7665
  694SOL    MW4 2823   3.436   3.252   0.434  0.1059 -0.2499  0.0931
  695SOL     OW 2824   0.265   3.629   1.271 -0.5991 -0.2072  0.1754
  695SOL    HW2 2825   0.262   3.718   1.237 -0.4235 -0.2862 -0.0432
  695SOL    HW3 2826   0.261   3.640   1.366 -0.5859  0.0332  0.1493
  695SOL    MW4 2827   0.264   3.642   1.279 -0.5742 -0.1857  0.1432
  696SOL     OW 2828   3.501   3.130   0.718  0.5736 -0.0537  0.5028
  696SOL    HW2 2829   3.593   3.148   0.740  0.4874  0.4230  0.4739
  696SOL    HW3 2830   3.487   3.175   0.635  0.3585 -0.2645  0.4251
  696SOL    MW4 2831   3.512   3.138   0.710  0.5338 -0.0188  0.4888
  697SOL     OW 2832   4.078   4.061   1.243  0.0801 -0.3279  0.1468
  697SOL    HW2 2833   4.094   4.147   1.205  0.7376 -0.0317  1.0872
  697SOL    HW3 2834   4.000   4.029   1.197 -1.3481  1.6111  1.1865
  697SOL    MW4 2835   4.070   4.068   1.232 -0.0215 -0.0329  0.4081
  698SOL     OW 2836   3.864   3.949   1.120  0.1693 -0.3152  0.0092
  698SOL    HW2 2837   3.852   3.856   1.138  0.3809 -0.4891 -0.7668
  698SOL    HW3 2838   3.783   3.990   1.152 -0.3475 -0.8823 -0.5618
  698SOL    MW4 2839   3.852   3.942   1.127  0.1292 -0.4132 -0.1686
  699SOL     OW 2840   2.447   4.181   0.306  0.2182 -0.0989  0.5593
  699SOL    HW2 2841   2.513   4.239   0.269 -0.3671  0.3124  0.1329
  699SOL    HW3 2842   2.397   4.237   0.366 -0.5977 -0.0491 -0.1476
  699SOL    MW4 2843   2.449   4.196   0.309  0.0336 -0.0377  0.4098
  700SOL     OW 2844   3.638   4.300   1.154 -0.2619 -0.3826 -0.0822
  700SOL    HW2 2845   3.637   4.209   1.185  0.8803  0.1237  1.5430
  700SOL    HW3 2846   3.587   4.299   1.073  0.1947 -2.5698 -0.3689
  700SOL    MW4 2847   3.631   4.288   1.148 -0.0508 -0.6042  0.0944
  701SOL     OW 2848   4.293   0.027   1.062 -0.2088  0.3720 -0.1689
  701SOL    HW2 2849   4.364   0.074   1.106  0.6435 -1.5400  0.5448
  701SOL    HW3 2850   4.213   0.062   1.102  0.5104 -0.5067  2.1192
  701SOL    MW4 2851   4.292   0.038   1.073 -0.0019  0.0038  0.2273
  702SOL     OW 2852   4.076   0.115   1.204 -0.0193  0.6260  0.4278
  702SOL    HW2 2853   4.079   0.142   1.296  0.5414 -1.6493  1.1144
  702SOL    HW3 2854   3.988   0.077   1.193  0.1115  0.3965  0.1663
  702SOL    MW4 2855   4.064   0.114   1.215  0.0720  0.2955  0.4840
  703SOL     OW 2856   3.075   0.582   0.699 -0.1305  0.0356  0.2457
  703SOL    HW2 2857   3.066   0.634   0.619 -1.2986  0.8120  0.8673
  703SOL    HW3 2858   3.169   0.573   0.712  0.0778  1.4595 -0.2161
  703SOL    MW4 2859   3.086   0.588   0.690 -0.2570  0.3259  0.2667
  704SOL     OW 2860   4.007   0.345   1.068  0.6000  0.5475 -0.1637
  704SOL    HW2 2861   3.999   0.329   0.974 -0.6320 -0.3695  0.0796
  704SOL    HW3 2862   4.017   0.258   1.107  0.3409  0.8564  0.6086
  704SOL    MW4 2863   4.007   0.332   1.060  0.4039  0.4673 -0.0297
  705SOL     OW 2864   4.242   0.499   1.164  0.2410 -0.6170  0.0165
  705SOL    HW2 2865   4.256   0.477   1.257 -1.3551  0.5822  0.5590
  705SOL    HW3 2866   4.157   0.461   1.144  0.6749 -1.0390 -1.0283
  705SOL    MW4 2867   4.233   0.491   1.174  0.0873 -0.5144 -0.0497
  706SOL     OW 2868   4.044   0.885   1.574 -0.2243 -0.0887  0.1172
  706SOL    HW2 2869   3.971   0.825   1.590  0.2396 -0.5015  0.7036
  706SOL    HW3 2870   4.122   0.831   1.581  0.2130  0.6477  1.0176
  706SOL    MW4 2871   4.044   0.870   1.577 -0.1049 -0.0460  0.3134
  707SOL     OW 2872   4.046   0.905   1.253 -0.2589 -0.6224  0.7135
  707SOL    HW2 2873   4.058   0.911   1.348 -0.3091 -0.8260  0.7325
  707SOL    HW3 2874   4.122   0.856   1.222 -0.0623 -0.2498  0.6069
  707SOL    MW4 2875   4.058   0.900   1.261 -0.2398 -0.6001  0.7019
  708SOL     OW 2876   3.897   0.220   0.379 -0.9412 -0.2050  0.3660
  708SOL    HW2 2877   3.975   0.266   0.347 -2.0036 -0.0323 -2.1000
  708SOL    HW3 2878   3.931   0.135   0.408  0.3539  0.3601  0.5503
  708SOL    MW4 2879   3.912   0.215   0.379 -0.9105 -0.1077  0.0649
  709SOL     OW 2880   2.339   2.940   0.618  0.0348  0.3063  0.1637
  709SOL    HW2 2881   2.321   2.883   0.693 -1.3914  0.7535  0.1920
  709SOL    HW3 2882   2.351   3.027   0.656 -2.8502  0.9483 -0.2459
  709SOL    MW4 2883   2.338   2.944   0.633 -0.5338  0.4499  0.1134
  710SOL     OW 2884   4.036   1.706   1.250 -0.1105 -0.2485  0.2316
  710SOL    HW2 2885   4.050   1.704   1.345  2.1018  2.7638  0.0264
  710SOL    HW3 2886   4.113   1.662   1.214  0.3981  0.9959 -0.2375
  710SOL    MW4 2887   4.048   1.700   1.258  0.2489  0.3129  0.1426
  711SOL     OW 2888   4.235   1.188   0.662 -0.5291  0.0767 -0.7222
  711SOL    HW2 2889   4.153   1.195   0.711 -0.6344  1.5652 -1.0845
  711SOL    HW3 2890   4.228   1.106   0.614 -1.1943 -0.5055  0.3490
  711SOL    MW4 2891   4.224   1.178   0.662 -0.6309  0.1963 -0.6287
  712SOL     OW 2892   4.034   2.469   1.258  0.1957  0.0916  0.0018
  712SOL    HW2 2893   3.961   2.417   1.224  1.4878 -1.3377 -0.7106
  712SOL    HW3 2894   4.035   2.451   1.352  0.9205 -1.6213 -0.3002
  712SOL    MW4 2895   4.025   2.460   1.266  0.4621 -0.3228 -0.1321
  713SOL     OW 2896   4.324   2.493   0.323 -0.2413 -0.1368 -0.0991
  713SOL    HW2 2897   4.403   2.508   0.374  0.3706 -1.9811 -0.4804
  713SOL    HW3 2898   4.354   2.492   0.232 -0.9211  0.4724 -0.3439
  713SOL    MW4 2899   4.338   2.495   0.318 -0.2494 -0.2997 -0.1817
  714SOL     OW 2900   3.891   3.121   1.128  0.1127  0.3809  0.2184
  714SOL    HW2 2901   3.865   3.032   1.150 -0.4759  1.0372  2.2986
  714SOL    HW3 2902   3.915   3.117   1.035 -1.6014 -1.5422 -0.1749
  714SOL    MW4 2903   3.891   3.109   1.118 -0.1912  0.2139  0.4410
  715SOL     OW 2904   3.488   3.888   0.713  0.1833  0.3644 -0.3381
  715SOL    HW2 2905   3.425   3.884   0.785  2.0434  1.0584  1.3969
  715SOL    HW3 2906   3.434   3.894   0.634 -1.9093  0.7622  1.0712
  715SOL    MW4 2907   3.472   3.888   0.712  0.1526  0.5085  0.0768
  716SOL     OW 2908   4.281   2.876   1.247  0.1471  0.4212  0.1567
  716SOL    HW2 2909   4.197   2.832   1.235  0.6415 -0.6886  0.6071
  716SOL    HW3 2910   4.290   2.885   1.342 -0.0751  1.7703  0.0580
  716SOL    MW4 2911   4.271   2.871   1.258  0.1826  0.4525  0.2031
  717SOL     OW 2912   4.320   3.128   1.140 -0.1387  0.0045  0.0333
  717SOL    HW2 2913   4.313   3.040   1.179 -0.5581  0.7813  1.7672
  717SOL    HW3 2914   4.247   3.176   1.178 -0.8877  0.6606 -2.1731
  717SOL    MW4 2915   4.310   3.122   1.150 -0.2933  0.1936 -0.0290
  718SOL     OW 2916   4.087   3.251   1.262 -0.2416  0.1999 -0.2510
  718SOL    HW2 2917   4.060   3.243   1.354  0.0250 -1.9972 -0.3450
  718SOL    HW3 2918   4.028   3.194   1.214  1.4070 -0.8712 -1.0641
  718SOL    MW4 2919   4.076   3.243   1.268  0.0110 -0.2315 -0.3706
  719SOL     OW 2920   4.031   3.478   1.105 -0.2675  0.1038 -0.1570
  719SOL    HW2 2921   3.990   3.552   1.151  2.2565  1.5634 -0.1582
  719SOL    HW3 2922   4.025   3.405   1.166 -0.8192  0.9025  0.7590
  719SOL    MW4 2923   4.025   3.478   1.119 -0.0067  0.4015 -0.0364
  720SOL     OW 2924   4.237   3.593   1.267 -0.1084 -0.4271  0.3569
  720SOL    HW2 2925   4.184   3.537   1.210  0.3476  0.2033 -0.6982
  720SOL    HW3 2926   4.327   3.565   1.252  0.0445 -0.0136  0.4833
  720SOL    MW4 2927   4.242   3.582   1.258 -0.0286 -0.2892  0.2344
  721SOL     OW 2928   4.104   3.362   0.640  0.3461  0.3506 -0.5264
  721SOL    HW2 2929   4.127   3.416   0.715  0.0187  0.0550 -0.2083
  721SOL    HW3 2930   4.169   3.292   0.639 -0.9017 -0.8591  0.7657
  721SOL    MW4 2931   4.115   3.360   0.650  0.1383  0.1519 -0.3140
  722SOL     OW 2932   4.271   3.883   1.163  0.3094 -0.6671  0.3797
  722SOL    HW2 2933   4.200   3.942   1.189  1.0573  0.0049  0.9430
  722SOL    HW3 2934   4.253   3.802   1.210 -0.2991 -0.6320  0.2110
  722SOL    MW4 2935   4.259   3.880   1.173  0.3276 -0.5736  0.4315
  723SOL     OW 2936   4.118   4.326   1.138  0.1230  0.2828 -0.4970
  723SOL    HW2 2937   4.043   4.363   1.185 -0.1891 -1.7524  0.6848
  723SOL    HW3 2938   4.192   4.379   1.165 -0.1779 -0.4003  1.7552
  723SOL    MW4 2939   4.118   4.338   1.148  0.0424 -0.0758 -0.0439
  724SOL     OW 2940   4.314   4.495   1.267 -0.3254 -0.2079 -0.3344
  724SOL    HW2 2941   4.330   4.574   1.215 -1.4393 -0.6149 -1.3059
  724SOL    HW3 2942   4.388   4.438   1.248 -0.3969 -0.0892 -0.9862
  724SOL    MW4 2943   4.326   4.498   1.258 -0.4821 -0.2456 -0.5485
  725SOL     OW 2944   0.233   0.004   1.620 -0.0390 -0.0833  0.1205
  725SOL    HW2 2945   0.304   0.033   1.563  0.1587 -0.6221  0.0928
  725SOL    HW3 2946   0.156   0.054   1.591  0.5763  1.3528  0.8888
  725SOL    MW4 2947   0.232   0.015   1.609  0.0683  0.0351  0.2180
  726SOL     OW 2948   0.005   0.137   1.493  0.4911  0.4115  0.0524
  726SOL    HW2 2949  -0.067   0.083   1.524 -1.7298  2.6211 -1.0666
  726SOL    HW3 2950   0.012   0.117   1.400 -0.3020  1.9280 -0.3545
  726SOL    MW4 2951  -0.003   0.127   1.485  0.0930  0.9031 -0.1489
  727SOL     OW 2952   4.481   0.382   1.598  0.3368 -0.1716 -0.4492
  727SOL    HW2 2953   4.479   0.368   1.693 -1.9775  1.4288 -0.2137
  727SOL    HW3 2954   4.490   0.294   1.561  0.6315 -0.8703  1.2447
  727SOL    MW4 2955   4.482   0.368   1.605  0.0706 -0.0527 -0.1945
  728SOL     OW 2956   0.227   0.502   1.530 -0.0749  0.2870  0.1314
  728SOL    HW2 2957   0.147   0.463   1.566  0.1970 -0.1145  0.3053
  728SOL    HW3 2958   0.223   0.481   1.436  0.0702 -0.1627  0.2251
  728SOL    MW4 2959   0.216   0.494   1.522 -0.0199  0.1747  0.1668
  729SOL     OW 2960   0.239   0.774   1.605  0.4798 -0.0476  0.1678
  729SOL    HW2 2961   0.318   0.806   1.563 -0.1714  0.6361 -0.5610
  729SOL    HW3 2962   0.230   0.684   1.574  0.1716  0.3502 -0.9331
  729SOL    MW4 2963   0.248   0.766   1.595  0.3532  0.0951 -0.0737
  730SOL     OW 2964   4.485   0.880   1.498 -0.0793  0.1627 -0.0965
  730SOL    HW2 2965   4.464   0.962   1.543  1.2959  0.5767 -0.1851
  730SOL    HW3 2966   4.565   0.849   1.541 -2.4798 -2.9724  2.3330
  730SOL    MW4 2967   4.493   0.887   1.509 -0.2151 -0.1963  0.2124
  731SOL     OW 2968   4.468   1.132   1.600  0.1761 -0.3673 -0.2218
  731SOL    HW2 2969   4.477   1.136   1.696 -0.7567 -2.6340 -0.0268
  731SOL    HW3 2970   4.548   1.174   1.567 -0.0466  1.5163  1.5331
  731SOL    MW4 2971   4.480   1.138   1.608  0.0238 -0.4179  0.0354
  732SOL     OW 2972   0.243   1.244   1.503 -0.3298  0.4320 -0.2958
  732SOL    HW2 2973   0.236   1.324   1.556  0.2855  0.4945 -0.3032
  732SOL    HW3 2974   0.249   1.277   1.413  1.7699  0.4708 -0.1684
  732SOL    MW4 2975   0.243   1.259   1.498  0.0284  0.4452 -0.2799
  733SOL     OW 2976   0.251   1.503   1.598 -0.4969 -0.1259 -0.5149
  733SOL    HW2 2977   0.245   1.521   1.692  0.7415 -0.6626 -0.3160
  733SOL    HW3 2978   0.178   1.552   1.559 -1.3653 -0.3798  0.7829
  733SOL    MW4 2979   0.241   1.512   1.605 -0.4481 -0.2302 -0.3175
  734SOL     OW 2980   0.046   1.657   1.470 -0.4490  0.0600  0.1093
  734SOL    HW2 2981   0.015   1.739   1.509 -0.2324  0.8063 -1.2689
  734SOL    HW3 2982   0.046   1.674   1.376  0.3664 -1.2639 -0.1309
  734SOL    MW4 2983   0.042   1.670   1.463 -0.3129 -0.0162 -0.1041
  735SOL     OW 2984   4.486   1.923   1.600  0.3529 -0.3441 -0.1168
  735SOL    HW2 2985   4.498   1.943   1.693 -0.0112 -0.4888 -0.0384
  735SOL    HW3 2986   4.415   1.979   1.572  1.1384  0.4383 -0.5614
  735SOL    MW4 2987   4.478   1.933   1.609  0.4085 -0.2599 -0.1651
  736SOL     OW 2988   0.235   2.074   1.572 -0.0939 -0.2610  0.1023
  736SOL    HW2 2989   0.163   2.012   1.575  0.2609 -0.6518  0.5905
  736SOL    HW3 2990   0.246   2.093   1.479 -1.0292  0.0438  0.0467
  736SOL    MW4 2991   0.227   2.068   1.560 -0.1705 -0.2720  0.1594
  737SOL     OW 2992   0.216   2.319   1.669 -0.6162  0.2006 -0.1297
  737SOL    HW2 2993   0.228   2.315   1.764 -1.8135  0.2002  0.0244
  737SOL    HW3 2994   0.220   2.228   1.641  1.2633  0.3101 -0.2842
  737SOL    MW4 2995   0.218   2.306   1.678 -0.5262  0.2148 -0.1299
  738SOL     OW 2996   0.019   2.478   1.511  0.1969 -0.4042  0.1458
  738SOL    HW2 2997  -0.064   2.436   1.532  0.1707  0.2741  1.4609
  738SOL    HW3 2998   0.083   2.433   1.566  0.2263  0.9920  1.2747
  738SOL    MW4 2999   0.016   2.467   1.521  0.1974 -0.1307  0.4683
  739SOL     OW 3000   0.029   2.730   1.632 -0.2684 -0.0014  0.2511
  739SOL    HW2 3001   0.104   2.772   1.588 -1.0749  0.3913 -0.7646
  739SOL    HW3 3002   0.021   2.645   1.590 -0.3948 -0.0493  0.3713
  739SOL    MW4 3003   0.038   2.724   1.621 -0.3915  0.0441  0.1329
  740SOL     OW 3004   0.248   2.861   1.506 -0.0068  1.2499  0.6161
  740SOL    HW2 3005   0.327   2.813   1.531 -0.3614  1.5077  2.3316
  740SOL    HW3 3006   0.244   2.854   1.411  1.9312  0.9864  0.5300
  740SOL    MW4 3007   0.258   2.854   1.497  0.2021  1.2491  0.8310
  741SOL     OW 3008   0.277   3.129   1.560 -0.3565  0.3540  0.1770
  741SOL    HW2 3009   0.190   3.170   1.563 -0.6988 -0.3052 -0.4781
  741SOL    HW3 3010   0.260   3.041   1.527  0.7223  0.6549 -1.2255
  741SOL    MW4 3011   0.263   3.123   1.556 -0.2593  0.3068 -0.0945
  742SOL     OW 3012   4.490   3.224   1.586  0.1687 -0.4593 -0.1826
  742SOL    HW2 3013   4.502   3.309   1.629  0.2242 -1.1848  1.2772
  742SOL    HW3 3014   4.498   3.243   1.492 -0.9900  1.3369  0.0548
  742SOL    MW4 3015   4.493   3.238   1.579  0.0232 -0.3181  0.0415
  743SOL     OW 3016   0.035   3.505   1.604  0.1820  0.1397 -0.0901
  743SOL    HW2 3017   0.034   3.507   1.700  1.7420  0.7110 -0.0799
  743SOL    HW3 3018  -0.051   3.539   1.579 -0.2486 -0.0397  1.1046
  743SOL    MW4 3019   0.023   3.509   1.613  0.3309  0.1915  0.0689
  744SOL     OW 3020   0.280   3.640   1.573  0.5434 -0.0342  0.1095
  744SOL    HW2 3021   0.279   3.734   1.590  0.3969 -0.0412  0.1441
  744SOL    HW3 3022   0.189   3.613   1.585  0.4652 -0.0598 -0.5653
  744SOL    MW4 3023   0.268   3.649   1.577  0.5137 -0.0384  0.0250
  745SOL     OW 3024   0.515   4.082   1.509  0.2510  0.1986  0.0709
  745SOL    HW2 3025   0.583   4.023   1.542  0.7970  0.7243 -0.1031
  745SOL    HW3 3026   0.511   4.063   1.415  0.5861  0.5999 -0.0237
  745SOL    MW4 3027   0.523   4.071   1.501  0.3672  0.3214  0.0355
  746SOL     OW 3028   0.081   4.022   1.533  0.4272  0.4432  0.1389
  746SOL    HW2 3029   0.069   4.114   1.555  0.4064  0.8795 -1.6101
  746SOL    HW3 3030   0.171   4.002   1.561  0.5770  1.1170  0.1517
  746SOL    MW4 3031   0.092   4.032   1.539  0.4442  0.5894 -0.0901
  747SOL     OW 3032   0.072   4.274   1.615 -0.1246  0.4819 -0.4560
  747SOL    HW2 3033   0.066   4.276   1.710  1.0301 -1.0452 -0.3370
  747SOL    HW3 3034  -0.009   4.316   1.585 -1.1961 -0.3505  1.1851
  747SOL    MW4 3035   0.060   4.280   1.623 -0.1136  0.1702 -0.2238
  748SOL     OW 3036   0.266   4.423   1.496  0.0656 -0.0699  0.1360
  748SOL    HW2 3037   0.203   4.366   1.540 -0.1521 -1.4215 -1.8812
  748SOL    HW3 3038   0.263   4.505   1.547 -1.4003 -0.9981  1.6033
  748SOL    MW4 3039   0.257   4.427   1.509 -0.1565 -0.3710  0.0634
  749SOL     OW 3040   0.693   0.042   1.583 -0.1912  0.5545 -0.1531
  749SOL    HW2 3041   0.759   0.099   1.544 -1.4269  1.6103 -0.7388
  749SOL    HW3 3042   0.609   0.078   1.553 -0.9858 -2.1553 -1.3812
  749SOL    MW4 3043   0.691   0.054   1.574 -0.4591  0.3363 -0.3924
  750SOL     OW 3044   0.450   0.120   1.487  0.1589  0.0537 -0.0651
  750SOL    HW2 3045   0.429   0.206   1.523  1.2952 -0.1253  1.0563
  750SOL    HW3 3046   0.470   0.137   1.395  1.6101  1.2026  0.4320
  750SOL    MW4 3047   0.450   0.133   1.480  0.5003  0.1817  0.1485
  751SOL     OW 3048   0.448   0.366   1.598  0.3029 -0.1649 -0.1719
  751SOL    HW2 3049   0.521   0.423   1.571  1.1717 -0.0922  2.2061
  751SOL    HW3 3050   0.370   0.413   1.570  1.0800  1.3269  0.0848
  751SOL    MW4 3051   0.447   0.380   1.591  0.5200  0.0415  0.1756
  752SOL     OW 3052   0.666   0.522   1.576 -0.3138  0.1590 -0.6158
  752SOL    HW2 3053   0.661   0.617   1.587  0.1662  0.2101 -0.8364
  752SOL    HW3 3054   0.677   0.510   1.481  0.7136 -0.0709 -0.4712
  752SOL    MW4 3055   0.667   0.533   1.565 -0.1149  0.1354 -0.6258
  753SOL     OW 3056   0.704   0.788   1.647  0.4662  0.5183  0.5020
  753SOL    HW2 3057   0.719   0.804   1.740  1.1080 -0.4345  0.5689
  753SOL    HW3 3058   0.773   0.839   1.603  0.6378  0.3507  0.5781
  753SOL    MW4 3059   0.715   0.797   1.654  0.5735  0.3704  0.5208
  754SOL     OW 3060   0.477   0.884   1.492  0.0805 -0.0851 -0.1247
  754SOL    HW2 3061   0.461   0.973   1.523  3.0863  0.9104 -1.2375
  754SOL    HW3 3062   0.540   0.849   1.554 -2.6115 -2.2217  1.4963
  754SOL    MW4 3063   0.483   0.891   1.504  0.1219 -0.2357 -0.0576
  755SOL     OW 3064   0.471   1.153   1.594 -0.0923  0.2028  0.1811
  755SOL    HW2 3065   0.545   1.199   1.555 -0.8149  2.7912  1.7492
  755SOL    HW3 3066   0.394   1.197   1.558 -0.8315 -0.5480  0.8112
  755SOL    MW4 3067   0.471   1.164   1.584 -0.2851  0.4451  0.4711
  756SOL     OW 3068   0.670   1.317   1.498  0.1453 -0.6512  0.5900
  756SOL    HW2 3069   0.670   1.405   1.536 -0.9940 -0.5516  0.3886
  756SOL    HW3 3070   0.696   1.329   1.407  0.9585 -0.6480  0.8209
  756SOL    MW4 3071   0.674   1.330   1.491  0.1023 -0.6377  0.5939
  757SOL     OW 3072   0.703   1.559   1.624 -0.2580 -0.1157  0.5202
  757SOL    HW2 3073   0.779   1.605   1.588  0.1802 -0.9443  0.3708
  757SOL    HW3 3074   0.628   1.597   1.579  0.0808  0.6379  0.5953
  757SOL    MW4 3075   0.703   1.570   1.613 -0.1554 -0.1256  0.5103
  758SOL     OW 3076   0.465   1.665   1.501 -0.3241 -0.5030 -0.1705
  758SOL    HW2 3077   0.469   1.751   1.544 -0.0404 -0.1846 -0.8234
  758SOL    HW3 3078   0.386   1.625   1.537 -0.7472  0.2458 -0.2489
  758SOL    MW4 3079   0.455   1.671   1.512 -0.3425 -0.3622 -0.2669
  759SOL     OW 3080   0.474   1.924   1.612  0.4062  0.3313 -0.3295
  759SOL    HW2 3081   0.463   1.920   1.707 -1.2465 -2.2296 -0.5829
  759SOL    HW3 3082   0.403   1.982   1.583  0.8934  1.0936 -0.0108
  759SOL    MW4 3083   0.463   1.931   1.621  0.2525  0.0939 -0.3209
  760SOL     OW 3084   0.692   2.044   1.489 -0.3046 -0.3025 -0.0548
  760SOL    HW2 3085   0.762   2.019   1.550 -1.2440  0.6494  1.4562
  760SOL    HW3 3086   0.614   2.000   1.523 -0.9175  0.5558 -0.3458
  760SOL    MW4 3087   0.691   2.035   1.502 -0.5094 -0.0634  0.1061
  761SOL     OW 3088   0.684   2.313   1.557  0.6018 -0.5728  0.3767
  761SOL    HW2 3089   0.598   2.354   1.543  0.1176 -0.7661  2.6082
  761SOL    HW3 3090   0.667   2.219   1.546  0.7855 -0.5233 -0.3541
  761SOL    MW4 3091   0.670   2.306   1.553  0.5621 -0.5918  0.5747
  762SOL     OW 3092   0.434   2.457   1.527  0.2838  0.1791 -0.1172
  762SOL    HW2 3093   0.442   2.550   1.548  0.8767 -0.1078  0.9338
  762SOL    HW3 3094   0.350   2.430   1.565 -0.0581  0.3525 -0.7276
  762SOL    MW4 3095   0.424   2.465   1.535  0.3169  0.1638 -0.0591
  763SOL     OW 3096   0.481   2.709   1.606  0.4671  0.0415 -0.2505
  763SOL    HW2 3097   0.487   2.709   1.701 -1.7097 -0.3502 -0.0918
  763SOL    HW3 3098   0.562   2.751   1.577  1.7206 -0.9515  1.7114
  763SOL    MW4 3099   0.492   2.715   1.615  0.3453 -0.1411  0.0293
  764SOL     OW 3100   0.726   2.828   1.543  0.2315 -0.6049 -0.2399
  764SOL    HW2 3101   0.721   2.910   1.593  2.6347 -1.1672  0.9957
  764SOL    HW3 3102   0.737   2.856   1.452 -0.0328  0.4231  0.0368
  764SOL    MW4 3103   0.726   2.843   1.537  0.5137 -0.5434 -0.0405
  765SOL     OW 3104   0.717   3.094   1.595  0.0417  0.0576 -0.5751
  765SOL    HW2 3105   0.790   3.128   1.543  1.1209  1.3997  1.7151
  765SOL    HW3 3106   0.646   3.156   1.579  0.8980  1.4307  0.8248
  765SOL    MW4 3107   0.717   3.107   1.586  0.2970  0.4156 -0.0882
  766SOL     OW 3108   0.518   3.249   1.497 -0.0625 -0.6372 -0.3398
  766SOL    HW2 3109   0.436   3.203   1.517 -1.5270  2.0731  0.1847
  766SOL    HW3 3110   0.525   3.244   1.401 -0.9850 -0.6549 -0.4127
  766SOL    MW4 3111   0.508   3.242   1.487 -0.3775 -0.2820 -0.2803
  767SOL     OW 3112   0.524   3.479   1.634  0.0063  0.3209  0.6523
  767SOL    HW2 3113   0.531   3.402   1.578  1.6744  0.1061  1.1375
  767SOL    HW3 3114   0.438   3.517   1.612  0.7610  0.4632 -2.3289
  767SOL    MW4 3115   0.513   3.474   1.623  0.3260  0.3114  0.3229
  768SOL     OW 3116   0.724   3.666   1.555 -0.2424  0.2950 -0.0250
  768SOL    HW2 3117   0.800   3.612   1.576 -0.0775  0.1936 -0.8739
  768SOL    HW3 3118   0.649   3.609   1.570 -0.1959  0.5884  1.4262
  768SOL    MW4 3119   0.724   3.651   1.559 -0.2145  0.3202  0.0545
  769SOL     OW 3120   0.693   3.928   1.649  0.4933 -0.0772 -0.0512
  769SOL    HW2 3121   0.778   3.971   1.640  0.8230 -0.5804  0.5845
  769SOL    HW3 3122   0.706   3.841   1.611  0.3531 -0.2565  0.3008
  769SOL    MW4 3123   0.706   3.922   1.643  0.5183 -0.1676  0.0793
  770SOL     OW 3124   0.326   3.919   1.632 -0.0098 -0.3257  0.5518
  770SOL    HW2 3125   0.317   3.930   1.726 -0.0170  0.3283  0.4803
  770SOL    HW3 3126   0.378   3.995   1.604  0.0670 -0.5598  0.0419
  770SOL    MW4 3127   0.332   3.931   1.641 -0.0006 -0.2701  0.4750
  771SOL     OW 3128   0.494   4.327   1.636 -0.1079  0.3566 -0.2412
  771SOL    HW2 3129   0.500   4.246   1.586  1.4185  0.4479 -0.2161
  771SOL    HW3 3130   0.419   4.373   1.598 -0.6942 -0.8513 -0.5554
  771SOL    MW4 3131   0.485   4.323   1.624  0.0162  0.2089 -0.2794
  772SOL     OW 3132   0.719   4.466   1.492 -0.4431  0.0096 -0.1798
  772SOL    HW2 3133   0.639   4.422   1.520 -0.7644  0.5128 -0.3026
  772SOL    HW3 3134   0.707   4.557   1.516  0.5513 -0.0991  0.7722
  772SOL    MW4 3135   0.707   4.472   1.499 -0.3543  0.0620 -0.0705
  773SOL     OW 3136   1.130   0.037   1.560 -0.2620  0.3156 -0.1896
  773SOL    HW2 3137   1.119   0.027   1.655 -0.0055 -1.0656 -0.3033
  773SOL    HW3 3138   1.221   0.064   1.549  0.5562 -2.3566 -0.2235
  773SOL    MW4 3139   1.141   0.040   1.571 -0.1202 -0.2192 -0.2090
  774SOL     OW 3140   0.906   0.193   1.480  0.0229  0.1399 -0.1539
  774SOL    HW2 3141   0.915   0.268   1.539  1.6420  0.3433 -0.6216
  774SOL    HW3 3142   0.978   0.135   1.505 -1.5614 -1.5180  0.5781
  774SOL    MW4 3143   0.917   0.195   1.491  0.0275 -0.0520 -0.1191
  775SOL     OW 3144   0.924   0.414   1.634  0.3197  0.7090  0.3478
  775SOL    HW2 3145   0.928   0.405   1.730  0.5471  1.7891  0.4446
  775SOL    HW3 3146   0.832   0.433   1.616  0.3179  0.7243  0.3715
  775SOL    MW4 3147   0.913   0.415   1.644  0.3494  0.8535  0.3637
  776SOL     OW 3148   1.150   0.564   1.564  0.0760 -0.1450  0.2569
  776SOL    HW2 3149   1.129   0.653   1.594 -0.9864  0.3963 -1.9516
  776SOL    HW3 3150   1.073   0.512   1.586 -0.6067  0.2010 -1.2292
  776SOL    MW4 3151   1.137   0.569   1.571 -0.1544 -0.0280 -0.2306
  777SOL     OW 3152   1.107   0.826   1.636  0.2723  0.1327  0.3400
  777SOL    HW2 3153   1.120   0.810   1.729  0.9299  0.4471  0.3008
  777SOL    HW3 3154   1.189   0.866   1.606  0.3283 -0.6224 -0.5244
  777SOL    MW4 3155   1.119   0.829   1.644  0.3664  0.0746  0.2208
  778SOL     OW 3156   0.897   0.896   1.476 -0.0478  0.5496 -0.2941
  778SOL    HW2 3157   0.982   0.874   1.514  0.1493 -0.5943 -1.3793
  778SOL    HW3 3158   0.906   0.876   1.383 -1.4782  0.5049 -0.4396
  778SOL    MW4 3159   0.909   0.891   1.469 -0.2106  0.3928 -0.4565
  779SOL     OW 3160   0.899   1.160   1.566  0.2528 -0.0150  0.2199
  779SOL    HW2 3161   0.896   1.076   1.520  0.0003  1.8523 -3.3441
  779SOL    HW3 3162   0.816   1.202   1.545 -0.0556  0.7548  2.7976
  779SOL    MW4 3163   0.888   1.154   1.557  0.1788  0.3331  0.0899
  780SOL     OW 3164   1.382   1.183   1.610  0.1686  0.2473 -0.0049
  780SOL    HW2 3165   1.385   1.188   1.705 -1.6967  0.3270  0.0826
  780SOL    HW3 3166   1.389   1.090   1.590  1.0776  0.2790  0.1891
  780SOL    MW4 3167   1.383   1.172   1.620  0.0424  0.2619  0.0322
  781SOL     OW 3168   1.103   1.542   1.648 -0.7662  0.1161  0.1820
  781SOL    HW2 3169   1.110   1.454   1.610 -0.5253 -0.7594  2.1777
  781SOL    HW3 3170   1.172   1.592   1.606 -1.0430 -0.5921 -1.1380
  781SOL    MW4 3171   1.113   1.537   1.638 -0.7708 -0.0929  0.2712
  782SOL     OW 3172   0.913   1.730   1.523 -0.2450 -0.4112  0.8515
  782SOL    HW2 3173   0.975   1.659   1.540  0.7786  0.0237 -0.9971
  782SOL    HW3 3174   0.895   1.723   1.429  0.1744  2.0401  0.5780
  782SOL    MW4 3175   0.919   1.719   1.513 -0.0547 -0.0303  0.5715
  783SOL     OW 3176   0.908   1.972   1.630  0.7150 -0.0131 -0.3638
  783SOL    HW2 3177   0.989   2.008   1.593  1.0913 -1.7454 -1.3365
  783SOL    HW3 3178   0.905   1.882   1.595 -0.5810 -0.6357  1.3019
  783SOL    MW4 3179   0.918   1.965   1.620  0.5937 -0.3239 -0.2724
  784SOL     OW 3180   1.156   2.078   1.541 -0.2384  0.0315  0.0608
  784SOL    HW2 3181   1.230   2.022   1.567 -0.5228 -0.3289  0.1066
  784SOL    HW3 3182   1.167   2.158   1.593  0.2412  0.0679 -0.0928
  784SOL    MW4 3183   1.167   2.081   1.551 -0.2126 -0.0112  0.0465
  785SOL     OW 3184   1.176   2.358   1.647 -0.5987  0.0659 -0.3396
  785SOL    HW2 3185   1.243   2.399   1.593 -0.4938  0.8490  0.3811
  785SOL    HW3 3186   1.094   2.380   1.603 -0.5233  0.8361 -0.1024
  785SOL    MW4 3187   1.174   2.366   1.634 -0.5751  0.2706 -0.2131
  786SOL     OW 3188   0.939   2.397   1.523  0.4653 -0.1036  0.0092
  786SOL    HW2 3189   0.934   2.488   1.552 -0.0865  0.0505 -0.5618
  786SOL    HW3 3190   0.849   2.364   1.532  0.4156 -0.2385 -0.9057
  786SOL    MW4 3191   0.926   2.404   1.528  0.3859 -0.1011 -0.1869
  787SOL     OW 3192   0.932   2.667   1.611  0.5584 -0.1138 -0.2437
  787SOL    HW2 3193   0.938   2.666   1.707  0.3381  0.5064 -0.2203
  787SOL    HW3 3194   0.855   2.720   1.593  1.9750  1.8279 -0.8210
  787SOL    MW4 3195   0.923   2.674   1.622  0.7163  0.2244 -0.3167
  788SOL     OW 3196   1.141   2.817   1.472 -0.1263 -0.7206  0.0769
  788SOL    HW2 3197   1.142   2.909   1.499  1.7319 -0.7860  0.2878
  788SOL    HW3 3198   1.062   2.781   1.513 -1.8598  1.1868 -1.4687
  788SOL    MW4 3199   1.131   2.824   1.481 -0.1098 -0.4776 -0.0992
  789SOL     OW 3200   1.179   3.083   1.567  0.0188 -0.2763  0.1851
  789SOL    HW2 3201   1.186   3.084   1.663 -1.5982 -0.2576  0.3077
  789SOL    HW3 3202   1.266   3.110   1.537 -0.0153  1.6120  1.6689
  789SOL    MW4 3203   1.192   3.087   1.576 -0.1991 -0.0248  0.3970
  790SOL     OW 3204   0.944   3.236   1.511 -0.1101  0.2986 -0.0260
  790SOL    HW2 3205   1.023   3.184   1.531 -1.4482 -2.0283 -0.6182
  790SOL    HW3 3206   0.948   3.249   1.417  0.5493  1.8986  0.1977
  790SOL    MW4 3207   0.955   3.231   1.502 -0.1997  0.2029 -0.0745
  791SOL     OW 3208   0.930   3.496   1.622  0.3856 -0.1929 -0.6377
  791SOL    HW2 3209   1.018   3.528   1.599  1.1498 -1.0228  1.0552
  791SOL    HW3 3210   0.930   3.405   1.592  0.5431 -0.5649  0.4957
  791SOL    MW4 3211   0.942   3.488   1.615  0.5072 -0.3514 -0.2649
  792SOL     OW 3212   1.156   3.632   1.506 -0.2207 -0.2737 -0.0870
  792SOL    HW2 3213   1.233   3.579   1.529 -0.3324 -0.5082 -0.2559
  792SOL    HW3 3214   1.158   3.637   1.410 -0.0956  0.1991 -0.0609
  792SOL    MW4 3215   1.167   3.626   1.496 -0.2191 -0.2425 -0.1059
  793SOL     OW 3216   1.157   3.876   1.640  0.5511  0.2816 -0.5136
  793SOL    HW2 3217   1.236   3.923   1.616  1.3195  0.0414  1.4646
  793SOL    HW3 3218   1.163   3.792   1.595  1.1841  0.4455 -0.7302
  793SOL    MW4 3219   1.168   3.871   1.631  0.7359  0.2716 -0.2812
  794SOL     OW 3220   0.961   4.048   1.552  0.2497  0.0056  0.0679
  794SOL    HW2 3221   0.965   4.144   1.555  0.2693  0.0101 -0.0722
  794SOL    HW3 3222   1.048   4.020   1.581  0.3750  0.0412 -0.2676
  794SOL    MW4 3223   0.973   4.057   1.556  0.2688  0.0110  0.0052
  795SOL     OW 3224   0.955   4.337   1.589  0.2180  0.0838 -0.1022
  795SOL    HW2 3225   0.949   4.323   1.684  1.5777 -0.8956 -0.1425
  795SOL    HW3 3226   0.875   4.385   1.567 -0.7430 -0.7922  1.3411
  795SOL    MW4 3227   0.944   4.341   1.599  0.2707 -0.1612  0.0829
  796SOL     OW 3228   1.195   4.458   1.493  0.3235 -0.8911 -0.4463
  796SOL    HW2 3229   1.111   4.416   1.513  0.8027 -0.4258  2.8891
  796SOL    HW3 3230   1.184   4.548   1.523  1.8540 -0.7243 -0.3529
  796SOL    MW4 3231   1.182   4.464   1.500  0.5887 -0.8078  0.0062
  797SOL     OW 3232   1.603   0.045   1.600 -0.4052 -0.7794  0.0166
  797SOL    HW2 3233   1.594   0.048   1.695 -0.5388 -0.4598 -0.0069
  797SOL    HW3 3234   1.531   0.097   1.567  0.0627 -0.2919 -0.2419
  797SOL    MW4 3235   1.593   0.052   1.608 -0.3611 -0.6729 -0.0207
  798SOL     OW 3236   1.377   0.170   1.528  0.6322 -0.0649  0.7418
  798SOL    HW2 3237   1.381   0.254   1.573 -2.3218  0.5053  0.0424
  798SOL    HW3 3238   1.385   0.192   1.435 -1.0576 -0.4319  0.4928
  798SOL    MW4 3239   1.379   0.184   1.522  0.0193 -0.0381  0.6166
  799SOL     OW 3240   1.384   0.427   1.664 -0.2040 -0.0846 -0.3865
  799SOL    HW2 3241   1.310   0.476   1.628 -0.1842  0.1319 -0.1395
  799SOL    HW3 3242   1.461   0.464   1.620 -0.0988  0.7715  0.4895
  799SOL    MW4 3243   1.384   0.438   1.653 -0.1874  0.0569 -0.2385
  800SOL     OW 3244   1.622   0.486   1.525 -0.0106  0.6645  0.0380
  800SOL    HW2 3245   1.694   0.439   1.567  0.1613  0.5964 -0.3338
  800SOL    HW3 3246   1.641   0.481   1.432 -1.6759 -1.3164 -0.2427
  800SOL    MW4 3247   1.634   0.479   1.518 -0.2078  0.3941 -0.0480
  801SOL     OW 3248   1.567   0.750   1.632 -0.1236  0.0797 -0.1054
  801SOL    HW2 3249   1.568   0.768   1.726  0.1093 -0.8609  0.0787
  801SOL    HW3 3250   1.590   0.657   1.625 -2.6765 -0.5200 -0.9387
  801SOL    MW4 3251   1.571   0.740   1.643 -0.4296 -0.1236 -0.1911
  802SOL     OW 3252   1.371   0.901   1.521 -0.4614 -0.6976  0.5249
  802SOL    HW2 3253   1.437   0.842   1.557 -0.7055 -1.0629  0.3718
  802SOL    HW3 3254   1.383   0.894   1.426  1.0249  1.1949  0.5154
  802SOL    MW4 3255   1.381   0.892   1.513 -0.2974 -0.4962  0.5033
  803SOL     OW 3256   1.601   1.300   1.535 -0.5903  0.1627 -0.1491
  803SOL    HW2 3257   1.524   1.261   1.576  0.1153 -0.0629  0.9735
  803SOL    HW3 3258   1.579   1.305   1.442 -0.8165 -2.6922 -0.2872
  803SOL    MW4 3259   1.588   1.296   1.528 -0.5271 -0.2437 -0.0192
  804SOL     OW 3260   1.558   1.565   1.630 -0.2940 -0.6448  0.1473
  804SOL    HW2 3261   1.558   1.553   1.725  2.1238  0.0414  0.2554
  804SOL    HW3 3262   1.563   1.476   1.595 -2.6094 -0.9977  0.5909
  804SOL    MW4 3263   1.559   1.552   1.638 -0.2806 -0.6009  0.2202
  805SOL     OW 3264   1.304   1.669   1.539 -0.3145  0.3870  0.0377
  805SOL    HW2 3265   1.386   1.631   1.569 -0.5918 -1.0656 -0.9862
  805SOL    HW3 3266   1.300   1.647   1.446 -2.2060 -0.2003  0.2409
  805SOL    MW4 3267   1.314   1.661   1.531 -0.6007  0.1178 -0.0707
  806SOL     OW 3268   4.233   0.851   0.879  0.4637 -0.4207  0.2697
  806SOL    HW2 3269   4.257   0.780   0.819  0.2321 -1.0554  0.9252
  806SOL    HW3 3270   4.138   0.859   0.870  0.6358  0.7136 -0.7926
  806SOL    MW4 3271   4.224   0.843   0.870  0.4563 -0.3548  0.2159
  807SOL     OW 3272   1.377   1.946   1.616 -0.2749  0.1790  0.2326
  807SOL    HW2 3273   1.354   1.940   1.708  0.9272 -0.7060  0.4863
  807SOL    HW3 3274   1.364   1.858   1.582 -1.2413  0.6255 -0.5807
  807SOL    MW4 3275   1.372   1.934   1.624 -0.2437  0.1211  0.1589
  808SOL     OW 3276   1.599   2.072   1.557  0.4887 -0.0791 -0.1286
  808SOL    HW2 3277   1.516   2.028   1.576  1.3380 -1.4275  0.6138
  808SOL    HW3 3278   1.599   2.084   1.463 -0.7749  0.3973 -0.0800
  808SOL    MW4 3279   1.588   2.068   1.547  0.4342 -0.1943 -0.0243
  809SOL     OW 3280   1.574   2.337   1.646  0.1720  0.2743 -0.1978
  809SOL    HW2 3281   1.665   2.365   1.642  0.4957 -0.8506 -1.2069
  809SOL    HW3 3282   1.577   2.243   1.627 -1.3075  0.4671 -1.5302
  809SOL    MW4 3283   1.586   2.328   1.643  0.0196  0.1512 -0.5069
  810SOL     OW 3284   1.384   2.477   1.473 -0.3440  0.3779 -0.1627
  810SOL    HW2 3285   1.384   2.568   1.502  0.4085  0.8274 -1.5279
  810SOL    HW3 3286   1.458   2.437   1.519 -0.8123  0.4014  0.6084
  810SOL    MW4 3287   1.394   2.483   1.483 -0.3065  0.4401 -0.2410
  811SOL     OW 3288   1.639   2.874   1.501 -0.8394  0.2534  0.3780
  811SOL    HW2 3289   1.622   2.901   1.411  1.1574 -1.3409 -0.5161
  811SOL    HW3 3290   1.562   2.823   1.526 -0.5086 -1.0064 -1.1362
  811SOL    MW4 3291   1.626   2.871   1.492 -0.5323 -0.1233  0.0603
  812SOL     OW 3292   1.874   2.761   1.592  0.1147 -0.5083  0.2832
  812SOL    HW2 3293   1.808   2.816   1.551 -0.6969 -0.9992  0.9207
  812SOL    HW3 3294   1.953   2.814   1.592 -0.8013  0.8680  1.3956
  812SOL    MW4 3295   1.876   2.775   1.587 -0.1132 -0.3915  0.5140
  813SOL     OW 3296   1.600   3.111   1.619  0.3025  0.1619 -0.4202
  813SOL    HW2 3297   1.679   3.158   1.593  0.0603  0.1414 -1.2217
  813SOL    HW3 3298   1.612   3.023   1.582 -0.8070  0.6249 -1.9552
  813SOL    MW4 3299   1.612   3.105   1.610  0.1241  0.2201 -0.7285
  814SOL     OW 3300   1.387   3.236   1.464  0.2743 -0.4190  0.2995
  814SOL    HW2 3301   1.368   3.325   1.494 -0.5655 -0.4674 -0.0554
  814SOL    HW3 3302   1.468   3.212   1.508  0.5250  0.5388  0.3698
  814SOL    MW4 3303   1.395   3.244   1.473  0.1966 -0.2992  0.2619
  815SOL     OW 3304   1.377   3.473   1.594  0.5832  0.6335 -0.5082
  815SOL    HW2 3305   1.368   3.485   1.688 -1.5978  2.7877 -0.9254
  815SOL    HW3 3306   1.462   3.510   1.572  1.4576 -0.6284  0.7137
  815SOL    MW4 3307   1.387   3.480   1.603  0.4108  0.7510 -0.4019
  816SOL     OW 3308   1.603   3.636   1.576  0.3079  0.0619  0.0931
  816SOL    HW2 3309   1.593   3.722   1.618 -1.2448 -0.7064  1.3304
  816SOL    HW3 3310   1.596   3.655   1.482  0.2916  1.3317  0.3353
  816SOL    MW4 3311   1.600   3.650   1.569  0.1010  0.1283  0.2885
  817SOL     OW 3312   1.586   3.902   1.677 -0.1110 -0.1398 -0.5952
  817SOL    HW2 3313   1.588   3.897   1.773 -0.7225  1.3277 -0.4954
  817SOL    HW3 3314   1.509   3.954   1.657  0.8133  0.7866 -1.8370
  817SOL    MW4 3315   1.576   3.908   1.687 -0.0697  0.1760 -0.7460
  818SOL     OW 3316   1.375   4.031   1.547  0.6686 -0.8798  0.0241
  818SOL    HW2 3317   1.390   4.122   1.575 -1.6686 -0.6839  0.7581
  818SOL    HW3 3318   1.420   4.025   1.463 -0.2893  1.3900 -0.7133
  818SOL    MW4 3319   1.383   4.042   1.540  0.2339 -0.5550  0.0237
  819SOL     OW 3320   1.389   4.301   1.635 -0.1606  0.3568  0.2537
  819SOL    HW2 3321   1.460   4.350   1.594  1.4999 -0.6705  1.8270
  819SOL    HW3 3322   1.310   4.350   1.612  1.1700  2.2436 -0.4396
  819SOL    MW4 3323   1.388   4.314   1.626  0.2341  0.4702  0.3697
  820SOL     OW 3324   1.578   4.451   1.495 -0.5296  0.4209 -0.1440
  820SOL    HW2 3325   1.640   4.403   1.550 -0.3236  1.4020  0.4913
  820SOL    HW3 3326   1.584   4.542   1.525 -1.0724  0.8139 -1.1806
  820SOL    MW4 3327   1.587   4.457   1.506 -0.5739  0.6022 -0.1969
  821SOL     OW 3328   2.100   4.595   1.624  0.0646  0.1904  0.2131
  821SOL    HW2 3329   2.097   4.601   1.719 -2.4994 -0.5204  0.2104
  821SOL    HW3 3330   2.034   4.657   1.594 -0.2377 -0.7015 -1.0213
  821SOL    MW4 3331   2.091   4.604   1.632 -0.3133 -0.0210  0.0499
  822SOL     OW 3332   1.883   0.091   1.543 -0.0772  1.0846 -0.1680
  822SOL    HW2 3333   1.792   0.075   1.567 -0.3103  2.8844  0.2015
  822SOL    HW3 3334   1.885   0.080   1.448 -0.4814  0.1498 -0.0712
  822SOL    MW4 3335   1.872   0.087   1.533 -0.1613  1.1988 -0.1065
  823SOL     OW 3336   1.862   0.373   1.625 -0.5070 -0.4354 -0.2446
  823SOL    HW2 3337   1.943   0.418   1.600  0.3358 -0.7777  1.7923
  823SOL    HW3 3338   1.876   0.282   1.601  0.2663 -0.7477  1.3486
  823SOL    MW4 3339   1.874   0.367   1.619 -0.2939 -0.5217  0.2344
  824SOL     OW 3340   2.091   0.512   1.569 -0.1774 -0.5041  0.6252
  824SOL    HW2 3341   2.179   0.480   1.589  0.0938 -0.2088 -0.0892
  824SOL    HW3 3342   2.075   0.581   1.633  0.5590  0.2182  0.0452
  824SOL    MW4 3343   2.101   0.517   1.580 -0.0443 -0.3698  0.4543
  825SOL     OW 3344   2.050   0.756   1.675 -0.2704  0.2295  0.1028
  825SOL    HW2 3345   2.118   0.800   1.625 -0.0384 -1.9505 -1.5507
  825SOL    HW3 3346   1.968   0.788   1.637 -0.1204  0.3688 -0.1000
  825SOL    MW4 3347   2.048   0.766   1.664 -0.2201 -0.0398 -0.1422
  826SOL     OW 3348   1.811   0.886   1.572 -0.3933  0.9357 -0.5578
  826SOL    HW2 3349   1.804   0.975   1.608 -1.7477  1.5112 -2.1917
  826SOL    HW3 3350   1.729   0.844   1.597 -0.1012  0.4014 -0.4953
  826SOL    MW4 3351   1.800   0.892   1.580 -0.5335  0.9411 -0.7651
  827SOL     OW 3352   1.801   1.151   1.665  0.1243 -0.3281 -0.1501
  827SOL    HW2 3353   1.888   1.164   1.629 -0.1163  1.5217 -0.1045
  827SOL    HW3 3354   1.744   1.206   1.611 -0.5162  0.9996  1.8004
  827SOL    MW4 3355   1.805   1.160   1.653  0.0080  0.0911  0.1132
  828SOL     OW 3356   2.034   1.262   1.541 -0.3959 -0.0657 -0.2258
  828SOL    HW2 3357   2.027   1.356   1.561  0.6101  0.1118 -0.6666
  828SOL    HW3 3358   2.012   1.256   1.448 -0.8572 -0.3230 -0.1000
  828SOL    MW4 3359   2.030   1.274   1.532 -0.3240 -0.0763 -0.2673
  829SOL     OW 3360   2.025   1.530   1.617 -0.0523  0.2363  0.3130
  829SOL    HW2 3361   2.097   1.588   1.593 -0.2365  0.1524 -0.4615
  829SOL    HW3 3362   1.948   1.568   1.574 -0.3062 -0.1764  0.3956
  829SOL    MW4 3363   2.024   1.543   1.608 -0.1101  0.1708  0.2217
  830SOL     OW 3364   1.794   1.637   1.516 -0.0506  0.4606 -0.1403
  830SOL    HW2 3365   1.718   1.604   1.563  1.1435 -1.2403  0.6324
  830SOL    HW3 3366   1.769   1.630   1.423 -0.2734 -1.5584  0.0415
  830SOL    MW4 3367   1.780   1.632   1.510  0.0776 -0.0302 -0.0142
  831SOL     OW 3368   1.792   1.886   1.658  0.2551  0.2048  0.3498
  831SOL    HW2 3369   1.798   1.801   1.615  2.4258  0.7233 -0.4314
  831SOL    HW3 3370   1.727   1.934   1.606 -1.7211 -1.2876  1.4009
  831SOL    MW4 3371   1.784   1.881   1.645  0.2806  0.0763  0.3854
  832SOL     OW 3372   2.251   1.928   1.651 -0.3417 -0.4178  0.6671
  832SOL    HW2 3373   2.237   1.936   1.745 -1.0932 -2.5999  0.7701
  832SOL    HW3 3374   2.169   1.958   1.611 -0.4852 -0.6943  0.7554
  832SOL    MW4 3375   2.239   1.933   1.658 -0.4599 -0.7421  0.6922
  833SOL     OW 3376   2.013   2.031   1.548  0.3293  0.0849  0.0022
  833SOL    HW2 3377   2.008   2.120   1.584 -0.4308  0.2062 -0.3930
  833SOL    HW3 3378   1.943   1.983   1.593  0.5704 -0.2466  0.0268
  833SOL    MW4 3379   2.003   2.037   1.559  0.2611  0.0572 -0.0466
  834SOL     OW 3380   2.031   2.310   1.634 -0.3622 -0.6275 -0.1665
  834SOL    HW2 3381   2.036   2.311   1.729 -0.4724  0.8166 -0.1569
  834SOL    HW3 3382   1.953   2.362   1.613 -0.3526 -0.9457 -1.0394
  834SOL    MW4 3383   2.022   2.317   1.644 -0.3755 -0.4790 -0.2804
  835SOL     OW 3384   1.825   2.476   1.585 -0.6233 -0.3982 -0.5528
  835SOL    HW2 3385   1.836   2.570   1.591  1.4611 -0.5896 -1.1103
  835SOL    HW3 3386   1.820   2.458   1.491 -1.5797 -0.7932 -0.4385
  835SOL    MW4 3387   1.825   2.486   1.573 -0.4745 -0.4756 -0.6114
  836SOL     OW 3388   2.128   2.914   1.489 -0.1177  0.0421 -0.4113
  836SOL    HW2 3389   2.113   3.000   1.528  0.3511 -0.0361 -0.0496
  836SOL    HW3 3390   2.103   2.924   1.397 -0.3618  0.4756 -0.2980
  836SOL    MW4 3391   2.123   2.926   1.482 -0.0880  0.0887 -0.3484
  837SOL     OW 3392   2.026   3.136   1.617  0.2610 -0.2114 -0.4871
  837SOL    HW2 3393   2.018   3.142   1.712  1.1129 -0.6286 -0.3797
  837SOL    HW3 3394   2.101   3.192   1.596  0.0850 -0.1331 -0.9065
  837SOL    MW4 3395   2.035   3.144   1.627  0.3500 -0.2561 -0.5283
  838SOL     OW 3396   1.813   3.271   1.531 -0.5721 -0.5003 -0.5683
  838SOL    HW2 3397   1.836   3.358   1.564  0.5567 -0.7237 -0.7492
  838SOL    HW3 3398   1.885   3.215   1.560 -1.8740 -1.6189  0.5747
  838SOL    MW4 3399   1.825   3.275   1.539 -0.5949 -0.6773 -0.4413
  839SOL     OW 3400   1.828   3.516   1.648 -0.0768  0.4260 -0.0971
  839SOL    HW2 3401   1.822   3.531   1.743  0.2766  2.6865 -0.4144
  839SOL    HW3 3402   1.756   3.566   1.611 -0.5231 -0.8581 -1.0145
  839SOL    MW4 3403   1.817   3.524   1.656 -0.0890  0.5548 -0.2600
  840SOL     OW 3404   2.032   3.621   1.517  0.4604 -0.1458 -0.0989
  840SOL    HW2 3405   2.108   3.575   1.551  0.0818  0.2513  1.2998
  840SOL    HW3 3406   1.958   3.582   1.564 -0.2030 -0.4916 -1.4046
  840SOL    MW4 3407   2.032   3.610   1.527  0.3231 -0.1390 -0.0867
  841SOL     OW 3408   2.049   3.874   1.638  0.1217 -0.4605  0.3321
  841SOL    HW2 3409   2.122   3.922   1.600  0.0890 -0.9401 -0.3478
  841SOL    HW3 3410   2.053   3.787   1.597  0.4215 -1.1770  1.8564
  841SOL    MW4 3411   2.059   3.869   1.628  0.1571 -0.6180  0.4436
  842SOL     OW 3412   1.819   4.036   1.565  0.5586 -0.3217 -0.0022
  842SOL    HW2 3413   1.888   3.977   1.597  0.3387 -0.1921  0.7236
  842SOL    HW3 3414   1.740   4.006   1.609 -0.1325 -1.3554 -1.8838
  842SOL    MW4 3415   1.818   4.024   1.575  0.4385 -0.4411 -0.1547
  843SOL     OW 3416   1.776   4.308   1.627  0.0727  0.3647  0.5546
  843SOL    HW2 3417   1.852   4.358   1.598  0.1039  0.9089  1.5608
  843SOL    HW3 3418   1.797   4.217   1.605  1.6646  0.3108  2.1705
  843SOL    MW4 3419   1.789   4.302   1.620  0.2869  0.4287  0.9006
  844SOL     OW 3420   2.021   4.371   1.507 -0.1374 -0.3751 -0.3787
  844SOL    HW2 3421   2.076   4.299   1.536  0.2132 -0.1988 -0.5979
  844SOL    HW3 3422   2.057   4.448   1.552 -0.0192 -0.2122 -0.7473
  844SOL    MW4 3423   2.033   4.372   1.516 -0.0756 -0.3304 -0.4562
  845SOL     OW 3424   2.501   4.606   1.655  0.6065 -0.2404  0.3581
  845SOL    HW2 3425   2.494   4.635   1.746 -1.6760 -0.3636  0.2335
  845SOL    HW3 3426   2.432   4.653   1.609  0.8807 -1.1929 -1.0677
  845SOL    MW4 3427   2.491   4.616   1.661  0.3414 -0.3824  0.1535
  846SOL     OW 3428   2.310   0.096   1.537 -0.1373 -0.5451 -0.7664
  846SOL    HW2 3429   2.237   0.038   1.555  1.2532 -2.1086  0.0528
  846SOL    HW3 3430   2.297   0.126   1.447 -1.7585 -0.8052 -0.6180
  846SOL    MW4 3431   2.299   0.092   1.528 -0.1676 -0.7857 -0.6388
  847SOL     OW 3432   2.305   0.360   1.643  0.0381 -0.6723  0.0902
  847SOL    HW2 3433   2.287   0.346   1.736  1.7320 -1.1354  0.3604
  847SOL    HW3 3434   2.314   0.272   1.607  1.5767 -0.4700 -0.0583
  847SOL    MW4 3435   2.303   0.347   1.650  0.4647 -0.7067  0.1063
  848SOL     OW 3436   2.524   0.499   1.578  0.5330  0.1424  0.0016
  848SOL    HW2 3437   2.598   0.442   1.599 -0.5232 -0.9137  0.9024
  848SOL    HW3 3438   2.446   0.450   1.605 -0.3646  2.2846  1.4757
  848SOL    MW4 3439   2.523   0.485   1.584  0.2751  0.2857  0.3148
  849SOL     OW 3440   2.511   0.784   1.650 -0.1145 -0.2686 -0.0929
  849SOL    HW2 3441   2.437   0.829   1.608  0.0273 -0.6499 -0.7579
  849SOL    HW3 3442   2.507   0.694   1.617  0.4168 -0.3936  0.1729
  849SOL    MW4 3443   2.500   0.778   1.640 -0.0257 -0.3354 -0.1456
  850SOL     OW 3444   2.272   0.881   1.532 -0.0043 -0.3676  0.0658
  850SOL    HW2 3445   2.257   0.964   1.577 -0.3033 -0.3964  0.0171
  850SOL    HW3 3446   2.233   0.893   1.446 -1.1423 -0.9973  0.4910
  850SOL    MW4 3447   2.265   0.894   1.527 -0.1936 -0.4545  0.1155
  851SOL     OW 3448   2.249   1.133   1.661  0.0767  0.1913  0.3677
  851SOL    HW2 3449   2.260   1.168   1.749 -2.9597  0.1901  0.7952
  851SOL    HW3 3450   2.179   1.186   1.622 -0.6781 -1.7055 -0.9659
  851SOL    MW4 3451   2.241   1.145   1.667 -0.4234 -0.0591  0.2481
  852SOL     OW 3452   2.458   1.273   1.565 -0.1752 -0.7168  0.7744
  852SOL    HW2 3453   2.384   1.220   1.597 -0.4047 -0.4345  0.7041
  852SOL    HW3 3454   2.534   1.231   1.605 -0.4538 -0.4291  1.6210
  852SOL    MW4 3455   2.458   1.260   1.575 -0.2422 -0.6416  0.8768
  853SOL     OW 3456   2.456   1.556   1.644  0.1887 -0.1779 -0.2951
  853SOL    HW2 3457   2.534   1.600   1.612  0.4450 -0.3320  0.1097
  853SOL    HW3 3458   2.466   1.465   1.616 -0.8319  0.2280 -2.0188
  853SOL    MW4 3459   2.468   1.550   1.636  0.0877 -0.1447 -0.4691
  854SOL     OW 3460   2.204   1.654   1.244 -0.3241 -0.2017 -0.5780
  854SOL    HW2 3461   2.126   1.610   1.208 -0.3484 -0.9892  0.3872
  854SOL    HW3 3462   2.187   1.657   1.338  0.3813  0.5126 -0.4761
  854SOL    MW4 3463   2.191   1.648   1.251 -0.2346 -0.2114 -0.4373
  855SOL     OW 3464   2.233   1.680   1.527  0.0975  0.1510  0.4065
  855SOL    HW2 3465   2.258   1.767   1.556  1.2546 -0.0560  0.0561
  855SOL    HW3 3466   2.301   1.622   1.560  0.1156 -0.4206 -0.5889
  855SOL    MW4 3467   2.245   1.684   1.535  0.2525  0.0482  0.2289
  856SOL     OW 3468   2.463   2.071   1.542  0.0192  0.3618  0.2271
  856SOL    HW2 3469   2.383   2.035   1.581 -0.7332 -0.6856 -2.2487
  856SOL    HW3 3470   2.460   2.044   1.451  3.0277  0.6565  0.0007
  856SOL    MW4 3471   2.452   2.063   1.535  0.3166  0.2627 -0.1293
  857SOL     OW 3472   2.467   2.349   1.633  0.6190  0.0538 -0.4158
  857SOL    HW2 3473   2.466   2.338   1.728 -0.8641 -0.2130 -0.4468
  857SOL    HW3 3474   2.473   2.260   1.599  2.4981  0.2330 -0.5658
  857SOL    MW4 3475   2.467   2.335   1.641  0.6709  0.0422 -0.4396
  858SOL     OW 3476   2.241   2.475   1.531  0.2283  0.1894 -0.0500
  858SOL    HW2 3477   2.315   2.421   1.559  0.3240 -0.2929 -1.2246
  858SOL    HW3 3478   2.164   2.427   1.562  0.3043 -0.7240 -1.2564
  858SOL    MW4 3479   2.241   2.461   1.539  0.2508  0.0052 -0.3641
  859SOL     OW 3480   2.290   2.721   1.626  0.0577  0.2706 -0.1131
  859SOL    HW2 3481   2.264   2.639   1.584  0.3505  0.8082 -1.3863
  859SOL    HW3 3482   2.233   2.787   1.587  0.1170  0.7416  0.5851
  859SOL    MW4 3483   2.279   2.719   1.615  0.1042  0.4039 -0.1891
  860SOL     OW 3484   2.503   2.842   1.513  0.2454 -0.2009  0.4394
  860SOL    HW2 3485   2.505   2.929   1.552  0.3823 -0.1498  0.3199
  860SOL    HW3 3486   2.425   2.801   1.549 -1.2309  0.8775 -1.4425
  860SOL    MW4 3487   2.493   2.848   1.523  0.0687 -0.0517  0.1752
  861SOL     OW 3488   2.494   3.105   1.612  0.1476 -0.4511  0.1902
  861SOL    HW2 3489   2.575   3.142   1.578 -0.6481  0.7850 -0.3836
  861SOL    HW3 3490   2.426   3.168   1.587 -0.7160 -0.4442  2.4561
  861SOL    MW4 3491   2.496   3.118   1.604 -0.0713 -0.2871  0.4135
  862SOL     OW 3492   2.256   3.252   1.537 -0.0996  0.3614 -0.1011
  862SOL    HW2 3493   2.254   3.347   1.551  1.1202  0.1122  2.0145
  862SOL    HW3 3494   2.242   3.241   1.443 -1.2852  2.5829 -0.2058
  862SOL    MW4 3495   2.254   3.263   1.527 -0.0954  0.6216  0.1642
  863SOL     OW 3496   2.266   3.538   1.601  0.1967  0.4625  0.4131
  863SOL    HW2 3497   2.271   3.551   1.696 -0.7223  0.6622  0.4348
  863SOL    HW3 3498   2.352   3.563   1.569 -0.0226  2.0118  1.0013
  863SOL    MW4 3499   2.278   3.543   1.609  0.0463  0.6936  0.4936
  864SOL     OW 3500   2.500   3.627   1.493  0.2965 -0.2958 -0.6232
  864SOL    HW2 3501   2.579   3.579   1.518  0.5151 -0.3554 -1.4402
  864SOL    HW3 3502   2.511   3.713   1.533  0.3846 -0.5786 -0.0332
  864SOL    MW4 3503   2.512   3.632   1.502  0.3371 -0.3409 -0.6531
  865SOL     OW 3504   2.538   3.887   1.593  0.1381  0.4757  0.2682
  865SOL    HW2 3505   2.543   3.886   1.689  1.5549  0.8085  0.2105
  865SOL    HW3 3506   2.616   3.936   1.566 -0.9042  1.4628 -1.0158
  865SOL    MW4 3507   2.549   3.894   1.602  0.1876  0.6499  0.0911
  866SOL     OW 3508   2.279   3.983   1.552  0.0586 -0.3055  0.5371
  866SOL    HW2 3509   2.370   3.960   1.573  0.0214 -0.8511  0.1097
  866SOL    HW3 3510   2.274   3.977   1.457 -0.6330 -1.0377  0.6145
  866SOL    MW4 3511   2.290   3.979   1.542 -0.0377 -0.4740  0.4909
  867SOL     OW 3512   2.225   4.240   1.637 -0.2510 -0.2166  0.1505
  867SOL    HW2 3513   2.294   4.276   1.581 -0.3249  0.8422  0.7479
  867SOL    HW3 3514   2.242   4.146   1.637  1.6683  0.0977  0.9107
  867SOL    MW4 3515   2.236   4.232   1.629 -0.0076 -0.0358  0.3295
  868SOL     OW 3516   2.454   4.344   1.519 -0.3661 -0.6269  0.1587
  868SOL    HW2 3517   2.472   4.416   1.579  1.9078 -0.6989 -0.4090
  868SOL    HW3 3518   2.419   4.387   1.440  2.2663  0.0044 -0.6919
  868SOL    MW4 3519   2.452   4.359   1.516  0.2813 -0.5531 -0.0285
  869SOL     OW 3520   2.951   4.634   1.639 -0.4529  0.2429  0.1197
  869SOL    HW2 3521   2.931   4.642   1.733 -1.8556  1.9336 -0.2985
  869SOL    HW3 3522   2.874   4.670   1.595 -0.6489 -2.3150 -1.7379
  869SOL    MW4 3523   2.938   4.640   1.646 -0.6640  0.1287 -0.1805
  870SOL     OW 3524   2.700   0.069   1.528  0.1638  0.2184 -0.5593
  870SOL    HW2 3525   2.689   0.155   1.569  0.5792  0.0095 -0.0091
  870SOL    HW3 3526   2.639   0.012   1.575  1.6868 -0.3604  0.7829
  870SOL    MW4 3527   2.690   0.073   1.539  0.4196  0.1145 -0.3097
  871SOL     OW 3528   2.714   0.320   1.627  0.1736 -0.1221  0.3779
  871SOL    HW2 3529   2.735   0.327   1.720  0.5050 -1.0808  0.3845
  871SOL    HW3 3530   2.782   0.370   1.583  0.7327 -0.7001  0.5827
  871SOL    MW4 3531   2.726   0.327   1.633  0.2911 -0.3248  0.4057
  872SOL     OW 3532   2.935   0.483   1.516 -0.0481  0.5535 -0.1654
  872SOL    HW2 3533   2.925   0.571   1.553  1.8889  1.9154 -2.7768
  872SOL    HW3 3534   2.948   0.497   1.422  0.9537 -2.4923 -0.5485
  872SOL    MW4 3535   2.935   0.496   1.508  0.3395  0.3313 -0.5605
  873SOL     OW 3536   2.929   0.728   1.647  0.2626 -0.2033 -0.2152
  873SOL    HW2 3537   2.921   0.715   1.742  0.6523  0.9198 -0.0150
  873SOL    HW3 3538   2.867   0.798   1.628 -0.7715 -1.3278 -1.0154
  873SOL    MW4 3539   2.920   0.736   1.657  0.1774 -0.2035 -0.2943
  874SOL     OW 3540   2.721   0.898   1.548 -0.1413 -0.0514 -0.5252
  874SOL    HW2 3541   2.649   0.852   1.590 -0.8058  0.9368 -0.5753
  874SOL    HW3 3542   2.712   0.877   1.455 -0.0883 -0.2882 -0.4786
  874SOL    MW4 3543   2.711   0.889   1.541 -0.2220  0.0478 -0.5256
  875SOL     OW 3544   2.692   1.158   1.628  0.4827  0.5115 -0.1383
  875SOL    HW2 3545   2.705   1.066   1.605  2.1780  0.5858  0.4172
  875SOL    HW3 3546   2.707   1.162   1.722  2.6117  1.6777 -0.4833
  875SOL    MW4 3547   2.696   1.146   1.637  0.9873  0.6752 -0.1105
  876SOL     OW 3548   2.904   1.267   1.506  0.2046 -0.1015  0.1122
  876SOL    HW2 3549   2.977   1.211   1.530 -0.6344 -1.7263 -1.0114
  876SOL    HW3 3550   2.828   1.226   1.547 -0.4291  0.1419 -0.8108
  876SOL    MW4 3551   2.904   1.254   1.514  0.0103 -0.2836 -0.1578
  877SOL     OW 3552   2.910   1.543   1.517  0.5315  0.0161 -0.4944
  877SOL    HW2 3553   2.819   1.573   1.513  0.4183 -0.2062  0.2663
  877SOL    HW3 3554   2.903   1.448   1.510  0.4958 -0.2085  2.1356
  877SOL    MW4 3555   2.897   1.534   1.516  0.5116 -0.0429 -0.0471
  878SOL     OW 3556   2.665   1.672   1.519 -0.0081 -0.0201 -0.3805
  878SOL    HW2 3557   2.670   1.765   1.541  1.9673 -0.2195  0.1037
  878SOL    HW3 3558   2.652   1.670   1.424 -1.1475  0.7614 -0.2405
  878SOL    MW4 3559   2.664   1.684   1.509  0.1020  0.0566 -0.2981
  879SOL     OW 3560   2.700   1.919   1.613  0.2800 -0.0225  0.2248
  879SOL    HW2 3561   2.702   1.925   1.708 -1.4479 -1.3389  0.3825
  879SOL    HW3 3562   2.625   1.973   1.587 -0.5309 -1.3098 -0.1956
  879SOL    MW4 3563   2.690   1.927   1.622 -0.0551 -0.3660  0.1901
  880SOL     OW 3564   2.899   2.072   1.500  0.4860 -0.7553  0.2499
  880SOL    HW2 3565   2.907   2.155   1.546  0.8868 -0.5180 -0.2426
  880SOL    HW3 3566   2.831   2.025   1.547 -0.5424  0.3071 -0.1517
  880SOL    MW4 3567   2.891   2.077   1.512  0.4032 -0.5836  0.1321
  881SOL     OW 3568   2.928   2.312   1.658  0.3495  0.1122  0.2356
  881SOL    HW2 3569   2.936   2.345   1.747  0.4681 -2.2143  1.1240
  881SOL    HW3 3570   2.854   2.360   1.621  2.6235  3.8253  0.2767
  881SOL    MW4 3571   2.919   2.322   1.665  0.6652  0.2954  0.3583
  882SOL     OW 3572   2.714   2.436   1.549  0.1425  0.3242 -0.2374
  882SOL    HW2 3573   2.721   2.527   1.577 -0.4134  0.6601 -1.1835
  882SOL    HW3 3574   2.628   2.408   1.580 -0.0306  0.3750 -0.6687
  882SOL    MW4 3575   2.704   2.444   1.557  0.0465  0.3750 -0.4191
  883SOL     OW 3576   2.713   2.702   1.626 -0.1771 -0.1114  0.0241
  883SOL    HW2 3577   2.791   2.741   1.588  0.1656 -0.7010  0.1164
  883SOL    HW3 3578   2.640   2.749   1.585  0.1847 -0.6427 -1.2574
  883SOL    MW4 3579   2.713   2.713   1.616 -0.0842 -0.2592 -0.1327
  884SOL     OW 3580   2.936   2.812   1.480 -0.0303  0.1130  0.0690
  884SOL    HW2 3581   3.012   2.786   1.533  0.9852  1.3324 -0.7498
  884SOL    HW3 3582   2.903   2.891   1.523 -1.1883 -0.7012  0.7274
  884SOL    MW4 3583   2.942   2.819   1.493 -0.0489  0.1669  0.0478
  885SOL     OW 3584   2.939   3.061   1.613 -0.1615 -0.2099 -0.0586
  885SOL    HW2 3585   2.948   3.047   1.707  1.6356 -0.3812 -0.2299
  885SOL    HW3 3586   3.013   3.117   1.589 -0.4964 -0.2998 -1.3879
  885SOL    MW4 3587   2.950   3.066   1.622  0.0312 -0.2444 -0.2564
  886SOL     OW 3588   2.725   3.212   1.516  0.1695 -0.2089  0.0254
  886SOL    HW2 3589   2.741   3.187   1.425 -2.3073 -0.0980 -0.4576
  886SOL    HW3 3590   2.803   3.182   1.562  1.8133  0.4438 -2.2489
  886SOL    MW4 3591   2.737   3.205   1.510  0.0596 -0.1080 -0.3384
  887SOL     OW 3592   2.725   3.492   1.588 -0.6408 -0.0144 -0.1348
  887SOL    HW2 3593   2.739   3.502   1.682  2.3632 -0.1058 -0.5120
  887SOL    HW3 3594   2.724   3.397   1.573  1.6398 -0.0069 -0.5120
  887SOL    MW4 3595   2.727   3.481   1.598  0.0563 -0.0257 -0.2342
  888SOL     OW 3596   2.957   3.629   1.519 -0.2470 -0.2946  0.0960
  888SOL    HW2 3597   2.880   3.581   1.549  1.2052 -1.7931  1.5506
  888SOL    HW3 3598   2.959   3.616   1.425 -1.4721 -0.6792  0.1151
  888SOL    MW4 3599   2.947   3.621   1.511 -0.2172 -0.5431  0.2905
  889SOL     OW 3600   2.977   3.880   1.625 -0.2221 -0.4277 -0.0843
  889SOL    HW2 3601   2.911   3.931   1.579  0.3897  0.0739 -0.4113
  889SOL    HW3 3602   2.969   3.792   1.589 -1.4013 -0.6082  0.6118
  889SOL    MW4 3603   2.967   3.875   1.614 -0.2968 -0.3855 -0.0355
  890SOL     OW 3604   2.780   4.019   1.477 -0.1835  0.5328  0.2785
  890SOL    HW2 3605   2.742   4.095   1.522 -1.3377  0.3264 -0.3192
  890SOL    HW3 3606   2.746   4.025   1.388  1.0914  0.2458 -0.2329
  890SOL    MW4 3607   2.770   4.030   1.471 -0.1678  0.4683  0.1321
  891SOL     OW 3608   2.671   4.215   1.640 -0.3899 -0.0678 -0.1666
  891SOL    HW2 3609   2.596   4.255   1.595 -0.2549  0.4533  0.0649
  891SOL    HW3 3610   2.746   4.266   1.612 -0.2396 -0.0391  0.2788
  891SOL    MW4 3611   2.671   4.227   1.631 -0.3526  0.0048 -0.0774
  892SOL     OW 3612   3.145   4.265   1.584  0.0806  0.0890 -0.2347
  892SOL    HW2 3613   3.149   4.252   1.679 -0.1850 -0.6724 -0.3209
  892SOL    HW3 3614   3.059   4.306   1.570  0.4046  0.8262 -0.0814
  892SOL    MW4 3615   3.134   4.269   1.595  0.0882  0.0854 -0.2257
  893SOL     OW 3616   3.876   4.413   1.256 -0.3545  0.4267 -0.2141
  893SOL    HW2 3617   3.791   4.372   1.237 -1.5793  3.0280 -0.5703
  893SOL    HW3 3618   3.878   4.423   1.351 -0.9379  1.3055 -0.2835
  893SOL    MW4 3619   3.865   4.409   1.266 -0.5929  0.8860 -0.2701
  894SOL     OW 3620   3.130   0.031   1.245 -0.4998  0.1072 -0.5677
  894SOL    HW2 3621   3.203  -0.009   1.197 -0.4720  0.6905 -1.0038
  894SOL    HW3 3622   3.155   0.021   1.337  0.5815  1.1667 -0.7390
  894SOL    MW4 3623   3.143   0.024   1.251 -0.3536  0.3239 -0.6479
  895SOL     OW 3624   3.190   0.041   1.513  0.4483 -0.5444  0.1565
  895SOL    HW2 3625   3.258   0.023   1.578  0.1598 -0.8559  0.3780
  895SOL    HW3 3626   3.109   0.009   1.554  0.3806 -1.4559 -0.6729
  895SOL    MW4 3627   3.188   0.034   1.527  0.4010 -0.7057  0.0763
  896SOL     OW 3628   3.330   0.500   1.516  0.2073  0.3319 -0.0629
  896SOL    HW2 3629   3.268   0.434   1.547 -0.8920  1.5439  0.3966
  896SOL    HW3 3630   3.315   0.504   1.421  1.4141 -1.1991 -0.3405
  896SOL    MW4 3631   3.320   0.492   1.507  0.2213  0.2898 -0.0389
  897SOL     OW 3632   3.342   0.759   1.649 -0.2785 -0.0488  0.1664
  897SOL    HW2 3633   3.355   0.744   1.743 -0.2372 -0.6570  0.0605
  897SOL    HW3 3634   3.325   0.672   1.612  0.1656  0.1305 -0.4667
  897SOL    MW4 3635   3.341   0.746   1.657 -0.2146 -0.1054  0.0688
  898SOL     OW 3636   3.109   0.861   1.520  0.0542 -0.0408 -0.1130
  898SOL    HW2 3637   3.193   0.843   1.564 -0.7071 -0.0450  1.3712
  898SOL    HW3 3638   3.045   0.807   1.567 -0.8252  0.1227 -1.1017
  898SOL    MW4 3639   3.112   0.851   1.532 -0.1621 -0.0197 -0.0476
  899SOL     OW 3640   3.130   1.126   1.603 -0.2864 -0.5582 -0.0371
  899SOL    HW2 3641   3.140   1.116   1.698 -0.7504  0.8400  0.1751
  899SOL    HW3 3642   3.105   1.039   1.573 -0.1069 -1.0277  1.1213
  899SOL    MW4 3643   3.128   1.114   1.612 -0.3240 -0.4356  0.1436
  900SOL     OW 3644   3.367   1.241   1.517  0.6707  0.1468  0.1957
  900SOL    HW2 3645   3.285   1.199   1.540  0.8924 -0.7165 -0.5685
  900SOL    HW3 3646   3.435   1.182   1.549  0.9819 -0.1875 -1.0653
  900SOL    MW4 3647   3.365   1.228   1.524  0.7410 -0.0113 -0.0715
  901SOL     OW 3648   3.342   1.513   1.574  0.5046  0.0399  0.0522
  901SOL    HW2 3649   3.334   1.512   1.669  1.8109  2.3676  0.2289
  901SOL    HW3 3650   3.361   1.422   1.550 -0.7585 -0.7387  1.8984
  901SOL    MW4 3651   3.344   1.501   1.583  0.5105  0.2444  0.3191
  902SOL     OW 3652   3.134   1.660   1.434  0.2391 -0.1297  0.4403
  902SOL    HW2 3653   3.198   1.599   1.469  0.0505  0.8245  2.5173
  902SOL    HW3 3654   3.049   1.620   1.454  0.1573 -0.2330 -0.1231
  902SOL    MW4 3655   3.131   1.647   1.441  0.2036 -0.0175  0.6400
  903SOL     OW 3656   3.125   1.923   1.588  0.3384  0.3383 -0.0226
  903SOL    HW2 3657   3.122   1.836   1.548 -1.8056 -0.0216  0.8450
  903SOL    HW3 3658   3.059   1.973   1.540  0.7752  1.1611  0.2304
  903SOL    MW4 3659   3.116   1.918   1.576  0.1130  0.3992  0.1252
  904SOL     OW 3660   3.371   2.043   1.496  0.4486 -0.5142 -0.1282
  904SOL    HW2 3661   3.301   1.992   1.538 -0.1888  0.7474  0.3588
  904SOL    HW3 3662   3.346   2.044   1.403 -1.3411  1.6701  0.3201
  904SOL    MW4 3663   3.358   2.036   1.489  0.1285 -0.0598 -0.0046
  905SOL     OW 3664   3.401   2.307   1.584  0.5500  0.2070  0.4150
  905SOL    HW2 3665   3.470   2.341   1.527 -0.7085  0.3639 -1.0689
  905SOL    HW3 3666   3.390   2.216   1.555 -1.8678  1.0172 -1.4273
  905SOL    MW4 3667   3.408   2.299   1.573  0.0648  0.3345 -0.0238
  906SOL     OW 3668   3.146   2.407   1.520  0.1045  0.1107 -0.2934
  906SOL    HW2 3669   3.228   2.369   1.552  0.8972  0.7244 -1.5152
  906SOL    HW3 3670   3.078   2.371   1.576  0.9725 -2.1721 -0.6699
  906SOL    MW4 3671   3.148   2.398   1.531  0.3233 -0.1097 -0.5043
  907SOL     OW 3672   3.155   2.668   1.600 -0.6238 -0.3138 -0.0944
  907SOL    HW2 3673   3.239   2.696   1.566  0.1068  0.6136  2.4178
  907SOL    HW3 3674   3.150   2.575   1.577  1.6179 -0.6725  0.7879
  907SOL    MW4 3675   3.165   2.659   1.592 -0.2317 -0.2389  0.3535
  908SOL     OW 3676   3.391   2.800   1.468 -0.9291 -0.7340  0.2944
  908SOL    HW2 3677   3.400   2.893   1.490 -0.5743 -0.2571 -1.8192
  908SOL    HW3 3678   3.404   2.796   1.374 -2.3057 -2.7661  0.1635
  908SOL    MW4 3679   3.394   2.812   1.459 -1.0641 -0.9391 -0.0017
  909SOL     OW 3680   3.415   3.079   1.590 -0.5264  0.0117  0.1887
  909SOL    HW2 3681   3.330   3.122   1.582 -0.8244 -0.3843  1.2123
  909SOL    HW3 3682   3.434   3.080   1.684 -0.3404 -1.7256  0.1809
  909SOL    MW4 3683   3.407   3.085   1.602 -0.5414 -0.2699  0.3227
  910SOL     OW 3684   3.180   3.216   1.550 -0.1293  0.0819 -0.4109
  910SOL    HW2 3685   3.181   3.230   1.455  0.3935 -2.1852 -0.7913
  910SOL    HW3 3686   3.170   3.303   1.587  0.5971  1.1223 -2.5338
  910SOL    MW4 3687   3.179   3.229   1.542  0.0355 -0.0799 -0.7412
  911SOL     OW 3688   3.371   3.616   1.470 -0.0160  0.4967 -0.8200
  911SOL    HW2 3689   3.387   3.635   1.378  0.7052  0.6632 -0.6690
  911SOL    HW3 3690   3.458   3.594   1.505 -0.2414  0.7085 -0.1219
  911SOL    MW4 3691   3.385   3.616   1.463  0.0494  0.5465 -0.7080
  912SOL     OW 3692   3.179   3.479   1.630 -0.2774 -0.7249 -0.7819
  912SOL    HW2 3693   3.248   3.524   1.582 -1.1596 -0.2430 -1.6030
  912SOL    HW3 3694   3.098   3.526   1.607 -0.8839 -1.2978  0.1424
  912SOL    MW4 3695   3.177   3.491   1.621 -0.4737 -0.7370 -0.7683
  913SOL     OW 3696   3.395   3.882   1.582  0.5284 -0.2662  0.0743
  913SOL    HW2 3697   3.321   3.938   1.559  0.8638 -0.3545 -1.2161
  913SOL    HW3 3698   3.369   3.794   1.554  2.2115  0.1360 -2.8815
  913SOL    MW4 3699   3.382   3.878   1.575  0.7949 -0.2251 -0.4859
  914SOL     OW 3700   3.172   4.012   1.495  0.2192  0.1705 -0.0057
  914SOL    HW2 3701   3.173   4.106   1.515  0.4485  0.2560 -0.4318
  914SOL    HW3 3702   3.095   3.979   1.542 -0.0215  0.6191 -0.0836
  914SOL    MW4 3703   3.162   4.020   1.504  0.2177  0.2413 -0.0722
  915SOL     OW 3704   3.387   4.417   1.542  0.1485  0.0541  0.3054
  915SOL    HW2 3705   3.308   4.371   1.572  0.0797  0.8010  1.3158
  915SOL    HW3 3706   3.392   4.398   1.449 -1.2938  0.0641  0.2106
  915SOL    MW4 3707   3.377   4.408   1.534 -0.0508  0.1540  0.4261
  916SOL     OW 3708   3.390   4.638   1.701  0.5273 -0.6320 -0.4008
  916SOL    HW2 3709   3.400   4.556   1.652  0.6590 -0.1227 -1.2377
  916SOL    HW3 3710   3.444   4.701   1.654  0.6269 -0.1244  0.3909
  916SOL    MW4 3711   3.398   4.635   1.688  0.5579 -0.4973 -0.4069
  917SOL     OW 3712   3.822   0.027   1.592  0.4729 -0.5837  0.1003
  917SOL    HW2 3713   3.826   0.009   1.686  1.1894  0.1755  0.2235
  917SOL    HW3 3714   3.895   0.087   1.576  0.4440 -0.8205 -0.9694
  917SOL    MW4 3715   3.832   0.032   1.602  0.5636 -0.5148 -0.0247
  918SOL     OW 3716   3.381   4.635   1.973 -0.4462 -0.2272  0.1176
  918SOL    HW2 3717   3.385   4.641   1.877  0.4384 -2.0078  0.0193
  918SOL    HW3 3718   3.361   4.543   1.990  0.1348 -0.0777  1.6696
  918SOL    MW4 3719   3.379   4.624   1.962 -0.2527 -0.4425  0.3095
  919SOL     OW 3720   3.552   0.387   1.598  0.5323  0.1168  0.0338
  919SOL    HW2 3721   3.551   0.299   1.561  0.0052 -0.4748  1.4037
  919SOL    HW3 3722   3.468   0.426   1.573  0.2877 -0.1826  0.3961
  919SOL    MW4 3723   3.541   0.381   1.590  0.4303 -0.0008  0.2624
  920SOL     OW 3724   3.820   0.491   1.525 -0.4410  0.3438  0.1291
  920SOL    HW2 3725   3.733   0.457   1.544  0.4286 -1.8567  0.3965
  920SOL    HW3 3726   3.822   0.500   1.429 -0.3853 -1.3178 -0.0428
  920SOL    MW4 3727   3.809   0.487   1.515 -0.3188 -0.1658  0.1417
  921SOL     OW 3728   3.820   0.738   1.633  0.1443  0.0588  0.0024
  921SOL    HW2 3729   3.749   0.785   1.590  0.2961 -0.1596 -0.4977
  921SOL    HW3 3730   3.817   0.650   1.595  2.5122  0.8498 -2.2282
  921SOL    MW4 3731   3.811   0.733   1.622  0.4768  0.1344 -0.3577
  922SOL     OW 3732   3.597   0.850   1.528 -0.4000 -0.2598 -0.1936
  922SOL    HW2 3733   3.508   0.825   1.552 -0.3416 -1.3030 -1.0286
  922SOL    HW3 3734   3.596   0.856   1.433  0.1276  0.9116 -0.1429
  922SOL    MW4 3735   3.585   0.848   1.519 -0.3226 -0.2428 -0.2971
  923SOL     OW 3736   3.595   1.126   1.615 -0.3593  0.0772  0.0512
  923SOL    HW2 3737   3.676   1.170   1.588 -0.0100  1.2206  2.7342
  923SOL    HW3 3738   3.605   1.036   1.585  2.1049  0.1187  0.6243
  923SOL    MW4 3739   3.607   1.120   1.608  0.0122  0.2337  0.4809
  924SOL     OW 3740   3.806   1.279   1.518  0.0594  0.4275 -0.4888
  924SOL    HW2 3741   3.882   1.226   1.544 -0.2654 -0.4115 -1.2272
  924SOL    HW3 3742   3.831   1.369   1.540  1.2231  0.1444 -0.6033
  924SOL    MW4 3743   3.820   1.284   1.524  0.1698  0.2794 -0.6013
  925SOL     OW 3744   3.818   1.554   1.604 -0.0971 -0.0250 -0.3220
  925SOL    HW2 3745   3.797   1.547   1.697  0.4954  1.2722 -0.0777
  925SOL    HW3 3746   3.736   1.584   1.564 -0.3133 -0.4453 -0.1963
  925SOL    MW4 3747   3.804   1.557   1.611 -0.0477  0.0906 -0.2731
  926SOL     OW 3748   3.567   1.663   1.511  0.1737  0.2889 -0.1317
  926SOL    HW2 3749   3.486   1.616   1.532  0.0230  0.9091  0.6929
  926SOL    HW3 3750   3.574   1.657   1.415 -1.0175  0.4972 -0.2393
  926SOL    MW4 3751   3.557   1.656   1.501 -0.0036  0.3982 -0.0371
  927SOL     OW 3752   3.602   1.929   1.608 -0.1336 -0.2819  0.4913
  927SOL    HW2 3753   3.606   1.840   1.573  1.2891  0.5182 -1.4316
  927SOL    HW3 3754   3.521   1.965   1.573  0.6124  0.0603 -0.9081
  927SOL    MW4 3755   3.592   1.922   1.599  0.1523 -0.1312  0.0529
  928SOL     OW 3756   3.807   2.061   1.486  0.0016 -0.0541 -0.1938
  928SOL    HW2 3757   3.802   2.148   1.525  0.2859  0.1201 -0.5427
  928SOL    HW3 3758   3.733   2.014   1.524 -0.7236  0.6380 -0.7442
  928SOL    MW4 3759   3.797   2.066   1.496 -0.0563  0.0603 -0.3126
  929SOL     OW 3760   3.783   2.305   1.602  0.0311  0.1648  0.6127
  929SOL    HW2 3761   3.776   2.289   1.696  0.7210  0.6222  0.7499
  929SOL    HW3 3762   3.859   2.363   1.594 -0.4287  0.6494 -0.1681
  929SOL    MW4 3763   3.792   2.310   1.614  0.0615  0.2892  0.5279
  930SOL     OW 3764   3.583   2.414   1.423  0.3128  0.5239  0.8360
  930SOL    HW2 3765   3.588   2.499   1.466 -0.2071  0.2912  1.3689
  930SOL    HW3 3766   3.651   2.362   1.465  1.2659  0.9541 -0.1439
  930SOL    MW4 3767   3.592   2.418   1.434  0.3698  0.5500  0.7770
  931SOL     OW 3768   3.602   2.660   1.559 -0.5997 -0.0932  0.2622
  931SOL    HW2 3769   3.589   2.651   1.653 -0.5196 -2.2229  0.0843
  931SOL    HW3 3770   3.527   2.712   1.529 -1.7503 -1.2258  1.1741
  931SOL    MW4 3771   3.591   2.666   1.567 -0.7408 -0.5236  0.3591
  932SOL     OW 3772   3.783   2.841   1.515  0.0524 -0.0047  0.5171
  932SOL    HW2 3773   3.868   2.803   1.538  0.6207  0.5182 -0.6647
  932SOL    HW3 3774   3.719   2.774   1.542  0.8079 -0.2830  1.6646
  932SOL    MW4 3775   3.786   2.827   1.522  0.2270  0.0274  0.5126
  933SOL     OW 3776   3.784   3.109   1.633  0.3252  0.0396 -0.1089
  933SOL    HW2 3777   3.857   3.150   1.587  0.7061 -0.2547  0.2275
  933SOL    HW3 3778   3.776   3.023   1.591  1.0262 -0.4464  0.7282
  933SOL    MW4 3779   3.793   3.103   1.621  0.4680 -0.0634  0.0460
  934SOL     OW 3780   3.605   3.230   1.477  0.4419 -0.0398  0.0576
  934SOL    HW2 3781   3.525   3.197   1.517  0.5278  0.4885  0.6839
  934SOL    HW3 3782   3.675   3.196   1.532  0.6352 -0.4134 -0.4265
  934SOL    MW4 3783   3.604   3.221   1.489  0.4787 -0.0193  0.0764
  935SOL     OW 3784   3.593   3.498   1.574 -0.2588 -0.2770 -0.1500
  935SOL    HW2 3785   3.601   3.412   1.533  0.0308  1.1225 -3.2300
  935SOL    HW3 3786   3.677   3.541   1.556 -0.9024  1.1366  0.1113
  935SOL    MW4 3787   3.605   3.492   1.566 -0.3054  0.0942 -0.5220
  936SOL     OW 3788   3.840   3.663   1.514 -0.0700  0.4886 -0.1852
  936SOL    HW2 3789   3.922   3.628   1.547 -0.3248  1.1040  1.1442
  936SOL    HW3 3790   3.830   3.747   1.559 -0.5935  1.2021 -1.6004
  936SOL    MW4 3791   3.849   3.669   1.524 -0.1726  0.6640 -0.1967
  937SOL     OW 3792   3.858   3.920   1.632 -0.4540  0.7130  0.0674
  937SOL    HW2 3793   3.934   3.953   1.584 -0.8930  1.7514  0.0811
  937SOL    HW3 3794   3.783   3.960   1.589 -1.0881 -1.1304 -0.6166
  937SOL    MW4 3795   3.858   3.929   1.620 -0.5956  0.6068 -0.0211
  938SOL     OW 3796   3.645   4.010   1.495  0.0736 -0.0832  0.1561
  938SOL    HW2 3797   3.634   4.093   1.542  0.8422  0.4627 -0.6194
  938SOL    HW3 3798   3.570   3.957   1.522  0.3764  0.3092  1.8138
  938SOL    MW4 3799   3.633   4.014   1.505  0.2151  0.0405  0.2726
  939SOL     OW 3800   3.620   4.267   1.637 -0.4924 -0.7360 -0.4591
  939SOL    HW2 3801   3.594   4.276   1.729 -1.0819  1.6103 -0.8256
  939SOL    HW3 3802   3.550   4.312   1.588  0.2278 -1.2566 -1.9928
  939SOL    MW4 3803   3.607   4.274   1.643 -0.4752 -0.4945 -0.7099
  940SOL     OW 3804   3.852   4.421   1.539  0.1505  0.1014 -0.0311
  940SOL    HW2 3805   3.777   4.380   1.583  0.5143  0.2587  0.7458
  940SOL    HW3 3806   3.846   4.514   1.563 -0.5834  0.4836 -1.6639
  940SOL    MW4 3807   3.842   4.428   1.548  0.1018  0.1726 -0.1440
  941SOL     OW 3808   4.290   0.015   1.599  0.0737  0.6150 -0.0357
  941SOL    HW2 3809   4.292   0.028   1.694 -0.8515 -0.3867  0.1334
  941SOL    HW3 3810   4.341  -0.065   1.584  1.2358  1.4337 -0.5133
  941SOL    MW4 3811   4.297   0.006   1.609  0.1049  0.5908 -0.0764
  942SOL     OW 3812   4.060   0.151   1.478  0.2298 -0.1430  0.2021
  942SOL    HW2 3813   4.079   0.238   1.513  0.9504 -0.3822  0.3982
  942SOL    HW3 3814   4.126   0.094   1.517 -0.0461 -0.7253 -0.1771
  942SOL    MW4 3815   4.071   0.155   1.488  0.2885 -0.2514  0.1780
  943SOL     OW 3816   4.071   0.411   1.606 -0.2368  0.3364  0.0820
  943SOL    HW2 3817   4.067   0.369   1.693  1.0094 -1.0246 -0.4851
  943SOL    HW3 3818   3.980   0.412   1.576 -0.5934  0.2100  1.1382
  943SOL    MW4 3819   4.059   0.405   1.614 -0.1192  0.1401  0.1465
  944SOL     OW 3820   0.343   4.645   0.408  0.2576 -0.0359  0.3706
  944SOL    HW2 3821   0.324   4.551   0.396  1.0692 -0.3096  1.1843
  944SOL    HW3 3822   0.432   4.656   0.376  0.6088  0.2169  1.4272
  944SOL    MW4 3823   0.352   4.634   0.402  0.4110 -0.0391  0.6173
  945SOL     OW 3824   4.270   0.457   1.433 -0.3787 -0.3094  0.4904
  945SOL    HW2 3825   4.200   0.444   1.497  0.1615 -0.4774  1.0512
  945SOL    HW3 3826   4.350   0.432   1.479  0.0296 -0.3231 -0.2150
  945SOL    MW4 3827   4.272   0.452   1.447 -0.2537 -0.3334  0.4714
  946SOL     OW 3828   4.279   0.702   1.585  0.6677 -0.5843 -0.0251
  946SOL    HW2 3829   4.354   0.751   1.553  2.1793 -2.3847  0.7081
  946SOL    HW3 3830   4.282   0.618   1.539  0.3951 -1.5319  1.6232
  946SOL    MW4 3831   4.289   0.697   1.575  0.8321 -0.9468  0.2890
  947SOL     OW 3832   4.033   1.155   1.603  0.3670 -0.3195  0.0241
  947SOL    HW2 3833   4.035   1.171   1.697 -1.5720 -0.5189  0.1193
  947SOL    HW3 3834   4.029   1.059   1.595  1.4703 -0.3473 -0.2920
  947SOL    MW4 3835   4.032   1.144   1.614  0.2570 -0.3494 -0.0051
  948SOL     OW 3836   4.267   1.253   1.476  0.3040  0.5174 -0.0006
  948SOL    HW2 3837   4.186   1.219   1.514  1.3978 -1.2650  0.7892
  948SOL    HW3 3838   4.336   1.216   1.530  1.6739  1.9378 -0.7336
  948SOL    MW4 3839   4.265   1.244   1.488  0.6289  0.4697  0.0069
  949SOL     OW 3840   4.308   1.530   1.557 -0.1009  0.8442 -0.2930
  949SOL    HW2 3841   4.295   1.443   1.520 -1.0297  0.0077  1.9452
  949SOL    HW3 3842   4.389   1.561   1.515  1.7442 -2.1895  0.8583
  949SOL    MW4 3843   4.317   1.523   1.546  0.0200  0.3335  0.1541
  950SOL     OW 3844   4.056   1.668   1.533 -0.3695 -0.4422  0.2255
  950SOL    HW2 3845   4.131   1.615   1.559 -0.2961 -0.8424 -0.8200
  950SOL    HW3 3846   3.980   1.619   1.563 -0.2330 -0.1842  1.0109
  950SOL    MW4 3847   4.056   1.655   1.541 -0.3414 -0.4609  0.1913
  951SOL     OW 3848   4.029   1.937   1.597  0.4003 -0.5178 -0.3335
  951SOL    HW2 3849   4.034   1.843   1.577 -1.0512 -0.4348 -1.1504
  951SOL    HW3 3850   3.955   1.969   1.546  0.3111  0.9045  0.6445
  951SOL    MW4 3851   4.020   1.929   1.587  0.1974 -0.3191 -0.3122
  952SOL     OW 3852   4.267   2.083   1.526 -0.6904  0.2838 -0.3471
  952SOL    HW2 3853   4.186   2.039   1.552 -0.1097 -0.9506 -0.6277
  952SOL    HW3 3854   4.274   2.068   1.432  0.8158 -1.2002 -0.0109
  952SOL    MW4 3855   4.257   2.075   1.517 -0.4148 -0.0749 -0.3399
  953SOL     OW 3856   4.285   2.347   1.559 -0.0907 -0.2682  0.7878
  953SOL    HW2 3857   4.284   2.340   1.655 -0.4938 -0.1439  0.7965
  953SOL    HW3 3858   4.274   2.257   1.528  1.6021 -0.5081  0.8435
  953SOL    MW4 3859   4.283   2.335   1.568  0.0796 -0.2832  0.7963
  954SOL     OW 3860   4.032   2.481   1.542  0.2726  0.2373  0.6628
  954SOL    HW2 3861   4.031   2.576   1.550 -0.0311  0.2919 -0.0085
  954SOL    HW3 3862   4.121   2.456   1.568  0.3123  0.6890  0.9688
  954SOL    MW4 3863   4.044   2.490   1.547  0.2379  0.3040  0.6145
  955SOL     OW 3864   4.047   2.748   1.587 -0.0406  0.5859 -0.2060
  955SOL    HW2 3865   4.041   2.746   1.682  0.2015  0.4955 -0.1905
  955SOL    HW3 3866   4.135   2.781   1.569  0.2471 -0.2517 -0.3839
  955SOL    MW4 3867   4.058   2.752   1.597  0.0291  0.4635 -0.2276
  956SOL     OW 3868   4.309   2.854   1.525  0.0773  0.0591 -0.6277
  956SOL    HW2 3869   4.310   2.939   1.568 -1.8016 -0.5444  0.6789
  956SOL    HW3 3870   4.379   2.804   1.567 -0.1867  0.2742  0.0703
  956SOL    MW4 3871   4.318   2.858   1.536 -0.2055  0.0081 -0.3633
  957SOL     OW 3872   4.248   3.100   1.649 -0.3227 -0.0257  0.0481
  957SOL    HW2 3873   4.248   3.107   1.744  1.4839 -0.9386  0.1362
  957SOL    HW3 3874   4.328   3.146   1.622 -0.8028  0.1979 -1.0274
  957SOL    MW4 3875   4.258   3.107   1.658 -0.1478 -0.1166 -0.0823
  958SOL     OW 3876   4.029   3.222   1.528  0.3531 -0.1576 -0.4770
  958SOL    HW2 3877   4.032   3.311   1.564  2.3032 -0.2806 -0.3092
  958SOL    HW3 3878   4.103   3.177   1.568 -1.1531 -2.1665  0.1703
  958SOL    MW4 3879   4.039   3.228   1.538  0.4120 -0.4389 -0.3694
  959SOL     OW 3880   4.030   3.481   1.642  0.3067 -0.4493 -0.2465
  959SOL    HW2 3881   4.048   3.478   1.736 -1.0458 -1.2769  0.0025
  959SOL    HW3 3882   4.110   3.517   1.604  1.0961 -0.6503  1.1620
  959SOL    MW4 3883   4.043   3.485   1.650  0.2327 -0.5851 -0.0278
  960SOL     OW 3884   4.259   3.620   1.556  0.6848 -0.3113  0.4369
  960SOL    HW2 3885   4.287   3.709   1.573 -0.8729  0.3524 -0.3747
  960SOL    HW3 3886   4.239   3.618   1.462 -0.8630 -1.0456  0.7522
  960SOL    MW4 3887   4.260   3.631   1.546  0.2747 -0.3204  0.3715
  961SOL     OW 3888   4.321   3.885   1.631  0.2754 -0.0846  0.0404
  961SOL    HW2 3889   4.241   3.930   1.603  0.8034  0.2624 -0.9237
  961SOL    HW3 3890   4.392   3.938   1.596  0.9138 -1.3050 -0.5162
  961SOL    MW4 3891   4.320   3.898   1.623  0.4292 -0.2000 -0.1602
  962SOL     OW 3892   4.076   4.065   1.530 -0.8563  0.3719 -0.0117
  962SOL    HW2 3893   4.081   4.155   1.560 -0.3807  0.7138 -1.0711
  962SOL    HW3 3894   4.059   4.072   1.436 -0.7827 -0.6407 -0.1113
  962SOL    MW4 3895   4.074   4.078   1.521 -0.7839  0.2832 -0.1646
  963SOL     OW 3896   4.086   4.319   1.642  0.5031 -0.0047  0.1982
  963SOL    HW2 3897   4.076   4.312   1.737 -0.6174 -0.1976  0.0754
  963SOL    HW3 3898   4.001   4.349   1.611  0.6158 -0.6970 -0.8196
  963SOL    MW4 3899   4.073   4.322   1.651  0.3700 -0.1216  0.0477
  964SOL     OW 3900   4.333   4.408   1.547 -0.6901  0.0198 -0.4638
  964SOL    HW2 3901   4.253   4.375   1.588 -0.7020  0.0634 -0.4520
  964SOL    HW3 3902   4.308   4.430   1.457 -0.9298  1.0078 -0.1570
  964SOL    MW4 3903   4.319   4.406   1.540 -0.7234  0.1554 -0.4218
  965SOL     OW 3904   0.248   0.021   1.906 -0.0469 -0.4431  0.6347
  965SOL    HW2 3905   0.331   0.055   1.939  0.6381 -2.2986  0.9329
  965SOL    HW3 3906   0.255   0.030   1.811  0.3817 -0.3204  0.6754
  965SOL    MW4 3907   0.260   0.026   1.898  0.1000 -0.6717  0.6794
  966SOL     OW 3908   4.483   0.106   2.026  0.0057  0.0396  0.2641
  966SOL    HW2 3909   4.472   0.193   1.987  2.0597  0.2060 -0.0295
  966SOL    HW3 3910   4.555   0.066   1.976 -0.0219 -1.2987  1.2624
  966SOL    MW4 3911   4.491   0.112   2.015  0.2731 -0.1150  0.3569
  967SOL     OW 3912   4.476   0.359   1.876 -0.2524  0.2925 -0.1323
  967SOL    HW2 3913   4.404   0.417   1.900  0.1432  0.9031 -0.4214
  967SOL    HW3 3914   4.554   0.399   1.916 -0.1060 -0.4777  0.3605
  967SOL    MW4 3915   4.477   0.372   1.885 -0.1807  0.2715 -0.1055
  968SOL     OW 3916   0.195   0.473   1.974 -0.3119 -0.0045  0.1613
  968SOL    HW2 3917   0.282   0.452   1.940 -0.1317 -1.6321  1.5363
  968SOL    HW3 3918   0.176   0.560   1.940  1.2004 -0.2655 -1.4282
  968SOL    MW4 3919   0.204   0.482   1.965 -0.0886 -0.2536  0.1330
  969SOL     OW 3920   0.213   0.721   1.876  0.2446 -0.0239  0.3036
  969SOL    HW2 3921   0.294   0.765   1.901  0.6108  1.0874 -2.6620
  969SOL    HW3 3922   0.208   0.732   1.781 -0.9096 -4.2494 -0.2510
  969SOL    MW4 3923   0.223   0.728   1.867  0.1406 -0.4347 -0.1608
  970SOL     OW 3924   4.491   0.883   1.971 -0.4539 -0.1048 -0.6768
  970SOL    HW2 3925   4.419   0.843   1.922 -1.2642  0.1269  0.2943
  970SOL    HW3 3926   4.570   0.843   1.935 -1.0803 -0.5160 -1.6205
  970SOL    MW4 3927   4.492   0.873   1.960 -0.6433 -0.1284 -0.6731
  971SOL     OW 3928   4.475   1.148   1.896 -0.8103  0.1969 -0.4282
  971SOL    HW2 3929   4.395   1.184   1.935  0.7980  0.5798  2.7567
  971SOL    HW3 3930   4.471   1.054   1.915 -0.0213  0.3857  0.8099
  971SOL    MW4 3931   4.464   1.140   1.904 -0.4940  0.2724  0.1554
  972SOL     OW 3932   0.216   1.260   1.991 -0.4370  0.5224  0.0720
  972SOL    HW2 3933   0.204   1.351   1.966  0.1895  0.5994  0.0580
  972SOL    HW3 3934   0.134   1.217   1.964 -0.6433  1.0326 -0.1180
  972SOL    MW4 3935   0.203   1.266   1.984 -0.3816  0.6000  0.0453
  973SOL     OW 3936   0.226   1.530   1.872  0.2719 -0.8006 -0.0977
  973SOL    HW2 3937   0.313   1.546   1.910  0.3286 -2.3923  0.4877
  973SOL    HW3 3938   0.171   1.598   1.911  1.0128 -0.4741  0.4098
  973SOL    MW4 3939   0.230   1.541   1.882  0.3771 -0.9676  0.0465
  974SOL     OW 3940   4.484   1.684   1.957 -0.2885 -0.3817  0.4904
  974SOL    HW2 3941   4.485   1.658   2.050  0.3125 -0.6588  0.4082
  974SOL    HW3 3942   4.412   1.634   1.919 -0.4365 -0.3882  0.7800
  974SOL    MW4 3943   4.475   1.674   1.965 -0.2284 -0.4191  0.5176
  975SOL     OW 3944   0.017   1.958   1.878  0.0230 -0.0209 -0.2276
  975SOL    HW2 3945  -0.053   1.998   1.929 -0.5200  0.3315 -1.2372
  975SOL    HW3 3946   0.012   1.864   1.899 -1.0878 -0.0720 -0.6773
  975SOL    MW4 3947   0.007   1.951   1.887 -0.1953  0.0187 -0.4200
  976SOL     OW 3948   0.244   2.070   1.956 -0.3732  0.5078 -0.0979
  976SOL    HW2 3949   0.216   2.162   1.962  0.6486  0.9435 -1.5983
  976SOL    HW3 3950   0.163   2.022   1.935 -0.6651  1.2496 -0.6924
  976SOL    MW4 3951   0.229   2.076   1.954 -0.2769  0.6633 -0.3742
  977SOL     OW 3952   0.205   2.337   1.948 -0.2835 -0.0774  0.3450
  977SOL    HW2 3953   0.288   2.384   1.955  0.1714 -0.6434 -1.0692
  977SOL    HW3 3954   0.139   2.406   1.942  0.1045  0.3759  1.2082
  977SOL    MW4 3955   0.207   2.353   1.948 -0.1723 -0.0923  0.2723
  978SOL     OW 3956   4.472   2.503   1.958  0.2408 -0.2375  0.0433
  978SOL    HW2 3957   4.496   2.488   2.050 -0.9865 -1.4373  0.1913
  978SOL    HW3 3958   4.476   2.598   1.947 -1.8476  0.1091  1.9851
  978SOL    MW4 3959   4.476   2.513   1.969 -0.1967 -0.3500  0.3191
  979SOL     OW 3960   0.030   2.773   1.914  0.1453 -0.3040 -0.2526
  979SOL    HW2 3961  -0.052   2.816   1.939 -0.4323 -0.2523 -2.1589
  979SOL    HW3 3962   0.018   2.750   1.822  2.2780 -0.2723 -0.5670
  979SOL    MW4 3963   0.018   2.776   1.906  0.3504 -0.2930 -0.5455
  980SOL     OW 3964   0.285   2.852   2.000  0.0321  0.0222 -0.7718
  980SOL    HW2 3965   0.291   2.944   1.971 -2.1052  0.3844 -0.2161
  980SOL    HW3 3966   0.198   2.824   1.969 -0.4292 -0.9775  1.3511
  980SOL    MW4 3967   0.274   2.861   1.992 -0.3108 -0.0618 -0.4184
  981SOL     OW 3968   0.277   3.103   1.847  0.4759 -0.2853 -0.1775
  981SOL    HW2 3969   0.353   3.137   1.895  0.2211 -0.2291  0.1858
  981SOL    HW3 3970   0.306   3.099   1.756  1.2707 -1.2401  0.1012
  981SOL    MW4 3971   0.291   3.107   1.842  0.5472 -0.4041 -0.0927
  982SOL     OW 3972   0.063   3.215   1.982 -0.4112  0.3428 -0.1814
  982SOL    HW2 3973  -0.017   3.176   1.946 -0.0375 -0.7932  0.2005
  982SOL    HW3 3974   0.134   3.180   1.928  0.0741 -0.7390  1.1300
  982SOL    MW4 3975   0.062   3.205   1.970 -0.2979  0.0501  0.0418
  983SOL     OW 3976   0.042   3.472   1.874 -0.1635  0.1573  0.3984
  983SOL    HW2 3977   0.121   3.521   1.895  0.5250 -0.3589 -0.9432
  983SOL    HW3 3978   0.047   3.394   1.930 -0.2891  0.6640  1.1215
  983SOL    MW4 3979   0.053   3.468   1.885 -0.0892  0.1559  0.3167
  984SOL     OW 3980   0.276   3.613   1.963  0.1033  0.2567  0.1641
  984SOL    HW2 3981   0.264   3.631   2.057 -0.6953 -2.9059  0.7027
  984SOL    HW3 3982   0.357   3.562   1.959 -1.2221 -1.7950 -0.6022
  984SOL    MW4 3983   0.285   3.609   1.975 -0.1769 -0.4313  0.1341
  985SOL     OW 3984   0.248   3.876   1.895  0.0391 -0.2667 -0.2857
  985SOL    HW2 3985   0.320   3.923   1.936  0.0578 -0.2242 -0.3676
  985SOL    HW3 3986   0.266   3.783   1.912 -1.3090 -0.1569  2.1055
  985SOL    MW4 3987   0.260   3.870   1.903 -0.1363 -0.2468  0.0188
  986SOL     OW 3988   0.020   3.982   2.000 -0.3070 -0.7534  0.2154
  986SOL    HW2 3989   0.015   4.071   1.965 -0.2868 -1.1281 -0.7571
  986SOL    HW3 3990   0.100   3.946   1.962 -0.2638 -1.1502  0.6857
  986SOL    MW4 3991   0.030   3.989   1.990 -0.2987 -0.8552  0.1490
  987SOL     OW 3992   0.035   4.253   1.903 -0.9431  0.6795 -0.5312
  987SOL    HW2 3993  -0.040   4.306   1.930 -0.3892  1.6823 -0.9223
  987SOL    HW3 3994   0.110   4.296   1.944 -0.5505 -0.1153 -0.4202
  987SOL    MW4 3995   0.035   4.266   1.912 -0.8183  0.7071 -0.5682
  988SOL     OW 3996   0.274   4.408   1.974  0.0721  0.0095  0.3442
  988SOL    HW2 3997   0.264   4.425   2.068 -2.1771  1.0259 -0.0503
  988SOL    HW3 3998   0.263   4.494   1.933 -0.7217 -0.7033 -0.9534
  988SOL    MW4 3999   0.271   4.422   1.981 -0.3294  0.0496  0.1209
  989SOL     OW 4000   0.696   0.043   1.850  0.1634  0.1655 -0.2490
  989SOL    HW2 4001   0.704  -0.049   1.877  0.1469  0.3890  0.5074
  989SOL    HW3 4002   0.700   0.039   1.754 -1.1314 -0.7590 -0.2819
  989SOL    MW4 4003   0.698   0.030   1.841 -0.0096  0.0731 -0.1535
  990SOL     OW 4004   0.481   0.148   1.980  0.0249 -0.2069 -0.4450
  990SOL    HW2 4005   0.468   0.238   1.953  1.8806  0.4271  0.6711
  990SOL    HW3 4006   0.562   0.121   1.936 -0.2706 -1.1663 -0.4125
  990SOL    MW4 4007   0.490   0.156   1.971  0.2308 -0.2498 -0.2934
  991SOL     OW 4008   0.443   0.415   1.873  0.4385 -0.0997 -0.1759
  991SOL    HW2 4009   0.528   0.452   1.898  0.6434 -0.1084 -0.8579
  991SOL    HW3 4010   0.452   0.395   1.780 -0.2774 -0.2006 -0.2246
  991SOL    MW4 4011   0.456   0.417   1.864  0.3711 -0.1141 -0.2720
  992SOL     OW 4012   0.682   0.531   1.972 -0.2155  0.3322 -0.4347
  992SOL    HW2 4013   0.677   0.537   2.068  0.3017 -1.4364 -0.2872
  992SOL    HW3 4014   0.765   0.486   1.955 -1.6506 -1.9477 -1.6105
  992SOL    MW4 4015   0.692   0.526   1.983 -0.3366 -0.2019 -0.5705
  993SOL     OW 4016   0.694   0.814   1.929 -0.0722  0.2394 -0.1490
  993SOL    HW2 4017   0.767   0.854   1.976 -0.9402  0.7499  0.8085
  993SOL    HW3 4018   0.706   0.720   1.940 -0.1297  0.3504  0.8946
  993SOL    MW4 4019   0.705   0.807   1.937 -0.1944  0.3214  0.1150
  994SOL     OW 4020   0.432   0.888   1.972 -0.5502 -0.9938 -0.1468
  994SOL    HW2 4021   0.431   0.981   1.952 -0.9395 -0.7583  0.9641
  994SOL    HW3 4022   0.522   0.860   1.954 -0.5735 -0.5210 -0.9927
  994SOL    MW4 4023   0.444   0.896   1.967 -0.6047 -0.9004 -0.1117
  995SOL     OW 4024   0.448   1.151   1.889 -0.2260  0.4102  0.6847
  995SOL    HW2 4025   0.363   1.188   1.912 -0.6678 -0.8254  1.1140
  995SOL    HW3 4026   0.450   1.153   1.794 -1.3508 -0.8703  0.6156
  995SOL    MW4 4027   0.437   1.156   1.880 -0.4327  0.0781  0.7322
  996SOL     OW 4028   0.680   1.275   1.945 -0.9413  0.2345 -0.3879
  996SOL    HW2 4029   0.675   1.296   2.038  3.8819 -0.9900  0.2483
  996SOL    HW3 4030   0.601   1.223   1.929 -1.7912  0.3305  3.0344
  996SOL    MW4 4031   0.669   1.271   1.955 -0.4171  0.0856  0.1476
  997SOL     OW 4032   0.717   1.554   1.956 -0.0906  0.2082 -0.0226
  997SOL    HW2 4033   0.717   1.460   1.939  1.9822  0.0200  0.8809
  997SOL    HW3 4034   0.699   1.594   1.871  0.2982 -0.9618 -0.6615
  997SOL    MW4 4035   0.714   1.547   1.943  0.2342  0.0290  0.0123
  998SOL     OW 4036   0.437   1.621   2.033 -0.5592  0.3035  0.1379
  998SOL    HW2 4037   0.425   1.630   2.128 -0.2435 -0.9292  0.3112
  998SOL    HW3 4038   0.529   1.597   2.024 -0.5270  0.6853 -0.4999
  998SOL    MW4 4039   0.448   1.619   2.045 -0.5133  0.1911  0.0765
  999SOL     OW 4040   0.454   1.892   1.897  0.1348  0.0382  0.2496
  999SOL    HW2 4041   0.439   1.803   1.929 -1.1767 -0.3255 -1.2996
  999SOL    HW3 4042   0.376   1.940   1.925  0.1225  0.3140 -0.2547
  999SOL    MW4 4043   0.441   1.886   1.905 -0.0399  0.0266 -0.0212
 1000SOL     OW 4044   0.658   2.055   1.963  0.5437  0.2984  0.2556
 1000SOL    HW2 4045   0.649   2.069   2.057  0.7222 -0.7591  0.4408
 1000SOL    HW3 4046   0.588   1.994   1.941  1.8235 -1.1633  0.1150
 1000SOL    MW4 4047   0.648   2.049   1.972  0.7362 -0.0339  0.2613
 1001SOL     OW 4048   0.696   2.313   1.833 -0.0949  0.3538  0.0067
 1001SOL    HW2 4049   0.691   2.222   1.864  0.5068 -0.1461 -1.3502
 1001SOL    HW3 4050   0.698   2.306   1.738 -0.1603  1.8080 -0.1074
 1001SOL    MW4 4051   0.695   2.300   1.825 -0.0241  0.4799 -0.1874
 1002SOL     OW 4052   0.458   2.450   1.951  0.4760 -0.3945 -0.2030
 1002SOL    HW2 4053   0.466   2.442   2.046 -1.2473 -1.6045 -0.1467
 1002SOL    HW3 4054   0.538   2.410   1.917  0.3180 -1.4859  0.6883
 1002SOL    MW4 4055   0.470   2.444   1.959  0.2277 -0.6981 -0.0780
 1003SOL     OW 4056   0.477   2.720   1.873  0.2899 -0.1765  0.4017
 1003SOL    HW2 4057   0.477   2.630   1.906  0.6063  0.4332  2.0751
 1003SOL    HW3 4058   0.393   2.756   1.902  0.3154  0.1866  0.0304
 1003SOL    MW4 4059   0.466   2.713   1.881  0.3350 -0.0484  0.5735
 1004SOL     OW 4060   0.704   2.846   1.980  0.1749 -0.4063  0.2788
 1004SOL    HW2 4061   0.694   2.844   2.075  0.3412  0.6183  0.3203
 1004SOL    HW3 4062   0.620   2.814   1.946 -0.1265 -0.1155  0.7519
 1004SOL    MW4 4063   0.692   2.841   1.988  0.1571 -0.2329  0.3467
 1005SOL     OW 4064   0.751   3.095   1.863  0.6492 -0.5077 -0.5057
 1005SOL    HW2 4065   0.735   3.004   1.889  0.3021 -0.5249 -0.7735
 1005SOL    HW3 4066   0.742   3.094   1.767  1.2552 -0.3138 -0.5653
 1005SOL    MW4 4067   0.748   3.083   1.854  0.6834 -0.4845 -0.5490
 1006SOL     OW 4068   0.514   3.192   1.960  0.2509  0.0354  0.5519
 1006SOL    HW2 4069   0.517   3.287   1.954 -0.5097  0.0369  0.0940
 1006SOL    HW3 4070   0.601   3.163   1.933  0.3197  0.5732  0.1980
 1006SOL    MW4 4071   0.525   3.200   1.956  0.1596  0.1068  0.4449
 1007SOL     OW 4072   0.493   3.460   1.918 -0.2242 -0.0829 -0.0226
 1007SOL    HW2 4073   0.562   3.499   1.971 -0.6846 -0.4959  0.9079
 1007SOL    HW3 4074   0.514   3.484   1.828  0.4312  0.8477  0.3766
 1007SOL    MW4 4075   0.505   3.468   1.913 -0.1984 -0.0148  0.1528
 1008SOL     OW 4076   0.703   3.614   2.036 -0.1558 -0.4454 -0.3623
 1008SOL    HW2 4077   0.775   3.576   1.986 -0.7471 -0.1963 -1.4148
 1008SOL    HW3 4078   0.706   3.708   2.015 -0.3129 -0.3123  0.1992
 1008SOL    MW4 4079   0.713   3.622   2.026 -0.2546 -0.3951 -0.4270
 1009SOL     OW 4080   0.701   3.883   1.937 -0.0660  0.5406 -0.1635
 1009SOL    HW2 4081   0.773   3.946   1.943 -0.0164  0.6104 -1.2616
 1009SOL    HW3 4082   0.689   3.871   1.843 -1.2029  0.2006  0.0220
 1009SOL    MW4 4083   0.709   3.890   1.925 -0.2095  0.5047 -0.2838
 1010SOL     OW 4084   0.455   4.032   2.002 -0.4637  0.3714 -0.2451
 1010SOL    HW2 4085   0.455   4.116   1.955 -1.0477  0.1614 -0.6282
 1010SOL    HW3 4086   0.538   3.991   1.979 -0.0264  0.9875  0.2065
 1010SOL    MW4 4087   0.466   4.038   1.993 -0.4831  0.4253 -0.2360
 1011SOL     OW 4088   0.502   4.269   1.908 -0.0695  0.6844  0.3202
 1011SOL    HW2 4089   0.430   4.324   1.939 -0.0737  0.3589  0.8925
 1011SOL    HW3 4090   0.500   4.279   1.813 -1.4123  0.0165  0.2656
 1011SOL    MW4 4091   0.492   4.278   1.900 -0.2472  0.5527  0.3885
 1012SOL     OW 4092   0.716   4.440   1.952  0.4000  0.3106  0.0239
 1012SOL    HW2 4093   0.793   4.391   1.922  1.0159  0.4092  1.4075
 1012SOL    HW3 4094   0.642   4.384   1.931  1.1089 -1.3733  1.7982
 1012SOL    MW4 4095   0.717   4.426   1.945  0.5748  0.1016  0.4405
 1013SOL     OW 4096   1.131   0.016   1.835 -0.1618  0.2399  0.3079
 1013SOL    HW2 4097   1.211   0.058   1.865 -0.1308  0.2478  0.2134
 1013SOL    HW3 4098   1.148  -0.078   1.846 -0.6131  0.2848  1.4970
 1013SOL    MW4 4099   1.144   0.009   1.840 -0.2173  0.2469  0.4523
 1014SOL     OW 4100   0.900   0.131   2.001 -0.1149 -0.3746 -0.2911
 1014SOL    HW2 4101   0.976   0.082   1.970 -1.0510 -2.2429  0.2364
 1014SOL    HW3 4102   0.827   0.097   1.949 -1.1133 -1.0167  1.4736
 1014SOL    MW4 4103   0.900   0.120   1.990 -0.3702 -0.7058  0.0113
 1015SOL     OW 4104   0.925   0.406   1.933  0.1526  0.4826 -0.7904
 1015SOL    HW2 4105   1.002   0.445   1.973 -0.3223  0.1150  0.4869
 1015SOL    HW3 4106   0.918   0.319   1.973 -1.1175  0.6361 -0.6410
 1015SOL    MW4 4107   0.934   0.400   1.943 -0.0777  0.4543 -0.6022
 1016SOL     OW 4108   1.139   0.535   2.041  0.4600 -0.0978 -0.0799
 1016SOL    HW2 4109   1.215   0.491   2.003  0.2740  0.4151 -1.0635
 1016SOL    HW3 4110   1.123   0.610   1.983 -0.8771 -0.2809  0.0239
 1016SOL    MW4 4111   1.147   0.539   2.028  0.2590 -0.0542 -0.1960
 1017SOL     OW 4112   1.142   0.790   1.894 -0.1130  0.2356  0.6402
 1017SOL    HW2 4113   1.221   0.832   1.927 -0.3208  0.7631  0.4706
 1017SOL    HW3 4114   1.071   0.849   1.920 -0.2819  0.6247 -0.6886
 1017SOL    MW4 4115   1.143   0.803   1.902 -0.1627  0.3566  0.4426
 1018SOL     OW 4116   0.953   0.948   2.008  0.4547  0.3194 -0.1409
 1018SOL    HW2 4117   0.959   0.964   2.102 -1.0711 -0.5805  0.1171
 1018SOL    HW3 4118   0.968   1.034   1.968  0.4157  0.8316  0.9503
 1018SOL    MW4 4119   0.956   0.962   2.015  0.2482  0.2683  0.0372
 1019SOL     OW 4120   0.932   1.161   1.848  0.6233  0.1379 -0.1864
 1019SOL    HW2 4121   0.851   1.193   1.886  0.3230  0.5072 -1.1242
 1019SOL    HW3 4122   0.918   1.165   1.753  1.4748 -0.4558 -0.3491
 1019SOL    MW4 4123   0.919   1.166   1.840  0.6959  0.1084 -0.3315
 1020SOL     OW 4124   1.151   1.291   1.961  0.1334 -0.6998 -0.3767
 1020SOL    HW2 4125   1.174   1.383   1.948  0.5075 -0.7139  0.1505
 1020SOL    HW3 4126   1.084   1.274   1.896  0.5893 -0.2553 -0.9749
 1020SOL    MW4 4127   1.145   1.301   1.951  0.2429 -0.6431 -0.3860
 1021SOL     OW 4128   1.183   1.563   1.911 -0.1105  0.8541  0.4840
 1021SOL    HW2 4129   1.110   1.590   1.966 -0.4143 -0.9172  0.9915
 1021SOL    HW3 4130   1.147   1.555   1.823 -0.4814  0.1905  0.6951
 1021SOL    MW4 4131   1.169   1.565   1.907 -0.1994  0.5329  0.5789
 1022SOL     OW 4132   0.968   1.674   2.028  0.3667 -0.2272  0.0468
 1022SOL    HW2 4133   0.964   1.760   1.986  2.0760 -0.3606 -0.4227
 1022SOL    HW3 4134   0.893   1.626   1.993  0.4496  0.4555 -1.0675
 1022SOL    MW4 4135   0.958   1.679   2.018  0.6032 -0.1546 -0.1621
 1023SOL     OW 4136   0.899   1.926   1.900  0.3202 -0.0851 -0.2167
 1023SOL    HW2 4137   0.820   1.978   1.911 -0.2817 -0.9225 -0.5585
 1023SOL    HW3 4138   0.923   1.936   1.808  0.1062 -0.5460 -0.3245
 1023SOL    MW4 4139   0.892   1.934   1.890  0.2126 -0.2564 -0.2760
 1024SOL     OW 4140   1.136   2.040   2.048 -0.2739  0.1357 -0.0919
 1024SOL    HW2 4141   1.161   2.125   2.013 -1.9862  0.6892  0.0003
 1024SOL    HW3 4142   1.050   2.022   2.010 -0.0428 -1.4490  0.0776
 1024SOL    MW4 4143   1.128   2.049   2.038 -0.4693 -0.0005 -0.0577
 1025SOL     OW 4144   1.160   2.307   1.930 -0.1208  0.3997 -0.3160
 1025SOL    HW2 4145   1.220   2.368   1.973  0.2940 -0.3484  0.1841
 1025SOL    HW3 4146   1.185   2.311   1.837  2.3624 -1.6648  0.1731
 1025SOL    MW4 4147   1.171   2.315   1.923  0.2615  0.0284 -0.1854
 1026SOL     OW 4148   0.902   2.430   1.988 -0.2118  0.4072  0.1895
 1026SOL    HW2 4149   0.975   2.377   1.956 -0.1937  1.0406 -0.8220
 1026SOL    HW3 4150   0.830   2.411   1.928 -0.7189  0.1875  0.8702
 1026SOL    MW4 4151   0.903   2.421   1.976 -0.2764  0.4618  0.1459
 1027SOL     OW 4152   0.942   2.698   1.884  0.2754  0.0133  0.3277
 1027SOL    HW2 4153   0.962   2.607   1.905  1.0137 -0.1968 -1.1973
 1027SOL    HW3 4154   0.851   2.709   1.910  0.5744 -0.7747  1.7473
 1027SOL    MW4 4155   0.933   2.688   1.890  0.4123 -0.1183  0.3138
 1028SOL     OW 4156   1.155   2.865   1.967  0.0207  0.2287  0.1259
 1028SOL    HW2 4157   1.148   2.868   2.062 -0.0908 -0.0320  0.1288
 1028SOL    HW3 4158   1.082   2.808   1.940  1.1193 -1.1390  0.0144
 1028SOL    MW4 4159   1.144   2.858   1.976  0.1510  0.0136  0.1115
 1029SOL     OW 4160   1.161   3.098   1.843  0.3759 -0.1776 -0.6604
 1029SOL    HW2 4161   1.082   3.137   1.881  0.8747  1.3085 -1.1375
 1029SOL    HW3 4162   1.162   3.009   1.879 -0.4153  0.4430  0.9893
 1029SOL    MW4 4163   1.150   3.091   1.853  0.3374  0.1004 -0.5057
 1030SOL     OW 4164   0.944   3.254   1.959  0.2494  0.3321  0.1444
 1030SOL    HW2 4165   0.927   3.243   2.053 -0.5202  1.8003  0.1963
 1030SOL    HW3 4166   0.884   3.193   1.916  0.3878 -0.1233  0.5932
 1030SOL    MW4 4167   0.934   3.244   1.966  0.1661  0.4659  0.2104
 1031SOL     OW 4168   0.918   3.518   1.904 -0.1198  0.3905  0.3629
 1031SOL    HW2 4169   0.916   3.426   1.928 -0.2173  0.6791  1.4912
 1031SOL    HW3 4170   0.909   3.519   1.809 -0.6317 -0.7314  0.4032
 1031SOL    MW4 4171   0.917   3.506   1.895 -0.2002  0.2804  0.5170
 1032SOL     OW 4172   1.130   3.678   2.018  0.7765  0.3102 -0.1882
 1032SOL    HW2 4173   1.127   3.657   2.112 -1.8206  2.1990  0.1876
 1032SOL    HW3 4174   1.066   3.619   1.978  0.8427  0.5019 -0.5797
 1032SOL    MW4 4175   1.121   3.667   2.025  0.4425  0.5848 -0.1903
 1033SOL     OW 4176   1.143   3.932   1.915 -0.6518  0.0681  0.2431
 1033SOL    HW2 4177   1.125   3.842   1.942  1.4936 -0.2249  0.8275
 1033SOL    HW3 4178   1.161   3.926   1.821 -1.5372  0.0405  0.0798
 1033SOL    MW4 4179   1.143   3.919   1.906 -0.4857  0.0260  0.2986
 1034SOL     OW 4180   0.902   4.066   1.967  0.2357  0.0317  0.4795
 1034SOL    HW2 4181   0.901   4.065   2.063  2.8889  1.8705  0.5454
 1034SOL    HW3 4182   0.975   4.010   1.943 -0.2440 -0.1902 -0.4977
 1034SOL    MW4 4183   0.911   4.058   1.976  0.5225  0.2451  0.3593
 1035SOL     OW 4184   0.938   4.316   1.871 -0.6085  0.0882 -0.1890
 1035SOL    HW2 4185   1.018   4.350   1.912 -1.8379  0.9204  1.5586
 1035SOL    HW3 4186   0.928   4.228   1.909  0.0112 -0.4127 -1.1683
 1035SOL    MW4 4187   0.948   4.309   1.882 -0.6890  0.1326 -0.0877
 1036SOL     OW 4188   1.173   4.428   1.973 -0.4475  0.0951 -0.4662
 1036SOL    HW2 4189   1.179   4.415   2.067 -0.7806  0.6802 -0.3595
 1036SOL    HW3 4190   1.257   4.397   1.939 -0.3980 -0.2882  0.0004
 1036SOL    MW4 4191   1.185   4.423   1.980 -0.4851  0.1221 -0.3905
 1037SOL     OW 4192   1.597   4.661   1.868  0.4459 -0.2873 -0.2092
 1037SOL    HW2 4193   1.670   4.697   1.918 -0.3645 -1.6994  2.0907
 1037SOL    HW3 4194   1.590   4.570   1.899 -2.1577 -0.2113 -0.4871
 1037SOL    MW4 4195   1.605   4.654   1.879 -0.0045 -0.4630  0.0577
 1038SOL     OW 4196   1.355   0.114   1.968 -0.6691  0.3226  0.3292
 1038SOL    HW2 4197   1.371   0.112   2.063  1.2175  1.0071  0.0517
 1038SOL    HW3 4198   1.430   0.067   1.930 -0.8177  1.0563 -0.8929
 1038SOL    MW4 4199   1.367   0.107   1.976 -0.4398  0.5097  0.1314
 1039SOL     OW 4200   1.367   0.388   1.930  0.1064  0.3385 -0.3939
 1039SOL    HW2 4201   1.366   0.295   1.952  1.2058  0.5326  0.4789
 1039SOL    HW3 4202   1.396   0.391   1.839  1.5656 -0.0772  0.0607
 1039SOL    MW4 4203   1.370   0.376   1.921  0.4439  0.3093 -0.2187
 1040SOL     OW 4204   1.612   0.515   1.992 -0.2426 -0.6803 -0.0587
 1040SOL    HW2 4205   1.691   0.462   1.978  0.4893 -0.7917  3.9495
 1040SOL    HW3 4206   1.540   0.457   1.968  0.6825 -2.4799  1.4034
 1040SOL    MW4 4207   1.613   0.500   1.987 -0.0240 -0.9325  0.6630
 1041SOL     OW 4208   1.610   0.778   1.892  0.1334 -0.5382 -0.3902
 1041SOL    HW2 4209   1.680   0.818   1.944 -0.2568 -0.0243 -0.2485
 1041SOL    HW3 4210   1.597   0.692   1.930 -0.4871  0.0216  0.6915
 1041SOL    MW4 4211   1.617   0.772   1.904  0.0001 -0.3965 -0.2286
 1042SOL     OW 4212   1.377   0.905   2.002  0.5173  0.1255 -0.0637
 1042SOL    HW2 4213   1.373   0.905   2.097  0.0570  0.9564 -0.0715
 1042SOL    HW3 4214   1.455   0.855   1.980 -0.0197 -1.0786  0.7163
 1042SOL    MW4 4215   1.387   0.899   2.011  0.3858  0.0762  0.0381
 1043SOL     OW 4216   1.389   1.158   1.893 -0.1809 -0.1818 -0.3369
 1043SOL    HW2 4217   1.387   1.068   1.925 -1.6376 -0.1629 -0.3543
 1043SOL    HW3 4218   1.310   1.198   1.928 -0.4388  0.5940 -1.7664
 1043SOL    MW4 4219   1.378   1.151   1.901 -0.4070 -0.0769 -0.5279
 1044SOL     OW 4220   1.578   1.312   2.038  0.3899 -0.0607 -0.7727
 1044SOL    HW2 4221   1.571   1.405   2.017 -2.2027  0.1446  0.7943
 1044SOL    HW3 4222   1.508   1.271   1.988 -0.1101 -0.7955  0.4966
 1044SOL    MW4 4223   1.568   1.319   2.029 -0.0182 -0.1307 -0.3989
 1045SOL     OW 4224   1.608   1.563   1.920 -0.1031  0.1564 -0.1005
 1045SOL    HW2 4225   1.692   1.600   1.946  0.0354 -0.9593  1.0505
 1045SOL    HW3 4226   1.543   1.626   1.953  0.2069  0.2348  0.3631
 1045SOL    MW4 4227   1.611   1.576   1.927 -0.0437  0.0194  0.1125
 1046SOL     OW 4228   1.389   1.695   2.012 -0.3968  0.4376 -0.3167
 1046SOL    HW2 4229   1.389   1.685   2.107  0.8279 -1.2666 -0.4854
 1046SOL    HW3 4230   1.314   1.644   1.982  0.3698 -0.6369 -0.4184
 1046SOL    MW4 4231   1.379   1.687   2.021 -0.1341  0.0712 -0.3524
 1047SOL     OW 4232   1.331   1.931   1.882 -0.0303 -0.8450  0.2379
 1047SOL    HW2 4233   1.357   1.844   1.913 -0.6717 -1.1741 -0.1313
 1047SOL    HW3 4234   1.262   1.959   1.942 -1.1526 -1.4096 -0.7715
 1047SOL    MW4 4235   1.325   1.923   1.894 -0.2629 -0.9630  0.0560
 1048SOL     OW 4236   1.544   2.061   1.998  0.3646 -0.5634 -0.0815
 1048SOL    HW2 4237   1.552   2.155   1.979  0.4498 -0.4256  0.6350
 1048SOL    HW3 4238   1.463   2.035   1.955  0.8802 -0.3969 -1.1927
 1048SOL    MW4 4239   1.535   2.070   1.990  0.4438 -0.5233 -0.1338
 1049SOL     OW 4240   1.571   2.360   1.926 -0.1349  0.0781  0.2836
 1049SOL    HW2 4241   1.652   2.407   1.948  0.1449  0.5514 -1.6343
 1049SOL    HW3 4242   1.570   2.359   1.830 -2.1030 -0.4547  0.2954
 1049SOL    MW4 4243   1.582   2.366   1.916 -0.3576  0.0703  0.0321
 1050SOL     OW 4244   1.365   2.742   1.862 -0.2010  0.5731 -0.4001
 1050SOL    HW2 4245   1.290   2.792   1.892 -0.8218 -0.1841 -0.6746
 1050SOL    HW3 4246   1.351   2.654   1.896  1.0783  0.6715  0.4049
 1050SOL    MW4 4247   1.353   2.737   1.870 -0.1141  0.4866 -0.3302
 1051SOL     OW 4248   1.391   2.744   1.586  0.2158  0.4162 -0.2683
 1051SOL    HW2 4249   1.387   2.738   1.681 -0.4927 -2.6531 -0.4350
 1051SOL    HW3 4250   1.302   2.768   1.560 -0.2449 -1.1838 -0.2504
 1051SOL    MW4 4251   1.379   2.746   1.595  0.0616 -0.2000 -0.2879
 1052SOL     OW 4252   1.582   2.857   2.006 -0.0267 -0.1986  0.0936
 1052SOL    HW2 4253   1.666   2.813   1.991 -0.5808 -1.1248 -0.3672
 1052SOL    HW3 4254   1.520   2.809   1.950 -0.8079  0.6439  0.2302
 1052SOL    MW4 4255   1.585   2.845   1.997 -0.2031 -0.2096  0.0507
 1053SOL     OW 4256   1.573   3.122   1.891 -0.3756  0.2480 -0.4417
 1053SOL    HW2 4257   1.583   3.033   1.927 -0.3134  0.7809  0.8854
 1053SOL    HW3 4258   1.572   3.109   1.796 -0.8862 -1.2337 -0.2589
 1053SOL    MW4 4259   1.574   3.108   1.883 -0.4348  0.1228 -0.2426
 1054SOL     OW 4260   1.342   3.266   1.989 -0.1960 -0.4812  0.2472
 1054SOL    HW2 4261   1.426   3.221   1.975 -0.1601 -0.1971 -0.4894
 1054SOL    HW3 4262   1.282   3.224   1.927 -0.2461  0.2645 -0.2130
 1054SOL    MW4 4263   1.345   3.255   1.979 -0.1979 -0.3455  0.0892
 1055SOL     OW 4264   1.323   3.528   1.853 -0.3723 -0.2966  0.2886
 1055SOL    HW2 4265   1.305   3.443   1.893 -2.2624 -0.2928 -0.5037
 1055SOL    HW3 4266   1.254   3.586   1.887  1.4513  1.1781  1.5676
 1055SOL    MW4 4267   1.311   3.524   1.863 -0.3811 -0.1011  0.3529
 1056SOL     OW 4268   1.562   3.590   1.991 -0.2210  0.7617 -0.3811
 1056SOL    HW2 4269   1.565   3.549   2.078 -0.0423  0.6471 -0.4394
 1056SOL    HW3 4270   1.477   3.565   1.955  0.4980 -0.8164 -1.0184
 1056SOL    MW4 4271   1.551   3.581   1.998 -0.1024  0.5383 -0.4729
 1057SOL     OW 4272   1.577   3.858   1.941 -0.2268 -0.1295  0.2471
 1057SOL    HW2 4273   1.653   3.891   1.989 -0.0570  0.2215 -0.2495
 1057SOL    HW3 4274   1.561   3.771   1.976 -0.9889  0.6855  1.9455
 1057SOL    MW4 4275   1.585   3.851   1.952 -0.3049  0.0243  0.4057
 1058SOL     OW 4276   1.371   4.046   2.009 -0.5162 -0.3625  0.3602
 1058SOL    HW2 4277   1.429   3.977   1.979 -0.5317 -0.3222  0.2345
 1058SOL    HW3 4278   1.284   4.021   1.978 -0.3125  0.3792 -0.8386
 1058SOL    MW4 4279   1.367   4.034   2.001 -0.4913 -0.2599  0.1853
 1059SOL     OW 4280   1.405   4.303   1.908  0.4838 -0.1779  0.3116
 1059SOL    HW2 4281   1.408   4.224   1.962  0.4699 -0.6644 -0.3975
 1059SOL    HW3 4282   1.416   4.272   1.818  1.1545  0.6926  0.0850
 1059SOL    MW4 4283   1.407   4.289   1.903  0.5704 -0.1273  0.1882
 1060SOL     OW 4284   1.601   4.437   2.035 -0.3198 -0.0225 -0.3730
 1060SOL    HW2 4285   1.578   4.433   2.128 -0.0658 -0.3985 -0.3236
 1060SOL    HW3 4286   1.524   4.404   1.989  0.2070 -1.5255 -0.1970
 1060SOL    MW4 4287   1.588   4.433   2.041 -0.2167 -0.2704 -0.3433
 1061SOL     OW 4288   2.045   4.632   1.905 -0.1904 -0.6392  0.5668
 1061SOL    HW2 4289   2.101   4.686   1.961 -0.2676 -0.3915  0.4065
 1061SOL    HW3 4290   2.047   4.545   1.945 -0.8064 -0.2922  1.3421
 1061SOL    MW4 4291   2.053   4.627   1.917 -0.2818 -0.5603  0.6480
 1062SOL     OW 4292   1.815   0.092   2.009 -0.1869  0.5386  0.2744
 1062SOL    HW2 4293   1.818   0.076   2.103 -1.4568 -1.0407  0.0605
 1062SOL    HW3 4294   1.890   0.045   1.974  0.1719  0.9617  0.4754
 1062SOL    MW4 4295   1.825   0.084   2.016 -0.3071  0.3860  0.2730
 1063SOL     OW 4296   1.823   0.360   1.899  0.3946 -0.4354  0.0789
 1063SOL    HW2 4297   1.811   0.269   1.926 -2.6910 -0.7101 -1.8848
 1063SOL    HW3 4298   1.855   0.354   1.809  1.8161  0.4576  0.5051
 1063SOL    MW4 4299   1.826   0.347   1.890  0.1750 -0.3539 -0.1239
 1064SOL     OW 4300   2.056   0.496   1.994  0.1904  0.4205  0.0306
 1064SOL    HW2 4301   2.062   0.587   1.966  0.0215  0.1305 -0.9889
 1064SOL    HW3 4302   1.965   0.472   1.976  0.0936  0.2162  0.8020
 1064SOL    MW4 4303   2.045   0.505   1.988  0.1552  0.3553 -0.0020
 1065SOL     OW 4304   2.049   0.775   1.946  0.0222  0.3301  0.2479
 1065SOL    HW2 4305   2.124   0.831   1.968  0.6621 -0.5302  0.3142
 1065SOL    HW3 4306   2.053   0.766   1.851 -0.2827  0.6843  0.2043
 1065SOL    MW4 4307   2.060   0.781   1.936  0.0663  0.2634  0.2508
 1066SOL     OW 4308   1.817   0.918   2.006 -0.1584  0.7788 -0.4981
 1066SOL    HW2 4309   1.821   1.012   1.986  0.7671  0.6722 -0.8458
 1066SOL    HW3 4310   1.906   0.887   1.991 -0.2913 -0.0184  0.3222
 1066SOL    MW4 4311   1.829   0.926   2.002 -0.0539  0.6595 -0.4358
 1067SOL     OW 4312   1.819   1.184   1.947 -0.3919  0.0636 -0.0336
 1067SOL    HW2 4313   1.741   1.227   1.983 -1.5307 -1.3812 -0.7043
 1067SOL    HW3 4314   1.808   1.191   1.852  1.1356  1.3003 -0.1355
 1067SOL    MW4 4315   1.807   1.191   1.939 -0.3407  0.0362 -0.1357
 1068SOL     OW 4316   2.055   1.289   2.054 -0.0935  0.0070  0.1215
 1068SOL    HW2 4317   2.132   1.258   2.006 -0.6657  0.5543 -1.1479
 1068SOL    HW3 4318   1.981   1.259   2.002 -0.7093  1.0607  0.3908
 1068SOL    MW4 4319   2.056   1.281   2.041 -0.2501  0.2183 -0.0103
 1069SOL     OW 4320   2.045   1.551   1.940 -1.1695 -0.0180 -0.3416
 1069SOL    HW2 4321   2.040   1.474   1.995 -1.3966 -0.1219 -0.5075
 1069SOL    HW3 4322   2.028   1.519   1.851  0.9935 -0.1644 -0.7367
 1069SOL    MW4 4323   2.042   1.537   1.935 -0.9141 -0.0510 -0.4156
 1070SOL     OW 4324   1.829   1.680   2.063  0.4819 -0.3968  0.0193
 1070SOL    HW2 4325   1.825   1.770   2.029 -0.0717  0.0599  1.2524
 1070SOL    HW3 4326   1.908   1.644   2.025  0.6162  0.5661 -0.6364
 1070SOL    MW4 4327   1.839   1.687   2.054  0.4267 -0.2096  0.0956
 1071SOL     OW 4328   1.789   1.940   1.925 -0.1338  0.1091  0.0773
 1071SOL    HW2 4329   1.697   1.963   1.938  0.5108  2.2157  1.0900
 1071SOL    HW3 4330   1.795   1.919   1.832 -1.7921 -0.7769  0.1497
 1071SOL    MW4 4331   1.778   1.940   1.914 -0.2676  0.2702  0.2205
 1072SOL     OW 4332   2.005   2.088   2.057  0.4594 -0.0514 -0.2356
 1072SOL    HW2 4333   2.082   2.057   2.009  0.7850  0.7872 -0.2656
 1072SOL    HW3 4334   1.932   2.037   2.021  0.9442 -0.5661 -0.4870
 1072SOL    MW4 4335   2.005   2.078   2.046  0.5662 -0.0086 -0.2725
 1073SOL     OW 4336   2.020   2.310   1.902  0.1619  0.7109 -0.2071
 1073SOL    HW2 4337   2.091   2.354   1.948  0.1872 -0.0668  0.5301
 1073SOL    HW3 4338   1.995   2.238   1.961 -1.1129  0.8715 -0.5288
 1073SOL    MW4 4339   2.026   2.306   1.916 -0.0031  0.6294 -0.1522
 1074SOL     OW 4340   1.820   2.467   1.998 -0.1596 -0.0706 -0.4334
 1074SOL    HW2 4341   1.821   2.466   2.094  0.6773 -0.6657 -0.4401
 1074SOL    HW3 4342   1.896   2.415   1.973 -0.4934 -0.0905 -1.4262
 1074SOL    MW4 4343   1.830   2.460   2.008 -0.0933 -0.1519 -0.5653
 1075SOL     OW 4344   1.811   2.711   1.881  0.4109  0.1249 -0.0096
 1075SOL    HW2 4345   1.800   2.620   1.910 -1.7555 -0.0453 -1.2873
 1075SOL    HW3 4346   1.828   2.704   1.787 -0.7184  1.0936 -0.2907
 1075SOL    MW4 4347   1.812   2.698   1.873 -0.0240  0.2301 -0.2154
 1076SOL     OW 4348   2.040   2.833   1.959 -0.2526 -0.1690 -0.0009
 1076SOL    HW2 4349   2.030   2.815   2.053  1.1634 -1.7695 -0.1384
 1076SOL    HW3 4350   1.967   2.787   1.917  0.5986 -1.6074  0.0872
 1076SOL    MW4 4351   2.029   2.825   1.966  0.0465 -0.5701 -0.0074
 1077SOL     OW 4352   2.047   3.105   1.891  0.2901 -0.2759  0.1221
 1077SOL    HW2 4353   1.966   3.137   1.931  2.0228  0.2754  3.4529
 1077SOL    HW3 4354   2.045   3.011   1.906 -0.2523 -0.4235 -0.8435
 1077SOL    MW4 4355   2.036   3.097   1.899  0.4473 -0.2227  0.4343
 1078SOL     OW 4356   1.812   3.226   1.988  0.3060  0.0712  0.0447
 1078SOL    HW2 4357   1.819   3.224   2.083 -0.0487  0.1304  0.0732
 1078SOL    HW3 4358   1.732   3.178   1.968  0.9474 -0.8795 -0.2965
 1078SOL    MW4 4359   1.802   3.220   1.998  0.3438 -0.0463  0.0031
 1079SOL     OW 4360   1.823   3.506   1.930 -0.2344 -0.1530  0.9074
 1079SOL    HW2 4361   1.817   3.411   1.940  0.9555 -0.3205  0.1540
 1079SOL    HW3 4362   1.733   3.536   1.932 -0.6513 -1.3503  0.7090
 1079SOL    MW4 4363   1.810   3.497   1.932 -0.1324 -0.3326  0.7820
 1080SOL     OW 4364   2.056   3.629   2.034  0.1892 -0.4237  0.5087
 1080SOL    HW2 4365   2.044   3.723   2.016 -0.6778 -0.5079  0.6171
 1080SOL    HW3 4366   1.973   3.589   2.010  0.1403 -1.0014  1.5822
 1080SOL    MW4 4367   2.043   3.636   2.029  0.0684 -0.5112  0.6647
 1081SOL     OW 4368   2.017   3.880   1.920 -0.0333 -0.1563  0.5416
 1081SOL    HW2 4369   2.094   3.927   1.953  0.6783 -0.2556 -0.9456
 1081SOL    HW3 4370   2.030   3.875   1.825 -0.5112 -2.6440  0.5754
 1081SOL    MW4 4371   2.029   3.886   1.912 -0.0026 -0.4973  0.3499
 1082SOL     OW 4372   1.812   4.032   2.044  0.2462 -0.2238 -0.2420
 1082SOL    HW2 4373   1.797   4.120   2.011 -1.1505 -0.6894 -0.9190
 1082SOL    HW3 4374   1.881   3.996   1.988  0.2423  0.1549 -0.4885
 1082SOL    MW4 4375   1.819   4.039   2.032  0.0615 -0.2351 -0.3636
 1083SOL     OW 4376   1.808   4.275   1.927  0.1428  0.2081  0.1896
 1083SOL    HW2 4377   1.728   4.317   1.959 -0.0083 -0.3486  0.5431
 1083SOL    HW3 4378   1.810   4.295   1.833 -1.1948 -1.0361 -0.1121
 1083SOL    MW4 4379   1.798   4.283   1.919 -0.0536 -0.0300  0.1965
 1084SOL     OW 4380   2.045   4.387   2.008  0.2507 -0.3545 -0.1027
 1084SOL    HW2 4381   2.110   4.338   1.958  0.2716  0.2503 -0.6765
 1084SOL    HW3 4382   1.961   4.350   1.983  0.2931 -0.3477 -0.2526
 1084SOL    MW4 4383   2.043   4.376   1.998  0.2594 -0.2737 -0.1980
 1085SOL     OW 4384   2.487   0.012   1.942 -0.1184 -0.1673  0.4098
 1085SOL    HW2 4385   2.561   0.045   1.992  0.3707  2.2674 -1.7688
 1085SOL    HW3 4386   2.480  -0.080   1.966  3.4840 -0.3963  0.8551
 1085SOL    MW4 4387   2.496   0.004   1.952  0.4215  0.1235  0.1811
 1086SOL     OW 4388   2.259   0.113   2.028  0.1363  0.4795 -0.2199
 1086SOL    HW2 4389   2.255   0.106   2.123 -0.3690  1.8667 -0.1320
 1086SOL    HW3 4390   2.343   0.075   2.004 -0.1760 -0.8087  0.6878
 1086SOL    MW4 4391   2.269   0.107   2.037  0.0286  0.4926 -0.0885
 1087SOL     OW 4392   2.276   0.361   1.911  0.2804  0.1120 -0.6112
 1087SOL    HW2 4393   2.271   0.276   1.955  2.4600  0.7513  0.9669
 1087SOL    HW3 4394   2.201   0.410   1.944 -0.5358 -0.9001 -0.9250
 1087SOL    MW4 4395   2.265   0.357   1.921  0.4599  0.0628 -0.4444
 1088SOL     OW 4396   2.490   0.519   1.985  0.8923 -0.0500  0.0060
 1088SOL    HW2 4397   2.575   0.479   1.963 -0.1972 -0.4366 -3.7920
 1088SOL    HW3 4398   2.426   0.463   1.941 -1.0483  2.6973 -0.7236
 1088SOL    MW4 4399   2.493   0.506   1.977  0.4926  0.2614 -0.5912
 1089SOL     OW 4400   2.503   0.788   1.911  0.2272  0.3651  0.3806
 1089SOL    HW2 4401   2.489   0.699   1.942 -0.4011  0.1692 -0.4327
 1089SOL    HW3 4402   2.510   0.779   1.816  1.3643  1.0385  0.3942
 1089SOL    MW4 4403   2.502   0.775   1.903  0.2942  0.4282  0.2750
 1090SOL     OW 4404   2.278   0.933   2.012  0.1763 -0.2256 -0.8080
 1090SOL    HW2 4405   2.279   0.912   2.105 -1.0339  0.5343 -0.6055
 1090SOL    HW3 4406   2.344   0.876   1.973 -0.9418 -2.2169  0.1698
 1090SOL    MW4 4407   2.286   0.923   2.019 -0.1311 -0.3881 -0.6523
 1091SOL     OW 4408   2.294   1.204   1.934 -0.2008 -0.0015  0.3036
 1091SOL    HW2 4409   2.371   1.246   1.973  0.2942  0.5720 -1.2452
 1091SOL    HW3 4410   2.294   1.115   1.971  1.5438 -0.2007 -0.1082
 1091SOL    MW4 4411   2.304   1.198   1.944  0.0947  0.0479  0.0451
 1092SOL     OW 4412   2.509   1.357   2.019  0.4771 -0.1816 -0.5030
 1092SOL    HW2 4413   2.507   1.347   2.114  1.2606 -1.9251 -0.6395
 1092SOL    HW3 4414   2.502   1.451   2.004  0.7429  0.1394  1.2916
 1092SOL    MW4 4415   2.508   1.368   2.029  0.6158 -0.3693 -0.2844
 1093SOL     OW 4416   2.486   1.615   1.923  0.3094 -0.2021 -0.0415
 1093SOL    HW2 4417   2.400   1.637   1.958  0.2172 -0.9730  0.2231
 1093SOL    HW3 4418   2.469   1.590   1.832  0.1287 -1.1848  0.2526
 1093SOL    MW4 4419   2.473   1.615   1.916  0.2735 -0.4334  0.0323
 1094SOL     OW 4420   2.256   1.686   2.044  0.2380  0.7900  0.2089
 1094SOL    HW2 4421   2.240   1.673   2.137  0.8906  0.8749  0.3317
 1094SOL    HW3 4422   2.182   1.643   2.001  1.3499 -1.6136  0.6694
 1094SOL    MW4 4423   2.244   1.679   2.050  0.4706  0.4841  0.2859
 1095SOL     OW 4424   2.209   1.956   1.932 -0.4109  0.6806  0.2682
 1095SOL    HW2 4425   2.292   2.000   1.948  0.7546 -0.2578 -2.8827
 1095SOL    HW3 4426   2.221   1.869   1.970  0.0446  0.5340 -0.2168
 1095SOL    MW4 4427   2.221   1.950   1.939 -0.1969  0.5374 -0.2115
 1096SOL     OW 4428   2.482   2.061   2.007 -0.2010 -0.3557 -0.2400
 1096SOL    HW2 4429   2.549   2.015   1.957  0.0794  0.1028 -0.2841
 1096SOL    HW3 4430   2.471   2.145   1.962  0.8203  0.5086  1.0907
 1096SOL    MW4 4431   2.489   2.066   1.995 -0.0293 -0.1812 -0.0705
 1097SOL     OW 4432   2.454   2.316   1.902  0.0519 -0.1184  0.0174
 1097SOL    HW2 4433   2.531   2.348   1.949 -0.3630  0.0329  0.6045
 1097SOL    HW3 4434   2.381   2.359   1.945 -0.6152 -2.6173  1.5296
 1097SOL    MW4 4435   2.455   2.326   1.914 -0.0911 -0.4284  0.2943
 1098SOL     OW 4436   2.236   2.446   2.039  0.3658 -0.3103 -0.1327
 1098SOL    HW2 4437   2.235   2.447   2.134  2.0497  0.1229 -0.1053
 1098SOL    HW3 4438   2.266   2.533   2.013 -0.8862 -0.1416 -1.0902
 1098SOL    MW4 4439   2.239   2.457   2.048  0.4227 -0.2310 -0.2551
 1099SOL     OW 4440   2.266   2.694   1.897 -0.3025  0.2056 -0.2528
 1099SOL    HW2 4441   2.189   2.747   1.917 -0.1625  1.1012 -1.9840
 1099SOL    HW3 4442   2.273   2.697   1.802  1.8531  0.1259 -0.1225
 1099SOL    MW4 4443   2.257   2.702   1.887  0.0002  0.3135 -0.4641
 1100SOL     OW 4444   2.468   2.864   1.998  0.2361  0.1982  0.0594
 1100SOL    HW2 4445   2.477   2.951   1.958  1.3397 -0.2830 -0.7495
 1100SOL    HW3 4446   2.393   2.825   1.953 -0.5291  0.8773  0.7157
 1100SOL    MW4 4447   2.459   2.870   1.987  0.2809  0.2239  0.0392
 1101SOL     OW 4448   2.488   3.124   1.900 -0.3304  0.1616 -0.1922
 1101SOL    HW2 4449   2.417   3.176   1.937 -0.1079  0.6370 -0.4243
 1101SOL    HW3 4450   2.478   3.133   1.806  0.9145  1.4591 -0.2225
 1101SOL    MW4 4451   2.477   3.132   1.893 -0.1369  0.3955 -0.2269
 1102SOL     OW 4452   2.281   3.238   2.013  0.2863 -0.1531  0.3084
 1102SOL    HW2 4453   2.271   3.260   2.106 -1.3916 -1.0179  0.3358
 1102SOL    HW3 4454   2.202   3.191   1.990  0.7328 -0.0440 -1.5579
 1102SOL    MW4 4455   2.270   3.235   2.022  0.1237 -0.2527  0.0660
 1103SOL     OW 4456   2.247   3.514   1.877  0.1086 -0.2344 -0.3483
 1103SOL    HW2 4457   2.248   3.424   1.911  2.0720 -0.4564 -0.9487
 1103SOL    HW3 4458   2.173   3.555   1.921  0.3176 -1.6088  1.3428
 1103SOL    MW4 4459   2.237   3.507   1.887  0.3953 -0.4451 -0.2043
 1104SOL     OW 4460   2.497   3.610   1.976 -0.1867 -0.1580 -0.0101
 1104SOL    HW2 4461   2.504   3.612   2.072 -0.9562 -1.4619  0.0817
 1104SOL    HW3 4462   2.415   3.565   1.959 -0.9240  1.6123 -1.2839
 1104SOL    MW4 4463   2.487   3.604   1.987 -0.3853 -0.0968 -0.1661
 1105SOL     OW 4464   2.522   3.876   1.870 -0.0975  0.1540  0.1777
 1105SOL    HW2 4465   2.440   3.913   1.903 -0.0590 -0.6269  1.1560
 1105SOL    HW3 4466   2.521   3.785   1.899  0.8501 -0.0076 -0.2905
 1105SOL    MW4 4467   2.511   3.869   1.878  0.0331  0.0293  0.2450
 1106SOL     OW 4468   2.284   3.965   1.971 -0.1147  0.3292  0.0459
 1106SOL    HW2 4469   2.296   3.973   2.065  2.3790 -0.6117 -0.1449
 1106SOL    HW3 4470   2.302   4.052   1.936 -0.2511  0.4837  0.3616
 1106SOL    MW4 4471   2.288   3.977   1.979  0.1962  0.2253  0.0625
 1107SOL     OW 4472   2.271   4.248   1.906  0.0099 -0.2808  0.2862
 1107SOL    HW2 4473   2.329   4.309   1.951  1.5710 -2.1134  0.8636
 1107SOL    HW3 4474   2.262   4.283   1.818  0.9846  0.6932  0.5625
 1107SOL    MW4 4475   2.278   4.260   1.901  0.3445 -0.3939  0.3989
 1108SOL     OW 4476   2.469   4.422   2.024  0.3357  0.3068 -0.2833
 1108SOL    HW2 4477   2.482   4.412   2.118  0.6906 -0.3333 -0.3977
 1108SOL    HW3 4478   2.534   4.365   1.984  1.4160  1.9704 -0.9519
 1108SOL    MW4 4479   2.479   4.413   2.031  0.5252  0.4420 -0.3867
 1109SOL     OW 4480   2.940   4.602   1.908  0.3574 -0.1937 -0.2242
 1109SOL    HW2 4481   2.998   4.654   1.964  0.1543 -0.5502  0.3222
 1109SOL    HW3 4482   2.951   4.512   1.938 -0.6191 -0.2424  0.0116
 1109SOL    MW4 4483   2.949   4.597   1.919  0.2019 -0.2465 -0.1210
 1110SOL     OW 4484   2.732   0.129   2.024 -0.0699  0.0906  0.1829
 1110SOL    HW2 4485   2.714   0.117   2.117  0.9693  0.1416  0.4011
 1110SOL    HW3 4486   2.797   0.062   2.004 -1.6853 -1.1722 -0.9570
 1110SOL    MW4 4487   2.738   0.118   2.033 -0.1459 -0.0693  0.0613
 1111SOL     OW 4488   2.726   0.368   1.898  0.1063  0.3189  0.4706
 1111SOL    HW2 4489   2.797   0.417   1.940 -0.0880  0.2307  0.9054
 1111SOL    HW3 4490   2.718   0.288   1.949  0.7630 -0.4028 -0.5549
 1111SOL    MW4 4491   2.734   0.364   1.910  0.1674  0.2120  0.3927
 1112SOL     OW 4492   2.938   0.475   2.036 -0.3752 -0.1042  0.3720
 1112SOL    HW2 4493   2.937   0.480   2.131 -0.3196  0.7476  0.3356
 1112SOL    HW3 4494   3.010   0.416   2.015 -1.7201 -1.9873  0.9162
 1112SOL    MW4 4495   2.947   0.468   2.045 -0.5450 -0.2403  0.4389
 1113SOL     OW 4496   2.919   0.731   1.934  0.0222 -0.3891 -0.3773
 1113SOL    HW2 4497   2.997   0.777   1.964  0.1182 -1.3341  0.8616
 1113SOL    HW3 4498   2.928   0.643   1.969 -1.7605 -0.4193  0.0680
 1113SOL    MW4 4499   2.931   0.726   1.943 -0.2003 -0.5178 -0.1550
 1114SOL     OW 4500   2.735   0.928   2.018 -0.0442  0.2377  0.3988
 1114SOL    HW2 4501   2.799   0.859   2.000  0.2807 -0.1023  2.6266
 1114SOL    HW3 4502   2.657   0.902   1.970  1.3662  0.5221 -2.1513
 1114SOL    MW4 4503   2.733   0.916   2.010  0.1850  0.2304  0.3562
 1115SOL     OW 4504   2.707   1.178   1.921  0.1681 -0.6128  0.2799
 1115SOL    HW2 4505   2.634   1.223   1.963 -1.2877 -1.1825 -1.5757
 1115SOL    HW3 4506   2.711   1.093   1.966 -0.5390 -0.7159  0.1558
 1115SOL    MW4 4507   2.698   1.172   1.932 -0.1171 -0.7015  0.0187
 1116SOL     OW 4508   2.940   1.303   1.976  0.2496 -0.7781 -0.0512
 1116SOL    HW2 4509   2.932   1.384   1.926  0.5817 -0.5796  0.2069
 1116SOL    HW3 4510   2.859   1.256   1.960  0.8718 -1.3020 -1.7728
 1116SOL    MW4 4511   2.929   1.308   1.968  0.3755 -0.8211 -0.2443
 1117SOL     OW 4512   2.912   1.571   1.858 -0.3226 -0.7938  0.2657
 1117SOL    HW2 4513   3.001   1.593   1.884 -0.2115 -0.0751 -0.6830
 1117SOL    HW3 4514   2.907   1.597   1.766 -1.5468 -0.7330  0.3436
 1117SOL    MW4 4515   2.923   1.577   1.849 -0.4692 -0.6909  0.1509
 1118SOL     OW 4516   2.718   1.698   2.032 -0.1639  0.4365 -0.1608
 1118SOL    HW2 4517   2.786   1.660   1.977 -0.7990  0.1726 -0.7759
 1118SOL    HW3 4518   2.636   1.661   1.998 -0.4314 -1.1079  2.0970
 1118SOL    MW4 4519   2.716   1.688   2.020 -0.2828  0.1979  0.0563
 1119SOL     OW 4520   2.723   1.948   1.883  0.3603 -0.0274 -0.2194
 1119SOL    HW2 4521   2.793   2.005   1.912  1.6570 -0.7532 -1.8337
 1119SOL    HW3 4522   2.732   1.868   1.935  0.1639  0.2145  0.1915
 1119SOL    MW4 4523   2.733   1.945   1.893  0.5054 -0.0912 -0.3783
 1120SOL     OW 4524   2.932   2.087   1.978 -0.0518  0.3285 -0.0143
 1120SOL    HW2 4525   2.923   2.079   2.073  2.2676  2.5292  0.4775
 1120SOL    HW3 4526   2.994   2.018   1.953 -1.2404 -0.7329 -0.0650
 1120SOL    MW4 4527   2.939   2.077   1.987  0.0973  0.4787  0.0439
 1121SOL     OW 4528   2.947   2.354   1.930 -0.3439  0.3704 -0.1514
 1121SOL    HW2 4529   3.040   2.375   1.941 -0.1523 -0.3242 -0.4615
 1121SOL    HW3 4530   2.940   2.261   1.951 -0.7043  0.0485 -1.6008
 1121SOL    MW4 4531   2.958   2.345   1.934 -0.3662  0.2365 -0.3835
 1122SOL     OW 4532   2.692   2.468   1.990 -0.2584  0.3725  0.7555
 1122SOL    HW2 4533   2.690   2.555   1.949 -1.1838  0.2285  0.4837
 1122SOL    HW3 4534   2.777   2.432   1.966 -0.6971  0.3903 -0.8726
 1122SOL    MW4 4535   2.703   2.475   1.981 -0.4385  0.3557  0.5049
 1123SOL     OW 4536   2.685   2.741   1.902  0.3462  0.4146  0.2786
 1123SOL    HW2 4537   2.607   2.786   1.933  0.3500  0.4960  0.1665
 1123SOL    HW3 4538   2.678   2.741   1.807  0.5740  0.5851  0.2615
 1123SOL    MW4 4539   2.674   2.747   1.894  0.3767  0.4478  0.2615
 1124SOL     OW 4540   2.946   2.808   1.990 -0.3979 -0.8614 -0.9524
 1124SOL    HW2 4541   2.949   2.902   1.972 -1.2543 -0.9396 -1.5288
 1124SOL    HW3 4542   2.856   2.782   1.970 -0.4063 -1.6432  0.0434
 1124SOL    MW4 4543   2.935   2.817   1.985 -0.5121 -0.9749 -0.8972
 1125SOL     OW 4544   2.906   3.081   1.913  0.3783 -0.2771  0.1488
 1125SOL    HW2 4545   2.985   3.126   1.940 -0.0891  0.3528  0.4845
 1125SOL    HW3 4546   2.834   3.133   1.949 -0.1569 -1.9769  1.6082
 1125SOL    MW4 4547   2.907   3.093   1.921  0.2458 -0.4182  0.3855
 1126SOL     OW 4548   2.719   3.271   2.012  0.5288 -0.8085 -0.4565
 1126SOL    HW2 4549   2.732   3.346   1.954 -1.0833  0.9662  1.4154
 1126SOL    HW3 4550   2.642   3.227   1.977 -2.2275  1.9327  1.9652
 1126SOL    MW4 4551   2.711   3.275   2.000 -0.0474 -0.2127  0.1100
 1127SOL     OW 4552   2.738   3.499   1.860 -0.0666 -0.6801  0.4149
 1127SOL    HW2 4553   2.814   3.554   1.881  0.5884 -1.5413  0.3493
 1127SOL    HW3 4554   2.665   3.540   1.906  0.1664  0.9363 -0.6217
 1127SOL    MW4 4555   2.739   3.512   1.869  0.0508 -0.5805  0.2694
 1128SOL     OW 4556   2.987   3.622   1.964  0.0301 -1.0366  0.1616
 1128SOL    HW2 4557   2.948   3.578   2.040  0.6375 -1.9977 -0.0822
 1128SOL    HW3 4558   3.070   3.577   1.950  0.5318  0.0090 -0.2671
 1128SOL    MW4 4559   2.993   3.610   1.972  0.1764 -1.0257  0.0728
 1129SOL     OW 4560   2.957   3.899   1.895  0.5267  0.0922  0.6987
 1129SOL    HW2 4561   2.976   3.807   1.914  0.7782 -0.0755 -0.3363
 1129SOL    HW3 4562   2.968   3.906   1.800 -0.8678  0.8621  0.5843
 1129SOL    MW4 4563   2.961   3.887   1.885  0.3757  0.1717  0.5471
 1130SOL     OW 4564   2.724   4.011   2.011 -0.1840 -0.2409  0.1101
 1130SOL    HW2 4565   2.809   3.978   1.981 -0.4245 -0.6978 -0.0781
 1130SOL    HW3 4566   2.660   3.965   1.957 -0.5349  0.4508 -0.0663
 1130SOL    MW4 4567   2.727   4.000   2.000 -0.2620 -0.2103  0.0620
 1131SOL     OW 4568   2.636   4.232   1.909 -0.2216 -0.1548 -0.0847
 1131SOL    HW2 4569   2.653   4.227   1.815  1.4514  0.2142  0.1848
 1131SOL    HW3 4570   2.670   4.150   1.945  1.3917  0.7733  0.5233
 1131SOL    MW4 4571   2.643   4.221   1.902  0.2122  0.0167  0.0310
 1132SOL     OW 4572   2.905   4.311   1.974 -0.0109 -0.1304  0.2968
 1132SOL    HW2 4573   2.894   4.332   2.067 -1.7010  0.4130 -0.0083
 1132SOL    HW3 4574   2.820   4.274   1.948  0.8801 -1.4792 -0.7231
 1132SOL    MW4 4575   2.892   4.309   1.983 -0.1166 -0.2365  0.1221
 1133SOL     OW 4576   3.131   0.075   2.057  0.6282 -0.0268  0.2737
 1133SOL    HW2 4577   3.127   0.066   2.152  1.8572 -0.7508  0.2622
 1133SOL    HW3 4578   3.217   0.042   2.033  0.4759  0.5030 -1.0579
 1133SOL    MW4 4579   3.142   0.070   2.067  0.7706 -0.0524  0.0966
 1134SOL     OW 4580   3.138   0.313   1.909  0.2614  0.3440  0.5479
 1134SOL    HW2 4581   3.139   0.233   1.961  1.5515  0.1974  0.3313
 1134SOL    HW3 4582   3.126   0.284   1.819 -1.5270  0.5648  0.7107
 1134SOL    MW4 4583   3.137   0.299   1.904  0.1957  0.3538  0.5407
 1135SOL     OW 4584   3.148   0.311   1.610 -0.2608  0.1165 -0.2029
 1135SOL    HW2 4585   3.160   0.226   1.567  1.2515  0.5591 -0.6745
 1135SOL    HW3 4586   3.071   0.349   1.567  0.6497  0.1284 -1.8639
 1135SOL    MW4 4587   3.139   0.305   1.598  0.0587  0.1765 -0.4841
 1136SOL     OW 4588   3.344   0.475   2.006 -0.8183  0.4751 -0.2258
 1136SOL    HW2 4589   3.425   0.437   1.972 -0.3058  1.3605 -0.0186
 1136SOL    HW3 4590   3.275   0.416   1.976 -0.3758  1.1763 -2.7267
 1136SOL    MW4 4591   3.346   0.462   1.998 -0.6921  0.6844 -0.5286
 1137SOL     OW 4592   3.343   0.729   1.917 -0.0658 -0.1599 -0.1222
 1137SOL    HW2 4593   3.273   0.760   1.975 -0.4519 -2.0760  0.4777
 1137SOL    HW3 4594   3.348   0.635   1.934  2.7531 -0.0391 -0.0648
 1137SOL    MW4 4595   3.334   0.721   1.927  0.2551 -0.3967 -0.0354
 1138SOL     OW 4596   3.139   0.891   2.021 -0.0235 -0.3078  0.0579
 1138SOL    HW2 4597   3.141   0.920   2.112 -2.0496  0.9502 -0.2843
 1138SOL    HW3 4598   3.145   0.971   1.969 -1.3537 -0.8034 -0.8963
 1138SOL    MW4 4599   3.140   0.905   2.026 -0.4663 -0.2072 -0.1132
 1139SOL     OW 4600   3.135   1.129   1.902  0.0517  0.0006  0.4942
 1139SOL    HW2 4601   3.218   1.176   1.903  0.1371 -0.0429 -1.7339
 1139SOL    HW3 4602   3.071   1.190   1.938  0.7090  0.6896  0.4874
 1139SOL    MW4 4603   3.137   1.143   1.907  0.1497  0.0858  0.1993
 1140SOL     OW 4604   3.364   1.243   1.980  0.0751 -0.1256 -0.8337
 1140SOL    HW2 4605   3.388   1.261   2.070  1.0043  1.6998 -1.4290
 1140SOL    HW3 4606   3.359   1.329   1.938  1.4516 -1.0323 -2.9691
 1140SOL    MW4 4607   3.366   1.257   1.986  0.3793 -0.0043 -1.1940
 1141SOL     OW 4608   3.366   1.511   1.858  0.5141 -0.2441 -0.2579
 1141SOL    HW2 4609   3.446   1.549   1.893  0.8641 -0.9180 -0.3175
 1141SOL    HW3 4610   3.295   1.557   1.903  0.9347  0.2915 -0.1433
 1141SOL    MW4 4611   3.367   1.522   1.869  0.6158 -0.2624 -0.2506
 1142SOL     OW 4612   3.155   1.656   1.957 -0.4384 -0.0840  0.0341
 1142SOL    HW2 4613   3.158   1.662   2.053  0.4162 -0.0744  0.0081
 1142SOL    HW3 4614   3.173   1.745   1.927  2.7004 -0.7369 -0.1837
 1142SOL    MW4 4615   3.158   1.669   1.966  0.0887 -0.1688  0.0020
 1143SOL     OW 4616   3.143   1.922   1.868  0.8213  0.2974  0.0969
 1143SOL    HW2 4617   3.225   1.963   1.894  0.1140  1.3514  0.7249
 1143SOL    HW3 4618   3.144   1.923   1.772  1.6758  0.0242  0.1040
 1143SOL    MW4 4619   3.154   1.928   1.859  0.8404  0.4004  0.1806
 1144SOL     OW 4620   3.377   2.021   1.959 -0.1480 -0.3291  0.3685
 1144SOL    HW2 4621   3.449   1.969   1.922  0.8054  0.5957  0.8852
 1144SOL    HW3 4622   3.389   2.108   1.921 -0.1985  0.1725  1.4860
 1144SOL    MW4 4623   3.388   2.025   1.949 -0.0288 -0.1409  0.5839
 1145SOL     OW 4624   3.415   2.271   1.866  0.3379  0.5069  0.6116
 1145SOL    HW2 4625   3.344   2.330   1.891 -0.7367 -0.6079  0.2562
 1145SOL    HW3 4626   3.421   2.279   1.770  0.3389  0.2169  0.5856
 1145SOL    MW4 4627   3.406   2.280   1.856  0.1962  0.3214  0.5611
 1146SOL     OW 4628   3.226   2.425   2.000 -0.4966  0.0469  0.3582
 1146SOL    HW2 4629   3.212   2.430   2.095 -1.3099  1.0360  0.1981
 1146SOL    HW3 4630   3.205   2.513   1.968  0.2230 -0.1518 -0.6861
 1146SOL    MW4 4631   3.221   2.437   2.009 -0.5090  0.1514  0.1993
 1147SOL     OW 4632   3.155   2.662   1.881  0.0415  0.3759  0.2925
 1147SOL    HW2 4633   3.088   2.726   1.903 -0.3990 -0.5236  1.6440
 1147SOL    HW3 4634   3.161   2.665   1.785 -0.8006  1.5789  0.2638
 1147SOL    MW4 4635   3.147   2.671   1.871 -0.1276  0.4163  0.4669
 1148SOL     OW 4636   3.372   2.819   1.988 -0.0536  0.2679 -0.0431
 1148SOL    HW2 4637   3.375   2.810   2.083  0.8616  0.2453 -0.0750
 1148SOL    HW3 4638   3.294   2.768   1.962  0.6968 -1.2092  0.5217
 1148SOL    MW4 4639   3.362   2.811   1.997  0.1659  0.0701  0.0273
 1149SOL     OW 4640   3.396   3.081   1.865 -0.4391 -0.6010 -0.4307
 1149SOL    HW2 4641   3.472   3.122   1.906 -0.9144  0.2941 -0.4540
 1149SOL    HW3 4642   3.393   2.994   1.905 -1.0902  0.3624  1.6893
 1149SOL    MW4 4643   3.406   3.075   1.876 -0.5877 -0.3560 -0.1540
 1150SOL     OW 4644   3.189   3.178   1.988  0.0918  0.5999  0.1863
 1150SOL    HW2 4645   3.181   3.271   1.967  0.8171  0.6292  0.0615
 1150SOL    HW3 4646   3.264   3.148   1.937 -0.1509 -0.0582  0.2168
 1150SOL    MW4 4647   3.198   3.187   1.978  0.1557  0.5169  0.1737
 1151SOL     OW 4648   3.189   3.447   1.904  0.2698 -0.5679 -0.4722
 1151SOL    HW2 4649   3.256   3.506   1.939 -0.6145 -0.6086  1.3199
 1151SOL    HW3 4650   3.188   3.466   1.810  0.2353  2.0348  0.0187
 1151SOL    MW4 4651   3.198   3.457   1.896  0.1485 -0.2296 -0.1712
 1152SOL     OW 4652   3.417   3.631   1.965  0.3038  0.0635 -0.0537
 1152SOL    HW2 4653   3.486   3.583   1.920  0.1273  0.8141 -1.1536
 1152SOL    HW3 4654   3.410   3.714   1.917 -1.8892 -0.3237 -0.4534
 1152SOL    MW4 4655   3.425   3.636   1.953 -0.0083  0.1116 -0.2517
 1153SOL     OW 4656   3.410   3.883   1.865  0.3977 -0.0729 -0.0669
 1153SOL    HW2 4657   3.330   3.929   1.893  0.8560  1.5478 -1.3717
 1153SOL    HW3 4658   3.407   3.885   1.770  1.8493 -0.2859 -0.1250
 1153SOL    MW4 4659   3.399   3.889   1.856  0.6497  0.1128 -0.2468
 1154SOL     OW 4660   3.192   4.005   1.981  0.4433  0.1000 -0.3564
 1154SOL    HW2 4661   3.207   3.989   2.074  0.8172  0.5704 -0.3325
 1154SOL    HW3 4662   3.106   3.968   1.963  0.5233 -0.3109  0.0966
 1154SOL    MW4 4663   3.183   3.998   1.991  0.5033  0.1085 -0.2935
 1155SOL     OW 4664   3.147   4.254   1.887 -0.2629  0.1030 -0.0651
 1155SOL    HW2 4665   3.167   4.162   1.903  0.4485  0.0163 -1.3817
 1155SOL    HW3 4666   3.065   4.269   1.934 -0.1251 -1.0661  0.5747
 1155SOL    MW4 4667   3.139   4.244   1.895 -0.1507 -0.0625 -0.1544
 1156SOL     OW 4668   3.352   4.373   2.044 -0.4269  0.2382 -0.1764
 1156SOL    HW2 4669   3.432   4.326   2.019  0.0556  1.3072 -0.6657
 1156SOL    HW3 4670   3.283   4.333   1.991 -0.4295 -1.4684  1.0835
 1156SOL    MW4 4671   3.354   4.361   2.034 -0.3636  0.1545 -0.0746
 1157SOL     OW 4672   3.832   4.633   1.847  0.0256 -0.3103 -0.0644
 1157SOL    HW2 4673   3.837   4.544   1.883 -1.1704 -0.2170  0.3630
 1157SOL    HW3 4674   3.761   4.674   1.895  1.8560  1.5431  1.1765
 1157SOL    MW4 4675   3.824   4.627   1.858  0.1092 -0.0534  0.1557
 1158SOL     OW 4676   3.627   0.109   1.990  0.3992 -0.1262  0.1689
 1158SOL    HW2 4677   3.632   0.111   2.085 -0.1048  1.0920  0.1725
 1158SOL    HW3 4678   3.546   0.061   1.972 -0.1401  0.6985  0.3727
 1158SOL    MW4 4679   3.617   0.103   2.000  0.2615  0.1433  0.1962
 1159SOL     OW 4680   3.592   0.372   1.898 -0.1138 -0.2451 -0.0119
 1159SOL    HW2 4681   3.621   0.286   1.926  2.0789  0.3847 -0.2374
 1159SOL    HW3 4682   3.582   0.365   1.803  0.4285 -0.1679 -0.0785
 1159SOL    MW4 4683   3.595   0.360   1.889  0.2472 -0.1518 -0.0505
 1160SOL     OW 4684   3.830   0.492   1.992 -0.1578  0.1054 -0.3293
 1160SOL    HW2 4685   3.830   0.585   1.971 -0.6120  0.0538 -0.5743
 1160SOL    HW3 4686   3.757   0.456   1.941 -0.6242 -0.2096  0.5606
 1160SOL    MW4 4687   3.821   0.499   1.982 -0.2789  0.0571 -0.2443
 1161SOL     OW 4688   3.815   0.749   1.904 -0.3660  0.4442  0.2413
 1161SOL    HW2 4689   3.735   0.766   1.954 -0.0703  0.8977  0.5600
 1161SOL    HW3 4690   3.790   0.765   1.813 -0.4878  1.1546  0.3949
 1161SOL    MW4 4691   3.801   0.753   1.899 -0.3428  0.5978  0.3037
 1162SOL     OW 4692   3.579   0.845   2.014 -0.3134  0.4089  0.2110
 1162SOL    HW2 4693   3.588   0.933   1.977 -0.6705 -0.1096 -1.1145
 1162SOL    HW3 4694   3.500   0.810   1.974 -0.0083 -0.6391  0.5058
 1162SOL    MW4 4695   3.570   0.852   2.004 -0.3204  0.2022  0.0751
 1163SOL     OW 4696   3.576   1.096   1.902 -0.0840  0.5682 -0.0757
 1163SOL    HW2 4697   3.502   1.148   1.933 -1.7214 -0.8970 -1.3637
 1163SOL    HW3 4698   3.576   1.110   1.807  0.9642  0.1337 -0.1440
 1163SOL    MW4 4699   3.566   1.105   1.893 -0.1616  0.3176 -0.2546
 1164SOL     OW 4700   3.832   1.278   2.005 -0.2003  0.3457 -0.0860
 1164SOL    HW2 4701   3.843   1.259   2.098  1.3397  0.9123 -0.1460
 1164SOL    HW3 4702   3.759   1.222   1.978 -0.4883 -0.0151  1.3964
 1164SOL    MW4 4703   3.824   1.268   2.014 -0.0353  0.3729  0.1016
 1165SOL     OW 4704   3.822   1.515   1.872 -0.5465  0.0933  0.1987
 1165SOL    HW2 4705   3.899   1.559   1.908  0.2671 -0.2562 -1.0519
 1165SOL    HW3 4706   3.827   1.426   1.906 -1.1550  0.4383  1.2105
 1165SOL    MW4 4707   3.833   1.509   1.881 -0.5195  0.0926  0.1671
 1166SOL     OW 4708   3.599   1.639   1.989 -0.0245 -0.1063  0.0205
 1166SOL    HW2 4709   3.602   1.718   1.936  0.4961  0.2874  0.6244
 1166SOL    HW3 4710   3.677   1.590   1.963  0.3061  0.1522  0.5109
 1166SOL    MW4 4711   3.610   1.643   1.979  0.0880 -0.0203  0.1647
 1167SOL     OW 4712   3.612   1.889   1.889 -0.5013  0.1161 -0.5877
 1167SOL    HW2 4713   3.675   1.956   1.916 -0.4515 -0.4295  0.7139
 1167SOL    HW3 4714   3.600   1.903   1.795  0.4880  1.1248 -0.5734
 1167SOL    MW4 4715   3.619   1.900   1.880 -0.3643  0.1771 -0.4141
 1168SOL     OW 4716   3.812   2.069   1.985 -0.0176 -0.1849 -0.3178
 1168SOL    HW2 4717   3.887   2.024   1.945 -0.0446 -0.4586 -0.0548
 1168SOL    HW3 4718   3.822   2.160   1.956 -0.1334 -0.4138 -1.0949
 1168SOL    MW4 4719   3.823   2.075   1.976 -0.0365 -0.2511 -0.3856
 1169SOL     OW 4720   3.820   2.304   1.872 -0.1764 -0.3812 -0.1222
 1169SOL    HW2 4721   3.907   2.334   1.897  0.5302 -2.6768  0.2990
 1169SOL    HW3 4722   3.760   2.356   1.925  1.0741 -0.8266  1.7680
 1169SOL    MW4 4723   3.824   2.315   1.882  0.0818 -0.7429  0.1827
 1170SOL     OW 4724   3.606   2.438   1.983 -0.4584 -0.0606 -0.0678
 1170SOL    HW2 4725   3.591   2.517   1.931  0.0333 -0.7284 -1.2417
 1170SOL    HW3 4726   3.544   2.374   1.947  1.6930 -1.3229 -1.6114
 1170SOL    MW4 4727   3.596   2.440   1.971 -0.1097 -0.3152 -0.4264
 1171SOL     OW 4728   3.569   2.688   1.857  0.0829  0.1576 -0.2539
 1171SOL    HW2 4729   3.654   2.716   1.892 -0.3966  0.2286  0.8726
 1171SOL    HW3 4730   3.505   2.745   1.900 -0.7383 -1.3832  0.6202
 1171SOL    MW4 4731   3.572   2.699   1.867 -0.0889 -0.0365  0.0100
 1172SOL     OW 4732   3.821   2.781   1.960 -0.2788 -0.6170  0.1334
 1172SOL    HW2 4733   3.809   2.799   2.054 -1.2385 -0.2871 -0.0462
 1172SOL    HW3 4734   3.834   2.867   1.920  2.5895 -0.9429  0.2807
 1172SOL    MW4 4735   3.821   2.794   1.967 -0.0269 -0.6166  0.1291
 1173SOL     OW 4736   3.831   3.074   1.927  0.6203 -0.2955 -0.0585
 1173SOL    HW2 4737   3.747   3.110   1.954  0.4730 -0.9479  0.3589
 1173SOL    HW3 4738   3.828   3.076   1.831  0.2384 -0.0695 -0.0421
 1173SOL    MW4 4739   3.819   3.079   1.918  0.5505 -0.3519 -0.0013
 1174SOL     OW 4740   3.603   3.205   1.977 -0.4175  0.0713  0.1352
 1174SOL    HW2 4741   3.607   3.206   2.073 -2.0691 -0.2456  0.2186
 1174SOL    HW3 4742   3.619   3.296   1.952 -1.2553  0.4011  0.7776
 1174SOL    MW4 4743   3.606   3.217   1.987 -0.7460  0.0730  0.2309
 1175SOL     OW 4744   3.626   3.478   1.884 -0.1635  0.5983  0.2950
 1175SOL    HW2 4745   3.703   3.530   1.907  0.7930 -1.0326  0.8360
 1175SOL    HW3 4746   3.629   3.472   1.789  0.6901  0.0653  0.3544
 1175SOL    MW4 4747   3.636   3.484   1.875  0.0753  0.3128  0.3742
 1176SOL     OW 4748   3.850   3.624   1.993  0.0473 -0.3543  0.0570
 1176SOL    HW2 4749   3.930   3.575   1.975 -0.2770 -0.8111 -0.1303
 1176SOL    HW3 4750   3.872   3.714   1.969  0.6458 -0.3991  0.4284
 1176SOL    MW4 4751   3.863   3.630   1.987  0.0832 -0.4206  0.0813
 1177SOL     OW 4752   3.858   3.890   1.926 -0.4188  0.0606 -0.7415
 1177SOL    HW2 4753   3.777   3.932   1.955  0.1280  0.7176 -0.1402
 1177SOL    HW3 4754   3.860   3.908   1.832 -0.7338  0.4641 -0.6773
 1177SOL    MW4 4755   3.847   3.898   1.917 -0.3884  0.2003 -0.6537
 1178SOL     OW 4756   3.610   3.996   1.995  0.1214  0.1277 -0.1063
 1178SOL    HW2 4757   3.593   3.987   2.089  0.7758 -0.3413 -0.0239
 1178SOL    HW3 4758   3.545   3.939   1.954  0.2381 -0.1599  0.0986
 1178SOL    MW4 4759   3.600   3.987   2.002  0.2229  0.0281 -0.0684
 1179SOL     OW 4760   3.577   4.281   1.896 -0.7492 -0.0720 -0.4491
 1179SOL    HW2 4761   3.657   4.333   1.904 -0.3921 -0.8432  1.3006
 1179SOL    HW3 4762   3.602   4.194   1.927 -2.0411 -0.5688 -0.7617
 1179SOL    MW4 4763   3.591   4.277   1.901 -0.8724 -0.2394 -0.2594
 1180SOL     OW 4764   3.819   4.383   1.990  0.2673  0.1573  0.0945
 1180SOL    HW2 4765   3.829   4.385   2.085 -0.0460 -1.6242  0.1955
 1180SOL    HW3 4766   3.897   4.335   1.960 -0.9005 -1.5309 -0.3101
 1180SOL    MW4 4767   3.831   4.377   1.998  0.0718 -0.3004  0.0546
 1181SOL     OW 4768   4.280   0.005   1.905  0.0316 -0.5005  0.0169
 1181SOL    HW2 4769   4.198   0.039   1.939  0.2799  0.5856 -0.4482
 1181SOL    HW3 4770   4.348   0.049   1.956  0.3580 -0.1909 -0.6722
 1181SOL    MW4 4771   4.278   0.016   1.916  0.1073 -0.3161 -0.1354
 1182SOL     OW 4772   4.038   0.111   2.018  0.0157 -0.1727  0.0284
 1182SOL    HW2 4773   4.038   0.098   2.113  0.9023  0.7547  0.1564
 1182SOL    HW3 4774   3.964   0.058   1.987 -0.5369 -0.1456  1.2758
 1182SOL    MW4 4775   4.028   0.102   2.026  0.0596 -0.0468  0.2098
 1183SOL     OW 4776   4.044   0.333   1.874 -0.2561 -0.0347 -0.3932
 1183SOL    HW2 4777   4.045   0.252   1.926 -2.0874  0.2153  0.0632
 1183SOL    HW3 4778   3.972   0.383   1.911  1.0587  1.9555 -0.4741
 1183SOL    MW4 4779   4.035   0.329   1.886 -0.3242  0.2609 -0.3434
 1184SOL     OW 4780   4.231   0.482   2.009 -0.3541 -0.0099 -0.5011
 1184SOL    HW2 4781   4.225   0.480   2.104  0.9763 -1.4951 -0.4249
 1184SOL    HW3 4782   4.157   0.428   1.979  0.4743 -1.3149 -0.2302
 1184SOL    MW4 4783   4.220   0.475   2.017 -0.0687 -0.3780 -0.4551
 1185SOL     OW 4784   4.280   0.743   1.866  0.4002  0.3270  0.0129
 1185SOL    HW2 4785   4.247   0.674   1.923  1.3712 -0.3048 -0.1786
 1185SOL    HW3 4786   4.276   0.706   1.778 -0.4026  1.0326 -0.2548
 1185SOL    MW4 4787   4.275   0.729   1.862  0.4220  0.3367 -0.0478
 1186SOL     OW 4788   4.055   0.880   1.981  0.1475 -0.0428  0.0468
 1186SOL    HW2 4789   4.127   0.854   1.923 -0.0798  2.4435 -1.4066
 1186SOL    HW3 4790   3.979   0.831   1.950  0.4984 -0.2913 -0.4200
 1186SOL    MW4 4791   4.055   0.870   1.970  0.1640  0.2525 -0.2065
 1187SOL     OW 4792   4.043   1.155   1.901  0.1612  0.4440  0.4026
 1187SOL    HW2 4793   4.054   1.064   1.928  0.1003 -0.1379 -1.4510
 1187SOL    HW3 4794   3.970   1.188   1.953  0.1579 -0.5813  1.0460
 1187SOL    MW4 4795   4.035   1.148   1.911  0.1526  0.2319  0.2429
 1188SOL     OW 4796   4.263   1.319   1.955 -0.4152 -0.0496  0.4236
 1188SOL    HW2 4797   4.277   1.325   2.050 -0.1816  0.7612  0.3346
 1188SOL    HW3 4798   4.183   1.268   1.947  0.7561 -2.0789  1.0130
 1188SOL    MW4 4799   4.255   1.313   1.967 -0.2298 -0.2103  0.4896
 1189SOL     OW 4800   4.268   1.564   1.828 -0.0158  0.0184 -0.2009
 1189SOL    HW2 4801   4.251   1.478   1.866 -0.0747  0.1808  0.1496
 1189SOL    HW3 4802   4.294   1.546   1.738  1.6145 -0.4751  0.3449
 1189SOL    MW4 4803   4.269   1.550   1.821  0.1917 -0.0253 -0.0826
 1190SOL     OW 4804   4.054   1.682   1.956 -0.4719 -0.3731  0.2188
 1190SOL    HW2 4805   4.101   1.693   2.038  0.3544  1.8019 -0.5023
 1190SOL    HW3 4806   4.121   1.662   1.891 -1.0446 -1.4846 -0.0410
 1190SOL    MW4 4807   4.069   1.681   1.958 -0.4387 -0.2326  0.0895
 1191SOL     OW 4808   4.055   1.952   1.874  0.1365 -0.5505 -0.0370
 1191SOL    HW2 4809   4.037   1.861   1.897 -1.5525 -0.5008 -1.0795
 1191SOL    HW3 4810   4.043   1.956   1.779  0.9926  0.5767 -0.1047
 1191SOL    MW4 4811   4.051   1.940   1.865  0.0267 -0.3952 -0.1836
 1192SOL     OW 4812   4.281   2.090   1.984 -0.0440 -0.6017  0.4594
 1192SOL    HW2 4813   4.275   2.079   2.078 -1.6512 -0.3232  0.4063
 1192SOL    HW3 4814   4.203   2.047   1.950  0.0147  0.1462 -0.6648
 1192SOL    MW4 4815   4.270   2.083   1.992 -0.2484 -0.4661  0.3041
 1193SOL     OW 4816   4.281   2.322   1.856  0.3506 -0.8489 -0.1277
 1193SOL    HW2 4817   4.300   2.243   1.906  1.7870 -0.3538  0.1392
 1193SOL    HW3 4818   4.350   2.383   1.881 -0.8845  0.5808 -0.1559
 1193SOL    MW4 4819   4.292   2.320   1.866  0.3777 -0.5951 -0.0962
 1194SOL     OW 4820   4.052   2.410   1.951  0.4143  0.5248 -0.0554
 1194SOL    HW2 4821   4.066   2.427   2.044  1.3653  0.6242 -0.2095
 1194SOL    HW3 4822   4.136   2.376   1.921 -0.7431 -2.3514 -0.2228
 1194SOL    MW4 4823   4.065   2.407   1.959  0.3872  0.1583 -0.0978
 1195SOL     OW 4824   4.060   2.683   1.869 -0.0264 -0.3185  0.0265
 1195SOL    HW2 4825   4.072   2.591   1.891 -1.2052 -0.2180  1.1789
 1195SOL    HW3 4826   3.974   2.706   1.905  0.5839  1.4240  0.4638
 1195SOL    MW4 4827   4.050   2.674   1.877 -0.1016 -0.0756  0.2364
 1196SOL     OW 4828   4.271   2.842   1.997 -0.2818  0.1838  0.6593
 1196SOL    HW2 4829   4.250   2.804   2.082 -0.7102 -0.2966  0.3426
 1196SOL    HW3 4830   4.205   2.806   1.938  0.0143  0.5146  0.1251
 1196SOL    MW4 4831   4.260   2.832   2.000 -0.2990  0.1640  0.5469
 1197SOL     OW 4832   4.293   3.107   1.916  0.2689  0.5223 -0.0098
 1197SOL    HW2 4833   4.214   3.154   1.942 -0.1194  0.7387 -1.5542
 1197SOL    HW3 4834   4.290   3.025   1.966 -0.2854  1.0686  0.8659
 1197SOL    MW4 4835   4.282   3.102   1.926  0.1445  0.6227 -0.0980
 1198SOL     OW 4836   4.054   3.213   2.007  0.6035 -0.5010 -0.9562
 1198SOL    HW2 4837   4.052   3.194   2.101  1.1739 -1.0098 -1.0522
 1198SOL    HW3 4838   3.979   3.165   1.972 -0.7339  1.1793 -0.4817
 1198SOL    MW4 4839   4.043   3.204   2.015  0.5021 -0.3467 -0.9060
 1199SOL     OW 4840   4.085   3.491   1.906 -0.1272  0.5965  0.1646
 1199SOL    HW2 4841   4.162   3.534   1.942 -1.2635  1.6099  1.4295
 1199SOL    HW3 4842   4.082   3.406   1.952  0.5291  0.3338 -0.2750
 1199SOL    MW4 4843   4.095   3.485   1.917 -0.1898  0.6955  0.2735
 1200SOL     OW 4844   4.327   3.579   2.009 -0.4761  0.6401 -0.2981
 1200SOL    HW2 4845   4.330   3.673   1.990  1.1896  0.7018  0.1983
 1200SOL    HW3 4846   4.408   3.544   1.970 -0.5105 -0.3911  0.5331
 1200SOL    MW4 4847   4.338   3.587   2.001 -0.2608  0.5121 -0.1228
 1201SOL     OW 4848   4.298   3.838   1.899 -0.2489 -0.4641  0.0086
 1201SOL    HW2 4849   4.376   3.878   1.938  0.9530 -0.8445 -1.9718
 1201SOL    HW3 4850   4.309   3.849   1.805 -2.6029 -0.5274 -0.3097
 1201SOL    MW4 4851   4.309   3.845   1.892 -0.4005 -0.5226 -0.2947
 1202SOL     OW 4852   4.102   3.989   2.031  0.0704 -0.2332 -0.5099
 1202SOL    HW2 4853   4.168   3.932   1.991 -1.2009 -1.1736 -1.3099
 1202SOL    HW3 4854   4.020   3.963   1.990 -0.5561  2.1915 -0.8923
 1202SOL    MW4 4855   4.100   3.978   2.020 -0.1802 -0.0372 -0.6657
 1203SOL     OW 4856   4.059   4.296   1.931  0.3277  0.5786 -0.7941
 1203SOL    HW2 4857   4.143   4.338   1.951  0.4355 -0.1908  0.4595
 1203SOL    HW3 4858   4.079   4.202   1.931 -0.1269  0.4725 -2.5163
 1203SOL    MW4 4859   4.073   4.289   1.934  0.2818  0.4635 -0.8559
 1204SOL     OW 4860   4.300   4.393   2.016 -0.2618  0.2292 -0.2242
 1204SOL    HW2 4861   4.295   4.413   2.109  1.7226 -0.1565 -0.0154
 1204SOL    HW3 4862   4.300   4.479   1.973 -1.4239  0.3991  0.1159
 1204SOL    MW4 4863   4.300   4.407   2.022 -0.1531  0.2007 -0.1514
 1205SOL     OW 4864   0.254   0.008   2.370 -0.0478 -0.2978 -0.0118
 1205SOL    HW2 4865   0.274   0.005   2.464  1.0409 -0.4883 -0.2455
 1205SOL    HW3 4866   0.321   0.065   2.333 -0.0179 -0.8298 -0.7939
 1205SOL    MW4 4867   0.265   0.015   2.378  0.0997 -0.3931 -0.1459
 1206SOL     OW 4868   0.009   0.132   2.311 -0.3302  0.3231 -0.0960
 1206SOL    HW2 4869   0.075   0.063   2.311  0.4374  1.0541 -0.0174
 1206SOL    HW3 4870  -0.023   0.136   2.221  0.7861  0.9740 -0.4639
 1206SOL    MW4 4871   0.013   0.124   2.299 -0.0816  0.5054 -0.1342
 1207SOL     OW 4872   0.033   0.403   2.387  0.1718  0.3047  0.0873
 1207SOL    HW2 4873   0.093   0.456   2.333 -0.2501  0.5378 -0.1536
 1207SOL    HW3 4874   0.045   0.314   2.355 -2.4399  0.8545 -2.6431
 1207SOL    MW4 4875   0.043   0.398   2.376 -0.2284  0.4080 -0.3049
 1208SOL     OW 4876   0.240   0.540   2.241 -0.2061 -0.2301  0.1860
 1208SOL    HW2 4877   0.319   0.502   2.279 -0.2289  0.5479  1.0402
 1208SOL    HW3 4878   0.239   0.510   2.150 -0.3234 -2.4176  0.8969
 1208SOL    MW4 4879   0.250   0.531   2.234 -0.2246 -0.4161  0.3924
 1209SOL     OW 4880   0.226   0.793   2.358 -0.3131  0.6515  0.2699
 1209SOL    HW2 4881   0.217   0.780   2.453  1.3369 -0.7379  0.2495
 1209SOL    HW3 4882   0.247   0.706   2.324 -1.3549  1.0495 -1.4514
 1209SOL    MW4 4883   0.228   0.779   2.366 -0.2329  0.5208  0.0403
 1210SOL     OW 4884   4.478   0.834   2.255  0.4121  0.0532 -0.4019
 1210SOL    HW2 4885   4.567   0.806   2.276  0.5770 -0.7356 -2.0807
 1210SOL    HW3 4886   4.477   0.844   2.160 -1.2926  0.0536 -0.4067
 1210SOL    MW4 4887   4.490   0.832   2.245  0.2089 -0.0508 -0.6237
 1211SOL     OW 4888   4.457   1.110   2.334  0.2223  0.0230  0.2783
 1211SOL    HW2 4889   4.449   1.109   2.429 -1.5135  1.2485  0.1701
 1211SOL    HW3 4890   4.449   1.018   2.308 -0.6343 -0.1801  1.2215
 1211SOL    MW4 4891   4.455   1.098   2.343 -0.1192  0.1578  0.3884
 1212SOL     OW 4892   0.227   1.224   2.299 -0.2535  0.5257  0.1292
 1212SOL    HW2 4893   0.145   1.178   2.317  0.5487 -1.2543 -0.6590
 1212SOL    HW3 4894   0.225   1.241   2.205 -0.6005  2.2456  0.4338
 1212SOL    MW4 4895   0.216   1.220   2.289 -0.1934  0.5178  0.0653
 1213SOL     OW 4896   0.215   1.489   2.383  0.3827  0.3102  0.3668
 1213SOL    HW2 4897   0.229   1.492   2.478 -2.0558  0.6654  0.7623
 1213SOL    HW3 4898   0.211   1.396   2.363 -1.3510  0.2165  1.0236
 1213SOL    MW4 4899   0.216   1.477   2.393 -0.1678  0.3446  0.5054
 1214SOL     OW 4900   0.014   1.660   2.233  0.6253  0.1372  0.1280
 1214SOL    HW2 4901   0.014   1.749   2.268  2.3423  0.6771 -1.2252
 1214SOL    HW3 4902   0.079   1.613   2.286 -0.7455 -0.5073  1.2749
 1214SOL    MW4 4903   0.022   1.666   2.245  0.6709  0.1235  0.1006
 1215SOL     OW 4904   0.006   1.908   2.334  0.0978  0.1053 -0.7412
 1215SOL    HW2 4905  -0.062   1.969   2.305 -0.0517  1.0785  1.5068
 1215SOL    HW3 4906   0.088   1.950   2.308  0.0101  1.4688  1.0188
 1215SOL    MW4 4907   0.008   1.922   2.327  0.0663  0.4135 -0.2124
 1216SOL     OW 4908   0.244   2.026   2.237  0.0857 -0.4164  0.0896
 1216SOL    HW2 4909   0.324   1.992   2.277  0.0275  0.1439  0.7001
 1216SOL    HW3 4910   0.264   2.032   2.144  0.7279 -0.3769  0.2300
 1216SOL    MW4 4911   0.257   2.023   2.230  0.1628 -0.3374  0.1888
 1217SOL     OW 4912   0.205   2.292   2.327 -0.1576 -0.2707  0.5745
 1217SOL    HW2 4913   0.224   2.292   2.421  2.5511  1.2562  0.0691
 1217SOL    HW3 4914   0.213   2.200   2.302 -1.0991 -0.7279  1.8503
 1217SOL    MW4 4915   0.209   2.280   2.336  0.0755 -0.1297  0.6764
 1218SOL     OW 4916   0.021   2.473   2.219 -0.3576  0.5366  0.2895
 1218SOL    HW2 4917   0.037   2.550   2.274 -0.8316 -0.0316  1.2202
 1218SOL    HW3 4918   0.081   2.407   2.253  1.4644  1.0768 -1.7572
 1218SOL    MW4 4919   0.031   2.475   2.230 -0.1797  0.5329  0.1423
 1219SOL     OW 4920   0.048   2.705   2.377  0.6431 -0.4021  0.2274
 1219SOL    HW2 4921   0.034   2.693   2.471  0.7648  0.5681  0.3734
 1219SOL    HW3 4922   0.120   2.768   2.371  0.8533 -0.7058 -0.5185
 1219SOL    MW4 4923   0.056   2.712   2.389  0.6869 -0.3142  0.1481
 1220SOL     OW 4924   0.267   2.868   2.291  0.1947  0.1684 -0.2766
 1220SOL    HW2 4925   0.337   2.805   2.309 -1.7698 -2.2097 -0.7176
 1220SOL    HW3 4926   0.258   2.866   2.196 -0.4993  0.4121 -0.2159
 1220SOL    MW4 4927   0.275   2.859   2.281 -0.1561 -0.1132 -0.3269
 1221SOL     OW 4928   0.304   3.131   2.367 -0.3138 -0.1706 -0.1456
 1221SOL    HW2 4929   0.224   3.165   2.325  1.2950  2.0722 -1.5431
 1221SOL    HW3 4930   0.304   3.038   2.347 -2.5652 -0.2026 -0.1372
 1221SOL    MW4 4931   0.293   3.124   2.359 -0.3985  0.1209 -0.3288
 1222SOL     OW 4932   0.045   3.191   2.258  0.9619  0.0700 -0.3487
 1222SOL    HW2 4933   0.044   3.284   2.283 -0.6008 -0.3362  1.1865
 1222SOL    HW3 4934   0.054   3.193   2.162  3.1607  1.7315 -0.1670
 1222SOL    MW4 4935   0.046   3.204   2.248  1.0458  0.2356 -0.1221
 1223SOL     OW 4936   0.044   3.458   2.347 -0.1218  0.4140  0.2486
 1223SOL    HW2 4937   0.043   3.472   2.442 -0.2891  0.4179  0.2460
 1223SOL    HW3 4938  -0.040   3.493   2.317 -0.1382  0.2613  0.1201
 1223SOL    MW4 4939   0.033   3.464   2.356 -0.1460  0.3941  0.2313
 1224SOL     OW 4940   0.250   3.618   2.234  0.3264  0.4528 -0.7455
 1224SOL    HW2 4941   0.334   3.583   2.265 -0.6873 -1.0372  0.3775
 1224SOL    HW3 4942   0.184   3.563   2.277 -1.2086  1.1083 -2.2253
 1224SOL    MW4 4943   0.253   3.606   2.244 -0.0099  0.3426 -0.7923
 1225SOL     OW 4944   0.239   3.872   2.349  0.7478  0.1529 -0.3698
 1225SOL    HW2 4945   0.151   3.902   2.327  1.3089  0.1279 -2.7501
 1225SOL    HW3 4946   0.251   3.793   2.297  0.9942 -1.7075  2.4006
 1225SOL    MW4 4947   0.229   3.866   2.339  0.8543 -0.0961 -0.3183
 1226SOL     OW 4948   4.487   3.971   2.284  0.0441  0.1560 -0.2427
 1226SOL    HW2 4949   4.500   4.063   2.304  1.3226  0.4007 -2.0460
 1226SOL    HW3 4950   4.494   3.966   2.189  0.0410 -1.8138 -0.1600
 1226SOL    MW4 4951   4.490   3.982   2.274  0.2122 -0.0715 -0.4697
 1227SOL     OW 4952   0.001   4.257   2.335 -0.3849 -0.1884 -0.3805
 1227SOL    HW2 4953  -0.014   4.253   2.429 -2.8777  1.4454 -0.6674
 1227SOL    HW3 4954   0.068   4.326   2.324  0.8644 -1.2844  0.2643
 1227SOL    MW4 4955   0.008   4.266   2.346 -0.5490 -0.1173 -0.3333
 1228SOL     OW 4956   0.228   4.408   2.273 -0.4868  0.1325 -0.1003
 1228SOL    HW2 4957   0.300   4.356   2.308 -0.1432  0.9610  0.4414
 1228SOL    HW3 4958   0.242   4.495   2.309 -0.6684  0.7687 -1.5438
 1228SOL    MW4 4959   0.239   4.413   2.282 -0.4654  0.3262 -0.2191
 1229SOL     OW 4960   0.675   4.636   2.388  0.6903  0.0786 -0.1835
 1229SOL    HW2 4961   0.680   4.632   2.484 -1.3175  0.4710 -0.0409
 1229SOL    HW3 4962   0.758   4.676   2.362  0.9513  0.6821  1.4553
 1229SOL    MW4 4963   0.687   4.641   2.397  0.4598  0.2098  0.0517
 1230SOL     OW 4964   0.471   0.164   2.278 -0.3803 -0.2211  0.1917
 1230SOL    HW2 4965   0.539   0.106   2.313 -0.1897 -0.2438 -0.1986
 1230SOL    HW3 4966   0.483   0.158   2.183  1.5806  2.7277  0.1973
 1230SOL    MW4 4967   0.482   0.155   2.270 -0.0965  0.1649  0.1409
 1231SOL     OW 4968   0.466   0.435   2.373  0.4205 -0.6867 -0.0530
 1231SOL    HW2 4969   0.478   0.424   2.467  2.9737 -0.7455 -0.3437
 1231SOL    HW3 4970   0.466   0.345   2.339  0.4958 -0.6297 -0.2050
 1231SOL    MW4 4971   0.468   0.421   2.381  0.7673 -0.6869 -0.1116
 1232SOL     OW 4972   0.699   0.537   2.266  0.5708  0.2836  0.4803
 1232SOL    HW2 4973   0.723   0.625   2.296  1.1237  0.0110  0.8441
 1232SOL    HW3 4974   0.617   0.519   2.312  0.1616  0.8296 -0.0248
 1232SOL    MW4 4975   0.691   0.546   2.276  0.5898  0.3197  0.4616
 1233SOL     OW 4976   0.696   0.794   2.373  0.1091 -0.4285  0.3963
 1233SOL    HW2 4977   0.683   0.794   2.467 -1.3465  0.5788  0.2144
 1233SOL    HW3 4978   0.613   0.825   2.337  0.4877 -1.2119 -1.2400
 1233SOL    MW4 4979   0.683   0.798   2.380 -0.0330 -0.3991  0.1566
 1234SOL     OW 4980   0.470   0.915   2.252  0.1192 -0.2256 -0.6350
 1234SOL    HW2 4981   0.394   0.875   2.293  0.5258 -1.3177 -0.9316
 1234SOL    HW3 4982   0.459   0.899   2.158  1.0866 -1.0459 -0.6174
 1234SOL    MW4 4983   0.459   0.908   2.245  0.3005 -0.4780 -0.6719
 1235SOL     OW 4984   0.490   1.172   2.349 -0.1446 -0.1819  0.0906
 1235SOL    HW2 4985   0.488   1.083   2.313  0.5388 -0.6178  1.0989
 1235SOL    HW3 4986   0.399   1.201   2.347 -0.0496  0.0385 -2.5160
 1235SOL    MW4 4987   0.478   1.164   2.344 -0.0418 -0.2104 -0.1204
 1236SOL     OW 4988   0.677   1.339   2.226 -0.5126  0.2159  0.1130
 1236SOL    HW2 4989   0.671   1.427   2.263 -0.5977  0.3612 -0.2399
 1236SOL    HW3 4990   0.612   1.288   2.273 -0.0961  0.2095  0.6887
 1236SOL    MW4 4991   0.668   1.344   2.237 -0.4688  0.2341  0.1419
 1237SOL     OW 4992   0.681   1.581   2.385  0.6465 -0.7002  0.3320
 1237SOL    HW2 4993   0.684   1.570   2.480  0.5518  2.7183  0.8067
 1237SOL    HW3 4994   0.765   1.620   2.362  0.0366  0.0374 -0.7259
 1237SOL    MW4 4995   0.692   1.585   2.394  0.5535 -0.1518  0.2551
 1238SOL     OW 4996   0.433   1.658   2.304 -0.9478 -0.7856  0.3271
 1238SOL    HW2 4997   0.516   1.631   2.344 -0.8459 -1.0300 -0.0461
 1238SOL    HW3 4998   0.370   1.593   2.336 -0.7355 -1.3712 -0.4355
 1238SOL    MW4 4999   0.436   1.646   2.314 -0.9064 -0.8951  0.1771
 1239SOL     OW 5000   0.456   1.919   2.364 -0.1105  0.2294 -0.2379
 1239SOL    HW2 5001   0.533   1.959   2.325 -1.0409  1.7782 -0.5339
 1239SOL    HW3 5002   0.454   1.830   2.328  0.5536  0.7516 -1.5747
 1239SOL    MW4 5003   0.466   1.913   2.354 -0.1456  0.5026 -0.4535
 1240SOL     OW 5004   0.655   2.053   2.244 -0.1953  0.3588 -0.1320
 1240SOL    HW2 5005   0.744   2.038   2.274 -0.0926  1.9458  0.4197
 1240SOL    HW3 5006   0.631   2.138   2.281 -2.1046 -0.2543  0.1097
 1240SOL    MW4 5007   0.664   2.062   2.253 -0.4337  0.4873 -0.0269
 1241SOL     OW 5008   0.652   2.330   2.375 -0.7482 -0.0575 -0.4949
 1241SOL    HW2 5009   0.664   2.336   2.470  2.2615 -1.8112 -0.7166
 1241SOL    HW3 5010   0.736   2.357   2.338 -1.7525  0.1856 -2.6865
 1241SOL    MW4 5011   0.665   2.335   2.383 -0.4836 -0.2568 -0.8132
 1242SOL     OW 5012   0.430   2.437   2.218 -0.3357  0.5078 -0.0401
 1242SOL    HW2 5013   0.500   2.397   2.270 -0.9975 -1.3660 -0.5499
 1242SOL    HW3 5014   0.350   2.397   2.252 -1.0592  1.7312 -0.2851
 1242SOL    MW4 5015   0.429   2.426   2.230 -0.5184  0.4222 -0.1402
 1243SOL     OW 5016   0.472   2.702   2.365  0.4483  0.0224  0.4143
 1243SOL    HW2 5017   0.472   2.677   2.457 -2.3874 -1.2928  0.0906
 1243SOL    HW3 5018   0.479   2.619   2.318  0.4289  0.5862 -0.5931
 1243SOL    MW4 5019   0.473   2.688   2.371  0.0716 -0.0768  0.2387
 1244SOL     OW 5020   0.710   2.820   2.265  0.3941 -0.1250  0.3199
 1244SOL    HW2 5021   0.776   2.751   2.278 -0.2008 -1.5552 -3.6175
 1244SOL    HW3 5022   0.635   2.790   2.316  0.8674 -1.3013  0.3492
 1244SOL    MW4 5023   0.709   2.807   2.274  0.3781 -0.4687 -0.1957
 1245SOL     OW 5024   0.715   3.072   2.355 -0.1506  0.3180 -0.1853
 1245SOL    HW2 5025   0.633   3.112   2.327  0.3512  0.8544 -0.9040
 1245SOL    HW3 5026   0.714   2.985   2.316 -1.3058 -0.4595  1.4907
 1245SOL    MW4 5027   0.704   3.066   2.347 -0.2367  0.2861 -0.0589
 1246SOL     OW 5028   0.512   3.230   2.234 -0.2992  0.1294  0.0907
 1246SOL    HW2 5029   0.432   3.199   2.276  0.6324 -1.3402  0.8164
 1246SOL    HW3 5030   0.503   3.205   2.143 -0.6567 -0.0458  0.1743
 1246SOL    MW4 5031   0.500   3.223   2.228 -0.2235 -0.0877  0.1974
 1247SOL     OW 5032   0.490   3.488   2.350 -0.0744  0.1633 -0.5340
 1247SOL    HW2 5033   0.568   3.544   2.341  0.5152 -0.3932  1.0466
 1247SOL    HW3 5034   0.508   3.413   2.293  0.5736  0.0129 -0.1415
 1247SOL    MW4 5035   0.503   3.486   2.341  0.0889  0.0699 -0.2739
 1248SOL     OW 5036   0.726   3.650   2.328 -0.1284  0.0430 -0.4314
 1248SOL    HW2 5037   0.726   3.740   2.362  0.1378  0.2370 -0.9373
 1248SOL    HW3 5038   0.709   3.660   2.234  0.9541 -0.3502 -0.6849
 1248SOL    MW4 5039   0.724   3.663   2.320  0.0495  0.0167 -0.5317
 1249SOL     OW 5040   0.693   3.934   2.404 -0.3835  0.5246  0.2505
 1249SOL    HW2 5041   0.668   3.932   2.497  0.2206 -0.5804  0.3960
 1249SOL    HW3 5042   0.610   3.942   2.357 -0.7949 -0.2572  0.8308
 1249SOL    MW4 5043   0.679   3.935   2.410 -0.3580  0.2759  0.3464
 1250SOL     OW 5044   0.468   4.032   2.290 -0.1713 -0.3069 -0.5563
 1250SOL    HW2 5045   0.384   3.991   2.312 -0.8049  0.0206 -2.3558
 1250SOL    HW3 5046   0.472   4.031   2.195  1.5816  0.2832 -0.5105
 1250SOL    MW4 5047   0.457   4.027   2.281 -0.0236 -0.1855 -0.7873
 1251SOL     OW 5048   0.463   4.308   2.380 -0.0730  0.3681  0.5275
 1251SOL    HW2 5049   0.532   4.344   2.324 -0.1822 -1.4033 -0.7958
 1251SOL    HW3 5050   0.465   4.214   2.363 -2.2662  0.1955  1.0860
 1251SOL    MW4 5051   0.472   4.301   2.370 -0.3768  0.1116  0.4268
 1252SOL     OW 5052   0.688   4.414   2.241  0.1946  0.0083 -0.3944
 1252SOL    HW2 5053   0.665   4.502   2.269 -0.4531 -0.2905  0.0415
 1252SOL    HW3 5054   0.697   4.420   2.146  1.0039  0.7253 -0.2759
 1252SOL    MW4 5055   0.686   4.426   2.232  0.2159  0.0639 -0.3211
 1253SOL     OW 5056   1.163   4.665   2.370  0.0024  0.8897 -0.4054
 1253SOL    HW2 5057   1.158   4.661   2.465  0.7494  1.3664 -0.3362
 1253SOL    HW3 5058   1.078   4.700   2.342 -0.7122 -0.5202 -0.0124
 1253SOL    MW4 5059   1.151   4.669   2.379  0.0067  0.7665 -0.3448
 1254SOL     OW 5060   0.918   0.084   2.281  0.7562 -0.4301 -0.4273
 1254SOL    HW2 5061   0.918   0.178   2.295 -0.8949 -0.6833  1.6397
 1254SOL    HW3 5062   0.927   0.073   2.186  2.0360  1.7486 -0.5776
 1254SOL    MW4 5063   0.919   0.095   2.270  0.7071 -0.1761 -0.1745
 1255SOL     OW 5064   0.928   0.353   2.346 -0.1509 -0.1140  0.1292
 1255SOL    HW2 5065   0.993   0.423   2.332  0.2916 -0.5817 -0.1677
 1255SOL    HW3 5066   0.845   0.394   2.322  0.0071  0.5360  0.6534
 1255SOL    MW4 5067   0.925   0.368   2.341 -0.0716 -0.0899  0.1593
 1256SOL     OW 5068   1.163   0.517   2.316 -0.7336 -0.3540 -0.0905
 1256SOL    HW2 5069   1.241   0.465   2.335 -0.9997 -0.5577  0.4563
 1256SOL    HW3 5070   1.163   0.527   2.221 -0.4119 -0.9300 -0.1511
 1256SOL    MW4 5071   1.173   0.512   2.306 -0.7262 -0.4568 -0.0265
 1257SOL     OW 5072   1.167   0.783   2.378 -0.1292 -0.6023 -0.5131
 1257SOL    HW2 5073   1.080   0.818   2.363 -0.5448 -0.9305  1.0116
 1257SOL    HW3 5074   1.156   0.688   2.375  0.0186 -0.6600  0.3851
 1257SOL    MW4 5075   1.154   0.775   2.376 -0.1645 -0.6532 -0.1936
 1258SOL     OW 5076   0.923   0.935   2.304 -0.1679 -0.2728 -0.3712
 1258SOL    HW2 5077   0.897   1.019   2.342 -0.5841 -0.3400 -0.5059
 1258SOL    HW3 5078   0.845   0.880   2.312  1.0327 -1.6739  2.6696
 1258SOL    MW4 5079   0.909   0.939   2.310 -0.0644 -0.4665  0.0126
 1259SOL     OW 5080   0.847   1.194   2.386 -0.3490 -0.3673 -0.5646
 1259SOL    HW2 5081   0.928   1.215   2.339 -0.6142  1.6433 -0.1808
 1259SOL    HW3 5082   0.778   1.236   2.335 -0.7437  1.0371  1.0776
 1259SOL    MW4 5083   0.849   1.202   2.373 -0.4360  0.0832 -0.2971
 1260SOL     OW 5084   1.095   1.240   2.238  0.0818 -0.2011 -0.6886
 1260SOL    HW2 5085   1.171   1.203   2.284 -0.1280 -0.2935 -0.4088
 1260SOL    HW3 5086   1.122   1.247   2.147  0.4638 -0.1309 -0.5688
 1260SOL    MW4 5087   1.108   1.236   2.232  0.1045 -0.2040 -0.6356
 1261SOL     OW 5088   1.123   1.490   2.357  0.3918 -0.1093  0.2566
 1261SOL    HW2 5089   1.053   1.540   2.316  0.2214 -0.9881 -0.5650
 1261SOL    HW3 5090   1.117   1.403   2.317  2.4009 -0.0020 -0.3678
 1261SOL    MW4 5091   1.113   1.485   2.346  0.6344 -0.2110  0.0656
 1262SOL     OW 5092   0.920   1.679   2.292 -0.5306  0.2317  0.0370
 1262SOL    HW2 5093   0.904   1.765   2.330  0.9864  0.7119 -0.3463
 1262SOL    HW3 5094   0.922   1.695   2.197  1.7325  0.1762  0.0311
 1262SOL    MW4 5095   0.918   1.692   2.284 -0.0318  0.2878 -0.0143
 1263SOL     OW 5096   0.875   1.957   2.380  0.1847  0.0403 -1.0586
 1263SOL    HW2 5097   0.866   1.932   2.472  0.0621  1.4788 -0.6610
 1263SOL    HW3 5098   0.966   1.985   2.372 -0.0668  0.8723 -1.1095
 1263SOL    MW4 5099   0.886   1.958   2.391  0.1353  0.3400 -1.0130
 1264SOL     OW 5100   1.124   2.076   2.321  0.2734  0.5614  0.1104
 1264SOL    HW2 5101   1.192   2.015   2.348 -0.1332  0.2879  0.5026
 1264SOL    HW3 5102   1.121   2.068   2.225  0.3224  0.0897  0.1513
 1264SOL    MW4 5103   1.133   2.067   2.312  0.2261  0.4632  0.1676
 1265SOL     OW 5104   1.136   2.341   2.369 -0.2072 -0.0792 -0.1771
 1265SOL    HW2 5105   1.215   2.387   2.340 -0.3382  0.7636  0.7742
 1265SOL    HW3 5106   1.151   2.250   2.344  1.3794 -0.0556  0.6522
 1265SOL    MW4 5107   1.149   2.335   2.362 -0.0150  0.0353  0.0579
 1266SOL     OW 5108   0.895   2.389   2.264  0.0704  0.1237  0.2671
 1266SOL    HW2 5109   0.984   2.369   2.292  0.2299  0.7692  0.2292
 1266SOL    HW3 5110   0.901   2.399   2.169 -0.3499 -1.4240  0.0574
 1266SOL    MW4 5111   0.907   2.388   2.255  0.0360  0.0045  0.2344
 1267SOL     OW 5112   0.919   2.661   2.338  0.1278  0.2243  0.0517
 1267SOL    HW2 5113   0.915   2.667   2.433 -1.7574  0.7106 -0.0440
 1267SOL    HW3 5114   0.921   2.566   2.320  1.6211  0.1368  0.5848
 1267SOL    MW4 5115   0.919   2.649   2.348  0.0761  0.2770  0.1094
 1268SOL     OW 5116   1.125   2.835   2.275  0.1473 -0.0408 -0.1170
 1268SOL    HW2 5117   1.205   2.790   2.300 -0.1441 -0.7899 -0.5233
 1268SOL    HW3 5118   1.054   2.773   2.293 -0.4929  1.1466  1.6111
 1268SOL    MW4 5119   1.126   2.821   2.281  0.0244  0.0167  0.0572
 1269SOL     OW 5120   1.127   3.088   2.372  0.6698 -0.2747  0.0149
 1269SOL    HW2 5121   1.055   3.139   2.333 -0.3997 -0.3780  1.8034
 1269SOL    HW3 5122   1.117   3.001   2.334  0.0598 -0.1989 -0.0149
 1269SOL    MW4 5123   1.116   3.084   2.362  0.4482 -0.2782  0.2465
 1270SOL     OW 5124   0.944   3.239   2.250  0.1414 -0.4795  0.8349
 1270SOL    HW2 5125   0.944   3.321   2.300 -0.4514  1.2344 -1.8945
 1270SOL    HW3 5126   0.866   3.193   2.281  0.4766 -0.0303  2.4011
 1270SOL    MW4 5127   0.934   3.244   2.261  0.1074 -0.1941  0.6814
 1271SOL     OW 5128   0.917   3.476   2.385  0.0152  0.2307 -0.1348
 1271SOL    HW2 5129   0.909   3.459   2.479  0.1221 -1.8813 -0.4698
 1271SOL    HW3 5130   0.858   3.548   2.367 -0.0146  0.6295  1.5608
 1271SOL    MW4 5131   0.908   3.483   2.395  0.0254  0.0048  0.0446
 1272SOL     OW 5132   1.154   3.608   2.277  0.4725  0.5983  0.5707
 1272SOL    HW2 5133   1.225   3.560   2.320  0.3994 -0.5565 -0.6034
 1272SOL    HW3 5134   1.075   3.557   2.295  0.4747 -0.0417 -1.1511
 1272SOL    MW4 5135   1.153   3.595   2.285  0.4632  0.3614  0.1888
 1273SOL     OW 5136   1.111   3.884   2.318 -0.2093  0.1259 -0.0108
 1273SOL    HW2 5137   1.197   3.926   2.312 -0.2366  0.2021  0.1186
 1273SOL    HW3 5138   1.128   3.791   2.306 -0.0530  0.0947  0.4607
 1273SOL    MW4 5139   1.124   3.878   2.316 -0.1922  0.1318  0.0684
 1274SOL     OW 5140   0.900   4.041   2.241  0.2517  0.2258 -0.4097
 1274SOL    HW2 5141   0.972   3.980   2.259  0.2289 -0.1036 -1.3745
 1274SOL    HW3 5142   0.826   4.006   2.290  0.1672 -0.6912 -1.1611
 1274SOL    MW4 5143   0.900   4.028   2.249  0.2375  0.0615 -0.6359
 1275SOL     OW 5144   0.923   4.305   2.352 -0.3911 -0.2223  0.0371
 1275SOL    HW2 5145   0.917   4.215   2.320 -2.0050 -0.3755  0.7113
 1275SOL    HW3 5146   0.839   4.345   2.328  1.1463  1.7775 -2.2095
 1275SOL    MW4 5147   0.911   4.298   2.345 -0.4013  0.0215 -0.1702
 1276SOL     OW 5148   1.177   4.425   2.250  0.0940 -0.4982  0.0712
 1276SOL    HW2 5149   1.101   4.381   2.289  0.9176 -2.6759 -0.6917
 1276SOL    HW3 5150   1.172   4.515   2.283 -2.2053 -0.8829  0.8884
 1276SOL    MW4 5151   1.166   4.431   2.260 -0.1007 -0.8359  0.0782
 1277SOL     OW 5152   1.590   0.004   2.399 -0.0589 -0.1101 -0.0619
 1277SOL    HW2 5153   1.670   0.022   2.350 -0.9936  1.0160 -1.1897
 1277SOL    HW3 5154   1.521   0.046   2.349 -1.7174 -3.1213 -0.4309
 1277SOL    MW4 5155   1.591   0.012   2.386 -0.4010 -0.3588 -0.2594
 1278SOL     OW 5156   1.394   0.122   2.250  0.1205  0.4094  0.2739
 1278SOL    HW2 5157   1.407   0.216   2.265  1.5499  0.3186 -0.3338
 1278SOL    HW3 5158   1.309   0.103   2.291 -0.8191  2.2437 -0.7223
 1278SOL    MW4 5159   1.384   0.132   2.257  0.1853  0.6395  0.0625
 1279SOL     OW 5160   1.386   0.380   2.357  0.1832 -0.4421  0.2000
 1279SOL    HW2 5161   1.372   0.368   2.451 -0.2124  0.0382  0.2019
 1279SOL    HW3 5162   1.463   0.436   2.351 -0.1148 -0.0328  0.2411
 1279SOL    MW4 5163   1.394   0.386   2.369  0.0917 -0.3247  0.2058
 1280SOL     OW 5164   1.614   0.525   2.288  0.1537  0.9916 -0.0231
 1280SOL    HW2 5165   1.673   0.450   2.291  0.5713  1.3494  0.7013
 1280SOL    HW3 5166   1.596   0.536   2.194 -0.3648 -0.3537 -0.0972
 1280SOL    MW4 5167   1.620   0.516   2.276  0.1404  0.8613  0.0625
 1281SOL     OW 5168   1.593   0.772   2.403 -0.6155  0.3046 -0.0709
 1281SOL    HW2 5169   1.671   0.821   2.375 -1.1290  0.3850 -1.3970
 1281SOL    HW3 5170   1.611   0.682   2.376 -0.2223 -0.0264  1.2342
 1281SOL    MW4 5171   1.606   0.767   2.396 -0.6315  0.2716 -0.0739
 1282SOL     OW 5172   1.400   0.922   2.279 -0.0368  0.0569  0.4383
 1282SOL    HW2 5173   1.472   0.871   2.316  0.6804  1.3924  0.8999
 1282SOL    HW3 5174   1.321   0.871   2.300  0.8265 -1.8833 -0.8636
 1282SOL    MW4 5175   1.399   0.908   2.286  0.1717 -0.0229  0.3278
 1283SOL     OW 5176   1.340   1.169   2.399 -0.4254  0.3048  0.2914
 1283SOL    HW2 5177   1.327   1.169   2.494  0.0651  0.6583  0.3589
 1283SOL    HW3 5178   1.365   1.079   2.379 -2.3774 -0.2541  0.2332
 1283SOL    MW4 5179   1.341   1.157   2.409 -0.6182  0.2776  0.2925
 1284SOL     OW 5180   1.575   1.297   2.324  0.0499  0.1154  0.1692
 1284SOL    HW2 5181   1.501   1.254   2.367  0.3523  0.3765  0.9422
 1284SOL    HW3 5182   1.558   1.283   2.230 -1.2936  0.6798  0.3125
 1284SOL    MW4 5183   1.563   1.289   2.317 -0.0874  0.2242  0.2902
 1285SOL     OW 5184   1.568   1.560   2.406  0.2719 -0.9623  0.0930
 1285SOL    HW2 5185   1.655   1.595   2.389 -0.4035  0.1909 -1.0491
 1285SOL    HW3 5186   1.572   1.469   2.376  0.9122 -0.7424 -0.4892
 1285SOL    MW4 5187   1.580   1.553   2.400  0.2671 -0.7811 -0.1345
 1286SOL     OW 5188   1.325   1.640   2.269  0.2788  0.0139 -0.1561
 1286SOL    HW2 5189   1.405   1.622   2.320  0.7185 -0.6477 -1.0618
 1286SOL    HW3 5190   1.259   1.583   2.308  0.1931  0.6789  0.7030
 1286SOL    MW4 5191   1.327   1.630   2.281  0.3254  0.0143 -0.1621
 1287SOL     OW 5192   1.321   1.894   2.392 -0.5568 -0.4242  0.3101
 1287SOL    HW2 5193   1.406   1.929   2.365 -0.1275 -0.6666  1.3312
 1287SOL    HW3 5194   1.313   1.812   2.343 -1.1997  0.6728 -1.4589
 1287SOL    MW4 5195   1.331   1.888   2.382 -0.5851 -0.3115  0.2115
 1288SOL     OW 5196   1.553   2.024   2.309 -0.6009 -0.0797 -0.0066
 1288SOL    HW2 5197   1.640   1.992   2.332 -1.0953 -1.3965  0.0276
 1288SOL    HW3 5198   1.562   2.054   2.219  0.4681  1.9542  0.7227
 1288SOL    MW4 5199   1.566   2.024   2.300 -0.5251  0.0150  0.0942
 1289SOL     OW 5200   1.565   2.286   2.342 -0.2050 -0.2818 -0.1191
 1289SOL    HW2 5201   1.548   2.311   2.433 -2.7529  0.5452 -0.7639
 1289SOL    HW3 5202   1.561   2.190   2.342 -0.8394 -0.2633  0.5462
 1289SOL    MW4 5203   1.562   2.277   2.354 -0.6250 -0.1702 -0.1166
 1290SOL     OW 5204   1.339   2.499   1.977  0.0751  0.2173 -0.4858
 1290SOL    HW2 5205   1.356   2.503   2.071 -0.3188 -1.5038 -0.3251
 1290SOL    HW3 5206   1.416   2.455   1.941 -0.7658 -1.1489 -0.6624
 1290SOL    MW4 5207   1.352   2.494   1.985 -0.0877 -0.1898 -0.4878
 1291SOL     OW 5208   1.355   2.455   2.244 -0.3196  0.4171  0.5362
 1291SOL    HW2 5209   1.367   2.535   2.296  0.1731  0.8892 -0.2880
 1291SOL    HW3 5210   1.430   2.400   2.267 -0.4141  0.3825  0.7619
 1291SOL    MW4 5211   1.366   2.458   2.254 -0.2671  0.4749  0.4573
 1292SOL     OW 5212   1.584   2.818   2.290  0.3330 -0.0448  0.3321
 1292SOL    HW2 5213   1.577   2.908   2.322 -2.3416 -0.1691  0.2023
 1292SOL    HW3 5214   1.581   2.826   2.195  0.9935 -0.2166  0.2944
 1292SOL    MW4 5215   1.583   2.831   2.282  0.0672 -0.0834  0.3099
 1293SOL     OW 5216   1.614   3.072   2.391  0.6573  0.3303 -0.0443
 1293SOL    HW2 5217   1.638   3.108   2.476 -1.3977  2.8981 -0.4809
 1293SOL    HW3 5218   1.524   3.102   2.377  0.7239 -0.6181 -2.8192
 1293SOL    MW4 5219   1.605   3.080   2.400  0.3948  0.5438 -0.4678
 1294SOL     OW 5220   1.374   3.202   2.294 -0.5572 -0.0121  0.3977
 1294SOL    HW2 5221   1.298   3.152   2.324 -1.1719 -0.1298 -1.3286
 1294SOL    HW3 5222   1.348   3.236   2.208  1.8488 -1.2426 -0.8644
 1294SOL    MW4 5223   1.360   3.199   2.287 -0.3208 -0.1900  0.0036
 1295SOL     OW 5224   1.379   3.464   2.384  0.0654  0.7770 -0.1105
 1295SOL    HW2 5225   1.357   3.464   2.477 -0.4164  1.2530 -0.2179
 1295SOL    HW3 5226   1.368   3.373   2.356  1.5664  0.3602  0.5994
 1295SOL    MW4 5227   1.375   3.452   2.393  0.1999  0.7846 -0.0308
 1296SOL     OW 5228   1.604   3.583   2.275 -0.0626  0.2759  0.0150
 1296SOL    HW2 5229   1.590   3.673   2.304  0.6429  1.2937 -2.6094
 1296SOL    HW3 5230   1.530   3.535   2.312 -0.9349  2.0991  0.7456
 1296SOL    MW4 5231   1.592   3.589   2.284 -0.0846  0.6506 -0.2346
 1297SOL     OW 5232   1.562   3.846   2.344  0.1553 -0.0457  0.5727
 1297SOL    HW2 5233   1.548   3.866   2.436  0.0346  1.6530  0.2102
 1297SOL    HW3 5234   1.643   3.893   2.322 -0.8037  1.0817 -0.6281
 1297SOL    MW4 5235   1.571   3.855   2.353  0.0130  0.3271  0.3664
 1298SOL     OW 5236   1.355   4.009   2.272  0.0012  0.5321 -0.0052
 1298SOL    HW2 5237   1.424   3.949   2.299 -0.3190 -0.0293 -0.4335
 1298SOL    HW3 5238   1.363   4.014   2.177 -0.7652  0.2015 -0.0914
 1298SOL    MW4 5239   1.365   4.002   2.263 -0.1422  0.4144 -0.0732
 1299SOL     OW 5240   1.363   4.264   2.362  0.6558  0.5776  0.6636
 1299SOL    HW2 5241   1.348   4.180   2.319  1.1539 -0.2657  2.1137
 1299SOL    HW3 5242   1.293   4.321   2.329 -0.6220 -0.8446  0.8460
 1299SOL    MW4 5243   1.352   4.261   2.352  0.5529  0.2794  0.8788
 1300SOL     OW 5244   1.599   4.413   2.320  0.1278  0.0989  0.1882
 1300SOL    HW2 5245   1.518   4.372   2.351  0.5623 -0.6815  0.3022
 1300SOL    HW3 5246   1.595   4.503   2.353 -0.0039 -0.3605  1.4167
 1300SOL    MW4 5247   1.588   4.420   2.328  0.1676 -0.0648  0.3653
 1301SOL     OW 5248   2.035   4.604   2.450  0.3931  0.5706  0.7425
 1301SOL    HW2 5249   2.103   4.647   2.399  3.2714 -1.8872  2.3610
 1301SOL    HW3 5250   2.036   4.513   2.421 -2.2350  0.4858  0.8055
 1301SOL    MW4 5251   2.044   4.598   2.440  0.4261  0.2351  0.9644
 1302SOL     OW 5252   1.837   0.076   2.285  0.4583  0.2063  0.3604
 1302SOL    HW2 5253   1.857   0.169   2.299  0.1923  0.2171  0.6777
 1302SOL    HW3 5254   1.881   0.031   2.357 -0.4209  0.2039  0.9053
 1302SOL    MW4 5255   1.846   0.083   2.297  0.3073  0.2074  0.4740
 1303SOL     OW 5256   1.814   0.342   2.333 -0.3165  0.2163 -0.1880
 1303SOL    HW2 5257   1.804   0.350   2.428  0.7366 -0.1235 -0.0385
 1303SOL    HW3 5258   1.889   0.398   2.312  0.6115 -1.1219 -0.5543
 1303SOL    MW4 5259   1.822   0.351   2.343 -0.0551 -0.0050 -0.2165
 1304SOL     OW 5260   2.032   0.504   2.271 -0.2805 -0.6840  0.1311
 1304SOL    HW2 5261   2.040   0.592   2.307 -0.1859 -1.3948  1.9101
 1304SOL    HW3 5262   2.055   0.513   2.178  0.2018  1.0672  0.4113
 1304SOL    MW4 5263   2.036   0.516   2.263 -0.2046 -0.5468  0.4029
 1305SOL     OW 5264   2.029   0.774   2.374 -0.1584  0.6468 -0.1495
 1305SOL    HW2 5265   2.100   0.823   2.331 -0.7985  2.5255  0.8908
 1305SOL    HW3 5266   1.949   0.817   2.344 -0.7432  0.1300  0.6666
 1305SOL    MW4 5267   2.028   0.787   2.364 -0.3200  0.8265  0.0954
 1306SOL     OW 5268   1.793   0.891   2.277  0.3994  0.0199 -0.4382
 1306SOL    HW2 5269   1.793   0.979   2.314  0.8573  0.9548 -2.5796
 1306SOL    HW3 5270   1.808   0.904   2.184  0.9295 -2.3614 -0.7283
 1306SOL    MW4 5271   1.795   0.904   2.270  0.5298 -0.1709 -0.7589
 1307SOL     OW 5272   1.819   1.123   2.425 -0.0595 -0.7091  0.1829
 1307SOL    HW2 5273   1.897   1.171   2.397  0.7767 -0.1423  3.3088
 1307SOL    HW3 5274   1.746   1.180   2.399  0.7185  0.3049  0.1690
 1307SOL    MW4 5275   1.820   1.137   2.418  0.1535 -0.5004  0.5937
 1308SOL     OW 5276   2.040   1.297   2.316  0.3422  0.3481 -0.4908
 1308SOL    HW2 5277   2.029   1.386   2.351 -0.4097 -0.0356  0.2600
 1308SOL    HW3 5278   2.051   1.310   2.221 -0.4392  1.1879 -0.4713
 1308SOL    MW4 5279   2.040   1.311   2.308  0.1400  0.4083 -0.3891
 1309SOL     OW 5280   2.034   1.527   2.449 -0.3851  0.2060 -0.4255
 1309SOL    HW2 5281   2.026   1.550   2.541  0.7829  1.9550 -0.7485
 1309SOL    HW3 5282   1.965   1.577   2.406  0.3187  0.9058 -0.7509
 1309SOL    MW4 5283   2.024   1.537   2.455 -0.1378  0.5289 -0.5112
 1310SOL     OW 5284   1.829   1.662   2.353 -0.1701  0.7090 -0.1012
 1310SOL    HW2 5285   1.834   1.756   2.372 -0.7265  0.9345 -0.9923
 1310SOL    HW3 5286   1.815   1.659   2.258 -0.1019 -0.2774 -0.0771
 1310SOL    MW4 5287   1.827   1.674   2.343 -0.2345  0.6086 -0.2155
 1311SOL     OW 5288   1.831   1.937   2.410 -0.4606 -0.2996  0.1267
 1311SOL    HW2 5289   1.812   1.960   2.501  0.7855 -1.9658  0.8383
 1311SOL    HW3 5290   1.902   1.995   2.384 -0.7465  0.1074  0.2599
 1311SOL    MW4 5291   1.838   1.947   2.419 -0.3338 -0.4659  0.2379
 1312SOL     OW 5292   2.041   2.097   2.325 -0.3123 -0.6987 -0.4540
 1312SOL    HW2 5293   2.124   2.050   2.334  0.2555  0.3602 -0.1658
 1312SOL    HW3 5294   2.034   2.116   2.231  0.6051  0.7101 -0.2521
 1312SOL    MW4 5295   2.051   2.093   2.314 -0.1163 -0.3734 -0.3893
 1313SOL     OW 5296   1.990   2.352   2.432 -0.4690 -0.0495  0.0109
 1313SOL    HW2 5297   2.064   2.398   2.391  0.9894 -1.3548  1.1161
 1313SOL    HW3 5298   2.006   2.259   2.414 -0.4022 -0.5655  2.5255
 1313SOL    MW4 5299   2.002   2.346   2.424 -0.2677 -0.2899  0.4883
 1314SOL     OW 5300   1.789   2.429   2.269  0.2071  0.0398  0.0032
 1314SOL    HW2 5301   1.863   2.393   2.318 -0.7469  1.4869  2.6068
 1314SOL    HW3 5302   1.716   2.369   2.288 -0.6352  1.6369  1.9283
 1314SOL    MW4 5303   1.789   2.416   2.278 -0.0299  0.4416  0.6006
 1315SOL     OW 5304   1.789   2.665   2.394 -0.3036  0.2645 -0.1198
 1315SOL    HW2 5305   1.768   2.589   2.341 -0.3117  0.8032 -0.9052
 1315SOL    HW3 5306   1.724   2.731   2.367  1.0995  1.2705 -1.0780
 1315SOL    MW4 5307   1.777   2.664   2.383 -0.1196  0.4683 -0.3500
 1316SOL     OW 5308   1.996   2.810   2.242 -0.1978 -0.3144  0.5352
 1316SOL    HW2 5309   2.078   2.781   2.283 -0.8324 -0.8769  1.4059
 1316SOL    HW3 5310   1.936   2.737   2.253 -0.1646 -0.8198 -2.1300
 1316SOL    MW4 5311   1.999   2.797   2.249 -0.2770 -0.4554  0.2985
 1317SOL     OW 5312   2.022   3.077   2.373 -0.0337 -0.0764 -0.5580
 1317SOL    HW2 5313   2.103   3.099   2.326 -0.3498 -1.1353 -1.6294
 1317SOL    HW3 5314   1.996   2.993   2.336 -2.3462  0.8953 -1.2258
 1317SOL    MW4 5315   2.030   3.069   2.362 -0.3808 -0.0880 -0.7873
 1318SOL     OW 5316   1.823   3.212   2.267 -0.0131 -0.2404 -0.2976
 1318SOL    HW2 5317   1.895   3.160   2.302 -0.3599 -1.0676 -0.8002
 1318SOL    HW3 5318   1.744   3.160   2.286 -0.3828  0.2158 -0.5707
 1318SOL    MW4 5319   1.822   3.198   2.274 -0.1075 -0.2892 -0.3998
 1319SOL     OW 5320   1.823   3.461   2.378  0.3113  0.6717 -0.0843
 1319SOL    HW2 5321   1.831   3.376   2.334  2.7129  1.3760 -1.0827
 1319SOL    HW3 5322   1.743   3.500   2.342  0.1421 -0.4153 -0.9083
 1319SOL    MW4 5323   1.814   3.455   2.368  0.6058  0.6211 -0.3247
 1320SOL     OW 5324   2.045   3.616   2.300  0.1033  0.8878  0.2618
 1320SOL    HW2 5325   1.972   3.560   2.328  0.5798 -0.0007 -0.2487
 1320SOL    HW3 5326   2.049   3.605   2.205  0.8500  0.9930  0.2754
 1320SOL    MW4 5327   2.036   3.607   2.291  0.2646  0.7844  0.1960
 1321SOL     OW 5328   2.052   3.879   2.387 -0.3636  0.0742  0.3821
 1321SOL    HW2 5329   2.030   3.876   2.480 -2.8492 -0.5051 -0.1734
 1321SOL    HW3 5330   2.056   3.787   2.361 -0.2818  0.2419 -0.1912
 1321SOL    MW4 5331   2.049   3.867   2.396 -0.6809  0.0200  0.2329
 1322SOL     OW 5332   1.810   3.996   2.310 -0.0654 -0.2213  0.2757
 1322SOL    HW2 5333   1.895   3.958   2.331  1.3311  2.2148 -0.6716
 1322SOL    HW3 5334   1.814   4.015   2.217 -1.3314  0.6498  0.3775
 1322SOL    MW4 5335   1.822   3.994   2.301 -0.0480  0.2151  0.1643
 1323SOL     OW 5336   1.799   4.266   2.398 -0.0465 -0.1472 -0.0978
 1323SOL    HW2 5337   1.794   4.174   2.370  1.7001 -0.3049 -0.0075
 1323SOL    HW3 5338   1.717   4.305   2.371 -0.3048 -1.4580 -1.2250
 1323SOL    MW4 5339   1.788   4.259   2.391  0.1498 -0.3414 -0.2348
 1324SOL     OW 5340   2.049   4.365   2.307  0.1313  0.2598  0.0975
 1324SOL    HW2 5341   1.969   4.317   2.327  0.9272 -0.5991  1.2575
 1324SOL    HW3 5342   2.044   4.381   2.212 -0.9975 -0.5274  0.0154
 1324SOL    MW4 5343   2.038   4.361   2.297  0.0875  0.0429  0.2398
 1325SOL     OW 5344   2.441   4.666   2.414 -0.4801  0.3826  0.1171
 1325SOL    HW2 5345   2.525   4.708   2.393  1.0510 -1.5341  2.0948
 1325SOL    HW3 5346   2.451   4.577   2.380 -1.3038 -0.1664  1.3146
 1325SOL    MW4 5347   2.454   4.660   2.407 -0.3867  0.0577  0.5360
 1326SOL     OW 5348   2.210   0.112   2.295 -0.0496 -0.0827 -0.1761
 1326SOL    HW2 5349   2.208   0.208   2.305 -1.8771  0.0629 -1.6693
 1326SOL    HW3 5350   2.294   0.086   2.332  0.7331  2.1802 -0.2750
 1326SOL    MW4 5351   2.221   0.121   2.301 -0.1874  0.2351 -0.3862
 1327SOL     OW 5352   2.275   0.383   2.352  0.4518 -0.5727  0.1424
 1327SOL    HW2 5353   2.282   0.377   2.447  1.2823 -1.5868  0.0229
 1327SOL    HW3 5354   2.189   0.422   2.337  0.2130 -0.6337  1.2946
 1327SOL    MW4 5355   2.265   0.387   2.363  0.5295 -0.7145  0.2787
 1328SOL     OW 5356   2.513   0.551   2.268 -0.2525 -0.0960  0.0874
 1328SOL    HW2 5357   2.454   0.481   2.295  0.3937 -0.9789 -0.7479
 1328SOL    HW3 5358   2.514   0.546   2.172 -0.5606  1.3566 -0.0113
 1328SOL    MW4 5359   2.505   0.541   2.259 -0.2079 -0.0208 -0.0358
 1329SOL     OW 5360   2.480   0.791   2.390  0.0551  0.3205  0.1554
 1329SOL    HW2 5361   2.561   0.840   2.372  0.5070  0.5576  2.6052
 1329SOL    HW3 5362   2.494   0.706   2.349  0.4504  1.2623 -1.7107
 1329SOL    MW4 5363   2.493   0.786   2.383  0.1669  0.4760  0.2325
 1330SOL     OW 5364   2.259   0.895   2.270 -0.3814  0.4572 -0.0059
 1330SOL    HW2 5365   2.251   0.978   2.317  0.9187 -0.4528  1.8698
 1330SOL    HW3 5366   2.339   0.856   2.304  0.3974 -0.4104 -2.7378
 1330SOL    MW4 5367   2.268   0.901   2.281 -0.1068  0.2226 -0.1190
 1331SOL     OW 5368   2.255   1.134   2.405  0.2290  0.1897 -0.1161
 1331SOL    HW2 5369   2.324   1.195   2.382 -0.3577  1.2931  1.0285
 1331SOL    HW3 5370   2.174   1.180   2.382 -0.2610  0.3265  1.8302
 1331SOL    MW4 5371   2.253   1.148   2.399  0.0870  0.3532  0.2916
 1332SOL     OW 5372   2.487   1.266   2.335  0.0114 -0.5977  0.0371
 1332SOL    HW2 5373   2.574   1.233   2.358  1.0016  0.5251 -1.8994
 1332SOL    HW3 5374   2.486   1.356   2.370  0.1714 -0.1386 -1.1010
 1332SOL    MW4 5375   2.499   1.274   2.343  0.1633 -0.3891 -0.3681
 1333SOL     OW 5376   2.496   1.529   2.381  0.2142 -0.0861 -0.3493
 1333SOL    HW2 5377   2.483   1.568   2.468 -0.4129 -0.4628 -0.2702
 1333SOL    HW3 5378   2.576   1.570   2.348 -0.0353  0.7208  0.0347
 1333SOL    MW4 5379   2.505   1.539   2.388  0.0985 -0.0293 -0.2885
 1334SOL     OW 5380   2.245   1.679   2.332 -0.4126  0.6500  0.0075
 1334SOL    HW2 5381   2.335   1.654   2.352  0.0752  1.5840 -0.8944
 1334SOL    HW3 5382   2.191   1.628   2.392  0.6436 -0.9311 -0.3596
 1334SOL    MW4 5383   2.250   1.669   2.342 -0.2091  0.5646 -0.1602
 1335SOL     OW 5384   2.246   1.946   2.427 -0.3955 -0.3401  0.0219
 1335SOL    HW2 5385   2.325   1.982   2.385 -1.3124  1.0960 -0.5039
 1335SOL    HW3 5386   2.237   1.859   2.389  1.7725 -1.1301  1.1908
 1335SOL    MW4 5387   2.255   1.939   2.417 -0.2303 -0.2549  0.1068
 1336SOL     OW 5388   2.466   2.038   2.293  0.1532 -0.1403 -0.3252
 1336SOL    HW2 5389   2.552   2.006   2.321  0.4690 -0.5411 -1.7003
 1336SOL    HW3 5390   2.469   2.033   2.197 -0.8834  1.2204 -0.4366
 1336SOL    MW4 5391   2.478   2.033   2.284  0.0579 -0.0138 -0.5212
 1337SOL     OW 5392   2.470   2.303   2.388  0.0264  0.0204  0.0157
 1337SOL    HW2 5393   2.531   2.364   2.346  0.2696 -0.4627 -0.3355
 1337SOL    HW3 5394   2.475   2.224   2.335 -1.1584  0.0962 -0.2077
 1337SOL    MW4 5395   2.479   2.301   2.376 -0.0980 -0.0334 -0.0601
 1338SOL     OW 5396   2.230   2.442   2.333 -0.4886  0.0229  0.1608
 1338SOL    HW2 5397   2.256   2.530   2.358  0.3689  0.3743 -1.9446
 1338SOL    HW3 5398   2.305   2.387   2.356 -0.7609 -0.0757  0.8404
 1338SOL    MW4 5399   2.243   2.446   2.340 -0.4110  0.0563 -0.0274
 1339SOL     OW 5400   2.236   2.711   2.378  0.1420  0.1377  0.5453
 1339SOL    HW2 5401   2.238   2.726   2.473  1.8304  0.6729  0.4453
 1339SOL    HW3 5402   2.310   2.761   2.344 -1.6984  1.6695 -1.3453
 1339SOL    MW4 5403   2.246   2.719   2.386  0.1221  0.4103  0.2825
 1340SOL     OW 5404   2.465   2.848   2.282  0.4149 -0.3275  0.0659
 1340SOL    HW2 5405   2.530   2.784   2.312  0.1553 -0.9409 -0.6583
 1340SOL    HW3 5406   2.472   2.846   2.187  0.3041  0.6298  0.0344
 1340SOL    MW4 5407   2.475   2.839   2.274  0.3660 -0.2820 -0.0336
 1341SOL     OW 5408   2.464   3.100   2.417  0.1461 -0.1150  0.2811
 1341SOL    HW2 5409   2.539   3.137   2.372  0.0701 -0.3797 -0.0582
 1341SOL    HW3 5410   2.443   3.020   2.369 -1.1440  0.6138 -0.3994
 1341SOL    MW4 5411   2.471   3.094   2.405 -0.0341 -0.0539  0.1464
 1342SOL     OW 5412   2.240   3.234   2.306  0.5627 -0.1127  0.0308
 1342SOL    HW2 5413   2.247   3.324   2.337 -0.0162 -0.7658  2.1009
 1342SOL    HW3 5414   2.316   3.190   2.343 -0.4374 -1.0397  0.9823
 1342SOL    MW4 5415   2.251   3.240   2.315  0.3543 -0.3211  0.4299
 1343SOL     OW 5416   2.284   3.490   2.395 -0.1256  0.2228 -0.3057
 1343SOL    HW2 5417   2.268   3.511   2.487  0.4401  2.2177 -0.6422
 1343SOL    HW3 5418   2.209   3.528   2.349 -0.1158 -0.2739 -0.7287
 1343SOL    MW4 5419   2.272   3.498   2.401 -0.0496  0.4206 -0.4058
 1344SOL     OW 5420   2.508   3.627   2.249  0.0041 -0.3001  0.1072
 1344SOL    HW2 5421   2.514   3.710   2.298  0.0443  0.4481 -1.1563
 1344SOL    HW3 5422   2.428   3.586   2.282 -0.7761  0.8972 -0.2731
 1344SOL    MW4 5423   2.499   3.633   2.260 -0.0935 -0.0436 -0.1094
 1345SOL     OW 5424   2.509   3.857   2.398  0.6075  0.2883 -0.3008
 1345SOL    HW2 5425   2.499   3.870   2.493  0.6939  0.5208 -0.3224
 1345SOL    HW3 5426   2.431   3.898   2.360  0.6129  0.2673 -0.3346
 1345SOL    MW4 5427   2.497   3.864   2.406  0.6199  0.3161 -0.3083
 1346SOL     OW 5428   2.297   4.011   2.286 -0.0072  0.3564  0.0852
 1346SOL    HW2 5429   2.288   4.093   2.334 -1.2720  0.2175  0.0827
 1346SOL    HW3 5430   2.223   3.958   2.313  1.4916 -1.2913  1.0588
 1346SOL    MW4 5431   2.286   4.015   2.296  0.0238  0.1206  0.2129
 1347SOL     OW 5432   2.274   4.245   2.430 -0.3058  0.0946 -0.5638
 1347SOL    HW2 5433   2.262   4.254   2.524 -0.7114  2.1730 -0.7966
 1347SOL    HW3 5434   2.197   4.286   2.391 -0.1385 -0.7324 -1.8036
 1347SOL    MW4 5435   2.262   4.252   2.437 -0.3371  0.2594 -0.7582
 1348SOL     OW 5436   2.467   4.406   2.309  0.1834  0.4254  0.2643
 1348SOL    HW2 5437   2.548   4.356   2.311  0.0192  0.1985  1.4890
 1348SOL    HW3 5438   2.400   4.345   2.341 -0.7118  0.1797 -2.0139
 1348SOL    MW4 5439   2.469   4.391   2.314  0.0436  0.3638  0.1254
 1349SOL     OW 5440   2.883   4.592   2.371  0.2509 -0.0182 -0.2861
 1349SOL    HW2 5441   2.964   4.641   2.353 -0.0824  1.0966  1.1831
 1349SOL    HW3 5442   2.904   4.502   2.344  1.4268  0.5799 -1.4590
 1349SOL    MW4 5443   2.897   4.586   2.365  0.3622  0.2074 -0.2470
 1350SOL     OW 5444   2.672   0.093   2.302 -0.7256  0.3745 -0.4791
 1350SOL    HW2 5445   2.686   0.185   2.325 -0.9726 -0.1723  2.0344
 1350SOL    HW3 5446   2.749   0.048   2.334 -1.7179 -0.6295  0.5277
 1350SOL    MW4 5447   2.684   0.099   2.309 -0.8893  0.1699 -0.0145
 1351SOL     OW 5448   2.678   0.359   2.367  0.2705  0.1155 -0.2520
 1351SOL    HW2 5449   2.624   0.419   2.315  0.9830  0.0291 -1.1165
 1351SOL    HW3 5450   2.658   0.380   2.458 -0.0239  1.1671 -0.5554
 1351SOL    MW4 5451   2.669   0.370   2.372  0.3257  0.2429 -0.4058
 1352SOL     OW 5452   2.922   0.486   2.304 -0.3487  0.2896  0.0738
 1352SOL    HW2 5453   2.926   0.576   2.338  0.1847 -0.0727  0.9963
 1352SOL    HW3 5454   2.858   0.442   2.360 -0.7537  0.1454 -0.5014
 1352SOL    MW4 5455   2.914   0.492   2.316 -0.3316  0.2227  0.1197
 1353SOL     OW 5456   2.940   0.746   2.385  0.3878  1.0486  0.8171
 1353SOL    HW2 5457   2.927   0.767   2.477  0.5178 -0.0318  1.0874
 1353SOL    HW3 5458   2.874   0.797   2.338 -2.1494 -1.2206  1.8113
 1353SOL    MW4 5459   2.930   0.755   2.391  0.0703  0.6067  0.9840
 1354SOL     OW 5460   2.718   0.919   2.304 -0.2451  0.1795 -0.2664
 1354SOL    HW2 5461   2.728   1.007   2.341 -0.0022  0.0356  0.0112
 1354SOL    HW3 5462   2.706   0.934   2.210 -1.4008  0.5729 -0.0604
 1354SOL    MW4 5463   2.718   0.933   2.297 -0.3657  0.2124 -0.2024
 1355SOL     OW 5464   2.771   1.173   2.384  0.0022  0.4451  0.6460
 1355SOL    HW2 5465   2.769   1.191   2.477 -2.7522  1.0535  0.5233
 1355SOL    HW3 5466   2.855   1.206   2.354 -0.3543  3.0532  2.3848
 1355SOL    MW4 5467   2.782   1.179   2.392 -0.4082  0.8695  0.8590
 1356SOL     OW 5468   2.998   1.299   2.259 -0.3537  0.0279  0.4581
 1356SOL    HW2 5469   3.081   1.258   2.285 -0.0185 -0.0967 -0.7838
 1356SOL    HW3 5470   2.999   1.297   2.163 -2.4220 -1.2567  0.4314
 1356SOL    MW4 5471   3.009   1.293   2.250 -0.5825 -0.1580  0.2909
 1357SOL     OW 5472   2.954   1.552   2.354 -0.3042 -0.3703 -0.1471
 1357SOL    HW2 5473   2.960   1.532   2.448 -0.6166 -1.1043 -0.2854
 1357SOL    HW3 5474   2.975   1.470   2.310  0.2516  0.0799 -0.7276
 1357SOL    MW4 5475   2.958   1.539   2.361 -0.2720 -0.4077 -0.2420
 1358SOL     OW 5476   2.714   1.660   2.296 -0.3209  0.1095  0.1531
 1358SOL    HW2 5477   2.797   1.615   2.311  0.5997  1.5534 -0.4550
 1358SOL    HW3 5478   2.708   1.669   2.201 -1.4520 -0.4859  0.1621
 1358SOL    MW4 5479   2.724   1.656   2.285 -0.3490  0.2215  0.0739
 1359SOL     OW 5480   2.698   1.927   2.389 -0.2672 -0.7009 -0.0550
 1359SOL    HW2 5481   2.722   1.918   2.482  1.1503 -1.2522 -0.4602
 1359SOL    HW3 5482   2.697   1.838   2.355  0.8748 -0.3929 -0.9525
 1359SOL    MW4 5483   2.701   1.914   2.397  0.0703 -0.7330 -0.2270
 1360SOL     OW 5484   2.931   2.050   2.268  0.2160  0.0762  0.6396
 1360SOL    HW2 5485   3.006   2.015   2.314 -1.4354 -2.3080  1.6336
 1360SOL    HW3 5486   2.855   2.008   2.310 -1.5572  1.0959 -1.4313
 1360SOL    MW4 5487   2.931   2.040   2.280 -0.2358 -0.1037  0.4976
 1361SOL     OW 5488   2.929   2.324   2.354 -0.8809  0.1934  0.1772
 1361SOL    HW2 5489   2.948   2.302   2.445 -3.7116 -0.0705  0.7338
 1361SOL    HW3 5490   2.936   2.240   2.308 -1.2913 -0.0065  0.4754
 1361SOL    MW4 5491   2.933   2.310   2.360 -1.3087  0.1326  0.2899
 1362SOL     OW 5492   2.698   2.443   2.269 -0.2141 -0.4155 -0.1454
 1362SOL    HW2 5493   2.783   2.405   2.289 -0.2453 -0.0794  0.6151
 1362SOL    HW3 5494   2.702   2.462   2.175  0.6580 -0.1083 -0.0502
 1362SOL    MW4 5495   2.710   2.440   2.259 -0.1030 -0.3304 -0.0327
 1363SOL     OW 5496   2.672   2.681   2.393  0.3506  0.1458 -0.3466
 1363SOL    HW2 5497   2.757   2.717   2.368  1.3054 -2.1666 -0.6605
 1363SOL    HW3 5498   2.668   2.597   2.346 -1.5783 -0.3164  0.6127
 1363SOL    MW4 5499   2.683   2.674   2.383  0.2224 -0.2205 -0.2613
 1364SOL     OW 5500   2.924   2.806   2.287  0.3112 -0.3191  0.0542
 1364SOL    HW2 5501   2.925   2.898   2.314 -0.3395 -0.0006 -0.9793
 1364SOL    HW3 5502   2.938   2.808   2.193  0.5161 -1.2991  0.0525
 1364SOL    MW4 5503   2.926   2.818   2.278  0.2522 -0.4065 -0.0823
 1365SOL     OW 5504   2.912   3.079   2.401  0.0203 -0.1439  0.4759
 1365SOL    HW2 5505   2.989   3.119   2.360 -0.6522  0.9014  0.2151
 1365SOL    HW3 5506   2.837   3.119   2.356 -0.6624 -1.9276  0.0019
 1365SOL    MW4 5507   2.912   3.090   2.390 -0.1583 -0.2415  0.3788
 1366SOL     OW 5508   2.697   3.218   2.296 -0.0599 -0.3957 -0.0122
 1366SOL    HW2 5509   2.716   3.304   2.334  2.5090 -0.0164 -1.9928
 1366SOL    HW3 5510   2.701   3.233   2.201  1.5167 -2.9220 -0.3809
 1366SOL    MW4 5511   2.700   3.232   2.288  0.4871 -0.6790 -0.3221
 1367SOL     OW 5512   2.680   3.474   2.406  0.4802 -0.2628  0.4140
 1367SOL    HW2 5513   2.754   3.504   2.354  1.2905 -0.6033  1.3484
 1367SOL    HW3 5514   2.606   3.526   2.375  1.1804  0.3130 -0.3004
 1367SOL    MW4 5515   2.680   3.485   2.395  0.6795 -0.2317  0.4430
 1368SOL     OW 5516   2.870   3.566   2.236 -0.0326 -0.4411  0.1466
 1368SOL    HW2 5517   2.951   3.523   2.265  0.9325  0.3020 -1.4228
 1368SOL    HW3 5518   2.880   3.657   2.264 -0.2463 -0.3034 -0.2287
 1368SOL    MW4 5519   2.882   3.572   2.244  0.0665 -0.3252 -0.1099
 1369SOL     OW 5520   2.943   3.852   2.429  0.2283  0.1974  0.4304
 1369SOL    HW2 5521   2.921   3.866   2.521  0.3317  2.5204  0.1279
 1369SOL    HW3 5522   2.871   3.891   2.380  0.7944  0.1255 -0.4835
 1369SOL    MW4 5523   2.931   3.859   2.434  0.3166  0.4945  0.2699
 1370SOL     OW 5524   2.740   3.976   2.304 -0.2356 -0.8698  0.1828
 1370SOL    HW2 5525   2.663   3.933   2.343 -0.5052 -0.4776  0.0777
 1370SOL    HW3 5526   2.719   3.984   2.211 -0.3735 -0.0841  0.2848
 1370SOL    MW4 5527   2.727   3.971   2.297 -0.2892 -0.7143  0.1826
 1371SOL     OW 5528   2.681   4.241   2.376 -0.2580 -0.3754  0.4854
 1371SOL    HW2 5529   2.671   4.243   2.471  0.0778 -0.8662  0.5315
 1371SOL    HW3 5530   2.700   4.149   2.356  1.3884  0.0263  0.1245
 1371SOL    MW4 5531   2.682   4.229   2.386  0.0036 -0.3872  0.4435
 1372SOL     OW 5532   2.911   4.338   2.257  0.0748 -0.0576 -0.0057
 1372SOL    HW2 5533   2.982   4.282   2.288 -0.2750 -0.4018  0.1862
 1372SOL    HW3 5534   2.835   4.311   2.309 -0.1498  0.4328 -0.0811
 1372SOL    MW4 5535   2.910   4.327   2.268 -0.0010 -0.0377  0.0100
 1373SOL     OW 5536   3.365   4.640   2.367  0.2956  0.2386 -0.4138
 1373SOL    HW2 5537   3.369   4.644   2.462  0.1914  0.1301 -0.4052
 1373SOL    HW3 5538   3.443   4.688   2.337  0.6285 -0.2110 -0.2691
 1373SOL    MW4 5539   3.376   4.647   2.375  0.3257  0.1655 -0.3934
 1374SOL     OW 5540   3.117   0.076   2.333  0.2482 -0.0011 -0.2275
 1374SOL    HW2 5541   3.123   0.167   2.360  0.0541  0.4069 -1.5375
 1374SOL    HW3 5542   3.206   0.041   2.343  0.4665  0.5158 -0.3878
 1374SOL    MW4 5543   3.129   0.083   2.338  0.2513  0.1210 -0.4215
 1375SOL     OW 5544   3.143   0.342   2.414  0.1118 -0.3753  0.6925
 1375SOL    HW2 5545   3.223   0.364   2.367 -1.2594  0.7358 -1.1568
 1375SOL    HW3 5546   3.074   0.394   2.372 -1.5041 -0.8787  2.6038
 1375SOL    MW4 5547   3.144   0.352   2.402 -0.2823 -0.2951  0.7005
 1376SOL     OW 5548   3.369   0.471   2.285 -0.6110  0.0841 -0.2964
 1376SOL    HW2 5549   3.449   0.419   2.289 -1.1371 -0.6380  1.8477
 1376SOL    HW3 5550   3.358   0.492   2.193  1.8088 -0.1799 -0.6808
 1376SOL    MW4 5551   3.378   0.467   2.274 -0.3612 -0.0460 -0.0641
 1377SOL     OW 5552   3.362   0.710   2.424  0.1674  0.5244 -0.4947
 1377SOL    HW2 5553   3.442   0.756   2.400  0.1178  0.2324 -1.2399
 1377SOL    HW3 5554   3.366   0.628   2.375 -0.1840  0.1478  0.1113
 1377SOL    MW4 5555   3.373   0.705   2.414  0.1142  0.4362 -0.5131
 1378SOL     OW 5556   3.177   0.894   2.330 -0.3237 -0.4076  0.2141
 1378SOL    HW2 5557   3.243   0.831   2.360 -1.8426 -3.9282 -3.3201
 1378SOL    HW3 5558   3.094   0.859   2.365 -0.9732  0.7750 -0.1339
 1378SOL    MW4 5559   3.174   0.881   2.339 -0.6096 -0.7161 -0.2983
 1379SOL     OW 5560   3.233   1.172   2.393  0.6203  0.1579  0.5430
 1379SOL    HW2 5561   3.311   1.171   2.338 -1.1466  1.0699 -2.0541
 1379SOL    HW3 5562   3.210   1.079   2.404  1.8365 -0.0953  1.0025
 1379SOL    MW4 5563   3.240   1.159   2.387  0.5476  0.2449  0.2611
 1380SOL     OW 5564   3.462   1.290   2.232  0.2901 -0.0644  0.6058
 1380SOL    HW2 5565   3.533   1.254   2.285  0.4712  0.1381  0.5019
 1380SOL    HW3 5566   3.442   1.374   2.274 -0.0332 -0.2183  0.7634
 1380SOL    MW4 5567   3.469   1.297   2.245  0.2713 -0.0579  0.6125
 1381SOL     OW 5568   3.381   1.524   2.347  0.0282  0.3993  0.1635
 1381SOL    HW2 5569   3.392   1.539   2.441  0.3557 -0.0302  0.1944
 1381SOL    HW3 5570   3.311   1.584   2.321 -0.3605  0.2011  0.7625
 1381SOL    MW4 5571   3.373   1.534   2.356  0.0200  0.3165  0.2468
 1382SOL     OW 5572   3.184   1.692   2.236 -0.4252  0.2402 -0.3000
 1382SOL    HW2 5573   3.182   1.782   2.270 -1.2735  0.0169  0.2472
 1382SOL    HW3 5574   3.112   1.648   2.281 -1.8925  0.0546 -2.7656
 1382SOL    MW4 5575   3.174   1.698   2.246 -0.7310  0.1863 -0.5531
 1383SOL     OW 5576   3.171   1.953   2.345  0.2069  0.0404  0.2615
 1383SOL    HW2 5577   3.183   1.946   2.440  0.2090  1.4513  0.3691
 1383SOL    HW3 5578   3.256   1.983   2.313  0.7942 -2.2621 -0.4119
 1383SOL    MW4 5579   3.184   1.956   2.353  0.2847 -0.0772  0.1869
 1384SOL     OW 5580   3.417   2.027   2.261  0.2374  0.0668 -0.0901
 1384SOL    HW2 5581   3.487   1.975   2.300 -0.4350 -0.4608  0.4467
 1384SOL    HW3 5582   3.423   2.009   2.168  0.4802 -0.4025  0.0138
 1384SOL    MW4 5583   3.427   2.018   2.254  0.1807 -0.0646 -0.0057
 1385SOL     OW 5584   3.390   2.273   2.379 -0.3047 -0.3415 -0.3549
 1385SOL    HW2 5585   3.312   2.316   2.345 -1.1401 -1.1746  0.4442
 1385SOL    HW3 5586   3.393   2.189   2.333  0.6430  0.0716 -1.0508
 1385SOL    MW4 5587   3.380   2.267   2.369 -0.2899 -0.3970 -0.3412
 1386SOL     OW 5588   3.182   2.422   2.273 -0.3207 -0.3835 -0.0885
 1386SOL    HW2 5589   3.187   2.510   2.311 -1.4797 -0.4088  0.1248
 1386SOL    HW3 5590   3.096   2.389   2.298 -0.5432 -0.9512 -1.5326
 1386SOL    MW4 5591   3.172   2.429   2.281 -0.5031 -0.4618 -0.2508
 1387SOL     OW 5592   3.153   2.679   2.379  0.2422 -0.5083 -0.5050
 1387SOL    HW2 5593   3.136   2.682   2.473 -0.4231 -2.4883 -0.5439
 1387SOL    HW3 5594   3.077   2.723   2.340  0.0177 -0.5838 -0.1579
 1387SOL    MW4 5595   3.141   2.685   2.386  0.1247 -0.7794 -0.4642
 1388SOL     OW 5596   3.396   2.824   2.270  0.6818  0.2775 -0.1359
 1388SOL    HW2 5597   3.412   2.903   2.321 -0.0172  1.1674 -1.2783
 1388SOL    HW3 5598   3.311   2.791   2.302  1.5795 -0.7483  1.2470
 1388SOL    MW4 5599   3.387   2.830   2.281  0.7079  0.2599 -0.1042
 1389SOL     OW 5600   3.377   3.055   2.429  0.0054 -0.1342 -0.2206
 1389SOL    HW2 5601   3.430   3.104   2.367 -0.9576 -1.7426 -2.4048
 1389SOL    HW3 5602   3.288   3.088   2.415 -0.0382  0.3551  1.1932
 1389SOL    MW4 5603   3.372   3.066   2.419 -0.1273 -0.2818 -0.3223
 1390SOL     OW 5604   3.140   3.177   2.292  0.4007  0.4632  0.1178
 1390SOL    HW2 5605   3.145   3.273   2.299 -0.4874  0.6089 -1.0367
 1390SOL    HW3 5606   3.145   3.160   2.198 -0.6867 -0.5338  0.2293
 1390SOL    MW4 5607   3.141   3.187   2.281  0.1400  0.3510 -0.0198
 1391SOL     OW 5608   3.138   3.469   2.320 -0.4367 -0.5034 -0.6065
 1391SOL    HW2 5609   3.151   3.473   2.415 -1.8640  0.6649 -0.4560
 1391SOL    HW3 5610   3.215   3.513   2.283 -1.5242  2.0653  0.1293
 1391SOL    MW4 5611   3.150   3.475   2.328 -0.7687 -0.0103 -0.4897
 1392SOL     OW 5612   3.384   3.602   2.257 -0.3132  0.0539  0.0466
 1392SOL    HW2 5613   3.444   3.532   2.282 -2.8472 -2.0557  0.4454
 1392SOL    HW3 5614   3.407   3.621   2.166  0.2833 -1.4408 -0.1310
 1392SOL    MW4 5615   3.395   3.595   2.248 -0.5689 -0.4215  0.0761
 1393SOL     OW 5616   3.404   3.839   2.393 -0.2431  0.3588  0.1955
 1393SOL    HW2 5617   3.478   3.881   2.349  0.5112 -0.0950  1.0422
 1393SOL    HW3 5618   3.404   3.750   2.359 -0.5542  0.4250  0.0177
 1393SOL    MW4 5619   3.414   3.833   2.382 -0.1848  0.3078  0.2837
 1394SOL     OW 5620   3.155   3.964   2.263  0.1331  0.4626  0.0816
 1394SOL    HW2 5621   3.232   3.926   2.305  0.4309 -2.4492 -2.8359
 1394SOL    HW3 5622   3.081   3.933   2.315  0.6200 -1.4665 -0.3251
 1394SOL    MW4 5623   3.156   3.955   2.275  0.2370 -0.1760 -0.3569
 1395SOL     OW 5624   3.130   4.213   2.358  0.3897 -0.5009 -0.2907
 1395SOL    HW2 5625   3.209   4.267   2.354  0.1436  0.0199  1.2696
 1395SOL    HW3 5626   3.148   4.138   2.301  1.1080  0.7515 -1.7327
 1395SOL    MW4 5627   3.143   4.210   2.350  0.4518 -0.2670 -0.2751
 1396SOL     OW 5628   3.353   4.370   2.317  0.5789 -0.0080  0.2518
 1396SOL    HW2 5629   3.347   4.461   2.347  0.3565  0.5221 -1.3709
 1396SOL    HW3 5630   3.349   4.376   2.222 -0.0920 -1.7699  0.1518
 1396SOL    MW4 5631   3.351   4.383   2.309  0.4609 -0.1707  0.0246
 1397SOL     OW 5632   3.832   4.617   2.407 -0.0464 -0.2367 -0.5304
 1397SOL    HW2 5633   3.824   4.627   2.501  0.0028  0.7405 -0.6236
 1397SOL    HW3 5634   3.912   4.664   2.384 -0.6713  0.5148 -1.2083
 1397SOL    MW4 5635   3.842   4.624   2.416 -0.1223 -0.0081 -0.6320
 1398SOL     OW 5636   3.607   0.072   2.296  0.3831  0.2884  0.3902
 1398SOL    HW2 5637   3.625   0.160   2.329  0.8074 -0.0465  1.0656
 1398SOL    HW3 5638   3.680   0.019   2.329 -0.1849 -0.4392  0.4961
 1398SOL    MW4 5639   3.619   0.076   2.305  0.3641  0.1482  0.4933
 1399SOL     OW 5640   3.613   0.349   2.382 -0.1752  0.3129  0.3340
 1399SOL    HW2 5641   3.609   0.339   2.477 -1.5575  1.6765  0.4364
 1399SOL    HW3 5642   3.698   0.389   2.365  0.9847 -1.8453  0.7863
 1399SOL    MW4 5643   3.624   0.353   2.392 -0.2046  0.2081  0.4072
 1400SOL     OW 5644   3.839   0.500   2.281 -0.5447 -0.1667 -0.6590
 1400SOL    HW2 5645   3.843   0.587   2.321 -0.3428 -0.1260 -0.7668
 1400SOL    HW3 5646   3.829   0.518   2.187 -0.9282 -0.2612 -0.6364
 1400SOL    MW4 5647   3.838   0.514   2.274 -0.5684 -0.1737 -0.6704
 1401SOL     OW 5648   3.858   0.756   2.381  0.3980 -0.3212 -0.0764
 1401SOL    HW2 5649   3.856   0.760   2.477  0.9696 -0.9089 -0.0318
 1401SOL    HW3 5650   3.921   0.823   2.355  0.0499  0.0160 -0.0586
 1401SOL    MW4 5651   3.866   0.765   2.390  0.4277 -0.3542 -0.0679
 1402SOL     OW 5652   3.611   0.866   2.334  0.1196  0.6369 -0.3043
 1402SOL    HW2 5653   3.689   0.816   2.356  0.3467  0.5820 -1.2189
 1402SOL    HW3 5654   3.617   0.881   2.239 -0.8851  0.7760 -0.3587
 1402SOL    MW4 5655   3.622   0.861   2.324  0.0167  0.6480 -0.4320
 1403SOL     OW 5656   3.619   1.144   2.407  0.3206  0.0041  0.2082
 1403SOL    HW2 5657   3.611   1.146   2.503  1.6549 -1.8051  0.3995
 1403SOL    HW3 5658   3.614   1.051   2.385 -0.8034  0.4730 -1.5798
 1403SOL    MW4 5659   3.617   1.132   2.417  0.3483 -0.1729 -0.0026
 1404SOL     OW 5660   3.845   1.252   2.272  0.4375 -0.0501 -0.4136
 1404SOL    HW2 5661   3.840   1.347   2.288  1.9469 -0.2613  1.4715
 1404SOL    HW3 5662   3.778   1.214   2.328  0.9158 -0.2343  0.0302
 1404SOL    MW4 5663   3.836   1.260   2.281  0.7000 -0.1023 -0.1061
 1405SOL     OW 5664   3.861   1.564   2.320 -0.2662  0.5667 -0.2116
 1405SOL    HW2 5665   3.860   1.544   2.413 -0.3782  0.7119 -0.1821
 1405SOL    HW3 5666   3.776   1.603   2.302 -0.1620  0.7416 -0.3299
 1405SOL    MW4 5667   3.850   1.567   2.330 -0.2670  0.6090 -0.2234
 1406SOL     OW 5668   3.614   1.686   2.265  0.1349 -0.2532  0.2328
 1406SOL    HW2 5669   3.538   1.637   2.298 -1.4784  2.0278  0.0149
 1406SOL    HW3 5670   3.610   1.675   2.170 -1.3961  1.8999  0.0228
 1406SOL    MW4 5671   3.603   1.678   2.257 -0.2799  0.3318  0.1762
 1407SOL     OW 5672   3.631   1.927   2.375 -0.3988 -0.3985  0.2011
 1407SOL    HW2 5673   3.704   1.969   2.330 -2.8479  1.7558 -1.9455
 1407SOL    HW3 5674   3.626   1.839   2.337  0.8929 -0.4650  0.1812
 1407SOL    MW4 5675   3.640   1.921   2.364 -0.5517 -0.1229 -0.0849
 1408SOL     OW 5676   3.850   2.038   2.247 -0.1624 -0.1696 -0.4848
 1408SOL    HW2 5677   3.934   1.997   2.270  0.0011 -0.7354 -2.0273
 1408SOL    HW3 5678   3.856   2.052   2.152 -0.2936  3.2748 -0.0216
 1408SOL    MW4 5679   3.862   2.034   2.237 -0.1583  0.2103 -0.6273
 1409SOL     OW 5680   3.864   2.287   2.358  0.2892 -0.0099  0.1100
 1409SOL    HW2 5681   3.776   2.315   2.334  0.4578 -0.0530 -0.5866
 1409SOL    HW3 5682   3.872   2.199   2.322  0.5171 -0.1106  0.4066
 1409SOL    MW4 5683   3.854   2.279   2.350  0.3414 -0.0288  0.0570
 1410SOL     OW 5684   3.605   2.386   2.267 -0.2333  0.3540  0.5953
 1410SOL    HW2 5685   3.529   2.330   2.283  0.3617 -0.3728  0.9111
 1410SOL    HW3 5686   3.602   2.404   2.174 -0.4374 -0.2112  0.4885
 1410SOL    MW4 5687   3.594   2.381   2.257 -0.1817  0.1836  0.6227
 1411SOL     OW 5688   3.596   2.656   2.367 -0.1149  0.0653  0.3262
 1411SOL    HW2 5689   3.596   2.565   2.338 -2.4568 -0.5737  2.1580
 1411SOL    HW3 5690   3.511   2.691   2.339  0.6995  1.6821 -0.2438
 1411SOL    MW4 5691   3.585   2.649   2.360 -0.3164  0.1943  0.4926
 1412SOL     OW 5692   3.788   2.827   2.237  0.0707  0.0967 -0.5299
 1412SOL    HW2 5693   3.785   2.911   2.283  0.1333 -0.5577  0.7024
 1412SOL    HW3 5694   3.728   2.770   2.286 -0.0846 -0.5335 -1.4337
 1412SOL    MW4 5695   3.780   2.830   2.250  0.0584 -0.0730 -0.4864
 1413SOL     OW 5696   3.789   3.060   2.384  0.2195 -0.3752  0.1544
 1413SOL    HW2 5697   3.794   3.071   2.479  0.4918 -2.1818  0.3621
 1413SOL    HW3 5698   3.869   3.102   2.351 -1.3399  3.0003  0.4111
 1413SOL    MW4 5699   3.801   3.067   2.392  0.0498 -0.1683  0.2158
 1414SOL     OW 5700   3.556   3.196   2.266 -0.1079  0.3890  0.0923
 1414SOL    HW2 5701   3.556   3.291   2.279  0.0593  0.5528 -1.1070
 1414SOL    HW3 5702   3.634   3.166   2.312  0.1021  0.8899  0.0637
 1414SOL    MW4 5703   3.566   3.204   2.274 -0.0582  0.4768 -0.0696
 1415SOL     OW 5704   3.623   3.437   2.352  0.1513  0.0408  0.5244
 1415SOL    HW2 5705   3.618   3.463   2.444  1.1158 -0.4518  0.7247
 1415SOL    HW3 5706   3.704   3.478   2.320 -0.2333  0.2964 -0.1364
 1415SOL    MW4 5707   3.633   3.446   2.360  0.2279  0.0095  0.4637
 1416SOL     OW 5708   3.820   3.622   2.279 -0.3424  0.0055 -0.8665
 1416SOL    HW2 5709   3.791   3.702   2.323  2.4171  1.5598 -1.8001
 1416SOL    HW3 5710   3.820   3.644   2.186  0.0677 -1.2090 -1.1637
 1416SOL    MW4 5711   3.816   3.635   2.273  0.0758  0.0503 -1.0288
 1417SOL     OW 5712   3.795   3.855   2.407  0.4668  0.2114 -0.0920
 1417SOL    HW2 5713   3.805   3.836   2.500  0.3721 -0.8876 -0.2971
 1417SOL    HW3 5714   3.884   3.861   2.373  0.4976 -0.3627 -0.1169
 1417SOL    MW4 5715   3.808   3.853   2.415  0.4585 -0.0095 -0.1223
 1418SOL     OW 5716   3.606   3.985   2.277  0.3148  0.5187  0.8513
 1418SOL    HW2 5717   3.595   4.071   2.317  0.4509  0.4198  1.1041
 1418SOL    HW3 5718   3.674   3.943   2.330  0.4189  0.3475  0.5809
 1418SOL    MW4 5719   3.613   3.991   2.289  0.3467  0.4828  0.8490
 1419SOL     OW 5720   3.588   4.242   2.365  0.6966 -0.0891  0.4000
 1419SOL    HW2 5721   3.659   4.295   2.329 -0.4715  0.7156 -0.7417
 1419SOL    HW3 5722   3.508   4.283   2.333 -0.2776 -1.5715  0.8567
 1419SOL    MW4 5723   3.587   4.254   2.356  0.4139 -0.1783  0.3095
 1420SOL     OW 5724   3.819   4.379   2.264  0.0314  0.2981 -0.1385
 1420SOL    HW2 5725   3.894   4.332   2.300 -1.7786 -1.0263  2.0594
 1420SOL    HW3 5726   3.822   4.465   2.306  0.6812  0.4657 -0.5328
 1420SOL    MW4 5727   3.829   4.384   2.274 -0.1218  0.1454  0.0997
 1421SOL     OW 5728   4.269   4.649   2.425 -0.2922  0.1452  0.0321
 1421SOL    HW2 5729   4.255   4.648   2.520  0.7346 -0.6437  0.1926
 1421SOL    HW3 5730   4.339   4.715   2.413  0.9573 -1.1520  0.0522
 1421SOL    MW4 5731   4.277   4.658   2.436  0.0081 -0.1302  0.0558
 1422SOL     OW 5732   4.050   0.075   2.287  0.0609 -0.0328  0.0373
 1422SOL    HW2 5733   4.044   0.166   2.315 -1.2915 -0.1365  0.1300
 1422SOL    HW3 5734   4.122   0.038   2.339 -0.0420  0.7211  0.7232
 1422SOL    MW4 5735   4.058   0.082   2.298 -0.1311  0.0530  0.1402
 1423SOL     OW 5736   4.033   0.342   2.381 -0.0566 -0.3397 -0.0396
 1423SOL    HW2 5737   4.116   0.387   2.366  0.2387 -0.1027  2.1728
 1423SOL    HW3 5738   3.966   0.406   2.353  0.4175  0.8351  1.4237
 1423SOL    MW4 5739   4.035   0.357   2.376  0.0448 -0.1535  0.4454
 1424SOL     OW 5740   4.276   0.501   2.309  0.4221 -0.3861  0.3983
 1424SOL    HW2 5741   4.278   0.592   2.338  1.5194  0.2315 -1.5366
 1424SOL    HW3 5742   4.359   0.463   2.339 -0.3814 -1.0084  1.9131
 1424SOL    MW4 5743   4.287   0.508   2.317  0.4601 -0.3868  0.3428
 1425SOL     OW 5744   4.255   0.767   2.393  0.6681 -0.3307  0.4307
 1425SOL    HW2 5745   4.189   0.832   2.368  0.0343 -1.3500 -0.5826
 1425SOL    HW3 5746   4.332   0.791   2.341  1.1720  0.9510  1.7290
 1425SOL    MW4 5747   4.257   0.779   2.383  0.6509 -0.2962  0.4687
 1426SOL     OW 5748   4.040   0.918   2.265  0.3955 -0.1066  0.1903
 1426SOL    HW2 5749   4.056   1.010   2.289 -1.9552  0.0096  1.5097
 1426SOL    HW3 5750   4.062   0.913   2.173  0.7585  1.7638  0.1489
 1426SOL    MW4 5751   4.045   0.930   2.256  0.1335  0.1555  0.3588
 1427SOL     OW 5752   4.087   1.150   2.378  0.3271  0.3729 -0.2399
 1427SOL    HW2 5753   4.120   1.147   2.468 -0.6654 -0.2545  0.1168
 1427SOL    HW3 5754   3.997   1.181   2.387 -0.1868 -0.8714 -0.8895
 1427SOL    MW4 5755   4.079   1.153   2.391  0.1278  0.1259 -0.2787
 1428SOL     OW 5756   4.272   1.301   2.249 -0.0436  0.0259  0.0697
 1428SOL    HW2 5757   4.195   1.263   2.292 -0.0328 -1.4597 -1.1980
 1428SOL    HW3 5758   4.341   1.237   2.262  0.8560  1.1238  0.7506
 1428SOL    MW4 5759   4.271   1.288   2.256  0.0763 -0.0252 -0.0076
 1429SOL     OW 5760   4.294   1.542   2.384  0.2695  0.3004  0.1199
 1429SOL    HW2 5761   4.290   1.457   2.340  0.2547  0.8632 -0.9843
 1429SOL    HW3 5762   4.362   1.591   2.337  0.5897  0.7504  1.0270
 1429SOL    MW4 5763   4.302   1.537   2.372  0.3099  0.4340  0.0939
 1430SOL     OW 5764   4.092   1.703   2.242  0.4137 -0.0004  0.0242
 1430SOL    HW2 5765   4.155   1.644   2.283 -0.2755 -0.3612  0.5647
 1430SOL    HW3 5766   4.008   1.656   2.246 -0.1181  0.9620  0.3528
 1430SOL    MW4 5767   4.089   1.689   2.248  0.2522  0.0790  0.1390
 1431SOL     OW 5768   4.082   1.937   2.371  0.0324  0.3723  0.1663
 1431SOL    HW2 5769   4.071   1.943   2.466 -0.0232 -0.1131  0.1916
 1431SOL    HW3 5770   4.086   1.843   2.353 -0.5211  0.4441 -0.3715
 1431SOL    MW4 5771   4.081   1.926   2.381 -0.0477  0.3177  0.0985
 1432SOL     OW 5772   4.284   2.082   2.265  0.2662  0.0359  0.3094
 1432SOL    HW2 5773   4.269   2.160   2.318 -0.4013 -0.4665  0.8743
 1432SOL    HW3 5774   4.213   2.022   2.289  1.0452 -0.9319  0.2569
 1432SOL    MW4 5775   4.273   2.084   2.275  0.2809 -0.1583  0.3769
 1433SOL     OW 5776   4.286   2.342   2.352 -0.0917 -0.0791  0.6766
 1433SOL    HW2 5777   4.208   2.370   2.304 -0.0801  0.9303  1.2234
 1433SOL    HW3 5778   4.359   2.379   2.301  0.1924 -3.2265 -1.3052
 1433SOL    MW4 5779   4.285   2.351   2.339 -0.0529 -0.3614  0.4873
 1434SOL     OW 5780   4.056   2.448   2.234 -0.2754  0.3545 -0.0207
 1434SOL    HW2 5781   4.042   2.535   2.271 -0.0994  0.0732  0.7293
 1434SOL    HW3 5782   3.986   2.395   2.273  0.6022 -0.2076  0.7993
 1434SOL    MW4 5783   4.045   2.452   2.244 -0.1369  0.2432  0.1864
 1435SOL     OW 5784   4.014   2.733   2.353  0.8506 -0.2267 -0.1484
 1435SOL    HW2 5785   3.999   2.746   2.446 -0.2557  0.7971 -0.4565
 1435SOL    HW3 5786   3.937   2.770   2.310  1.2512 -0.8596 -1.4623
 1435SOL    MW4 5787   4.002   2.740   2.359  0.7577 -0.1752 -0.3626
 1436SOL     OW 5788   4.281   2.813   2.279  0.0096 -0.6664  0.6808
 1436SOL    HW2 5789   4.205   2.778   2.325 -0.8515 -1.3168 -1.2033
 1436SOL    HW3 5790   4.356   2.775   2.325 -0.8097 -0.4082  2.2340
 1436SOL    MW4 5791   4.281   2.803   2.291 -0.2122 -0.7181  0.6371
 1437SOL     OW 5792   4.290   3.082   2.337 -0.0047  0.3631 -0.3326
 1437SOL    HW2 5793   4.288   2.988   2.317  1.5227  0.2001  0.2584
 1437SOL    HW3 5794   4.377   3.111   2.311 -0.3879  1.5885 -0.2997
 1437SOL    MW4 5795   4.301   3.073   2.331  0.1459  0.5031 -0.2503
 1438SOL     OW 5796   4.050   3.187   2.292  0.1367 -0.1671  0.0145
 1438SOL    HW2 5797   4.046   3.278   2.321  0.0822  0.6634 -2.4175
 1438SOL    HW3 5798   4.136   3.156   2.321  0.1916  0.7024  0.7896
 1438SOL    MW4 5799   4.061   3.195   2.300  0.1369  0.0572 -0.2041
 1439SOL     OW 5800   4.044   3.452   2.370  0.3732 -0.1783 -0.3568
 1439SOL    HW2 5801   4.134   3.480   2.352  0.8360 -0.9363  0.7434
 1439SOL    HW3 5802   3.989   3.519   2.328  1.4370 -0.0458 -1.5862
 1439SOL    MW4 5803   4.048   3.465   2.362  0.5746 -0.2604 -0.3736
 1440SOL     OW 5804   4.284   3.578   2.289 -0.0293 -0.1264 -0.0832
 1440SOL    HW2 5805   4.289   3.662   2.335  2.2371 -0.0540 -0.3784
 1440SOL    HW3 5806   4.301   3.599   2.198 -1.7270 -0.6306 -0.5238
 1440SOL    MW4 5807   4.287   3.592   2.283  0.0458 -0.1833 -0.1798
 1441SOL     OW 5808   4.282   3.830   2.407  0.1849  0.0838  0.6188
 1441SOL    HW2 5809   4.290   3.844   2.502  0.8113 -1.3826  0.8065
 1441SOL    HW3 5810   4.342   3.894   2.369  0.9496 -0.2088  1.2932
 1441SOL    MW4 5811   4.291   3.840   2.415  0.3686 -0.1483  0.7327
 1442SOL     OW 5812   4.046   3.959   2.315  0.6690  0.2837  0.0490
 1442SOL    HW2 5813   4.123   3.910   2.344 -0.0492 -0.3058  1.0124
 1442SOL    HW3 5814   4.052   3.960   2.220  0.1781 -2.5900 -0.0503
 1442SOL    MW4 5815   4.057   3.953   2.306  0.5093 -0.1729  0.1628
 1443SOL     OW 5816   4.052   4.259   2.344 -0.5251 -0.0663  0.1955
 1443SOL    HW2 5817   4.139   4.297   2.336 -0.4176  0.1068  1.9155
 1443SOL    HW3 5818   4.064   4.165   2.329 -0.0862  0.0002  0.1460
 1443SOL    MW4 5819   4.065   4.252   2.341 -0.4525 -0.0348  0.4158
 1444SOL     OW 5820   4.272   4.406   2.298 -0.0681  0.2898 -0.1149
 1444SOL    HW2 5821   4.274   4.479   2.359 -0.8810 -1.0099  1.5072
 1444SOL    HW3 5822   4.355   4.360   2.313  0.2710  0.6549 -0.8589
 1444SOL    MW4 5823   4.283   4.409   2.308 -0.1307  0.1664  0.0012
 1445SOL     OW 5824   0.269   0.018   2.654 -0.0152  0.2311 -0.5485
 1445SOL    HW2 5825   0.273  -0.076   2.673  0.5513  0.5300  0.8758
 1445SOL    HW3 5826   0.183   0.045   2.686 -0.6706 -0.0111 -2.0404
 1445SOL    MW4 5827   0.258   0.009   2.661 -0.0269  0.2386 -0.5572
 1446SOL     OW 5828   0.016   0.090   2.768 -0.0203 -0.4531 -0.6824
 1446SOL    HW2 5829   0.036   0.098   2.862  1.4262  0.5314 -1.0512
 1446SOL    HW3 5830   0.023   0.180   2.735 -0.2066 -0.8409 -1.7984
 1446SOL    MW4 5831   0.020   0.103   2.776  0.1459 -0.3744 -0.8781
 1447SOL     OW 5832   0.011   0.344   2.664 -0.1611  0.0470 -0.1056
 1447SOL    HW2 5833   0.061   0.420   2.693  0.5162 -0.0317 -1.0192
 1447SOL    HW3 5834   0.022   0.343   2.568  0.2553 -1.4597 -0.0645
 1447SOL    MW4 5835   0.019   0.354   2.655 -0.0168 -0.1621 -0.2210
 1448SOL     OW 5836   0.200   0.509   2.767 -0.3138  0.2246  0.1883
 1448SOL    HW2 5837   0.208   0.521   2.862 -0.0217 -1.2507  0.3675
 1448SOL    HW3 5838   0.282   0.467   2.742 -0.4910  0.3948 -0.6911
 1448SOL    MW4 5839   0.212   0.505   2.776 -0.2987  0.0523  0.0961
 1449SOL     OW 5840   0.222   0.762   2.641 -0.1271  0.1398  0.8731
 1449SOL    HW2 5841   0.297   0.811   2.674 -0.7007  1.4295  0.3187
 1449SOL    HW3 5842   0.230   0.675   2.680  0.5091  0.9006  2.4843
 1449SOL    MW4 5843   0.233   0.757   2.650 -0.1189  0.4103  1.0123
 1450SOL     OW 5844   4.488   0.885   2.759  0.4806  0.3826  0.1018
 1450SOL    HW2 5845   4.406   0.836   2.747  0.4207  0.3717  0.5382
 1450SOL    HW3 5846   4.552   0.839   2.706  0.1993  0.3986 -0.2559
 1450SOL    MW4 5847   4.485   0.873   2.750  0.4356  0.3833  0.1121
 1451SOL     OW 5848   0.005   1.141   2.624  0.0399  0.5012  0.1538
 1451SOL    HW2 5849   0.088   1.182   2.650  0.3413 -0.3762  0.5998
 1451SOL    HW3 5850   0.010   1.053   2.661 -0.8475  0.2565 -0.3124
 1451SOL    MW4 5851   0.017   1.135   2.632 -0.0377  0.3531  0.1509
 1452SOL     OW 5852   0.237   1.255   2.731  0.3919 -0.0123 -0.1740
 1452SOL    HW2 5853   0.308   1.205   2.691  1.2236  1.3723 -0.4659
 1452SOL    HW3 5854   0.245   1.343   2.693 -0.3414  0.6568  1.1814
 1452SOL    MW4 5855   0.247   1.260   2.721  0.4049  0.2586 -0.0334
 1453SOL     OW 5856   0.228   1.528   2.659 -0.1272 -0.3202  0.2489
 1453SOL    HW2 5857   0.304   1.570   2.700 -0.2097  1.3882 -1.2465
 1453SOL    HW3 5858   0.154   1.583   2.684 -0.7078 -1.3522  0.7925
 1453SOL    MW4 5859   0.229   1.541   2.667 -0.2147 -0.2309  0.1233
 1454SOL     OW 5860   4.483   1.663   2.733  0.6321  0.5406  0.2943
 1454SOL    HW2 5861   4.496   1.673   2.828 -0.1464 -0.0401  0.4768
 1454SOL    HW3 5862   4.494   1.751   2.697  3.8723  0.2974  0.5396
 1454SOL    MW4 5863   4.486   1.676   2.741  0.9565  0.4318  0.3507
 1455SOL     OW 5864   0.054   1.902   2.607 -0.1180 -0.0050  0.3932
 1455SOL    HW2 5865   0.134   1.947   2.636  0.3121 -0.6094  0.1439
 1455SOL    HW3 5866   0.053   1.912   2.512 -0.8573  0.8464  0.4743
 1455SOL    MW4 5867   0.064   1.909   2.599 -0.1588  0.0275  0.3712
 1456SOL     OW 5868   0.234   2.065   2.740 -0.5029 -0.0748  0.0329
 1456SOL    HW2 5869   0.320   2.023   2.734  0.1138  1.3301 -1.1710
 1456SOL    HW3 5870   0.242   2.144   2.687 -2.3110  0.4667  0.5369
 1456SOL    MW4 5871   0.247   2.070   2.732 -0.6601  0.1817 -0.0594
 1457SOL     OW 5872   0.259   2.316   2.618 -0.1381 -0.0356 -0.0451
 1457SOL    HW2 5873   0.326   2.374   2.653  0.7085 -0.8446 -0.3146
 1457SOL    HW3 5874   0.178   2.344   2.661  0.4840  0.4881  0.7989
 1457SOL    MW4 5875   0.257   2.327   2.628  0.0556 -0.0734  0.0310
 1458SOL     OW 5876   0.013   2.432   2.723  0.3574 -0.3245 -0.4181
 1458SOL    HW2 5877   0.026   2.413   2.816  1.2092 -1.6808 -0.8073
 1458SOL    HW3 5878  -0.076   2.401   2.705 -0.0134  0.4472  0.0721
 1458SOL    MW4 5879   0.003   2.425   2.733  0.4209 -0.4017 -0.4048
 1459SOL     OW 5880   0.025   2.705   2.656 -0.0744  0.0351  0.4328
 1459SOL    HW2 5881  -0.059   2.742   2.684 -0.8493 -0.9939 -0.4898
 1459SOL    HW3 5882   0.016   2.611   2.671  0.5903 -0.1821 -0.4884
 1459SOL    MW4 5883   0.013   2.698   2.662 -0.0890 -0.1295  0.1898
 1460SOL     OW 5884   0.240   2.854   2.737  0.2018  0.1824  0.1384
 1460SOL    HW2 5885   0.227   2.946   2.714  0.5202 -0.0446 -0.9838
 1460SOL    HW3 5886   0.162   2.810   2.702 -0.8234  0.2613  2.2281
 1460SOL    MW4 5887   0.228   2.860   2.730  0.1086  0.1628  0.2663
 1461SOL     OW 5888   0.240   3.129   2.640  0.2150  0.0385 -0.0259
 1461SOL    HW2 5889   0.315   3.163   2.689 -0.3349  1.6043 -0.2705
 1461SOL    HW3 5890   0.264   3.142   2.548 -0.2703  0.3535 -0.1091
 1461SOL    MW4 5891   0.253   3.135   2.634  0.0784  0.2868 -0.0694
 1462SOL     OW 5892   4.480   3.220   2.741 -0.1844  0.0961 -0.1544
 1462SOL    HW2 5893   4.417   3.173   2.686 -0.7239  0.8490 -0.1830
 1462SOL    HW3 5894   4.565   3.186   2.713 -0.5824 -1.0349 -0.0074
 1462SOL    MW4 5895   4.483   3.209   2.730 -0.3081  0.0463 -0.1390
 1463SOL     OW 5896   0.040   3.478   2.622  0.3079 -0.1284  0.7632
 1463SOL    HW2 5897   0.110   3.529   2.662  1.3862 -0.5093 -0.5992
 1463SOL    HW3 5898   0.024   3.407   2.684  2.1675 -0.8958  0.4038
 1463SOL    MW4 5899   0.047   3.476   2.635  0.6955 -0.2799  0.5360
 1464SOL     OW 5900   0.238   3.633   2.759 -0.0517 -0.0503  0.4664
 1464SOL    HW2 5901   0.235   3.628   2.855  1.7806  0.2607  0.5440
 1464SOL    HW3 5902   0.309   3.575   2.734  0.3733  0.9290 -0.6206
 1464SOL    MW4 5903   0.247   3.625   2.769  0.2462  0.1199  0.3331
 1465SOL     OW 5904   0.183   3.883   2.627 -0.1019  0.0488  0.2535
 1465SOL    HW2 5905   0.179   3.791   2.656 -1.1561 -0.0727 -0.2747
 1465SOL    HW3 5906   0.210   3.878   2.535 -0.5786  0.2473  0.1032
 1465SOL    MW4 5907   0.186   3.870   2.619 -0.3039  0.0591  0.1640
 1466SOL     OW 5908   0.003   4.069   2.747  0.2976  0.0398 -0.3068
 1466SOL    HW2 5909   0.023   4.155   2.710  1.1192  0.8068  1.8544
 1466SOL    HW3 5910   0.060   4.009   2.699  0.8424  0.9036 -0.7626
 1466SOL    MW4 5911   0.013   4.073   2.736  0.4773  0.2551 -0.0818
 1467SOL     OW 5912   0.025   4.307   2.604 -0.0353  0.0380  0.0574
 1467SOL    HW2 5913  -0.057   4.340   2.641 -0.3631 -1.7390  0.9975
 1467SOL    HW3 5914   0.094   4.356   2.651 -0.5384  1.2293 -0.4336
 1467SOL    MW4 5915   0.024   4.318   2.615 -0.1449 -0.0391  0.1163
 1468SOL     OW 5916   0.241   4.427   2.769  0.0025 -0.3823 -0.2946
 1468SOL    HW2 5917   0.236   4.418   2.865  0.4627  0.7991 -0.1514
 1468SOL    HW3 5918   0.312   4.369   2.743 -1.4675 -2.2740 -0.1496
 1468SOL    MW4 5919   0.249   4.418   2.778 -0.1308 -0.4759 -0.2563
 1469SOL     OW 5920   0.662   4.642   2.677 -0.1669 -0.0668 -0.4030
 1469SOL    HW2 5921   0.745   4.685   2.699 -0.3274  0.3310 -0.5695
 1469SOL    HW3 5922   0.595   4.707   2.701 -0.3956 -0.0906 -0.9795
 1469SOL    MW4 5923   0.664   4.656   2.683 -0.2182 -0.0176 -0.5012
 1470SOL     OW 5924   0.486   0.162   2.758 -0.1422  0.1204  0.2146
 1470SOL    HW2 5925   0.482   0.153   2.853  0.7150 -1.1323  0.1389
 1470SOL    HW3 5926   0.401   0.129   2.728 -0.6867  1.1711  0.5848
 1470SOL    MW4 5927   0.474   0.157   2.767 -0.1009  0.0938  0.2537
 1471SOL     OW 5928   0.451   0.407   2.661  0.3562 -0.2296  0.2331
 1471SOL    HW2 5929   0.524   0.461   2.689 -0.0204  0.0312  0.7163
 1471SOL    HW3 5930   0.477   0.318   2.685  1.3068 -0.3724 -1.2509
 1471SOL    MW4 5931   0.464   0.402   2.668  0.4319 -0.2140  0.1013
 1472SOL     OW 5932   0.697   0.503   2.744 -0.0529  0.0445 -0.4624
 1472SOL    HW2 5933   0.696   0.484   2.838  0.9460 -2.3754 -0.9075
 1472SOL    HW3 5934   0.757   0.438   2.707 -1.5232  0.0348 -2.9524
 1472SOL    MW4 5935   0.705   0.492   2.751 -0.1151 -0.2760 -0.8495
 1473SOL     OW 5936   0.687   0.763   2.669  0.1952 -0.0217  0.0584
 1473SOL    HW2 5937   0.766   0.812   2.692  0.8349 -0.2673 -1.5441
 1473SOL    HW3 5938   0.708   0.672   2.689  1.4854 -0.5137 -3.1969
 1473SOL    MW4 5939   0.700   0.758   2.675  0.4497 -0.1190 -0.5827
 1474SOL     OW 5940   0.446   0.879   2.775 -0.0325 -0.3698  0.0066
 1474SOL    HW2 5941   0.472   0.963   2.737  0.3117 -0.4658  0.0277
 1474SOL    HW3 5942   0.510   0.816   2.741  0.3234 -0.4475  0.7969
 1474SOL    MW4 5943   0.458   0.881   2.766  0.0598 -0.3927  0.1140
 1475SOL     OW 5944   0.472   1.126   2.629 -0.1451  0.5500  0.1130
 1475SOL    HW2 5945   0.538   1.177   2.676  0.4658  0.5055 -0.6713
 1475SOL    HW3 5946   0.494   1.139   2.536 -0.6453 -0.2610 -0.1237
 1475SOL    MW4 5947   0.484   1.135   2.623 -0.1305  0.4373 -0.0217
 1476SOL     OW 5948   0.660   1.270   2.766 -0.4978 -0.0451 -0.2450
 1476SOL    HW2 5949   0.661   1.279   2.861  1.5943  0.9070 -0.3339
 1476SOL    HW3 5950   0.750   1.248   2.742 -0.4971  1.8704 -2.1779
 1476SOL    MW4 5951   0.672   1.268   2.775 -0.2217  0.3332 -0.5119
 1477SOL     OW 5952   0.673   1.537   2.668  0.4111  0.7937 -0.2609
 1477SOL    HW2 5953   0.594   1.589   2.684  0.0586  0.5911 -1.3753
 1477SOL    HW3 5954   0.652   1.450   2.701  0.5658  1.0116  0.4448
 1477SOL    MW4 5955   0.660   1.533   2.675  0.3850  0.7957 -0.3150
 1478SOL     OW 5956   0.440   1.667   2.762  0.3396  0.1362  0.0719
 1478SOL    HW2 5957   0.413   1.686   2.852  1.0504 -1.5478  0.6672
 1478SOL    HW3 5958   0.425   1.749   2.714 -0.9499  0.7554  1.5062
 1478SOL    MW4 5959   0.435   1.680   2.767  0.2633 -0.0044  0.3395
 1479SOL     OW 5960   0.446   1.905   2.631  0.6069  0.3856 -0.1042
 1479SOL    HW2 5961   0.525   1.952   2.659  1.0244  1.4245 -2.9383
 1479SOL    HW3 5962   0.441   1.919   2.537 -1.4484 -2.0064 -0.4115
 1479SOL    MW4 5963   0.456   1.913   2.622  0.3908  0.2071 -0.5188
 1480SOL     OW 5964   0.664   2.052   2.723  0.3691 -0.2308 -0.2181
 1480SOL    HW2 5965   0.663   2.068   2.817  0.4439 -0.6620 -0.1401
 1480SOL    HW3 5966   0.741   1.996   2.710  0.3458 -0.1887 -0.5289
 1480SOL    MW4 5967   0.674   2.047   2.734  0.3759 -0.2823 -0.2489
 1481SOL     OW 5968   0.666   2.336   2.646  0.5189 -0.0603 -0.1119
 1481SOL    HW2 5969   0.745   2.361   2.695 -0.0387  0.5120  0.4966
 1481SOL    HW3 5970   0.658   2.241   2.661  0.7932 -0.0251  0.2659
 1481SOL    MW4 5971   0.676   2.327   2.655  0.4815  0.0196  0.0184
 1482SOL     OW 5972   0.452   2.450   2.744 -0.0712 -0.4179 -0.2595
 1482SOL    HW2 5973   0.443   2.540   2.714 -0.5096 -0.1090  0.7808
 1482SOL    HW3 5974   0.544   2.428   2.729  0.0645  0.2494 -0.3864
 1482SOL    MW4 5975   0.463   2.459   2.738 -0.1111 -0.2892 -0.1390
 1483SOL     OW 5976   0.437   2.702   2.633  0.0191  0.4755 -0.3633
 1483SOL    HW2 5977   0.514   2.754   2.655 -0.2295  0.3655  0.8199
 1483SOL    HW3 5978   0.363   2.761   2.648 -0.3590 -0.5929  2.3919
 1483SOL    MW4 5979   0.437   2.717   2.638 -0.0636  0.3202  0.1564
 1484SOL     OW 5980   0.672   2.841   2.705  0.0182  0.1936  0.6462
 1484SOL    HW2 5981   0.655   2.847   2.799 -0.3726 -0.0970  0.5951
 1484SOL    HW3 5982   0.662   2.931   2.673  0.1042  0.2844  0.8737
 1484SOL    MW4 5983   0.669   2.854   2.713 -0.0220  0.1671  0.6692
 1485SOL     OW 5984   0.700   3.117   2.622 -0.5380  0.0646  0.0687
 1485SOL    HW2 5985   0.783   3.139   2.663 -1.8702  1.0842  2.2947
 1485SOL    HW3 5986   0.721   3.106   2.529  2.0937  0.1191  0.6260
 1485SOL    MW4 5987   0.713   3.118   2.615 -0.3666  0.2062  0.4356
 1486SOL     OW 5988   0.469   3.227   2.728 -0.0030 -0.4054  0.4984
 1486SOL    HW2 5989   0.488   3.224   2.822  0.4666 -0.9875  0.3899
 1486SOL    HW3 5990   0.550   3.196   2.686 -0.7769 -1.7624 -0.0258
 1486SOL    MW4 5991   0.483   3.223   2.735 -0.0432 -0.6614  0.4151
 1487SOL     OW 5992   0.440   3.472   2.635  0.0256 -0.7434  0.5265
 1487SOL    HW2 5993   0.448   3.378   2.650  1.0447 -0.9170 -1.0392
 1487SOL    HW3 5994   0.459   3.483   2.542  0.3283  1.0642  0.7942
 1487SOL    MW4 5995   0.443   3.461   2.625  0.2000 -0.5281  0.3555
 1488SOL     OW 5996   0.663   3.605   2.735  0.0920 -0.2632 -0.2235
 1488SOL    HW2 5997   0.673   3.622   2.829 -0.8238  2.0878 -0.5125
 1488SOL    HW3 5998   0.583   3.554   2.728  0.0005 -0.1845  0.2426
 1488SOL    MW4 5999   0.654   3.600   2.747 -0.0409  0.0577 -0.2000
 1489SOL     OW 6000   0.648   3.880   2.665 -0.3440  0.2183 -0.5420
 1489SOL    HW2 6001   0.564   3.907   2.700  0.1382 -0.9403  1.6473
 1489SOL    HW3 6002   0.652   3.786   2.683  1.1067  0.1280 -1.2604
 1489SOL    MW4 6003   0.638   3.871   2.672 -0.0889  0.0534 -0.3479
 1490SOL     OW 6004   0.411   3.998   2.754 -0.1748 -0.0965  0.2349
 1490SOL    HW2 6005   0.431   4.086   2.723  1.6461 -0.1149  1.2917
 1490SOL    HW3 6006   0.333   3.972   2.705 -1.2348  2.4310  0.5473
 1490SOL    MW4 6007   0.404   4.006   2.743 -0.0744  0.2346  0.4158
 1491SOL     OW 6008   0.424   4.259   2.645  0.1883 -0.3774 -0.2431
 1491SOL    HW2 6009   0.505   4.279   2.693 -0.3332 -0.5883  0.7312
 1491SOL    HW3 6010   0.445   4.281   2.554  1.2018 -0.0099  0.0641
 1491SOL    MW4 6011   0.438   4.265   2.640  0.2532 -0.3562 -0.0739
 1492SOL     OW 6012   0.645   4.376   2.749  0.4460  0.3097 -0.1768
 1492SOL    HW2 6013   0.714   4.325   2.706  1.1255  0.6302  0.5221
 1492SOL    HW3 6014   0.660   4.466   2.719  0.3896  0.3916  0.0427
 1492SOL    MW4 6015   0.656   4.381   2.739  0.5282  0.3619 -0.0553
 1493SOL     OW 6016   1.162   4.595   2.642  0.3582 -0.5994 -0.1847
 1493SOL    HW2 6017   1.225   4.652   2.687 -1.3457  1.3060 -0.1724
 1493SOL    HW3 6018   1.167   4.512   2.690  0.8121  0.4311  1.5942
 1493SOL    MW4 6019   1.171   4.592   2.654  0.1932 -0.2122  0.0515
 1494SOL     OW 6020   0.924   0.092   2.715 -0.6313 -0.0829  0.5309
 1494SOL    HW2 6021   0.944   0.102   2.808  1.6249  1.2166 -0.0693
 1494SOL    HW3 6022   1.005   0.062   2.675 -1.6116 -0.7615 -1.0156
 1494SOL    MW4 6023   0.937   0.089   2.722 -0.4630 -0.0010  0.2477
 1495SOL     OW 6024   0.916   0.357   2.634 -0.4628 -0.4640 -0.1026
 1495SOL    HW2 6025   0.906   0.265   2.662 -2.6119 -0.6355 -1.3198
 1495SOL    HW3 6026   0.925   0.353   2.539  1.7120  0.4675  0.0354
 1495SOL    MW4 6027   0.916   0.344   2.626 -0.4594 -0.3637 -0.2453
 1496SOL     OW 6028   1.148   0.496   2.743  0.0445  0.7257  0.2209
 1496SOL    HW2 6029   1.151   0.582   2.701 -0.3030  1.1443  1.0485
 1496SOL    HW3 6030   1.079   0.449   2.696  0.0402  0.9947 -0.0433
 1496SOL    MW4 6031   1.139   0.501   2.731 -0.0019  0.8164  0.2952
 1497SOL     OW 6032   1.130   0.769   2.666 -0.2422  0.2904  0.2168
 1497SOL    HW2 6033   1.198   0.804   2.723 -1.2566  0.3384  1.4217
 1497SOL    HW3 6034   1.164   0.782   2.577  1.4207  0.0558  0.8049
 1497SOL    MW4 6035   1.143   0.776   2.662 -0.1568  0.2658  0.4532
 1498SOL     OW 6036   0.916   0.913   2.760 -0.1028 -0.1146 -0.5587
 1498SOL    HW2 6037   0.910   0.902   2.855  1.1430  2.2809 -0.1744
 1498SOL    HW3 6038   0.991   0.860   2.734 -0.5604 -0.9271 -0.2620
 1498SOL    MW4 6039   0.925   0.905   2.769  0.0013  0.0942 -0.4687
 1499SOL     OW 6040   0.902   1.183   2.682 -0.0930  0.2951 -0.1576
 1499SOL    HW2 6041   0.891   1.089   2.690  1.0594  0.1392 -0.3441
 1499SOL    HW3 6042   0.887   1.202   2.590 -0.0674  0.2599 -0.1687
 1499SOL    MW4 6043   0.899   1.173   2.671  0.0624  0.2699 -0.1836
 1500SOL     OW 6044   1.150   1.292   2.791  0.1897 -0.0276 -0.5333
 1500SOL    HW2 6045   1.156   1.377   2.747 -0.9360  0.2849 -0.1047
 1500SOL    HW3 6046   1.069   1.254   2.756 -0.0058 -0.3491  0.2736
 1500SOL    MW4 6047   1.140   1.298   2.780  0.0155 -0.0288 -0.3705
 1501SOL     OW 6048   1.156   1.534   2.634 -0.3551 -0.5000 -0.0411
 1501SOL    HW2 6049   1.074   1.574   2.662 -0.0336  0.8281 -0.9204
 1501SOL    HW3 6050   1.145   1.520   2.540  0.6481  0.2739 -0.2823
 1501SOL    MW4 6051   1.144   1.537   2.625 -0.1804 -0.2227 -0.1893
 1502SOL     OW 6052   0.927   1.652   2.767  0.0120  0.1970 -0.3277
 1502SOL    HW2 6053   0.928   1.635   2.861  0.3733  0.6095 -0.2554
 1502SOL    HW3 6054   0.846   1.612   2.736 -0.6001  0.9514  0.3172
 1502SOL    MW4 6055   0.917   1.644   2.775 -0.0212  0.3511 -0.2329
 1503SOL     OW 6056   0.889   1.910   2.658 -0.0981 -0.4551 -0.0248
 1503SOL    HW2 6057   0.968   1.956   2.685 -0.4790 -0.3855  0.9805
 1503SOL    HW3 6058   0.896   1.824   2.699 -0.0650 -0.8023 -0.7505
 1503SOL    MW4 6059   0.900   1.905   2.667 -0.1441 -0.4917  0.0122
 1504SOL     OW 6060   1.111   2.061   2.757  0.6331  0.4373  0.8365
 1504SOL    HW2 6061   1.182   2.012   2.716 -0.0054  0.7538 -0.6735
 1504SOL    HW3 6062   1.099   2.138   2.701 -0.0015  1.0670  1.8210
 1504SOL    MW4 6063   1.118   2.065   2.744  0.4653  0.5620  0.7672
 1505SOL     OW 6064   1.121   2.333   2.650  0.7293 -0.4020  0.5580
 1505SOL    HW2 6065   1.198   2.380   2.681 -0.1358  0.6518  1.1594
 1505SOL    HW3 6066   1.122   2.346   2.555  0.6992  0.5454  0.6794
 1505SOL    MW4 6067   1.131   2.341   2.641  0.6113 -0.1380  0.6535
 1506SOL     OW 6068   0.894   2.462   2.766 -0.2401 -0.1624 -0.1301
 1506SOL    HW2 6069   0.877   2.535   2.707  0.6120  0.3164  0.2023
 1506SOL    HW3 6070   0.973   2.421   2.731  0.7865  0.6550  1.1422
 1506SOL    MW4 6071   0.902   2.466   2.754  0.0077  0.0086  0.0815
 1507SOL     OW 6072   0.878   2.692   2.605 -0.1357 -0.3945  0.2803
 1507SOL    HW2 6073   0.944   2.746   2.648  0.2482 -0.9166  0.3444
 1507SOL    HW3 6074   0.795   2.736   2.625  0.3202  1.2646 -1.2618
 1507SOL    MW4 6075   0.876   2.705   2.613 -0.0249 -0.2444  0.0854
 1508SOL     OW 6076   1.086   2.834   2.731  0.2506 -0.1872  0.0678
 1508SOL    HW2 6077   1.089   2.845   2.826  1.3467 -0.0644  0.0273
 1508SOL    HW3 6078   1.177   2.819   2.706  0.4022  2.7244 -1.3016
 1508SOL    MW4 6079   1.098   2.833   2.740  0.4151  0.2131 -0.1183
 1509SOL     OW 6080   1.148   3.096   2.658  0.0000  0.0000 -0.1172
 1509SOL    HW2 6081   1.122   3.007   2.681  0.0000  0.0000 -0.1182
 1509SOL    HW3 6082   1.136   3.101   2.564  0.0000  0.0000 -0.1173
 1509SOL    MW4 6083   1.143   3.085   2.649  0.0000  0.0000 -0.1173
 1510SOL     OW 6084   0.919   3.208   2.776  0.0000  0.0000 -0.3446
 1510SOL    HW2 6085   0.903   3.287   2.724  0.0000  0.0000 -0.3489
 1510SOL    HW3 6086   1.006   3.179   2.747  0.0000  0.0000 -0.3424
 1510SOL    MW4 6087   0.928   3.215   2.766  0.0000  0.0000 -0.3450
 1511SOL     OW 6088   0.887   3.462   2.656  0.0000  0.0000  0.0473
 1511SOL    HW2 6089   0.960   3.507   2.699  0.0000  0.0000  0.0128
 1511SOL    HW3 6090   0.810   3.511   2.684  0.0000  0.0000  0.0968
 1511SOL    MW4 6091   0.886   3.475   2.665  0.0000  0.0000  0.0491
 1512SOL     OW 6092   1.102   3.599   2.762  0.0000  0.0000 -0.3279
 1512SOL    HW2 6093   1.101   3.626   2.854  0.0000  0.0000 -0.3269
 1512SOL    HW3 6094   1.100   3.681   2.713  0.0000  0.0000 -0.3252
 1512SOL    MW4 6095   1.102   3.613   2.768  0.0000  0.0000 -0.3273
 1513SOL     OW 6096   1.098   3.851   2.621  0.0000  0.0000  0.3040
 1513SOL    HW2 6097   1.178   3.889   2.659  0.0000  0.0000  0.3126
 1513SOL    HW3 6098   1.110   3.859   2.526  0.0000  0.0000  0.3055
 1513SOL    MW4 6099   1.110   3.857   2.613  0.0000  0.0000  0.3054
 1514SOL     OW 6100   0.893   4.008   2.739  0.0000  0.0000  0.1734
 1514SOL    HW2 6101   0.958   3.963   2.684  0.0000  0.0000  0.1949
 1514SOL    HW3 6102   0.809   3.970   2.713  0.0000  0.0000  0.1376
 1514SOL    MW4 6103   0.890   3.997   2.729  0.0000  0.0000  0.1714
 1515SOL     OW 6104   0.888   4.266   2.652  0.0000  0.0000  0.4727
 1515SOL    HW2 6105   0.892   4.174   2.678  0.0000  0.0000  0.4720
 1515SOL    HW3 6106   0.884   4.265   2.557  0.0000  0.0000  0.4726
 1515SOL    MW4 6107   0.888   4.254   2.643  0.0000  0.0000  0.4725
 1516SOL     OW 6108   1.144   4.351   2.773  0.0000  0.0000 -0.3016
 1516SOL    HW2 6109   1.137   4.378   2.865  0.0000  0.0000 -0.3018
 1516SOL    HW3 6110   1.055   4.327   2.748  0.0000  0.0000 -0.3048
 1516SOL    MW4 6111   1.131   4.351   2.782  0.0000  0.0000 -0.3021
 1517SOL     OW 6112   1.593   4.643   2.699  0.0000  0.0000 -0.3719
 1517SOL    HW2 6113   1.588   4.549   2.715  0.0000  0.0000 -0.3869
 1517SOL    HW3 6114   1.581   4.652   2.604  0.0000  0.0000 -0.3707
 1517SOL    MW4 6115   1.591   4.632   2.689  0.0000  0.0000 -0.3736
 1518SOL     OW 6116   1.350   0.105   2.753 -0.2586 -0.0231  0.1427
 1518SOL    HW2 6117   1.352   0.195   2.720  0.6621 -0.3782 -0.8398
 1518SOL    HW3 6118   1.434   0.068   2.726 -0.1028 -0.8027  1.6331
 1518SOL    MW4 6119   1.361   0.112   2.745 -0.1165 -0.1728  0.2098
 1519SOL     OW 6120   1.360   0.346   2.646  0.0286  0.2360 -0.2790
 1519SOL    HW2 6121   1.444   0.378   2.677  0.1747 -0.6615  0.2761
 1519SOL    HW3 6122   1.295   0.403   2.688  0.2824 -0.1781  0.6927
 1519SOL    MW4 6123   1.363   0.358   2.656  0.0813  0.0630 -0.0775
 1520SOL     OW 6124   1.589   0.491   2.760  0.5331  0.3048 -0.0062
 1520SOL    HW2 6125   1.664   0.460   2.710  0.1541  1.0772 -1.0865
 1520SOL    HW3 6126   1.576   0.581   2.730 -0.6652  0.2650  0.3611
 1520SOL    MW4 6127   1.597   0.499   2.750  0.3250  0.4015 -0.0999
 1521SOL     OW 6128   1.561   0.760   2.681  0.6112 -0.0104 -0.1424
 1521SOL    HW2 6129   1.481   0.809   2.704  0.5250  0.1498 -0.7601
 1521SOL    HW3 6130   1.570   0.774   2.587 -0.0414 -2.1145 -0.5447
 1521SOL    MW4 6131   1.551   0.769   2.671  0.5138 -0.2669 -0.2773
 1522SOL     OW 6132   1.331   0.912   2.775  0.2162 -0.3583  0.3158
 1522SOL    HW2 6133   1.355   0.907   2.867 -0.5199 -0.6624  0.4984
 1522SOL    HW3 6134   1.358   0.999   2.747 -1.4963  0.5307  1.3750
 1522SOL    MW4 6135   1.338   0.923   2.783 -0.1068 -0.2811  0.4797
 1523SOL     OW 6136   1.376   1.175   2.667 -0.2493  0.6186  0.4523
 1523SOL    HW2 6137   1.447   1.222   2.710 -0.5639  0.4023  1.2214
 1523SOL    HW3 6138   1.297   1.208   2.708 -0.5758  0.5796 -0.1337
 1523SOL    MW4 6139   1.375   1.185   2.678 -0.3338  0.5847  0.4764
 1524SOL     OW 6140   1.579   1.316   2.814 -0.0431  0.2346  0.0778
 1524SOL    HW2 6141   1.593   1.308   2.909 -0.0329  0.8354  0.1270
 1524SOL    HW3 6142   1.645   1.258   2.775  1.1734  1.4110  0.3692
 1524SOL    MW4 6143   1.589   1.307   2.822  0.1187  0.4691  0.1230
 1525SOL     OW 6144   1.625   1.564   2.682  0.5300 -0.2726 -0.5331
 1525SOL    HW2 6145   1.614   1.479   2.724  0.0765 -0.4675 -1.0429
 1525SOL    HW3 6146   1.615   1.546   2.589  0.2215  0.3732 -0.6254
 1525SOL    MW4 6147   1.622   1.550   2.675  0.4294 -0.2133 -0.6125
 1526SOL     OW 6148   1.347   1.681   2.752  0.6435 -0.4983  0.1687
 1526SOL    HW2 6149   1.435   1.647   2.736  0.7486  0.2723 -0.9433
 1526SOL    HW3 6150   1.290   1.627   2.697  0.4950 -0.5654  0.3856
 1526SOL    MW4 6151   1.351   1.669   2.743  0.6377 -0.4053  0.0508
 1527SOL     OW 6152   1.358   1.934   2.660 -0.2754  0.1200  0.5930
 1527SOL    HW2 6153   1.323   1.853   2.698  1.5871 -0.4224  1.2113
 1527SOL    HW3 6154   1.356   1.919   2.566 -0.5713 -0.3827  0.6756
 1527SOL    MW4 6155   1.353   1.922   2.653 -0.0685 -0.0181  0.6852
 1528SOL     OW 6156   1.541   2.113   2.780 -0.1681  0.1553  0.3507
 1528SOL    HW2 6157   1.619   2.084   2.731  0.0216 -2.5078  2.0860
 1528SOL    HW3 6158   1.468   2.069   2.737 -0.3788  0.3869  0.4723
 1528SOL    MW4 6159   1.542   2.103   2.768 -0.1708 -0.1657  0.5956
 1529SOL     OW 6160   1.558   2.348   2.621 -0.7932 -0.2095  0.0722
 1529SOL    HW2 6161   1.615   2.417   2.654 -0.2269 -0.2014 -0.8974
 1529SOL    HW3 6162   1.574   2.274   2.680 -1.9945  0.7085  1.6052
 1529SOL    MW4 6163   1.567   2.347   2.633 -0.8770 -0.0870  0.1464
 1530SOL     OW 6164   1.345   2.762   2.646  0.1524  0.0256  0.1295
 1530SOL    HW2 6165   1.416   2.812   2.687  0.4377 -0.8359  0.6930
 1530SOL    HW3 6166   1.345   2.678   2.692  0.3080 -0.8687 -1.4570
 1530SOL    MW4 6167   1.354   2.757   2.658  0.2105 -0.2060 -0.0055
 1531SOL     OW 6168   1.356   2.717   2.378  1.0771  0.2933  0.1377
 1531SOL    HW2 6169   1.352   2.729   2.473  1.0187  1.2211  0.0144
 1531SOL    HW3 6170   1.437   2.758   2.351  0.6856  0.7699 -0.3293
 1531SOL    MW4 6171   1.366   2.724   2.387  1.0178  0.4787  0.0596
 1532SOL     OW 6172   1.551   2.869   2.804  0.3629  0.1870 -0.5166
 1532SOL    HW2 6173   1.554   2.869   2.900  0.6796  0.5410 -0.5220
 1532SOL    HW3 6174   1.605   2.794   2.779 -0.2111 -0.2607 -0.4078
 1532SOL    MW4 6175   1.559   2.859   2.814  0.3290  0.1748 -0.5031
 1533SOL     OW 6176   1.566   3.131   2.682  0.6691  0.2384 -0.3482
 1533SOL    HW2 6177   1.643   3.180   2.713  0.2966 -0.3593  1.5942
 1533SOL    HW3 6178   1.581   3.041   2.712 -0.3182 -0.0868 -0.8148
 1533SOL    MW4 6179   1.578   3.126   2.690  0.4897  0.1168 -0.1535
 1534SOL     OW 6180   1.343   3.205   2.815  0.2256  0.5034  0.0126
 1534SOL    HW2 6181   1.427   3.181   2.776  0.9951  1.3658  1.1018
 1534SOL    HW3 6182   1.279   3.150   2.771  1.4609 -0.7110 -0.2820
 1534SOL    MW4 6183   1.346   3.195   2.804  0.4900  0.4568  0.1175
 1535SOL     OW 6184   1.292   3.443   2.640  0.3376 -0.1585  0.1511
 1535SOL    HW2 6185   1.298   3.361   2.690 -0.5886 -0.3701 -0.0742
 1535SOL    HW3 6186   1.225   3.494   2.686  0.9320  0.4893  0.3084
 1535SOL    MW4 6187   1.284   3.439   2.653  0.2937 -0.1006  0.1421
 1536SOL     OW 6188   1.565   3.603   2.742  0.1003 -0.4121  0.3482
 1536SOL    HW2 6189   1.637   3.551   2.707 -0.4447 -0.0570 -1.3815
 1536SOL    HW3 6190   1.487   3.569   2.698 -0.4848  0.7089  0.4917
 1536SOL    MW4 6191   1.564   3.592   2.731 -0.0488 -0.2177  0.1390
 1537SOL     OW 6192   1.586   3.841   2.641 -0.0040 -0.3604 -0.3655
 1537SOL    HW2 6193   1.515   3.875   2.695  0.4571  0.9494 -0.5827
 1537SOL    HW3 6194   1.602   3.753   2.676 -0.4484  0.0614  0.9273
 1537SOL    MW4 6195   1.579   3.834   2.653 -0.0017 -0.1321 -0.2236
 1538SOL     OW 6196   1.351   3.947   2.754  0.1096 -0.3479  0.2145
 1538SOL    HW2 6197   1.341   3.957   2.848  1.3639 -0.4207  0.3734
 1538SOL    HW3 6198   1.350   4.036   2.719 -0.0104 -0.3011  0.3393
 1538SOL    MW4 6199   1.350   3.960   2.762  0.2594 -0.3514  0.2518
 1539SOL     OW 6200   1.359   4.200   2.653  0.5006  0.0892  0.1587
 1539SOL    HW2 6201   1.283   4.249   2.681  0.8094  1.2983 -1.0665
 1539SOL    HW3 6202   1.357   4.204   2.557  2.2313  0.3408  0.1074
 1539SOL    MW4 6203   1.349   4.207   2.644  0.7696  0.2823 -0.0098
 1540SOL     OW 6204   1.580   4.375   2.753  0.5148 -0.0850 -0.1949
 1540SOL    HW2 6205   1.572   4.383   2.848 -2.1000  4.1293 -0.6592
 1540SOL    HW3 6206   1.503   4.325   2.727  0.5280 -0.1018 -0.2019
 1540SOL    MW4 6207   1.569   4.369   2.763  0.1715  0.4692 -0.2573
 1541SOL     OW 6208   2.039   4.632   2.727 -0.1988 -0.1077  0.1635
 1541SOL    HW2 6209   2.110   4.690   2.755 -1.4180  1.5494 -0.1445
 1541SOL    HW3 6210   2.046   4.630   2.631 -0.1873 -0.4473  0.1705
 1541SOL    MW4 6211   2.049   4.639   2.718 -0.3581  0.0658  0.1237
 1542SOL     OW 6212   1.812   0.133   2.760 -0.1836  0.0321  0.0001
 1542SOL    HW2 6213   1.884   0.074   2.738 -1.1615 -0.7447 -1.1655
 1542SOL    HW3 6214   1.734   0.078   2.755 -0.9939  1.1762 -0.0637
 1542SOL    MW4 6215   1.811   0.118   2.756 -0.4196  0.0805 -0.1621
 1543SOL     OW 6216   1.780   0.378   2.616 -0.1400 -0.0501  0.7485
 1543SOL    HW2 6217   1.847   0.436   2.652  0.1656  0.6330 -0.8568
 1543SOL    HW3 6218   1.795   0.293   2.658  2.6708 -0.2882 -0.6245
 1543SOL    MW4 6219   1.791   0.374   2.626  0.2712  0.0086  0.3557
 1544SOL     OW 6220   1.986   0.515   2.747  0.0644  0.2606 -0.0875
 1544SOL    HW2 6221   2.019   0.597   2.710 -1.4603  0.7930 -0.2954
 1544SOL    HW3 6222   1.983   0.530   2.841  3.0562 -0.7747  0.2477
 1544SOL    MW4 6223   1.990   0.527   2.754  0.2580  0.1943 -0.0706
 1545SOL     OW 6224   2.053   0.771   2.677 -0.4418  0.7289  0.0261
 1545SOL    HW2 6225   1.964   0.799   2.698 -0.6098 -0.6809  1.2656
 1545SOL    HW3 6226   2.058   0.776   2.582 -2.2298 -0.2977 -0.1275
 1545SOL    MW4 6227   2.042   0.776   2.667 -0.6998  0.4073  0.1693
 1546SOL     OW 6228   1.797   0.854   2.766  0.1568  0.5033  0.6192
 1546SOL    HW2 6229   1.790   0.946   2.743 -2.2029  0.3637  0.7353
 1546SOL    HW3 6230   1.718   0.813   2.730  1.6887 -1.6861 -0.3857
 1546SOL    MW4 6231   1.786   0.860   2.759  0.0477  0.1960  0.5021
 1547SOL     OW 6232   1.768   1.116   2.710  0.3631  0.0879  0.4507
 1547SOL    HW2 6233   1.835   1.173   2.747  2.0687 -1.8145  0.3822
 1547SOL    HW3 6234   1.787   1.114   2.616 -0.0129 -0.1784  0.3761
 1547SOL    MW4 6235   1.779   1.123   2.702  0.5385 -0.1982  0.4320
 1548SOL     OW 6236   1.960   1.287   2.841  0.5554  0.7727  1.0106
 1548SOL    HW2 6237   1.976   1.293   2.936  2.4031 -0.5895  0.8079
 1548SOL    HW3 6238   2.043   1.256   2.805 -0.8084 -0.7916 -0.8193
 1548SOL    MW4 6239   1.973   1.284   2.849  0.6193  0.3865  0.7424
 1549SOL     OW 6240   2.009   1.554   2.723 -0.0314  0.2744  0.4890
 1549SOL    HW2 6241   1.941   1.610   2.761  0.5106  0.8761  0.5629
 1549SOL    HW3 6242   2.001   1.471   2.771 -2.5652 -0.6403 -1.3796
 1549SOL    MW4 6243   1.999   1.550   2.734 -0.2942  0.2331  0.2522
 1550SOL     OW 6244   1.795   1.760   2.790  0.1435  0.1052 -0.6166
 1550SOL    HW2 6245   1.791   1.736   2.883  1.5705  0.8631 -0.3495
 1550SOL    HW3 6246   1.730   1.703   2.748 -0.1533 -0.6021  0.7609
 1550SOL    MW4 6247   1.786   1.749   2.797  0.2928  0.1119 -0.3998
 1551SOL     OW 6248   1.780   2.013   2.654  0.0607 -0.0440  0.1481
 1551SOL    HW2 6249   1.864   2.058   2.662  0.0953 -0.0489 -0.2027
 1551SOL    HW3 6250   1.786   1.940   2.716  0.9006 -0.9377 -0.9754
 1551SOL    MW4 6251   1.792   2.009   2.664  0.1760 -0.1628 -0.0465
 1552SOL     OW 6252   2.016   2.123   2.723 -0.1996  0.5047  0.6099
 1552SOL    HW2 6253   2.008   2.102   2.817  0.2341  1.1552  0.7932
 1552SOL    HW3 6254   2.016   2.219   2.720 -0.1963  0.4823 -0.0604
 1552SOL    MW4 6255   2.015   2.133   2.735 -0.1419  0.5875  0.5455
 1553SOL     OW 6256   2.034   2.403   2.699  0.5248  0.2875 -0.2966
 1553SOL    HW2 6257   2.128   2.416   2.711  0.6144  0.5771 -1.2624
 1553SOL    HW3 6258   2.024   2.387   2.606 -0.4285  0.6522 -0.2630
 1553SOL    MW4 6259   2.045   2.403   2.688  0.4108  0.3736 -0.4194
 1554SOL     OW 6260   1.754   2.467   2.774 -0.5879  0.3145  0.6513
 1554SOL    HW2 6261   1.747   2.481   2.869  0.4054  0.5111  0.7087
 1554SOL    HW3 6262   1.845   2.441   2.761 -1.1626 -1.3948 -0.0580
 1554SOL    MW4 6263   1.765   2.466   2.785 -0.5326  0.1149  0.5655
 1555SOL     OW 6264   1.719   2.717   2.658  0.5632  0.0635  0.3740
 1555SOL    HW2 6265   1.742   2.629   2.691  0.2060 -0.1055  0.1754
 1555SOL    HW3 6266   1.752   2.718   2.568 -0.0261 -0.1069  0.1558
 1555SOL    MW4 6267   1.727   2.705   2.651  0.4383  0.0188  0.3188
 1556SOL     OW 6268   1.992   2.814   2.786  0.1597  0.4778 -0.4511
 1556SOL    HW2 6269   2.061   2.758   2.751  0.5278 -0.0179  1.0250
 1556SOL    HW3 6270   1.911   2.775   2.752  0.4283 -0.7939  0.3319
 1556SOL    MW4 6271   1.990   2.801   2.777  0.2439  0.2444 -0.1531
 1557SOL     OW 6272   2.003   3.070   2.666 -0.3070  0.7451  0.3180
 1557SOL    HW2 6273   1.994   2.980   2.696 -0.6604  0.8223  0.4470
 1557SOL    HW3 6274   2.007   3.064   2.571 -1.8996  0.7192  0.2482
 1557SOL    MW4 6275   2.002   3.058   2.658 -0.5636  0.7517  0.3257
 1558SOL     OW 6276   1.810   3.222   2.775  0.5147 -0.2549  0.2166
 1558SOL    HW2 6277   1.818   3.304   2.727 -1.7041 -0.7910 -1.1365
 1558SOL    HW3 6278   1.882   3.168   2.743 -0.4601 -0.3088 -1.9139
 1558SOL    MW4 6279   1.820   3.226   2.765  0.0933 -0.3326 -0.2429
 1559SOL     OW 6280   1.785   3.457   2.635 -0.6030 -0.1865 -0.1066
 1559SOL    HW2 6281   1.864   3.498   2.671 -1.1851  1.0005 -0.1382
 1559SOL    HW3 6282   1.796   3.463   2.540 -1.2540  1.0557 -0.1169
 1559SOL    MW4 6283   1.797   3.463   2.627 -0.7657  0.1340 -0.1125
 1560SOL     OW 6284   1.994   3.574   2.771  0.2510 -0.0794  0.2957
 1560SOL    HW2 6285   1.998   3.611   2.859  1.2375  0.2831  0.1004
 1560SOL    HW3 6286   2.082   3.540   2.755 -0.4726 -1.9829  0.2353
 1560SOL    MW4 6287   2.006   3.574   2.780  0.2856 -0.2828  0.2620
 1561SOL     OW 6288   2.015   3.840   2.671  0.0273 -0.1166  0.1623
 1561SOL    HW2 6289   1.937   3.879   2.712 -0.2896 -0.0474 -0.4920
 1561SOL    HW3 6290   2.012   3.748   2.697 -0.6833 -0.2785 -0.4455
 1561SOL    MW4 6291   2.004   3.833   2.680 -0.1085 -0.1287 -0.0043
 1562SOL     OW 6292   1.803   3.955   2.781 -0.1122  0.2027 -0.0481
 1562SOL    HW2 6293   1.807   4.048   2.758 -0.9175 -0.0068 -1.0493
 1562SOL    HW3 6294   1.728   3.921   2.732 -0.5557 -0.7221  1.2498
 1562SOL    MW4 6295   1.794   3.963   2.772 -0.2769  0.0532 -0.0091
 1563SOL     OW 6296   1.797   4.223   2.685  0.3875 -0.2174 -0.4196
 1563SOL    HW2 6297   1.723   4.278   2.710  1.0137  0.3413  0.2168
 1563SOL    HW3 6298   1.810   4.242   2.592  1.2329  1.4838  0.0244
 1563SOL    MW4 6299   1.789   4.233   2.676  0.5816  0.0815 -0.2770
 1564SOL     OW 6300   2.046   4.378   2.791  0.5792 -0.2240  0.3172
 1564SOL    HW2 6301   1.961   4.341   2.769  0.2109  0.5200  0.4929
 1564SOL    HW3 6302   2.043   4.467   2.757  1.4530 -0.3359 -0.0625
 1564SOL    MW4 6303   2.034   4.384   2.784  0.6461 -0.1407  0.2904
 1565SOL     OW 6304   2.456   4.621   2.704 -0.5065 -0.0520 -0.2177
 1565SOL    HW2 6305   2.529   4.681   2.720 -1.3483  1.1138 -0.6493
 1565SOL    HW3 6306   2.448   4.618   2.608  0.6654 -2.2673 -0.2761
 1565SOL    MW4 6307   2.464   4.629   2.693 -0.4630 -0.1907 -0.2825
 1566SOL     OW 6308   2.259   0.119   2.783 -0.0866 -0.1275  0.1796
 1566SOL    HW2 6309   2.272   0.119   2.878  0.0892  0.2909  0.1573
 1566SOL    HW3 6310   2.328   0.061   2.750 -0.3796 -0.5600  0.3405
 1566SOL    MW4 6311   2.270   0.112   2.791 -0.1020 -0.1294  0.1979
 1567SOL     OW 6312   2.226   0.370   2.627 -0.2227  0.6439  0.2820
 1567SOL    HW2 6313   2.148   0.403   2.671 -0.1337  0.8895  0.2554
 1567SOL    HW3 6314   2.246   0.288   2.673 -1.6154 -0.4199 -0.9499
 1567SOL    MW4 6315   2.218   0.363   2.639 -0.3946  0.5360  0.1156
 1568SOL     OW 6316   2.454   0.501   2.743  0.2576 -0.4265 -0.8440
 1568SOL    HW2 6317   2.447   0.593   2.719 -1.1955 -0.6541 -1.3184
 1568SOL    HW3 6318   2.382   0.458   2.696  0.1448 -1.6026  0.3776
 1568SOL    MW4 6319   2.444   0.507   2.733  0.0510 -0.6117 -0.7458
 1569SOL     OW 6320   2.467   0.790   2.666 -0.0472 -0.4421 -0.1106
 1569SOL    HW2 6321   2.385   0.836   2.686 -0.0248 -0.6846  0.5275
 1569SOL    HW3 6322   2.469   0.787   2.570 -0.0492  0.8859 -0.1628
 1569SOL    MW4 6323   2.456   0.796   2.656 -0.0446 -0.2989 -0.0334
 1570SOL     OW 6324   2.247   0.933   2.767  0.0992  0.0435  0.2294
 1570SOL    HW2 6325   2.266   0.916   2.859 -0.2914 -1.0493  0.1140
 1570SOL    HW3 6326   2.178   0.870   2.745  0.9766 -0.4659 -1.1138
 1570SOL    MW4 6327   2.240   0.923   2.776  0.1633 -0.1680  0.0370
 1571SOL     OW 6328   2.198   1.192   2.696  1.0424 -0.0526  0.2064
 1571SOL    HW2 6329   2.209   1.098   2.711  1.4234 -0.0162  0.1734
 1571SOL    HW3 6330   2.225   1.205   2.605  1.1836  0.1165  0.2705
 1571SOL    MW4 6331   2.203   1.182   2.686  1.1113 -0.0255  0.2103
 1572SOL     OW 6332   2.436   1.330   2.755  0.1642  0.2032 -0.7512
 1572SOL    HW2 6333   2.488   1.268   2.704 -0.2593 -0.0528 -0.8705
 1572SOL    HW3 6334   2.346   1.300   2.745  0.3083 -1.6348  2.5215
 1572SOL    MW4 6335   2.431   1.318   2.747  0.1276 -0.0731 -0.3350
 1573SOL     OW 6336   2.473   1.583   2.665  0.7938 -0.4296 -0.5173
 1573SOL    HW2 6337   2.384   1.617   2.671  0.3686 -0.9304 -3.3241
 1573SOL    HW3 6338   2.468   1.497   2.706  0.4246  0.2968  0.9848
 1573SOL    MW4 6339   2.461   1.576   2.671  0.6890 -0.3998 -0.6895
 1574SOL     OW 6340   2.253   1.706   2.743 -0.1454  0.1868 -0.0887
 1574SOL    HW2 6341   2.245   1.799   2.722 -1.3739 -0.4083 -2.3372
 1574SOL    HW3 6342   2.165   1.671   2.734  0.5080 -1.4363 -0.4088
 1574SOL    MW4 6343   2.240   1.713   2.739 -0.2213 -0.1060 -0.4272
 1575SOL     OW 6344   2.231   1.957   2.705  0.9489 -0.3627  0.3801
 1575SOL    HW2 6345   2.160   2.021   2.716  1.3989  0.2914 -0.5166
 1575SOL    HW3 6346   2.240   1.947   2.610  0.2935 -2.4195  0.5036
 1575SOL    MW4 6347   2.223   1.964   2.694  0.9217 -0.5476  0.2780
 1576SOL     OW 6348   2.497   2.013   2.794 -0.0505 -0.4945  0.4176
 1576SOL    HW2 6349   2.500   2.105   2.767 -0.5414 -0.7637 -0.5676
 1576SOL    HW3 6350   2.410   1.983   2.768 -0.2611 -0.9655  1.6554
 1576SOL    MW4 6351   2.486   2.022   2.787 -0.1435 -0.5920  0.4508
 1577SOL     OW 6352   2.486   2.283   2.690 -0.0365 -0.7465 -0.1956
 1577SOL    HW2 6353   2.564   2.337   2.696 -0.8840  0.6806 -1.6022
 1577SOL    HW3 6354   2.480   2.259   2.597 -1.9444  0.2042 -0.3447
 1577SOL    MW4 6355   2.496   2.287   2.678 -0.4001 -0.4327 -0.4008
 1578SOL     OW 6356   2.289   2.465   2.771  0.0010  0.0388 -0.2350
 1578SOL    HW2 6357   2.276   2.451   2.865 -1.2923  0.7127 -0.3084
 1578SOL    HW3 6358   2.356   2.401   2.747 -1.2581 -1.6843  0.7027
 1578SOL    MW4 6359   2.296   2.454   2.780 -0.3357 -0.0999 -0.1206
 1579SOL     OW 6360   2.235   2.721   2.688  0.3762 -0.4284  0.5290
 1579SOL    HW2 6361   2.298   2.780   2.730  1.5085 -0.3615 -1.2054
 1579SOL    HW3 6362   2.267   2.633   2.708 -1.7430 -0.5633  3.7775
 1579SOL    MW4 6363   2.248   2.717   2.696  0.2460 -0.4375  0.7286
 1580SOL     OW 6364   2.447   2.848   2.799  1.0177  0.0268 -0.8998
 1580SOL    HW2 6365   2.524   2.805   2.761  1.8308  0.8660 -0.2119
 1580SOL    HW3 6366   2.451   2.937   2.765 -0.1179 -0.1528 -1.5150
 1580SOL    MW4 6367   2.458   2.854   2.789  0.9751  0.1140 -0.8903
 1581SOL     OW 6368   2.465   3.101   2.704  0.1068 -0.0227 -0.1128
 1581SOL    HW2 6369   2.380   3.144   2.714 -0.2052 -1.0238  1.7511
 1581SOL    HW3 6370   2.481   3.102   2.610 -1.1064  1.8205 -0.3297
 1581SOL    MW4 6371   2.456   3.106   2.693 -0.0942  0.0885  0.1047
 1582SOL     OW 6372   2.213   3.248   2.735  0.2986 -0.1289 -0.3727
 1582SOL    HW2 6373   2.218   3.235   2.830  2.8855 -1.8060 -0.6810
 1582SOL    HW3 6374   2.156   3.177   2.704 -0.2653  0.2106 -0.1213
 1582SOL    MW4 6375   2.206   3.237   2.743  0.5655 -0.3054 -0.3803
 1583SOL     OW 6376   2.244   3.515   2.661 -0.6162  0.1240 -0.3466
 1583SOL    HW2 6377   2.336   3.529   2.684 -0.3694 -0.5474 -0.8928
 1583SOL    HW3 6378   2.230   3.422   2.675 -1.1031  0.1474 -0.6637
 1583SOL    MW4 6379   2.254   3.505   2.666 -0.6483  0.0386 -0.4606
 1584SOL     OW 6380   2.483   3.613   2.758 -0.0647  0.1707  0.3987
 1584SOL    HW2 6381   2.463   3.635   2.849  0.6633 -0.2596  0.6705
 1584SOL    HW3 6382   2.487   3.697   2.713  0.2191  0.4309  0.9068
 1584SOL    MW4 6383   2.481   3.627   2.764  0.0687  0.1483  0.5014
 1585SOL     OW 6384   2.495   3.878   2.710  0.0457  0.1050  0.8616
 1585SOL    HW2 6385   2.561   3.918   2.766 -0.6208  0.6531  1.2670
 1585SOL    HW3 6386   2.412   3.912   2.743 -0.4251 -0.3967  0.2117
 1585SOL    MW4 6387   2.493   3.887   2.722 -0.1042  0.1111  0.8292
 1586SOL     OW 6388   2.261   3.972   2.805 -0.0433 -0.8760 -0.2702
 1586SOL    HW2 6389   2.255   3.975   2.901 -0.3537  1.9057 -0.3350
 1586SOL    HW3 6390   2.170   3.960   2.777 -0.2183  0.3995 -0.2601
 1586SOL    MW4 6391   2.248   3.970   2.814 -0.1075 -0.3409 -0.2773
 1587SOL     OW 6392   2.261   4.229   2.699  0.3823  0.2721 -0.0625
 1587SOL    HW2 6393   2.264   4.141   2.736 -0.9003 -0.0329 -0.6411
 1587SOL    HW3 6394   2.178   4.265   2.730  0.5534  0.9983 -0.4391
 1587SOL    MW4 6395   2.250   4.222   2.708  0.2358  0.3281 -0.1886
 1588SOL     OW 6396   2.466   4.370   2.828  0.0517  0.0322 -0.0153
 1588SOL    HW2 6397   2.384   4.331   2.796 -0.6465  0.6554  0.9563
 1588SOL    HW3 6398   2.466   4.459   2.793  0.0588  0.1990  0.4066
 1588SOL    MW4 6399   2.455   4.376   2.819 -0.0396  0.1359  0.1683
 1589SOL     OW 6400   2.868   4.596   2.667  0.3700 -0.4169  0.4509
 1589SOL    HW2 6401   2.951   4.635   2.695  0.8534 -0.7060 -0.5531
 1589SOL    HW3 6402   2.872   4.599   2.571 -0.1383 -1.7777  0.3910
 1589SOL    MW4 6403   2.879   4.602   2.658  0.3667 -0.6347  0.3104
 1590SOL     OW 6404   2.682   0.154   2.741  0.6360  0.7022  0.8401
 1590SOL    HW2 6405   2.676   0.140   2.836  1.7898  1.3847  1.0206
 1590SOL    HW3 6406   2.754   0.097   2.713  1.0937  1.4089  0.5659
 1590SOL    MW4 6407   2.691   0.144   2.750  0.8485  0.8855  0.8276
 1591SOL     OW 6408   2.698   0.408   2.642 -0.0700  0.4433 -0.2060
 1591SOL    HW2 6409   2.694   0.315   2.666  0.9383  0.4009 -0.1747
 1591SOL    HW3 6410   2.622   0.447   2.686 -1.7942 -0.7443 -2.0351
 1591SOL    MW4 6411   2.687   0.401   2.651 -0.1645  0.2810 -0.4432
 1592SOL     OW 6412   2.893   0.525   2.777  0.2699  0.4113 -0.3341
 1592SOL    HW2 6413   2.921   0.604   2.731 -2.5142  1.3875 -0.4375
 1592SOL    HW3 6414   2.832   0.482   2.718  0.8771 -1.2380  0.2049
 1592SOL    MW4 6415   2.889   0.530   2.763 -0.0174  0.3225 -0.2768
 1593SOL     OW 6416   2.913   0.779   2.664 -0.3081 -0.8086 -0.5772
 1593SOL    HW2 6417   2.987   0.826   2.701 -0.5169  0.5573 -1.8654
 1593SOL    HW3 6418   2.836   0.819   2.705 -0.4755 -0.2072 -1.4806
 1593SOL    MW4 6419   2.912   0.790   2.675 -0.3579 -0.5490 -0.8662
 1594SOL     OW 6420   2.690   0.912   2.768  0.2920 -0.4257  0.0790
 1594SOL    HW2 6421   2.680   0.910   2.863 -0.4258  1.6949  0.0676
 1594SOL    HW3 6422   2.616   0.861   2.735  0.8365 -1.6139  0.6509
 1594SOL    MW4 6423   2.679   0.905   2.776  0.2692 -0.3026  0.1531
 1595SOL     OW 6424   2.685   1.190   2.653  0.1518  0.1930  0.0723
 1595SOL    HW2 6425   2.765   1.215   2.699  1.2982 -0.2770 -1.6346
 1595SOL    HW3 6426   2.664   1.102   2.686 -0.3698  0.8047  1.4199
 1595SOL    MW4 6427   2.693   1.182   2.664  0.2341  0.2117  0.0248
 1596SOL     OW 6428   2.940   1.251   2.758  0.1113  0.0207 -0.2686
 1596SOL    HW2 6429   2.943   1.282   2.849  2.4114  1.4477 -0.7727
 1596SOL    HW3 6430   3.028   1.217   2.742 -0.3439 -0.4241 -1.9061
 1596SOL    MW4 6431   2.952   1.251   2.768  0.3545  0.1503 -0.5510
 1597SOL     OW 6432   2.954   1.530   2.633  0.0237 -0.1616  0.8018
 1597SOL    HW2 6433   2.870   1.570   2.654 -0.5770 -1.8269  1.5733
 1597SOL    HW3 6434   2.948   1.440   2.665  1.0665 -1.1502 -1.6277
 1597SOL    MW4 6435   2.942   1.524   2.640  0.0820 -0.5116  0.5829
 1598SOL     OW 6436   2.744   1.673   2.740 -0.0249  0.6738  0.1058
 1598SOL    HW2 6437   2.735   1.654   2.833  0.4262  2.9647  0.6252
 1598SOL    HW3 6438   2.657   1.658   2.704 -0.0432 -0.8950  0.7496
 1598SOL    MW4 6439   2.731   1.668   2.748  0.0322  0.7693  0.2592
 1599SOL     OW 6440   2.748   1.935   2.687  0.3000 -0.1972 -0.2558
 1599SOL    HW2 6441   2.760   1.843   2.712 -0.7281 -0.2398  0.1000
 1599SOL    HW3 6442   2.657   1.953   2.707 -0.4803 -0.1089 -3.5410
 1599SOL    MW4 6443   2.738   1.925   2.693  0.0615 -0.1912 -0.6425
 1600SOL     OW 6444   3.005   2.045   2.772 -0.7666  0.3543  0.1922
 1600SOL    HW2 6445   2.984   2.124   2.722 -0.7728 -0.7051 -1.5460
 1600SOL    HW3 6446   2.931   1.986   2.755  0.6119 -1.1004 -0.9478
 1600SOL    MW4 6447   2.993   2.048   2.763 -0.5856  0.0226 -0.1876
 1601SOL     OW 6448   2.949   2.273   2.625  0.0677 -0.3071  0.4098
 1601SOL    HW2 6449   3.020   2.324   2.663  0.0030 -0.3064  0.5312
 1601SOL    HW3 6450   2.870   2.320   2.650  0.0703  0.1649 -0.4534
 1601SOL    MW4 6451   2.948   2.286   2.633  0.0596 -0.2449  0.3121
 1602SOL     OW 6452   2.716   2.401   2.748  0.0228 -0.1547 -0.2125
 1602SOL    HW2 6453   2.714   2.386   2.842  0.3361 -1.0219 -0.3382
 1602SOL    HW3 6454   2.712   2.496   2.739  1.7507  0.0279  0.7321
 1602SOL    MW4 6455   2.715   2.412   2.759  0.2923 -0.2453 -0.1044
 1603SOL     OW 6456   2.658   2.675   2.678 -0.5174  0.3993 -0.1927
 1603SOL    HW2 6457   2.739   2.725   2.690 -0.7946  0.6191  0.8363
 1603SOL    HW3 6458   2.648   2.667   2.583  1.4235 -0.7991 -0.3202
 1603SOL    MW4 6459   2.668   2.681   2.667 -0.2978  0.2701 -0.0739
 1604SOL     OW 6460   2.904   2.780   2.762 -0.1570  0.0535  0.0782
 1604SOL    HW2 6461   2.893   2.779   2.857 -0.8479 -0.6577 -0.0057
 1604SOL    HW3 6462   2.919   2.872   2.741  0.8814  0.1051  0.9641
 1604SOL    MW4 6463   2.905   2.792   2.772 -0.1111 -0.0334  0.1841
 1605SOL     OW 6464   2.935   3.055   2.688 -0.5316  0.5818  0.5324
 1605SOL    HW2 6465   2.851   3.095   2.712 -0.4209  1.2759 -0.2132
 1605SOL    HW3 6466   2.934   3.054   2.592  0.1280  0.2000  0.5278
 1605SOL    MW4 6467   2.924   3.060   2.679 -0.4299  0.6232  0.4330
 1606SOL     OW 6468   2.714   3.188   2.776 -0.1881 -0.1445 -0.7584
 1606SOL    HW2 6469   2.709   3.277   2.743 -2.0253  0.3045  0.6407
 1606SOL    HW3 6470   2.626   3.152   2.763  0.2045 -1.3458 -0.2316
 1606SOL    MW4 6471   2.702   3.195   2.770 -0.3786 -0.2437 -0.5043
 1607SOL     OW 6472   2.695   3.452   2.683 -0.3101 -0.0338 -0.5058
 1607SOL    HW2 6473   2.625   3.502   2.725  1.3318  1.1798  0.8485
 1607SOL    HW3 6474   2.681   3.464   2.589 -3.6478 -2.2303 -0.3932
 1607SOL    MW4 6475   2.684   3.460   2.676 -0.5338 -0.1636 -0.3126
 1608SOL     OW 6476   2.934   3.585   2.748  0.1123  0.0437  0.1342
 1608SOL    HW2 6477   2.938   3.578   2.843  0.9025 -1.3259  0.0062
 1608SOL    HW3 6478   2.846   3.555   2.725 -0.1714  0.6306  0.4515
 1608SOL    MW4 6479   2.923   3.580   2.757  0.1791 -0.0596  0.1590
 1609SOL     OW 6480   2.890   3.889   2.699  0.1441  0.3488 -0.4080
 1609SOL    HW2 6481   2.980   3.922   2.704 -0.1310  0.9507  0.6215
 1609SOL    HW3 6482   2.897   3.797   2.721  0.4663  0.4735  0.0320
 1609SOL    MW4 6483   2.903   3.882   2.702  0.1502  0.4444 -0.2141
 1610SOL     OW 6484   2.687   4.024   2.853  0.4309 -0.4395 -0.2409
 1610SOL    HW2 6485   2.667   4.091   2.787  0.6313  0.0240  0.1585
 1610SOL    HW3 6486   2.763   3.977   2.819  1.0016  0.2893 -0.0012
 1610SOL    MW4 6487   2.694   4.027   2.840  0.5326 -0.2823 -0.1566
 1611SOL     OW 6488   2.641   4.224   2.652 -0.2328  0.1574  0.4119
 1611SOL    HW2 6489   2.727   4.236   2.691 -0.3291  1.1543  0.3282
 1611SOL    HW3 6490   2.581   4.270   2.711 -0.6895 -0.3958  0.3894
 1611SOL    MW4 6491   2.644   4.232   2.665 -0.3057  0.2160  0.3979
 1612SOL     OW 6492   2.895   4.317   2.752 -0.1952  0.0638 -0.4041
 1612SOL    HW2 6493   2.904   4.316   2.848 -3.7043 -2.2519 -0.0188
 1612SOL    HW3 6494   2.880   4.409   2.731  0.9964  0.6593  1.2213
 1612SOL    MW4 6495   2.894   4.329   2.762 -0.5007 -0.1631 -0.1390
 1613SOL     OW 6496   3.343   4.643   2.650  0.3919  0.8676 -0.3767
 1613SOL    HW2 6497   3.359   4.554   2.680  0.6291  0.8835 -0.4582
 1613SOL    HW3 6498   3.254   4.663   2.680  1.1130  1.3571  1.4603
 1613SOL    MW4 6499   3.333   4.634   2.658  0.5183  0.9336 -0.1452
 1614SOL     OW 6500   3.099   0.064   2.762 -0.0657  0.0068  0.4628
 1614SOL    HW2 6501   3.113   0.058   2.856 -1.4192  0.5761  0.7131
 1614SOL    HW3 6502   3.109   0.157   2.741 -0.9688  0.0658  0.2572
 1614SOL    MW4 6503   3.102   0.075   2.771 -0.3633  0.0897  0.4687
 1615SOL     OW 6504   3.098   0.337   2.707 -0.1800  0.1781 -0.3970
 1615SOL    HW2 6505   3.030   0.398   2.737 -0.1529  0.0109  0.0048
 1615SOL    HW3 6506   3.088   0.336   2.612 -0.3490  0.6133 -0.3889
 1615SOL    MW4 6507   3.088   0.345   2.698 -0.1988  0.2135 -0.3431
 1616SOL     OW 6508   3.371   0.431   2.764 -0.4293  0.1005  0.2562
 1616SOL    HW2 6509   3.347   0.524   2.765 -0.9598 -0.0164 -1.4104
 1616SOL    HW3 6510   3.291   0.386   2.741  0.3346 -0.6118 -1.0674
 1616SOL    MW4 6511   3.358   0.438   2.761 -0.3986 -0.0089 -0.1385
 1617SOL     OW 6512   3.327   0.699   2.713 -0.2115  0.0552  0.5970
 1617SOL    HW2 6513   3.413   0.727   2.742  0.5971 -1.5890 -0.1707
 1617SOL    HW3 6514   3.334   0.692   2.618 -1.4062  0.6548  0.4591
 1617SOL    MW4 6515   3.339   0.702   2.704 -0.2627 -0.0826  0.4776
 1618SOL     OW 6516   3.153   0.898   2.754 -0.4322 -0.5423  0.3112
 1618SOL    HW2 6517   3.144   0.896   2.849 -0.8763 -1.0524  0.2607
 1618SOL    HW3 6518   3.215   0.828   2.734  0.3431  0.1419  0.2946
 1618SOL    MW4 6519   3.160   0.889   2.764 -0.3884 -0.5193  0.3021
 1619SOL     OW 6520   3.191   1.181   2.689 -0.4991  0.0478  0.3158
 1619SOL    HW2 6521   3.211   1.090   2.710 -0.8511 -0.4649 -1.5005
 1619SOL    HW3 6522   3.200   1.187   2.594  3.1272  2.7820  0.7256
 1619SOL    MW4 6523   3.195   1.170   2.679 -0.0672  0.3411  0.1302
 1620SOL     OW 6524   3.414   1.297   2.805  0.0608 -0.0294 -0.2864
 1620SOL    HW2 6525   3.408   1.281   2.899 -0.9267 -0.1135 -0.3582
 1620SOL    HW3 6526   3.330   1.267   2.770 -0.4593  2.0907 -0.8970
 1620SOL    MW4 6527   3.402   1.291   2.813 -0.1383  0.2391 -0.3762
 1621SOL     OW 6528   3.406   1.541   2.647  0.2080  0.0271 -0.2372
 1621SOL    HW2 6529   3.326   1.582   2.680  1.1780  0.9944  0.9101
 1621SOL    HW3 6530   3.410   1.457   2.693 -0.3415 -0.2008 -0.5903
 1621SOL    MW4 6531   3.396   1.535   2.657  0.2635  0.1246 -0.1323
 1622SOL     OW 6532   3.172   1.657   2.755 -0.5542  0.2816 -0.3759
 1622SOL    HW2 6533   3.196   1.744   2.722  0.0389  0.6368  0.9377
 1622SOL    HW3 6534   3.098   1.631   2.701  1.5717 -0.0196 -3.3154
 1622SOL    MW4 6535   3.166   1.665   2.743 -0.1953  0.2887 -0.5903
 1623SOL     OW 6536   3.202   1.922   2.628 -0.3394 -0.4352 -0.1255
 1623SOL    HW2 6537   3.285   1.951   2.665  0.7120 -0.9063 -2.0139
 1623SOL    HW3 6538   3.135   1.960   2.685  1.1924 -2.1836  2.9485
 1623SOL    MW4 6539   3.204   1.931   2.640  0.0014 -0.7280  0.0310
 1624SOL     OW 6540   3.440   2.028   2.735 -0.5117 -0.2086  0.7966
 1624SOL    HW2 6541   3.435   2.023   2.830 -0.9279 -0.1761  0.7766
 1624SOL    HW3 6542   3.431   2.122   2.715 -0.4110 -0.2132  0.7242
 1624SOL    MW4 6543   3.438   2.040   2.745 -0.5531 -0.2048  0.7844
 1625SOL     OW 6544   3.396   2.283   2.645 -0.0434  0.4430  0.2500
 1625SOL    HW2 6545   3.480   2.330   2.649 -0.3320  0.9393  0.5600
 1625SOL    HW3 6546   3.380   2.273   2.551  0.5815 -0.0499  0.1937
 1625SOL    MW4 6547   3.405   2.288   2.633  0.0010  0.4437  0.2837
 1626SOL     OW 6548   3.169   2.399   2.746 -0.5580 -0.2057 -0.8774
 1626SOL    HW2 6549   3.162   2.490   2.718 -0.0795  0.5229  1.2515
 1626SOL    HW3 6550   3.249   2.367   2.702  0.5613  1.1043  0.1571
 1626SOL    MW4 6551   3.179   2.407   2.736 -0.3471  0.0632 -0.4601
 1627SOL     OW 6552   3.148   2.657   2.663 -0.3281 -0.7465 -0.0175
 1627SOL    HW2 6553   3.219   2.693   2.715 -0.6662 -0.1417  0.0341
 1627SOL    HW3 6554   3.070   2.702   2.695 -0.3016  1.0272 -2.3101
 1627SOL    MW4 6555   3.147   2.668   2.674 -0.3691 -0.4325 -0.3130
 1628SOL     OW 6556   3.369   2.772   2.766 -0.2106 -0.0099  0.6395
 1628SOL    HW2 6557   3.386   2.776   2.860  0.7585 -1.2146  0.5282
 1628SOL    HW3 6558   3.454   2.753   2.727 -0.6567  0.2191 -0.4677
 1628SOL    MW4 6559   3.382   2.770   2.773 -0.1414 -0.1388  0.4785
 1629SOL     OW 6560   3.387   3.063   2.698 -0.1937  0.6114 -0.1892
 1629SOL    HW2 6561   3.388   2.971   2.727 -0.3531  0.8423  0.5709
 1629SOL    HW3 6562   3.379   3.058   2.603  0.5786 -0.1762 -0.2188
 1629SOL    MW4 6563   3.386   3.050   2.689 -0.1128  0.5381 -0.0930
 1630SOL     OW 6564   3.150   3.217   2.750 -0.3099  0.2400 -0.1194
 1630SOL    HW2 6565   3.223   3.157   2.735 -0.4382  0.4621 -1.7563
 1630SOL    HW3 6566   3.072   3.164   2.733 -0.4920  0.3177  0.4714
 1630SOL    MW4 6567   3.149   3.202   2.746 -0.3510  0.2797 -0.2573
 1631SOL     OW 6568   3.150   3.465   2.605  0.2599 -0.0192 -0.3034
 1631SOL    HW2 6569   3.162   3.392   2.665  1.0973 -1.1374 -1.7726
 1631SOL    HW3 6570   3.076   3.513   2.639 -0.8796 -2.0802  0.2087
 1631SOL    MW4 6571   3.142   3.461   2.617  0.2203 -0.4387 -0.4296
 1632SOL     OW 6572   3.392   3.582   2.721 -0.3257 -0.2946 -0.4868
 1632SOL    HW2 6573   3.394   3.553   2.812  1.1137 -2.3948 -1.1658
 1632SOL    HW3 6574   3.307   3.551   2.688  0.1123 -1.5141 -0.4851
 1632SOL    MW4 6575   3.381   3.574   2.729 -0.0780 -0.7324 -0.5760
 1633SOL     OW 6576   3.351   3.847   2.669 -0.0809  0.1324 -0.0441
 1633SOL    HW2 6577   3.365   3.756   2.697  1.5417  0.3856 -0.0039
 1633SOL    HW3 6578   3.390   3.852   2.582  1.1548  1.1752  0.5618
 1633SOL    MW4 6579   3.358   3.835   2.661  0.2961  0.3035  0.0412
 1634SOL     OW 6580   3.153   3.986   2.798 -0.3561  0.6913  0.1753
 1634SOL    HW2 6581   3.156   4.063   2.740 -0.8472  0.5033 -0.1033
 1634SOL    HW3 6582   3.219   3.927   2.762 -0.1181  0.8996  0.2698
 1634SOL    MW4 6583   3.162   3.988   2.786 -0.3896  0.6940  0.1509
 1635SOL     OW 6584   3.133   4.207   2.621 -0.2918  0.0948 -0.1861
 1635SOL    HW2 6585   3.042   4.227   2.642 -0.6385 -1.8930  0.3228
 1635SOL    HW3 6586   3.136   4.209   2.525 -0.8120  0.4064 -0.1989
 1635SOL    MW4 6587   3.121   4.210   2.611 -0.4063 -0.1264 -0.1204
 1636SOL     OW 6588   3.340   4.378   2.706 -0.2174 -0.4014 -0.0143
 1636SOL    HW2 6589   3.334   4.379   2.801 -0.3913  0.3679 -0.0325
 1636SOL    HW3 6590   3.259   4.334   2.678 -0.2607 -0.4509  0.1861
 1636SOL    MW4 6591   3.328   4.372   2.715 -0.2463 -0.3066  0.0098
 1637SOL     OW 6592   3.794   4.635   2.680 -0.0385  0.4264  0.8457
 1637SOL    HW2 6593   3.810   4.543   2.700  0.5005  0.0736 -1.0972
 1637SOL    HW3 6594   3.709   4.653   2.721  0.1956 -0.7133  1.8832
 1637SOL    MW4 6595   3.785   4.625   2.688  0.0634  0.2294  0.7260
 1638SOL     OW 6596   3.561   0.055   2.805 -0.1409 -0.1034  0.0647
 1638SOL    HW2 6597   3.581   0.134   2.755  0.2820 -0.6393 -0.6326
 1638SOL    HW3 6598   3.476   0.026   2.771 -1.4009  1.3135  1.9347
 1638SOL    MW4 6599   3.553   0.062   2.794 -0.2513  0.0129  0.2196
 1639SOL     OW 6600   3.603   0.279   2.668 -0.3405 -0.4726 -0.0571
 1639SOL    HW2 6601   3.686   0.321   2.691 -0.6450  0.4067 -0.5261
 1639SOL    HW3 6602   3.536   0.341   2.696 -0.8782 -1.6120  1.2040
 1639SOL    MW4 6603   3.605   0.293   2.674 -0.4516 -0.5070  0.0474
 1640SOL     OW 6604   3.816   0.487   2.730  0.1368  0.2429  0.1916
 1640SOL    HW2 6605   3.815   0.492   2.826 -1.1387  3.1244  0.0742
 1640SOL    HW3 6606   3.889   0.428   2.710  0.8926  0.1818  2.9103
 1640SOL    MW4 6607   3.826   0.480   2.740  0.0684  0.6150  0.5348
 1641SOL     OW 6608   3.819   0.744   2.660 -0.1962 -0.6026 -0.1599
 1641SOL    HW2 6609   3.731   0.774   2.682 -0.5261 -1.8206  0.2464
 1641SOL    HW3 6610   3.815   0.649   2.672  1.5602 -0.5214  1.2524
 1641SOL    MW4 6611   3.807   0.735   2.664 -0.0081 -0.7526  0.0801
 1642SOL     OW 6612   3.558   0.845   2.772 -0.2264 -0.4441  0.0274
 1642SOL    HW2 6613   3.564   0.851   2.868  1.8833 -0.5098 -0.0773
 1642SOL    HW3 6614   3.550   0.936   2.744 -2.4061 -0.5076  0.3174
 1642SOL    MW4 6615   3.558   0.858   2.781 -0.2356 -0.4612  0.0520
 1643SOL     OW 6616   3.595   1.127   2.690  0.8952  0.4271  0.2668
 1643SOL    HW2 6617   3.685   1.149   2.715  0.8504  0.3597  0.4842
 1643SOL    HW3 6618   3.542   1.196   2.729  0.8511  0.4620  0.1456
 1643SOL    MW4 6619   3.600   1.139   2.698  0.8833  0.4228  0.2794
 1644SOL     OW 6620   3.851   1.251   2.732  0.3244  0.3448 -0.4964
 1644SOL    HW2 6621   3.939   1.218   2.717 -0.2958 -0.6684 -1.9748
 1644SOL    HW3 6622   3.852   1.340   2.697  1.1925  0.9165  0.9326
 1644SOL    MW4 6623   3.863   1.259   2.726  0.3572  0.2866 -0.5028
 1645SOL     OW 6624   3.856   1.514   2.609  0.1938 -0.5093  0.1970
 1645SOL    HW2 6625   3.930   1.569   2.635  0.1168 -0.2210 -0.1963
 1645SOL    HW3 6626   3.780   1.554   2.651  0.0820 -0.0930 -0.4057
 1645SOL    MW4 6627   3.856   1.526   2.618  0.1688 -0.4163  0.0656
 1646SOL     OW 6628   3.646   1.620   2.753 -0.1612  0.0189 -0.5623
 1646SOL    HW2 6629   3.657   1.713   2.736 -2.3560  0.4399  0.1510
 1646SOL    HW3 6630   3.566   1.595   2.705 -0.2061 -1.2336  0.1234
 1646SOL    MW4 6631   3.637   1.629   2.745 -0.4566 -0.0908 -0.3779
 1647SOL     OW 6632   3.669   1.908   2.645  0.5592 -0.6017 -0.0051
 1647SOL    HW2 6633   3.598   1.945   2.698 -1.1960 -4.4667  0.5080
 1647SOL    HW3 6634   3.642   1.923   2.554  0.8263  0.9907  0.1542
 1647SOL    MW4 6635   3.656   1.915   2.640  0.3629 -0.9016  0.0837
 1648SOL     OW 6636   3.892   2.044   2.736  0.0123 -0.3929  0.0094
 1648SOL    HW2 6637   3.970   1.994   2.713 -0.2232 -0.1060 -1.4634
 1648SOL    HW3 6638   3.819   1.988   2.709 -0.2719  0.0845 -0.2141
 1648SOL    MW4 6639   3.893   2.030   2.729 -0.0563 -0.2923 -0.2143
 1649SOL     OW 6640   3.861   2.297   2.632 -0.3869  0.0118  0.4477
 1649SOL    HW2 6641   3.877   2.207   2.663  0.3144 -0.0421 -0.0407
 1649SOL    HW3 6642   3.861   2.289   2.537  1.1814  0.7549  0.3581
 1649SOL    MW4 6643   3.863   2.284   2.624 -0.0873  0.1025  0.3712
 1650SOL     OW 6644   3.626   2.407   2.718  0.3719 -0.2389  0.0013
 1650SOL    HW2 6645   3.626   2.402   2.814  0.3505 -0.4337 -0.0085
 1650SOL    HW3 6646   3.704   2.358   2.692  1.0344  0.8242 -0.0268
 1650SOL    MW4 6647   3.636   2.400   2.727  0.4566 -0.1245 -0.0036
 1651SOL     OW 6648   3.615   2.664   2.657 -0.4955 -0.0280 -0.2817
 1651SOL    HW2 6649   3.622   2.573   2.686 -0.7276  0.0269 -0.0429
 1651SOL    HW3 6650   3.612   2.659   2.562 -2.9542 -0.4675 -0.2191
 1651SOL    MW4 6651   3.615   2.651   2.648 -0.8507 -0.0789 -0.2420
 1652SOL     OW 6652   3.825   2.807   2.781 -0.6559  1.3260 -0.5362
 1652SOL    HW2 6653   3.906   2.788   2.732  0.2166 -0.3372  1.4858
 1652SOL    HW3 6654   3.759   2.752   2.738  0.4128 -1.2351  0.9877
 1652SOL    MW4 6655   3.827   2.797   2.769 -0.3998  0.7682 -0.0687
 1653SOL     OW 6656   3.833   3.091   2.662  0.1391 -0.3768  0.4942
 1653SOL    HW2 6657   3.757   3.130   2.706 -0.9654 -0.8611 -0.9443
 1653SOL    HW3 6658   3.841   3.004   2.702 -1.9603 -1.5094 -1.4703
 1653SOL    MW4 6659   3.824   3.085   2.673 -0.2837 -0.5903  0.0453
 1654SOL     OW 6660   3.619   3.211   2.770 -0.3163 -0.4432 -0.1339
 1654SOL    HW2 6661   3.618   3.299   2.732  0.7543 -1.0910 -1.7447
 1654SOL    HW3 6662   3.537   3.171   2.741  0.3167 -0.7993 -1.4638
 1654SOL    MW4 6663   3.608   3.217   2.761 -0.0916 -0.5758 -0.5219
 1655SOL     OW 6664   3.627   3.470   2.632 -0.4875  0.2650 -0.0973
 1655SOL    HW2 6665   3.705   3.502   2.677 -0.4975 -1.5632  1.2421
 1655SOL    HW3 6666   3.555   3.521   2.670 -0.0477  1.5428 -0.9249
 1655SOL    MW4 6667   3.628   3.481   2.643 -0.4311  0.1924 -0.0298
 1656SOL     OW 6668   3.835   3.561   2.790  0.1638  0.0033  0.3927
 1656SOL    HW2 6669   3.914   3.547   2.737  1.7720  0.3599  2.6343
 1656SOL    HW3 6670   3.811   3.652   2.773 -0.4292 -0.4175 -1.1298
 1656SOL    MW4 6671   3.842   3.571   2.781  0.2975 -0.0052  0.4876
 1657SOL     OW 6672   3.791   3.836   2.712  0.1781  0.3359 -0.3785
 1657SOL    HW2 6673   3.870   3.882   2.740  0.2780 -0.6044  0.9829
 1657SOL    HW3 6674   3.719   3.892   2.739  0.3761  1.4013 -2.0113
 1657SOL    MW4 6675   3.792   3.849   2.719  0.2174  0.3526 -0.4141
 1658SOL     OW 6676   3.572   3.994   2.772  0.0984  0.0214  0.2272
 1658SOL    HW2 6677   3.564   4.080   2.730 -0.9606  0.5808  1.5342
 1658SOL    HW3 6678   3.490   3.950   2.751  0.7249 -0.7638 -0.6134
 1658SOL    MW4 6679   3.560   3.999   2.764  0.0412 -0.0081  0.2890
 1659SOL     OW 6680   3.598   4.246   2.652 -0.1458 -0.1904  0.4085
 1659SOL    HW2 6681   3.515   4.292   2.665 -0.6520 -0.7866 -0.6542
 1659SOL    HW3 6682   3.615   4.254   2.559  1.4306  0.6349  0.7495
 1659SOL    MW4 6683   3.589   4.253   2.642 -0.0045 -0.1602  0.3133
 1660SOL     OW 6684   3.828   4.374   2.771  0.2451  0.6453 -0.4697
 1660SOL    HW2 6685   3.897   4.342   2.712 -0.4024  2.1058 -2.0414
 1660SOL    HW3 6686   3.749   4.330   2.741  0.4924 -1.2392  1.5089
 1660SOL    MW4 6687   3.827   4.364   2.760  0.1919  0.5894 -0.4158
 1661SOL     OW 6688   4.248   4.637   2.708 -0.0336 -0.0899  0.3014
 1661SOL    HW2 6689   4.180   4.693   2.744  0.1403  0.8073 -0.7608
 1661SOL    HW3 6690   4.330   4.679   2.735  0.0988 -0.7657  0.9547
 1661SOL    MW4 6691   4.250   4.650   2.716  0.0072 -0.0606  0.2472
 1662SOL     OW 6692   4.020   0.108   2.787  0.1670  0.4394  0.5568
 1662SOL    HW2 6693   4.004   0.128   2.879 -0.8391  1.2112  0.2316
 1662SOL    HW3 6694   3.939   0.066   2.757  0.5706 -0.0058  0.0781
 1662SOL    MW4 6695   4.007   0.105   2.795  0.0877  0.4825  0.4506
 1663SOL     OW 6696   4.036   0.349   2.648  0.2634 -0.0135  0.2933
 1663SOL    HW2 6697   4.046   0.263   2.688 -0.4721 -0.2943 -0.1000
 1663SOL    HW3 6698   4.025   0.331   2.555 -2.1292  0.3123  0.4562
 1663SOL    MW4 6699   4.036   0.335   2.641 -0.1493 -0.0076  0.2632
 1664SOL     OW 6700   4.268   0.476   2.741  0.1433  0.1377  0.6519
 1664SOL    HW2 6701   4.190   0.433   2.705  0.5208 -0.2331  0.2859
 1664SOL    HW3 6702   4.341   0.424   2.710  0.4854 -0.0735  1.7988
 1664SOL    MW4 6703   4.267   0.463   2.732  0.2379  0.0609  0.7548
 1665SOL     OW 6704   4.267   0.731   2.675 -0.4091 -0.0936 -0.0872
 1665SOL    HW2 6705   4.254   0.640   2.701 -0.7994  0.0454  0.2304
 1665SOL    HW3 6706   4.263   0.730   2.580  1.2082 -0.6380 -0.1520
 1665SOL    MW4 6707   4.265   0.719   2.666 -0.2475 -0.1471 -0.0536
 1666SOL     OW 6708   4.047   0.860   2.790  0.3556  0.4202 -0.1406
 1666SOL    HW2 6709   4.125   0.819   2.753  0.1515  0.5714 -0.7352
 1666SOL    HW3 6710   3.974   0.815   2.748  0.1172  0.2483  0.4487
 1666SOL    MW4 6711   4.047   0.848   2.780  0.2975  0.4175 -0.1411
 1667SOL     OW 6712   4.096   1.110   2.665  0.0346 -0.8109  0.2554
 1667SOL    HW2 6713   4.179   1.144   2.698 -0.5404  0.2326  0.6646
 1667SOL    HW3 6714   4.085   1.026   2.708  0.2170 -0.3245  1.2633
 1667SOL    MW4 6715   4.105   1.104   2.675 -0.0172 -0.6092  0.4425
 1668SOL     OW 6716   4.303   1.256   2.770  0.0765  0.3734 -0.4255
 1668SOL    HW2 6717   4.284   1.342   2.733  0.5416  1.4575  1.7450
 1668SOL    HW3 6718   4.385   1.230   2.729  0.6876  1.6399 -0.0532
 1668SOL    MW4 6719   4.311   1.264   2.760  0.2184  0.6835 -0.0899
 1669SOL     OW 6720   4.271   1.509   2.655  0.2280 -0.1978 -0.4117
 1669SOL    HW2 6721   4.341   1.570   2.680 -0.9013  0.5128  1.0375
 1669SOL    HW3 6722   4.278   1.504   2.559  1.8852  0.3070 -0.3468
 1669SOL    MW4 6723   4.281   1.517   2.646  0.2975 -0.0374 -0.2120
 1670SOL     OW 6724   4.056   1.670   2.720 -0.1437 -0.1881 -0.0895
 1670SOL    HW2 6725   4.051   1.684   2.815 -0.9290 -0.2890 -0.1082
 1670SOL    HW3 6726   4.127   1.607   2.709 -0.3481 -0.5292  0.4779
 1670SOL    MW4 6727   4.065   1.664   2.731 -0.2742 -0.2464 -0.0172
 1671SOL     OW 6728   4.125   1.938   2.677  0.7956  0.1858 -0.5843
 1671SOL    HW2 6729   4.217   1.961   2.691  0.3572  1.1121  0.8886
 1671SOL    HW3 6730   4.123   1.843   2.678  1.6995  0.1643 -0.3886
 1671SOL    MW4 6731   4.137   1.929   2.679  0.8569  0.3051 -0.3641
 1672SOL     OW 6732   4.350   2.055   2.752 -0.3030 -0.1021  0.0142
 1672SOL    HW2 6733   4.325   2.134   2.704  1.0009  1.3705  1.6723
 1672SOL    HW3 6734   4.434   2.030   2.713  1.2370  1.6461  2.0324
 1672SOL    MW4 6735   4.358   2.062   2.741  0.0725  0.3231  0.4992
 1673SOL     OW 6736   4.282   2.305   2.614 -0.4667  0.7482  0.1767
 1673SOL    HW2 6737   4.202   2.349   2.643 -1.8639 -0.4892 -1.7224
 1673SOL    HW3 6738   4.289   2.327   2.521  0.2388 -0.8916 -0.1741
 1673SOL    MW4 6739   4.272   2.314   2.605 -0.5584  0.3684 -0.1199
 1674SOL     OW 6740   4.069   2.453   2.712  0.0228  0.1283 -0.1401
 1674SOL    HW2 6741   4.052   2.466   2.806  0.6635 -2.2656  0.3322
 1674SOL    HW3 6742   3.996   2.399   2.682 -0.0418  0.6779 -0.9811
 1674SOL    MW4 6743   4.057   2.448   2.721  0.0992 -0.1152 -0.1888
 1675SOL     OW 6744   4.063   2.730   2.624  0.1704  0.3408  0.4331
 1675SOL    HW2 6745   4.138   2.766   2.671  1.2207 -0.5297 -0.5433
 1675SOL    HW3 6746   4.079   2.636   2.620 -0.1504  0.3335 -1.1790
 1675SOL    MW4 6747   4.075   2.723   2.629  0.2666  0.2248  0.0916
 1676SOL     OW 6748   4.289   2.836   2.751  0.7759  0.2121 -0.1303
 1676SOL    HW2 6749   4.278   2.852   2.845 -0.1717 -0.6085 -0.0926
 1676SOL    HW3 6750   4.278   2.922   2.710 -3.6291 -0.1353  0.1171
 1676SOL    MW4 6751   4.286   2.849   2.758  0.0696  0.0577 -0.0925
 1677SOL     OW 6752   4.283   3.082   2.620  0.0201 -0.1754 -0.0483
 1677SOL    HW2 6753   4.221   3.151   2.645  0.7967  0.2853  0.6291
 1677SOL    HW3 6754   4.276   3.077   2.525 -0.5301  0.3772 -0.0396
 1677SOL    MW4 6755   4.274   3.091   2.611  0.0501 -0.0415  0.0420
 1678SOL     OW 6756   4.075   3.246   2.719 -0.3069  0.6098  0.2236
 1678SOL    HW2 6757   4.069   3.340   2.699 -0.4209  0.4896 -0.3142
 1678SOL    HW3 6758   3.999   3.208   2.676  0.0876  0.1784 -0.0997
 1678SOL    MW4 6759   4.064   3.254   2.710 -0.2699  0.5372  0.1101
 1679SOL     OW 6760   4.065   3.516   2.649 -0.0822  0.1396  0.4762
 1679SOL    HW2 6761   4.151   3.556   2.663 -0.3086  0.5622  0.6635
 1679SOL    HW3 6762   4.063   3.495   2.556 -0.1986  1.1137  0.2533
 1679SOL    MW4 6763   4.076   3.518   2.639 -0.1273  0.3238  0.4714
 1680SOL     OW 6764   4.305   3.639   2.724 -0.2886  0.4996 -0.0508
 1680SOL    HW2 6765   4.314   3.635   2.820 -2.2614 -0.5803  0.1196
 1680SOL    HW3 6766   4.381   3.592   2.691  0.5439  1.0942  0.9858
 1680SOL    MW4 6767   4.316   3.632   2.733 -0.4387  0.4358  0.1082
 1681SOL     OW 6768   4.281   3.908   2.677  0.2113 -0.1169 -0.3012
 1681SOL    HW2 6769   4.285   3.826   2.725 -0.9566 -0.0210 -0.0330
 1681SOL    HW3 6770   4.347   3.963   2.718  0.3626 -0.6077  0.1149
 1681SOL    MW4 6771   4.290   3.905   2.689  0.0772 -0.1688 -0.2110
 1682SOL     OW 6772   4.026   4.001   2.745  0.2236 -0.0829 -0.5292
 1682SOL    HW2 6773   4.043   4.006   2.839  0.8687 -0.1735 -0.6391
 1682SOL    HW3 6774   4.110   3.973   2.707  0.8592  2.8420 -1.4463
 1682SOL    MW4 6775   4.040   3.998   2.753  0.3929  0.2911 -0.6645
 1683SOL     OW 6776   4.040   4.257   2.631  0.0963 -0.1749 -0.0648
 1683SOL    HW2 6777   4.028   4.170   2.667 -0.8688 -0.0151  0.0138
 1683SOL    HW3 6778   4.035   4.245   2.536  0.6113 -0.2964 -0.0781
 1683SOL    MW4 6779   4.037   4.244   2.623  0.0367 -0.1702 -0.0560
 1684SOL     OW 6780   4.262   4.373   2.749  0.2858  0.5056 -0.2107
 1684SOL    HW2 6781   4.178   4.335   2.721  1.2444 -0.2922 -2.1145
 1684SOL    HW3 6782   4.259   4.463   2.718  0.7541  0.0304 -1.6805
 1684SOL    MW4 6783   4.251   4.380   2.741  0.4735  0.3371 -0.6557
 1685SOL     OW 6784   0.298   0.008   3.134 -0.0016 -0.3931  0.3053
 1685SOL    HW2 6785   0.273  -0.015   3.224  2.3746  0.0410  1.1013
 1685SOL    HW3 6786   0.220   0.052   3.098 -1.0858 -0.8589  2.0302
 1685SOL    MW4 6787   0.284   0.011   3.141  0.1688 -0.3973  0.6380
 1686SOL     OW 6788   0.063   0.125   3.042  0.8229 -0.0302  0.1169
 1686SOL    HW2 6789  -0.021   0.080   3.052  0.6410  0.0985 -0.8203
 1686SOL    HW3 6790   0.043   0.217   3.059  0.6285  0.1053 -0.8380
 1686SOL    MW4 6791   0.049   0.131   3.045  0.7730  0.0047 -0.1326
 1687SOL     OW 6792   4.462   0.374   3.145  0.0397 -0.0130  0.0927
 1687SOL    HW2 6793   4.449   0.343   3.235 -0.8514  0.1087  0.0099
 1687SOL    HW3 6794   4.375   0.406   3.118  0.3987  0.3262 -0.6650
 1687SOL    MW4 6795   4.449   0.374   3.154 -0.0310  0.0478 -0.0181
 1688SOL     OW 6796   0.168   0.545   3.053 -0.0700 -0.1519 -0.3146
 1688SOL    HW2 6797   0.250   0.500   3.072 -0.9479 -1.2066  1.0474
 1688SOL    HW3 6798   0.101   0.496   3.101 -1.4288  1.0109 -0.9649
 1688SOL    MW4 6799   0.170   0.533   3.062 -0.3651 -0.1376 -0.2205
 1689SOL     OW 6800   0.243   0.787   3.137 -0.1186 -0.1363 -0.1516
 1689SOL    HW2 6801   0.240   0.786   3.233 -0.7809 -0.3819 -0.1666
 1689SOL    HW3 6802   0.198   0.706   3.111  0.7983 -0.4825 -0.6572
 1689SOL    MW4 6803   0.236   0.776   3.146 -0.0850 -0.2144 -0.2205
 1690SOL     OW 6804   0.007   0.926   3.033  0.7222  0.2025 -0.0794
 1690SOL    HW2 6805   0.070   0.864   3.070  0.5122  0.5173  0.8276
 1690SOL    HW3 6806   0.020   0.919   2.938  1.2639 -0.6300  0.0422
 1690SOL    MW4 6807   0.017   0.917   3.025  0.7658  0.1342  0.0565
 1691SOL     OW 6808   0.043   1.172   3.133  0.2390  0.5892  0.2138
 1691SOL    HW2 6809  -0.047   1.197   3.110  0.4520  1.3597  0.2340
 1691SOL    HW3 6810   0.049   1.080   3.106  0.3147  1.3117 -2.2881
 1691SOL    MW4 6811   0.032   1.163   3.127  0.2770  0.7862 -0.1135
 1692SOL     OW 6812   0.235   1.308   2.991 -0.1061 -0.0837  0.1695
 1692SOL    HW2 6813   0.241   1.289   2.898 -1.6906  0.6000 -0.0910
 1692SOL    HW3 6814   0.162   1.255   3.022  2.2388 -2.5847  1.6616
 1692SOL    MW4 6815   0.226   1.299   2.983 -0.0058 -0.3235  0.3321
 1693SOL     OW 6816   0.215   1.543   3.116 -0.2332 -0.1516  0.1112
 1693SOL    HW2 6817   0.135   1.578   3.075  0.2847 -0.3432 -1.1072
 1693SOL    HW3 6818   0.224   1.455   3.078  0.5961 -0.0974  0.1797
 1693SOL    MW4 6819   0.205   1.536   3.105 -0.0554 -0.1698 -0.0403
 1694SOL     OW 6820   0.004   1.677   2.995  0.1230  0.1141  0.1863
 1694SOL    HW2 6821  -0.078   1.631   3.016 -0.8080  1.4784 -0.4134
 1694SOL    HW3 6822  -0.013   1.768   3.018  1.3566  0.4659 -0.2742
 1694SOL    MW4 6823  -0.009   1.683   3.001  0.1631  0.3405  0.0467
 1695SOL     OW 6824   4.453   1.930   3.086  0.0224 -0.1523  0.0373
 1695SOL    HW2 6825   4.379   1.979   3.051  1.0461  0.5001 -1.2602
 1695SOL    HW3 6826   4.530   1.974   3.051  0.9885 -2.2338 -0.5865
 1695SOL    MW4 6827   4.453   1.942   3.076  0.2847 -0.3408 -0.2162
 1696SOL     OW 6828   0.193   2.067   3.011  0.2667 -0.4687 -0.3014
 1696SOL    HW2 6829   0.217   2.147   3.057 -1.4873 -0.7729  1.1937
 1696SOL    HW3 6830   0.206   2.088   2.918 -0.5052  1.6593  0.0451
 1696SOL    MW4 6831   0.198   2.081   3.005 -0.0665 -0.2282 -0.0587
 1697SOL     OW 6832   0.214   2.342   3.129 -0.0709  0.7883  0.2655
 1697SOL    HW2 6833   0.203   2.355   3.224  0.4398 -0.6666  0.5280
 1697SOL    HW3 6834   0.288   2.398   3.107 -0.5551  1.5847  0.6114
 1697SOL    MW4 6835   0.222   2.351   3.139 -0.0674  0.7014  0.3457
 1698SOL     OW 6836   0.006   2.423   2.994  0.4643 -0.3164  0.2213
 1698SOL    HW2 6837  -0.026   2.507   3.027 -0.4004 -0.9444  1.0401
 1698SOL    HW3 6838   0.074   2.397   3.056 -1.0899 -1.4472  1.5369
 1698SOL    MW4 6839   0.011   2.430   3.007  0.1445 -0.5486  0.5028
 1699SOL     OW 6840   4.473   2.678   3.089  0.0773 -0.1299 -0.2354
 1699SOL    HW2 6841   4.469   2.704   3.181 -0.9371 -0.1770 -0.2631
 1699SOL    HW3 6842   4.554   2.718   3.057  1.5183 -1.8114  1.1917
 1699SOL    MW4 6843   4.483   2.686   3.097  0.1335 -0.3579 -0.0508
 1700SOL     OW 6844   0.222   2.826   3.036  0.2799 -0.0677 -0.3963
 1700SOL    HW2 6845   0.302   2.801   3.082 -0.0383 -0.1000  0.1379
 1700SOL    HW3 6846   0.249   2.833   2.944  0.7744 -0.5938 -0.2919
 1700SOL    MW4 6847   0.236   2.824   3.030  0.3032 -0.1414 -0.3121
 1701SOL     OW 6848   0.233   3.106   3.093 -0.4014  0.3469 -0.1287
 1701SOL    HW2 6849   0.150   3.145   3.064 -1.0152  0.0708  1.2335
 1701SOL    HW3 6850   0.221   3.012   3.080 -0.9907  0.1494  1.7888
 1701SOL    MW4 6851   0.220   3.099   3.088 -0.5601  0.2844  0.3042
 1702SOL     OW 6852   4.480   3.222   3.029  0.5129 -0.0682  0.0308
 1702SOL    HW2 6853   4.405   3.176   3.067  0.3271 -0.8042 -1.2282
 1702SOL    HW3 6854   4.471   3.210   2.935  1.6128  0.7854 -0.1948
 1702SOL    MW4 6855   4.469   3.215   3.022  0.6335 -0.0529 -0.1652
 1703SOL     OW 6856   0.023   3.479   3.109  0.1763  0.4240 -0.1065
 1703SOL    HW2 6857  -0.059   3.521   3.083  0.0399  0.2424  0.0303
 1703SOL    HW3 6858   0.017   3.391   3.072  0.7835  0.7592 -1.0234
 1703SOL    MW4 6859   0.011   3.473   3.101  0.2384  0.4444 -0.2096
 1704SOL     OW 6860   0.241   3.631   3.038 -0.0943 -0.2428  0.2925
 1704SOL    HW2 6861   0.219   3.714   3.080 -0.2194 -1.8924  3.6276
 1704SOL    HW3 6862   0.160   3.580   3.043  0.9869 -1.8515  1.5000
 1704SOL    MW4 6863   0.227   3.635   3.044  0.0318 -0.6728  0.8919
 1705SOL     OW 6864   0.176   3.896   3.130  0.3333  0.5633  0.1236
 1705SOL    HW2 6865   0.179   3.892   3.226  0.5471 -0.8778  0.0763
 1705SOL    HW3 6866   0.264   3.924   3.104  1.2526 -2.0444  0.2585
 1705SOL    MW4 6867   0.188   3.899   3.139  0.4828  0.0291  0.1352
 1706SOL     OW 6868   4.452   4.054   3.038 -0.0781 -0.2973 -0.5229
 1706SOL    HW2 6869   4.535   4.014   3.064  0.3477  0.3270 -0.8888
 1706SOL    HW3 6870   4.461   4.069   2.944 -0.3872  0.2853 -0.4629
 1706SOL    MW4 6871   4.464   4.051   3.029 -0.0625 -0.1383 -0.5631
 1707SOL     OW 6872   4.477   4.314   3.116 -0.0846 -0.0801 -0.0135
 1707SOL    HW2 6873   4.468   4.309   3.212  2.3139  0.2313  0.2766
 1707SOL    HW3 6874   4.468   4.223   3.087 -0.7967 -0.1836  0.5142
 1707SOL    MW4 6875   4.475   4.301   3.125  0.1379 -0.0529  0.0944
 1708SOL     OW 6876   0.229   4.426   3.043 -0.1487 -0.1998  0.0004
 1708SOL    HW2 6877   0.146   4.400   3.083 -0.9911  1.1763 -0.7890
 1708SOL    HW3 6878   0.250   4.510   3.084 -0.1375  0.3910 -1.1906
 1708SOL    MW4 6879   0.221   4.434   3.054 -0.2584  0.0601 -0.2608
 1709SOL     OW 6880   0.738   4.647   3.120 -0.2438  0.2869 -0.3099
 1709SOL    HW2 6881   0.726   4.564   3.075  0.0769 -1.1802  2.2205
 1709SOL    HW3 6882   0.667   4.703   3.087  0.1344 -0.6166 -2.7728
 1709SOL    MW4 6883   0.727   4.644   3.110 -0.1516 -0.0262 -0.3011
 1710SOL     OW 6884   0.515   0.156   3.041  0.3695  0.0060  0.1396
 1710SOL    HW2 6885   0.496   0.249   3.054 -0.4549  0.0929 -1.5490
 1710SOL    HW3 6886   0.443   0.110   3.084  1.4053  0.1089  2.0129
 1710SOL    MW4 6887   0.503   0.162   3.048  0.3974  0.0311  0.1640
 1711SOL     OW 6888   0.424   0.410   3.093  0.2320  0.5633 -0.1198
 1711SOL    HW2 6889   0.427   0.407   3.189 -0.6833  1.1032 -0.0691
 1711SOL    HW3 6890   0.511   0.442   3.068  0.5380  0.2520  0.5225
 1711SOL    MW4 6891   0.436   0.414   3.102  0.1516  0.5935 -0.0284
 1712SOL     OW 6892   0.683   0.470   3.011  0.1226  0.1719 -0.2463
 1712SOL    HW2 6893   0.759   0.420   3.038 -1.7024 -1.1269  2.8173
 1712SOL    HW3 6894   0.694   0.555   3.054  0.6918  0.5883 -1.2172
 1712SOL    MW4 6895   0.694   0.475   3.020 -0.0430  0.0555  0.0300
 1713SOL     OW 6896   0.678   0.730   3.133 -0.4907 -0.1005 -0.4793
 1713SOL    HW2 6897   0.673   0.736   3.229  1.7817  1.1343 -0.3988
 1713SOL    HW3 6898   0.600   0.774   3.102 -0.1244  1.5049  0.7879
 1713SOL    MW4 6899   0.667   0.736   3.142 -0.1425  0.2742 -0.3016
 1714SOL     OW 6900   0.469   0.886   3.041  0.6963 -0.2515  0.1098
 1714SOL    HW2 6901   0.384   0.857   3.075  0.2077  1.5919  0.5242
 1714SOL    HW3 6902   0.465   0.866   2.947  0.4713 -1.6953  0.4165
 1714SOL    MW4 6903   0.457   0.880   3.033  0.6022 -0.1988  0.2048
 1715SOL     OW 6904   0.428   1.162   3.139  0.3026 -0.0802  0.4374
 1715SOL    HW2 6905   0.449   1.084   3.089 -0.1470  0.1807 -0.1735
 1715SOL    HW3 6906   0.361   1.207   3.087 -0.0746  0.2696  1.2049
 1715SOL    MW4 6907   0.422   1.158   3.125  0.1935  0.0004  0.4582
 1716SOL     OW 6908   0.654   1.307   3.043 -0.0466 -0.2680 -1.0185
 1716SOL    HW2 6909   0.728   1.261   3.082 -0.5430  1.0432  1.6241
 1716SOL    HW3 6910   0.578   1.256   3.071 -0.3729  0.3964 -0.6829
 1716SOL    MW4 6911   0.654   1.294   3.052 -0.1552 -0.0074 -0.6256
 1717SOL     OW 6912   0.657   1.566   3.131 -0.0642 -0.1991  0.7003
 1717SOL    HW2 6913   0.665   1.554   3.226 -1.3990 -0.8027  0.7558
 1717SOL    HW3 6914   0.642   1.477   3.097 -1.0620  0.1870  0.1046
 1717SOL    MW4 6915   0.656   1.552   3.139 -0.3720 -0.2277  0.6289
 1718SOL     OW 6916   0.412   1.691   3.039  0.5172 -0.0741  0.1576
 1718SOL    HW2 6917   0.487   1.638   3.065  0.2365 -0.7531 -0.4385
 1718SOL    HW3 6918   0.337   1.646   3.077  0.5145  1.3147  1.8848
 1718SOL    MW4 6919   0.412   1.678   3.048  0.4798  0.0196  0.3068
 1719SOL     OW 6920   0.429   1.967   3.092 -0.1058 -0.1199 -0.1475
 1719SOL    HW2 6921   0.438   1.872   3.086 -0.6993 -0.2387  0.7594
 1719SOL    HW3 6922   0.342   1.985   3.054 -0.1818  0.0175  0.0938
 1719SOL    MW4 6923   0.419   1.957   3.086 -0.1941 -0.1173  0.0041
 1720SOL     OW 6924   0.671   2.066   2.987  0.2011  0.0158 -0.2998
 1720SOL    HW2 6925   0.741   2.012   3.021  1.1856  1.1642 -0.4486
 1720SOL    HW3 6926   0.590   2.019   3.008  0.8964 -0.2452  1.8277
 1720SOL    MW4 6927   0.669   2.053   2.994  0.4227  0.1328 -0.0386
 1721SOL     OW 6928   0.593   2.283   3.106  0.3177  0.1406 -0.1261
 1721SOL    HW2 6929   0.629   2.273   3.194 -0.8862 -2.6934  0.1017
 1721SOL    HW3 6930   0.633   2.213   3.055  0.0716  0.9944 -1.5227
 1721SOL    MW4 6931   0.603   2.273   3.111  0.1264 -0.1206 -0.2804
 1722SOL     OW 6932   0.434   2.500   3.026 -0.3319  0.2736  0.5037
 1722SOL    HW2 6933   0.477   2.419   3.054 -1.8844 -0.5360  0.6257
 1722SOL    HW3 6934   0.437   2.498   2.931 -1.4859 -0.5684  0.4742
 1722SOL    MW4 6935   0.440   2.489   3.017 -0.6890  0.0558  0.5157
 1723SOL     OW 6936   0.450   2.746   3.162 -0.0546 -0.0198 -0.0222
 1723SOL    HW2 6937   0.515   2.786   3.104 -0.2858 -0.3899 -0.5421
 1723SOL    HW3 6938   0.440   2.657   3.129  0.0351 -0.3304  0.7812
 1723SOL    MW4 6939   0.457   2.740   3.150 -0.0733 -0.1097  0.0153
 1724SOL     OW 6940   0.660   2.863   2.997  0.1971  0.1508  0.3533
 1724SOL    HW2 6941   0.730   2.817   3.044 -0.4670  0.0571  1.2679
 1724SOL    HW3 6942   0.663   2.952   3.032  1.4173  0.8141 -1.3429
 1724SOL    MW4 6943   0.670   2.868   3.008  0.2705  0.2258  0.2501
 1725SOL     OW 6944   0.664   3.100   3.153  0.2470  0.6691 -0.0791
 1725SOL    HW2 6945   0.650   3.081   3.245  0.1073 -2.7498 -0.7505
 1725SOL    HW3 6946   0.583   3.142   3.124 -1.1951 -1.6836  0.4868
 1725SOL    MW4 6947   0.652   3.103   3.161  0.0383 -0.0925 -0.0930
 1726SOL     OW 6948   0.471   3.226   3.009  0.0889  0.0474  0.0052
 1726SOL    HW2 6949   0.459   3.308   3.058  0.3735 -0.3113  0.6870
 1726SOL    HW3 6950   0.389   3.178   3.022 -0.0094  0.1443 -0.2489
 1726SOL    MW4 6951   0.459   3.231   3.017  0.1135  0.0124  0.0618
 1727SOL     OW 6952   0.434   3.477   3.152  0.0351 -0.0027 -0.4029
 1727SOL    HW2 6953   0.443   3.487   3.247 -0.0492  0.5908 -0.4540
 1727SOL    HW3 6954   0.361   3.535   3.129 -0.3693 -0.6377 -0.7396
 1727SOL    MW4 6955   0.425   3.486   3.161 -0.0294 -0.0083 -0.4542
 1728SOL     OW 6956   0.650   3.626   3.011  0.1332  0.3431  0.2248
 1728SOL    HW2 6957   0.727   3.579   3.042 -0.6875 -2.1516 -1.3141
 1728SOL    HW3 6958   0.577   3.590   3.062 -0.6107 -0.6682 -1.4809
 1728SOL    MW4 6959   0.650   3.615   3.022 -0.0733 -0.1194 -0.2031
 1729SOL     OW 6960   0.673   3.864   3.117  0.5248 -0.0349  0.1038
 1729SOL    HW2 6961   0.662   3.851   3.212  0.7603 -0.3394  0.0905
 1729SOL    HW3 6962   0.649   3.779   3.079 -2.8873  1.0628 -0.3557
 1729SOL    MW4 6963   0.668   3.851   3.125  0.1057  0.0699  0.0415
 1730SOL     OW 6964   0.425   3.981   3.036 -0.4840  0.2399 -0.6928
 1730SOL    HW2 6965   0.515   3.961   3.060 -0.5176 -0.7293 -1.3443
 1730SOL    HW3 6966   0.424   3.979   2.940 -1.2857 -0.1464 -0.6839
 1730SOL    MW4 6967   0.436   3.978   3.026 -0.5942  0.0610 -0.7772
 1731SOL     OW 6968   0.455   4.255   3.072 -0.1379  0.5551  0.6315
 1731SOL    HW2 6969   0.425   4.164   3.067 -0.9016  0.7892  0.8522
 1731SOL    HW3 6970   0.376   4.307   3.057  0.2337  1.1842  0.8333
 1731SOL    MW4 6971   0.441   4.250   3.069 -0.1897  0.6685  0.6871
 1732SOL     OW 6972   0.693   4.400   3.022  0.2801 -0.1234 -0.1627
 1732SOL    HW2 6973   0.605   4.376   3.050  0.1114 -0.6119 -1.1194
 1732SOL    HW3 6974   0.692   4.390   2.927  1.5332 -0.6618 -0.1187
 1732SOL    MW4 6975   0.681   4.396   3.013  0.4232 -0.2589 -0.2830
 1733SOL     OW 6976   1.172   4.644   3.154 -0.0296  0.6295  0.3852
 1733SOL    HW2 6977   1.253   4.682   3.120  0.3733 -0.9051 -0.4141
 1733SOL    HW3 6978   1.102   4.693   3.110  0.4808  0.7808 -0.2581
 1733SOL    MW4 6979   1.173   4.655   3.144  0.0908  0.4468  0.1950
 1734SOL     OW 6980   0.980   0.121   3.021  0.0520  0.0268 -0.5266
 1734SOL    HW2 6981   0.971   0.214   3.041 -0.0706 -0.0765 -0.1075
 1734SOL    HW3 6982   0.909   0.078   3.068  0.7928 -0.4121  0.2101
 1734SOL    MW4 6983   0.970   0.127   3.030  0.1335 -0.0447 -0.3741
 1735SOL     OW 6984   0.942   0.385   3.090 -0.2853 -0.4219  0.0550
 1735SOL    HW2 6985   0.907   0.382   3.180  1.0042 -0.9720  0.5413
 1735SOL    HW3 6986   1.013   0.448   3.095 -1.3790  0.9173 -1.0108
 1735SOL    MW4 6987   0.946   0.393   3.103 -0.2595 -0.3178 -0.0215
 1736SOL     OW 6988   1.151   0.560   3.028  0.0217  0.8156 -0.1836
 1736SOL    HW2 6989   1.229   0.510   3.052  0.2855  1.3408  0.0568
 1736SOL    HW3 6990   1.141   0.545   2.934  0.1656  0.4057 -0.1332
 1736SOL    MW4 6991   1.160   0.552   3.019  0.0756  0.8308 -0.1452
 1737SOL     OW 6992   1.072   0.770   3.475  0.3676 -0.2157  0.0446
 1737SOL    HW2 6993   1.148   0.793   3.529 -0.4557  1.0958  0.6895
 1737SOL    HW3 6994   1.063   0.676   3.484  2.0607 -0.4232 -0.2346
 1737SOL    MW4 6995   1.081   0.761   3.483  0.4823 -0.0700  0.0927
 1738SOL     OW 6996   1.123   0.783   3.183  0.4724  0.0582 -0.1239
 1738SOL    HW2 6997   1.129   0.699   3.139  1.6649 -0.0179  0.1675
 1738SOL    HW3 6998   1.130   0.763   3.276  1.3713  0.5325 -0.0860
 1738SOL    MW4 6999   1.125   0.770   3.189  0.7484  0.1108 -0.0806
 1739SOL     OW 7000   0.877   0.889   3.073 -0.2104  0.0246 -0.4523
 1739SOL    HW2 7001   0.953   0.860   3.124 -0.2960  1.9351  0.7995
 1739SOL    HW3 7002   0.812   0.819   3.086  0.7262 -0.8031 -0.1462
 1739SOL    MW4 7003   0.879   0.876   3.082 -0.0981  0.1674 -0.2465
 1740SOL     OW 7004   1.162   1.225   3.061 -0.0311  0.3880  0.1987
 1740SOL    HW2 7005   1.079   1.189   3.091  0.6675 -1.8909 -0.5081
 1740SOL    HW3 7006   1.152   1.234   2.966  0.5755 -0.0600  0.0872
 1740SOL    MW4 7007   1.150   1.221   3.052  0.1410  0.0281  0.0906
 1741SOL     OW 7008   1.113   1.495   3.156  0.3409  0.7215 -0.0456
 1741SOL    HW2 7009   1.189   1.533   3.112 -0.1115 -0.6464 -2.1454
 1741SOL    HW3 7010   1.122   1.401   3.140 -0.6343  0.3340  1.6038
 1741SOL    MW4 7011   1.124   1.487   3.148  0.1525  0.4900 -0.1051
 1742SOL     OW 7012   0.930   1.660   3.046 -0.2801 -0.6066 -0.8168
 1742SOL    HW2 7013   0.998   1.613   3.094  0.0188  0.2128 -0.4350
 1742SOL    HW3 7014   0.848   1.625   3.082 -0.0597 -0.6167 -0.3233
 1742SOL    MW4 7015   0.928   1.649   3.057 -0.2115 -0.4998 -0.7014
 1743SOL     OW 7016   0.884   1.933   3.096  0.4153 -0.6459  0.0223
 1743SOL    HW2 7017   0.874   1.947   3.190  0.1003  0.2729 -0.1388
 1743SOL    HW3 7018   0.904   1.840   3.087 -0.4281 -0.9215  0.9315
 1743SOL    MW4 7019   0.885   1.923   3.107  0.2624 -0.5611  0.1209
 1744SOL     OW 7020   1.113   2.071   3.031 -0.0243  0.1692 -0.2927
 1744SOL    HW2 7021   1.038   2.014   3.048 -0.9632  1.2751 -0.6163
 1744SOL    HW3 7022   1.112   2.083   2.936 -0.2282  1.2146 -0.1689
 1744SOL    MW4 7023   1.103   2.065   3.021 -0.1750  0.4532 -0.3190
 1745SOL     OW 7024   1.097   2.336   3.151 -0.1439  0.0713  0.0736
 1745SOL    HW2 7025   1.011   2.368   3.124  0.1070  1.1874  0.5839
 1745SOL    HW3 7026   1.098   2.245   3.123 -1.1970  0.2656 -0.6293
 1745SOL    MW4 7027   1.085   2.328   3.144 -0.2499  0.2441  0.0482
 1746SOL     OW 7028   0.839   2.449   3.058 -0.2072 -0.4588 -0.2803
 1746SOL    HW2 7029   0.767   2.386   3.048 -0.2567 -0.4639  0.1082
 1746SOL    HW3 7030   0.868   2.467   2.969 -1.8170  0.8426 -0.5705
 1746SOL    MW4 7031   0.833   2.443   3.045 -0.4261 -0.2878 -0.2675
 1747SOL     OW 7032   0.864   2.736   3.125 -0.2754 -0.0995 -0.4768
 1747SOL    HW2 7033   0.880   2.757   3.217 -1.2725  0.1429 -0.3554
 1747SOL    HW3 7034   0.851   2.641   3.124  2.1123 -0.4636 -0.7244
 1747SOL    MW4 7035   0.864   2.726   3.137 -0.0920 -0.1156 -0.4933
 1748SOL     OW 7036   1.100   2.822   3.007 -0.2829 -0.3027  0.2458
 1748SOL    HW2 7037   1.102   2.910   3.046 -0.8972  0.2766 -0.9857
 1748SOL    HW3 7038   1.025   2.780   3.048 -0.4950  0.0493  0.2269
 1748SOL    MW4 7039   1.090   2.828   3.018 -0.3920 -0.1800  0.0811
 1749SOL     OW 7040   1.103   3.085   3.155 -0.0906 -0.0712 -0.0663
 1749SOL    HW2 7041   1.176   3.143   3.134 -0.8359  0.2862 -1.7747
 1749SOL    HW3 7042   1.025   3.136   3.132 -0.8247 -0.9946  0.3437
 1749SOL    MW4 7043   1.102   3.100   3.150 -0.2857 -0.1459 -0.2375
 1750SOL     OW 7044   0.896   3.235   3.076 -0.0133  0.3067 -0.4829
 1750SOL    HW2 7045   0.812   3.193   3.095 -0.4299  0.8635 -1.0891
 1750SOL    HW3 7046   0.909   3.220   2.983 -0.5735  2.2506 -0.8962
 1750SOL    MW4 7047   0.886   3.227   3.066 -0.1422  0.6366 -0.6173
 1751SOL     OW 7048   0.878   3.504   3.120 -0.1424  0.0263 -0.0533
 1751SOL    HW2 7049   0.950   3.544   3.072  0.9735 -1.5010  0.2955
 1751SOL    HW3 7050   0.894   3.410   3.112 -1.3252 -0.2918  1.2052
 1751SOL    MW4 7051   0.890   3.497   3.113 -0.1512 -0.2172  0.1588
 1752SOL     OW 7052   1.113   3.646   3.027  0.3895  0.1023 -0.0908
 1752SOL    HW2 7053   1.191   3.605   3.065 -0.4512  0.0413  1.6304
 1752SOL    HW3 7054   1.102   3.727   3.077 -2.3155 -1.3108  1.7343
 1752SOL    MW4 7055   1.122   3.651   3.039 -0.0783 -0.0923  0.3774
 1753SOL     OW 7056   1.133   3.882   3.161 -0.0273 -0.1749 -0.4908
 1753SOL    HW2 7057   1.121   3.874   3.256 -0.3605  1.2787 -0.3936
 1753SOL    HW3 7058   1.049   3.917   3.129  0.8129  1.4267 -1.0147
 1753SOL    MW4 7059   1.120   3.886   3.169  0.0396  0.2282 -0.5472
 1754SOL     OW 7060   0.900   3.992   3.030 -0.0946 -0.0963 -1.2422
 1754SOL    HW2 7061   0.816   3.950   3.046  0.0265  0.7804  1.9822
 1754SOL    HW3 7062   0.899   4.013   2.936 -2.4196 -2.2443 -1.7599
 1754SOL    MW4 7063   0.889   3.989   3.020 -0.3854 -0.2639 -0.8850
 1755SOL     OW 7064   0.880   4.240   3.135  0.0086  0.2227 -0.0125
 1755SOL    HW2 7065   0.897   4.156   3.093  0.7577  0.0404  0.6481
 1755SOL    HW3 7066   0.805   4.276   3.087 -0.4233 -0.8924 -0.1863
 1755SOL    MW4 7067   0.872   4.234   3.123  0.0504  0.0515  0.0517
 1756SOL     OW 7068   1.121   4.380   3.065 -0.1603  0.5635 -0.0150
 1756SOL    HW2 7069   1.032   4.354   3.088 -0.0210  0.8976  0.8989
 1756SOL    HW3 7070   1.131   4.468   3.102  1.1897 -0.2267  1.5227
 1756SOL    MW4 7071   1.110   4.388   3.073  0.0361  0.5035  0.3083
 1757SOL     OW 7072   1.585   0.024   3.121  0.1288 -0.6767 -0.1200
 1757SOL    HW2 7073   1.587   0.035   3.216  0.0799 -1.0836 -0.0711
 1757SOL    HW3 7074   1.507   0.072   3.093 -0.0378 -0.8286  0.0820
 1757SOL    MW4 7075   1.575   0.032   3.130  0.1004 -0.7501 -0.0870
 1758SOL     OW 7076   1.358   0.137   3.029 -0.2963 -0.5532  0.0648
 1758SOL    HW2 7077   1.362   0.231   3.047 -0.7211 -0.5692  0.2449
 1758SOL    HW3 7078   1.351   0.131   2.934 -0.8374 -0.3847  0.0927
 1758SOL    MW4 7079   1.358   0.148   3.019 -0.4238 -0.5330  0.0925
 1759SOL     OW 7080   1.369   0.406   3.108 -0.0533  0.9652  0.1095
 1759SOL    HW2 7081   1.377   0.408   3.204 -1.4320  0.7652  0.2358
 1759SOL    HW3 7082   1.454   0.436   3.077  0.5481  0.6567  1.3977
 1759SOL    MW4 7083   1.382   0.411   3.117 -0.1557  0.8981  0.2961
 1760SOL     OW 7084   1.625   0.513   3.055 -0.4822 -0.4830  0.7122
 1760SOL    HW2 7085   1.610   0.600   3.092  0.7026 -0.2421  0.6452
 1760SOL    HW3 7086   1.607   0.523   2.961  0.9543  0.0280  0.4786
 1760SOL    MW4 7087   1.621   0.526   3.047 -0.1365 -0.3837  0.6723
 1761SOL     OW 7088   1.566   0.767   3.148  0.1365 -0.5085  0.4596
 1761SOL    HW2 7089   1.536   0.735   3.233 -0.4062 -0.0549  0.4378
 1761SOL    HW3 7090   1.492   0.815   3.112  0.5971 -0.0993  0.0370
 1761SOL    MW4 7091   1.553   0.769   3.154  0.1256 -0.3946  0.4010
 1762SOL     OW 7092   1.349   0.908   3.062 -0.3997  0.2419 -0.0232
 1762SOL    HW2 7093   1.361   0.993   3.104  1.4993  0.5835 -1.2417
 1762SOL    HW3 7094   1.266   0.876   3.098 -0.5826  2.0979  1.2884
 1762SOL    MW4 7095   1.339   0.915   3.072 -0.1732  0.5318 -0.0107
 1763SOL     OW 7096   1.391   1.142   3.193 -0.7383 -0.1865  0.6496
 1763SOL    HW2 7097   1.320   1.176   3.139 -1.3518 -1.3356  0.7253
 1763SOL    HW3 7098   1.466   1.199   3.173 -1.3150  0.2135 -0.4020
 1763SOL    MW4 7099   1.391   1.154   3.183 -0.8954 -0.2853  0.5209
 1764SOL     OW 7100   1.602   1.271   3.095 -0.5527 -0.4172 -0.1710
 1764SOL    HW2 7101   1.680   1.249   3.145  0.4694 -0.4567 -1.7463
 1764SOL    HW3 7102   1.582   1.362   3.120  0.5769 -0.0739 -0.4904
 1764SOL    MW4 7103   1.609   1.280   3.105 -0.2687 -0.3772 -0.4210
 1765SOL     OW 7104   1.561   1.549   3.179  0.1972 -0.0997 -0.1022
 1765SOL    HW2 7105   1.636   1.603   3.154  0.7803 -0.5858  0.5684
 1765SOL    HW3 7106   1.486   1.590   3.137  1.0942 -0.6618 -2.3195
 1765SOL    MW4 7107   1.561   1.561   3.170  0.3926 -0.2379 -0.3061
 1766SOL     OW 7108   1.337   1.642   3.028  0.4423  0.1675 -0.5490
 1766SOL    HW2 7109   1.302   1.727   3.056 -0.0258  0.2718 -1.4627
 1766SOL    HW3 7110   1.345   1.649   2.933  1.6469 -0.3433 -0.4916
 1766SOL    MW4 7111   1.334   1.654   3.019  0.5394  0.1137 -0.6618
 1767SOL     OW 7112   1.314   1.906   3.140 -0.2829  0.2492 -0.0091
 1767SOL    HW2 7113   1.314   1.908   3.236  2.9018 -0.9829  0.0802
 1767SOL    HW3 7114   1.256   1.977   3.114  1.1575  2.5426  2.8462
 1767SOL    MW4 7115   1.306   1.916   3.149  0.3273  0.3893  0.3791
 1768SOL     OW 7116   1.553   2.053   3.049 -0.4136 -0.0821  0.1790
 1768SOL    HW2 7117   1.481   1.995   3.073 -0.4911  0.2432  0.7235
 1768SOL    HW3 7118   1.545   2.063   2.954 -0.4927 -0.8375  0.1006
 1768SOL    MW4 7119   1.543   2.046   3.039 -0.4343 -0.1388  0.2403
 1769SOL     OW 7120   1.328   2.411   3.001  0.2758 -0.0634  0.1502
 1769SOL    HW2 7121   1.244   2.393   3.043 -0.3485 -0.1542 -1.1112
 1769SOL    HW3 7122   1.391   2.360   3.050 -0.6169 -1.0911  0.2467
 1769SOL    MW4 7123   1.325   2.402   3.013  0.0756 -0.2110 -0.0033
 1770SOL     OW 7124   1.343   2.485   2.731 -0.6887 -0.2199  0.0686
 1770SOL    HW2 7125   1.341   2.463   2.824  0.4190 -0.4224  0.0473
 1770SOL    HW3 7126   1.407   2.425   2.693 -2.8914 -1.8160 -1.2784
 1770SOL    MW4 7127   1.351   2.475   2.738 -0.8332 -0.4570 -0.1121
 1771SOL     OW 7128   1.330   2.664   3.103  0.0001 -0.0337 -0.3647
 1771SOL    HW2 7129   1.339   2.579   3.060  0.2826 -0.9050  1.3850
 1771SOL    HW3 7130   1.247   2.700   3.069  0.9433 -0.0162 -2.7553
 1771SOL    MW4 7131   1.320   2.658   3.093  0.1618 -0.1462 -0.4492
 1772SOL     OW 7132   1.522   2.868   3.096  0.0841 -0.4587  0.4082
 1772SOL    HW2 7133   1.607   2.827   3.112  0.1675 -0.4186  0.0830
 1772SOL    HW3 7134   1.461   2.795   3.093  0.3960 -0.6801 -1.2681
 1772SOL    MW4 7135   1.525   2.853   3.097  0.1364 -0.4826  0.1440
 1773SOL     OW 7136   1.535   3.139   3.168 -0.9580  0.0398 -0.5449
 1773SOL    HW2 7137   1.549   3.144   3.262  2.7884 -0.1995 -1.0047
 1773SOL    HW3 7138   1.522   3.046   3.150  1.9067 -0.3595 -0.6622
 1773SOL    MW4 7139   1.535   3.127   3.178 -0.0857 -0.0446 -0.6211
 1774SOL     OW 7140   1.300   3.279   3.083 -0.3683  0.2571 -0.6329
 1774SOL    HW2 7141   1.383   3.243   3.115 -0.2659  1.0561  0.0236
 1774SOL    HW3 7142   1.302   3.264   2.989  0.0841 -0.6195 -0.4841
 1774SOL    MW4 7143   1.311   3.273   3.075 -0.2950  0.2468 -0.5264
 1775SOL     OW 7144   1.358   3.556   3.153  0.3162 -0.4631  0.0420
 1775SOL    HW2 7145   1.447   3.569   3.118  1.3630 -2.6453  1.8173
 1775SOL    HW3 7146   1.339   3.464   3.136 -1.5541 -0.0488 -0.1631
 1775SOL    MW4 7147   1.367   3.546   3.146  0.2075 -0.6967  0.2489
 1776SOL     OW 7148   1.594   3.600   3.022 -0.1759 -0.2201  0.2529
 1776SOL    HW2 7149   1.570   3.620   2.932 -1.4956  0.0968  0.6603
 1776SOL    HW3 7150   1.615   3.685   3.061 -0.4427 -0.2613  0.4857
 1776SOL    MW4 7151   1.594   3.614   3.016 -0.3853 -0.1836  0.3374
 1777SOL     OW 7152   1.599   3.849   3.134 -0.1835 -0.1343  0.0516
 1777SOL    HW2 7153   1.591   3.848   3.230 -0.5978 -0.1209  0.0203
 1777SOL    HW3 7154   1.680   3.896   3.117  0.2307 -0.7130  0.4174
 1777SOL    MW4 7155   1.608   3.855   3.145 -0.1835 -0.2086  0.0958
 1778SOL     OW 7156   1.369   3.973   3.037  0.1234  0.0362  0.1507
 1778SOL    HW2 7157   1.447   3.940   3.082  0.2513  0.9395  0.6052
 1778SOL    HW3 7158   1.296   3.946   3.092  0.2451  0.7267  0.6484
 1778SOL    MW4 7159   1.369   3.965   3.050  0.1563  0.2463  0.2763
 1779SOL     OW 7160   1.359   4.258   3.124  0.4050 -0.1286 -0.2228
 1779SOL    HW2 7161   1.371   4.171   3.086 -1.5653 -1.0193  1.0798
 1779SOL    HW3 7162   1.268   4.281   3.106  0.8369  1.5745 -0.3545
 1779SOL    MW4 7163   1.349   4.250   3.117  0.2021 -0.0219 -0.0687
 1780SOL     OW 7164   1.573   4.407   3.024 -0.0853  0.1011  0.5633
 1780SOL    HW2 7165   1.492   4.370   3.061 -0.2393  0.7467  0.8851
 1780SOL    HW3 7166   1.569   4.500   3.048  1.7305 -0.2513  2.3115
 1780SOL    MW4 7167   1.562   4.414   3.032  0.1338  0.1402  0.8366
 1781SOL     OW 7168   2.055   4.650   3.155  0.2115 -0.4562  0.6257
 1781SOL    HW2 7169   2.047   4.646   3.250 -0.2931 -0.9494  0.5689
 1781SOL    HW3 7170   1.972   4.688   3.125  0.9283  1.0131  0.4657
 1781SOL    MW4 7171   2.043   4.654   3.164  0.2394 -0.3271  0.5970
 1782SOL     OW 7172   1.839   0.115   3.055  0.0021 -0.3334 -0.9258
 1782SOL    HW2 7173   1.747   0.103   3.078  0.3200 -1.1918 -0.0401
 1782SOL    HW3 7174   1.839   0.128   2.961 -1.2589  2.1985 -0.6161
 1782SOL    MW4 7175   1.827   0.115   3.046 -0.1225 -0.1126 -0.7679
 1783SOL     OW 7176   1.834   0.373   3.190  0.0808  0.1036 -0.4162
 1783SOL    HW2 7177   1.862   0.289   3.153  0.9297  1.1277 -2.1671
 1783SOL    HW3 7178   1.755   0.396   3.141  1.3631  1.5936 -1.8555
 1783SOL    MW4 7179   1.828   0.365   3.179  0.3619  0.4353 -0.8371
 1784SOL     OW 7180   2.052   0.785   3.110  0.0598 -0.0153  0.4375
 1784SOL    HW2 7181   1.967   0.821   3.086  0.3293 -0.3428 -1.0111
 1784SOL    HW3 7182   2.049   0.780   3.206 -1.0536  1.1748  0.4755
 1784SOL    MW4 7183   2.041   0.789   3.120 -0.0515  0.0986  0.2513
 1785SOL     OW 7184   1.995   0.516   3.036 -0.1152 -0.0646  0.0773
 1785SOL    HW2 7185   1.996   0.604   3.073  0.7815  0.1287 -0.3955
 1785SOL    HW3 7186   1.930   0.469   3.087 -3.2208  1.8505 -1.9263
 1785SOL    MW4 7187   1.986   0.521   3.047 -0.4067  0.2135 -0.2491
 1786SOL     OW 7188   1.814   0.908   3.051  0.1489  0.4339 -0.0746
 1786SOL    HW2 7189   1.729   0.880   3.084  0.9280 -1.0593  0.7188
 1786SOL    HW3 7190   1.805   0.903   2.956 -0.2627 -0.9539  0.0211
 1786SOL    MW4 7191   1.802   0.904   3.043  0.1973  0.0538  0.0427
 1787SOL     OW 7192   1.851   1.152   3.182  0.5345 -0.4695  0.3279
 1787SOL    HW2 7193   1.852   1.133   3.275 -1.0211 -0.0828  0.4507
 1787SOL    HW3 7194   1.857   1.067   3.139 -0.3144 -0.7744  0.8067
 1787SOL    MW4 7195   1.852   1.139   3.189  0.2173 -0.4587  0.4072
 1788SOL     OW 7196   2.041   1.302   3.110 -0.4364  0.2801 -0.4586
 1788SOL    HW2 7197   2.126   1.266   3.136  0.3241  1.6910 -0.9532
 1788SOL    HW3 7198   1.977   1.247   3.155  0.7149 -1.4242 -0.8963
 1788SOL    MW4 7199   2.044   1.290   3.120 -0.1843  0.2413 -0.5815
 1789SOL     OW 7200   2.043   1.577   3.154  0.5509 -0.2013 -0.2413
 1789SOL    HW2 7201   2.043   1.580   3.250  0.7684  1.2576 -0.2843
 1789SOL    HW3 7202   2.041   1.483   3.134  1.6980 -0.5565  1.1932
 1789SOL    MW4 7203   2.043   1.565   3.164  0.7310 -0.0557 -0.0577
 1790SOL     OW 7204   1.767   1.694   3.068  0.0251 -0.8759  0.1915
 1790SOL    HW2 7205   1.780   1.787   3.084 -0.9200 -0.6985 -0.0783
 1790SOL    HW3 7206   1.833   1.651   3.123 -0.2580 -0.0942  1.1518
 1790SOL    MW4 7207   1.778   1.701   3.077 -0.1370 -0.7492  0.2828
 1791SOL     OW 7208   1.805   1.961   3.124  0.0058  0.0794  0.7854
 1791SOL    HW2 7209   1.872   1.998   3.065  0.6244 -1.1842  0.6875
 1791SOL    HW3 7210   1.724   2.005   3.099  0.5213  0.5414 -0.0933
 1791SOL    MW4 7211   1.803   1.972   3.113  0.1556 -0.0262  0.6566
 1792SOL     OW 7212   2.043   2.059   3.006  0.0214 -0.0056 -0.3689
 1792SOL    HW2 7213   2.114   2.013   3.051 -1.0927 -0.5464  0.8821
 1792SOL    HW3 7214   2.039   2.144   3.050 -0.3553 -0.1277 -0.1618
 1792SOL    MW4 7215   2.052   2.064   3.018 -0.1755 -0.0930 -0.1767
 1793SOL     OW 7216   2.008   2.314   3.119  0.1417  0.4366  0.2227
 1793SOL    HW2 7217   2.087   2.363   3.093  1.7764 -2.6017 -0.7782
 1793SOL    HW3 7218   1.936   2.360   3.075  1.9397  0.3504 -2.9540
 1793SOL    MW4 7219   2.009   2.327   3.110  0.5944  0.0243 -0.3285
 1794SOL     OW 7220   1.777   2.472   3.040 -0.3232 -0.0250 -0.4679
 1794SOL    HW2 7221   1.786   2.559   3.078 -1.1464 -0.8636  1.6771
 1794SOL    HW3 7222   1.709   2.430   3.091  0.4825 -2.1560 -1.1063
 1794SOL    MW4 7223   1.769   2.478   3.052 -0.3254 -0.4168 -0.2689
 1795SOL     OW 7224   1.759   2.734   3.139  0.0209  0.0508 -0.2555
 1795SOL    HW2 7225   1.755   2.725   3.234 -0.0140 -0.1840 -0.2775
 1795SOL    HW3 7226   1.843   2.775   3.122 -0.9556  2.2384  0.0290
 1795SOL    MW4 7227   1.769   2.738   3.149 -0.1125  0.3085 -0.2208
 1796SOL     OW 7228   2.018   2.797   3.067  0.1722 -0.2750 -0.3139
 1796SOL    HW2 7229   2.014   2.889   3.095 -1.4830  0.0595 -1.5839
 1796SOL    HW3 7230   2.010   2.801   2.972 -0.6963 -1.7756 -0.3136
 1796SOL    MW4 7231   2.016   2.810   3.058 -0.1609 -0.4292 -0.4816
 1797SOL     OW 7232   2.002   3.050   3.153  0.3386  0.5285 -0.0168
 1797SOL    HW2 7233   1.980   3.068   3.245 -1.2798  1.6276 -0.6030
 1797SOL    HW3 7234   1.937   3.099   3.103  1.5313  0.3528 -1.7688
 1797SOL    MW4 7235   1.991   3.059   3.159  0.2824  0.6502 -0.3252
 1798SOL     OW 7236   1.780   3.170   3.045 -0.4183  0.1119  0.3922
 1798SOL    HW2 7237   1.689   3.157   3.070 -0.0339 -0.7753  1.3534
 1798SOL    HW3 7238   1.777   3.187   2.951 -1.3889 -1.9870  0.0190
 1798SOL    MW4 7239   1.767   3.171   3.036 -0.4957 -0.2820  0.4699
 1799SOL     OW 7240   1.814   3.467   3.094  0.2467  0.5766 -0.2438
 1799SOL    HW2 7241   1.792   3.377   3.069  2.5761  0.1380 -0.8141
 1799SOL    HW3 7242   1.738   3.519   3.067 -0.9930 -1.1550 -0.1930
 1799SOL    MW4 7243   1.801   3.462   3.087  0.3904  0.2902 -0.3126
 1800SOL     OW 7244   2.030   3.618   3.043 -0.1375  0.5310  0.2716
 1800SOL    HW2 7245   2.018   3.690   3.105 -1.1165 -0.3580  1.1288
 1800SOL    HW3 7246   1.953   3.562   3.055  0.8692 -0.9449  0.0062
 1800SOL    MW4 7247   2.018   3.620   3.053 -0.1338  0.2193  0.3493
 1801SOL     OW 7248   2.021   3.848   3.196 -0.2674  0.3728  0.2094
 1801SOL    HW2 7249   1.987   3.816   3.280 -0.2574 -0.6878 -0.1908
 1801SOL    HW3 7250   1.947   3.892   3.155 -1.1275 -1.7510 -0.5676
 1801SOL    MW4 7251   2.007   3.850   3.202 -0.3796 -0.0474  0.0544
 1802SOL     OW 7252   1.837   3.982   3.057 -0.0028 -0.4468  0.5009
 1802SOL    HW2 7253   1.821   4.073   3.080  0.4764 -0.3553  0.4694
 1802SOL    HW3 7254   1.808   3.975   2.966  0.0053 -0.3160  0.4889
 1802SOL    MW4 7255   1.831   3.993   3.048  0.0614 -0.4172  0.4954
 1803SOL     OW 7256   1.782   4.251   3.111 -0.1307 -0.0712 -0.2968
 1803SOL    HW2 7257   1.865   4.296   3.095  0.7623 -0.8404  1.8892
 1803SOL    HW3 7258   1.715   4.314   3.084  1.1173  2.2815  1.7959
 1803SOL    MW4 7259   1.784   4.265   3.106  0.1518  0.1378  0.2675
 1804SOL     OW 7260   2.050   4.383   3.073 -0.3720  0.0941 -0.8651
 1804SOL    HW2 7261   2.040   4.471   3.110 -1.6275 -0.2969 -0.2311
 1804SOL    HW3 7262   2.054   4.397   2.979  0.7910  0.9385 -0.7046
 1804SOL    MW4 7263   2.049   4.397   3.066 -0.3841  0.1540 -0.7601
 1805SOL     OW 7264   2.470   4.640   3.184  0.3367  0.0889 -0.5305
 1805SOL    HW2 7265   2.474   4.545   3.169 -1.2311 -0.2406  1.0009
 1805SOL    HW3 7266   2.398   4.670   3.128  0.3532  0.2682 -0.4550
 1805SOL    MW4 7267   2.461   4.631   3.175  0.1318  0.0687 -0.3183
 1806SOL     OW 7268   2.269   0.129   3.062  0.4009 -0.6832  0.3922
 1806SOL    HW2 7269   2.269   0.219   3.095  0.3185  0.0449 -1.5305
 1806SOL    HW3 7270   2.183   0.094   3.087  0.1412  0.0204  0.5007
 1806SOL    MW4 7271   2.258   0.137   3.070  0.3557 -0.4943  0.1528
 1807SOL     OW 7272   2.214   0.387   3.151 -0.1796  0.0019  0.4048
 1807SOL    HW2 7273   2.208   0.401   3.245  0.9063 -0.9379  0.6286
 1807SOL    HW3 7274   2.137   0.431   3.115 -0.2957  0.8590  1.6724
 1807SOL    MW4 7275   2.203   0.395   3.159 -0.0517 -0.0090  0.6018
 1808SOL     OW 7276   2.440   0.485   3.052  0.5236 -0.2464  0.2682
 1808SOL    HW2 7277   2.360   0.450   3.091  0.3367 -0.9631 -0.7477
 1808SOL    HW3 7278   2.415   0.508   2.963  0.8989  1.5657  0.6018
 1808SOL    MW4 7279   2.426   0.484   3.046  0.5481 -0.1019  0.1783
 1809SOL     OW 7280   2.480   0.723   3.206 -0.6232 -0.1270  0.1540
 1809SOL    HW2 7281   2.563   0.763   3.181 -0.7934  0.7176  0.9246
 1809SOL    HW3 7282   2.468   0.651   3.143  0.9801 -0.6357  0.4105
 1809SOL    MW4 7283   2.490   0.719   3.194 -0.4339 -0.0827  0.2897
 1810SOL     OW 7284   2.288   0.893   3.055 -0.4312 -0.1924  0.0764
 1810SOL    HW2 7285   2.350   0.833   3.097  0.5935 -0.4007 -1.6509
 1810SOL    HW3 7286   2.203   0.851   3.063 -0.1129 -0.6432  1.1318
 1810SOL    MW4 7287   2.285   0.880   3.062 -0.2542 -0.2793 -0.0124
 1811SOL     OW 7288   2.320   1.149   3.155  0.3811  0.2280 -0.4633
 1811SOL    HW2 7289   2.275   1.148   3.240  0.2632  0.9428 -0.5124
 1811SOL    HW3 7290   2.295   1.066   3.114 -1.3375  0.8510 -0.7069
 1811SOL    MW4 7291   2.311   1.138   3.161  0.1388  0.4045 -0.5021
 1812SOL     OW 7292   2.510   1.291   3.041  0.4333 -0.5202 -0.3407
 1812SOL    HW2 7293   2.434   1.236   3.060 -0.1080  0.4681  0.3388
 1812SOL    HW3 7294   2.495   1.322   2.951 -0.2480  0.1459  0.0045
 1812SOL    MW4 7295   2.498   1.288   3.031  0.2718 -0.3020 -0.2055
 1813SOL     OW 7296   2.495   1.525   3.181 -0.1737 -0.1781  0.2412
 1813SOL    HW2 7297   2.417   1.569   3.148  0.5562  0.2197 -0.9946
 1813SOL    HW3 7298   2.496   1.440   3.137  0.1409 -0.1420  0.1743
 1813SOL    MW4 7299   2.485   1.520   3.171 -0.0360 -0.1208  0.0691
 1814SOL     OW 7300   2.290   1.664   3.029 -0.4874  0.5233  0.4037
 1814SOL    HW2 7301   2.213   1.610   3.048 -0.9293  1.2609  0.6897
 1814SOL    HW3 7302   2.281   1.686   2.936 -0.9935  1.2149  0.6195
 1814SOL    MW4 7303   2.279   1.660   3.019 -0.6125  0.7119  0.4699
 1815SOL     OW 7304   2.248   1.916   3.173  0.2030 -0.3798  0.3469
 1815SOL    HW2 7305   2.340   1.931   3.148  0.1311 -0.8453 -0.2032
 1815SOL    HW3 7306   2.227   1.831   3.136 -0.5651 -0.1044  0.1437
 1815SOL    MW4 7307   2.258   1.907   3.165  0.0923 -0.4048  0.2477
 1816SOL     OW 7308   2.492   1.996   3.073 -0.2493 -0.6384  0.4765
 1816SOL    HW2 7309   2.582   1.978   3.100  0.0878  0.8649  0.3667
 1816SOL    HW3 7310   2.496   1.999   2.977 -0.0776  1.1172  0.5240
 1816SOL    MW4 7311   2.504   1.994   3.064 -0.1824 -0.2084  0.4685
 1817SOL     OW 7312   2.482   2.288   3.168  0.4690  0.5466 -0.2059
 1817SOL    HW2 7313   2.487   2.308   3.261 -0.5922  0.0703 -0.0429
 1817SOL    HW3 7314   2.491   2.193   3.162  1.4243  0.6550 -0.6675
 1817SOL    MW4 7315   2.484   2.278   3.179  0.4551  0.4978 -0.2453
 1818SOL     OW 7316   2.262   2.427   3.038 -0.2223  0.8567 -0.3376
 1818SOL    HW2 7317   2.266   2.506   3.091 -0.0587  0.3313  0.4382
 1818SOL    HW3 7318   2.339   2.377   3.063 -0.0763  0.6544 -1.1599
 1818SOL    MW4 7319   2.272   2.431   3.048 -0.1812  0.7608 -0.3436
 1819SOL     OW 7320   2.229   2.665   3.176 -0.1282  0.2958  0.1943
 1819SOL    HW2 7321   2.305   2.716   3.148  0.9625 -1.1363  0.5444
 1819SOL    HW3 7322   2.154   2.714   3.141  1.0151  0.7890 -1.6082
 1819SOL    MW4 7323   2.229   2.678   3.168  0.1667  0.1717  0.0026
 1820SOL     OW 7324   2.456   2.787   3.059  0.0299  0.5378 -0.2618
 1820SOL    HW2 7325   2.435   2.873   3.095  0.3476  0.1044  0.9790
 1820SOL    HW3 7326   2.461   2.801   2.964  1.4200  2.1739  0.0238
 1820SOL    MW4 7327   2.454   2.800   3.051  0.2553  0.6964 -0.0603
 1821SOL     OW 7328   2.437   3.038   3.124 -0.4183  0.0669  0.2026
 1821SOL    HW2 7329   2.519   3.082   3.099 -0.6457 -0.0853 -0.8041
 1821SOL    HW3 7330   2.368   3.097   3.094 -0.7179 -0.7578 -0.7316
 1821SOL    MW4 7331   2.439   3.052   3.117 -0.4878 -0.0622 -0.0536
 1822SOL     OW 7332   2.228   3.174   3.006 -0.6782  0.0023  0.3264
 1822SOL    HW2 7333   2.229   3.260   3.048  0.4645 -0.4688  1.2779
 1822SOL    HW3 7334   2.163   3.124   3.055  0.3653 -0.4201  1.2914
 1822SOL    MW4 7335   2.220   3.179   3.018 -0.3898 -0.1159  0.5791
 1823SOL     OW 7336   2.245   3.440   3.089 -0.6458  0.1004  0.2612
 1823SOL    HW2 7337   2.312   3.508   3.088  1.4691 -1.9255 -1.0806
 1823SOL    HW3 7338   2.167   3.483   3.052  0.7483  1.6973 -0.9287
 1823SOL    MW4 7339   2.243   3.455   3.084 -0.1826  0.0441 -0.0727
 1824SOL     OW 7340   2.470   3.623   3.055  0.6111 -0.7358 -0.2463
 1824SOL    HW2 7341   2.539   3.567   3.090  0.3434 -0.5551  0.5928
 1824SOL    HW3 7342   2.463   3.694   3.119 -0.5536 -0.9096 -0.1796
 1824SOL    MW4 7343   2.478   3.625   3.068  0.4218 -0.7350 -0.1266
 1825SOL     OW 7344   2.466   3.859   3.220  0.5986 -0.1195 -0.0271
 1825SOL    HW2 7345   2.454   3.858   3.315 -0.8586 -0.0952 -0.2122
 1825SOL    HW3 7346   2.555   3.893   3.208 -0.7355  4.0102  1.1793
 1825SOL    MW4 7347   2.476   3.863   3.231  0.2306  0.4284  0.1075
 1826SOL     OW 7348   2.241   3.969   3.091 -0.0053  0.1769  0.1231
 1826SOL    HW2 7349   2.311   3.922   3.136  0.0170 -0.0107 -0.1058
 1826SOL    HW3 7350   2.161   3.936   3.131  0.0150  0.0273  0.0378
 1826SOL    MW4 7351   2.240   3.959   3.102  0.0002  0.1326  0.0815
 1827SOL     OW 7352   2.247   4.234   3.177  0.4553  0.1693 -0.0467
 1827SOL    HW2 7353   2.247   4.147   3.137  0.5539 -0.7184  1.8409
 1827SOL    HW3 7354   2.165   4.274   3.149  0.3581 -0.5663 -0.8321
 1827SOL    MW4 7355   2.236   4.228   3.168  0.4554 -0.0443  0.0987
 1828SOL     OW 7356   2.478   4.364   3.121  0.1765  0.2978  0.1044
 1828SOL    HW2 7357   2.394   4.323   3.139  0.0128  0.2187 -0.8025
 1828SOL    HW3 7358   2.490   4.354   3.026  1.7243 -0.6755  0.3824
 1828SOL    MW4 7359   2.469   4.357   3.111  0.3593  0.1583  0.0215
 1829SOL     OW 7360   2.901   4.628   3.076 -0.1290 -0.0515  0.2462
 1829SOL    HW2 7361   2.977   4.685   3.065 -1.1026  1.3813  0.7542
 1829SOL    HW3 7362   2.934   4.540   3.058  1.9962  0.3558  1.9214
 1829SOL    MW4 7363   2.915   4.624   3.072  0.0231  0.1912  0.5343
 1830SOL     OW 7364   2.668   0.083   3.020 -0.1180  0.1291 -0.2586
 1830SOL    HW2 7365   2.746   0.027   3.017 -0.3637 -0.2039 -0.3465
 1830SOL    HW3 7366   2.610   0.039   3.082 -0.0326  0.6382  0.1880
 1830SOL    MW4 7367   2.671   0.070   3.028 -0.1390  0.1523 -0.2115
 1831SOL     OW 7368   2.667   0.338   3.149  0.6543 -0.4652 -0.1676
 1831SOL    HW2 7369   2.663   0.258   3.098  0.8876  0.0385 -0.9814
 1831SOL    HW3 7370   2.590   0.388   3.122  0.6993 -0.2611  0.0794
 1831SOL    MW4 7371   2.656   0.334   3.139  0.6909 -0.3718 -0.2425
 1832SOL     OW 7372   2.903   0.460   3.047 -0.2466  0.3946 -0.0947
 1832SOL    HW2 7373   2.831   0.414   3.091 -0.3658  1.3816  0.7766
 1832SOL    HW3 7374   2.873   0.470   2.957 -0.4238 -0.7898 -0.1833
 1832SOL    MW4 7375   2.890   0.455   3.041 -0.2856  0.3685  0.0088
 1833SOL     OW 7376   2.938   0.732   3.130 -0.0223  0.0122 -0.1961
 1833SOL    HW2 7377   2.912   0.738   3.222  2.4034  1.3465  0.4177
 1833SOL    HW3 7378   2.923   0.640   3.107 -1.1113 -0.2112  1.3725
 1833SOL    MW4 7379   2.932   0.720   3.139  0.1543  0.1588  0.0920
 1834SOL     OW 7380   2.709   0.864   3.074 -0.2103  0.0552  0.1620
 1834SOL    HW2 7381   2.729   0.948   3.114  3.0883 -0.0467 -1.1416
 1834SOL    HW3 7382   2.789   0.813   3.084 -1.6833 -2.4537 -0.3222
 1834SOL    MW4 7383   2.722   0.868   3.081  0.0305 -0.2892 -0.0739
 1835SOL     OW 7384   2.719   1.148   3.146 -0.3754  0.0871  0.0491
 1835SOL    HW2 7385   2.785   1.194   3.095 -0.3742 -0.1494 -0.1658
 1835SOL    HW3 7386   2.636   1.182   3.114 -0.4088 -0.8816 -0.9093
 1835SOL    MW4 7387   2.717   1.158   3.135 -0.3796 -0.0719 -0.1056
 1836SOL     OW 7388   2.939   1.277   3.035 -0.3889  0.4970 -0.4212
 1836SOL    HW2 7389   3.017   1.228   3.060 -1.1267  0.3780  1.8044
 1836SOL    HW3 7390   2.952   1.365   3.071 -1.7130  0.1739  0.9454
 1836SOL    MW4 7391   2.951   1.282   3.043 -0.6609  0.4387  0.0527
 1837SOL     OW 7392   2.930   1.529   3.156  0.1009 -0.0850 -0.2484
 1837SOL    HW2 7393   2.933   1.526   3.252  0.3429 -1.7634 -0.3050
 1837SOL    HW3 7394   3.012   1.573   3.131 -0.1636  0.7505  0.3172
 1837SOL    MW4 7395   2.942   1.535   3.166  0.0980 -0.1962 -0.1812
 1838SOL     OW 7396   2.703   1.630   3.029  0.3397 -0.2713 -0.3077
 1838SOL    HW2 7397   2.782   1.607   3.078  1.1380  3.6934  0.4816
 1838SOL    HW3 7398   2.631   1.603   3.085  1.2329  1.5793  1.8259
 1838SOL    MW4 7399   2.704   1.623   3.043  0.5629  0.4959  0.0782
 1839SOL     OW 7400   2.761   1.924   3.115  0.0362 -0.1538 -0.0059
 1839SOL    HW2 7401   2.841   1.964   3.082 -0.5752  1.0250 -0.1152
 1839SOL    HW3 7402   2.758   1.838   3.074  2.0697 -0.8627  1.2543
 1839SOL    MW4 7403   2.771   1.918   3.105  0.2239 -0.0918  0.1459
 1840SOL     OW 7404   2.986   2.061   3.039 -0.1123  0.5064  0.0149
 1840SOL    HW2 7405   2.953   2.147   3.068 -0.4622  0.8288 -1.2951
 1840SOL    HW3 7406   3.000   2.072   2.945  0.5412 -0.6631 -0.0246
 1840SOL    MW4 7407   2.984   2.074   3.031 -0.0722  0.3948 -0.1631
 1841SOL     OW 7408   2.931   2.308   3.153  0.1277 -0.4154 -0.0952
 1841SOL    HW2 7409   3.009   2.349   3.114  0.1315  0.7292  1.0886
 1841SOL    HW3 7410   2.857   2.351   3.110  0.1329 -0.4841 -0.1747
 1841SOL    MW4 7411   2.932   2.319   3.142  0.1290 -0.2735  0.0505
 1842SOL     OW 7412   2.687   2.425   3.026  0.1229  0.1494 -0.0989
 1842SOL    HW2 7413   2.690   2.511   3.068 -2.4730  1.1218 -1.8031
 1842SOL    HW3 7414   2.618   2.378   3.073 -0.7285  0.1814 -1.3085
 1842SOL    MW4 7415   2.679   2.430   3.038 -0.3319  0.2818 -0.4835
 1843SOL     OW 7416   2.671   2.651   3.172 -0.1058 -0.0390  0.0895
 1843SOL    HW2 7417   2.667   2.675   3.264  0.8426  1.3353 -0.1955
 1843SOL    HW3 7418   2.586   2.677   3.136 -0.2190  0.0674  0.4357
 1843SOL    MW4 7419   2.659   2.658   3.179  0.0048  0.1564  0.0980
 1844SOL     OW 7420   2.894   2.786   3.065 -0.3520  0.1816 -0.1882
 1844SOL    HW2 7421   2.979   2.771   3.106 -0.4577  1.2765  0.4625
 1844SOL    HW3 7422   2.833   2.729   3.111 -0.0759 -0.1904 -0.2815
 1844SOL    MW4 7423   2.897   2.777   3.076 -0.3295  0.2770 -0.1144
 1845SOL     OW 7424   2.933   3.057   3.137 -0.3894 -0.3109  0.0890
 1845SOL    HW2 7425   2.856   3.110   3.119  0.5628  0.5788 -1.5740
 1845SOL    HW3 7426   2.913   2.972   3.100 -0.9281 -0.3512  0.4737
 1845SOL    MW4 7427   2.920   3.053   3.130 -0.3350 -0.1988 -0.0796
 1846SOL     OW 7428   2.664   3.189   3.050  0.1810  0.3238 -0.3358
 1846SOL    HW2 7429   2.650   3.280   3.075 -0.4336  0.8308 -2.4546
 1846SOL    HW3 7430   2.667   3.190   2.955  0.8053 -1.7891 -0.3657
 1846SOL    MW4 7431   2.662   3.201   3.041  0.1822  0.1121 -0.6192
 1847SOL     OW 7432   2.678   3.453   3.136  0.1166  0.1823  0.0877
 1847SOL    HW2 7433   2.671   3.473   3.229 -0.0693 -1.8831  0.5200
 1847SOL    HW3 7434   2.753   3.505   3.106  0.4060  0.5630  1.4445
 1847SOL    MW4 7435   2.687   3.463   3.144  0.1304 -0.0401  0.3235
 1848SOL     OW 7436   2.891   3.585   3.020  0.1559  0.0419  0.0456
 1848SOL    HW2 7437   2.978   3.553   3.044 -0.6304 -1.1431  1.3631
 1848SOL    HW3 7438   2.890   3.676   3.050 -0.2942 -0.9848  3.3061
 1848SOL    MW4 7439   2.902   3.593   3.027 -0.0072 -0.2501  0.6495
 1849SOL     OW 7440   2.902   3.861   3.157  0.2969 -0.2172 -0.0543
 1849SOL    HW2 7441   2.897   3.814   3.240  0.7576 -1.4189 -0.6804
 1849SOL    HW3 7442   2.825   3.918   3.157  0.9577  0.6999  1.7070
 1849SOL    MW4 7443   2.891   3.862   3.168  0.4447 -0.2549  0.0951
 1850SOL     OW 7444   2.677   4.040   3.154 -0.3710  0.4308  0.3155
 1850SOL    HW2 7445   2.721   4.120   3.179  0.6520  0.1909 -0.6848
 1850SOL    HW3 7446   2.648   4.055   3.064 -1.9629  0.4288  0.8124
 1850SOL    MW4 7447   2.679   4.052   3.146 -0.4461  0.3991  0.2489
 1851SOL     OW 7448   2.750   4.305   3.240 -0.4923 -0.0878 -0.9693
 1851SOL    HW2 7449   2.742   4.263   3.326 -0.2224  0.8490 -0.4829
 1851SOL    HW3 7450   2.660   4.327   3.216 -0.7292 -1.6338 -1.5872
 1851SOL    MW4 7451   2.737   4.302   3.248 -0.4880 -0.1683 -0.9866
 1852SOL     OW 7452   2.932   4.352   3.020  0.1528  0.3792  0.3277
 1852SOL    HW2 7453   3.013   4.308   3.043  0.1635 -0.3392 -1.0400
 1852SOL    HW3 7454   2.876   4.340   3.097 -0.0024 -2.4255 -0.1792
 1852SOL    MW4 7455   2.935   4.345   3.033  0.1338 -0.0854  0.0803
 1853SOL     OW 7456   3.384   4.610   3.165  0.2745  0.0339 -0.1216
 1853SOL    HW2 7457   3.468   4.649   3.142 -0.2262  1.3068  0.1850
 1853SOL    HW3 7458   3.382   4.527   3.117  0.5817  1.2118 -2.2100
 1853SOL    MW4 7459   3.395   4.604   3.156  0.2489  0.3572 -0.3569
 1854SOL     OW 7460   3.188   0.082   3.027  0.1605 -0.3170  0.0349
 1854SOL    HW2 7461   3.180   0.154   3.090  1.8351  0.3311 -0.4568
 1854SOL    HW3 7462   3.231   0.012   3.076  0.8625 -0.0516 -0.1996
 1854SOL    MW4 7463   3.193   0.082   3.042  0.4740 -0.1965 -0.0608
 1855SOL     OW 7464   3.121   0.334   3.160 -0.4679  0.1455  0.1355
 1855SOL    HW2 7465   3.192   0.373   3.109 -0.7473  2.0073  1.1302
 1855SOL    HW3 7466   3.041   0.366   3.119 -0.7240 -0.2704  0.2992
 1855SOL    MW4 7467   3.119   0.343   3.148 -0.5386  0.3363  0.2882
 1856SOL     OW 7468   3.344   0.450   3.047  0.1914 -0.5239 -0.1493
 1856SOL    HW2 7469   3.418   0.402   3.086  0.5766 -1.2285 -1.6771
 1856SOL    HW3 7470   3.357   0.439   2.953 -1.2636  0.2873 -0.4484
 1856SOL    MW4 7471   3.356   0.442   3.040  0.0501 -0.5098 -0.3905
 1857SOL     OW 7472   3.362   0.703   3.148 -0.1217  0.2950  0.0224
 1857SOL    HW2 7473   3.382   0.695   3.242 -0.6711 -0.2835  0.0933
 1857SOL    HW3 7474   3.358   0.613   3.117  1.3461  0.5252 -0.8398
 1857SOL    MW4 7475   3.364   0.690   3.156 -0.0007  0.2491 -0.0820
 1858SOL     OW 7476   3.178   0.893   3.025 -0.1732 -0.0422  0.4641
 1858SOL    HW2 7477   3.253   0.851   3.069  0.1001 -0.3686 -0.2984
 1858SOL    HW3 7478   3.106   0.832   3.037 -0.3301  0.2888  1.2317
 1858SOL    MW4 7479   3.179   0.880   3.033 -0.1576 -0.0415  0.4647
 1859SOL     OW 7480   3.157   1.161   3.099  0.1190 -0.2838  0.1781
 1859SOL    HW2 7481   3.243   1.199   3.079 -0.2874  0.6088  0.1212
 1859SOL    HW3 7482   3.162   1.072   3.063  0.7440  0.0269 -0.5210
 1859SOL    MW4 7483   3.169   1.154   3.092  0.1481 -0.1249  0.0782
 1860SOL     OW 7484   3.407   1.267   3.107 -0.2275  0.1453 -0.1063
 1860SOL    HW2 7485   3.491   1.224   3.122 -0.7636 -0.7571  0.3281
 1860SOL    HW3 7486   3.425   1.360   3.120  0.5012 -0.1256  0.8750
 1860SOL    MW4 7487   3.421   1.274   3.110 -0.2022 -0.0095  0.0803
 1861SOL     OW 7488   3.406   1.534   3.169  0.4720  0.1580  0.3235
 1861SOL    HW2 7489   3.425   1.535   3.262  0.4738  1.3304  0.3240
 1861SOL    HW3 7490   3.491   1.550   3.127  0.8347 -2.3282  0.0328
 1861SOL    MW4 7491   3.420   1.536   3.175  0.5200 -0.0151  0.2851
 1862SOL     OW 7492   3.162   1.643   3.055 -0.0664  0.2425  0.0237
 1862SOL    HW2 7493   3.251   1.620   3.081  0.2149  2.1581  0.8261
 1862SOL    HW3 7494   3.167   1.652   2.959  0.1075 -1.6805 -0.1567
 1862SOL    MW4 7495   3.174   1.641   3.046 -0.0064  0.2415  0.1056
 1863SOL     OW 7496   3.171   1.902   3.160 -0.1180  0.4094 -0.1497
 1863SOL    HW2 7497   3.155   1.818   3.116  1.1845 -0.1556  0.4218
 1863SOL    HW3 7498   3.096   1.957   3.136 -1.1949 -1.0542 -0.1889
 1863SOL    MW4 7499   3.159   1.898   3.151 -0.0882  0.1417 -0.0796
 1864SOL     OW 7500   3.378   2.003   3.001  0.2649  0.2957 -0.1532
 1864SOL    HW2 7501   3.448   1.956   3.046  0.4642  0.6170 -0.1225
 1864SOL    HW3 7502   3.298   1.972   3.042  0.5267  1.5824  1.3478
 1864SOL    MW4 7503   3.377   1.993   3.012  0.3257  0.5080  0.0486
 1865SOL     OW 7504   3.369   2.244   3.131 -0.1263 -0.0703 -0.2839
 1865SOL    HW2 7505   3.380   2.234   3.226 -2.3849  0.0391  0.0143
 1865SOL    HW3 7506   3.362   2.155   3.098 -1.4289 -0.0558 -0.0657
 1865SOL    MW4 7507   3.370   2.231   3.139 -0.5963 -0.0539 -0.2158
 1866SOL     OW 7508   3.151   2.391   3.030  0.1587 -0.0746  0.2964
 1866SOL    HW2 7509   3.235   2.352   3.055  0.2726  0.3634  0.5811
 1866SOL    HW3 7510   3.149   2.384   2.934 -0.0796 -1.3197  0.3830
 1866SOL    MW4 7511   3.162   2.385   3.020  0.1423 -0.1812  0.3455
 1867SOL     OW 7512   3.137   2.669   3.145 -0.4515  0.1643  0.7121
 1867SOL    HW2 7513   3.134   2.643   3.238  1.2364 -0.7421  0.5412
 1867SOL    HW3 7514   3.129   2.587   3.097  0.1253  0.4707  0.0828
 1867SOL    MW4 7515   3.136   2.655   3.151 -0.1528  0.0846  0.6063
 1868SOL     OW 7516   3.402   2.783   3.044 -0.2182 -0.1074 -0.1494
 1868SOL    HW2 7517   3.406   2.874   3.072 -0.5037  0.1782 -1.0127
 1868SOL    HW3 7518   3.316   2.752   3.073  0.6091 -0.6525  1.7640
 1868SOL    MW4 7519   3.391   2.791   3.052 -0.1466 -0.1414 -0.0107
 1869SOL     OW 7520   3.399   3.064   3.119 -0.0427 -0.4511  0.5012
 1869SOL    HW2 7521   3.390   3.048   3.213  0.6004 -1.2684  0.4284
 1869SOL    HW3 7522   3.318   3.110   3.095 -0.3009 -0.4176  1.4128
 1869SOL    MW4 7523   3.387   3.068   3.128  0.0081 -0.5541  0.6118
 1870SOL     OW 7524   3.167   3.203   3.050  0.3408  0.2655  0.2323
 1870SOL    HW2 7525   3.090   3.155   3.080 -0.5689  1.3594 -0.3446
 1870SOL    HW3 7526   3.155   3.212   2.956  1.4028  0.0442  0.0696
 1870SOL    MW4 7527   3.155   3.197   3.042  0.3610  0.3805  0.1347
 1871SOL     OW 7528   3.141   3.473   3.105 -0.2532  0.2717  0.1657
 1871SOL    HW2 7529   3.222   3.518   3.084  1.1978 -1.4191  2.0125
 1871SOL    HW3 7530   3.151   3.386   3.065 -2.2269  0.8705 -1.7400
 1871SOL    MW4 7531   3.153   3.467   3.097 -0.3221  0.1276  0.1581
 1872SOL     OW 7532   3.385   3.555   3.010 -0.4458 -0.1779  0.1129
 1872SOL    HW2 7533   3.458   3.519   3.060  1.6614  1.6540 -1.5493
 1872SOL    HW3 7534   3.370   3.642   3.047 -0.1464  0.4237 -1.1552
 1872SOL    MW4 7535   3.393   3.562   3.021 -0.1283  0.1433 -0.2737
 1873SOL     OW 7536   3.343   3.808   3.114 -0.0459 -0.1765  0.0853
 1873SOL    HW2 7537   3.346   3.800   3.210  0.0903 -0.0252  0.0940
 1873SOL    HW3 7538   3.271   3.867   3.096 -0.4142 -0.6280  0.0686
 1873SOL    MW4 7539   3.334   3.815   3.124 -0.0763 -0.2160  0.0842
 1874SOL     OW 7540   3.142   3.980   3.076  0.4700  0.2343  0.0050
 1874SOL    HW2 7541   3.066   3.925   3.095 -0.0490  0.7255 -0.5918
 1874SOL    HW3 7542   3.145   3.983   2.980  0.9397  0.6284  0.0330
 1874SOL    MW4 7543   3.132   3.973   3.066  0.4635  0.3510 -0.0699
 1875SOL     OW 7544   3.171   4.258   3.108 -0.0043  0.3515  0.3206
 1875SOL    HW2 7545   3.187   4.271   3.201  0.6496  0.3613  0.2135
 1875SOL    HW3 7546   3.150   4.165   3.100  2.8485 -0.3290  0.1176
 1875SOL    MW4 7547   3.171   4.247   3.119  0.4582  0.2637  0.2792
 1876SOL     OW 7548   3.378   4.358   2.985 -0.2403 -0.1887 -0.2594
 1876SOL    HW2 7549   3.453   4.324   3.034 -0.1486 -0.7197 -0.7688
 1876SOL    HW3 7550   3.304   4.305   3.015 -0.1062 -0.8118 -1.0183
 1876SOL    MW4 7551   3.378   4.346   2.996 -0.2105 -0.3409 -0.4268
 1877SOL     OW 7552   3.874   4.609   3.216 -0.1273 -0.3607  0.1683
 1877SOL    HW2 7553   3.870   4.530   3.162  0.1728 -0.3419  0.1161
 1877SOL    HW3 7554   3.791   4.654   3.200  0.0828 -0.2086 -0.4992
 1877SOL    MW4 7555   3.862   4.604   3.207 -0.0603 -0.3386  0.0732
 1878SOL     OW 7556   3.624   0.070   3.089 -0.0125  0.5054  0.2074
 1878SOL    HW2 7557   3.587   0.154   3.116  0.6267  0.5119  1.0898
 1878SOL    HW3 7558   3.596   0.060   2.998 -0.8911  1.2249  0.3873
 1878SOL    MW4 7559   3.616   0.080   3.080 -0.0441  0.6012  0.3474
 1879SOL     OW 7560   3.567   0.333   3.161 -0.1874 -0.6203  0.4364
 1879SOL    HW2 7561   3.580   0.352   3.254 -1.9774  3.3100 -0.0311
 1879SOL    HW3 7562   3.638   0.379   3.117 -1.1835  0.1745 -0.3509
 1879SOL    MW4 7563   3.578   0.342   3.167 -0.5550  0.0031  0.2706
 1880SOL     OW 7564   3.766   0.489   3.013  0.3292 -0.4798  0.5254
 1880SOL    HW2 7565   3.846   0.451   3.050  0.9357  0.3241  0.0514
 1880SOL    HW3 7566   3.756   0.573   3.057  0.0976 -0.2950  0.1249
 1880SOL    MW4 7567   3.775   0.495   3.024  0.3786 -0.3494  0.4098
 1881SOL     OW 7568   3.773   0.735   3.151  0.5352  0.2044  0.3285
 1881SOL    HW2 7569   3.757   0.714   3.243  0.6975  0.8300  0.5055
 1881SOL    HW3 7570   3.868   0.743   3.145  0.4462  1.4560  0.4064
 1881SOL    MW4 7571   3.783   0.733   3.163  0.5445  0.4520  0.3622
 1882SOL     OW 7572   3.569   0.882   3.045 -0.1196  0.1670 -0.5372
 1882SOL    HW2 7573   3.645   0.840   3.085 -0.6820 -0.5981 -0.2562
 1882SOL    HW3 7574   3.496   0.825   3.067 -0.9913  1.5722  0.3266
 1882SOL    MW4 7575   3.570   0.869   3.053 -0.3090  0.2515 -0.3862
 1883SOL     OW 7576   3.651   1.126   3.151  0.3943 -0.0561 -0.2844
 1883SOL    HW2 7577   3.734   1.143   3.106  0.1895  0.7694 -0.3655
 1883SOL    HW3 7578   3.613   1.052   3.104 -0.4206  1.6065 -2.3377
 1883SOL    MW4 7579   3.657   1.118   3.139  0.2596  0.2722 -0.5658
 1884SOL     OW 7580   3.887   1.219   3.012  0.2274 -0.2871  0.0968
 1884SOL    HW2 7581   3.901   1.306   3.049 -0.3365 -0.0537 -0.2264
 1884SOL    HW3 7582   3.876   1.235   2.918 -2.2497 -0.4323  0.3249
 1884SOL    MW4 7583   3.888   1.232   3.004 -0.1738 -0.2755  0.0842
 1885SOL     OW 7584   3.884   1.487   3.116  0.0347 -0.1394  0.2868
 1885SOL    HW2 7585   3.869   1.477   3.210 -0.8627 -1.3800  0.0189
 1885SOL    HW3 7586   3.801   1.523   3.082  0.8093  1.5647  0.1648
 1885SOL    MW4 7587   3.871   1.491   3.124  0.0186 -0.0781  0.2353
 1886SOL     OW 7588   3.641   1.599   3.041  0.3977  0.1011  0.5969
 1886SOL    HW2 7589   3.616   1.685   3.074 -1.5442  0.2085 -0.9703
 1886SOL    HW3 7590   3.632   1.608   2.946  2.3447 -1.1959  0.2811
 1886SOL    MW4 7591   3.636   1.612   3.032  0.3982 -0.0558  0.3483
 1887SOL     OW 7592   3.591   1.849   3.121  0.3292 -0.3187 -0.3089
 1887SOL    HW2 7593   3.602   1.855   3.216  0.1116 -2.4282 -0.1137
 1887SOL    HW3 7594   3.657   1.908   3.085  0.7974  0.0644  1.1477
 1887SOL    MW4 7595   3.601   1.857   3.129  0.3622 -0.5463 -0.0911
 1888SOL     OW 7596   3.775   2.021   3.003  0.3684 -0.4687 -0.5293
 1888SOL    HW2 7597   3.790   2.112   3.031  1.3770 -0.2053 -1.8778
 1888SOL    HW3 7598   3.814   2.016   2.916  0.4612 -2.2590 -0.3979
 1888SOL    MW4 7599   3.782   2.033   2.995  0.5138 -0.6702 -0.6897
 1889SOL     OW 7600   3.839   2.283   3.067  0.3041 -0.2577 -0.0062
 1889SOL    HW2 7601   3.826   2.265   3.160  1.9682  1.0813  0.5046
 1889SOL    HW3 7602   3.760   2.331   3.041  0.2109  0.1014  0.9288
 1889SOL    MW4 7603   3.826   2.287   3.076  0.5114 -0.0339  0.1848
 1890SOL     OW 7604   3.593   2.391   3.002 -0.2067  0.3241 -0.2258
 1890SOL    HW2 7605   3.612   2.473   3.048  0.4516  0.7317 -1.2104
 1890SOL    HW3 7606   3.504   2.369   3.028 -0.1029  0.9362  0.6674
 1890SOL    MW4 7607   3.584   2.399   3.011 -0.1061  0.4587 -0.2379
 1891SOL     OW 7608   3.606   2.639   3.168  0.0892  0.5662  0.2070
 1891SOL    HW2 7609   3.682   2.697   3.160 -0.3974  1.2557  0.6121
 1891SOL    HW3 7610   3.535   2.686   3.126  0.0141 -0.3360 -0.6916
 1891SOL    MW4 7611   3.607   2.653   3.161  0.0153  0.5381  0.1419
 1892SOL     OW 7612   3.829   2.803   3.079  0.1951  0.4616  0.3617
 1892SOL    HW2 7613   3.824   2.898   3.093 -0.5727  0.5031 -0.1757
 1892SOL    HW3 7614   3.827   2.793   2.984  0.9331 -0.0601  0.4028
 1892SOL    MW4 7615   3.828   2.814   3.069  0.1915  0.3984  0.2959
 1893SOL     OW 7616   3.863   3.097   3.140 -1.0855  0.1468 -0.3292
 1893SOL    HW2 7617   3.934   3.129   3.085 -1.1047 -0.5648 -0.7738
 1893SOL    HW3 7618   3.785   3.144   3.109 -0.5623  2.0467  1.1558
 1893SOL    MW4 7619   3.862   3.107   3.129 -1.0190  0.3040 -0.1917
 1894SOL     OW 7620   3.633   3.200   3.047  0.1866  0.8821  0.4213
 1894SOL    HW2 7621   3.557   3.153   3.082 -0.3464  1.7192  0.4166
 1894SOL    HW3 7622   3.620   3.200   2.952  0.8727 -0.1077  0.3214
 1894SOL    MW4 7623   3.621   3.194   3.039  0.2067  0.8619  0.4072
 1895SOL     OW 7624   3.613   3.480   3.150  0.3570 -0.3079  0.1408
 1895SOL    HW2 7625   3.689   3.526   3.115  0.1377 -0.4362 -0.5024
 1895SOL    HW3 7626   3.626   3.389   3.124 -0.8087 -0.0536 -1.3198
 1895SOL    MW4 7627   3.625   3.474   3.142  0.1743 -0.2913 -0.1369
 1896SOL     OW 7628   3.844   3.614   3.065 -0.1645  0.1206  0.0175
 1896SOL    HW2 7629   3.822   3.706   3.079 -0.1501 -0.0102  0.9126
 1896SOL    HW3 7630   3.859   3.607   2.970 -1.0362  0.8493 -0.1832
 1896SOL    MW4 7631   3.843   3.625   3.054 -0.2775  0.1993  0.1090
 1897SOL     OW 7632   3.785   3.881   3.118  0.2195 -0.9240 -0.0400
 1897SOL    HW2 7633   3.793   3.867   3.212  0.1845 -1.5534 -0.1314
 1897SOL    HW3 7634   3.705   3.933   3.108  2.1920  2.3975  0.5862
 1897SOL    MW4 7635   3.776   3.886   3.129  0.4752 -0.5691  0.0308
 1898SOL     OW 7636   3.539   4.014   3.055  0.6596  0.4502  0.2250
 1898SOL    HW2 7637   3.474   3.948   3.077 -0.6064  1.7269  0.3666
 1898SOL    HW3 7638   3.552   4.005   2.960  1.2017 -0.6265  0.3998
 1898SOL    MW4 7639   3.532   4.004   3.045  0.5641  0.4764  0.2663
 1899SOL     OW 7640   3.602   4.278   3.137 -0.0060  0.2897  0.3511
 1899SOL    HW2 7641   3.687   4.305   3.103  1.0778 -1.6563  1.4348
 1899SOL    HW3 7642   3.588   4.190   3.101 -2.3015  1.1961 -1.0865
 1899SOL    MW4 7643   3.611   4.270   3.128 -0.1662  0.1526  0.3047
 1900SOL     OW 7644   3.836   4.374   3.043 -0.2798 -0.0512  0.1673
 1900SOL    HW2 7645   3.897   4.302   3.059 -0.8959 -1.0888 -1.8969
 1900SOL    HW3 7646   3.842   4.390   2.949 -2.7508  0.2198  0.0080
 1900SOL    MW4 7647   3.845   4.367   3.033 -0.6871 -0.1521 -0.1264
 1901SOL     OW 7648   4.297   0.007   3.129 -0.1268  0.0744 -0.4607
 1901SOL    HW2 7649   4.297   0.011   3.224  0.9579 -0.8876 -0.4103
 1901SOL    HW3 7650   4.254  -0.075   3.108 -0.9023  0.5655 -0.8272
 1901SOL    MW4 7651   4.291  -0.003   3.139 -0.0863  0.0124 -0.5023
 1902SOL     OW 7652   4.043   0.089   3.061  0.3624 -0.1466  0.2273
 1902SOL    HW2 7653   4.128   0.074   3.102 -0.4964 -1.5960  1.5254
 1902SOL    HW3 7654   3.984   0.030   3.107 -1.2121  0.3454 -1.1435
 1902SOL    MW4 7655   4.047   0.079   3.073  0.0415 -0.2729  0.2177
 1903SOL     OW 7656   3.979   0.349   3.112 -0.0082 -0.0881  0.2597
 1903SOL    HW2 7657   4.070   0.376   3.097 -0.0574  0.4532  0.9173
 1903SOL    HW3 7658   3.979   0.255   3.094  0.2962  0.2225 -1.4522
 1903SOL    MW4 7659   3.991   0.340   3.108  0.0255  0.0243  0.1206
 1904SOL     OW 7660   4.234   0.457   3.049 -0.1468  0.1994 -0.5723
 1904SOL    HW2 7661   4.267   0.545   3.069 -2.3187  1.0200 -0.5031
 1904SOL    HW3 7662   4.261   0.442   2.959 -0.3977  1.2497 -0.8326
 1904SOL    MW4 7663   4.242   0.467   3.040 -0.4663  0.4462 -0.5977
 1905SOL     OW 7664   4.299   0.724   3.102  0.0970  0.2959  0.4460
 1905SOL    HW2 7665   4.208   0.750   3.088 -0.0174 -0.9273 -1.3099
 1905SOL    HW3 7666   4.350   0.802   3.079 -0.4285  0.3189 -0.6949
 1905SOL    MW4 7667   4.294   0.738   3.097  0.0129  0.1376  0.0637
 1906SOL     OW 7668   4.034   0.780   3.070  0.4110 -0.0824 -0.4299
 1906SOL    HW2 7669   4.024   0.874   3.087  0.3907 -0.0566 -0.5829
 1906SOL    HW3 7670   4.026   0.772   2.975 -0.5618 -0.3612 -0.3343
 1906SOL    MW4 7671   4.032   0.792   3.059  0.2799 -0.1158 -0.4375
 1907SOL     OW 7672   4.057   1.052   3.163  0.1637 -0.0775 -0.1159
 1907SOL    HW2 7673   4.061   1.081   3.254  1.6912  0.3499 -0.3157
 1907SOL    HW3 7674   3.993   1.111   3.122  0.2309  0.3854  0.4392
 1907SOL    MW4 7675   4.049   1.064   3.170  0.3748  0.0401 -0.0689
 1908SOL     OW 7676   4.270   1.248   3.064  0.1728  0.3598 -0.5549
 1908SOL    HW2 7677   4.210   1.190   3.111  1.6674 -0.8275 -0.0418
 1908SOL    HW3 7678   4.245   1.240   2.972 -1.1697  0.7613 -0.2322
 1908SOL    MW4 7679   4.259   1.239   3.058  0.1926  0.2561 -0.4447
 1909SOL     OW 7680   4.276   1.533   3.083 -0.2478 -0.9172  0.1427
 1909SOL    HW2 7681   4.196   1.575   3.051  0.2429 -0.7338 -0.8561
 1909SOL    HW3 7682   4.264   1.441   3.062  0.1253 -0.7802 -0.6946
 1909SOL    MW4 7683   4.264   1.527   3.076 -0.1340 -0.8749 -0.0994
 1910SOL     OW 7684   4.058   1.692   2.997  0.1759  0.3215  0.2242
 1910SOL    HW2 7685   4.056   1.782   3.030  1.2273  0.7674 -0.8979
 1910SOL    HW3 7686   3.994   1.645   3.051 -0.6586  1.8295  0.5650
 1910SOL    MW4 7687   4.049   1.698   3.009  0.2041  0.5792  0.1211
 1911SOL     OW 7688   4.022   1.934   3.131  0.7123 -0.0812 -0.1984
 1911SOL    HW2 7689   4.086   1.994   3.094 -0.3038  0.2913 -1.3660
 1911SOL    HW3 7690   3.940   1.953   3.085 -0.0122 -1.2418  0.5598
 1911SOL    MW4 7691   4.019   1.944   3.120  0.4826 -0.1851 -0.2520
 1912SOL     OW 7692   4.213   2.074   3.009  0.1011  0.0576 -0.5537
 1912SOL    HW2 7693   4.220   2.165   3.038 -0.1632 -0.5561  1.4680
 1912SOL    HW3 7694   4.254   2.073   2.922  1.8669  1.7023  0.2308
 1912SOL    MW4 7695   4.219   2.086   3.001  0.2985  0.1936 -0.1833
 1913SOL     OW 7696   4.252   2.334   3.078  0.2067 -0.1944  0.0727
 1913SOL    HW2 7697   4.184   2.383   3.032  0.5368 -0.5286 -0.7852
 1913SOL    HW3 7698   4.334   2.369   3.043  0.4867  0.5935  1.5045
 1913SOL    MW4 7699   4.254   2.345   3.067  0.2871 -0.1347  0.1483
 1914SOL     OW 7700   4.020   2.468   2.979  0.4003  0.5320 -0.3128
 1914SOL    HW2 7701   4.021   2.550   3.029 -0.4330  0.6364 -0.4672
 1914SOL    HW3 7702   3.952   2.416   3.021 -1.1768  1.0968 -2.0995
 1914SOL    MW4 7703   4.011   2.472   2.991  0.0825  0.6206 -0.5691
 1915SOL     OW 7704   4.058   2.688   3.150  0.0528 -0.1547 -0.4806
 1915SOL    HW2 7705   4.060   2.668   3.243 -0.7875 -1.3004 -0.6908
 1915SOL    HW3 7706   3.974   2.732   3.137  0.0394 -0.2486 -0.7273
 1915SOL    MW4 7707   4.047   2.691   3.160 -0.0601 -0.3183 -0.5407
 1916SOL     OW 7708   4.255   2.841   3.017  0.0445  0.0752  0.8378
 1916SOL    HW2 7709   4.189   2.796   3.069  0.6692 -1.1056  0.6131
 1916SOL    HW3 7710   4.330   2.782   3.016  0.7276  0.9355  0.2050
 1916SOL    MW4 7711   4.256   2.827   3.023  0.2174  0.0329  0.7246
 1917SOL     OW 7712   4.277   3.078   3.154 -0.3815 -0.2874 -0.4060
 1917SOL    HW2 7713   4.204   3.124   3.112 -1.2452 -1.6097 -0.3709
 1917SOL    HW3 7714   4.272   2.988   3.120  1.1397 -0.4385 -0.2879
 1917SOL    MW4 7715   4.267   3.072   3.144 -0.2947 -0.4816 -0.3858
 1918SOL     OW 7716   4.081   3.198   3.003 -0.0082 -0.0845 -0.1382
 1918SOL    HW2 7717   4.102   3.287   3.031 -1.4517  0.6056 -1.1868
 1918SOL    HW3 7718   4.077   3.203   2.908  0.0962 -1.3280 -0.2228
 1918SOL    MW4 7719   4.083   3.210   2.994 -0.1850 -0.1574 -0.2875
 1919SOL     OW 7720   4.062   3.458   3.111  0.4596  0.1196 -0.0570
 1919SOL    HW2 7721   4.063   3.447   3.207 -1.1362  0.6268  0.0397
 1919SOL    HW3 7722   3.977   3.498   3.093  0.2416 -1.0623 -1.8087
 1919SOL    MW4 7723   4.051   3.462   3.122  0.2203  0.0308 -0.2756
 1920SOL     OW 7724   4.302   3.614   2.995 -0.2626  0.2868 -0.0942
 1920SOL    HW2 7725   4.273   3.692   3.042 -1.3510 -0.1414 -0.0287
 1920SOL    HW3 7726   4.234   3.549   3.013  0.2689 -0.4549 -0.7286
 1920SOL    MW4 7727   4.289   3.615   3.003 -0.3357  0.1321 -0.1693
 1921SOL     OW 7728   4.263   3.847   3.108 -0.0858  0.1601 -0.2143
 1921SOL    HW2 7729   4.190   3.900   3.075 -0.4607 -0.5538 -0.5586
 1921SOL    HW3 7730   4.341   3.900   3.091 -0.5617  1.0972  0.5085
 1921SOL    MW4 7731   4.263   3.861   3.101 -0.1984  0.1895 -0.1645
 1922SOL     OW 7732   4.029   3.973   3.014 -0.1098  0.5298  0.0249
 1922SOL    HW2 7733   4.040   4.053   3.066  0.5462  0.0427  0.6460
 1922SOL    HW3 7734   3.950   3.933   3.049 -0.0259  0.5286  0.2116
 1922SOL    MW4 7735   4.020   3.979   3.025 -0.0124  0.4652  0.1316
 1923SOL     OW 7736   4.068   4.216   3.133 -0.3182 -0.7248 -0.1651
 1923SOL    HW2 7737   4.051   4.231   3.227  0.9686 -1.2559  0.1644
 1923SOL    HW3 7738   4.119   4.293   3.107  0.0885 -1.0150 -0.2175
 1923SOL    MW4 7739   4.073   4.228   3.142 -0.0949 -0.8335 -0.1287
 1924SOL     OW 7740   4.245   4.420   3.030 -0.0791  0.4460  0.0507
 1924SOL    HW2 7741   4.318   4.372   3.069 -0.5958 -0.5710 -0.2065
 1924SOL    HW3 7742   4.258   4.411   2.935 -0.2560  0.6878  0.0025
 1924SOL    MW4 7743   4.256   4.413   3.022 -0.1707  0.3443  0.0103
 1925SOL     OW 7744   0.203   4.629   3.403 -0.0482 -0.0336  0.3049
 1925SOL    HW2 7745   0.280   4.670   3.442  1.2387 -1.0094 -1.1152
 1925SOL    HW3 7746   0.189   4.551   3.457 -1.6873  1.5120  2.1854
 1925SOL    MW4 7747   0.211   4.624   3.415 -0.0947  0.0420  0.3655
 1926SOL     OW 7748   0.002   0.097   3.541 -0.1296 -0.0714 -0.2266
 1926SOL    HW2 7749  -0.025   0.177   3.495  0.9200 -0.3013 -1.2677
 1926SOL    HW3 7750   0.066   0.057   3.483 -0.4635 -1.5548  0.4105
 1926SOL    MW4 7751   0.007   0.102   3.528 -0.0353 -0.2974 -0.2799
 1927SOL     OW 7752   4.422   0.327   3.424  0.1174 -0.4439 -0.7501
 1927SOL    HW2 7753   4.355   0.381   3.465 -0.5143 -1.4129 -0.4704
 1927SOL    HW3 7754   4.505   0.369   3.446 -0.4243  1.1169 -1.6110
 1927SOL    MW4 7755   4.424   0.339   3.432 -0.0377 -0.3659 -0.8268
 1928SOL     OW 7756   2.349   4.338   4.410  0.3222 -0.1947 -0.0784
 1928SOL    HW2 7757   2.331   4.253   4.369 -0.1164  0.5045 -1.3481
 1928SOL    HW3 7758   2.443   4.351   4.397  0.2190 -0.0596 -0.7057
 1928SOL    MW4 7759   2.359   4.328   4.403  0.2511 -0.0844 -0.3285
 1929SOL     OW 7760   0.194   0.468   3.439 -0.6534 -0.2637  0.6333
 1929SOL    HW2 7761   0.213   0.559   3.417  1.2506 -1.1647 -1.5877
 1929SOL    HW3 7762   0.215   0.461   3.533  0.1644  1.3225  0.5871
 1929SOL    MW4 7763   0.199   0.479   3.449 -0.2943 -0.1733  0.3340
 1930SOL     OW 7764   0.224   0.741   3.408  0.0096 -0.4609  0.6974
 1930SOL    HW2 7765   0.274   0.766   3.486  0.6428  0.8924 -0.1320
 1930SOL    HW3 7766   0.139   0.782   3.420 -0.2652 -1.1481  1.1733
 1930SOL    MW4 7767   0.220   0.749   3.420  0.0569 -0.3731  0.6509
 1931SOL     OW 7768   0.226   1.255   3.540 -0.3228 -0.6456  0.2303
 1931SOL    HW2 7769   0.245   1.346   3.516  0.3570 -0.6920  0.5740
 1931SOL    HW3 7770   0.290   1.204   3.490 -0.2658 -0.8868  0.5502
 1931SOL    MW4 7771   0.237   1.260   3.530 -0.2255 -0.6835  0.3181
 1932SOL     OW 7772   0.439   1.108   3.406  0.2566  0.3012  0.1988
 1932SOL    HW2 7773   0.426   1.126   3.313 -0.0174  1.1523  0.4008
 1932SOL    HW3 7774   0.507   1.170   3.433 -0.3932  0.7604  0.7986
 1932SOL    MW4 7775   0.446   1.119   3.397  0.1347  0.4741  0.3047
 1933SOL     OW 7776   0.657   1.548   3.422 -0.1529  0.1939  0.3910
 1933SOL    HW2 7777   0.580   1.602   3.439  0.2386  0.4475  1.3899
 1933SOL    HW3 7778   0.731   1.606   3.438  0.2527 -0.0261 -0.6402
 1933SOL    MW4 7779   0.656   1.563   3.427 -0.0477  0.1984  0.3867
 1934SOL     OW 7780   0.249   1.500   3.371 -0.1825 -0.1455  0.2445
 1934SOL    HW2 7781   0.242   1.500   3.276 -0.3233 -1.3083  0.2432
 1934SOL    HW3 7782   0.305   1.574   3.392  0.8028 -0.5902 -0.8218
 1934SOL    MW4 7783   0.255   1.510   3.362 -0.0710 -0.3577  0.1035
 1935SOL     OW 7784   4.483   1.923   3.358 -0.0850  0.4490 -0.1368
 1935SOL    HW2 7785   4.498   1.838   3.400 -0.5352 -0.0741 -1.0242
 1935SOL    HW3 7786   4.478   1.903   3.264  2.7155  1.8426 -0.6219
 1935SOL    MW4 7787   4.484   1.909   3.351  0.2251  0.5639 -0.3178
 1936SOL     OW 7788   0.213   2.075   3.439  0.1463 -0.3113 -0.1408
 1936SOL    HW2 7789   0.214   2.054   3.532 -2.2337 -0.1839 -0.0555
 1936SOL    HW3 7790   0.132   2.035   3.406  0.2821  0.7770 -1.8850
 1936SOL    MW4 7791   0.202   2.067   3.447 -0.1498 -0.1512 -0.3595
 1937SOL     OW 7792   0.203   2.336   3.425  0.1264 -0.5561  0.2450
 1937SOL    HW2 7793   0.123   2.359   3.472  0.6730  0.8496  0.5062
 1937SOL    HW3 7794   0.208   2.241   3.432 -1.5340 -0.6626  0.1988
 1937SOL    MW4 7795   0.193   2.326   3.432 -0.0205 -0.3848  0.2732
 1938SOL     OW 7796   4.448   2.389   3.526  0.0744 -0.0158 -0.3398
 1938SOL    HW2 7797   4.401   2.366   3.606  0.2318 -0.4150 -0.3621
 1938SOL    HW3 7798   4.382   2.382   3.457 -0.3638  1.5388 -0.0771
 1938SOL    MW4 7799   4.433   2.385   3.527  0.0372  0.1369 -0.3080
 1939SOL     OW 7800   4.413   2.075   3.702  0.2925 -0.5198 -0.4247
 1939SOL    HW2 7801   4.377   2.153   3.743 -0.0260 -1.2509  0.7089
 1939SOL    HW3 7802   4.360   2.061   3.624  0.3176  0.3657 -0.5957
 1939SOL    MW4 7803   4.401   2.083   3.697  0.2532 -0.4997 -0.2975
 1940SOL     OW 7804   0.215   2.864   3.518 -0.0806  0.3833  0.2501
 1940SOL    HW2 7805   0.228   2.946   3.470  0.0326  0.7773  0.9466
 1940SOL    HW3 7806   0.298   2.819   3.512 -0.3520  0.0097 -0.7184
 1940SOL    MW4 7807   0.227   2.869   3.511 -0.1015  0.3860  0.2139
 1941SOL     OW 7808   0.261   3.108   3.371 -0.6666 -0.0668  0.2995
 1941SOL    HW2 7809   0.177   3.134   3.408 -0.0648  1.1223  0.8380
 1941SOL    HW3 7810   0.246   3.109   3.276 -0.8864  1.4723  0.3338
 1941SOL    MW4 7811   0.248   3.111   3.363 -0.6162  0.2930  0.3750
 1942SOL     OW 7812   0.035   3.165   3.495 -0.3404  0.2905 -0.2485
 1942SOL    HW2 7813  -0.046   3.121   3.471 -0.0544 -0.4264  0.0965
 1942SOL    HW3 7814   0.023   3.256   3.466  0.2706 -0.6665 -3.7301
 1942SOL    MW4 7815   0.023   3.172   3.488 -0.2220  0.0694 -0.6623
 1943SOL     OW 7816   0.045   3.421   3.392  0.1275  0.3703  0.1210
 1943SOL    HW2 7817  -0.035   3.452   3.435  0.5241  0.2631  0.9604
 1943SOL    HW3 7818   0.036   3.446   3.301 -0.4560  1.1750  0.4027
 1943SOL    MW4 7819   0.034   3.428   3.386  0.1028  0.4628  0.2689
 1944SOL     OW 7820   0.223   3.599   3.512 -0.4831 -0.1858  0.3982
 1944SOL    HW2 7821   0.200   3.685   3.477 -0.5414 -0.5683 -0.5464
 1944SOL    HW3 7822   0.159   3.540   3.472 -1.3387 -0.4754  2.1522
 1944SOL    MW4 7823   0.212   3.602   3.502 -0.6037 -0.2744  0.5050
 1945SOL     OW 7824   0.165   3.848   3.408 -0.6196 -0.2817 -0.2812
 1945SOL    HW2 7825   0.231   3.907   3.443 -1.3423 -0.0402  0.6855
 1945SOL    HW3 7826   0.081   3.886   3.437 -1.0848 -1.8602  0.4783
 1945SOL    MW4 7827   0.162   3.861   3.416 -0.7763 -0.4582 -0.0534
 1946SOL     OW 7828   4.442   3.993   3.498  0.4821 -0.3164  0.2921
 1946SOL    HW2 7829   4.402   4.007   3.584 -1.1593 -1.6029 -0.2530
 1946SOL    HW3 7830   4.450   4.081   3.461 -0.0814  0.1130  1.1778
 1946SOL    MW4 7831   4.438   4.006   3.504  0.1912 -0.4296  0.3369
 1947SOL     OW 7832   4.453   4.247   3.389 -0.0822  0.0263 -0.0924
 1947SOL    HW2 7833   4.383   4.290   3.440 -0.4525 -0.6567 -0.0213
 1947SOL    HW3 7834   4.534   4.287   3.421 -0.4963  1.4546 -0.7907
 1947SOL    MW4 7835   4.454   4.258   3.400 -0.1855  0.1249 -0.1750
 1948SOL     OW 7836   0.208   4.360   3.489 -0.1525  0.1044 -0.0751
 1948SOL    HW2 7837   0.236   4.319   3.571  0.7591 -0.8652 -0.8544
 1948SOL    HW3 7838   0.266   4.322   3.422  0.0322  1.8928 -0.9707
 1948SOL    MW4 7839   0.220   4.350   3.491 -0.0079  0.2117 -0.2961
 1949SOL     OW 7840   0.671   4.640   3.396  0.4175  0.4161 -0.0423
 1949SOL    HW2 7841   0.664   4.547   3.417  1.5249  0.1519 -0.7967
 1949SOL    HW3 7842   0.691   4.643   3.302  0.0218  1.4231 -0.1061
 1949SOL    MW4 7843   0.673   4.628   3.386  0.5114  0.5140 -0.1504
 1950SOL     OW 7844   0.930   3.496   4.265 -0.0677 -0.4667 -0.0638
 1950SOL    HW2 7845   0.874   3.569   4.237 -0.4541  0.0883  2.1220
 1950SOL    HW3 7846   1.018   3.521   4.235 -0.4428  0.2044 -0.6147
 1950SOL    MW4 7847   0.934   3.509   4.257 -0.1681 -0.3049  0.1512
 1951SOL     OW 7848   1.167   1.439   4.212  0.3602 -0.4417  0.5394
 1951SOL    HW2 7849   1.230   1.424   4.141 -0.4431  0.3195 -0.3511
 1951SOL    HW3 7850   1.095   1.379   4.192  0.2098 -0.3479  0.8114
 1951SOL    MW4 7851   1.166   1.429   4.200  0.2345 -0.3288  0.4582
 1952SOL     OW 7852   0.849   0.345   3.358  0.1129  0.4651  0.1234
 1952SOL    HW2 7853   0.867   0.261   3.402 -1.9127 -0.7803 -1.3601
 1952SOL    HW3 7854   0.786   0.389   3.415 -0.5558 -0.0267 -0.2298
 1952SOL    MW4 7855   0.843   0.340   3.372 -0.2426  0.2359 -0.1187
 1953SOL     OW 7856   0.447   0.887   3.569  0.4063 -0.0833  0.2968
 1953SOL    HW2 7857   0.429   0.954   3.503 -2.0664 -0.1352  0.8585
 1953SOL    HW3 7858   0.452   0.936   3.652 -2.2700 -0.6183  0.8311
 1953SOL    MW4 7859   0.445   0.902   3.571 -0.2731 -0.1607  0.4418
 1954SOL     OW 7860   0.666   1.271   3.494  0.2567 -0.3158 -0.6156
 1954SOL    HW2 7861   0.681   1.360   3.461 -0.2410  0.5611  1.4595
 1954SOL    HW3 7862   0.736   1.219   3.455 -0.3504  0.6365 -3.1120
 1954SOL    MW4 7863   0.677   1.276   3.484  0.1110 -0.0745 -0.6711
 1955SOL     OW 7864   0.988   0.870   4.184 -0.9466 -0.1742 -0.2333
 1955SOL    HW2 7865   0.974   0.853   4.277 -0.5841  1.4948  0.1527
 1955SOL    HW3 7866   1.080   0.848   4.170 -0.9204 -0.1462 -0.1126
 1955SOL    MW4 7867   0.999   0.865   4.195 -0.8953  0.0497 -0.1669
 1956SOL     OW 7868   0.081   1.948   4.248  0.6291  0.0290 -0.0128
 1956SOL    HW2 7869   0.171   1.921   4.268  0.4493  0.3491  1.2755
 1956SOL    HW3 7870   0.090   2.037   4.213  1.1117 -1.1882 -3.1673
 1956SOL    MW4 7871   0.094   1.956   4.246  0.6690 -0.0894 -0.2589
 1957SOL     OW 7872   0.872   1.694   3.486  0.1565 -0.1163  0.6372
 1957SOL    HW2 7873   0.951   1.650   3.456  0.2318 -0.3175  1.1296
 1957SOL    HW3 7874   0.882   1.784   3.457  0.1350 -0.3515 -0.1204
 1957SOL    MW4 7875   0.884   1.700   3.478  0.1636 -0.1739  0.6020
 1958SOL     OW 7876   0.434   1.709   3.444 -0.9486  0.7494  0.2207
 1958SOL    HW2 7877   0.433   1.711   3.540 -1.2602  0.8709  0.2148
 1958SOL    HW3 7878   0.464   1.796   3.419  1.2190  0.0395  0.2401
 1958SOL    MW4 7879   0.438   1.721   3.454 -0.7037  0.6717  0.2224
 1959SOL     OW 7880   0.468   1.998   3.385 -0.2056  0.4306 -0.0778
 1959SOL    HW2 7881   0.380   2.025   3.410 -0.7105 -0.2947 -1.0170
 1959SOL    HW3 7882   0.470   2.009   3.290  0.9088  0.9893  0.0106
 1959SOL    MW4 7883   0.457   2.003   3.376 -0.1252  0.4086 -0.1900
 1960SOL     OW 7884   0.880   1.946   3.382  0.2361  0.0163  0.1459
 1960SOL    HW2 7885   0.962   1.987   3.407  0.2326 -0.4690  0.9756
 1960SOL    HW3 7886   0.813   1.996   3.428  0.1348 -0.1231  0.1508
 1960SOL    MW4 7887   0.882   1.958   3.391  0.2222 -0.0660  0.2561
 1961SOL     OW 7888   0.679   2.307   3.378 -0.4095  0.1635 -0.1120
 1961SOL    HW2 7889   0.745   2.363   3.418 -2.3268  1.7522  0.9317
 1961SOL    HW3 7890   0.679   2.227   3.430 -0.7566  0.9975  1.1868
 1961SOL    MW4 7891   0.688   2.304   3.390 -0.7082  0.4830  0.1967
 1962SOL     OW 7892   0.462   2.462   3.461  0.3421 -0.2536  0.4091
 1962SOL    HW2 7893   0.532   2.408   3.426  0.0727 -0.0840 -0.3971
 1962SOL    HW3 7894   0.382   2.412   3.443  0.1039  0.3512 -0.2286
 1962SOL    MW4 7895   0.460   2.448   3.454  0.2751 -0.1514  0.2186
 1963SOL     OW 7896   0.444   2.733   3.457 -0.2104  0.1878 -0.3704
 1963SOL    HW2 7897   0.440   2.637   3.451 -0.1024  0.1833 -0.3723
 1963SOL    HW3 7898   0.453   2.762   3.366  0.1734  0.1798 -0.3333
 1963SOL    MW4 7899   0.445   2.724   3.444 -0.1455  0.1860 -0.3657
 1964SOL     OW 7900   0.691   2.822   3.557  0.3968  0.3867 -0.0950
 1964SOL    HW2 7901   0.770   2.784   3.517 -0.2345 -0.8582 -0.1733
 1964SOL    HW3 7902   0.622   2.760   3.537 -0.1563  0.3056  1.9876
 1964SOL    MW4 7903   0.692   2.809   3.549  0.2405  0.2117  0.1693
 1965SOL     OW 7904   0.645   3.084   3.459 -0.2418 -0.2298 -0.1816
 1965SOL    HW2 7905   0.556   3.114   3.477  0.0650  0.6730 -0.1488
 1965SOL    HW3 7906   0.648   2.995   3.493 -0.6412  0.3074  1.2872
 1965SOL    MW4 7907   0.633   3.076   3.466 -0.2540 -0.0398  0.0167
 1966SOL     OW 7908   0.419   3.255   3.552  0.4214 -0.5407  0.3050
 1966SOL    HW2 7909   0.373   3.252   3.636 -0.5348  0.7443 -0.1570
 1966SOL    HW3 7910   0.366   3.202   3.493  0.1114  0.0449  0.0530
 1966SOL    MW4 7911   0.406   3.247   3.556  0.2543 -0.2940  0.2105
 1967SOL     OW 7912   0.472   3.500   3.418  0.4257  0.4877 -0.2233
 1967SOL    HW2 7913   0.472   3.407   3.439 -0.4223  0.2338 -1.2870
 1967SOL    HW3 7914   0.388   3.532   3.451  1.3645  1.2210  1.5363
 1967SOL    MW4 7915   0.461   3.492   3.425  0.4376  0.5507 -0.1314
 1968SOL     OW 7916   0.655   3.636   3.551  0.1783 -0.1234 -0.4022
 1968SOL    HW2 7917   0.736   3.599   3.517  0.1644 -1.4882  0.9723
 1968SOL    HW3 7918   0.585   3.591   3.503  0.1978 -0.5570 -0.0269
 1968SOL    MW4 7919   0.656   3.625   3.541  0.1790 -0.3607 -0.1717
 1969SOL     OW 7920   0.622   3.858   3.401  0.2718 -0.5514  0.0325
 1969SOL    HW2 7921   0.532   3.874   3.428  0.4620 -0.1967  0.4517
 1969SOL    HW3 7922   0.651   3.786   3.457  0.0875 -1.0059 -0.4485
 1969SOL    MW4 7923   0.614   3.850   3.412  0.2726 -0.5646  0.0243
 1970SOL     OW 7924   0.380   3.990   3.478 -0.4933 -0.3400  0.5726
 1970SOL    HW2 7925   0.375   3.996   3.573 -1.2278 -0.8848  0.5772
 1970SOL    HW3 7926   0.392   4.080   3.448  0.3739 -0.2352  1.2066
 1970SOL    MW4 7927   0.381   4.003   3.486 -0.4758 -0.3977  0.6571
 1971SOL     OW 7928   0.429   4.245   3.364 -0.7023  0.0629 -0.1931
 1971SOL    HW2 7929   0.497   4.292   3.413 -0.6133  0.4147 -0.6489
 1971SOL    HW3 7930   0.451   4.261   3.272 -1.1103 -0.2504 -0.3462
 1971SOL    MW4 7931   0.441   4.253   3.358 -0.7444  0.0677 -0.2735
 1972SOL     OW 7932   0.875   0.111   3.509 -0.0908 -0.1323  0.0302
 1972SOL    HW2 7933   0.805   0.058   3.471  0.1555 -1.1883  1.0274
 1972SOL    HW3 7934   0.956   0.069   3.477  0.1028  0.7437 -0.6580
 1972SOL    MW4 7935   0.877   0.098   3.499 -0.0328 -0.1561  0.0708
 1973SOL     OW 7936   1.077   0.496   3.443  0.2371  0.4148  0.3516
 1973SOL    HW2 7937   1.007   0.446   3.402 -0.1223  3.0157 -2.3698
 1973SOL    HW3 7938   1.069   0.475   3.536  0.1280 -4.4852 -0.6350
 1973SOL    MW4 7939   1.066   0.487   3.450  0.1752  0.1114 -0.1378
 1974SOL     OW 7940   1.749   0.470   3.915 -0.6570  0.2004 -0.1793
 1974SOL    HW2 7941   1.754   0.379   3.886 -0.5524  0.0752  0.2212
 1974SOL    HW3 7942   1.825   0.512   3.876 -0.7554  0.1353 -0.4400
 1974SOL    MW4 7943   1.759   0.463   3.906 -0.6561  0.1753 -0.1609
 1975SOL     OW 7944   3.299   3.634   4.045  0.1381  0.1581 -0.5226
 1975SOL    HW2 7945   3.222   3.689   4.059  1.2957  1.6504 -0.0029
 1975SOL    HW3 7946   3.310   3.586   4.127 -0.4685 -0.3818 -0.7458
 1975SOL    MW4 7947   3.290   3.635   4.057  0.2105  0.2837 -0.4830
 1976SOL     OW 7948   0.655   0.500   3.479 -0.1275 -0.3362 -0.0433
 1976SOL    HW2 7949   0.581   0.459   3.435 -0.8201 -0.5242  1.2855
 1976SOL    HW3 7950   0.623   0.522   3.566  0.8720  1.1267 -0.0204
 1976SOL    MW4 7951   0.641   0.498   3.485 -0.0871 -0.1680  0.1354
 1977SOL     OW 7952   0.885   1.150   3.137 -0.2502 -0.0501  0.3925
 1977SOL    HW2 7953   0.877   1.060   3.106  3.1038 -0.7179  1.3314
 1977SOL    HW3 7954   0.862   1.146   3.230 -1.1469  0.2775  0.1926
 1977SOL    MW4 7955   0.881   1.138   3.145  0.0740 -0.0949  0.4902
 1978SOL     OW 7956   0.644   0.759   3.419 -0.1291  0.2895 -0.0896
 1978SOL    HW2 7957   0.573   0.795   3.472  0.4759  0.1970  0.7787
 1978SOL    HW3 7958   0.654   0.669   3.449  0.0201  0.1470 -0.5569
 1978SOL    MW4 7959   0.636   0.752   3.430 -0.0296  0.2585 -0.0367
 1979SOL     OW 7960   0.883   1.077   3.404 -0.0274 -0.3294 -0.1200
 1979SOL    HW2 7961   0.882   0.997   3.458 -0.0356  0.7628  1.5419
 1979SOL    HW3 7962   0.968   1.116   3.420 -0.8818  1.1718  0.8755
 1979SOL    MW4 7963   0.894   1.072   3.414 -0.1412  0.0128  0.2308
 1980SOL     OW 7964   1.106   1.246   3.488 -0.0325  0.2208 -0.2235
 1980SOL    HW2 7965   1.106   1.247   3.583 -1.4623 -0.8143 -0.1847
 1980SOL    HW3 7966   1.103   1.338   3.462 -0.7510  0.4777  0.7481
 1980SOL    MW4 7967   1.106   1.258   3.497 -0.3158  0.1181 -0.0901
 1981SOL     OW 7968   1.098   1.538   3.426  0.2223 -0.1278  0.1011
 1981SOL    HW2 7969   1.179   1.575   3.462  0.3308  0.9681 -1.2317
 1981SOL    HW3 7970   1.116   1.528   3.333 -0.5886 -1.5015  0.0823
 1981SOL    MW4 7971   1.111   1.541   3.418  0.1297 -0.1644 -0.0772
 1982SOL     OW 7972   1.095   2.074   3.543 -0.1381  0.2333 -0.0465
 1982SOL    HW2 7973   1.116   2.161   3.508 -0.2669 -0.2564 -1.3815
 1982SOL    HW3 7974   1.161   2.017   3.504 -0.0808 -0.2739  0.7928
 1982SOL    MW4 7975   1.107   2.078   3.533 -0.1476  0.1018 -0.1116
 1983SOL     OW 7976   1.132   2.342   3.943  0.0509  0.4795 -0.0559
 1983SOL    HW2 7977   1.064   2.371   4.003  0.9404 -0.2323  1.3090
 1983SOL    HW3 7978   1.086   2.286   3.880 -0.9157  1.3899 -0.1779
 1983SOL    MW4 7979   1.117   2.339   3.942  0.0408  0.5057  0.1080
 1984SOL     OW 7980   0.811   2.458   3.802 -0.1357  0.0810 -0.2051
 1984SOL    HW2 7981   0.720   2.471   3.775 -0.8197 -0.6911  1.6495
 1984SOL    HW3 7982   0.841   2.546   3.826 -0.5718  0.2454 -0.2511
 1984SOL    MW4 7983   0.803   2.472   3.801 -0.2835  0.0007  0.0336
 1985SOL     OW 7984   1.098   2.333   3.428 -0.6425 -0.0504 -0.3690
 1985SOL    HW2 7985   1.172   2.371   3.475 -0.4895 -1.3489  0.4622
 1985SOL    HW3 7986   1.117   2.350   3.336  1.3336 -1.4360 -0.2635
 1985SOL    MW4 7987   1.111   2.340   3.422 -0.3616 -0.4046 -0.2453
 1986SOL     OW 7988   0.880   2.472   3.526 -0.5820 -0.2536 -0.1639
 1986SOL    HW2 7989   0.862   2.447   3.616  0.0732 -0.8175 -0.1848
 1986SOL    HW3 7990   0.952   2.416   3.499 -0.0104  0.7086 -0.6730
 1986SOL    MW4 7991   0.887   2.461   3.534 -0.4202 -0.2007 -0.2337
 1987SOL     OW 7992   0.915   2.719   3.425  0.0055 -0.2888 -0.1573
 1987SOL    HW2 7993   1.000   2.754   3.451  0.5131 -1.4170 -0.2670
 1987SOL    HW3 7994   0.905   2.639   3.477 -2.5044  1.5560  2.3653
 1987SOL    MW4 7995   0.925   2.713   3.435 -0.2586 -0.1943  0.1612
 1988SOL     OW 7996   1.167   2.813   3.472 -0.3721 -0.6031 -0.2153
 1988SOL    HW2 7997   1.180   2.795   3.565 -0.8760 -0.0821 -0.0385
 1988SOL    HW3 7998   1.231   2.758   3.427  1.6871  1.1023  0.5642
 1988SOL    MW4 7999   1.177   2.804   3.478 -0.1669 -0.3090 -0.0894
 1989SOL     OW 8000   1.112   3.091   3.430  0.1160 -0.1333  0.5127
 1989SOL    HW2 8001   1.115   3.098   3.335 -0.2592 -0.0589  0.5074
 1989SOL    HW3 8002   1.122   2.997   3.447 -0.6611 -0.2462  0.3658
 1989SOL    MW4 8003   1.114   3.079   3.420 -0.0360 -0.1383  0.4928
 1990SOL     OW 8004   0.884   3.250   3.475 -0.0785 -0.0872 -0.2057
 1990SOL    HW2 8005   0.954   3.187   3.455 -0.5566  0.0992 -2.5439
 1990SOL    HW3 8006   0.803   3.200   3.462 -0.4593  0.9476 -1.9657
 1990SOL    MW4 8007   0.883   3.235   3.471 -0.1919  0.0737 -0.7465
 1991SOL     OW 8008   0.884   3.514   3.438  0.1167  0.0450  0.0509
 1991SOL    HW2 8009   0.861   3.427   3.469 -1.1113  0.3376  0.0009
 1991SOL    HW3 8010   0.892   3.506   3.343 -1.6452  0.3264 -0.1382
 1991SOL    MW4 8011   0.882   3.502   3.430 -0.2778  0.1209  0.0198
 1992SOL     OW 8012   1.128   3.636   3.535  0.4513 -0.0547  0.3375
 1992SOL    HW2 8013   1.097   3.657   3.623 -0.1498  1.7884 -0.2766
 1992SOL    HW3 8014   1.058   3.583   3.497  0.9781 -1.3581  1.1577
 1992SOL    MW4 8015   1.115   3.632   3.542  0.4416  0.0167  0.3648
 1993SOL     OW 8016   0.687   0.286   3.912  0.1046 -1.1814  0.0482
 1993SOL    HW2 8017   0.737   0.366   3.896 -0.4466 -0.9328 -0.4549
 1993SOL    HW3 8018   0.738   0.217   3.870  0.3374 -1.0255  0.0737
 1993SOL    MW4 8019   0.700   0.287   3.905  0.0625 -1.1280 -0.0148
 1994SOL     OW 8020   1.738   0.455   4.440 -0.2360  0.2354  0.0824
 1994SOL    HW2 8021   1.755   0.500   4.357 -0.5825 -3.1103 -1.8745
 1994SOL    HW3 8022   1.647   0.426   4.433 -1.3086  2.7145  3.0449
 1994SOL    MW4 8023   1.729   0.457   4.428 -0.4232  0.1211  0.2151
 1995SOL     OW 8024   0.897   4.238   3.423 -0.0036 -0.1451 -0.7310
 1995SOL    HW2 8025   0.866   4.151   3.448 -0.4583 -0.3129 -1.8402
 1995SOL    HW3 8026   0.882   4.243   3.329  1.0811  0.7078 -0.8736
 1995SOL    MW4 8027   0.891   4.228   3.414  0.0796 -0.0544 -0.8962
 1996SOL     OW 8028   1.334   0.104   3.490 -0.0529  1.3235 -0.1354
 1996SOL    HW2 8029   1.325   0.192   3.453  0.6993  1.5216  0.1526
 1996SOL    HW3 8030   1.247   0.066   3.482 -0.3245  2.0112 -0.4804
 1996SOL    MW4 8031   1.322   0.111   3.484  0.0105  1.4404 -0.1431
 1997SOL     OW 8032   1.583   4.637   3.416 -0.1127 -0.2661 -0.2153
 1997SOL    HW2 8033   1.586   4.553   3.461  1.0520 -0.7187 -1.1271
 1997SOL    HW3 8034   1.504   4.679   3.450  0.1308 -1.0662  1.3970
 1997SOL    MW4 8035   1.573   4.631   3.426  0.0731 -0.4311 -0.1228
 1998SOL     OW 8036   2.234   0.105   3.865  0.0195  0.1762 -0.0241
 1998SOL    HW2 8037   2.265   0.118   3.776  0.7129 -1.0595  0.0152
 1998SOL    HW3 8038   2.237   0.010   3.877  1.9690  0.4477  2.0218
 1998SOL    MW4 8039   2.239   0.094   3.855  0.3681  0.0490  0.2513
 1999SOL     OW 8040   1.348   0.366   3.385  0.5666 -0.1514  0.5208
 1999SOL    HW2 8041   1.265   0.395   3.421  0.3687 -1.2413  0.9648
 1999SOL    HW3 8042   1.413   0.393   3.449  0.3891 -0.6212  0.9030
 1999SOL    MW4 8043   1.346   0.373   3.398  0.5170 -0.3572  0.6297
 2000SOL     OW 8044   1.752   0.833   3.545 -0.6184 -0.4781  0.1891
 2000SOL    HW2 8045   1.688   0.785   3.494 -0.3759  1.4306 -2.0125
 2000SOL    HW3 8046   1.835   0.790   3.527 -0.8609 -1.2086  0.8021
 2000SOL    MW4 8047   1.755   0.821   3.536 -0.6183 -0.3226 -0.0203
 2001SOL     OW 8048   1.361   0.862   3.571  0.2690  0.2885 -0.8385
 2001SOL    HW2 8049   1.354   0.957   3.558 -0.3220  0.4362  0.5268
 2001SOL    HW3 8050   1.352   0.850   3.665  1.4041 -1.0454 -0.8863
 2001SOL    MW4 8051   1.359   0.873   3.582  0.3407  0.1320 -0.6647
 2002SOL     OW 8052   1.499   1.831   4.147 -0.4487  0.1352  0.9113
 2002SOL    HW2 8053   1.560   1.860   4.080 -0.5622  0.0139  0.7542
 2002SOL    HW3 8054   1.514   1.736   4.154 -0.1201  0.2194  1.3800
 2002SOL    MW4 8055   1.509   1.822   4.139 -0.4203  0.1304  0.9527
 2003SOL     OW 8056   1.572   1.244   3.493 -0.0435 -0.1518 -0.0482
 2003SOL    HW2 8057   1.580   1.271   3.584 -0.4873  0.5469 -0.2141
 2003SOL    HW3 8058   1.481   1.215   3.484 -0.1123  0.1658 -0.3731
 2003SOL    MW4 8059   1.561   1.244   3.504 -0.1112 -0.0178 -0.1128
 2004SOL     OW 8060   1.849   1.297   4.088 -0.1384  0.3428 -0.2404
 2004SOL    HW2 8061   1.941   1.309   4.111 -0.6431  2.4661  0.8571
 2004SOL    HW3 8062   1.819   1.384   4.062 -2.0383 -0.1512  0.1895
 2004SOL    MW4 8063   1.857   1.310   4.088 -0.4556  0.5578 -0.0386
 2005SOL     OW 8064   1.549   1.524   3.446 -0.0344  0.0540 -0.2050
 2005SOL    HW2 8065   1.574   1.432   3.450  2.9772  0.8109 -0.0315
 2005SOL    HW3 8066   1.548   1.545   3.353 -1.6953 -0.3648 -0.2999
 2005SOL    MW4 8067   1.552   1.515   3.434  0.1438  0.0986 -0.1948
 2006SOL     OW 8068   1.324   1.657   3.547 -0.5280  0.3049  0.0967
 2006SOL    HW2 8069   1.326   1.624   3.637 -0.0409  0.2727  0.0778
 2006SOL    HW3 8070   1.409   1.633   3.511 -0.2155  1.4369  0.0411
 2006SOL    MW4 8071   1.336   1.650   3.554 -0.4226  0.4499  0.0870
 2007SOL     OW 8072   1.292   1.907   3.436 -0.0781  0.0057  0.7597
 2007SOL    HW2 8073   1.374   1.952   3.454 -0.5205  0.7667  0.8969
 2007SOL    HW3 8074   1.301   1.822   3.478  1.0068 -0.2752 -0.0130
 2007SOL    MW4 8075   1.304   1.902   3.444  0.0067  0.0690  0.6757
 2008SOL     OW 8076   1.540   2.024   3.488  0.2078 -0.1178 -0.1856
 2008SOL    HW2 8077   1.624   1.999   3.451  0.6811  0.8772  0.2089
 2008SOL    HW3 8078   1.524   2.112   3.455 -0.0638  0.1997  0.7756
 2008SOL    MW4 8079   1.549   2.032   3.479  0.2344  0.0553 -0.0067
 2009SOL     OW 8080   1.553   2.314   3.130 -0.2983 -0.1916  0.2903
 2009SOL    HW2 8081   1.541   2.307   3.225  2.5889 -0.5611  0.6660
 2009SOL    HW3 8082   1.549   2.223   3.099  0.7642 -0.2520  0.3266
 2009SOL    MW4 8083   1.551   2.301   3.138  0.2227 -0.2482  0.3448
 2010SOL     OW 8084   1.331   2.436   3.559 -0.4702 -0.2188  0.1869
 2010SOL    HW2 8085   1.341   2.472   3.647 -1.5929  1.1045 -0.2046
 2010SOL    HW3 8086   1.343   2.512   3.501 -0.8637 -0.8690 -0.7488
 2010SOL    MW4 8087   1.334   2.451   3.563 -0.6702 -0.1299  0.0117
 2011SOL     OW 8088   1.369   2.638   3.377  0.2008 -0.2198 -0.4565
 2011SOL    HW2 8089   1.432   2.704   3.404 -2.3058  1.8022  0.6559
 2011SOL    HW3 8090   1.347   2.662   3.287 -0.3315  0.1850 -0.2228
 2011SOL    MW4 8091   1.374   2.650   3.369 -0.2003  0.1004 -0.2789
 2012SOL     OW 8092   1.801   2.672   3.406 -0.0718 -0.0992  0.1594
 2012SOL    HW2 8093   1.883   2.686   3.453 -0.1918  0.5763  0.1712
 2012SOL    HW3 8094   1.735   2.720   3.456 -0.0172  1.4944 -1.2318
 2012SOL    MW4 8095   1.803   2.680   3.419 -0.0803  0.2003 -0.0224
 2013SOL     OW 8096   1.573   3.071   3.495  0.2965  0.0389  0.8388
 2013SOL    HW2 8097   1.562   3.083   3.589  1.5751  1.0238  0.8651
 2013SOL    HW3 8098   1.503   3.124   3.456 -1.4827 -1.9227  1.2495
 2013SOL    MW4 8099   1.562   3.080   3.502  0.2306 -0.0896  0.8967
 2014SOL     OW 8100   1.356   3.213   3.419 -0.0654  0.5130 -0.0024
 2014SOL    HW2 8101   1.339   3.307   3.422 -0.1321  0.5055 -0.1228
 2014SOL    HW3 8102   1.270   3.173   3.433 -0.1614  0.4748 -0.6989
 2014SOL    MW4 8103   1.343   3.220   3.421 -0.0868  0.5069 -0.1101
 2015SOL     OW 8104   1.343   3.496   3.434  0.0066  0.1519 -0.3185
 2015SOL    HW2 8105   1.347   3.535   3.347  0.8435  1.5649  0.3208
 2015SOL    HW3 8106   1.280   3.550   3.482  1.0984  0.7030  0.5438
 2015SOL    MW4 8107   1.335   3.509   3.429  0.2611  0.4113 -0.1206
 2016SOL     OW 8108   0.594   3.986   3.916 -0.3690  0.5937  0.1295
 2016SOL    HW2 8109   0.611   3.893   3.926  0.3567  0.6610 -0.4046
 2016SOL    HW3 8110   0.594   4.020   4.005 -0.6289  0.0867  0.3244
 2016SOL    MW4 8111   0.596   3.978   3.929 -0.3075  0.5357  0.0849
 2017SOL     OW 8112   1.574   3.878   3.427  0.6028  0.3309 -0.0526
 2017SOL    HW2 8113   1.560   3.790   3.463 -0.8112  0.7955  0.6063
 2017SOL    HW3 8114   1.653   3.910   3.471 -0.4835  0.4656  1.8932
 2017SOL    MW4 8115   1.582   3.871   3.438  0.2730  0.4101  0.2911
 2018SOL     OW 8116   1.336   4.000   3.516 -0.5094 -0.0441 -0.3527
 2018SOL    HW2 8117   1.256   3.951   3.497 -0.5580  1.2113 -3.8306
 2018SOL    HW3 8118   1.404   3.957   3.463  0.5301  0.5188  0.5155
 2018SOL    MW4 8119   1.335   3.988   3.506 -0.3785  0.1957 -0.6974
 2019SOL     OW 8120   1.129   4.399   3.513 -0.3111  0.3835 -0.5082
 2019SOL    HW2 8121   1.058   4.348   3.474  0.2844 -0.9583  0.1625
 2019SOL    HW3 8122   1.209   4.358   3.482  0.1793 -0.1757  1.4179
 2019SOL    MW4 8123   1.130   4.387   3.504 -0.1678  0.1330 -0.1657
 2020SOL     OW 8124   1.351   4.248   3.426 -0.4507 -0.2467 -0.2092
 2020SOL    HW2 8125   1.337   4.168   3.476  1.0379 -0.1035  0.4635
 2020SOL    HW3 8126   1.326   4.226   3.336 -0.0849 -1.4405 -0.0170
 2020SOL    MW4 8127   1.346   4.235   3.421 -0.2059 -0.3853 -0.0951
 2021SOL     OW 8128   2.120   4.162   3.916  0.4978  0.1936  0.0271
 2021SOL    HW2 8129   2.048   4.166   3.854 -1.3745  1.6540  2.2024
 2021SOL    HW3 8130   2.109   4.079   3.961  0.1785  0.4154  0.3574
 2021SOL    MW4 8131   2.109   4.152   3.914  0.2086  0.4153  0.3576
 2022SOL     OW 8132   1.832   3.922   3.995 -0.3532 -0.1928 -0.4124
 2022SOL    HW2 8133   1.741   3.894   3.991 -0.1863 -0.7412 -0.5262
 2022SOL    HW3 8134   1.867   3.881   4.074 -0.7247  1.6396  0.7112
 2022SOL    MW4 8135   1.825   3.913   4.005 -0.3800 -0.0234 -0.2794
 2023SOL     OW 8136   1.792   0.371   3.462 -0.1246  0.9112 -0.1711
 2023SOL    HW2 8137   1.806   0.279   3.481 -2.3059  0.6561  0.4104
 2023SOL    HW3 8138   1.795   0.377   3.366 -1.2558 -0.0204 -0.2800
 2023SOL    MW4 8139   1.794   0.360   3.452 -0.5616  0.7547 -0.1087
 2024SOL     OW 8140   2.001   0.770   3.384  0.3592  0.7742  0.1804
 2024SOL    HW2 8141   1.998   0.682   3.421 -1.4035  0.7609  0.0841
 2024SOL    HW3 8142   2.066   0.816   3.436 -0.6925  0.2075  2.0753
 2024SOL    MW4 8143   2.009   0.765   3.396 -0.0122  0.6977  0.4177
 2025SOL     OW 8144   2.192   0.860   3.559 -0.3524 -0.3924 -0.4298
 2025SOL    HW2 8145   2.214   0.944   3.520  0.4821 -0.2531  0.3199
 2025SOL    HW3 8146   2.275   0.813   3.563 -0.9184 -1.4884 -1.3987
 2025SOL    MW4 8147   2.206   0.865   3.554 -0.3171 -0.5186 -0.4587
 2026SOL     OW 8148   1.843   1.124   3.443  0.6246 -0.0920  0.2162
 2026SOL    HW2 8149   1.752   1.141   3.465  0.6749 -0.0627  0.4054
 2026SOL    HW3 8150   1.854   1.030   3.457  0.4129 -0.2391 -0.5880
 2026SOL    MW4 8151   1.833   1.114   3.448  0.6033 -0.1075  0.1352
 2027SOL     OW 8152   2.064   1.260   3.563  0.3596 -0.4010 -0.5080
 2027SOL    HW2 8153   2.060   1.350   3.532  0.1234  0.6952  2.4676
 2027SOL    HW3 8154   1.981   1.222   3.537 -0.4645  0.9300  0.1257
 2027SOL    MW4 8155   2.053   1.267   3.556  0.2198 -0.0806 -0.0317
 2028SOL     OW 8156   1.993   0.028   4.327 -0.2448  0.1427  0.1882
 2028SOL    HW2 8157   2.066  -0.017   4.370 -0.1819  0.2595  0.2020
 2028SOL    HW3 8158   1.976   0.105   4.382  0.8342  1.1230 -0.8420
 2028SOL    MW4 8159   2.000   0.032   4.340 -0.0944  0.2875  0.0539
 2029SOL     OW 8160   2.021   1.525   3.438  0.4650 -0.0519  0.3626
 2029SOL    HW2 8161   2.094   1.572   3.479  0.3180  1.0279 -0.5982
 2029SOL    HW3 8162   1.943   1.571   3.468  0.2823 -0.1061 -0.0264
 2029SOL    MW4 8163   2.021   1.537   3.447  0.4213  0.0834  0.1845
 2030SOL     OW 8164   1.783   1.644   3.528 -0.3519 -0.0468  0.3677
 2030SOL    HW2 8165   1.795   1.719   3.470  0.2158  0.0927  0.6613
 2030SOL    HW3 8166   1.701   1.604   3.499 -0.6622  0.6959  0.2305
 2030SOL    MW4 8167   1.774   1.648   3.516 -0.3178  0.0696  0.3884
 2031SOL     OW 8168   1.784   1.910   3.393 -0.1055 -0.0400 -0.8576
 2031SOL    HW2 8169   1.851   1.952   3.447 -0.4715  0.5407 -0.8477
 2031SOL    HW3 8170   1.812   1.928   3.303  0.8371 -1.5357 -0.8825
 2031SOL    MW4 8171   1.797   1.918   3.388 -0.0296 -0.1608 -0.8595
 2032SOL     OW 8172   2.011   1.992   3.513 -0.2954  0.1500  0.0697
 2032SOL    HW2 8173   2.097   1.949   3.508 -0.5863 -0.4977  0.5542
 2032SOL    HW3 8174   2.025   2.078   3.473  0.9743  0.6676  1.5677
 2032SOL    MW4 8175   2.024   1.998   3.507 -0.1664  0.1328  0.3314
 2033SOL     OW 8176   2.020   2.243   3.397 -0.3608  0.1426 -0.0011
 2033SOL    HW2 8177   2.006   2.259   3.304  0.2393  0.0832 -0.1046
 2033SOL    HW3 8178   2.088   2.306   3.422  1.4953 -1.6966 -0.2485
 2033SOL    MW4 8179   2.028   2.253   3.388 -0.0367 -0.1078 -0.0474
 2034SOL     OW 8180   1.546   2.289   3.404  0.2773  0.0525 -0.1399
 2034SOL    HW2 8181   1.625   2.342   3.407  0.2584  0.0901 -0.3333
 2034SOL    HW3 8182   1.484   2.335   3.460  0.3572  0.0769 -0.0703
 2034SOL    MW4 8183   1.548   2.302   3.412  0.2853  0.0608 -0.1562
 2035SOL     OW 8184   1.793   2.402   3.469  0.0038 -0.6211 -0.2192
 2035SOL    HW2 8185   1.809   2.491   3.438 -0.3071 -0.6550 -0.4795
 2035SOL    HW3 8186   1.871   2.352   3.443  0.1500 -0.4400 -0.1265
 2035SOL    MW4 8187   1.805   2.407   3.462 -0.0179 -0.6015 -0.2413
 2036SOL     OW 8188   2.027   3.077   3.428  0.6174  0.0143  0.1849
 2036SOL    HW2 8189   1.958   3.130   3.468  1.0028  0.5100  0.2036
 2036SOL    HW3 8190   2.108   3.121   3.453  0.9739 -0.9044  0.6708
 2036SOL    MW4 8191   2.029   3.090   3.437  0.7153 -0.0420  0.2518
 2037SOL     OW 8192   1.814   3.481   3.378 -0.0678 -0.5822 -0.4742
 2037SOL    HW2 8193   1.811   3.477   3.282 -1.1027  1.9523 -0.5858
 2037SOL    HW3 8194   1.880   3.548   3.397 -0.7139 -0.2263  0.5495
 2037SOL    MW4 8195   1.822   3.489   3.368 -0.2897 -0.2007 -0.3541
 2038SOL     OW 8196   1.887   3.520   3.884 -0.0773  0.0684  0.3783
 2038SOL    HW2 8197   1.820   3.562   3.831  0.8223  0.8656 -0.1432
 2038SOL    HW3 8198   1.878   3.427   3.865  0.3387  0.3632 -1.2989
 2038SOL    MW4 8199   1.877   3.513   3.875  0.0963  0.2124  0.0882
 2039SOL     OW 8200   1.235   3.465   3.943 -0.4795 -0.0414 -0.2367
 2039SOL    HW2 8201   1.204   3.375   3.931 -0.0047 -0.4344  1.4506
 2039SOL    HW3 8202   1.168   3.518   3.899 -0.9182 -1.1868 -0.9959
 2039SOL    MW4 8203   1.222   3.460   3.935 -0.4747 -0.2446 -0.1142
 2040SOL     OW 8204   1.591   3.611   3.500 -0.3621  0.0948  0.6965
 2040SOL    HW2 8205   1.668   3.572   3.459 -0.1630  3.1986 -2.1514
 2040SOL    HW3 8206   1.521   3.547   3.485  0.8268 -1.0334 -0.1291
 2040SOL    MW4 8207   1.592   3.598   3.492 -0.1789  0.3555  0.2117
 2041SOL     OW 8208   1.944   3.238   4.582 -0.1986 -0.0681  0.0463
 2041SOL    HW2 8209   2.000   3.285   4.644 -0.7013  0.4535  0.1050
 2041SOL    HW3 8210   1.940   3.295   4.505  1.4884 -1.3085 -0.9848
 2041SOL    MW4 8211   1.951   3.252   4.580 -0.0422 -0.1628 -0.0820
 2042SOL     OW 8212   2.439   3.587   3.480 -0.5243  0.2768 -0.8286
 2042SOL    HW2 8213   2.427   3.681   3.493 -0.0467  0.4187 -1.3814
 2042SOL    HW3 8214   2.353   3.556   3.451 -0.8870  0.4060  0.0839
 2042SOL    MW4 8215   2.426   3.595   3.478 -0.5093  0.3126 -0.7811
 2043SOL     OW 8216   1.805   4.259   3.379  0.2087  0.9090  0.0456
 2043SOL    HW2 8217   1.728   4.305   3.412 -1.2219 -0.9378 -0.6249
 2043SOL    HW3 8218   1.791   4.253   3.285  0.0484 -1.3754  0.1684
 2043SOL    MW4 8219   1.793   4.264   3.371 -0.0012  0.3638 -0.0265
 2044SOL     OW 8220   2.240   4.292   3.467 -0.2122 -0.3511 -0.5785
 2044SOL    HW2 8221   2.146   4.299   3.482 -0.3950 -2.3801 -0.6404
 2044SOL    HW3 8222   2.248   4.252   3.381  0.7232  0.3562 -0.8266
 2044SOL    MW4 8223   2.229   4.287   3.458 -0.1130 -0.5255 -0.6194
 2045SOL     OW 8224   2.787   4.578   3.321 -0.2208  0.8864 -0.6150
 2045SOL    HW2 8225   2.761   4.490   3.293  0.7677  0.2822  0.3143
 2045SOL    HW3 8226   2.823   4.619   3.242 -0.6588  0.4487 -1.0441
 2045SOL    MW4 8227   2.788   4.572   3.307 -0.1481  0.7491 -0.5486
 2046SOL     OW 8228   2.193   0.370   3.452  0.3770 -0.3083 -0.3120
 2046SOL    HW2 8229   2.118   0.424   3.476 -1.0843 -1.4416 -2.1357
 2046SOL    HW3 8230   2.268   0.414   3.491 -0.6854  3.2866 -2.1854
 2046SOL    MW4 8231   2.193   0.383   3.461  0.0443  0.0165 -0.7999
 2047SOL     OW 8232   2.872   1.134   4.641 -0.4129 -0.0862  0.0182
 2047SOL    HW2 8233   2.912   1.147   4.727  1.1252 -0.6348 -0.5859
 2047SOL    HW3 8234   2.933   1.177   4.580 -0.9016 -0.6714 -0.8915
 2047SOL    MW4 8235   2.886   1.141   4.644 -0.2744 -0.2357 -0.1817
 2048SOL     OW 8236   2.523   0.731   4.004 -0.2720  0.5739  0.0209
 2048SOL    HW2 8237   2.504   0.654   3.949  1.7877 -1.1352  1.6199
 2048SOL    HW3 8238   2.575   0.788   3.947  0.9800 -0.7189 -0.1690
 2048SOL    MW4 8239   2.527   0.728   3.989  0.1650  0.1778  0.2067
 2049SOL     OW 8240   2.420   0.732   3.480  0.0530 -0.2604  0.0606
 2049SOL    HW2 8241   2.434   0.735   3.386 -1.3865 -0.2474 -0.1656
 2049SOL    HW3 8242   2.442   0.643   3.505  1.4212  0.0205 -0.1210
 2049SOL    MW4 8243   2.425   0.721   3.471  0.0436 -0.2216  0.0067
 2050SOL     OW 8244   1.545   1.528   4.131  0.5749  0.7283  0.0577
 2050SOL    HW2 8245   1.627   1.537   4.082 -0.1765  3.2429 -0.8063
 2050SOL    HW3 8246   1.477   1.530   4.065 -0.2823  0.1766  0.9059
 2050SOL    MW4 8247   1.547   1.529   4.116  0.3626  0.9872  0.0553
 2051SOL     OW 8248   2.242   1.111   3.411  0.4302  0.5025  0.2023
 2051SOL    HW2 8249   2.330   1.124   3.447  0.1774  1.1062  0.5926
 2051SOL    HW3 8250   2.186   1.171   3.460 -0.1481  0.3563 -0.2712
 2051SOL    MW4 8251   2.246   1.120   3.422  0.3204  0.5629  0.1912
 2052SOL     OW 8252   2.449   1.191   3.558  0.1992 -0.2660 -0.1261
 2052SOL    HW2 8253   2.470   1.171   3.649  0.3502 -0.1016 -0.1228
 2052SOL    HW3 8254   2.531   1.179   3.511 -0.3471 -2.2790 -0.5792
 2052SOL    MW4 8255   2.462   1.187   3.564  0.1471 -0.5097 -0.1857
 2053SOL     OW 8256   2.252   1.631   3.576 -0.1067 -0.4168 -0.2812
 2053SOL    HW2 8257   2.334   1.596   3.543 -0.9445 -0.7896 -2.0084
 2053SOL    HW3 8258   2.250   1.721   3.545  0.4546  0.1535  1.2710
 2053SOL    MW4 8259   2.263   1.638   3.568 -0.1433 -0.3908 -0.3042
 2054SOL     OW 8260   2.211   2.274   4.149  0.1281 -0.1975 -0.0970
 2054SOL    HW2 8261   2.209   2.194   4.202  0.0536 -0.6123 -0.7294
 2054SOL    HW3 8262   2.275   2.329   4.192  1.9075 -1.5168 -0.9973
 2054SOL    MW4 8263   2.219   2.270   4.162  0.3531 -0.4263 -0.2995
 2055SOL     OW 8264   2.673   1.925   3.395  0.1090  0.1284  0.1487
 2055SOL    HW2 8265   2.693   1.923   3.301  1.0526 -0.8157  0.3599
 2055SOL    HW3 8266   2.689   1.835   3.424 -0.6077  0.3121  1.1278
 2055SOL    MW4 8267   2.678   1.913   3.386  0.1390  0.0280  0.3059
 2056SOL     OW 8268   2.259   1.885   3.450  0.2205 -0.0161 -0.0597
 2056SOL    HW2 8269   2.257   1.891   3.354 -0.3182  0.4177 -0.0228
 2056SOL    HW3 8270   2.336   1.936   3.475  0.4414 -0.2436 -0.2720
 2056SOL    MW4 8271   2.269   1.893   3.440  0.1786  0.0112 -0.0830
 2057SOL     OW 8272   2.485   2.336   3.460  0.1982 -0.1717  0.0016
 2057SOL    HW2 8273   2.555   2.373   3.514  0.3372 -1.5877  0.8129
 2057SOL    HW3 8274   2.486   2.242   3.479  1.2762 -0.9854 -3.6642
 2057SOL    MW4 8275   2.494   2.329   3.470  0.3588 -0.4659 -0.3748
 2058SOL     OW 8276   1.507   2.070   3.767 -0.0730  0.1199  0.0323
 2058SOL    HW2 8277   1.544   2.077   3.679 -0.5500  0.7302 -0.1249
 2058SOL    HW3 8278   1.572   2.021   3.817  1.7013  2.5052  0.1643
 2058SOL    MW4 8279   1.521   2.064   3.762  0.0981  0.5152  0.0288
 2059SOL     OW 8280   2.217   2.427   3.490 -0.3330  0.5003  0.6847
 2059SOL    HW2 8281   2.304   2.386   3.495 -0.4537  0.0273 -0.8357
 2059SOL    HW3 8282   2.236   2.521   3.484  0.0304  0.4831  1.4947
 2059SOL    MW4 8283   2.231   2.434   3.490 -0.3009  0.4356  0.5913
 2060SOL     OW 8284   2.452   2.862   3.522  0.3087 -0.4273 -0.2492
 2060SOL    HW2 8285   2.527   2.804   3.507  0.6069 -0.2877  0.6697
 2060SOL    HW3 8286   2.376   2.809   3.502  0.5469 -1.3998  1.4050
 2060SOL    MW4 8287   2.452   2.848   3.517  0.3796 -0.5372  0.0904
 2061SOL     OW 8288   2.507   3.127   3.405  0.7983  0.0110 -0.1900
 2061SOL    HW2 8289   2.496   3.111   3.312 -2.0450 -0.1653  0.1352
 2061SOL    HW3 8290   2.504   3.041   3.445  1.0416  0.1656  0.1693
 2061SOL    MW4 8291   2.505   3.114   3.398  0.4554  0.0079 -0.0997
 2062SOL     OW 8292   1.882   2.825   3.747  0.8800 -0.2415  0.2736
 2062SOL    HW2 8293   1.791   2.799   3.761  0.9155 -0.3508  0.2990
 2062SOL    HW3 8294   1.897   2.896   3.810  0.4484  0.5975 -0.5618
 2062SOL    MW4 8295   1.872   2.831   3.757  0.8279 -0.1454  0.1667
 2063SOL     OW 8296   2.142   3.927   4.065  0.0333 -0.3857 -0.2754
 2063SOL    HW2 8297   2.166   3.902   4.154  0.6437  0.1533 -0.2787
 2063SOL    HW3 8298   2.128   3.844   4.020  1.3499 -0.7259 -0.1037
 2063SOL    MW4 8299   2.144   3.913   4.071  0.2875 -0.3595 -0.2532
 2064SOL     OW 8300   2.865   3.946   3.790  0.6175  0.1953 -0.4679
 2064SOL    HW2 8301   2.913   4.020   3.828  2.2182 -0.1769 -1.7354
 2064SOL    HW3 8302   2.927   3.874   3.791 -1.3537 -1.5535  1.9913
 2064SOL    MW4 8303   2.879   3.946   3.795  0.5686 -0.0844 -0.3107
 2065SOL     OW 8304   2.443   3.859   3.499 -0.4383 -0.0648  0.2372
 2065SOL    HW2 8305   2.389   3.921   3.548 -1.4197  0.2730 -1.2384
 2065SOL    HW3 8306   2.532   3.876   3.528 -0.8573  1.0175  0.9251
 2065SOL    MW4 8307   2.447   3.869   3.509 -0.6232  0.1225  0.1333
 2066SOL     OW 8308   2.362   2.957   4.011 -0.3782 -0.0164 -0.2862
 2066SOL    HW2 8309   2.323   2.870   4.014 -1.0479  0.2449 -1.1701
 2066SOL    HW3 8310   2.388   2.969   3.920  0.2091  0.4971 -0.0580
 2066SOL    MW4 8311   2.360   2.947   3.999 -0.3891  0.0858 -0.3734
 2067SOL     OW 8312   2.201   3.487   3.375 -0.0338 -0.1006  0.1040
 2067SOL    HW2 8313   2.215   3.401   3.414 -1.1751 -0.2041  0.3071
 2067SOL    HW3 8314   2.210   3.472   3.281  0.7862 -0.2340  0.1975
 2067SOL    MW4 8315   2.204   3.474   3.367 -0.0763 -0.1318  0.1431
 2068SOL     OW 8316   1.963   0.258   4.463  0.5358 -0.0666  0.2059
 2068SOL    HW2 8317   2.044   0.308   4.457  0.1322  0.4331 -1.6696
 2068SOL    HW3 8318   1.894   0.324   4.455 -0.0178 -0.7089 -0.4019
 2068SOL    MW4 8319   1.964   0.273   4.461  0.4095 -0.0854 -0.1216
 2069SOL     OW 8320   2.739   4.206   3.495  0.3934  0.6294  0.4738
 2069SOL    HW2 8321   2.671   4.227   3.559 -0.1723  0.9321 -0.2123
 2069SOL    HW3 8322   2.821   4.209   3.544 -0.1410 -0.3869  1.4582
 2069SOL    MW4 8323   2.741   4.209   3.510  0.2482  0.5355  0.5128
 2070SOL     OW 8324   4.106   0.411   4.216  0.0264  0.2524 -0.2203
 2070SOL    HW2 8325   4.093   0.492   4.265  0.8168 -0.3940  1.0997
 2070SOL    HW3 8326   4.198   0.414   4.190 -0.0143 -0.1006 -0.4054
 2070SOL    MW4 8327   4.116   0.422   4.219  0.1259  0.1206 -0.0706
 2071SOL     OW 8328   2.630   0.362   3.446  0.0780  0.4140 -0.8916
 2071SOL    HW2 8329   2.714   0.402   3.466  0.3436 -0.0251 -1.1162
 2071SOL    HW3 8330   2.620   0.373   3.351 -0.4131  1.0289 -0.7741
 2071SOL    MW4 8331   2.639   0.369   3.436  0.0482  0.4372 -0.9058
 2072SOL     OW 8332   2.876   0.457   3.520  0.2918  0.7759  0.0854
 2072SOL    HW2 8333   2.855   0.481   3.610 -1.2654  0.1528 -0.0870
 2072SOL    HW3 8334   2.886   0.541   3.474  0.9447  1.0900  0.8044
 2072SOL    MW4 8335   2.875   0.471   3.526  0.1724  0.7351  0.1576
 2073SOL     OW 8336   2.864   0.706   3.415  0.1244 -0.2353  0.1446
 2073SOL    HW2 8337   2.952   0.744   3.422 -0.2200  0.9632 -1.7943
 2073SOL    HW3 8338   2.810   0.757   3.474  0.3495  0.2043 -0.0307
 2073SOL    MW4 8339   2.869   0.717   3.424  0.1090 -0.0193 -0.1342
 2074SOL     OW 8340   2.665   0.880   3.534 -0.1123  0.1273 -0.5385
 2074SOL    HW2 8341   2.578   0.847   3.514 -1.2472  1.7341  1.5826
 2074SOL    HW3 8342   2.668   0.968   3.496  0.5519  0.1187 -0.5201
 2074SOL    MW4 8343   2.654   0.887   3.526 -0.1743  0.3381 -0.2561
 2075SOL     OW 8344   2.680   1.156   3.416  0.4568 -0.0967 -0.1608
 2075SOL    HW2 8345   2.762   1.191   3.451 -0.1957 -0.2232  1.5391
 2075SOL    HW3 8346   2.695   1.148   3.322  3.4596 -3.0504  0.5114
 2075SOL    MW4 8347   2.693   1.160   3.408  0.7668 -0.5031  0.1523
 2076SOL     OW 8348   2.930   1.264   3.496  0.3989  0.5718 -0.2614
 2076SOL    HW2 8349   2.968   1.280   3.582  0.1118  0.4089 -0.1024
 2076SOL    HW3 8350   2.997   1.215   3.448 -0.1243 -0.9095  0.4708
 2076SOL    MW4 8351   2.943   1.259   3.501  0.2918  0.3549 -0.1438
 2077SOL     OW 8352   2.973   1.524   3.427  0.5600 -0.3211  0.2237
 2077SOL    HW2 8353   2.897   1.573   3.458  1.2499  1.0794 -0.2678
 2077SOL    HW3 8354   2.947   1.432   3.434 -0.9499  0.1314  0.6315
 2077SOL    MW4 8355   2.960   1.518   3.432  0.4516 -0.0765  0.2127
 2078SOL     OW 8356   2.499   1.501   3.448  0.0010  0.5120 -0.1251
 2078SOL    HW2 8357   2.504   1.514   3.354  1.4612  1.2761  0.0459
 2078SOL    HW3 8358   2.496   1.406   3.459  0.3336  0.4062 -0.9193
 2078SOL    MW4 8359   2.499   1.490   3.437  0.2377  0.5989 -0.2072
 2079SOL     OW 8360   2.475   2.070   3.498 -0.4668  0.8460 -0.0147
 2079SOL    HW2 8361   2.480   2.068   3.594 -1.7249 -0.2921  0.0388
 2079SOL    HW3 8362   2.546   2.012   3.470 -0.3837  0.8286  0.2261
 2079SOL    MW4 8363   2.485   2.062   3.507 -0.6218  0.6933  0.0243
 2080SOL     OW 8364   2.906   2.010   3.527 -0.6315 -0.4357  0.0665
 2080SOL    HW2 8365   2.873   2.009   3.617  0.2024  1.5015  0.4349
 2080SOL    HW3 8366   2.836   1.973   3.475 -1.9369  0.2726  1.2818
 2080SOL    MW4 8367   2.893   2.005   3.532 -0.6940 -0.0868  0.2756
 2081SOL     OW 8368   2.902   2.290   3.439  0.1290 -0.2799 -0.3095
 2081SOL    HW2 8369   2.888   2.196   3.450 -0.4396 -0.2023 -0.3914
 2081SOL    HW3 8370   2.914   2.302   3.344  0.4345 -0.3004 -0.2751
 2081SOL    MW4 8371   2.902   2.279   3.428  0.0942 -0.2723 -0.3159
 2082SOL     OW 8372   3.992   1.301   3.922 -0.6981  0.2077 -0.2290
 2082SOL    HW2 8373   4.011   1.273   4.011  0.1130 -0.0099 -0.4680
 2082SOL    HW3 8374   4.074   1.286   3.874 -0.7624  1.4307 -0.7344
 2082SOL    MW4 8375   4.005   1.295   3.927 -0.5994  0.3402 -0.3273
 2083SOL     OW 8376   3.123   2.587   3.404  0.2634  0.2357 -0.4186
 2083SOL    HW2 8377   3.198   2.644   3.419  0.7683 -0.0177 -1.8723
 2083SOL    HW3 8378   3.153   2.500   3.432  0.1851  0.3060 -0.1133
 2083SOL    MW4 8379   3.136   2.583   3.410  0.3197  0.2115 -0.5703
 2084SOL     OW 8380   3.702   2.808   4.349  0.5239 -0.3993 -0.0809
 2084SOL    HW2 8381   3.746   2.870   4.290  1.3112 -0.7974  0.0709
 2084SOL    HW3 8382   3.740   2.826   4.435 -2.0936  1.5460  0.7090
 2084SOL    MW4 8383   3.713   2.819   4.352  0.2825 -0.1953  0.0439
 2085SOL     OW 8384   2.863   2.979   3.651  0.4504  0.2016 -0.2253
 2085SOL    HW2 8385   2.933   2.985   3.715  0.1142 -0.3730  0.2019
 2085SOL    HW3 8386   2.879   2.897   3.604 -0.4002 -0.3514  0.4342
 2085SOL    MW4 8387   2.874   2.969   3.653  0.2937  0.0529 -0.0820
 2086SOL     OW 8388   2.602   0.089   4.661 -0.4164  1.0336 -0.0775
 2086SOL    HW2 8389   2.538   0.160   4.653 -2.5024 -0.8317 -0.5071
 2086SOL    HW3 8390   2.617   0.060   4.571 -1.0985 -0.3648  0.2507
 2086SOL    MW4 8391   2.595   0.095   4.648 -0.7815  0.6030 -0.0916
 2087SOL     OW 8392   2.725   3.277   3.474 -0.4437 -0.7362  0.1847
 2087SOL    HW2 8393   2.664   3.209   3.441 -0.3025 -0.4079 -0.7822
 2087SOL    HW3 8394   2.811   3.245   3.449 -0.3294 -0.5163  0.3032
 2087SOL    MW4 8395   2.728   3.263   3.466 -0.4103 -0.6638  0.0730
 2088SOL     OW 8396   2.413   3.022   3.737 -0.1356  0.5917  0.2992
 2088SOL    HW2 8397   2.496   3.061   3.710  0.1613  0.7515  1.4392
 2088SOL    HW3 8398   2.390   2.963   3.665  0.6225  1.0539 -0.3241
 2088SOL    MW4 8399   2.421   3.019   3.724  0.0036  0.6738  0.3674
 2089SOL     OW 8400   3.119   3.927   3.507 -0.1142  0.3531  0.2708
 2089SOL    HW2 8401   3.088   4.013   3.536 -0.9169 -0.3638  1.5985
 2089SOL    HW3 8402   3.039   3.879   3.485  0.2223 -0.6300  1.1680
 2089SOL    MW4 8403   3.104   3.932   3.508 -0.1757  0.1290  0.5646
 2090SOL     OW 8404   2.287   4.056   3.620  0.0526  0.1755  0.0925
 2090SOL    HW2 8405   2.267   4.138   3.576  2.5119  0.4582 -0.5755
 2090SOL    HW3 8406   2.335   4.082   3.699 -1.5876 -0.4974  1.3412
 2090SOL    MW4 8407   2.290   4.070   3.625  0.1607  0.1240  0.1690
 2091SOL     OW 8408   2.580   4.285   3.703  0.6510  0.0564 -0.0982
 2091SOL    HW2 8409   2.525   4.225   3.754  1.5054  0.2903  1.1329
 2091SOL    HW3 8410   2.519   4.351   3.670 -0.0596 -0.6131 -0.1408
 2091SOL    MW4 8411   2.565   4.286   3.705  0.6700 -0.0010  0.0587
 2092SOL     OW 8412   2.767   0.432   3.771  0.3079 -0.1256  0.0493
 2092SOL    HW2 8413   2.829   0.463   3.837 -0.0528  0.9413 -0.0998
 2092SOL    HW3 8414   2.776   0.337   3.771  2.7057  0.0665 -0.7052
 2092SOL    MW4 8415   2.777   0.423   3.779  0.5770  0.0405 -0.0699
 2093SOL     OW 8416   3.377   4.622   3.451 -0.0038  0.0345  0.2466
 2093SOL    HW2 8417   3.294   4.663   3.478  0.9075  2.0295  0.1159
 2093SOL    HW3 8418   3.369   4.612   3.356  0.6657  2.0846 -0.0548
 2093SOL    MW4 8419   3.365   4.626   3.442  0.2050  0.5679  0.1898
 2094SOL     OW 8420   3.119   0.066   3.554 -0.4697  0.2157 -0.3832
 2094SOL    HW2 8421   3.169   0.090   3.632  0.5253  0.3128 -1.0410
 2094SOL    HW3 8422   3.118   0.145   3.501  0.7828 -0.4791 -1.4808
 2094SOL    MW4 8423   3.126   0.080   3.557 -0.1731  0.1368 -0.6151
 2095SOL     OW 8424   3.120   0.324   3.433 -0.1551  0.3384 -0.2169
 2095SOL    HW2 8425   3.042   0.372   3.462 -0.9134 -1.4365  0.8057
 2095SOL    HW3 8426   3.118   0.330   3.337 -2.7017 -1.4080 -0.3081
 2095SOL    MW4 8427   3.109   0.331   3.424 -0.5910 -0.1262 -0.0939
 2096SOL     OW 8428   3.350   0.482   3.556 -0.0091 -1.0150 -0.1185
 2096SOL    HW2 8429   3.335   0.480   3.650 -1.8833  0.9856 -0.3387
 2096SOL    HW3 8430   3.285   0.421   3.520 -1.0188  0.1527 -0.2993
 2096SOL    MW4 8431   3.340   0.473   3.563 -0.3898 -0.5970 -0.1714
 2097SOL     OW 8432   3.580   0.351   3.444 -0.3335 -0.0033 -0.1773
 2097SOL    HW2 8433   3.504   0.389   3.488 -0.0698  0.7900 -0.4125
 2097SOL    HW3 8434   3.655   0.379   3.497 -0.2788 -1.7166  0.7163
 2097SOL    MW4 8435   3.580   0.360   3.457 -0.2918 -0.1247 -0.0904
 2098SOL     OW 8436   3.107   0.842   3.459 -0.1140  0.2675  0.1225
 2098SOL    HW2 8437   3.121   0.934   3.436  1.9301 -0.4427 -1.6596
 2098SOL    HW3 8438   3.192   0.801   3.443 -1.3431 -2.1720 -0.2916
 2098SOL    MW4 8439   3.120   0.849   3.454 -0.0064 -0.1481 -0.1674
 2099SOL     OW 8440   3.159   1.099   3.382 -0.4293 -0.2830 -0.1632
 2099SOL    HW2 8441   3.172   1.137   3.295  1.0935 -0.3990  0.0006
 2099SOL    HW3 8442   3.228   1.138   3.436 -1.2628 -0.3313  0.9543
 2099SOL    MW4 8443   3.170   1.109   3.378 -0.3383 -0.3047  0.0060
 2100SOL     OW 8444   3.361   1.218   3.535 -0.0543  0.4945 -0.1361
 2100SOL    HW2 8445   3.349   1.313   3.527 -0.0182  0.5975  0.9489
 2100SOL    HW3 8446   3.448   1.201   3.500 -1.1075  0.5000 -2.8421
 2100SOL    MW4 8447   3.371   1.229   3.530 -0.1886  0.5088 -0.3498
 2101SOL     OW 8448   3.409   1.502   3.456  0.0215  0.8122 -0.0570
 2101SOL    HW2 8449   3.479   1.550   3.500 -0.9580  1.5459  0.7240
 2101SOL    HW3 8450   3.329   1.549   3.479 -0.8667 -0.6995  0.0287
 2101SOL    MW4 8451   3.408   1.515   3.464 -0.2251  0.7095  0.0572
 2102SOL     OW 8452   3.185   1.638   3.582 -0.3451 -0.5214  0.1657
 2102SOL    HW2 8453   3.178   1.732   3.565 -0.8779 -0.4738  0.6123
 2102SOL    HW3 8454   3.112   1.600   3.534 -0.2361 -0.6908  0.1347
 2102SOL    MW4 8455   3.175   1.645   3.573 -0.4010 -0.5374  0.2205
 2103SOL     OW 8456   3.397   2.012   3.573 -0.0266  0.4561  0.2294
 2103SOL    HW2 8457   3.388   2.091   3.519 -0.0954 -0.2308 -0.7830
 2103SOL    HW3 8458   3.322   1.957   3.548  0.9417 -0.6410 -0.2963
 2103SOL    MW4 8459   3.386   2.015   3.562  0.0920  0.2205  0.0265
 2104SOL     OW 8460   3.606   1.883   3.404  0.6297 -0.4216 -1.0703
 2104SOL    HW2 8461   3.524   1.897   3.451  0.3932 -1.7558 -1.0487
 2104SOL    HW3 8462   3.663   1.954   3.433  0.4913 -1.2143  1.2503
 2104SOL    MW4 8463   3.603   1.894   3.414  0.5803 -0.7023 -0.7615
 2105SOL     OW 8464   3.375   2.228   3.413 -0.2632 -0.0119  0.1301
 2105SOL    HW2 8465   3.437   2.278   3.466 -0.3164 -0.5290  0.6912
 2105SOL    HW3 8466   3.290   2.245   3.454 -0.1927 -1.1133  0.7611
 2105SOL    MW4 8467   3.372   2.236   3.425 -0.2608 -0.2255  0.2873
 2106SOL     OW 8468   3.153   2.322   3.531 -0.0077  0.1124  0.3449
 2106SOL    HW2 8469   3.155   2.325   3.626  0.1272  0.3261  0.3375
 2106SOL    HW3 8470   3.060   2.314   3.508  0.1046 -1.8223  0.5345
 2106SOL    MW4 8471   3.141   2.322   3.540  0.0250 -0.1144  0.3688
 2107SOL     OW 8472   2.655   2.693   3.451  0.4969 -0.5695 -0.6488
 2107SOL    HW2 8473   2.644   2.605   3.487 -0.8314  0.2838  1.1289
 2107SOL    HW3 8474   2.745   2.717   3.473  0.3862 -0.9049  0.2120
 2107SOL    MW4 8475   2.665   2.685   3.459  0.3073 -0.5014 -0.3004
 2108SOL     OW 8476   1.151   1.180   4.506  0.1745  0.3385 -0.0767
 2108SOL    HW2 8477   1.210   1.135   4.565  0.0214  1.1342  0.6853
 2108SOL    HW3 8478   1.189   1.267   4.494 -0.0085  0.3246 -0.8222
 2108SOL    MW4 8479   1.164   1.185   4.512  0.1302  0.4416 -0.0749
 2109SOL     OW 8480   3.719   3.034   3.370 -0.3327  0.5935 -0.5062
 2109SOL    HW2 8481   3.777   3.062   3.299 -0.1481  0.3093 -0.4675
 2109SOL    HW3 8482   3.685   3.116   3.406  1.9596  0.8908  1.0630
 2109SOL    MW4 8483   3.722   3.049   3.365 -0.0060  0.5949 -0.2942
 2110SOL     OW 8484   3.379   3.168   3.620 -0.1877 -0.0983  0.3829
 2110SOL    HW2 8485   3.308   3.225   3.649 -1.1676 -0.4506 -1.2421
 2110SOL    HW3 8486   3.443   3.171   3.691 -1.3041  1.1336  1.3636
 2110SOL    MW4 8487   3.378   3.176   3.633 -0.4647  0.0176  0.2980
 2111SOL     OW 8488   2.893   3.744   3.412 -0.1603  0.5235 -0.1124
 2111SOL    HW2 8489   2.831   3.806   3.451  0.8470  0.7769  1.1396
 2111SOL    HW3 8490   2.854   3.658   3.427 -0.4095  0.7036  0.2992
 2111SOL    MW4 8491   2.880   3.741   3.419 -0.0603  0.5808  0.1073
 2112SOL     OW 8492   2.619   4.381   4.392  0.0582 -0.1578 -0.1880
 2112SOL    HW2 8493   2.607   4.476   4.394 -2.0418 -0.3869 -0.5679
 2112SOL    HW3 8494   2.653   4.359   4.479 -1.9594  0.6543  0.8325
 2112SOL    MW4 8495   2.622   4.390   4.404 -0.4852 -0.0801 -0.1035
 2113SOL     OW 8496   3.352   3.815   3.390  0.0246 -0.6444  0.0115
 2113SOL    HW2 8497   3.428   3.863   3.422  0.6638 -0.9706 -0.9903
 2113SOL    HW3 8498   3.277   3.867   3.419  0.6616  0.2462  0.0909
 2113SOL    MW4 8499   3.352   3.828   3.398  0.1931 -0.5701 -0.1099
 2114SOL     OW 8500   3.015   4.185   3.572  0.0176  0.3118  0.2072
 2114SOL    HW2 8501   3.025   4.246   3.645 -0.8211  0.9767 -0.2249
 2114SOL    HW3 8502   3.059   4.228   3.499  0.8015 -0.3254  0.2973
 2114SOL    MW4 8503   3.022   4.199   3.572  0.0100  0.3152  0.1621
 2115SOL     OW 8504   2.973   4.511   3.511 -0.0253 -0.1347 -0.3804
 2115SOL    HW2 8505   2.907   4.540   3.448  0.2685 -0.1690 -0.7041
 2115SOL    HW3 8506   3.015   4.592   3.541  0.4918 -0.1898 -0.9507
 2115SOL    MW4 8507   2.970   4.526   3.507  0.0820 -0.1469 -0.4985
 2116SOL     OW 8508   3.412   4.346   3.539  0.1683  0.3329 -0.5051
 2116SOL    HW2 8509   3.409   4.313   3.629  1.2182 -0.3932 -0.7299
 2116SOL    HW3 8510   3.427   4.440   3.548  1.2412  0.1099  0.0595
 2116SOL    MW4 8511   3.414   4.354   3.552  0.4485  0.2079 -0.4601
 2117SOL     OW 8512   3.853   4.614   3.492 -0.1566  0.3901 -0.1715
 2117SOL    HW2 8513   3.769   4.660   3.502  0.2259  1.0683 -0.0715
 2117SOL    HW3 8514   3.866   4.609   3.397 -0.3493  0.2035 -0.1897
 2117SOL    MW4 8515   3.843   4.619   3.481 -0.1318  0.4549 -0.1607
 2118SOL     OW 8516   3.959   0.436   4.534  0.2274  0.0531 -0.0330
 2118SOL    HW2 8517   3.891   0.398   4.590 -0.2479  1.9590  0.7395
 2118SOL    HW3 8518   4.041   0.410   4.576 -0.0602 -0.9324 -0.0704
 2118SOL    MW4 8519   3.961   0.427   4.547  0.1266  0.1745  0.0639
 2119SOL     OW 8520   3.607   0.078   3.508  0.0455 -0.0498 -0.1440
 2119SOL    HW2 8521   3.521   0.046   3.478  0.0681 -0.3552  0.1192
 2119SOL    HW3 8522   3.606   0.171   3.487  0.4535 -0.4495 -2.0499
 2119SOL    MW4 8523   3.595   0.086   3.501  0.1023 -0.1428 -0.3610
 2120SOL     OW 8524   3.798   0.438   3.558 -0.1603  0.4171 -0.3177
 2120SOL    HW2 8525   3.807   0.393   3.642 -0.7109  0.9427  0.0227
 2120SOL    HW3 8526   3.877   0.413   3.509 -1.6379 -3.0347 -1.1537
 2120SOL    MW4 8527   3.810   0.428   3.562 -0.4277  0.0310 -0.3831
 2121SOL     OW 8528   3.780   0.691   3.422 -0.6439 -0.1508  0.2061
 2121SOL    HW2 8529   3.864   0.726   3.451 -0.2519 -1.0738  0.2122
 2121SOL    HW3 8530   3.766   0.613   3.477 -0.1105 -1.6551 -1.7144
 2121SOL    MW4 8531   3.790   0.685   3.433 -0.5219 -0.4710 -0.0465
 2122SOL     OW 8532   3.765   4.549   4.332  0.4741 -0.5027  0.3940
 2122SOL    HW2 8533   3.858   4.558   4.309  0.4596  0.0324  0.5261
 2122SOL    HW3 8534   3.723   4.516   4.253  0.6034  0.2728 -0.0084
 2122SOL    MW4 8535   3.772   4.546   4.319  0.4890 -0.3295  0.3581
 2123SOL     OW 8536   3.602   1.121   3.433  0.0458 -0.7170 -0.2317
 2123SOL    HW2 8537   3.601   1.028   3.459  1.0948 -0.6006  0.2330
 2123SOL    HW3 8538   3.629   1.119   3.341  1.3786 -0.8018  0.1437
 2123SOL    MW4 8539   3.606   1.108   3.424  0.3603 -0.7129 -0.1211
 2124SOL     OW 8540   3.589   0.866   3.531  0.1753 -0.1340 -0.4187
 2124SOL    HW2 8541   3.626   0.881   3.618  0.3646 -0.4858 -0.4385
 2124SOL    HW3 8542   3.650   0.805   3.489  0.1564  0.1386 -0.8446
 2124SOL    MW4 8543   3.602   0.860   3.537  0.1981 -0.1444 -0.4773
 2125SOL     OW 8544   3.842   1.496   3.395  0.2924 -0.8591 -0.3234
 2125SOL    HW2 8545   3.893   1.558   3.447 -0.3357  0.8572 -1.7029
 2125SOL    HW3 8546   3.859   1.410   3.435  2.4351 -0.0088  0.6127
 2125SOL    MW4 8547   3.851   1.492   3.407  0.4921 -0.5206 -0.3819
 2126SOL     OW 8548   3.628   1.625   3.514  0.0178  0.1282  0.0860
 2126SOL    HW2 8549   3.624   1.703   3.460 -1.0387  0.7798  1.0830
 2126SOL    HW3 8550   3.698   1.573   3.476 -1.3973  0.0832 -2.5193
 2126SOL    MW4 8551   3.637   1.628   3.502 -0.3085  0.2081 -0.1264
 2127SOL     OW 8552   3.816   2.053   3.497 -0.1606  0.1799  0.7069
 2127SOL    HW2 8553   3.903   2.029   3.465 -0.3654  0.5440 -0.1589
 2127SOL    HW3 8554   3.831   2.088   3.585  0.4066 -0.9514  1.0689
 2127SOL    MW4 8555   3.830   2.055   3.504 -0.1128  0.0787  0.6406
 2128SOL     OW 8556   2.411   2.429   4.243 -0.0515  0.2720  0.2274
 2128SOL    HW2 8557   2.439   2.385   4.323 -1.6721 -1.8021 -0.3005
 2128SOL    HW3 8558   2.464   2.389   4.174 -1.0024 -0.3353 -0.1607
 2128SOL    MW4 8559   2.422   2.418   4.244 -0.3908 -0.0818  0.1063
 2129SOL     OW 8560   3.793   2.261   3.331 -0.0612 -0.3629 -0.1930
 2129SOL    HW2 8561   3.865   2.311   3.368  0.1580 -1.4440  0.8607
 2129SOL    HW3 8562   3.787   2.182   3.386 -2.0423 -0.2810 -0.2445
 2129SOL    MW4 8563   3.801   2.257   3.343 -0.2937 -0.4950 -0.0608
 2130SOL     OW 8564   3.588   2.359   3.558 -0.4445  0.0248  0.3506
 2130SOL    HW2 8565   3.590   2.454   3.544  0.6497 -0.1498 -0.7720
 2130SOL    HW3 8566   3.647   2.324   3.491  0.6007 -1.3015  1.9333
 2130SOL    MW4 8567   3.596   2.367   3.547 -0.1621 -0.1733  0.4113
 2131SOL     OW 8568   3.572   2.623   3.450 -0.1848  0.3017  0.0374
 2131SOL    HW2 8569   3.643   2.679   3.482  0.3900 -1.1261  1.3216
 2131SOL    HW3 8570   3.573   2.634   3.355  0.3544  1.9294  0.2166
 2131SOL    MW4 8571   3.581   2.632   3.442 -0.0379  0.3283  0.2306
 2132SOL     OW 8572   3.469   1.972   4.053  0.1339  0.0871 -0.2672
 2132SOL    HW2 8573   3.456   1.930   3.968 -0.8670  0.2309 -0.1870
 2132SOL    HW3 8574   3.381   1.989   4.086  0.4972 -0.2412  0.9372
 2132SOL    MW4 8575   3.456   1.968   4.046  0.0498  0.0628 -0.0982
 2133SOL     OW 8576   3.999   2.665   3.423  0.1244 -0.1220  0.2727
 2133SOL    HW2 8577   3.916   2.711   3.432  0.2299  0.0175  0.5593
 2133SOL    HW3 8578   4.065   2.730   3.446  0.2607 -0.4946  0.9501
 2133SOL    MW4 8579   3.997   2.680   3.427  0.1564 -0.1531  0.4001
 2134SOL     OW 8580   4.113   3.148   3.667  0.1507 -0.2198  0.3452
 2134SOL    HW2 8581   4.168   3.149   3.589  0.0092  0.4453  0.2511
 2134SOL    HW3 8582   4.026   3.171   3.635  0.4376  1.8175  0.9525
 2134SOL    MW4 8583   4.109   3.151   3.653  0.1702  0.1369  0.4129
 2135SOL     OW 8584   3.582   3.527   3.434 -0.2011 -0.0805 -0.2716
 2135SOL    HW2 8585   3.491   3.545   3.456 -0.0806 -0.8062  0.8093
 2135SOL    HW3 8586   3.580   3.506   3.340 -1.2233 -0.6821 -0.1154
 2135SOL    MW4 8587   3.570   3.526   3.424 -0.3200 -0.2556 -0.1082
 2136SOL     OW 8588   3.825   3.619   3.541  0.4828  0.0776  0.2805
 2136SOL    HW2 8589   3.746   3.593   3.495  2.1197 -0.5215 -2.2405
 2136SOL    HW3 8590   3.794   3.651   3.626 -2.6183  1.6093 -1.3776
 2136SOL    MW4 8591   3.811   3.620   3.546  0.2897  0.2007 -0.2708
 2137SOL     OW 8592   3.824   3.856   3.398  0.6594  0.3284  0.0463
 2137SOL    HW2 8593   3.742   3.898   3.421 -0.0465 -0.1629 -1.5373
 2137SOL    HW3 8594   3.820   3.770   3.441 -0.4547 -0.4106 -1.5105
 2137SOL    MW4 8595   3.813   3.850   3.407  0.4191  0.1659 -0.3679
 2138SOL     OW 8596   3.573   3.986   3.447  0.1611  0.5489 -0.0434
 2138SOL    HW2 8597   3.610   3.969   3.534  2.4164 -0.3409 -1.1270
 2138SOL    HW3 8598   3.576   4.081   3.438  0.6170  0.5931  0.5526
 2138SOL    MW4 8599   3.578   3.996   3.458  0.5188  0.4377 -0.1078
 2139SOL     OW 8600   3.633   4.268   3.407 -0.6346  0.0741 -0.2860
 2139SOL    HW2 8601   3.552   4.300   3.447 -1.1581  0.7745 -1.8802
 2139SOL    HW3 8602   3.613   4.263   3.314  1.2024  0.3378 -0.7025
 2139SOL    MW4 8603   3.620   4.271   3.400 -0.4613  0.2012 -0.5512
 2140SOL     OW 8604   3.853   4.317   3.557  0.3239  0.1541 -0.2121
 2140SOL    HW2 8605   3.779   4.297   3.499  0.3344 -1.9655  0.4598
 2140SOL    HW3 8606   3.872   4.409   3.541 -0.2170 -0.1799 -2.9697
 2140SOL    MW4 8607   3.846   4.326   3.547  0.2542 -0.1693 -0.4873
 2141SOL     OW 8608   4.253   0.014   3.410  0.2469  0.5560  0.1347
 2141SOL    HW2 8609   4.237  -0.077   3.437 -0.3029 -0.0279 -2.0583
 2141SOL    HW3 8610   4.336   0.037   3.452  1.0600 -1.4166 -0.3167
 2141SOL    MW4 8611   4.262   0.005   3.419  0.2818  0.2189 -0.2141
 2142SOL     OW 8612   4.045   0.122   3.565 -0.1652 -0.1470 -0.4395
 2142SOL    HW2 8613   3.968   0.068   3.548  0.1484 -0.6503 -0.2734
 2142SOL    HW3 8614   4.116   0.076   3.520 -0.1768  0.9503 -1.6215
 2142SOL    MW4 8615   4.044   0.109   3.557 -0.1249 -0.0686 -0.5736
 2143SOL     OW 8616   4.013   0.364   3.425  0.2201  0.4459 -0.2329
 2143SOL    HW2 8617   4.013   0.355   3.330 -0.5830  1.3825 -0.3348
 2143SOL    HW3 8618   4.026   0.275   3.458  0.7885  0.1577 -1.2171
 2143SOL    MW4 8619   4.014   0.351   3.417  0.1893  0.5315 -0.3760
 2144SOL     OW 8620   4.245   0.482   3.545 -0.1341 -0.0674 -0.2178
 2144SOL    HW2 8621   4.249   0.561   3.491 -0.7811  0.5821  0.6671
 2144SOL    HW3 8622   4.156   0.449   3.533  0.2935 -0.9459 -0.9799
 2144SOL    MW4 8623   4.234   0.488   3.536 -0.1626 -0.0976 -0.2019
 2145SOL     OW 8624   4.472   0.893   3.487  0.2048 -0.3081  0.3744
 2145SOL    HW2 8625   4.504   0.885   3.577  0.1461  0.7568  0.4934
 2145SOL    HW3 8626   4.464   0.987   3.473  1.0784 -0.4354 -1.0442
 2145SOL    MW4 8627   4.476   0.904   3.497  0.3123 -0.1844  0.2029
 2146SOL     OW 8628   4.259   0.724   3.393  0.0322 -0.1515 -0.0455
 2146SOL    HW2 8629   4.262   0.706   3.299 -0.5408  0.6940 -0.2393
 2146SOL    HW3 8630   4.332   0.784   3.408 -0.4326  0.4361 -0.1216
 2146SOL    MW4 8631   4.269   0.730   3.382 -0.1040  0.0375 -0.0813
 2147SOL     OW 8632   4.016   0.824   3.487  0.6445  0.3362 -0.2790
 2147SOL    HW2 8633   4.025   0.919   3.483  1.0428  0.3244  0.2678
 2147SOL    HW3 8634   4.094   0.790   3.442  0.0736  0.2664 -1.2397
 2147SOL    MW4 8635   4.027   0.832   3.480  0.6213  0.3254 -0.3338
 2148SOL     OW 8636   4.482   1.169   3.407 -0.0503  0.0472 -0.4143
 2148SOL    HW2 8637   4.504   1.165   3.314 -0.9988  3.1810 -0.8310
 2148SOL    HW3 8638   4.557   1.212   3.447  0.3568 -1.2979  0.2943
 2148SOL    MW4 8639   4.495   1.174   3.400 -0.1217  0.2831 -0.3760
 2149SOL     OW 8640   4.064   1.088   3.444 -0.5419  0.2484  0.1446
 2149SOL    HW2 8641   4.127   1.159   3.455 -0.3247  0.1016 -0.1341
 2149SOL    HW3 8642   3.982   1.123   3.478 -0.0408  0.0179  1.6576
 2149SOL    MW4 8643   4.062   1.102   3.450 -0.4473  0.1986  0.3073
 2150SOL     OW 8644   4.042   1.660   3.479 -0.1759  0.0616  0.1982
 2150SOL    HW2 8645   4.075   1.673   3.568  0.5944  1.0335 -0.2267
 2150SOL    HW3 8646   4.024   1.748   3.446  0.0875 -0.2523 -0.8169
 2150SOL    MW4 8647   4.044   1.673   3.486 -0.0396  0.1483  0.0083
 2151SOL     OW 8648   4.038   1.934   3.400  0.6773  0.2172 -0.2150
 2151SOL    HW2 8649   4.121   1.970   3.430 -0.3242  2.0387  0.4495
 2151SOL    HW3 8650   4.038   1.949   3.305  0.9507  0.5700 -0.1602
 2151SOL    MW4 8651   4.049   1.941   3.392  0.5813  0.5040 -0.1202
 2152SOL     OW 8652   4.261   2.060   3.476  0.2401 -0.4802  0.0279
 2152SOL    HW2 8653   4.338   2.025   3.432 -0.1285 -1.5093  0.1968
 2152SOL    HW3 8654   4.261   2.154   3.453  1.3890 -0.5256 -0.1719
 2152SOL    MW4 8655   4.271   2.068   3.467  0.3428 -0.6220  0.0238
 2153SOL     OW 8656   4.255   2.308   3.343 -0.1665  0.1609  0.2694
 2153SOL    HW2 8657   4.174   2.355   3.364  0.0895  0.7554 -0.0618
 2153SOL    HW3 8658   4.256   2.304   3.247  0.2223  0.2008  0.2716
 2153SOL    MW4 8659   4.245   2.313   3.333 -0.0811  0.2449  0.2263
 2154SOL     OW 8660   4.002   2.394   3.445  0.1183  0.3812  0.0215
 2154SOL    HW2 8661   3.993   2.379   3.540 -1.0627  3.0093  0.3820
 2154SOL    HW3 8662   3.996   2.489   3.436 -1.7015  0.0368 -2.9007
 2154SOL    MW4 8663   4.000   2.404   3.457 -0.2780  0.6826 -0.3166
 2155SOL     OW 8664   4.263   2.786   3.509 -0.1242 -0.8331  0.1845
 2155SOL    HW2 8665   4.344   2.754   3.470  1.0106  2.4947 -0.3011
 2155SOL    HW3 8666   4.281   2.791   3.603  0.6198  0.8672 -0.0292
 2155SOL    MW4 8667   4.276   2.782   3.516  0.1235 -0.1698  0.0925
 2156SOL     OW 8668   0.021   2.702   3.385 -0.3530  0.4365  0.1398
 2156SOL    HW2 8669   0.086   2.755   3.432 -0.8376  1.0897  0.0876
 2156SOL    HW3 8670   0.041   2.612   3.409  0.5367  0.6379  0.1775
 2156SOL    MW4 8671   0.032   2.697   3.394 -0.2995  0.5491  0.1376
 2157SOL     OW 8672   4.282   3.067   3.427 -0.1628  0.1698 -0.1585
 2157SOL    HW2 8673   4.271   2.972   3.435  0.7627  0.0664 -0.0646
 2157SOL    HW3 8674   4.294   3.082   3.333  3.8183 -0.2903  0.1950
 2157SOL    MW4 8675   4.282   3.056   3.415  0.4845  0.0954 -0.0997
 2158SOL     OW 8676   3.869   3.246   3.592  0.1452  0.3093 -0.3045
 2158SOL    HW2 8677   3.875   3.293   3.675  1.0073 -0.5860  0.1549
 2158SOL    HW3 8678   3.775   3.241   3.574 -0.0892 -0.1865  1.0254
 2158SOL    MW4 8679   3.858   3.252   3.601  0.2279  0.1259 -0.0684
 2159SOL     OW 8680   4.040   3.434   3.440  0.0743 -0.2832 -0.2577
 2159SOL    HW2 8681   4.009   3.348   3.468  0.9105 -0.9329 -1.3062
 2159SOL    HW3 8682   3.970   3.494   3.467 -0.6734 -1.3322  0.1718
 2159SOL    MW4 8683   4.026   3.431   3.447  0.0863 -0.5071 -0.3390
 2160SOL     OW 8684   4.316   3.558   3.513  0.3072  0.2475 -0.2987
 2160SOL    HW2 8685   4.311   3.648   3.480  1.2527  0.1991 -0.6070
 2160SOL    HW3 8686   4.229   3.522   3.500  0.3578  0.6003 -1.6927
 2160SOL    MW4 8687   4.304   3.565   3.507  0.4387  0.2878 -0.5233
 2161SOL     OW 8688   4.288   3.806   3.383 -0.4460  0.0852 -0.0904
 2161SOL    HW2 8689   4.350   3.878   3.398 -0.3265 -0.0289 -0.0321
 2161SOL    HW3 8690   4.280   3.801   3.287  0.5534 -0.6707 -0.1469
 2161SOL    MW4 8691   4.295   3.815   3.372 -0.2990 -0.0296 -0.0901
 2162SOL     OW 8692   4.062   3.946   3.490 -0.2764 -0.2491 -0.4007
 2162SOL    HW2 8693   4.129   3.885   3.459 -0.8989 -1.2537  0.2107
 2162SOL    HW3 8694   3.979   3.902   3.471 -0.7119  0.0934  0.6794
 2162SOL    MW4 8695   4.060   3.932   3.484 -0.4163 -0.3366 -0.1779
 2163SOL     OW 8696   4.042   4.213   3.399 -0.2824  0.7925  0.0511
 2163SOL    HW2 8697   4.046   4.118   3.414 -1.1855  0.5651 -1.1183
 2163SOL    HW3 8698   3.971   4.243   3.456 -1.2402  0.4842 -0.9754
 2163SOL    MW4 8699   4.033   4.204   3.408 -0.5279  0.7224 -0.2387
 2164SOL     OW 8700   4.208   4.399   3.770 -0.1555  0.3255 -0.0833
 2164SOL    HW2 8701   4.299   4.421   3.791  1.0399 -1.7110 -2.8607
 2164SOL    HW3 8702   4.187   4.328   3.830 -0.0322  0.9748  0.7492
 2164SOL    MW4 8703   4.217   4.393   3.781  0.0181  0.1431 -0.3400
 2165SOL     OW 8704   3.237   3.741   3.691 -0.2679 -0.1280 -0.7560
 2165SOL    HW2 8705   3.209   3.810   3.631  0.7080  0.8527 -0.1212
 2165SOL    HW3 8706   3.156   3.707   3.729 -0.7648  0.6937 -1.0689
 2165SOL    MW4 8707   3.223   3.746   3.688 -0.2046  0.1101 -0.7136
 2166SOL     OW 8708   0.859   4.066   4.521 -0.0309 -0.3998  0.0868
 2166SOL    HW2 8709   0.813   4.139   4.563 -1.0323 -0.8715 -0.1845
 2166SOL    HW3 8710   0.805   3.989   4.540  0.2384 -0.8358 -0.8816
 2166SOL    MW4 8711   0.846   4.066   4.529 -0.1275 -0.5198 -0.0772
 2167SOL     OW 8712   1.263   4.292   4.593 -0.5308 -0.0451 -0.5673
 2167SOL    HW2 8713   1.211   4.232   4.539  0.0193 -0.2947 -0.8190
 2167SOL    HW3 8714   1.331   4.324   4.535 -0.3929  0.2784 -0.2304
 2167SOL    MW4 8715   1.265   4.289   4.578 -0.4401 -0.0358 -0.5560
 2168SOL     OW 8716   0.682   2.180   3.774 -0.1676  0.1945  0.1529
 2168SOL    HW2 8717   0.625   2.252   3.747 -1.4042 -0.5748  0.6670
 2168SOL    HW3 8718   0.636   2.139   3.847  1.4828  0.1124  1.1940
 2168SOL    MW4 8719   0.669   2.184   3.780 -0.1130  0.0820  0.3581
 2169SOL     OW 8720   0.318   0.068   3.953 -0.0421 -0.3307  0.1086
 2169SOL    HW2 8721   0.234   0.074   3.908 -0.6888  0.3048  1.3948
 2169SOL    HW3 8722   0.310   0.127   4.027  1.1883 -1.0027  0.7872
 2169SOL    MW4 8723   0.306   0.076   3.957  0.0349 -0.3355  0.3681
 2170SOL     OW 8724   0.961   0.846   4.478  0.3211 -0.0420  0.3130
 2170SOL    HW2 8725   0.917   0.920   4.520 -0.2354 -0.6656  0.8582
 2170SOL    HW3 8726   1.050   0.847   4.515  0.7714  1.2166 -0.7873
 2170SOL    MW4 8727   0.967   0.856   4.489  0.3070  0.0418  0.2403
 2171SOL     OW 8728   3.666   1.326   4.617 -0.2957  0.1649 -0.1409
 2171SOL    HW2 8729   3.651   1.346   4.525  1.1749  0.2234 -0.3808
 2171SOL    HW3 8730   3.636   1.236   4.628 -0.4583  0.1563 -0.6797
 2171SOL    MW4 8731   3.660   1.317   4.606 -0.1230  0.1715 -0.2437
 2172SOL     OW 8732   1.357   1.203   3.827 -0.4127  0.5661 -0.0999
 2172SOL    HW2 8733   1.263   1.201   3.810 -0.5601 -0.3525  0.7675
 2172SOL    HW3 8734   1.367   1.164   3.914  0.8467 -0.1152 -0.5298
 2172SOL    MW4 8735   1.346   1.198   3.836 -0.2660  0.3550 -0.0422
 2173SOL     OW 8736   2.344   1.157   4.369 -0.3573 -0.6444  0.0758
 2173SOL    HW2 8737   2.273   1.161   4.304 -1.4894  0.0444  1.3092
 2173SOL    HW3 8738   2.367   1.249   4.383 -0.1333 -0.7925  0.6518
 2173SOL    MW4 8739   2.337   1.170   4.362 -0.4771 -0.5732  0.3142
 2174SOL     OW 8740   4.275   1.545   3.366  0.0395  0.2799  0.2885
 2174SOL    HW2 8741   4.194   1.593   3.384  0.1951  0.8596 -0.5292
 2174SOL    HW3 8742   4.283   1.545   3.270  1.3793  0.8643  0.3873
 2174SOL    MW4 8743   4.265   1.551   3.356  0.2365  0.4334  0.1938
 2175SOL     OW 8744   2.842   1.936   4.360 -0.5014 -0.2539 -0.1290
 2175SOL    HW2 8745   2.764   1.958   4.413 -0.9292  0.6702 -1.1215
 2175SOL    HW3 8746   2.807   1.920   4.273  0.3495 -0.5789 -0.4055
 2175SOL    MW4 8747   2.827   1.937   4.356 -0.4458 -0.1749 -0.2966
 2176SOL     OW 8748   2.076   1.274   3.836 -0.1151 -0.2134  0.4811
 2176SOL    HW2 8749   2.071   1.259   3.741 -1.5482 -2.1249  0.8282
 2176SOL    HW3 8750   2.136   1.206   3.867 -0.1049  0.0383  1.0117
 2176SOL    MW4 8751   2.083   1.263   3.827 -0.3030 -0.4324  0.5968
 2177SOL     OW 8752   4.041   4.211   4.334  0.3897  0.0241  0.3870
 2177SOL    HW2 8753   4.010   4.263   4.260 -0.0047  0.6569  0.9969
 2177SOL    HW3 8754   4.047   4.272   4.407 -2.3815 -1.2217  1.7349
 2177SOL    MW4 8755   4.038   4.226   4.334 -0.0281 -0.0567  0.6452
 2178SOL     OW 8756   3.346   0.844   4.475  0.4105  0.2004 -0.0169
 2178SOL    HW2 8757   3.377   0.829   4.385 -0.5519 -0.0480 -0.3117
 2178SOL    HW3 8758   3.395   0.780   4.527  0.3756 -0.2200 -0.4860
 2178SOL    MW4 8759   3.357   0.833   4.470  0.2792  0.1122 -0.1183
 2179SOL     OW 8760   3.567   0.197   4.625 -0.0645 -0.4411 -0.5039
 2179SOL    HW2 8761   3.574   0.102   4.636  0.2603 -0.2248  1.3125
 2179SOL    HW3 8762   3.473   0.214   4.613 -0.0095 -1.0836 -1.9376
 2179SOL    MW4 8763   3.556   0.187   4.625 -0.0145 -0.4973 -0.4535
 2180SOL     OW 8764   3.922   2.414   4.516 -0.2691 -0.2271 -0.3004
 2180SOL    HW2 8765   3.851   2.365   4.474  0.4750 -0.2687 -1.5184
 2180SOL    HW3 8766   3.882   2.450   4.595 -1.0554 -2.0993  0.1869
 2180SOL    MW4 8767   3.907   2.412   4.521 -0.2747 -0.4795 -0.3972
 2181SOL     OW 8768   3.779   3.689   3.788  0.1208  0.1402  0.1058
 2181SOL    HW2 8769   3.727   3.626   3.838  0.4498 -0.4050 -0.2380
 2181SOL    HW3 8770   3.719   3.762   3.773 -0.7264 -0.7110 -0.7578
 2181SOL    MW4 8771   3.764   3.690   3.792  0.0525 -0.0439 -0.0534
 2182SOL     OW 8772   4.122   2.565   4.818  0.0395 -0.3208  0.5377
 2182SOL    HW2 8773   4.142   2.533   4.906  1.6786 -2.0172 -0.4209
 2182SOL    HW3 8774   4.156   2.498   4.760  2.4751  2.5834 -1.5209
 2182SOL    MW4 8775   4.129   2.552   4.822  0.5765 -0.1616  0.1397
 2183SOL     OW 8776   4.183   4.233   4.031 -0.1484  0.5957 -0.1573
 2183SOL    HW2 8777   4.087   4.238   4.033 -0.1801  0.2336 -0.6448
 2183SOL    HW3 8778   4.211   4.268   4.115 -0.7014  1.0074 -0.1435
 2183SOL    MW4 8779   4.174   4.238   4.042 -0.2255  0.6022 -0.2198
 2184SOL     OW 8780   0.360   4.038   4.510 -0.6726  0.0118 -0.0625
 2184SOL    HW2 8781   0.399   3.959   4.547 -1.9531 -0.3671  0.5098
 2184SOL    HW3 8782   0.358   4.022   4.416  0.9367  0.2221 -0.1402
 2184SOL    MW4 8783   0.365   4.025   4.503 -0.6292 -0.0105  0.0029
 2185SOL     OW 8784   3.885   3.456   4.085  0.4830 -0.2679 -0.1025
 2185SOL    HW2 8785   3.898   3.475   4.178  1.2185  1.6026 -0.5588
 2185SOL    HW3 8786   3.801   3.497   4.064  1.2443  1.0174 -0.6961
 2185SOL    MW4 8787   3.876   3.464   4.094  0.6807  0.1485 -0.2408
 2186SOL     OW 8788   0.407   4.544   4.292  0.2586  0.8519  0.7168
 2186SOL    HW2 8789   0.323   4.584   4.272  0.2757  1.1092  1.1377
 2186SOL    HW3 8790   0.472   4.610   4.266  0.3161  0.7911  0.7059
 2186SOL    MW4 8791   0.405   4.558   4.286  0.2685  0.8779  0.7710
 2187SOL     OW 8792   0.527   1.366   4.543  0.0892 -0.3894 -0.1244
 2187SOL    HW2 8793   0.568   1.312   4.611  0.2699 -0.2725 -0.1376
 2187SOL    HW3 8794   0.543   1.456   4.572  0.7243 -0.3313 -0.6458
 2187SOL    MW4 8795   0.535   1.371   4.556  0.1969 -0.3662 -0.1945
 2188SOL     OW 8796   0.267   1.307   4.442  0.6094  0.3706  0.1261
 2188SOL    HW2 8797   0.238   1.381   4.388 -0.2591  0.8508  1.2263
 2188SOL    HW3 8798   0.353   1.334   4.475 -0.6074  1.8456  2.2352
 2188SOL    MW4 8799   0.275   1.320   4.439  0.3342  0.6287  0.5503
 2189SOL     OW 8800   0.292   0.447   3.710 -0.3489  0.0085  0.3884
 2189SOL    HW2 8801   0.243   0.460   3.792 -2.0626  1.5495 -0.8414
 2189SOL    HW3 8802   0.338   0.363   3.723 -2.5200 -0.9998  1.9790
 2189SOL    MW4 8803   0.292   0.437   3.723 -0.8615  0.0788  0.4361
 2190SOL     OW 8804   3.320   1.860   4.415  0.1208 -0.2585  0.2621
 2190SOL    HW2 8805   3.234   1.828   4.442 -0.1357  0.5301  0.3842
 2190SOL    HW3 8806   3.309   1.882   4.323  0.2910 -0.4847  0.1859
 2190SOL    MW4 8807   3.307   1.858   4.406  0.1092 -0.1843  0.2675
 2191SOL     OW 8808   2.493   4.120   4.659  0.2381  0.1672  0.4391
 2191SOL    HW2 8809   2.442   4.043   4.685  1.4435 -1.0544 -0.7593
 2191SOL    HW3 8810   2.427   4.187   4.638 -0.8449 -0.9776  0.1544
 2191SOL    MW4 8811   2.477   4.119   4.660  0.2539 -0.1450  0.2427
 2192SOL     OW 8812   0.688   0.315   4.199 -0.1179 -0.4062 -0.0622
 2192SOL    HW2 8813   0.770   0.360   4.216 -0.6512  0.8191 -0.6960
 2192SOL    HW3 8814   0.683   0.309   4.104 -0.9442 -0.1401 -0.0410
 2192SOL    MW4 8815   0.698   0.320   4.189 -0.2974 -0.2094 -0.1431
 2193SOL     OW 8816   4.306   4.129   4.291 -0.3699 -0.3491 -0.2110
 2193SOL    HW2 8817   4.370   4.199   4.276  0.7592 -1.3913 -0.3183
 2193SOL    HW3 8818   4.223   4.175   4.306  0.8192  1.1275  2.1849
 2193SOL    MW4 8819   4.303   4.144   4.291 -0.0639 -0.2918  0.0911
 2194SOL     OW 8820   4.245   0.507   4.842  0.9584  0.4899  0.0267
 2194SOL    HW2 8821   4.218   0.571   4.908 -1.8656 -1.7842  1.1965
 2194SOL    HW3 8822   4.250   0.557   4.761  0.1490  2.4732  1.1650
 2194SOL    MW4 8823   4.242   0.522   4.840  0.4787  0.4516  0.3309
 2195SOL     OW 8824   4.000   1.612   4.222  0.4489 -0.3678 -0.8720
 2195SOL    HW2 8825   4.047   1.598   4.139 -0.6801  1.1587 -1.8031
 2195SOL    HW3 8826   4.055   1.675   4.270  1.0508 -1.1734 -0.4988
 2195SOL    MW4 8827   4.014   1.619   4.217  0.3791 -0.2726 -0.9460
 2196SOL     OW 8828   1.802   1.174   3.861  0.1105  0.0765 -0.5065
 2196SOL    HW2 8829   1.886   1.210   3.832  0.4419  0.0731  0.4397
 2196SOL    HW3 8830   1.796   1.199   3.953 -1.0408  0.2893 -0.6339
 2196SOL    MW4 8831   1.812   1.182   3.870  0.0023  0.1041 -0.3984
 2197SOL     OW 8832   0.020   3.488   4.124  0.3527 -0.3209 -0.0294
 2197SOL    HW2 8833  -0.056   3.539   4.151  0.8268  0.6813 -0.5495
 2197SOL    HW3 8834   0.057   3.537   4.050  0.0504 -2.1270 -1.4050
 2197SOL    MW4 8835   0.015   3.501   4.118  0.3754 -0.4268 -0.2799
 2198SOL     OW 8836   2.705   4.432   3.914  0.1376 -0.0720 -0.0222
 2198SOL    HW2 8837   2.658   4.362   3.869  0.9820 -0.5265 -0.2190
 2198SOL    HW3 8838   2.756   4.387   3.981  1.7830  0.1861 -1.0753
 2198SOL    MW4 8839   2.706   4.416   3.917  0.4661 -0.0987 -0.1872
 2199SOL     OW 8840   3.504   2.524   4.064  0.6051  0.5584  0.3696
 2199SOL    HW2 8841   3.460   2.604   4.036  1.3741  0.5122 -1.0044
 2199SOL    HW3 8842   3.485   2.460   3.995  0.9707 -0.1092  0.8753
 2199SOL    MW4 8843   3.496   2.526   4.051  0.7548  0.4640  0.2546
 2200SOL     OW 8844   0.842   4.541   4.269  0.1225 -0.1054  0.2586
 2200SOL    HW2 8845   0.925   4.552   4.316 -0.5553  0.7849  1.2946
 2200SOL    HW3 8846   0.860   4.475   4.203  1.6773  0.1144  0.4354
 2200SOL    MW4 8847   0.856   4.534   4.266  0.2382  0.0415  0.4187
 2201SOL     OW 8848   0.642   2.684   4.413 -0.0703  0.1745 -0.7055
 2201SOL    HW2 8849   0.730   2.646   4.419 -0.1950  0.0564  0.6387
 2201SOL    HW3 8850   0.651   2.755   4.349  1.3697  1.1305  0.5105
 2201SOL    MW4 8851   0.655   2.688   4.405  0.1032  0.2849 -0.3681
 2202SOL     OW 8852   0.047   0.508   4.709 -0.3135  0.0388 -0.4499
 2202SOL    HW2 8853  -0.018   0.537   4.772 -0.9534 -1.4401 -0.4213
 2202SOL    HW3 8854   0.074   0.589   4.664 -1.3765  0.8067  0.2656
 2202SOL    MW4 8855   0.042   0.523   4.711 -0.5381 -0.0550 -0.3519
 2203SOL     OW 8856   1.208   4.160   3.909 -0.4289  0.1613  0.1016
 2203SOL    HW2 8857   1.261   4.195   3.981 -0.3583  1.5470 -0.6312
 2203SOL    HW3 8858   1.184   4.236   3.856 -0.2134 -0.8873 -1.5376
 2203SOL    MW4 8859   1.212   4.174   3.912 -0.3910  0.2060 -0.2112
 2204SOL     OW 8860   0.354   3.516   4.653 -0.1747 -0.6695  0.2712
 2204SOL    HW2 8861   0.261   3.533   4.635  0.2125  3.6968  1.6565
 2204SOL    HW3 8862   0.354   3.471   4.737 -1.0518 -0.4585  0.3890
 2204SOL    MW4 8863   0.342   3.512   4.662 -0.2393 -0.0658  0.4697
 2205SOL     OW 8864   0.571   3.389   4.534  0.3464  0.4705  0.2635
 2205SOL    HW2 8865   0.516   3.461   4.563  0.3150  1.0062 -1.0746
 2205SOL    HW3 8866   0.515   3.311   4.541  0.2784  0.6092  1.3977
 2205SOL    MW4 8867   0.556   3.388   4.539  0.3332  0.5591  0.2370
 2206SOL     OW 8868   0.734   4.312   4.553  0.0579  0.0004 -0.1166
 2206SOL    HW2 8869   0.764   4.396   4.587 -1.2220  0.3274  0.2374
 2206SOL    HW3 8870   0.639   4.323   4.541  0.0977 -0.9482 -1.3623
 2206SOL    MW4 8871   0.725   4.325   4.556 -0.1057 -0.0815 -0.2341
 2207SOL     OW 8872   0.050   1.223   4.610  0.3565  0.0156 -0.0749
 2207SOL    HW2 8873   0.009   1.308   4.628  1.1678  0.4371 -0.2220
 2207SOL    HW3 8874   0.124   1.243   4.553  0.2326 -0.8550 -0.5542
 2207SOL    MW4 8875   0.054   1.237   4.605  0.4472 -0.0437 -0.1583
 2208SOL     OW 8876   4.109   1.539   3.980 -0.7504  0.7174 -0.2412
 2208SOL    HW2 8877   4.194   1.517   4.017 -0.6050  1.9845  0.1904
 2208SOL    HW3 8878   4.073   1.455   3.952  0.6892  0.1833 -0.5377
 2208SOL    MW4 8879   4.115   1.525   3.981 -0.5412  0.8142 -0.2234
 2209SOL     OW 8880   0.530   3.711   3.891 -0.8139  0.0970 -0.2689
 2209SOL    HW2 8881   0.605   3.671   3.847  0.4203 -0.5359  2.2969
 2209SOL    HW3 8882   0.454   3.668   3.853  0.3473 -2.2804 -0.0005
 2209SOL    MW4 8883   0.530   3.700   3.880 -0.4978 -0.2999  0.1049
 2210SOL     OW 8884   0.932   0.975   3.832  0.2285 -0.4645  0.0770
 2210SOL    HW2 8885   0.894   0.959   3.746 -0.5287 -0.8247  0.4755
 2210SOL    HW3 8886   0.861   1.012   3.884  1.1470  1.4139  0.0476
 2210SOL    MW4 8887   0.918   0.978   3.827  0.2497 -0.2642  0.1259
 2211SOL     OW 8888   2.233   2.868   4.415  0.1927 -0.4989 -0.2302
 2211SOL    HW2 8889   2.293   2.798   4.390  0.0313 -0.9463  0.6269
 2211SOL    HW3 8890   2.214   2.914   4.333 -0.3938 -1.9928 -0.9388
 2211SOL    MW4 8891   2.239   2.865   4.401  0.0939 -0.7548 -0.2108
 2212SOL     OW 8892   1.770   0.199   3.831 -0.1293 -0.3611 -0.3192
 2212SOL    HW2 8893   1.841   0.150   3.872 -1.5754 -2.3442 -0.1058
 2212SOL    HW3 8894   1.766   0.166   3.741 -0.7147 -0.1890 -0.3614
 2212SOL    MW4 8895   1.779   0.188   3.824 -0.3973 -0.6001 -0.2968
 2213SOL     OW 8896   0.432   0.112   3.483 -0.3166  0.3745  0.1160
 2213SOL    HW2 8897   0.517   0.083   3.450 -0.3991  0.8280 -0.5210
 2213SOL    HW3 8898   0.449   0.139   3.573 -0.3671 -2.1763  0.9257
 2213SOL    MW4 8899   0.445   0.112   3.490 -0.3341  0.0978  0.1388
 2214SOL     OW 8900   0.914   1.402   3.871  0.2486  0.6096 -0.1259
 2214SOL    HW2 8901   0.827   1.373   3.843 -0.1467  0.6989  0.9800
 2214SOL    HW3 8902   0.917   1.495   3.849 -1.5452  1.6419  3.5741
 2214SOL    MW4 8903   0.903   1.410   3.865 -0.0402  0.7575  0.5083
 2215SOL     OW 8904   4.468   4.557   4.443 -0.2199  0.3021  0.7348
 2215SOL    HW2 8905   4.540   4.597   4.491  0.6282  1.1302 -1.1904
 2215SOL    HW3 8906   4.405   4.531   4.511  1.0171  1.3028  2.2827
 2215SOL    MW4 8907   4.469   4.559   4.459  0.0553  0.5431  0.6857
 2216SOL     OW 8908   4.223   3.867   4.287  0.2086  0.1478  0.3096
 2216SOL    HW2 8909   4.260   3.953   4.267  1.1510  0.0494  1.6013
 2216SOL    HW3 8910   4.147   3.886   4.342 -0.6967  0.2505 -0.9532
 2216SOL    MW4 8911   4.218   3.881   4.291  0.2141  0.1485  0.3128
 2217SOL     OW 8912   0.169   0.041   4.553  0.0875  0.1281 -0.3691
 2217SOL    HW2 8913   0.161   0.100   4.628  1.7335  1.6814 -1.3634
 2217SOL    HW3 8914   0.239  -0.019   4.577 -0.0299  0.0211 -0.2913
 2217SOL    MW4 8915   0.177   0.041   4.566  0.2891  0.3189 -0.4897
 2218SOL     OW 8916   0.043   1.656   3.730 -0.0749 -0.2468 -0.2673
 2218SOL    HW2 8917   0.041   1.666   3.635 -1.9361 -3.5011 -0.6602
 2218SOL    HW3 8918  -0.027   1.714   3.761 -1.0205 -0.8920 -1.1261
 2218SOL    MW4 8919   0.033   1.665   3.722 -0.4449 -0.7613 -0.4325
 2219SOL     OW 8920   1.266   1.951   3.772  0.3054 -0.1013 -0.1823
 2219SOL    HW2 8921   1.204   2.002   3.720  0.7530  0.1229 -0.5048
 2219SOL    HW3 8922   1.349   1.997   3.761  0.8266 -1.1718 -0.8841
 2219SOL    MW4 8923   1.269   1.964   3.763  0.4331 -0.2130 -0.3178
 2220SOL     OW 8924   0.826   3.542   4.532  0.0654  0.0522  0.3278
 2220SOL    HW2 8925   0.860   3.529   4.444  0.6270  1.4672  0.3164
 2220SOL    HW3 8926   0.763   3.471   4.545 -0.5426  0.2371 -1.4830
 2220SOL    MW4 8927   0.822   3.531   4.522  0.0592  0.2635  0.0877
 2221SOL     OW 8928   2.792   0.117   4.205  0.4573 -0.2274  0.0869
 2221SOL    HW2 8929   2.778   0.209   4.228 -0.1966 -0.3063  0.0256
 2221SOL    HW3 8930   2.886   0.103   4.217  0.7305  0.7061 -0.8154
 2221SOL    MW4 8931   2.803   0.128   4.209  0.4070 -0.1146 -0.0405
 2222SOL     OW 8932   0.607   1.893   3.847 -0.1083  0.0509 -0.1703
 2222SOL    HW2 8933   0.568   1.887   3.934  0.3263 -2.7496 -0.1178
 2222SOL    HW3 8934   0.702   1.896   3.863 -0.1040  2.0693 -0.4737
 2222SOL    MW4 8935   0.615   1.893   3.861 -0.0504 -0.0522 -0.2034
 2223SOL     OW 8936   4.419   1.491   4.638 -0.1083 -0.1179  0.0954
 2223SOL    HW2 8937   4.474   1.566   4.661 -1.7148  1.0419  0.2725
 2223SOL    HW3 8938   4.339   1.504   4.689 -1.2971 -0.7866 -1.5685
 2223SOL    MW4 8939   4.416   1.502   4.648 -0.4768 -0.0532 -0.1011
 2224SOL     OW 8940   1.207   3.572   4.197  0.3301  0.2812  0.1724
 2224SOL    HW2 8941   1.277   3.539   4.254  0.1294 -1.9763 -0.8272
 2224SOL    HW3 8942   1.218   3.522   4.116 -0.3712  2.3294 -1.2039
 2224SOL    MW4 8943   1.218   3.561   4.194  0.2110  0.2534 -0.1411
 2225SOL     OW 8944   3.072   1.847   4.517  0.0225  0.2707  0.6381
 2225SOL    HW2 8945   3.069   1.751   4.520  1.4717  0.1587 -0.6109
 2225SOL    HW3 8946   2.997   1.872   4.464 -0.6215 -0.1422  1.3464
 2225SOL    MW4 8947   3.062   1.837   4.511  0.1287  0.2016  0.5665
 2226SOL     OW 8948   0.810   1.769   4.297 -0.0218 -0.0145  0.6132
 2226SOL    HW2 8949   0.753   1.724   4.235  0.8525  0.6491 -0.6929
 2226SOL    HW3 8950   0.898   1.738   4.275  0.5136  1.7118  0.2078
 2226SOL    MW4 8951   0.814   1.759   4.286  0.1642  0.3006  0.3877
 2227SOL     OW 8952   0.301   2.381   3.906 -0.3079  0.4592  0.6804
 2227SOL    HW2 8953   0.217   2.420   3.883  1.4000  3.1317 -1.2915
 2227SOL    HW3 8954   0.343   2.444   3.964  1.3186  0.3068 -0.2675
 2227SOL    MW4 8955   0.296   2.394   3.911  0.1321  0.7918  0.2949
 2228SOL     OW 8956   1.571   2.705   4.221  0.0664 -0.4754 -0.0902
 2228SOL    HW2 8957   1.615   2.658   4.293  2.1814  0.8211 -0.4978
 2228SOL    HW3 8958   1.517   2.638   4.179 -1.2693 -1.2513  2.7187
 2228SOL    MW4 8959   1.570   2.690   4.225  0.1692 -0.4067  0.2265
 2229SOL     OW 8960   1.104   4.406   3.804  0.3088  0.1427  0.4547
 2229SOL    HW2 8961   1.010   4.400   3.819  0.3691  2.8205  2.4716
 2229SOL    HW3 8962   1.113   4.430   3.712 -0.9555 -0.3295  0.2030
 2229SOL    MW4 8963   1.093   4.408   3.794  0.1498  0.4334  0.6878
 2230SOL     OW 8964   1.574   3.852   3.926 -0.5860 -0.6514  0.0203
 2230SOL    HW2 8965   1.505   3.840   3.991 -0.4311  0.7449  0.4522
 2230SOL    HW3 8966   1.544   3.924   3.871  0.0655 -0.7108 -0.4184
 2230SOL    MW4 8967   1.561   3.860   3.927 -0.4797 -0.4749  0.0193
 2231SOL     OW 8968   2.013   1.965   4.553 -0.0122  0.1369  0.3064
 2231SOL    HW2 8969   1.953   1.922   4.492  0.5347  0.6671 -0.6166
 2231SOL    HW3 8970   1.957   2.012   4.614 -0.5470  0.2232 -0.2548
 2231SOL    MW4 8971   1.998   1.966   4.553 -0.0105  0.2183  0.1101
 2232SOL     OW 8972   1.582   4.262   3.770  0.5051 -0.0188 -0.2557
 2232SOL    HW2 8973   1.563   4.313   3.848  1.1770 -1.1617  0.6640
 2232SOL    HW3 8974   1.535   4.179   3.783  0.4805 -0.1510 -1.1311
 2232SOL    MW4 8975   1.573   4.257   3.782  0.5906 -0.1864 -0.2499
 2233SOL     OW 8976   0.576   3.579   4.140 -0.2210 -0.2892  0.5309
 2233SOL    HW2 8977   0.562   3.619   4.054 -2.1777  0.3376  1.1231
 2233SOL    HW3 8978   0.653   3.623   4.175 -1.0677  1.4514  0.2681
 2233SOL    MW4 8979   0.585   3.590   4.133 -0.5909  0.0231  0.5746
 2234SOL     OW 8980   0.667   1.270   3.759  0.3058 -0.1803  0.0342
 2234SOL    HW2 8981   0.613   1.197   3.792  0.0771  0.0551  0.1836
 2234SOL    HW3 8982   0.655   1.267   3.664  0.2693 -0.3167  0.0419
 2234SOL    MW4 8983   0.658   1.260   3.751  0.2708 -0.1673  0.0548
 2235SOL     OW 8984   1.091   4.568   4.370  0.6717  0.1067  0.0450
 2235SOL    HW2 8985   1.084   4.536   4.459  0.6096  0.2449  0.0897
 2235SOL    HW3 8986   1.096   4.489   4.316 -1.5922 -0.0203 -0.0109
 2235SOL    MW4 8987   1.091   4.554   4.374  0.3648  0.1082  0.0439
 2236SOL     OW 8988   3.012   4.153   3.907 -0.1411 -0.4985  0.1732
 2236SOL    HW2 8989   2.974   4.219   3.849  2.3077  1.3017  0.5343
 2236SOL    HW3 8990   2.979   4.175   3.994 -0.8817 -0.9742  0.0216
 2236SOL    MW4 8991   3.003   4.165   3.911  0.0844 -0.3233  0.2010
 2237SOL     OW 8992   1.935   2.470   4.597  0.0475 -0.4453  0.1841
 2237SOL    HW2 8993   1.945   2.563   4.578 -1.4531 -0.3810 -0.3203
 2237SOL    HW3 8994   1.966   2.426   4.517 -1.4582 -0.3090 -0.4849
 2237SOL    MW4 8995   1.941   2.477   4.584 -0.3493 -0.4187  0.0291
 2238SOL     OW 8996   2.823   3.912   4.118 -0.1739  0.0120  1.0306
 2238SOL    HW2 8997   2.802   4.003   4.097 -0.2226 -0.2843 -0.2342
 2238SOL    HW3 8998   2.738   3.870   4.127 -0.1508 -0.0415  0.9944
 2238SOL    MW4 8999   2.809   3.919   4.116 -0.1774 -0.0341  0.8593
 2239SOL     OW 9000   0.168   0.663   4.251  0.4450 -0.0358  0.1128
 2239SOL    HW2 9001   0.120   0.740   4.280 -0.8985 -0.7092 -0.2809
 2239SOL    HW3 9002   0.143   0.594   4.312  0.5459 -0.5185 -0.3810
 2239SOL    MW4 9003   0.159   0.664   4.263  0.2810 -0.1883 -0.0043
 2240SOL     OW 9004   2.023   1.242   4.528  0.0056  0.5597 -0.1114
 2240SOL    HW2 9005   1.946   1.194   4.497  2.0293 -1.8638 -1.6573
 2240SOL    HW3 9006   2.084   1.173   4.555  2.3859  2.3399 -0.7952
 2240SOL    MW4 9007   2.021   1.226   4.527  0.5865  0.4749 -0.4053
 2241SOL     OW 9008   0.039   4.320   4.340 -0.1851  0.2388 -0.1814
 2241SOL    HW2 9009   0.013   4.406   4.372 -1.2062 -0.2406  0.2960
 2241SOL    HW3 9010   0.081   4.278   4.415  1.9706  0.9942 -0.9360
 2241SOL    MW4 9011   0.041   4.326   4.354 -0.0354  0.2751 -0.2174
 2242SOL     OW 9012   0.569   2.152   4.048 -0.3278  0.2572 -0.0551
 2242SOL    HW2 9013   0.642   2.093   4.069  0.0946  0.4259 -0.9893
 2242SOL    HW3 9014   0.604   2.240   4.061 -0.5196  0.3296 -0.0228
 2242SOL    MW4 9015   0.583   2.156   4.052 -0.2974  0.2887 -0.1740
 2243SOL     OW 9016   1.516   3.276   4.464 -0.0517  0.3116 -0.0915
 2243SOL    HW2 9017   1.465   3.197   4.481 -0.2161  0.7621  1.6137
 2243SOL    HW3 9018   1.572   3.287   4.541  1.6029  0.6332 -1.2830
 2243SOL    MW4 9019   1.517   3.267   4.476  0.1450  0.4134 -0.0234
 2244SOL     OW 9020   3.707   0.163   4.394 -0.1406 -0.1412 -0.0716
 2244SOL    HW2 9021   3.729   0.070   4.387 -0.9057 -0.4562  1.3886
 2244SOL    HW3 9022   3.666   0.171   4.481 -0.2710  1.5172 -0.2729
 2244SOL    MW4 9023   3.704   0.151   4.405 -0.2589  0.0361  0.0944
 2245SOL     OW 9024   0.193   1.279   3.823  0.1081  0.1841  0.2140
 2245SOL    HW2 9025   0.106   1.318   3.823 -0.5858 -1.3352  1.1682
 2245SOL    HW3 9026   0.215   1.268   3.730 -0.2772  1.4962 -0.0424
 2245SOL    MW4 9027   0.185   1.283   3.810 -0.0343  0.1568  0.3061
 2246SOL     OW 9028   3.706   0.104   3.983  0.1037 -0.2536 -0.5136
 2246SOL    HW2 9029   3.642   0.049   3.938  0.5682 -0.4413 -0.9520
 2246SOL    HW3 9030   3.730   0.170   3.919 -0.8431  0.7883  0.1895
 2246SOL    MW4 9031   3.701   0.105   3.969  0.0401 -0.1409 -0.4787
 2247SOL     OW 9032   3.454   3.850   3.839  0.3334 -0.3616  0.3223
 2247SOL    HW2 9033   3.388   3.906   3.879  1.0998 -0.4128  1.7241
 2247SOL    HW3 9034   3.405   3.787   3.788 -0.6491  0.2522  0.5015
 2247SOL    MW4 9035   3.439   3.849   3.838  0.3049 -0.2875  0.5307
 2248SOL     OW 9036   1.573   4.435   3.973 -0.6234  0.3041 -0.0866
 2248SOL    HW2 9037   1.571   4.531   3.979  0.1186  0.2688  0.8098
 2248SOL    HW3 9038   1.659   4.410   4.006 -1.4388 -0.7737  1.2936
 2248SOL    MW4 9039   1.584   4.444   3.978 -0.6331  0.1569  0.2136
 2249SOL     OW 9040   2.745   3.743   4.428 -0.2649  0.6593  0.5918
 2249SOL    HW2 9041   2.727   3.837   4.426 -1.2813  0.4666 -0.0318
 2249SOL    HW3 9042   2.689   3.709   4.497  0.6405  0.6086  1.3102
 2249SOL    MW4 9043   2.735   3.751   4.437 -0.2794  0.6270  0.6042
 2250SOL     OW 9044   1.584   2.989   4.617 -0.4735  0.0029 -0.2232
 2250SOL    HW2 9045   1.586   3.074   4.662 -1.9442 -0.6246  1.0412
 2250SOL    HW3 9046   1.674   2.978   4.584 -0.3170  2.1487 -0.6086
 2250SOL    MW4 9047   1.596   2.999   4.618 -0.6469  0.2034 -0.1068
 2251SOL     OW 9048   2.027   2.804   3.516  0.0897 -0.2326  0.3954
 2251SOL    HW2 9049   1.981   2.807   3.599 -0.6825 -0.8771 -0.0078
 2251SOL    HW3 9050   2.009   2.889   3.475  1.7537  0.7263  1.5468
 2251SOL    MW4 9051   2.019   2.816   3.521  0.2074 -0.1912  0.4940
 2252SOL     OW 9052   1.573   2.784   3.524 -0.4478 -1.0599 -0.0268
 2252SOL    HW2 9053   1.571   2.762   3.617 -0.5618  1.5588  0.6502
 2252SOL    HW3 9054   1.563   2.880   3.523 -0.6617 -1.0895 -2.7416
 2252SOL    MW4 9055   1.571   2.794   3.536 -0.4909 -0.7181 -0.2954
 2253SOL     OW 9056   2.053   3.105   3.880  0.1364  0.2955 -0.1611
 2253SOL    HW2 9057   2.072   3.106   3.974  0.7680  1.6742 -0.2970
 2253SOL    HW3 9058   2.137   3.123   3.838 -0.2318  0.1333 -0.9853
 2253SOL    MW4 9059   2.067   3.108   3.887  0.1712  0.4559 -0.2880
 2254SOL     OW 9060   1.782   2.820   4.076  0.5049  0.1920  0.2931
 2254SOL    HW2 9061   1.850   2.797   4.139  0.0178 -1.7775  0.1069
 2254SOL    HW3 9062   1.700   2.792   4.118  0.1621 -1.0007 -1.1486
 2254SOL    MW4 9063   1.780   2.814   4.090  0.3954 -0.2253  0.0782
 2255SOL     OW 9064   1.819   3.052   4.227 -0.0401 -0.0483  0.7239
 2255SOL    HW2 9065   1.800   2.990   4.156 -0.5393 -1.4249  2.0489
 2255SOL    HW3 9066   1.913   3.042   4.243 -0.2845 -1.1062  1.5270
 2255SOL    MW4 9067   1.829   3.043   4.219 -0.1383 -0.3695  1.0052
 2256SOL     OW 9068   1.799   4.021   3.530 -0.0812 -0.2381  0.4736
 2256SOL    HW2 9069   1.819   4.058   3.616  1.0717 -0.6456  0.3772
 2256SOL    HW3 9070   1.809   4.095   3.470  1.8420 -0.5788  0.3349
 2256SOL    MW4 9071   1.803   4.036   3.533  0.3247 -0.3366  0.4430
 2257SOL     OW 9072   1.606   3.718   4.247  0.2284 -0.1042  0.4593
 2257SOL    HW2 9073   1.666   3.790   4.265 -1.3993  1.2469  0.6488
 2257SOL    HW3 9074   1.658   3.655   4.197  1.5088  1.4980 -0.2831
 2257SOL    MW4 9075   1.621   3.719   4.242  0.1826  0.2854  0.3858
 2258SOL     OW 9076   3.152   4.026   4.421 -0.1816  0.4116 -0.3202
 2258SOL    HW2 9077   3.117   3.937   4.417 -0.0167  0.2863  0.9700
 2258SOL    HW3 9078   3.205   4.034   4.342  0.8293 -1.0711  0.1909
 2258SOL    MW4 9079   3.154   4.015   4.410 -0.0262  0.1998 -0.0825
 2259SOL     OW 9080   0.111   2.786   4.154 -0.2449 -0.4160 -0.2200
 2259SOL    HW2 9081   0.070   2.715   4.103  1.8037 -0.0834 -2.4148
 2259SOL    HW3 9082   0.041   2.851   4.165 -1.5983 -1.9071  0.1407
 2259SOL    MW4 9083   0.096   2.785   4.149 -0.1532 -0.5689 -0.4621
 2260SOL     OW 9084   1.581   4.377   3.514 -0.0796 -0.2672 -0.2619
 2260SOL    HW2 9085   1.581   4.342   3.603  0.9571  0.6631  0.1176
 2260SOL    HW3 9086   1.501   4.343   3.475 -1.2416  0.4138  1.4693
 2260SOL    MW4 9087   1.570   4.368   3.521 -0.0962 -0.0544  0.0167
 2261SOL     OW 9088   2.655   3.530   3.994 -0.0582  0.1044  0.2475
 2261SOL    HW2 9089   2.723   3.467   4.017  0.2209  0.5096  0.5341
 2261SOL    HW3 9090   2.661   3.540   3.899 -1.0485 -1.3920  0.0191
 2261SOL    MW4 9091   2.665   3.523   3.985 -0.1519 -0.0396  0.2551
 2262SOL     OW 9092   1.548   0.031   3.951 -0.0377  0.1084  0.5171
 2262SOL    HW2 9093   1.494   0.066   3.879 -0.3138  1.1930  1.2307
 2262SOL    HW3 9094   1.634   0.070   3.937  0.4455 -1.2284 -0.3336
 2262SOL    MW4 9095   1.552   0.041   3.939 -0.0105  0.0751  0.4992
 2263SOL     OW 9096   1.677   3.278   4.675 -0.0083 -0.4954 -0.1069
 2263SOL    HW2 9097   1.765   3.262   4.641 -0.1566 -1.3354 -0.0978
 2263SOL    HW3 9098   1.678   3.370   4.702  0.8990 -0.5279 -0.0202
 2263SOL    MW4 9099   1.689   3.288   4.674  0.0918 -0.6104 -0.0949
 2264SOL     OW 9100   1.538   0.588   3.793 -0.1551  0.3803 -0.0510
 2264SOL    HW2 9101   1.522   0.663   3.850 -2.0515 -0.9877  1.2487
 2264SOL    HW3 9102   1.603   0.536   3.840  1.2034  1.1857 -0.9798
 2264SOL    MW4 9103   1.545   0.591   3.806 -0.2260  0.3061 -0.0019
 2265SOL     OW 9104   1.861   4.107   3.783 -0.3384 -0.6643 -0.1558
 2265SOL    HW2 9105   1.797   4.178   3.787 -1.0428 -1.2951  0.0926
 2265SOL    HW3 9106   1.843   4.055   3.862  0.5967 -0.7559 -0.0017
 2265SOL    MW4 9107   1.850   4.109   3.794 -0.3079 -0.7591 -0.1028
 2266SOL     OW 9108   3.617   4.394   4.153  0.0402  0.1809 -0.1731
 2266SOL    HW2 9109   3.551   4.462   4.145 -0.7967 -0.5690  0.2377
 2266SOL    HW3 9110   3.618   4.351   4.067 -1.1808 -0.8510  0.3060
 2266SOL    MW4 9111   3.609   4.397   4.141 -0.2315 -0.0544 -0.0558
 2267SOL     OW 9112   0.966   1.975   4.589  1.0031 -0.5880 -0.2817
 2267SOL    HW2 9113   1.027   1.965   4.515  1.0223 -0.1892 -0.3164
 2267SOL    HW3 9114   0.945   2.068   4.591 -0.6734 -0.9246 -1.1133
 2267SOL    MW4 9115   0.971   1.986   4.580  0.7844 -0.5796 -0.3963
 2268SOL     OW 9116   1.843   2.969   4.482  0.0320  0.3453 -0.1389
 2268SOL    HW2 9117   1.882   3.039   4.535  0.1904  0.2356 -0.1081
 2268SOL    HW3 9118   1.805   3.013   4.407 -1.4841  0.6614  0.7961
 2268SOL    MW4 9119   1.843   2.984   4.479 -0.1472  0.3729 -0.0114
 2269SOL     OW 9120   3.884   1.063   4.578 -0.2017 -0.4113  0.0568
 2269SOL    HW2 9121   3.919   1.136   4.629  0.2140  0.0278 -0.8523
 2269SOL    HW3 9122   3.796   1.050   4.613  0.2459 -0.4085  1.1980
 2269SOL    MW4 9123   3.877   1.071   4.590 -0.0877 -0.3531  0.0873
 2270SOL     OW 9124   1.633   0.927   4.611 -0.1306  0.1229 -0.7117
 2270SOL    HW2 9125   1.622   0.834   4.590 -1.5191  0.2496 -0.6271
 2270SOL    HW3 9126   1.724   0.947   4.588  0.2012 -1.2735 -0.6569
 2270SOL    MW4 9127   1.644   0.917   4.605 -0.2700 -0.0446 -0.6933
 2271SOL     OW 9128   3.523   4.569   4.655 -0.1298 -0.1308 -0.2076
 2271SOL    HW2 9129   3.475   4.575   4.573 -0.7770 -0.6376  0.1243
 2271SOL    HW3 9130   3.458   4.539   4.719  0.1209  1.2162  0.7090
 2271SOL    MW4 9131   3.508   4.566   4.653 -0.1824 -0.0205 -0.0424
 2272SOL     OW 9132   3.468   2.339   3.815  0.7092  1.0926 -0.0663
 2272SOL    HW2 9133   3.528   2.270   3.845  0.0625  0.5114 -0.0987
 2272SOL    HW3 9134   3.488   2.349   3.721 -0.6464 -0.5405 -0.5440
 2272SOL    MW4 9135   3.479   2.331   3.806  0.4449  0.8001 -0.1335
 2273SOL     OW 9136   3.649   2.270   4.415  0.2975 -0.5243  0.0845
 2273SOL    HW2 9137   3.671   2.260   4.322  0.6203  0.4265  0.0606
 2273SOL    HW3 9138   3.607   2.356   4.421  0.6140 -0.4249  0.8878
 2273SOL    MW4 9139   3.646   2.280   4.403  0.3819 -0.3860  0.1874
 2274SOL     OW 9140   0.969   2.167   3.795 -0.2485  0.0918 -0.5025
 2274SOL    HW2 9141   0.998   2.141   3.708  0.6011 -1.2779  0.1605
 2274SOL    HW3 9142   0.875   2.184   3.786 -0.4067 -1.2039 -1.4288
 2274SOL    MW4 9143   0.961   2.166   3.783 -0.1573 -0.2599 -0.5372
 2275SOL     OW 9144   1.598   1.316   3.747 -0.3301  0.5118 -0.2488
 2275SOL    HW2 9145   1.519   1.277   3.785 -0.1523 -0.0519 -0.4546
 2275SOL    HW3 9146   1.670   1.275   3.795 -0.0428 -1.3615 -2.2460
 2275SOL    MW4 9147   1.597   1.306   3.758 -0.2687  0.1904 -0.5395
 2276SOL     OW 9148   2.001   2.739   4.524  0.3342  0.2347 -0.4071
 2276SOL    HW2 9149   1.934   2.808   4.525 -0.4657 -0.5265 -0.8182
 2276SOL    HW3 9150   2.084   2.786   4.517 -0.0382  1.2864  1.6919
 2276SOL    MW4 9151   2.003   2.754   4.523  0.1795  0.2730 -0.1841
 2277SOL     OW 9152   2.006   3.693   3.435 -0.4692 -0.4534  0.1636
 2277SOL    HW2 9153   2.009   3.743   3.517 -2.2240 -0.6235  0.3704
 2277SOL    HW3 9154   2.086   3.640   3.436  0.6326  1.1960  0.6816
 2277SOL    MW4 9155   2.017   3.692   3.446 -0.5553 -0.2582  0.2594
 2278SOL     OW 9156   2.167   3.670   4.765 -0.3073 -0.5434 -0.1656
 2278SOL    HW2 9157   2.145   3.580   4.789 -0.8469 -0.1653  0.8071
 2278SOL    HW3 9158   2.092   3.721   4.795  0.4598  0.3653  0.2179
 2278SOL    MW4 9159   2.154   3.665   4.772 -0.2773 -0.3734  0.0134
 2279SOL     OW 9160   2.979   3.160   3.406 -0.3243 -0.0835 -0.1331
 2279SOL    HW2 9161   2.972   3.098   3.333  1.7235  0.1069 -0.5384
 2279SOL    HW3 9162   2.976   3.105   3.484 -0.7209 -0.4841 -0.4296
 2279SOL    MW4 9163   2.978   3.145   3.406 -0.1063 -0.1113 -0.2258
 2280SOL     OW 9164   1.964   2.730   4.261  0.0380  0.1647 -0.5786
 2280SOL    HW2 9165   2.048   2.730   4.215 -0.1664  0.1407 -0.9539
 2280SOL    HW3 9166   1.987   2.742   4.353  0.5357 -1.1281 -0.5208
 2280SOL    MW4 9167   1.978   2.731   4.267  0.0768 -0.0091 -0.6204
 2281SOL     OW 9168   2.001   4.380   3.552 -0.0584 -0.2381  0.1234
 2281SOL    HW2 9169   1.987   4.395   3.645 -1.2986 -1.0201  0.0699
 2281SOL    HW3 9170   1.922   4.334   3.523  0.1662  0.3104 -1.3834
 2281SOL    MW4 9171   1.989   4.376   3.560 -0.1925 -0.2689 -0.0825
 2282SOL     OW 9172   0.492   3.147   3.860 -0.5494  0.3005  0.1034
 2282SOL    HW2 9173   0.493   3.054   3.838 -1.4068  0.2383  0.3416
 2282SOL    HW3 9174   0.485   3.149   3.955  2.0327  0.5866  0.3412
 2282SOL    MW4 9175   0.491   3.135   3.869 -0.3218  0.3302  0.1662
 2283SOL     OW 9176   1.498   3.103   4.045  0.0701  0.1150 -0.4133
 2283SOL    HW2 9177   1.530   3.166   4.110 -2.5718  1.5345 -0.4305
 2283SOL    HW3 9178   1.510   3.148   3.961 -1.6837  0.5785 -0.4377
 2283SOL    MW4 9179   1.504   3.117   4.042 -0.5097  0.3631 -0.4182
 2284SOL     OW 9180   0.007   4.431   3.810  0.0148  0.4068 -0.3254
 2284SOL    HW2 9181   0.069   4.360   3.797 -0.2866 -0.0801  0.8245
 2284SOL    HW3 9182   0.060   4.510   3.808  0.8066 -0.0523  1.3837
 2284SOL    MW4 9183   0.022   4.432   3.808  0.0795  0.2818  0.0520
 2285SOL     OW 9184   1.220   1.667   3.817  0.2534 -0.4798  0.1854
 2285SOL    HW2 9185   1.129   1.647   3.798  0.3103  0.3120 -0.9274
 2285SOL    HW3 9186   1.236   1.752   3.775  1.5184 -0.6405  0.3124
 2285SOL    MW4 9187   1.210   1.675   3.809  0.4277 -0.3965  0.0553
 2286SOL     OW 9188   2.000   0.546   3.530  0.6720  0.3665 -0.5278
 2286SOL    HW2 9189   2.011   0.549   3.625  2.3278 -2.8018 -0.5664
 2286SOL    HW3 9190   1.922   0.493   3.516 -1.1831  3.0595 -0.9535
 2286SOL    MW4 9191   1.991   0.540   3.540  0.6458  0.3038 -0.5891
 2287SOL     OW 9192   0.628   2.037   4.398 -0.3518 -0.3864 -0.2246
 2287SOL    HW2 9193   0.683   2.030   4.321  0.3209  0.1252  0.2090
 2287SOL    HW3 9194   0.661   1.970   4.458  1.1511  1.2884  0.8643
 2287SOL    MW4 9195   0.639   2.027   4.396 -0.0647 -0.0980 -0.0238
 2288SOL     OW 9196   1.128   3.222   3.890 -0.1220 -0.0083  0.0952
 2288SOL    HW2 9197   1.171   3.136   3.893  0.8771  0.4629 -0.3598
 2288SOL    HW3 9198   1.067   3.222   3.964  1.2280 -0.3918  1.2152
 2288SOL    MW4 9199   1.125   3.211   3.900  0.1880  0.0033  0.1831
 2289SOL     OW 9200   3.295   4.552   3.918  0.0793 -0.2831  0.2072
 2289SOL    HW2 9201   3.202   4.533   3.905  0.1271  0.3313 -1.1700
 2289SOL    HW3 9202   3.340   4.471   3.895 -0.0326 -0.1313 -0.5599
 2289SOL    MW4 9203   3.288   4.539   3.913  0.0708 -0.1822 -0.0758
 2290SOL     OW 9204   1.672   2.199   4.101 -0.1096 -0.1349 -0.5457
 2290SOL    HW2 9205   1.634   2.216   4.187  0.8262 -1.2618  0.1100
 2290SOL    HW3 9206   1.751   2.252   4.099 -0.0241 -0.2669 -0.6380
 2290SOL    MW4 9207   1.677   2.208   4.112  0.0252 -0.3011 -0.4716
 2291SOL     OW 9208   1.327   0.600   4.544 -0.2040 -0.2667 -0.1749
 2291SOL    HW2 9209   1.340   0.523   4.600  0.5455  0.0810  0.1437
 2291SOL    HW3 9210   1.275   0.568   4.470 -0.8291 -0.8328  0.4981
 2291SOL    MW4 9211   1.322   0.586   4.542 -0.1876 -0.2956 -0.0443
 2292SOL     OW 9212   2.325   3.412   4.548 -0.0904  0.4060 -0.3434
 2292SOL    HW2 9213   2.342   3.340   4.487 -0.7507 -0.6062  0.6600
 2292SOL    HW3 9214   2.405   3.419   4.600 -0.4027 -0.2569  0.2248
 2292SOL    MW4 9215   2.338   3.403   4.547 -0.2189  0.1853 -0.1364
 2293SOL     OW 9216   3.038   0.356   4.092 -0.4682 -0.5734  0.3310
 2293SOL    HW2 9217   3.123   0.327   4.126  0.3540 -1.0729 -2.0189
 2293SOL    HW3 9218   2.981   0.360   4.169  1.6150 -0.4652  1.9072
 2293SOL    MW4 9219   3.042   0.353   4.106 -0.0846 -0.6250  0.2289
 2294SOL     OW 9220   4.194   1.295   4.423 -0.0150  0.1707  0.2137
 2294SOL    HW2 9221   4.148   1.374   4.451  0.0299  0.4858 -0.6063
 2294SOL    HW3 9222   4.274   1.327   4.380 -1.5134 -0.1944 -2.9689
 2294SOL    MW4 9223   4.199   1.310   4.421 -0.2074  0.1642 -0.3142
 2295SOL     OW 9224   0.750   2.953   3.802 -0.0825 -0.1109  0.0285
 2295SOL    HW2 9225   0.799   3.030   3.775 -0.6298  0.2708  0.1183
 2295SOL    HW3 9226   0.713   2.919   3.720 -0.0619 -0.1240  0.0246
 2295SOL    MW4 9227   0.751   2.959   3.788 -0.1520 -0.0622  0.0401
 2296SOL     OW 9228   2.697   3.536   3.399 -0.5097  0.0689  0.2918
 2296SOL    HW2 9229   2.616   3.569   3.438 -0.0173  0.9435  0.5918
 2296SOL    HW3 9230   2.715   3.455   3.446 -1.6518 -0.5750 -0.3482
 2296SOL    MW4 9231   2.689   3.530   3.410 -0.5953  0.0992  0.2470
 2297SOL     OW 9232   2.572   3.406   4.682  0.2262 -0.9768 -0.1116
 2297SOL    HW2 9233   2.536   3.375   4.766 -0.4163  0.2220  0.0703
 2297SOL    HW3 9234   2.645   3.347   4.664 -0.0732 -1.6885  0.9432
 2297SOL    MW4 9235   2.577   3.394   4.691  0.1020 -0.9124  0.0515
 2298SOL     OW 9236   3.037   3.736   4.091 -0.2690 -0.4803 -0.0288
 2298SOL    HW2 9237   2.994   3.652   4.105 -0.2904 -0.1864  1.8398
 2298SOL    HW3 9238   2.970   3.802   4.109  0.8414 -0.0252  2.7234
 2298SOL    MW4 9239   3.023   3.734   4.095 -0.1256 -0.3817  0.5803
 2299SOL     OW 9240   1.674   2.565   4.445 -0.0349 -0.2016  0.4988
 2299SOL    HW2 9241   1.614   2.491   4.437  0.4202 -0.5916  0.6835
 2299SOL    HW3 9242   1.739   2.537   4.509  2.2529 -1.0794 -2.1262
 2299SOL    MW4 9243   1.674   2.552   4.452  0.3270 -0.3693  0.1769
 2300SOL     OW 9244   0.663   4.380   3.493  0.4124  0.3008 -0.3729
 2300SOL    HW2 9245   0.657   4.424   3.578 -0.3061 -0.4091 -0.0457
 2300SOL    HW3 9246   0.750   4.341   3.493  1.1653  1.9164 -0.7756
 2300SOL    MW4 9247   0.674   4.381   3.504  0.4171  0.4206 -0.3829
 2301SOL     OW 9248   4.152   2.862   4.193  0.1294 -0.2037  0.1928
 2301SOL    HW2 9249   4.229   2.918   4.198  0.5755 -0.7282 -0.7706
 2301SOL    HW3 9250   4.177   2.791   4.133 -0.6916 -1.0105  0.7860
 2301SOL    MW4 9251   4.166   2.860   4.186  0.0796 -0.3796  0.1435
 2302SOL     OW 9252   0.491   0.096   4.510 -0.2552  0.0101  0.1300
 2302SOL    HW2 9253   0.473   0.011   4.549  0.7987 -0.8868 -1.2870
 2302SOL    HW3 9254   0.530   0.076   4.425  0.8660  1.9062  0.1679
 2302SOL    MW4 9255   0.493   0.082   4.504  0.0318  0.1419 -0.0525
 2303SOL     OW 9256   3.463   3.228   4.053 -0.1028  0.5216  0.3902
 2303SOL    HW2 9257   3.506   3.188   3.977  0.9244  1.1269  0.6369
 2303SOL    HW3 9258   3.417   3.304   4.017 -1.8461 -0.7251 -0.0385
 2303SOL    MW4 9259   3.463   3.233   4.038 -0.1972  0.4370  0.3667
 2304SOL     OW 9260   2.509   4.214   4.113 -0.1794 -0.0063 -0.2355
 2304SOL    HW2 9261   2.454   4.194   4.038 -3.0669  0.6372  1.6234
 2304SOL    HW3 9262   2.491   4.306   4.133  1.7872  0.2920  0.2504
 2304SOL    MW4 9263   2.499   4.223   4.106 -0.3009  0.1183  0.0744
 2305SOL     OW 9264   1.980   4.441   3.810  0.6871  0.1213  0.3041
 2305SOL    HW2 9265   1.937   4.375   3.865  0.4333 -0.4191 -0.5382
 2305SOL    HW3 9266   1.964   4.524   3.856 -1.9486  0.0409 -0.3668
 2305SOL    MW4 9267   1.972   4.443   3.824  0.3059  0.0396  0.1044
 2306SOL     OW 9268   2.728   3.934   3.552 -0.0841  0.3946 -0.2469
 2306SOL    HW2 9269   2.781   3.931   3.632 -0.5913 -0.3583  0.0605
 2306SOL    HW3 9270   2.732   4.026   3.525  1.9203  0.2191 -0.6068
 2306SOL    MW4 9271   2.736   3.946   3.559  0.1135  0.2720 -0.2539
 2307SOL     OW 9272   3.415   3.745   4.392  0.1695 -0.0470  0.3379
 2307SOL    HW2 9273   3.509   3.727   4.387 -0.4557 -3.8881  0.4381
 2307SOL    HW3 9274   3.404   3.797   4.471  2.3546  1.5752 -0.3942
 2307SOL    MW4 9275   3.426   3.749   4.402  0.3753 -0.3397  0.2546
 2308SOL     OW 9276   2.220   0.230   4.203 -0.1893  0.1034 -0.3471
 2308SOL    HW2 9277   2.139   0.184   4.224 -1.3482  2.3152  0.2054
 2308SOL    HW3 9278   2.289   0.169   4.227 -1.6763 -1.2270  0.6417
 2308SOL    MW4 9279   2.219   0.216   4.209 -0.5383  0.2197 -0.1435
 2309SOL     OW 9280   3.022   0.966   4.188 -0.2645 -0.2500  0.2957
 2309SOL    HW2 9281   2.974   0.933   4.264 -0.1963  1.6727  1.1951
 2309SOL    HW3 9282   3.057   1.050   4.216  0.4517  0.1152 -1.6117
 2309SOL    MW4 9283   3.021   0.972   4.202 -0.1609  0.0519  0.1626
 2310SOL     OW 9284   2.940   4.384   3.752  0.4153  0.2022  0.1312
 2310SOL    HW2 9285   2.943   4.431   3.669 -0.2494 -0.2385 -0.1496
 2310SOL    HW3 9286   2.848   4.390   3.779  0.6082  0.2785  0.8019
 2310SOL    MW4 9287   2.928   4.391   3.745  0.3533  0.1540  0.1826
 2311SOL     OW 9288   2.521   0.500   3.845 -0.3775  0.3029  0.1459
 2311SOL    HW2 9289   2.609   0.479   3.814 -0.4305 -0.1312  0.2879
 2311SOL    HW3 9290   2.490   0.420   3.888 -0.7101  0.5619  0.3969
 2311SOL    MW4 9291   2.528   0.487   3.847 -0.4282  0.2798  0.1979
 2312SOL     OW 9292   2.591   1.054   4.302  0.1481  0.5605  0.3256
 2312SOL    HW2 9293   2.504   1.092   4.313  0.3769  1.1102  0.2682
 2312SOL    HW3 9294   2.614   1.021   4.389 -0.9876 -1.5107 -0.1103
 2312SOL    MW4 9295   2.582   1.054   4.315  0.0284  0.3599  0.2613
 2313SOL     OW 9296   1.385   1.049   4.631  0.0184 -0.4281  0.2369
 2313SOL    HW2 9297   1.470   1.006   4.629 -0.2823 -0.9964 -1.0614
 2313SOL    HW3 9298   1.379   1.088   4.718  1.5113 -0.5628  0.4013
 2313SOL    MW4 9299   1.395   1.048   4.642  0.1756 -0.5209  0.0877
 2314SOL     OW 9300   3.661   2.094   4.873 -0.1142  0.0605 -0.1369
 2314SOL    HW2 9301   3.632   2.025   4.933  1.3344  1.8156  2.6792
 2314SOL    HW3 9302   3.580   2.135   4.845 -0.8567 -1.1185  0.2102
 2314SOL    MW4 9303   3.646   2.090   4.878 -0.0210  0.1369  0.2809
 2315SOL     OW 9304   0.905   4.344   4.070  0.4122 -0.1474  0.1068
 2315SOL    HW2 9305   0.853   4.291   4.130  1.1106 -1.7693 -0.7180
 2315SOL    HW3 9306   0.994   4.342   4.106  0.5807 -0.0854 -0.3087
 2315SOL    MW4 9307   0.910   4.337   4.083  0.5265 -0.3529 -0.0572
 2316SOL     OW 9308   2.668   0.966   4.547  0.3921 -0.1724  0.2737
 2316SOL    HW2 9309   2.738   1.013   4.591 -0.8118  1.6147  0.3065
 2316SOL    HW3 9310   2.596   0.964   4.610  0.2559 -1.6760  0.1023
 2316SOL    MW4 9311   2.668   0.972   4.561  0.2153 -0.1350  0.2556
 2317SOL     OW 9312   2.189   3.059   4.635 -0.3825 -0.2178  0.4465
 2317SOL    HW2 9313   2.197   2.998   4.562  0.7140 -0.0539  0.4257
 2317SOL    HW3 9314   2.121   3.121   4.608 -0.3291 -0.4542 -0.2189
 2317SOL    MW4 9315   2.181   3.059   4.622 -0.2303 -0.2275  0.3557
 2318SOL     OW 9316   3.107   0.927   3.752 -0.4308  0.2286  0.2762
 2318SOL    HW2 9317   3.100   0.916   3.658  1.5084 -0.5147  0.1967
 2318SOL    HW3 9318   3.132   0.841   3.785 -1.4800  0.3822  1.5259
 2318SOL    MW4 9319   3.109   0.915   3.744 -0.3133  0.1508  0.4306
 2319SOL     OW 9320   0.942   2.411   4.145  0.5765  0.1763  0.3590
 2319SOL    HW2 9321   0.852   2.426   4.116  0.5464 -0.5944  0.0357
 2319SOL    HW3 9322   0.939   2.328   4.192  1.2832 -0.3261 -0.4529
 2319SOL    MW4 9323   0.930   2.402   4.147  0.6658  0.0081  0.2093
 2320SOL     OW 9324   2.470   3.247   4.370 -0.0311 -0.4109 -0.2775
 2320SOL    HW2 9325   2.542   3.310   4.362 -0.3127 -0.1157 -0.5349
 2320SOL    HW3 9326   2.506   3.176   4.422  0.5199 -0.3724 -0.5948
 2320SOL    MW4 9327   2.484   3.246   4.376  0.0043 -0.3669 -0.3533
 2321SOL     OW 9328   2.732   2.541   4.849  0.4111  0.0208 -0.2273
 2321SOL    HW2 9329   2.662   2.498   4.799  1.3688 -0.2167 -1.3726
 2321SOL    HW3 9330   2.688   2.613   4.894 -0.6824 -0.4729 -0.4930
 2321SOL    MW4 9331   2.717   2.545   4.848  0.3932 -0.0758 -0.4139
 2322SOL     OW 9332   1.661   2.446   3.865 -0.0093 -0.5072 -0.1249
 2322SOL    HW2 9333   1.731   2.392   3.829 -0.2428  0.2067 -1.6929
 2322SOL    HW3 9334   1.596   2.383   3.896  0.2806 -1.1430 -0.7952
 2322SOL    MW4 9335   1.661   2.431   3.865 -0.0019 -0.4969 -0.4203
 2323SOL     OW 9336   2.179   3.868   4.320 -0.4767  0.0976  0.5052
 2323SOL    HW2 9337   2.197   3.946   4.372  1.4906  0.6762 -1.0081
 2323SOL    HW3 9338   2.258   3.816   4.325 -1.1153 -0.9468  0.0100
 2323SOL    MW4 9339   2.192   3.871   4.327 -0.3011  0.0362  0.2403
 2324SOL     OW 9340   4.315   3.662   3.770  0.1330 -0.0928  0.0599
 2324SOL    HW2 9341   4.239   3.640   3.824  0.3452 -0.9541  0.0024
 2324SOL    HW3 9342   4.306   3.607   3.693  0.7042 -0.0364 -0.0467
 2324SOL    MW4 9343   4.304   3.652   3.767  0.2360 -0.1991  0.0381
 2325SOL     OW 9344   2.451   1.398   4.424 -0.0289 -0.4364  0.1629
 2325SOL    HW2 9345   2.407   1.466   4.476  0.0638 -0.6650  0.5399
 2325SOL    HW3 9346   2.450   1.432   4.334  0.1375  0.1259  0.3730
 2325SOL    MW4 9347   2.445   1.412   4.419  0.0052 -0.3923  0.2408
 2326SOL     OW 9348   1.520   1.770   4.573  0.0987 -0.1994 -0.3054
 2326SOL    HW2 9349   1.516   1.844   4.512  0.9467  1.1059  1.2061
 2326SOL    HW3 9350   1.589   1.714   4.538  0.1153  0.1980 -0.9212
 2326SOL    MW4 9351   1.528   1.772   4.560  0.2128  0.0253 -0.1874
 2327SOL     OW 9352   2.225   4.581   4.474 -0.1173  0.1452  0.0819
 2327SOL    HW2 9353   2.250   4.584   4.566 -0.9047 -0.2207  0.3071
 2327SOL    HW3 9354   2.270   4.504   4.439 -2.3572 -1.5872  0.9214
 2327SOL    MW4 9355   2.235   4.571   4.481 -0.5169 -0.1311  0.2222
 2328SOL     OW 9356   2.564   3.189   4.867 -0.4569 -0.4697 -0.3859
 2328SOL    HW2 9357   2.488   3.194   4.925 -1.6406 -2.7735 -1.6855
 2328SOL    HW3 9358   2.530   3.153   4.785  1.8612 -0.6018 -1.3227
 2328SOL    MW4 9359   2.550   3.185   4.864 -0.3073 -0.7911 -0.6809
 2329SOL     OW 9360   0.248   1.019   4.396  0.4611  0.0741 -0.0982
 2329SOL    HW2 9361   0.311   1.000   4.466 -1.7050 -0.1147  1.8790
 2329SOL    HW3 9362   0.245   1.114   4.392  0.6035  0.0878  0.0882
 2329SOL    MW4 9363   0.256   1.029   4.405  0.1941  0.0511  0.1869
 2330SOL     OW 9364   2.422   3.907   4.000  0.4770  0.3860  0.3410
 2330SOL    HW2 9365   2.473   3.859   4.065 -0.2733 -0.6344  0.1825
 2330SOL    HW3 9366   2.331   3.893   4.026  0.2307  1.2270 -0.0562
 2330SOL    MW4 9367   2.417   3.899   4.012  0.3457  0.3624  0.2685
 2331SOL     OW 9368   2.235   0.120   3.575  0.1978 -0.6410 -0.4368
 2331SOL    HW2 9369   2.215   0.203   3.532 -0.5346 -0.7782 -0.3662
 2331SOL    HW3 9370   2.312   0.087   3.529 -0.8353 -1.0050 -1.9472
 2331SOL    MW4 9371   2.243   0.126   3.563 -0.0350 -0.7071 -0.6268
 2332SOL     OW 9372   2.910   2.717   3.556 -0.3403 -0.3270  0.0592
 2332SOL    HW2 9373   2.986   2.666   3.530 -0.3614 -0.5297  0.3920
 2332SOL    HW3 9374   2.882   2.679   3.640 -0.4930  0.0799  0.1983
 2332SOL    MW4 9375   2.916   2.705   3.564 -0.3633 -0.2999  0.1216
 2333SOL     OW 9376   2.543   1.706   4.131 -0.0945  0.4848  0.2606
 2333SOL    HW2 9377   2.538   1.784   4.076 -0.2955 -0.3934 -0.9811
 2333SOL    HW3 9378   2.637   1.685   4.133 -0.0272  0.8134  0.6844
 2333SOL    MW4 9379   2.555   1.714   4.124 -0.1123  0.4122  0.1531
 2334SOL     OW 9380   4.345   0.575   4.435  0.0630 -0.0799 -0.0820
 2334SOL    HW2 9381   4.329   0.616   4.350  1.8675  1.8486  0.4496
 2334SOL    HW3 9382   4.426   0.524   4.422 -0.8857 -1.6160 -0.1011
 2334SOL    MW4 9383   4.354   0.573   4.422  0.1764 -0.0281 -0.0138
 2335SOL     OW 9384   2.781   0.162   3.784 -0.0120 -0.0594  0.4693
 2335SOL    HW2 9385   2.720   0.132   3.851 -0.7199  0.3754  0.0325
 2335SOL    HW3 9386   2.746   0.127   3.702 -0.7597  1.7626 -0.0272
 2335SOL    MW4 9387   2.769   0.154   3.782 -0.2036  0.2383  0.3464
 2336SOL     OW 9388   2.132   1.624   4.257  0.2135  0.4585  0.2260
 2336SOL    HW2 9389   2.082   1.572   4.319  0.4562  0.4115  0.3830
 2336SOL    HW3 9390   2.126   1.575   4.175  1.4338 -0.4397  0.6609
 2336SOL    MW4 9391   2.125   1.610   4.254  0.4063  0.3339  0.3037
 2337SOL     OW 9392   2.922   4.175   4.378  0.5057  0.0823  0.0137
 2337SOL    HW2 9393   2.925   4.260   4.422 -0.8049 -0.3877  1.0690
 2337SOL    HW3 9394   3.006   4.135   4.398  1.6283  1.6251 -1.5391
 2337SOL    MW4 9395   2.933   4.181   4.387  0.4807  0.2236 -0.0515
 2338SOL     OW 9396   3.721   0.801   3.781  0.0755  0.4099  0.0307
 2338SOL    HW2 9397   3.817   0.801   3.785  0.1129 -2.1911  0.0313
 2338SOL    HW3 9398   3.696   0.884   3.821  2.2994  0.5580  1.2359
 2338SOL    MW4 9399   3.730   0.812   3.787  0.3738  0.0862  0.1898
 2339SOL     OW 9400   0.009   0.892   4.340  0.0294 -0.3281 -0.3242
 2339SOL    HW2 9401  -0.056   0.941   4.391  0.2195  0.9639 -1.3002
 2339SOL    HW3 9402   0.087   0.946   4.343  1.1025 -1.8943  0.8739
 2339SOL    MW4 9403   0.010   0.905   4.347  0.1961 -0.3644 -0.2952
 2340SOL     OW 9404   3.128   2.040   3.868  0.2334  0.2196  0.2017
 2340SOL    HW2 9405   3.174   2.123   3.858  0.5881 -0.1285 -1.1261
 2340SOL    HW3 9406   3.151   2.010   3.956  3.1470 -0.3248 -0.7000
 2340SOL    MW4 9407   3.137   2.047   3.878  0.6645  0.1020 -0.0925
 2341SOL     OW 9408   0.974   2.260   4.534  0.2863  0.0279  0.0957
 2341SOL    HW2 9409   0.923   2.334   4.501 -1.8476 -1.2129  0.5150
 2341SOL    HW3 9410   1.047   2.300   4.581 -1.5327  1.9105  1.4400
 2341SOL    MW4 9411   0.977   2.275   4.536 -0.2353  0.1125  0.3285
 2342SOL     OW 9412   3.188   1.896   3.451 -0.3576  0.0326  0.0990
 2342SOL    HW2 9413   3.210   1.898   3.358 -0.3510  0.2730  0.1051
 2342SOL    HW3 9414   3.109   1.949   3.458 -0.2519  0.1736  0.2565
 2342SOL    MW4 9415   3.181   1.904   3.440 -0.3431  0.0830  0.1206
 2343SOL     OW 9416   0.357   1.908   4.337  0.3423  0.2018  0.3523
 2343SOL    HW2 9417   0.355   1.997   4.371  1.2166  0.3884 -0.0851
 2343SOL    HW3 9418   0.435   1.904   4.282 -0.5616 -0.3525 -0.9345
 2343SOL    MW4 9419   0.367   1.919   4.334  0.3384  0.1534  0.1249
 2344SOL     OW 9420   3.609   3.254   3.511 -0.2333 -0.0781 -0.4242
 2344SOL    HW2 9421   3.525   3.233   3.552 -0.2863  1.2095  0.1228
 2344SOL    HW3 9422   3.603   3.346   3.488  0.4633 -0.3517 -1.7608
 2344SOL    MW4 9423   3.597   3.263   3.513 -0.1485  0.0560 -0.5283
 2345SOL     OW 9424   1.649   3.280   4.204  0.1433 -0.2030 -0.3611
 2345SOL    HW2 9425   1.698   3.198   4.215 -1.2561 -1.0879 -0.6013
 2345SOL    HW3 9426   1.591   3.284   4.279  0.2101  0.5875 -0.3431
 2345SOL    MW4 9427   1.648   3.270   4.215 -0.0325 -0.2155 -0.3910
 2346SOL     OW 9428   4.263   2.315   3.765  0.0471  0.0607 -0.1411
 2346SOL    HW2 9429   4.173   2.335   3.741  0.1268  0.1312 -0.3843
 2346SOL    HW3 9430   4.256   2.267   3.847 -0.1786  0.5838  0.1469
 2346SOL    MW4 9431   4.250   2.311   3.773  0.0277  0.1390 -0.1352
 2347SOL     OW 9432   4.268   1.981   4.812  0.2104  0.0501  0.1249
 2347SOL    HW2 9433   4.356   1.953   4.787  0.0860  0.8156 -1.2221
 2347SOL    HW3 9434   4.209   1.927   4.760 -0.0375  2.1281 -1.8549
 2347SOL    MW4 9435   4.272   1.970   4.802  0.1612  0.4251 -0.3142
 2348SOL     OW 9436   2.722   1.345   4.480 -0.0931 -0.3867  0.1919
 2348SOL    HW2 9437   2.627   1.357   4.482 -0.2155 -1.1827 -0.4079
 2348SOL    HW3 9438   2.738   1.273   4.541 -0.0697 -1.3942 -0.9826
 2348SOL    MW4 9439   2.712   1.337   4.488 -0.1061 -0.6245 -0.0420
 2349SOL     OW 9440   2.388   4.459   4.145  0.4978 -0.1433 -0.3258
 2349SOL    HW2 9441   2.316   4.413   4.188  0.9075 -1.4960 -1.0694
 2349SOL    HW3 9442   2.354   4.481   4.058 -0.5776  3.2017  0.8794
 2349SOL    MW4 9443   2.374   4.456   4.139  0.4101  0.1197 -0.2651
 2350SOL     OW 9444   4.426   2.979   3.875  0.2393  0.1370 -0.0122
 2350SOL    HW2 9445   4.422   3.068   3.840 -0.9610  0.0624 -0.0817
 2350SOL    HW3 9446   4.508   2.943   3.841 -0.1220  0.6134 -1.3926
 2350SOL    MW4 9447   4.437   2.986   3.866  0.0334  0.1900 -0.2034
 2351SOL     OW 9448   3.046   3.305   4.022 -0.0851  0.3421  0.4871
 2351SOL    HW2 9449   2.951   3.299   4.007 -0.0983  0.7827  0.3743
 2351SOL    HW3 9450   3.066   3.232   4.080 -0.6965  0.9406  1.4717
 2351SOL    MW4 9451   3.036   3.295   4.028 -0.1676  0.4790  0.6018
 2352SOL     OW 9452   4.231   0.344   4.599  0.4743 -0.2467  0.0138
 2352SOL    HW2 9453   4.244   0.374   4.689 -1.6206 -1.1398  0.6537
 2352SOL    HW3 9454   4.281   0.406   4.545  0.7189  1.0589  1.7021
 2352SOL    MW4 9455   4.239   0.356   4.604  0.2298 -0.1923  0.3209
 2353SOL     OW 9456   3.320   3.513   4.310 -0.0036 -0.2674  0.3160
 2353SOL    HW2 9457   3.349   3.596   4.348 -1.1534  0.3751 -0.1815
 2353SOL    HW3 9458   3.400   3.463   4.298  1.0574  1.8409 -1.9027
 2353SOL    MW4 9459   3.334   3.517   4.313 -0.0153  0.0954 -0.0424
 2354SOL     OW 9460   3.345   0.457   3.835  0.0776 -0.1563  0.0479
 2354SOL    HW2 9461   3.433   0.477   3.867 -0.0699  0.3635  0.1222
 2354SOL    HW3 9462   3.295   0.537   3.850  0.1129  0.2350 -1.8750
 2354SOL    MW4 9463   3.350   0.470   3.842  0.0625 -0.0361 -0.1962
 2355SOL     OW 9464   1.122   2.879   4.135 -0.3481  0.1128  0.2504
 2355SOL    HW2 9465   1.028   2.891   4.124 -0.3031  0.9459  0.7243
 2355SOL    HW3 9466   1.135   2.785   4.130 -0.9688  0.1066 -1.6826
 2355SOL    MW4 9467   1.112   2.869   4.133 -0.4240  0.2217  0.0577
 2356SOL     OW 9468   2.083   3.859   3.646 -0.0123  0.7295 -0.0257
 2356SOL    HW2 9469   2.018   3.927   3.666  0.4593  1.4460 -0.8922
 2356SOL    HW3 9470   2.164   3.908   3.628  0.4396 -0.0885 -0.2234
 2356SOL    MW4 9471   2.085   3.875   3.647  0.1094  0.7160 -0.1659
 2357SOL     OW 9472   4.279   3.606   4.184 -0.2201  0.2754 -0.4341
 2357SOL    HW2 9473   4.238   3.585   4.099  1.6411 -0.7280 -1.1027
 2357SOL    HW3 9474   4.270   3.701   4.192 -2.6002  0.0898 -0.5966
 2357SOL    MW4 9475   4.272   3.615   4.174 -0.2885  0.1185 -0.5441
 2358SOL     OW 9476   2.346   3.646   4.349 -0.2285 -0.6551  0.1538
 2358SOL    HW2 9477   2.286   3.599   4.408 -0.7855 -0.1692 -0.0102
 2358SOL    HW3 9478   2.316   3.622   4.261  0.2237 -0.9075  0.0687
 2358SOL    MW4 9479   2.334   3.637   4.346 -0.2422 -0.6242  0.1216
 2359SOL     OW 9480   2.634   4.664   4.405 -0.2990 -0.0601  0.6406
 2359SOL    HW2 9481   2.547   4.665   4.364  0.0684 -0.6545 -0.1563
 2359SOL    HW3 9482   2.692   4.705   4.341  0.2160 -0.7011  0.6939
 2359SOL    MW4 9483   2.630   4.669   4.391 -0.1826 -0.2231  0.5422
 2360SOL     OW 9484   2.678   0.885   3.840 -0.0140  0.1905 -0.0516
 2360SOL    HW2 9485   2.675   0.870   3.745  1.5652 -1.5626  0.1449
 2360SOL    HW3 9486   2.761   0.932   3.853 -0.0066  0.0153  0.5129
 2360SOL    MW4 9487   2.688   0.889   3.829  0.1953 -0.0640  0.0486
 2361SOL     OW 9488   4.344   0.113   3.952  0.2832  0.1257  0.0191
 2361SOL    HW2 9489   4.257   0.095   3.916  0.3356  1.4562 -0.7955
 2361SOL    HW3 9490   4.371   0.030   3.991 -0.9957 -0.5342 -0.4602
 2361SOL    MW4 9491   4.336   0.100   3.952  0.1206  0.2142 -0.1516
 2362SOL     OW 9492   0.344   2.851   4.014 -0.2368 -0.4421 -0.6903
 2362SOL    HW2 9493   0.406   2.904   4.065  0.2210 -1.1569 -0.4980
 2362SOL    HW3 9494   0.271   2.837   4.073 -0.5277  0.2950 -0.8716
 2362SOL    MW4 9495   0.343   2.856   4.029 -0.2147 -0.4392 -0.6890
 2363SOL     OW 9496   4.041   3.048   4.027 -0.3636  0.5709  0.1429
 2363SOL    HW2 9497   4.068   3.008   3.945  1.0741  0.2757  0.7373
 2363SOL    HW3 9498   4.079   2.992   4.095 -1.7615  0.6514  1.0257
 2363SOL    MW4 9499   4.050   3.035   4.025 -0.3586  0.5424  0.3381
 2364SOL     OW 9500   2.957   0.546   3.932  0.7739  0.1665 -0.2285
 2364SOL    HW2 9501   2.991   0.475   3.985 -0.8009 -1.0021 -0.7369
 2364SOL    HW3 9502   2.921   0.608   3.996 -1.2128 -1.2848  0.1254
 2364SOL    MW4 9503   2.957   0.545   3.947  0.3042 -0.1791 -0.2487
 2365SOL     OW 9504   2.146   4.302   4.175  0.5968 -0.6889 -0.2349
 2365SOL    HW2 9505   2.062   4.313   4.218  1.0443 -1.5610  0.8902
 2365SOL    HW3 9506   2.126   4.257   4.093  0.0918 -2.0414  0.6080
 2365SOL    MW4 9507   2.133   4.297   4.170  0.5891 -0.9828  0.0243
 2366SOL     OW 9508   4.377   1.522   4.084  0.0778  0.2462 -0.0039
 2366SOL    HW2 9509   4.390   1.615   4.069 -1.4577  0.6242  0.9001
 2366SOL    HW3 9510   4.391   1.510   4.179  2.3262 -0.8120 -0.4308
 2366SOL    MW4 9511   4.381   1.532   4.095  0.1717  0.1562  0.0591
 2367SOL     OW 9512   0.540   0.586   3.721 -0.6047 -0.4646  0.3558
 2367SOL    HW2 9513   0.530   0.657   3.784 -0.9796  0.5004 -0.7507
 2367SOL    HW3 9514   0.458   0.537   3.727 -0.7004 -0.2838  0.5255
 2367SOL    MW4 9515   0.528   0.589   3.730 -0.6669 -0.3135  0.2325
 2368SOL     OW 9516   3.064   1.701   4.098  0.2981  0.4172  0.0374
 2368SOL    HW2 9517   3.096   1.697   4.008 -0.6235  0.0634 -0.2881
 2368SOL    HW3 9518   3.115   1.635   4.144 -0.1979 -0.3953 -0.5558
 2368SOL    MW4 9519   3.075   1.692   4.092  0.1111  0.2635 -0.0834
 2369SOL     OW 9520   4.217   2.109   4.448  0.0990 -0.2046  0.0582
 2369SOL    HW2 9521   4.253   2.197   4.460 -0.3368  0.0409 -0.3901
 2369SOL    HW3 9522   4.158   2.097   4.522 -0.4956  0.2274 -0.3328
 2369SOL    MW4 9523   4.214   2.119   4.459 -0.0372 -0.1154 -0.0529
 2370SOL     OW 9524   1.769   3.532   4.133 -0.0864  0.3576 -0.3587
 2370SOL    HW2 9525   1.795   3.534   4.041 -0.5724  0.0793 -0.5066
 2370SOL    HW3 9526   1.732   3.445   4.145 -1.6559  1.0056 -0.3558
 2370SOL    MW4 9527   1.768   3.521   4.122 -0.3575  0.4063 -0.3781
 2371SOL     OW 9528   4.445   2.532   4.197  0.6716  0.0783 -0.1281
 2371SOL    HW2 9529   4.480   2.517   4.109 -1.1122 -0.3007 -0.7734
 2371SOL    HW3 9530   4.357   2.496   4.195 -0.5938  2.9948  0.8435
 2371SOL    MW4 9531   4.438   2.526   4.185  0.2689  0.4134 -0.0849
 2372SOL     OW 9532   1.355   3.810   4.126 -0.2212 -0.0983  0.5023
 2372SOL    HW2 9533   1.321   3.721   4.119 -2.2615  0.6518  0.3501
 2372SOL    HW3 9534   1.427   3.804   4.188  0.4017 -2.0468 -0.3828
 2372SOL    MW4 9535   1.360   3.797   4.133 -0.4084 -0.2563  0.3653
 2373SOL     OW 9536   3.379   1.217   4.214 -0.5261  0.0211  0.2938
 2373SOL    HW2 9537   3.415   1.292   4.261 -0.9221  1.7425 -2.0546
 2373SOL    HW3 9538   3.452   1.155   4.208  1.0354  1.9427 -1.2681
 2373SOL    MW4 9539   3.393   1.219   4.220 -0.3726  0.5018 -0.2222
 2374SOL     OW 9540   2.658   3.171   3.725  0.5121  0.3115 -0.2533
 2374SOL    HW2 9541   2.680   3.228   3.651 -1.2761 -0.2923 -1.2753
 2374SOL    HW3 9542   2.725   3.102   3.722  0.7591  0.5690 -0.9961
 2374SOL    MW4 9543   2.670   3.169   3.715  0.3088  0.2658 -0.4861
 2375SOL     OW 9544   4.152   3.521   4.423  0.2982 -0.3523  0.2766
 2375SOL    HW2 9545   4.187   3.550   4.339 -2.0967  0.8450 -0.3521
 2375SOL    HW3 9546   4.147   3.601   4.476  0.8681 -0.9354  1.2333
 2375SOL    MW4 9547   4.156   3.535   4.419  0.0567 -0.2716  0.3204
 2376SOL     OW 9548   3.075   3.020   3.818 -0.1823 -0.4626  0.9939
 2376SOL    HW2 9549   3.113   3.102   3.787 -0.8911 -0.1286  0.9991
 2376SOL    HW3 9550   3.032   3.043   3.900 -0.1673 -0.8924  1.1223
 2376SOL    MW4 9551   3.075   3.034   3.825 -0.2737 -0.4754  1.0116
 2377SOL     OW 9552   4.021   0.808   3.772 -0.0853 -1.0876  0.5904
 2377SOL    HW2 9553   3.993   0.820   3.682 -1.1588 -0.8554  0.9466
 2377SOL    HW3 9554   4.105   0.852   3.777 -2.1052  3.0037  0.8661
 2377SOL    MW4 9555   4.028   0.815   3.761 -0.4935 -0.5172  0.6738
 2378SOL     OW 9556   2.863   1.963   4.677  0.2540  0.3398 -0.2687
 2378SOL    HW2 9557   2.794   1.898   4.691  0.1955  0.4889  0.1343
 2378SOL    HW3 9558   2.927   1.919   4.620 -0.5015  0.4340 -1.2067
 2378SOL    MW4 9559   2.863   1.949   4.671  0.1466  0.3719 -0.3390
 2379SOL     OW 9560   3.101   3.090   4.264 -0.1787  0.0911  0.1480
 2379SOL    HW2 9561   3.119   3.133   4.348 -1.3392  1.2604 -0.1707
 2379SOL    HW3 9562   3.184   3.051   4.239  1.3826  3.4428 -0.2419
 2379SOL    MW4 9563   3.115   3.091   4.272 -0.1256  0.6878  0.0544
 2380SOL     OW 9564   3.645   4.218   3.949 -0.5230  0.4338 -0.4086
 2380SOL    HW2 9565   3.725   4.227   3.897 -0.9991  0.6822 -1.1076
 2380SOL    HW3 9566   3.664   4.146   4.010 -0.4513 -0.7894 -1.8502
 2380SOL    MW4 9567   3.658   4.209   3.950 -0.5763  0.3057 -0.6912
 2381SOL     OW 9568   1.524   0.875   4.258  0.0666  0.4198 -0.0032
 2381SOL    HW2 9569   1.553   0.826   4.334  0.7960  0.4138 -0.2782
 2381SOL    HW3 9570   1.545   0.967   4.279  0.1194  0.4362 -0.1265
 2381SOL    MW4 9571   1.530   0.881   4.271  0.1698  0.4212 -0.0553
 2382SOL     OW 9572   1.342   0.015   4.691 -0.0691 -0.4696 -0.4356
 2382SOL    HW2 9573   1.397  -0.018   4.762 -0.8264  0.0189  0.3888
 2382SOL    HW3 9574   1.404   0.035   4.620  0.6185 -1.5914 -0.1710
 2382SOL    MW4 9575   1.357   0.013   4.691 -0.0783 -0.5531 -0.2918
 2383SOL     OW 9576   1.162   2.621   4.162  0.3989 -0.0704  0.0308
 2383SOL    HW2 9577   1.184   2.620   4.256  0.0683  0.4544  0.1139
 2383SOL    HW3 9578   1.078   2.576   4.157 -0.7512  1.9856  0.2903
 2383SOL    MW4 9579   1.154   2.615   4.174  0.2035  0.2699  0.0763
 2384SOL     OW 9580   2.027   4.632   3.426 -0.2567  0.0801 -0.1723
 2384SOL    HW2 9581   2.087   4.676   3.486  1.4915  0.1504 -1.9487
 2384SOL    HW3 9582   2.016   4.544   3.462  0.1570  0.3723  0.6665
 2384SOL    MW4 9583   2.033   4.626   3.439  0.0284  0.1283 -0.2961
 2385SOL     OW 9584   3.904   2.567   3.909 -0.4417  0.2570  0.2402
 2385SOL    HW2 9585   3.862   2.626   3.847 -1.2533  0.7596  1.2500
 2385SOL    HW3 9586   3.853   2.576   3.989  1.4658  0.7155  1.4334
 2385SOL    MW4 9587   3.892   2.576   3.911 -0.2971  0.3836  0.5307
 2386SOL     OW 9588   4.151   0.085   4.479  0.1370  0.0926 -0.3181
 2386SOL    HW2 9589   4.083   0.129   4.429 -0.4266  0.8980  1.1237
 2386SOL    HW3 9590   4.200   0.156   4.521 -0.2947 -0.5834  1.4070
 2386SOL    MW4 9591   4.149   0.100   4.478  0.0057  0.1097  0.0997
 2387SOL     OW 9592   2.381   0.047   4.299  0.0472  0.1447 -0.0900
 2387SOL    HW2 9593   2.396  -0.028   4.242  0.8441 -1.1645  1.7882
 2387SOL    HW3 9594   2.315   0.017   4.361  1.3674  0.4954  1.5291
 2387SOL    MW4 9595   2.375   0.033   4.300  0.3264  0.0183  0.3715
 2388SOL     OW 9596   4.457   2.707   4.442 -0.1055 -0.1511  0.6547
 2388SOL    HW2 9597   4.463   2.673   4.352 -1.4881  2.4041 -0.4577
 2388SOL    HW3 9598   4.511   2.786   4.442  0.1524 -0.3078  2.1824
 2388SOL    MW4 9599   4.465   2.713   4.430 -0.2542  0.1657  0.7100
 2389SOL     OW 9600   0.247   1.686   4.095 -0.2112  0.3644 -0.2631
 2389SOL    HW2 9601   0.286   1.601   4.076 -1.0308  0.0642 -0.6469
 2389SOL    HW3 9602   0.237   1.728   4.010  1.2497  1.3239  0.0346
 2389SOL    MW4 9603   0.251   1.680   4.081 -0.1266  0.4514 -0.2747
 2390SOL     OW 9604   0.341   3.944   4.225 -0.3879 -0.4056 -0.4764
 2390SOL    HW2 9605   0.418   3.997   4.202 -0.7141 -0.3204 -1.4114
 2390SOL    HW3 9606   0.377   3.861   4.254  0.0837 -0.1094 -0.2012
 2390SOL    MW4 9607   0.356   3.940   4.225 -0.3687 -0.3552 -0.5636
 2391SOL     OW 9608   3.595   0.749   4.708 -0.3335 -0.1722  0.2833
 2391SOL    HW2 9609   3.590   0.678   4.645 -0.4032 -0.6436  0.8197
 2391SOL    HW3 9610   3.622   0.708   4.790 -1.6762  0.1850  0.9365
 2391SOL    MW4 9611   3.598   0.734   4.711 -0.5198 -0.1872  0.4406
 2392SOL     OW 9612   3.980   2.359   3.716 -0.0761 -0.5671  0.6170
 2392SOL    HW2 9613   3.940   2.273   3.730 -0.7846 -0.1411  1.3015
 2392SOL    HW3 9614   3.942   2.414   3.785 -0.0368  0.4287 -0.1442
 2392SOL    MW4 9615   3.970   2.355   3.727 -0.1645 -0.3796  0.6068
 2393SOL     OW 9616   3.015   3.775   4.392 -0.6401  0.2230 -0.8118
 2393SOL    HW2 9617   3.011   3.761   4.297  0.2768  2.2797 -1.1649
 2393SOL    HW3 9618   2.924   3.768   4.421 -1.0100  0.2588 -1.9358
 2393SOL    MW4 9619   3.002   3.772   4.383 -0.5677  0.4992 -1.0071
 2394SOL     OW 9620   1.160   2.788   3.748  0.0553 -0.5650 -0.2721
 2394SOL    HW2 9621   1.203   2.707   3.773 -0.2104 -0.6731 -0.1659
 2394SOL    HW3 9622   1.206   2.856   3.797  0.1355 -0.6743 -0.1959
 2394SOL    MW4 9623   1.172   2.787   3.757  0.0308 -0.5939 -0.2480
 2395SOL     OW 9624   0.170   2.848   3.789  0.1430  0.3287  0.2360
 2395SOL    HW2 9625   0.187   2.866   3.696  0.2828 -0.0973  0.1778
 2395SOL    HW3 9626   0.248   2.878   3.834  1.0276 -1.5251 -0.0185
 2395SOL    MW4 9627   0.182   2.854   3.782  0.2781  0.0277  0.1945
 2396SOL     OW 9628   3.842   2.530   4.778  0.1508  0.1894 -0.0426
 2396SOL    HW2 9629   3.922   2.572   4.809 -0.2864  0.2312  1.0619
 2396SOL    HW3 9630   3.826   2.459   4.841 -1.0587  0.6268  0.1704
 2396SOL    MW4 9631   3.850   2.526   4.791 -0.0665  0.2527  0.1311
 2397SOL     OW 9632   4.260   0.973   3.848 -0.4589  0.0365  0.0950
 2397SOL    HW2 9633   4.218   0.973   3.933 -1.0900  0.7407 -0.2136
 2397SOL    HW3 9634   4.249   1.062   3.815  1.8151  0.4238  0.2830
 2397SOL    MW4 9635   4.253   0.985   3.855 -0.2427  0.1805  0.0794
 2398SOL     OW 9636   3.169   1.483   4.224 -0.6654  0.0178 -0.1589
 2398SOL    HW2 9637   3.118   1.404   4.210 -0.8155 -0.1227  1.1396
 2398SOL    HW3 9638   3.233   1.483   4.152 -0.9710 -1.0200 -0.4410
 2398SOL    MW4 9639   3.171   1.473   4.212 -0.7253 -0.1377 -0.0248
 2399SOL     OW 9640   3.022   0.022   4.524  0.0070 -0.1923 -0.8490
 2399SOL    HW2 9641   3.039   0.043   4.432 -1.5449 -1.2430 -1.3970
 2399SOL    HW3 9642   2.956   0.086   4.551  0.0162 -0.2748 -0.6303
 2399SOL    MW4 9643   3.015   0.033   4.515 -0.1965 -0.3418 -0.8922
 2400SOL     OW 9644   0.615   4.563   3.724 -0.0417  0.0037 -0.5318
 2400SOL    HW2 9645   0.669   4.634   3.758  1.7943 -2.1255  1.1491
 2400SOL    HW3 9646   0.544   4.554   3.788  0.8441 -0.9475  0.3488
 2400SOL    MW4 9647   0.613   4.571   3.737  0.3174 -0.4025 -0.1936
 2401SOL     OW 9648   3.511   3.813   4.114  0.2034  0.4615  0.1733
 2401SOL    HW2 9649   3.476   3.793   4.027  0.4100 -1.3904  0.5041
 2401SOL    HW3 9650   3.443   3.787   4.175  1.0337 -0.5451  0.6839
 2401SOL    MW4 9651   3.498   3.807   4.111  0.3402  0.0844  0.2842
 2402SOL     OW 9652   1.991   4.434   4.594 -0.3622  0.1546 -0.2651
 2402SOL    HW2 9653   1.993   4.530   4.601 -0.7295  0.0274  2.0643
 2402SOL    HW3 9654   2.081   4.407   4.610 -0.5363  0.0397  0.5362
 2402SOL    MW4 9655   2.003   4.443   4.597 -0.4334  0.1225  0.1488
 2403SOL     OW 9656   4.014   4.592   4.214  0.3825 -0.5305  0.1172
 2403SOL    HW2 9657   3.999   4.585   4.120  3.0163 -0.3813 -0.3481
 2403SOL    HW3 9658   4.010   4.686   4.232  2.6066 -0.3322 -0.3496
 2403SOL    MW4 9659   4.011   4.604   4.204  1.0238 -0.4845 -0.0057
 2404SOL     OW 9660   0.972   3.903   4.121 -0.1664  0.0903 -0.4997
 2404SOL    HW2 9661   1.018   3.905   4.037  1.0312 -1.7963  0.0821
 2404SOL    HW3 9662   1.041   3.912   4.187 -0.9326  0.0501  0.3213
 2404SOL    MW4 9663   0.987   3.905   4.119 -0.1095 -0.1640 -0.3152
 2405SOL     OW 9664   0.441   4.354   4.098 -0.3265 -0.1544  0.1757
 2405SOL    HW2 9665   0.445   4.422   4.165 -0.0556  1.1688 -1.1488
 2405SOL    HW3 9666   0.348   4.334   4.089 -0.4618  0.4710  0.1701
 2405SOL    MW4 9667   0.430   4.360   4.105 -0.3085  0.1025  0.0005
 2406SOL     OW 9668   3.891   1.866   3.848  0.1387  0.0433  0.0267
 2406SOL    HW2 9669   3.963   1.806   3.831  1.0906  0.7499  1.4412
 2406SOL    HW3 9670   3.815   1.825   3.809  1.0063 -1.5130 -0.0418
 2406SOL    MW4 9671   3.891   1.853   3.841  0.3786 -0.0689  0.2043
 2407SOL     OW 9672   1.955   1.778   4.133 -0.6015  0.3598 -0.2604
 2407SOL    HW2 9673   2.012   1.843   4.091  0.0739 -0.4877 -0.6753
 2407SOL    HW3 9674   2.014   1.726   4.187 -0.9136 -0.7789 -0.9968
 2407SOL    MW4 9675   1.970   1.779   4.135 -0.5535  0.0978 -0.4125
 2408SOL     OW 9676   0.422   0.350   3.372 -0.3501  0.3918  0.0557
 2408SOL    HW2 9677   0.410   0.260   3.400 -1.0122  0.1434 -0.9902
 2408SOL    HW3 9678   0.337   0.392   3.389 -0.4793  0.4581 -0.7094
 2408SOL    MW4 9679   0.409   0.344   3.378 -0.4545  0.3678 -0.1831
 2409SOL     OW 9680   1.469   4.336   4.801  0.3812 -0.5620  0.4742
 2409SOL    HW2 9681   1.549   4.324   4.749 -0.2556  0.6442 -0.8282
 2409SOL    HW3 9682   1.398   4.328   4.737 -0.4190  1.1496  1.1158
 2409SOL    MW4 9683   1.470   4.333   4.786  0.1916 -0.1764  0.3872
 2410SOL     OW 9684   4.393   3.377   4.504 -0.1630 -0.1342  0.0147
 2410SOL    HW2 9685   4.313   3.429   4.504 -0.8377 -1.1241  2.3083
 2410SOL    HW3 9686   4.362   3.286   4.513  1.2502 -0.4280  2.0459
 2410SOL    MW4 9687   4.378   3.372   4.505 -0.0653 -0.3035  0.5856
 2411SOL     OW 9688   4.244   4.428   4.250  0.0550 -0.3051  0.3079
 2411SOL    HW2 9689   4.174   4.488   4.225 -0.9799 -1.7496 -0.3581
 2411SOL    HW3 9690   4.319   4.455   4.196  0.5015  2.1693  2.0662
 2411SOL    MW4 9691   4.245   4.439   4.240 -0.0229 -0.1688  0.4516
 2412SOL     OW 9692   0.554   4.122   4.199 -0.0385 -0.2581  0.1372
 2412SOL    HW2 9693   0.639   4.133   4.241 -0.4750 -1.2192  1.3031
 2412SOL    HW3 9694   0.533   4.209   4.164  0.9620  0.2307  0.7255
 2412SOL    MW4 9695   0.562   4.135   4.200  0.0359 -0.3204  0.3681
 2413SOL     OW 9696   3.299   4.202   4.628 -0.1334  0.1096 -0.0131
 2413SOL    HW2 9697   3.389   4.169   4.630 -0.3397 -0.4373  0.4134
 2413SOL    HW3 9698   3.247   4.129   4.595 -0.5823  0.0185  0.8776
 2413SOL    MW4 9699   3.304   4.188   4.624 -0.2198  0.0257  0.1602
 2414SOL     OW 9700   0.741   1.823   4.555 -0.2980 -0.1880  0.6030
 2414SOL    HW2 9701   0.771   1.786   4.472 -0.6479  0.2582  0.2753
 2414SOL    HW3 9702   0.815   1.874   4.587 -0.0579 -0.6031  0.7122
 2414SOL    MW4 9703   0.755   1.825   4.548 -0.3124 -0.1839  0.5741
 2415SOL     OW 9704   0.447   1.699   3.723  0.2095  0.3823 -0.5147
 2415SOL    HW2 9705   0.514   1.765   3.743  0.6655 -0.4974  0.9649
 2415SOL    HW3 9706   0.366   1.738   3.755  0.7671 -0.5376  2.1859
 2415SOL    MW4 9707   0.446   1.713   3.730  0.3432  0.1450  0.0367
 2416SOL     OW 9708   0.338   1.440   4.006 -0.2986 -0.1716  0.3325
 2416SOL    HW2 9709   0.410   1.477   3.955 -0.3228  0.3315  0.6647
 2416SOL    HW3 9710   0.295   1.379   3.945  0.2390 -0.2715  0.0484
 2416SOL    MW4 9711   0.342   1.437   3.991 -0.2309 -0.1185  0.3388
 2417SOL     OW 9712   1.248   2.644   4.417 -0.0923  0.2243 -0.2050
 2417SOL    HW2 9713   1.317   2.697   4.456  0.6952 -0.1455 -1.0690
 2417SOL    HW3 9714   1.237   2.570   4.478 -0.7117  1.0019  0.6418
 2417SOL    MW4 9715   1.256   2.641   4.430 -0.0700  0.2780 -0.2069
 2418SOL     OW 9716   1.080   0.492   3.741 -0.3253  0.2056  0.5411
 2418SOL    HW2 9717   1.110   0.573   3.783 -0.4998  0.2101  0.6593
 2418SOL    HW3 9718   0.989   0.483   3.770 -0.7452  0.7112 -0.5703
 2418SOL    MW4 9719   1.072   0.502   3.750 -0.4039  0.2729  0.4101
 2419SOL     OW 9720   1.691   4.375   4.603  0.1418  0.5026 -0.0635
 2419SOL    HW2 9721   1.780   4.357   4.633 -0.4914 -0.4917  1.2303
 2419SOL    HW3 9722   1.679   4.469   4.619  0.0411  0.1185  2.2061
 2419SOL    MW4 9723   1.701   4.385   4.609  0.0449  0.3209  0.4067
 2420SOL     OW 9724   1.322   3.066   4.483 -0.2753 -0.4876 -0.4680
 2420SOL    HW2 9725   1.347   2.995   4.542 -1.0579 -0.0742  0.3606
 2420SOL    HW3 9726   1.339   3.031   4.396  2.1666 -0.6115  0.0234
 2420SOL    MW4 9727   1.327   3.052   4.479 -0.0564 -0.4494 -0.2937
 2421SOL     OW 9728   3.885   4.563   3.958 -0.0526 -0.1798 -0.4070
 2421SOL    HW2 9729   3.820   4.633   3.966 -1.5156 -1.1291 -3.2559
 2421SOL    HW3 9730   3.957   4.603   3.908  0.0065 -0.1261 -0.2787
 2421SOL    MW4 9731   3.886   4.578   3.952 -0.2379 -0.2980 -0.7658
 2422SOL     OW 9732   3.983   2.242   4.095 -0.2350  0.1561  0.1058
 2422SOL    HW2 9733   4.020   2.259   4.009 -1.3122  0.0271 -0.3866
 2422SOL    HW3 9734   3.966   2.148   4.097 -1.1928  0.3246  0.0651
 2422SOL    MW4 9735   3.985   2.232   4.084 -0.5035  0.1612  0.0358
 2423SOL     OW 9736   4.448   3.261   4.247  0.6313  0.5519  0.4747
 2423SOL    HW2 9737   4.425   3.304   4.329 -0.8501  0.5700  0.0592
 2423SOL    HW3 9738   4.482   3.331   4.191 -2.3298  1.3626 -0.4143
 2423SOL    MW4 9739   4.449   3.276   4.250  0.0453  0.6614  0.3028
 2424SOL     OW 9740   4.217   4.496   4.544 -0.9296 -0.1502  0.1010
 2424SOL    HW2 9741   4.187   4.586   4.533  1.0492  0.5434  0.2416
 2424SOL    HW3 9742   4.224   4.463   4.454 -1.6206 -0.1687  0.0478
 2424SOL    MW4 9743   4.214   4.504   4.530 -0.7601 -0.0606  0.1130
 2425SOL     OW 9744   4.040   1.734   4.686  0.2141 -0.1404 -0.2694
 2425SOL    HW2 9745   4.019   1.826   4.666 -0.0668 -0.0217  0.5715
 2425SOL    HW3 9746   3.957   1.688   4.674  0.6476 -0.5116 -1.9941
 2425SOL    MW4 9747   4.026   1.740   4.682  0.2341 -0.1737 -0.3867
 2426SOL     OW 9748   1.208   2.403   4.571  0.2913  0.3687 -0.3808
 2426SOL    HW2 9749   1.253   2.330   4.528  0.7764  1.5165 -1.8673
 2426SOL    HW3 9750   1.269   2.432   4.640  0.9553  0.6199 -1.0662
 2426SOL    MW4 9751   1.222   2.397   4.575  0.4429  0.5534 -0.6671
 2427SOL     OW 9752   1.064   1.696   4.203 -0.4375  0.3652 -0.3290
 2427SOL    HW2 9753   1.090   1.604   4.199  0.7194  0.6412  0.5873
 2427SOL    HW3 9754   1.127   1.741   4.148 -0.0712  0.8026  0.4362
 2427SOL    MW4 9755   1.075   1.689   4.195 -0.2364  0.4593 -0.1073
 2428SOL     OW 9756   4.238   1.289   3.450  0.4682 -0.2929  0.4477
 2428SOL    HW2 9757   4.251   1.380   3.421  0.1189  0.1129  1.5260
 2428SOL    HW3 9758   4.322   1.247   3.434  0.9653  0.4981  0.9021
 2428SOL    MW4 9759   4.251   1.296   3.444  0.4883 -0.1351  0.6499
 2429SOL     OW 9760   1.060   3.917   3.868  0.0937  0.2721  0.4630
 2429SOL    HW2 9761   1.125   3.986   3.876 -1.9258  2.0450  2.1341
 2429SOL    HW3 9762   0.980   3.962   3.841 -0.6611 -1.7651 -0.8547
 2429SOL    MW4 9763   1.058   3.932   3.865 -0.2723  0.2370  0.5097
 2430SOL     OW 9764   0.472   0.207   3.751 -0.2121  0.2080  0.1131
 2430SOL    HW2 9765   0.429   0.148   3.813  2.5857 -0.9134  1.0369
 2430SOL    HW3 9766   0.544   0.246   3.800  0.0355  1.8657 -1.4869
 2430SOL    MW4 9767   0.476   0.205   3.765  0.1897  0.2787  0.0241
 2431SOL     OW 9768   0.230   1.809   3.852  0.0852  0.6984 -0.2360
 2431SOL    HW2 9769   0.172   1.753   3.801 -1.1765  1.1672  0.6624
 2431SOL    HW3 9770   0.226   1.894   3.808 -0.3007  0.8608  0.1069
 2431SOL    MW4 9771   0.222   1.813   3.839 -0.1322  0.7818 -0.0722
 2432SOL     OW 9772   2.009   0.960   4.224 -0.0419  0.2106  0.1659
 2432SOL    HW2 9773   1.937   0.906   4.191 -0.6853  0.5325  1.0288
 2432SOL    HW3 9774   2.068   0.898   4.266 -0.5157  0.1161  0.6925
 2432SOL    MW4 9775   2.007   0.945   4.225 -0.1893  0.2406  0.3495
 2433SOL     OW 9776   2.080   0.573   4.236  0.2832 -0.1332  0.2783
 2433SOL    HW2 9777   1.987   0.568   4.215  0.5305 -3.7596 -0.2656
 2433SOL    HW3 9778   2.121   0.607   4.157 -0.4168  0.0287 -0.0143
 2433SOL    MW4 9779   2.073   0.577   4.223  0.2236 -0.5903  0.1683
 2434SOL     OW 9780   3.811   1.159   4.318  0.3221  0.2317  0.1289
 2434SOL    HW2 9781   3.836   1.094   4.384  0.3488  0.1468  0.0351
 2434SOL    HW3 9782   3.894   1.198   4.290  0.4444 -0.7491 -0.9111
 2434SOL    MW4 9783   3.825   1.156   4.323  0.3419  0.0911 -0.0205
 2435SOL     OW 9784   1.701   3.592   4.709  0.0228  0.6347  0.5457
 2435SOL    HW2 9785   1.684   3.684   4.689  0.3829  0.5455 -0.1820
 2435SOL    HW3 9786   1.775   3.594   4.769  0.2574  0.8043  0.2516
 2435SOL    MW4 9787   1.708   3.605   4.714  0.1012  0.6452  0.4106
 2436SOL     OW 9788   3.182   0.761   4.124 -0.0540  0.0319 -0.1891
 2436SOL    HW2 9789   3.128   0.837   4.147 -0.4685  0.0041 -1.0549
 2436SOL    HW3 9790   3.270   0.784   4.156 -0.4101  0.4025  0.5369
 2436SOL    MW4 9791   3.187   0.774   4.132 -0.1557  0.0771 -0.2074
 2437SOL     OW 9792   3.340   2.970   4.157 -0.2879  0.2434 -0.5177
 2437SOL    HW2 9793   3.394   2.941   4.230 -0.4851 -0.7018 -0.7366
 2437SOL    HW3 9794   3.360   3.063   4.147  0.5542  0.1240  0.0302
 2437SOL    MW4 9795   3.350   2.979   4.166 -0.2027  0.1030 -0.4740
 2438SOL     OW 9796   1.638   0.258   4.174  0.4509  0.4082  0.6008
 2438SOL    HW2 9797   1.545   0.270   4.157  0.5522  0.2687 -0.0652
 2438SOL    HW3 9798   1.669   0.344   4.201  0.3281  0.6823 -0.1323
 2438SOL    MW4 9799   1.630   0.271   4.176  0.4481  0.4260  0.4163
 2439SOL     OW 9800   1.266   1.428   4.469 -0.3773  0.3387  0.1105
 2439SOL    HW2 9801   1.274   1.511   4.515 -0.9162  0.4340  0.0401
 2439SOL    HW3 9802   1.221   1.450   4.387 -0.5676 -0.0248  0.1159
 2439SOL    MW4 9803   1.261   1.442   4.465 -0.4735  0.3033  0.1016
 2440SOL     OW 9804   3.629   0.525   3.902 -0.1580  0.3828  0.1842
 2440SOL    HW2 9805   3.633   0.544   3.996  1.4087 -1.0384  0.4289
 2440SOL    HW3 9806   3.658   0.606   3.860 -1.6066  1.2861  0.8778
 2440SOL    MW4 9807   3.633   0.538   3.909 -0.1423  0.3145  0.3080
 2441SOL     OW 9808   1.478   4.359   4.426  0.2146  0.5038 -0.0578
 2441SOL    HW2 9809   1.477   4.434   4.367 -0.2718  0.4817 -0.0758
 2441SOL    HW3 9810   1.557   4.372   4.479 -0.1131  1.2771  0.2571
 2441SOL    MW4 9811   1.488   4.371   4.425  0.1070  0.6027 -0.0186
 2442SOL     OW 9812   0.145   2.310   4.429  0.0935  0.4588  0.2243
 2442SOL    HW2 9813   0.233   2.273   4.435  0.0960  0.4963  0.4271
 2442SOL    HW3 9814   0.154   2.399   4.461  0.0596  0.5904 -0.1368
 2442SOL    MW4 9815   0.158   2.317   4.434  0.0893  0.4809  0.2036
 2443SOL     OW 9816   2.072   1.717   4.664  0.0747  0.1841  0.4146
 2443SOL    HW2 9817   2.003   1.731   4.729  0.2926  0.8136  0.5210
 2443SOL    HW3 9818   2.074   1.799   4.614  1.5223  0.6185  1.1531
 2443SOL    MW4 9819   2.063   1.730   4.666  0.2942  0.3245  0.5264
 2444SOL     OW 9820   1.814   1.860   4.385 -0.3577 -0.3639  0.2863
 2444SOL    HW2 9821   1.769   1.777   4.402  0.2469 -1.4298 -2.8988
 2444SOL    HW3 9822   1.854   1.848   4.299  0.2789  3.0196  0.0411
 2444SOL    MW4 9823   1.813   1.847   4.376 -0.1941 -0.0583 -0.1669
 2445SOL     OW 9824   4.396   2.993   4.158  0.1283  0.1200 -0.2620
 2445SOL    HW2 9825   4.433   3.071   4.198 -0.4207  0.5799 -0.6360
 2445SOL    HW3 9826   4.408   3.006   4.064 -0.4893  0.0339 -0.3577
 2445SOL    MW4 9827   4.402   3.005   4.151 -0.0257  0.1690 -0.3238
 2446SOL     OW 9828   2.270   3.239   4.958 -0.3938  0.3605 -0.2916
 2446SOL    HW2 9829   2.252   3.248   5.051 -0.9187  0.2414 -0.3763
 2446SOL    HW3 9830   2.240   3.150   4.936  1.2842 -0.2314 -0.2222
 2446SOL    MW4 9831   2.264   3.229   4.967 -0.2415  0.2668 -0.2937
 2447SOL     OW 9832   0.161   0.473   3.952 -0.0524 -0.2317 -0.2501
 2447SOL    HW2 9833   0.230   0.529   3.989  0.7497 -0.5359 -1.2744
 2447SOL    HW3 9834   0.169   0.391   4.001 -0.6724  0.2408  0.6635
 2447SOL    MW4 9835   0.171   0.470   3.963 -0.0284 -0.2095 -0.2646
 2448SOL     OW 9836   1.867   2.307   3.737 -0.3145 -0.0705  0.2234
 2448SOL    HW2 9837   1.854   2.329   3.644 -1.2078  1.1241  0.6204
 2448SOL    HW3 9838   1.939   2.363   3.765 -1.5603  1.2528  0.8334
 2448SOL    MW4 9839   1.874   2.317   3.728 -0.5968  0.2618  0.3564
 2449SOL     OW 9840   2.663   1.778   4.659  0.5324 -0.0723 -0.1346
 2449SOL    HW2 9841   2.715   1.716   4.608 -2.7215 -3.1663  0.0947
 2449SOL    HW3 9842   2.616   1.830   4.593  1.4336  0.5464 -0.3008
 2449SOL    MW4 9843   2.663   1.777   4.644  0.2220 -0.3989 -0.1264
 2450SOL     OW 9844   4.233   4.378   3.473  0.2929  0.2483 -0.0551
 2450SOL    HW2 9845   4.216   4.390   3.566 -1.1639 -0.2334 -0.2517
 2450SOL    HW3 9846   4.166   4.317   3.444  1.9042 -1.1184 -1.0242
 2450SOL    MW4 9847   4.222   4.372   3.481  0.3128  0.0048 -0.2091
 2451SOL     OW 9848   0.578   1.503   3.889 -0.5042 -0.0189  0.0420
 2451SOL    HW2 9849   0.604   1.427   3.837 -0.8460 -0.5433  0.6229
 2451SOL    HW3 9850   0.529   1.558   3.829 -2.1409 -1.2969  0.1543
 2451SOL    MW4 9851   0.575   1.500   3.875 -0.7652 -0.2565  0.1335
 2452SOL     OW 9852   2.591   1.293   3.993 -0.1031 -0.4098  0.0331
 2452SOL    HW2 9853   2.622   1.361   3.932 -0.3595 -1.0880 -0.8664
 2452SOL    HW3 9854   2.664   1.281   4.054 -0.3634  1.2558  0.7057
 2452SOL    MW4 9855   2.605   1.300   3.993 -0.1714 -0.2795  0.0031
 2453SOL     OW 9856   4.244   3.314   3.846 -0.2636 -0.0735 -0.1296
 2453SOL    HW2 9857   4.189   3.266   3.784 -0.6945  1.5571 -1.0572
 2453SOL    HW3 9858   4.333   3.289   3.824 -0.5594 -2.1535  0.8805
 2453SOL    MW4 9859   4.248   3.304   3.835 -0.3595 -0.1326 -0.1187
 2454SOL     OW 9860   1.538   1.976   4.392  0.0544 -0.1506  0.2070
 2454SOL    HW2 9861   1.514   1.944   4.305 -0.2180 -1.4315  0.7381
 2454SOL    HW3 9862   1.632   1.988   4.388 -0.2510  2.1148 -0.9991
 2454SOL    MW4 9863   1.547   1.973   4.380 -0.0218 -0.0206  0.1178
 2455SOL     OW 9864   2.688   0.425   4.494  0.2286 -0.5389 -0.2641
 2455SOL    HW2 9865   2.672   0.520   4.493  2.1642 -0.1809  0.7118
 2455SOL    HW3 9866   2.604   0.387   4.520 -0.1479  1.0061  0.8738
 2455SOL    MW4 9867   2.675   0.433   4.497  0.4342 -0.2878  0.0148
 2456SOL     OW 9868   1.272   0.775   4.166  0.4995 -0.4182 -0.4379
 2456SOL    HW2 9869   1.331   0.821   4.226  0.6703 -0.3058 -0.6895
 2456SOL    HW3 9870   1.246   0.696   4.213 -0.2023  0.1839  0.2001
 2456SOL    MW4 9871   1.276   0.771   4.180  0.4294 -0.3239 -0.3872
 2457SOL     OW 9872   2.964   1.264   3.782  0.4650  0.1091 -0.4119
 2457SOL    HW2 9873   2.926   1.193   3.834 -1.9420  1.8310  0.3127
 2457SOL    HW3 9874   3.042   1.291   3.830  1.5423 -2.1696 -0.8274
 2457SOL    MW4 9875   2.969   1.258   3.795  0.2897  0.0355 -0.3710
 2458SOL     OW 9876   2.771   3.271   4.000  0.1863  0.2679  0.2564
 2458SOL    HW2 9877   2.735   3.279   3.912 -1.1342  0.4525  0.7946
 2458SOL    HW3 9878   2.705   3.222   4.049  1.8937 -1.7225  0.6048
 2458SOL    MW4 9879   2.757   3.266   3.995  0.2372  0.0298  0.3731
 2459SOL     OW 9880   3.061   1.294   4.525  0.3645 -0.1425  0.3523
 2459SOL    HW2 9881   3.093   1.382   4.546 -0.0170  0.5598 -1.8745
 2459SOL    HW3 9882   3.140   1.244   4.506  0.4670  0.3978 -0.7356
 2459SOL    MW4 9883   3.076   1.299   4.525  0.3278  0.0215 -0.0854
 2460SOL     OW 9884   1.916   3.831   4.669  0.2596 -0.6252  0.1379
 2460SOL    HW2 9885   1.925   3.775   4.592  0.4790 -0.0484 -0.2663
 2460SOL    HW3 9886   1.823   3.827   4.692  0.1592 -0.6556 -0.2726
 2460SOL    MW4 9887   1.905   3.823   4.662  0.2754 -0.5531  0.0305
 2461SOL     OW 9888   1.808   0.901   3.856  0.0519  0.0696 -0.1346
 2461SOL    HW2 9889   1.760   0.895   3.774 -0.6398  0.8565  0.2037
 2461SOL    HW3 9890   1.821   0.995   3.869  0.1887 -0.0534  0.6323
 2461SOL    MW4 9891   1.804   0.912   3.847 -0.0213  0.1572  0.0114
 2462SOL     OW 9892   3.612   1.356   4.339  0.1211 -0.3702 -0.2791
 2462SOL    HW2 9893   3.672   1.285   4.317  0.3848  0.0739 -1.0093
 2462SOL    HW3 9894   3.651   1.434   4.299  0.8342  0.5372  2.1054
 2462SOL    MW4 9895   3.625   1.357   4.331  0.2501 -0.1919 -0.0610
 2463SOL     OW 9896   2.533   2.461   4.649 -0.1857 -0.2013 -0.3953
 2463SOL    HW2 9897   2.594   2.507   4.591  0.4416  0.8958  1.1058
 2463SOL    HW3 9898   2.452   2.513   4.645  0.0276  0.1757  0.1053
 2463SOL    MW4 9899   2.530   2.474   4.641 -0.0749 -0.0069 -0.1311
 2464SOL     OW 9900   1.384   4.300   4.100  0.2235 -0.1163 -0.4646
 2464SOL    HW2 9901   1.455   4.352   4.062  0.1181 -0.0186 -0.5294
 2464SOL    HW3 9902   1.426   4.249   4.169 -0.0278  1.4595  0.8836
 2464SOL    MW4 9903   1.399   4.300   4.104  0.1764  0.1044 -0.2956
 2465SOL     OW 9904   0.852   3.978   3.494  0.3545  0.4676 -0.1393
 2465SOL    HW2 9905   0.766   3.947   3.467  1.0740  0.0514 -2.0238
 2465SOL    HW3 9906   0.844   3.992   3.589 -1.7932  0.5256 -0.3096
 2465SOL    MW4 9907   0.839   3.976   3.503  0.1661  0.4203 -0.4103
 2466SOL     OW 9908   3.463   2.488   4.361 -0.0805 -0.3282  0.4701
 2466SOL    HW2 9909   3.496   2.497   4.272 -0.0806  1.9031  0.6838
 2466SOL    HW3 9910   3.387   2.431   4.352  1.4035 -2.2034 -0.5812
 2466SOL    MW4 9911   3.457   2.481   4.348  0.1154 -0.2811  0.3595
 2467SOL     OW 9912   0.161   4.646   4.225 -0.3357 -0.2201 -0.4909
 2467SOL    HW2 9913   0.095   4.648   4.294  0.8513 -0.7295  0.6797
 2467SOL    HW3 9914   0.168   4.738   4.197 -1.7170 -0.2027 -0.8178
 2467SOL    MW4 9915   0.153   4.659   4.230 -0.3614 -0.2851 -0.3796
 2468SOL     OW 9916   0.549   1.619   4.609  0.2764 -0.1567  0.1964
 2468SOL    HW2 9917   0.469   1.665   4.583  0.0554 -0.9844 -0.6072
 2468SOL    HW3 9918   0.616   1.687   4.612  0.1929  0.0384 -2.0816
 2468SOL    MW4 9919   0.547   1.634   4.606  0.2362 -0.2400 -0.2103
 2469SOL     OW 9920   4.250   3.111   4.468  0.1485 -0.1549  0.7518
 2469SOL    HW2 9921   4.211   3.026   4.490  1.2807 -0.5919  1.1159
 2469SOL    HW3 9922   4.213   3.133   4.382  0.2612 -1.2848  0.4054
 2469SOL    MW4 9923   4.240   3.102   4.459  0.3123 -0.3614  0.7544
 2470SOL     OW 9924   0.554   0.790   3.934 -0.0687  0.2250 -0.6207
 2470SOL    HW2 9925   0.489   0.755   3.995  0.1342 -0.0454 -0.5593
 2470SOL    HW3 9926   0.638   0.768   3.974  0.0601  1.3966 -0.2300
 2470SOL    MW4 9927   0.557   0.783   3.947 -0.0250  0.3439 -0.5612
 2471SOL     OW 9928   1.170   3.886   4.307 -0.1939  0.0275 -0.1433
 2471SOL    HW2 9929   1.231   3.864   4.236  0.3592  0.9062  0.0573
 2471SOL    HW3 9930   1.206   3.841   4.383  0.6334  1.1514  0.1430
 2471SOL    MW4 9931   1.183   3.877   4.307 -0.0118  0.2916 -0.0782
 2472SOL     OW 9932   3.280   4.436   4.782 -0.0795 -0.4333 -0.0239
 2472SOL    HW2 9933   3.267   4.358   4.727 -0.1820 -0.5306  0.1354
 2472SOL    HW3 9934   3.198   4.445   4.830  0.6908 -1.5013  1.5672
 2472SOL    MW4 9935   3.268   4.427   4.781  0.0083 -0.5865  0.2065
 2473SOL     OW 9936   4.040   2.830   4.690 -0.4068 -0.1256  0.1152
 2473SOL    HW2 9937   4.090   2.833   4.608 -0.5093  2.9687  0.0776
 2473SOL    HW3 9938   4.095   2.780   4.750  0.7086 -0.5054 -1.1949
 2473SOL    MW4 9939   4.054   2.824   4.687 -0.2737  0.2327 -0.0629
 2474SOL     OW 9940   3.423   2.496   4.666 -0.1644 -0.4553  0.5553
 2474SOL    HW2 9941   3.424   2.490   4.570 -1.0722 -1.0688  0.5809
 2474SOL    HW3 9942   3.332   2.515   4.688  0.0732 -0.1583  1.2932
 2474SOL    MW4 9943   3.411   2.498   4.656 -0.2525 -0.4973  0.6561
 2475SOL     OW 9944   0.683   2.430   4.065 -0.3821 -0.3811 -0.3278
 2475SOL    HW2 9945   0.606   2.486   4.069 -0.2905 -0.2774  0.0875
 2475SOL    HW3 9946   0.718   2.442   3.977 -2.3331 -2.4340 -1.4488
 2475SOL    MW4 9947   0.677   2.439   4.054 -0.6275 -0.6382 -0.4206
 2476SOL     OW 9948   0.413   1.015   4.160  0.3893 -0.0393 -0.4620
 2476SOL    HW2 9949   0.364   1.000   4.241  0.4533 -1.9379 -0.7537
 2476SOL    HW3 9950   0.351   0.996   4.090  0.6538  0.5426 -0.8584
 2476SOL    MW4 9951   0.399   1.011   4.162  0.4326 -0.2130 -0.5531
 2477SOL     OW 9952   0.829   0.734   3.989 -0.3738  0.1954  0.3516
 2477SOL    HW2 9953   0.877   0.780   3.921 -1.2536  0.5597 -0.0350
 2477SOL    HW3 9954   0.864   0.769   4.071 -0.0499  0.5267  0.0752
 2477SOL    MW4 9955   0.840   0.745   3.991 -0.4472  0.2871  0.2642
 2478SOL     OW 9956   0.895   1.905   3.894 -0.2255  0.0545 -0.3698
 2478SOL    HW2 9957   0.895   1.928   3.987 -1.2148 -1.5111  0.0405
 2478SOL    HW3 9958   0.927   1.984   3.850  1.2940  0.4467  1.3755
 2478SOL    MW4 9959   0.899   1.919   3.901 -0.1556 -0.1004 -0.0854
 2479SOL     OW 9960   3.808   3.026   4.185 -0.1272 -0.3008  0.0958
 2479SOL    HW2 9961   3.835   3.076   4.262 -0.7521  0.0658  0.0797
 2479SOL    HW3 9962   3.879   3.040   4.121 -0.4392  0.8306 -0.0244
 2479SOL    MW4 9963   3.821   3.035   4.186 -0.2511 -0.1032  0.0782
 2480SOL     OW 9964   2.507   3.665   4.600 -0.5398  0.3472 -0.2578
 2480SOL    HW2 9965   2.464   3.647   4.516  0.4523 -0.9967 -0.4900
 2480SOL    HW3 9966   2.530   3.579   4.634 -0.0541  0.9377  0.9399
 2480SOL    MW4 9967   2.504   3.651   4.593 -0.3450  0.2477 -0.1311
 2481SOL     OW 9968   2.226   2.041   4.325 -0.3011  0.3294 -0.0968
 2481SOL    HW2 9969   2.155   2.017   4.385 -1.1214  0.0054 -1.1739
 2481SOL    HW3 9970   2.286   1.966   4.327 -0.7060 -0.0014 -0.2388
 2481SOL    MW4 9971   2.225   2.028   4.333 -0.4628  0.2429 -0.2575
 2482SOL     OW 9972   3.150   3.283   3.763 -0.0238 -0.5732 -0.4275
 2482SOL    HW2 9973   3.100   3.347   3.712  1.1885  1.3817  0.7689
 2482SOL    HW3 9974   3.117   3.293   3.852  1.3811 -0.3573  0.0834
 2482SOL    MW4 9975   3.139   3.293   3.768  0.3214 -0.2868 -0.2024
 2483SOL     OW 9976   3.054   0.141   3.916 -0.1915 -0.1190  0.3333
 2483SOL    HW2 9977   3.054   0.205   3.987 -0.9952  0.3148 -0.0466
 2483SOL    HW3 9978   2.965   0.145   3.881 -0.3952 -1.7862  0.6260
 2483SOL    MW4 9979   3.042   0.150   3.921 -0.3245 -0.2817  0.3221
 2484SOL     OW 9980   0.696   3.344   3.880 -0.2379  0.0761  0.0019
 2484SOL    HW2 9981   0.620   3.287   3.873  0.6295 -0.7282 -3.6877
 2484SOL    HW3 9982   0.765   3.299   3.832  1.2353  2.9778 -0.7373
 2484SOL    MW4 9983   0.695   3.331   3.873  0.0709  0.3531 -0.5825
 2485SOL     OW 9984   2.865   1.988   3.814  0.0800 -0.6059  0.8572
 2485SOL    HW2 9985   2.820   2.071   3.829 -0.0417 -0.1053 -2.0883
 2485SOL    HW3 9986   2.956   2.005   3.839  0.0840  0.4418  0.1503
 2485SOL    MW4 9987   2.871   2.001   3.820  0.0644 -0.4015  0.3753
 2486SOL     OW 9988   0.953   1.658   3.755  0.2343 -0.2553  0.6573
 2486SOL    HW2 9989   0.930   1.674   3.664 -0.2872 -0.2091  0.8002
 2486SOL    HW3 9990   0.927   1.737   3.802 -0.3641 -0.6541  1.0010
 2486SOL    MW4 9991   0.947   1.670   3.749  0.0865 -0.3020  0.7217
 2487SOL     OW 9992   2.488   1.819   3.873 -0.1817 -0.1231  0.3164
 2487SOL    HW2 9993   2.407   1.771   3.854  1.2625 -1.3894 -3.0641
 2487SOL    HW3 9994   2.469   1.909   3.847 -0.5774 -0.3930 -0.3491
 2487SOL    MW4 9995   2.475   1.824   3.867 -0.0434 -0.3259 -0.2172
 2488SOL     OW 9996   3.079   2.124   4.782 -0.4700  0.2305  0.5816
 2488SOL    HW2 9997   3.009   2.059   4.791  1.3811 -1.7460  1.1413
 2488SOL    HW3 9998   3.033   2.208   4.774 -2.9277 -1.1439 -0.3286
 2488SOL    MW4 9999   3.064   2.126   4.782 -0.5500 -0.2120  0.5350
 2489SOL     OW10000   2.225   2.955   4.909  0.7991 -0.1403  0.1832
 2489SOL    HW210001   2.197   2.978   4.820 -0.0170 -0.2106  0.4217
 2489SOL    HW310002   2.281   2.879   4.897  0.5453 -0.2593 -0.2597
 2489SOL    MW410003   2.229   2.948   4.896  0.6578 -0.1655  0.1559
 2490SOL     OW10004   4.190   1.994   4.191 -0.3060  0.0948 -0.0449
 2490SOL    HW210005   4.101   1.980   4.159 -0.2477  0.6722 -0.4680
 2490SOL    HW310006   4.179   2.023   4.282 -0.6003  1.0880 -0.3866
 2490SOL    MW410007   4.177   1.996   4.199 -0.3376  0.3021 -0.1459
 2491SOL     OW10008   4.108   0.005   3.825 -0.2718 -0.1410  0.0774
 2491SOL    HW210009   4.118  -0.081   3.784  0.6007  0.3055 -0.6748
 2491SOL    HW310010   4.072   0.060   3.755 -0.0130  0.3084  0.2960
 2491SOL    MW410011   4.105   0.001   3.810 -0.1230 -0.0234  0.0072
 2492SOL     OW10012   3.859   3.823   4.176  0.4608 -0.0433  0.0718
 2492SOL    HW210013   3.921   3.802   4.107  1.4899  0.3668  0.8554
 2492SOL    HW310014   3.914   3.845   4.252 -0.6103  1.3907  0.4635
 2492SOL    MW410015   3.874   3.823   4.177  0.4549  0.2000  0.2270
 2493SOL     OW10016   0.837   4.127   4.245 -0.7685 -0.2691 -0.1887
 2493SOL    HW210017   0.879   4.052   4.204  0.7771  0.6410 -0.2965
 2493SOL    HW310018   0.845   4.112   4.339  0.6008  0.3205 -0.1990
 2493SOL    MW410019   0.843   4.115   4.252 -0.3839 -0.0710 -0.2046
 2494SOL     OW10020   0.414   3.159   4.588  0.1278 -0.0619  0.0722
 2494SOL    HW210021   0.370   3.128   4.668  0.1621 -1.3402 -0.3952
 2494SOL    HW310022   0.484   3.096   4.574  2.2903  2.0910  0.9310
 2494SOL    MW410023   0.417   3.147   4.597  0.4176  0.0534  0.1240
 2495SOL     OW10024   0.216   3.510   4.313  0.1204  0.0342 -0.0891
 2495SOL    HW210025   0.171   3.526   4.396 -1.3851 -0.5275 -0.7732
 2495SOL    HW310026   0.148   3.524   4.246  1.1745 -0.0354 -1.1906
 2495SOL    MW410027   0.201   3.514   4.315  0.0608 -0.0489 -0.3247
 2496SOL     OW10028   0.177   0.249   4.125 -0.1466  0.1033  0.5093
 2496SOL    HW210029   0.233   0.280   4.196 -0.5210  0.5274  0.6176
 2496SOL    HW310030   0.089   0.276   4.150 -0.3995 -0.5268  0.3177
 2496SOL    MW410031   0.173   0.257   4.138 -0.2293  0.0761  0.4983
 2497SOL     OW10032   3.097   3.230   4.523 -0.7071  0.5233 -0.4644
 2497SOL    HW210033   3.049   3.308   4.495  0.7208  2.3342  1.9343
 2497SOL    HW310034   3.188   3.248   4.498 -0.4982 -0.7267 -0.6237
 2497SOL    MW410035   3.103   3.242   4.516 -0.4909  0.5975 -0.1693
 2498SOL     OW10036   3.107   3.176   4.818 -0.8971 -0.4263 -0.3699
 2498SOL    HW210037   3.185   3.209   4.861 -0.0521 -2.0044 -0.6676
 2498SOL    HW310038   3.113   3.210   4.728 -0.0068 -1.4145 -0.6905
 2498SOL    MW410039   3.118   3.185   4.812 -0.6678 -0.7651 -0.4516
 2499SOL     OW10040   0.887   3.276   4.115  0.2712 -0.6281 -0.7258
 2499SOL    HW210041   0.795   3.287   4.093  0.4087 -2.9400 -2.5135
 2499SOL    HW310042   0.905   3.349   4.175 -2.1415  1.1030 -2.0030
 2499SOL    MW410043   0.877   3.287   4.120 -0.0290 -0.7050 -1.1306
 2500SOL     OW10044   4.012   2.595   4.344 -0.4207 -0.0844  0.4139
 2500SOL    HW210045   4.062   2.665   4.387 -1.2136  0.5853  0.2700
 2500SOL    HW310046   3.965   2.553   4.415 -0.8410  0.2797  0.3528
 2500SOL    MW410047   4.012   2.599   4.359 -0.5803  0.0515  0.3867
 2501SOL     OW10048   4.177   1.727   4.404  0.0586  0.0303 -0.0461
 2501SOL    HW210049   4.238   1.801   4.405  1.2530 -0.9476  0.5994
 2501SOL    HW310050   4.132   1.733   4.488  2.2646 -1.6768  1.3033
 2501SOL    MW410051   4.179   1.738   4.415  0.5069 -0.3241  0.2174
 2502SOL     OW10052   0.928   1.306   4.134  0.2645  0.1726  0.6867
 2502SOL    HW210053   0.906   1.340   4.047  0.0885  0.5072  0.8624
 2502SOL    HW310054   0.860   1.341   4.192  0.9157  0.7302  1.1284
 2502SOL    MW410055   0.916   1.315   4.130  0.3271  0.2904  0.7687
 2503SOL     OW10056   0.656   2.879   4.238  0.4363 -0.0572  0.2376
 2503SOL    HW210057   0.636   2.966   4.274  0.1353 -0.0298  0.0036
 2503SOL    HW310058   0.728   2.895   4.177  0.6917 -0.0449  0.5407
 2503SOL    MW410059   0.663   2.893   4.235  0.4303 -0.0520  0.2465
 2504SOL     OW10060   3.123   0.673   4.387 -0.2819  0.0704  0.4228
 2504SOL    HW210061   3.147   0.680   4.295 -0.5734  1.0579  0.4169
 2504SOL    HW310062   3.183   0.732   4.432  0.6982 -1.3539  1.0307
 2504SOL    MW410063   3.134   0.682   4.381 -0.1912  0.0128  0.5021
 2505SOL     OW10064   0.807   3.109   4.396 -0.0847 -0.0474  0.6834
 2505SOL    HW210065   0.767   3.177   4.340  1.1381 -0.3743 -0.6003
 2505SOL    HW310066   0.898   3.105   4.367  0.2759 -1.0207  1.9493
 2505SOL    MW410067   0.814   3.118   4.384  0.1242 -0.2191  0.6809
 2506SOL     OW10068   0.616   0.695   4.440 -0.4318 -0.0794 -0.4006
 2506SOL    HW210069   0.574   0.744   4.511  0.2644  1.0836 -0.7602
 2506SOL    HW310070   0.643   0.763   4.378  0.2822 -0.9570 -1.0617
 2506SOL    MW410071   0.614   0.711   4.441 -0.2457 -0.0418 -0.5355
 2507SOL     OW10072   3.783   3.198   4.458 -0.0180 -0.5019 -0.3010
 2507SOL    HW210073   3.693   3.207   4.428 -0.6871 -0.1692  1.7331
 2507SOL    HW310074   3.781   3.123   4.518  0.9124 -0.1118  0.2317
 2507SOL    MW410075   3.771   3.189   4.462  0.0167 -0.4067  0.0377
 2508SOL     OW10076   1.806   2.248   4.441  0.3214 -0.4138 -0.0200
 2508SOL    HW210077   1.868   2.284   4.377 -0.4142  2.2775  0.7312
 2508SOL    HW310078   1.721   2.282   4.413 -0.0965  0.2209  1.9790
 2508SOL    MW410079   1.803   2.257   4.429  0.1690  0.0250  0.3433
 2509SOL     OW10080   4.203   2.806   4.455 -0.3996 -0.5448 -0.0857
 2509SOL    HW210081   4.184   2.827   4.364  0.0592  0.5884  0.0728
 2509SOL    HW310082   4.288   2.763   4.453 -0.5221 -0.7835 -0.2193
 2509SOL    MW410083   4.212   2.803   4.443 -0.3557 -0.4265 -0.0825
 2510SOL     OW10084   3.987   4.319   4.594  0.3244  0.3194  0.4110
 2510SOL    HW210085   3.897   4.351   4.599  0.5594  0.8901  1.1041
 2510SOL    HW310086   4.041   4.398   4.596  0.8344 -0.0055 -0.3256
 2510SOL    MW410087   3.982   4.333   4.595  0.4227  0.3514  0.4053
 2511SOL     OW10088   1.845   1.054   4.423  0.3237  0.0495 -0.6062
 2511SOL    HW210089   1.768   1.083   4.374 -0.5577 -0.4288  0.4802
 2511SOL    HW310090   1.902   1.015   4.357  0.6510  2.4167 -1.7939
 2511SOL    MW410091   1.843   1.053   4.407  0.2506  0.2987 -0.6199
 2512SOL     OW10092   4.421   3.789   4.486  0.1488 -0.2935  0.1032
 2512SOL    HW210093   4.381   3.788   4.399  0.2045 -1.0207  0.0797
 2512SOL    HW310094   4.428   3.881   4.509  1.0495 -0.0620 -1.0765
 2512SOL    MW410095   4.416   3.801   4.478  0.2747 -0.3588 -0.0553
 2513SOL     OW10096   2.756   1.932   4.079  0.2232 -0.0479 -0.4509
 2513SOL    HW210097   2.666   1.964   4.079 -0.5571 -2.1830 -1.2734
 2513SOL    HW310098   2.798   1.979   4.007 -0.1483  1.1729  0.1220
 2513SOL    MW410099   2.750   1.942   4.069  0.0713 -0.1686 -0.4840
 2514SOL     OW10100   4.135   3.527   3.957  0.0408  0.0274 -0.2867
 2514SOL    HW210101   4.177   3.450   3.919  0.0510  0.6738 -1.6226
 2514SOL    HW310102   4.058   3.492   4.001  1.4932 -1.0647  1.4553
 2514SOL    MW410103   4.131   3.512   3.958  0.2341 -0.0315 -0.2332
 2515SOL     OW10104   0.673   0.876   4.230 -0.6554 -0.4415  0.1208
 2515SOL    HW210105   0.735   0.924   4.175 -1.1370  0.8723  0.7030
 2515SOL    HW310106   0.587   0.902   4.197 -0.9164 -2.0610 -0.5226
 2515SOL    MW410107   0.670   0.885   4.218 -0.7534 -0.4818  0.1130
 2516SOL     OW10108   2.701   2.446   3.590 -0.0809  0.4714 -0.0003
 2516SOL    HW210109   2.778   2.404   3.553 -0.7284 -1.2465  0.5271
 2516SOL    HW310110   2.710   2.435   3.684 -1.2569 -0.2923  0.0393
 2516SOL    MW410111   2.712   2.439   3.597 -0.3216  0.1440  0.0744
 2517SOL     OW10112   2.230   1.704   3.846  0.5384 -0.0214  0.4402
 2517SOL    HW210113   2.202   1.647   3.917 -1.0010  0.3197  0.1209
 2517SOL    HW310114   2.227   1.648   3.768 -1.3778  0.5675  0.0573
 2517SOL    MW410115   2.226   1.689   3.845  0.0827  0.1013  0.3476
 2518SOL     OW10116   1.420   2.486   4.150  0.2074 -0.1787 -0.0123
 2518SOL    HW210117   1.335   2.529   4.149  0.1620 -0.2353  0.7327
 2518SOL    HW310118   1.414   2.420   4.081 -0.0855  0.3151 -0.4609
 2518SOL    MW410119   1.408   2.483   4.141  0.1628 -0.1209  0.0272
 2519SOL     OW10120   1.081   3.024   4.357  0.2044 -0.0239  0.7125
 2519SOL    HW210121   1.154   3.023   4.419  0.5846  2.1617  0.3401
 2519SOL    HW310122   1.110   2.968   4.285  1.2531  0.3303  0.8566
 2519SOL    MW410123   1.094   3.016   4.356  0.3928  0.3111  0.6824
 2520SOL     OW10124   0.288   2.122   3.962 -0.5264 -0.2081 -0.3425
 2520SOL    HW210125   0.309   2.214   3.952 -0.4785 -0.3540 -1.7059
 2520SOL    HW310126   0.367   2.082   3.998 -0.4851  0.2543  0.0689
 2520SOL    MW410127   0.301   2.129   3.965 -0.5147 -0.1662 -0.4683
 2521SOL     OW10128   0.235   3.227   4.346 -0.1982 -0.1991  0.0897
 2521SOL    HW210129   0.222   3.322   4.338 -1.2926 -0.2506  1.0842
 2521SOL    HW310130   0.285   3.217   4.427 -0.3289 -0.4882  0.1339
 2521SOL    MW410131   0.240   3.238   4.356 -0.3599 -0.2439  0.2265
 2522SOL     OW10132   3.266   0.278   4.205  0.3143  0.2631  0.4768
 2522SOL    HW210133   3.291   0.342   4.271  0.7041  1.8851 -1.1965
 2522SOL    HW310134   3.349   0.247   4.169  0.0820  0.7033 -0.4638
 2522SOL    MW410135   3.280   0.282   4.209  0.3350  0.5352  0.1321
 2523SOL     OW10136   2.248   2.214   3.874  0.2301 -0.0489  0.1367
 2523SOL    HW210137   2.261   2.229   3.967  2.2782 -0.6956 -0.0181
 2523SOL    HW310138   2.202   2.129   3.869  0.6587 -0.3019  0.5345
 2523SOL    MW410139   2.243   2.205   3.885  0.5567 -0.1674  0.1688
 2524SOL     OW10140   0.770   0.179   4.558 -0.3365 -0.0343 -0.4265
 2524SOL    HW210141   0.802   0.183   4.468 -1.9344  1.0329 -0.9627
 2524SOL    HW310142   0.677   0.159   4.550  0.2244 -3.6075  1.1405
 2524SOL    MW410143   0.762   0.177   4.545 -0.4733 -0.3650 -0.2904
 2525SOL     OW10144   2.651   0.030   3.983  0.4842 -0.0894  0.3863
 2525SOL    HW210145   2.692   0.028   4.069 -1.5338 -0.3973  1.3705
 2525SOL    HW310146   2.676  -0.053   3.942  1.8819  0.2896  0.4452
 2525SOL    MW410147   2.659   0.019   3.989  0.4025 -0.0801  0.5238
 2526SOL     OW10148   1.484   4.583   4.904 -0.2818 -0.7395  0.6429
 2526SOL    HW210149   1.464   4.593   4.997  0.3184 -0.7544  0.7720
 2526SOL    HW310150   1.484   4.488   4.889  0.6303 -0.7783  0.8504
 2526SOL    MW410151   1.481   4.572   4.914 -0.0823 -0.7467  0.6876
 2527SOL     OW10152   0.541   1.259   4.099  0.0090  0.2705  0.3120
 2527SOL    HW210153   0.478   1.323   4.065  0.1603  0.0573 -0.3619
 2527SOL    HW310154   0.487   1.187   4.131 -0.0970  0.1674 -0.1021
 2527SOL    MW410155   0.526   1.258   4.099  0.0150  0.2288  0.1683
 2528SOL     OW10156   0.993   0.178   4.369  0.1548 -0.3841  0.2202
 2528SOL    HW210157   1.027   0.089   4.365  0.2187 -0.3530  0.0353
 2528SOL    HW310158   1.041   0.219   4.441  1.1160 -0.0881 -0.5748
 2528SOL    MW410159   1.004   0.172   4.378  0.2899 -0.3410  0.0911
 2529SOL     OW10160   3.718   2.332   4.139  0.1594 -0.1265  0.0528
 2529SOL    HW210161   3.813   2.329   4.126  0.1462 -0.0353 -0.0684
 2529SOL    HW310162   3.696   2.424   4.128  0.0467 -0.1586  0.0092
 2529SOL    MW410163   3.728   2.344   4.136  0.1428 -0.1187  0.0310
 2530SOL     OW10164   2.477   1.109   3.816 -0.4220  0.0267  0.2677
 2530SOL    HW210165   2.542   1.042   3.835 -0.6717 -0.2366  0.2053
 2530SOL    HW310166   2.495   1.179   3.878 -0.7181 -0.4798  0.9324
 2530SOL    MW410167   2.488   1.109   3.826 -0.4938 -0.0750  0.3471
 2531SOL     OW10168   4.046   0.669   4.361 -0.0819  0.4197  0.2270
 2531SOL    HW210169   4.005   0.607   4.421  1.2813 -1.0735 -0.3224
 2531SOL    HW310170   4.055   0.750   4.412 -1.0259 -0.1147  1.2648
 2531SOL    MW410171   4.042   0.672   4.376 -0.0272  0.1523  0.2913
 2532SOL     OW10172   4.456   0.184   4.362 -0.1534  0.1081 -0.4826
 2532SOL    HW210173   4.510   0.193   4.441  0.4445  0.5722 -0.9440
 2532SOL    HW310174   4.392   0.116   4.384 -0.0005  0.2486  0.4102
 2532SOL    MW410175   4.454   0.176   4.376 -0.0539  0.1879 -0.4258
 2533SOL     OW10176   2.247   4.486   3.885 -0.4046  0.4255  0.1480
 2533SOL    HW210177   2.286   4.468   3.800  0.1136  0.6773  0.3320
 2533SOL    HW310178   2.158   4.451   3.878 -0.1138 -0.2660 -0.2312
 2533SOL    MW410179   2.240   4.479   3.873 -0.2980  0.3676  0.1221
 2534SOL     OW10180   2.802   1.605   4.197 -0.2274 -0.3572  0.3473
 2534SOL    HW210181   2.870   1.660   4.159 -1.2553  1.2556  0.7539
 2534SOL    HW310182   2.803   1.525   4.145  1.3227  0.0335 -0.2512
 2534SOL    MW410183   2.811   1.602   4.185 -0.1583 -0.0929  0.3223
 2535SOL     OW10184   3.796   2.616   4.170 -0.1008  0.5453 -0.2460
 2535SOL    HW210185   3.869   2.610   4.232 -2.8246 -1.5776  2.9770
 2535SOL    HW310186   3.741   2.686   4.205 -2.7105 -2.0265  1.0781
 2535SOL    MW410187   3.798   2.624   4.183 -0.8044 -0.0741  0.3538
 2536SOL     OW10188   0.721   1.354   4.324 -0.0513  0.3501  0.1959
 2536SOL    HW210189   0.665   1.385   4.395  0.3117  0.9115  0.2469
 2536SOL    HW310190   0.667   1.291   4.276 -0.6674  0.7528  0.3494
 2536SOL    MW410191   0.707   1.350   4.327 -0.0848  0.4772  0.2236
 2537SOL     OW10192   2.905   1.017   3.934  0.7377 -0.0044  0.5425
 2537SOL    HW210193   2.934   0.990   4.021  0.9369 -0.8936  0.2136
 2537SOL    HW310194   2.980   0.996   3.877 -0.4503 -2.1663 -0.2928
 2537SOL    MW410195   2.919   1.011   3.938  0.6073 -0.4071  0.3884
 2538SOL     OW10196   3.657   0.627   4.150 -0.3662 -0.0965  0.0158
 2538SOL    HW210197   3.696   0.553   4.196  0.1158 -0.4694 -0.9602
 2538SOL    HW310198   3.729   0.690   4.140 -0.4611 -0.0276 -0.2413
 2538SOL    MW410199   3.672   0.626   4.155 -0.3150 -0.1367 -0.1469
 2539SOL     OW10200   3.855   2.120   3.754  0.1055  0.1225 -0.4785
 2539SOL    HW210201   3.880   2.037   3.795  0.1442  1.8942  3.1861
 2539SOL    HW310202   3.775   2.147   3.799 -0.9713  1.1911 -2.9322
 2539SOL    MW410203   3.848   2.112   3.765 -0.0312  0.4973 -0.3188
 2540SOL     OW10204   0.670   1.184   4.712 -0.3859 -0.2413 -0.0395
 2540SOL    HW210205   0.684   1.133   4.792 -0.8333  0.4062  0.4556
 2540SOL    HW310206   0.730   1.145   4.649  0.1463 -0.6112  0.6785
 2540SOL    MW410207   0.680   1.172   4.715 -0.3747 -0.2046  0.1206
 2541SOL     OW10208   0.430   2.579   4.043  0.1067  0.5086  0.3718
 2541SOL    HW210209   0.392   2.664   4.022  0.7224  0.8666  0.6877
 2541SOL    HW310210   0.421   2.573   4.139  1.3945  0.8698  0.5233
 2541SOL    MW410211   0.424   2.590   4.053  0.3579  0.6034  0.4330
 2542SOL     OW10212   0.408   2.204   4.451 -0.0007  0.2059 -0.2630
 2542SOL    HW210213   0.442   2.292   4.435  1.3704 -0.2324  0.2031
 2542SOL    HW310214   0.486   2.148   4.453 -0.6669 -0.6739  1.7467
 2542SOL    MW410215   0.423   2.208   4.449  0.0922  0.0319  0.0639
 2543SOL     OW10216   1.473   3.990   4.821 -0.0756  0.1612  0.6039
 2543SOL    HW210217   1.483   4.086   4.826  0.3596  0.1425  0.1833
 2543SOL    HW310218   1.381   3.974   4.839  0.1103  0.5675  1.9603
 2543SOL    MW410219   1.462   4.001   4.824  0.0063  0.2122  0.7277
 2544SOL     OW10220   3.444   1.849   3.798 -0.6855 -0.1871 -0.1265
 2544SOL    HW210221   3.526   1.799   3.799 -0.4227  0.2564  0.8874
 2544SOL    HW310222   3.450   1.902   3.718 -0.8269 -1.5171 -1.0408
 2544SOL    MW410223   3.456   1.850   3.788 -0.6692 -0.3041 -0.1132
 2545SOL     OW10224   2.432   2.241   4.518  0.4173  0.0980  0.0631
 2545SOL    HW210225   2.339   2.244   4.540  0.5624 -1.0760  0.8456
 2545SOL    HW310226   2.471   2.311   4.571 -0.3316  2.0642 -1.9027
 2545SOL    MW410227   2.425   2.251   4.528  0.3376  0.2024 -0.0930
 2546SOL     OW10228   3.320   2.764   3.499 -0.0628  0.5796 -0.2297
 2546SOL    HW210229   3.345   2.852   3.469  0.0620 -0.1608 -2.3715
 2546SOL    HW310230   3.401   2.713   3.494 -0.3489  0.0886  0.0923
 2546SOL    MW410231   3.334   2.769   3.495 -0.0842  0.4170 -0.4702
 2547SOL     OW10232   3.048   1.243   4.244 -0.1339  0.3145  0.2955
 2547SOL    HW210233   2.957   1.239   4.215 -0.4304 -0.5088  1.2972
 2547SOL    HW310234   3.042   1.245   4.340  0.9100 -0.6055  0.3923
 2547SOL    MW410235   3.035   1.243   4.253 -0.0353  0.0844  0.4406
 2548SOL     OW10236   4.147   2.917   3.807  0.0025 -0.5470 -0.3508
 2548SOL    HW210237   4.138   2.986   3.741 -0.0199 -1.0217 -0.8459
 2548SOL    HW310238   4.241   2.915   3.826  0.1053 -0.8687 -0.8702
 2548SOL    MW410239   4.158   2.926   3.800  0.0134 -0.6521 -0.4845
 2549SOL     OW10240   0.456   4.329   4.495  0.0946  0.0601 -0.6232
 2549SOL    HW210241   0.438   4.389   4.422 -0.8268 -0.1000 -0.5413
 2549SOL    HW310242   0.426   4.244   4.464 -2.8867  0.4643  0.9007
 2549SOL    MW410243   0.449   4.326   4.481 -0.4203  0.0920 -0.4110
 2550SOL     OW10244   3.473   2.234   4.746  0.0329 -0.0943  0.5669
 2550SOL    HW210245   3.453   2.327   4.730 -0.6507 -0.3857 -0.3418
 2550SOL    HW310246   3.434   2.189   4.671  1.5434 -0.9787  0.3074
 2550SOL    MW410247   3.465   2.241   4.734  0.1421 -0.2494  0.4129
 2551SOL     OW10248   2.754   1.739   3.765 -0.3688  0.2787 -0.0307
 2551SOL    HW210249   2.676   1.738   3.820 -0.3051  1.0069  0.0842
 2551SOL    HW310250   2.795   1.823   3.784 -0.0748  0.3184 -0.8193
 2551SOL    MW410251   2.749   1.750   3.775 -0.3216  0.3800 -0.1194
 2552SOL     OW10252   1.782   2.107   4.700  0.2380 -0.1730 -0.3086
 2552SOL    HW210253   1.781   2.148   4.614 -0.4236 -1.2118 -0.8136
 2552SOL    HW310254   1.714   2.039   4.694  1.2936 -1.3055  0.5115
 2552SOL    MW410255   1.773   2.103   4.688  0.2900 -0.4594 -0.2670
 2553SOL     OW10256   3.818   1.231   3.538  0.0968 -0.1510 -0.1337
 2553SOL    HW210257   3.799   1.217   3.631 -1.2314 -2.9982 -0.7979
 2553SOL    HW310258   3.735   1.211   3.494  0.5266  1.8413 -1.9061
 2553SOL    MW410259   3.804   1.227   3.545 -0.0219 -0.2638 -0.4549
 2554SOL     OW10260   0.595   2.969   4.538 -0.5971 -0.0505 -0.1382
 2554SOL    HW210261   0.607   2.875   4.523 -0.1532 -0.2714  1.4571
 2554SOL    HW310262   0.678   3.008   4.509 -0.0752 -0.3778  0.8465
 2554SOL    MW410263   0.608   2.962   4.533 -0.4696 -0.1225  0.2017
 2555SOL     OW10264   1.529   0.699   3.413 -0.2584 -0.2379  0.3137
 2555SOL    HW210265   1.524   0.613   3.455 -0.8478 -0.2695  0.1750
 2555SOL    HW310266   1.464   0.752   3.459 -0.8821 -0.2616 -0.5298
 2555SOL    MW410267   1.520   0.695   3.424 -0.4185 -0.2452  0.1843
 2556SOL     OW10268   3.064   3.498   4.416 -0.0939  0.5181 -0.0798
 2556SOL    HW210269   3.158   3.488   4.397  0.0476  0.9543  0.3762
 2556SOL    HW310270   3.051   3.592   4.419 -1.5904  0.6465 -5.2306
 2556SOL    MW410271   3.075   3.509   4.414 -0.2728  0.5927 -0.6990
 2557SOL     OW10272   2.642   3.556   3.710 -0.2420  0.2818 -0.1184
 2557SOL    HW210273   2.628   3.643   3.748 -0.7044 -0.1310  0.6614
 2557SOL    HW310274   2.563   3.540   3.658  0.3439  0.8010 -1.2074
 2557SOL    MW410275   2.630   3.566   3.708 -0.2258  0.2956 -0.1593
 2558SOL     OW10276   3.097   3.424   3.400 -0.0434  0.6826  0.1449
 2558SOL    HW210277   3.092   3.440   3.305  1.5317  0.3489 -0.0039
 2558SOL    HW310278   3.074   3.331   3.409  0.1117  0.6347  0.0552
 2558SOL    MW410279   3.093   3.413   3.388  0.1848  0.6323  0.1135
 2559SOL     OW10280   0.808   4.545   4.684  0.4250  0.6753  0.1991
 2559SOL    HW210281   0.904   4.543   4.691  0.4070  2.4681  1.1089
 2559SOL    HW310282   0.788   4.634   4.656 -1.0170  0.4830  0.6105
 2559SOL    MW410283   0.818   4.556   4.681  0.2323  0.8869  0.3734
 2560SOL     OW10284   0.964   2.160   4.269 -0.4755 -0.6461 -0.4219
 2560SOL    HW210285   0.965   2.173   4.364 -1.1025  0.3372 -0.5428
 2560SOL    HW310286   1.057   2.156   4.245 -0.3081 -0.5620  0.1853
 2560SOL    MW410287   0.977   2.161   4.278 -0.5361 -0.5052 -0.3576
 2561SOL     OW10288   3.390   4.639   4.431 -0.0081 -0.5186  0.1699
 2561SOL    HW210289   3.336   4.560   4.428  1.5814 -1.5838 -1.0861
 2561SOL    HW310290   3.421   4.651   4.341 -0.0299  1.4055  0.3931
 2561SOL    MW410291   3.387   4.631   4.418  0.1988 -0.4053  0.0334
 2562SOL     OW10292   3.907   4.324   4.100 -0.0591  0.1094  0.3263
 2562SOL    HW210293   3.893   4.404   4.048  0.1754 -0.5457 -0.7468
 2562SOL    HW310294   3.819   4.289   4.113 -0.1616  0.5225  0.7830
 2562SOL    MW410295   3.894   4.330   4.095 -0.0417  0.0777  0.2451
 2563SOL     OW10296   4.445   4.540   4.090  0.4737 -0.6623  0.0074
 2563SOL    HW210297   4.532   4.555   4.128 -0.0382 -1.1999  1.4363
 2563SOL    HW310298   4.459   4.471   4.025  1.4160  0.4740 -1.0198
 2563SOL    MW410299   4.458   4.533   4.086  0.5302 -0.5836  0.0606
 2564SOL     OW10300   2.840   1.605   4.483 -0.2613  0.1328 -0.4087
 2564SOL    HW210301   2.841   1.644   4.396  0.6373  0.7034 -0.1564
 2564SOL    HW310302   2.780   1.531   4.476 -0.7243  0.5853 -1.3288
 2564SOL    MW410303   2.832   1.600   4.471 -0.2036  0.2679 -0.4964
 2565SOL     OW10304   2.186   0.799   4.389 -0.2539  0.6174  0.1879
 2565SOL    HW210305   2.153   0.717   4.354 -0.5769 -0.1327  2.1723
 2565SOL    HW310306   2.268   0.814   4.342  0.6905 -1.7450  1.0010
 2565SOL    MW410307   2.193   0.790   4.378 -0.1717  0.2067  0.5569
 2566SOL     OW10308   2.419   4.070   4.325  0.0628 -0.1313 -0.2688
 2566SOL    HW210309   2.492   4.031   4.373  0.3566  1.0699  0.2777
 2566SOL    HW310310   2.459   4.106   4.245 -0.3299 -1.6045 -1.1505
 2566SOL    MW410311   2.434   4.070   4.320  0.0496 -0.1678 -0.3128
 2567SOL     OW10312   1.313   2.181   4.415 -0.2973 -0.4191 -0.1971
 2567SOL    HW210313   1.350   2.094   4.430  0.4006 -0.3351 -1.3752
 2567SOL    HW310314   1.289   2.181   4.322  0.1632  0.8004 -0.3274
 2567SOL    MW410315   1.315   2.169   4.405 -0.1445 -0.2472 -0.3695
 2568SOL     OW10316   3.583   1.035   4.172 -0.1568 -0.5070 -0.0162
 2568SOL    HW210317   3.667   1.055   4.214  0.1022 -0.6337 -0.4734
 2568SOL    HW310318   3.605   1.022   4.080 -1.0375  1.9093 -0.5967
 2568SOL    MW410319   3.597   1.036   4.166 -0.2387 -0.2049 -0.1526
 2569SOL     OW10320   2.586   2.027   4.443 -0.8035 -0.0000 -0.0797
 2569SOL    HW210321   2.528   2.092   4.482  0.2780  1.9615 -1.6559
 2569SOL    HW310322   2.563   2.027   4.350 -0.6478 -1.7341 -0.1327
 2569SOL    MW410323   2.575   2.036   4.436 -0.6399  0.0300 -0.2952
 2570SOL     OW10324   4.233   1.258   3.746 -0.3787 -0.7259 -0.0492
 2570SOL    HW210325   4.304   1.308   3.785 -1.2216  0.4366  0.0191
 2570SOL    HW310326   4.237   1.278   3.653 -1.5608  0.5609  0.1622
 2570SOL    MW410327   4.243   1.267   3.739 -0.6456 -0.4028 -0.0122
 2571SOL     OW10328   0.772   1.085   4.038  0.8389  0.3808  0.0193
 2571SOL    HW210329   0.845   1.123   4.086  1.3660 -1.3748  0.6220
 2571SOL    HW310330   0.707   1.156   4.034  2.1963  1.6477  0.2682
 2571SOL    MW410331   0.773   1.099   4.044  1.0875  0.3163  0.1316
 2572SOL     OW10332   1.953   0.035   4.666  0.3085 -0.0865 -0.1372
 2572SOL    HW210333   1.859   0.021   4.676  0.3027  0.2409  0.2773
 2572SOL    HW310334   1.960   0.109   4.607  0.3085 -0.2678 -0.3643
 2572SOL    MW410335   1.941   0.043   4.660  0.3078 -0.0672 -0.1121
 2573SOL     OW10336   4.346   3.946   3.754 -0.9573  0.0745 -0.1495
 2573SOL    HW210337   4.352   3.852   3.739 -0.9841  0.1095 -0.3787
 2573SOL    HW310338   4.252   3.961   3.771 -0.5254 -0.4086  3.0175
 2573SOL    MW410339   4.334   3.935   3.754 -0.9036  0.0155  0.2382
 2574SOL     OW10340   1.313   0.429   3.872 -0.0167 -0.1016 -0.9357
 2574SOL    HW210341   1.232   0.451   3.825  1.2121  1.0089 -2.6040
 2574SOL    HW310342   1.379   0.488   3.835  1.1157  0.5556  1.9354
 2574SOL    MW410343   1.311   0.440   3.861  0.2948  0.1316 -0.7770
 2575SOL     OW10344   1.939   3.425   4.358  0.1102  0.4581  0.3589
 2575SOL    HW210345   1.974   3.500   4.405  1.4671  1.6604 -2.4347
 2575SOL    HW310346   1.884   3.463   4.290 -0.3266 -1.1442 -0.2203
 2575SOL    MW410347   1.936   3.440   4.355  0.2316  0.4053 -0.0858
 2576SOL     OW10348   2.458   0.822   4.258  0.8298 -0.1071  0.1662
 2576SOL    HW210349   2.482   0.915   4.261  0.7849 -0.1214  1.0858
 2576SOL    HW310350   2.466   0.798   4.166  1.1396  0.7330 -0.0287
 2576SOL    MW410351   2.462   0.831   4.246  0.8647  0.0018  0.2618
 2577SOL     OW10352   3.963   3.957   4.409 -0.5949 -0.1951  0.4308
 2577SOL    HW210353   3.871   3.960   4.437 -1.2600  0.4356 -1.7704
 2577SOL    HW310354   3.980   4.044   4.372  0.3480 -0.9032 -0.8377
 2577SOL    MW410355   3.953   3.969   4.408 -0.5581 -0.2053 -0.0272
 2578SOL     OW10356   2.192   2.726   4.079 -0.1765  0.3233 -0.6868
 2578SOL    HW210357   2.106   2.702   4.045 -1.3000 -0.7161  2.6975
 2578SOL    HW310358   2.249   2.654   4.054 -0.6722  0.1992 -1.4682
 2578SOL    MW410359   2.188   2.714   4.071 -0.3903  0.1698 -0.3428
 2579SOL     OW10360   4.381   1.812   4.086  0.3436 -0.2326 -0.3881
 2579SOL    HW210361   4.465   1.843   4.120  0.3248 -0.8712  0.2503
 2579SOL    HW310362   4.316   1.869   4.127  0.2789 -1.3556  1.0998
 2579SOL    MW410363   4.384   1.824   4.096  0.3328 -0.4650 -0.1073
 2580SOL     OW10364   1.693   1.975   3.954 -0.3903  0.7527  0.2370
 2580SOL    HW210365   1.778   1.970   3.909 -1.8687  0.9872 -2.6778
 2580SOL    HW310366   1.696   2.058   4.001  0.5013  1.3775 -0.8910
 2580SOL    MW410367   1.705   1.985   3.954 -0.4677  0.8662 -0.2966
 2581SOL     OW10368   1.621   2.713   3.797 -0.1212  0.3788  0.0576
 2581SOL    HW210369   1.588   2.743   3.882  0.5989  0.3105  0.3636
 2581SOL    HW310370   1.631   2.618   3.807 -0.5636  0.2932 -0.2878
 2581SOL    MW410371   1.618   2.705   3.809 -0.0846  0.3586  0.0522
 2582SOL     OW10372   0.863   0.881   3.578  0.0268  0.5313 -0.3759
 2582SOL    HW210373   0.791   0.836   3.535 -0.5189  0.3686  0.6929
 2582SOL    HW310374   0.941   0.832   3.552 -0.4568 -0.4664  0.0224
 2582SOL    MW410375   0.864   0.869   3.569 -0.1091  0.3781 -0.1826
 2583SOL     OW10376   2.135   3.370   4.736  0.5682 -0.0665 -0.9510
 2583SOL    HW210377   2.169   3.317   4.808 -0.1939 -0.2377 -0.7137
 2583SOL    HW310378   2.207   3.375   4.674  1.6268  0.9974  0.3080
 2583SOL    MW410379   2.149   3.364   4.738  0.6070  0.0515 -0.7534
 2584SOL     OW10380   2.122   1.196   4.163  0.4803  0.3738 -0.1260
 2584SOL    HW210381   2.077   1.116   4.191 -0.2375  0.4110 -1.1190
 2584SOL    HW310382   2.176   1.168   4.088  2.7793  0.1608  1.5589
 2584SOL    MW410383   2.123   1.181   4.157  0.6890  0.3505 -0.0348
 2585SOL     OW10384   2.367   1.772   4.358 -0.1902  0.3530  0.0290
 2585SOL    HW210385   2.432   1.761   4.289  0.9443  0.7595  1.0096
 2585SOL    HW310386   2.294   1.716   4.331  0.8052 -0.5782 -0.8046
 2585SOL    MW410387   2.366   1.763   4.346  0.0906  0.2837  0.0482
 2586SOL     OW10388   1.530   0.084   4.501  0.1996 -0.0778  0.3862
 2586SOL    HW210389   1.545   0.173   4.468  1.6192  0.2059  1.7544
 2586SOL    HW310390   1.535   0.029   4.423  1.5907  0.8023 -0.1789
 2586SOL    MW410391   1.533   0.088   4.486  0.5704  0.0758  0.4921
 2587SOL     OW10392   3.802   0.318   3.827 -0.0508 -0.2342  0.0573
 2587SOL    HW210393   3.721   0.361   3.852 -0.7757 -0.3164 -2.0643
 2587SOL    HW310394   3.869   0.358   3.883 -1.0259  2.1626 -0.4382
 2587SOL    MW410395   3.800   0.329   3.838 -0.2754  0.0712 -0.2880
 2588SOL     OW10396   1.186   0.543   4.300  0.4678 -0.3316 -0.3335
 2588SOL    HW210397   1.094   0.526   4.278  0.0482  1.2591  0.1993
 2588SOL    HW310398   1.234   0.481   4.245 -0.8804 -0.7091 -1.1256
 2588SOL    MW410399   1.180   0.532   4.290  0.2345 -0.1715 -0.3681
 2589SOL     OW10400   1.347   0.350   4.156 -0.2289 -0.2346  0.2636
 2589SOL    HW210401   1.340   0.394   4.071  1.6630  0.3310  0.3738
 2589SOL    HW310402   1.305   0.265   4.144 -2.2705  0.8700 -0.4949
 2589SOL    MW410403   1.341   0.345   4.143 -0.2487 -0.0142  0.1779
 2590SOL     OW10404   2.265   2.691   3.455  0.0424 -0.1847 -0.3196
 2590SOL    HW210405   2.265   2.670   3.362  1.8851  1.3749 -0.7148
 2590SOL    HW310406   2.180   2.731   3.471 -0.1598 -0.1715 -1.4028
 2590SOL    MW410407   2.254   2.693   3.445  0.2589  0.0226 -0.5150
 2591SOL     OW10408   2.410   3.400   3.952 -0.3461  0.1930  0.8057
 2591SOL    HW210409   2.494   3.439   3.977 -0.4425 -0.3456  2.0079
 2591SOL    HW310410   2.417   3.309   3.982 -1.0423 -0.0750  0.1611
 2591SOL    MW410411   2.422   3.393   3.960 -0.4504  0.0868  0.8790
 2592SOL     OW10412   1.677   2.382   4.693  0.6875 -0.3293 -0.1900
 2592SOL    HW210413   1.771   2.395   4.681  0.6988 -0.9474 -0.7666
 2592SOL    HW310414   1.669   2.293   4.727  0.3875  0.1139  0.9286
 2592SOL    MW410415   1.689   2.372   4.696  0.6493 -0.3524 -0.1187
 2593SOL     OW10416   2.064   3.653   4.506 -0.0833  0.1936 -0.4119
 2593SOL    HW210417   2.109   3.704   4.439 -0.8828  1.3998 -0.0340
 2593SOL    HW310418   2.120   3.660   4.583 -1.0833  2.0149  0.1720
 2593SOL    MW410419   2.077   3.661   4.508 -0.3204  0.5932 -0.2847
 2594SOL     OW10420   1.134   0.749   3.821 -0.2282 -0.3390  0.2480
 2594SOL    HW210421   1.077   0.825   3.828  1.3587  0.9487 -0.6307
 2594SOL    HW310422   1.217   0.777   3.859  0.9001 -1.0544 -1.6145
 2594SOL    MW410423   1.137   0.763   3.827  0.1299 -0.2635 -0.1135
 2595SOL     OW10424   2.126   1.936   3.949 -0.3177 -1.0928 -0.2220
 2595SOL    HW210425   2.050   1.960   3.896  0.0099 -2.0693 -1.1688
 2595SOL    HW310426   2.155   1.853   3.911  2.2449  0.1088 -0.9768
 2595SOL    MW410427   2.120   1.928   3.937  0.0634 -1.0632 -0.4468
 2596SOL     OW10428   2.255   3.256   3.494 -0.0436  0.4416 -0.1591
 2596SOL    HW210429   2.342   3.227   3.466 -0.6447  0.3868 -2.1093
 2596SOL    HW310430   2.257   3.252   3.589  1.5813 -1.0585 -0.2314
 2596SOL    MW410431   2.267   3.251   3.503  0.0916  0.2363 -0.4258
 2597SOL     OW10432   3.565   0.557   4.486 -0.3394  0.1179 -0.6949
 2597SOL    HW210433   3.625   0.536   4.414  0.2243 -0.8859  0.0542
 2597SOL    HW310434   3.487   0.504   4.468 -1.5261  2.3690 -2.3522
 2597SOL    MW410435   3.563   0.547   4.474 -0.4213  0.2825 -0.8149
 2598SOL     OW10436   4.447   0.668   3.953 -0.3817 -0.1707  0.4256
 2598SOL    HW210437   4.374   0.633   3.904 -0.7320  1.4493 -0.2512
 2598SOL    HW310438   4.504   0.593   3.969 -1.4920 -1.1754 -0.2639
 2598SOL    MW410439   4.445   0.654   3.949 -0.5741 -0.0896  0.2453
 2599SOL     OW10440   3.632   3.580   4.004 -0.0048 -0.0396 -0.2822
 2599SOL    HW210441   3.602   3.654   4.056 -0.9129 -1.1136  0.7534
 2599SOL    HW310442   3.554   3.552   3.955  0.4583  0.0040 -1.0544
 2599SOL    MW410443   3.618   3.586   4.004 -0.0637 -0.1760 -0.2470
 2600SOL     OW10444   0.744   3.800   4.505  0.2929 -0.4324 -0.2101
 2600SOL    HW210445   0.774   3.717   4.542 -0.6060  0.0711  1.7172
 2600SOL    HW310446   0.653   3.808   4.533 -0.0016  0.6145 -1.4218
 2600SOL    MW410447   0.736   3.790   4.514  0.1355 -0.2277 -0.1154
 2601SOL     OW10448   3.531   0.007   3.777 -0.0300 -0.4749 -0.4456
 2601SOL    HW210449   3.554   0.053   3.696  1.5607  0.1093  0.3365
 2601SOL    HW310450   3.447   0.046   3.802  0.4119  0.7296 -0.7658
 2601SOL    MW410451   3.523   0.018   3.769  0.2382 -0.2389 -0.3846
 2602SOL     OW10452   3.025   4.544   3.993  0.0016 -0.3441  0.2840
 2602SOL    HW210453   3.019   4.638   3.977 -0.4586  0.1468  3.0694
 2602SOL    HW310454   2.991   4.503   3.914  0.4211  1.8264 -1.0389
 2602SOL    MW410455   3.020   4.551   3.981 -0.0036  0.0072  0.4771
 2603SOL     OW10456   0.488   1.819   4.093 -0.4271  0.2119  0.0090
 2603SOL    HW210457   0.396   1.793   4.102 -0.4680 -0.4204 -2.0241
 2603SOL    HW310458   0.537   1.737   4.100 -0.0807  0.4358  0.2412
 2603SOL    MW410459   0.482   1.805   4.095 -0.3868  0.1578 -0.2284
 2604SOL     OW10460   1.385   3.843   4.505  0.7820 -0.1889 -0.0451
 2604SOL    HW210461   1.397   3.748   4.504  1.5421 -0.1495  2.1174
 2604SOL    HW310462   1.330   3.860   4.582 -0.3642  1.0326 -1.0982
 2604SOL    MW410463   1.379   3.833   4.515  0.7310 -0.0226  0.1011
 2605SOL     OW10464   3.976   1.474   4.463 -0.4130  0.1678  0.5440
 2605SOL    HW210465   3.906   1.512   4.517 -0.6560 -0.0923  0.4182
 2605SOL    HW310466   3.977   1.528   4.384  0.1190  0.7095  0.9164
 2605SOL    MW410467   3.967   1.486   4.460 -0.3748  0.2049  0.5770
 2606SOL     OW10468   0.882   3.190   3.739  0.0271 -0.2712  0.0284
 2606SOL    HW210469   0.899   3.216   3.648  0.3743  2.7699  0.9104
 2606SOL    HW310470   0.966   3.202   3.783 -0.6514  0.3162  1.1872
 2606SOL    MW410471   0.896   3.195   3.732 -0.0166  0.2077  0.2975
 2607SOL     OW10472   0.174   1.544   4.343 -0.2156 -0.3219 -0.6365
 2607SOL    HW210473   0.080   1.550   4.356 -0.0546 -0.0562  0.4466
 2607SOL    HW310474   0.188   1.579   4.255 -1.1625 -0.7173 -0.9522
 2607SOL    MW410475   0.164   1.550   4.333 -0.3193 -0.3390 -0.5350
 2608SOL     OW10476   3.420   3.479   3.829 -0.5751  0.2099  0.2155
 2608SOL    HW210477   3.398   3.487   3.736  0.2499 -0.3377 -0.0299
 2608SOL    HW310478   3.353   3.532   3.873  0.0215  1.8804 -0.8134
 2608SOL    MW410479   3.408   3.487   3.822 -0.3872  0.3581  0.0472
 2609SOL     OW10480   0.399   4.486   3.865 -0.0074 -0.3413 -0.3581
 2609SOL    HW210481   0.431   4.445   3.946  3.1497 -0.8931 -1.7792
 2609SOL    HW310482   0.357   4.566   3.894  0.0753 -1.0778  1.9365
 2609SOL    MW410483   0.398   4.491   3.880  0.4201 -0.5116 -0.2427
 2610SOL     OW10484   3.595   3.179   3.831  0.0348  0.0856 -0.3960
 2610SOL    HW210485   3.637   3.095   3.848  2.0365  1.1434  0.0749
 2610SOL    HW310486   3.666   3.243   3.841 -1.7774  1.9508  0.7462
 2610SOL    MW410487   3.610   3.177   3.834  0.0598  0.4711 -0.1829
 2611SOL     OW10488   3.920   0.777   4.130 -0.1140 -0.0262 -0.3669
 2611SOL    HW210489   3.961   0.733   4.204 -0.8193  0.0229  0.0599
 2611SOL    HW310490   3.961   0.738   4.053  0.9408  0.2278  0.0500
 2611SOL    MW410491   3.931   0.766   4.130 -0.0679  0.0139 -0.2556
 2612SOL     OW10492   3.726   4.390   4.564 -0.1749  0.1052 -0.1589
 2612SOL    HW210493   3.670   4.438   4.626  0.1847 -0.7176  0.8144
 2612SOL    HW310494   3.741   4.452   4.493 -1.7288  0.6020 -0.0889
 2612SOL    MW410495   3.720   4.405   4.563 -0.3324  0.0625 -0.0210
 2613SOL     OW10496   1.905   2.028   3.774  0.2002  0.4770 -0.2108
 2613SOL    HW210497   1.924   1.999   3.685 -3.1962 -0.8575 -0.5340
 2613SOL    HW310498   1.889   2.122   3.766  0.6177  0.4924 -0.8731
 2613SOL    MW410499   1.906   2.037   3.761 -0.1928  0.3030 -0.3405
 2614SOL     OW10500   3.740   2.053   4.582  0.1275  0.4557 -0.2711
 2614SOL    HW210501   3.718   2.129   4.527 -0.1098  0.6809  0.1368
 2614SOL    HW310502   3.725   2.083   4.671 -2.4034 -0.8844 -0.2274
 2614SOL    MW410503   3.735   2.067   4.586 -0.2379  0.3088 -0.2112
 2615SOL     OW10504   3.130   2.567   3.924 -0.2685  0.3449 -0.5097
 2615SOL    HW210505   3.175   2.630   3.868  1.6770  0.0063  0.6323
 2615SOL    HW310506   3.121   2.613   4.008 -2.2277  0.4695 -0.7713
 2615SOL    MW410507   3.135   2.581   3.928 -0.2704  0.3169 -0.3936
 2616SOL     OW10508   1.149   4.331   4.217  0.0749 -0.3665  0.2631
 2616SOL    HW210509   1.144   4.248   4.265  0.6315 -0.4491  0.1851
 2616SOL    HW310510   1.227   4.322   4.163  0.0875  0.1755  0.1917
 2616SOL    MW410511   1.159   4.318   4.216  0.1501 -0.3057  0.2432
 2617SOL     OW10512   3.346   1.076   3.777 -0.4793 -0.6184  0.0537
 2617SOL    HW210513   3.354   1.118   3.691  0.0509  1.1422  0.9341
 2617SOL    HW310514   3.277   1.011   3.766  0.0236 -0.8611 -1.8743
 2617SOL    MW410515   3.338   1.073   3.764 -0.3431 -0.4182 -0.0846
 2618SOL     OW10516   1.338   1.105   3.460 -0.3595 -0.0091  0.1978
 2618SOL    HW210517   1.253   1.144   3.482 -0.4572  0.6763 -1.3026
 2618SOL    HW310518   1.341   1.109   3.365  1.5850  0.4588  0.2711
 2618SOL    MW410519   1.327   1.111   3.450 -0.1156  0.1432  0.0093
 2619SOL     OW10520   3.902   1.979   4.111 -0.1191  0.0477 -0.2928
 2619SOL    HW210521   3.830   1.948   4.165 -0.5077 -0.0955 -0.8918
 2619SOL    HW310522   3.892   1.933   4.028 -1.3678  2.5834 -1.6014
 2619SOL    MW410523   3.892   1.969   4.107 -0.3352  0.3632 -0.5445
 2620SOL     OW10524   1.267   0.053   4.153  0.1459  0.0938  0.0462
 2620SOL    HW210525   1.219  -0.002   4.215 -0.8541 -1.9168 -2.4146
 2620SOL    HW310526   1.211   0.055   4.076  2.1712  1.0860 -1.4352
 2620SOL    MW410527   1.253   0.046   4.151  0.2812 -0.0405 -0.4740
 2621SOL     OW10528   1.829   3.266   3.831  0.2056 -0.0201  0.1630
 2621SOL    HW210529   1.842   3.254   3.736 -1.0145  1.2098 -0.1675
 2621SOL    HW310530   1.904   3.221   3.870  1.0965  0.0378 -1.4077
 2621SOL    MW410531   1.841   3.258   3.823  0.1622  0.1500 -0.0877
 2622SOL     OW10532   1.809   3.239   3.529  0.0155 -0.1525  0.1917
 2622SOL    HW210533   1.800   3.325   3.489 -0.6905 -0.0836  0.4882
 2622SOL    HW310534   1.727   3.194   3.507  0.3499 -0.7166  0.1016
 2622SOL    MW410535   1.797   3.244   3.521 -0.0334 -0.2179  0.2191
 2623SOL     OW10536   1.533   0.452   3.557  0.1962 -0.2195  0.2367
 2623SOL    HW210537   1.621   0.424   3.529  0.4424  0.0247  0.7570
 2623SOL    HW310538   1.549   0.504   3.636 -0.6697 -2.6609  2.0708
 2623SOL    MW410539   1.547   0.455   3.563  0.1144 -0.5094  0.5474
 2624SOL     OW10540   2.729   1.645   3.506  0.2891 -0.2974 -0.3906
 2624SOL    HW210541   2.721   1.679   3.595 -0.1670  1.1385 -0.9540
 2624SOL    HW310542   2.647   1.599   3.490 -0.3541  0.9321 -0.6671
 2624SOL    MW410543   2.717   1.644   3.516  0.1440  0.0542 -0.5014
 2625SOL     OW10544   3.348   1.485   4.010 -0.0462  0.4782  0.1900
 2625SOL    HW210545   3.309   1.535   3.938 -0.3730  0.9595  0.6960
 2625SOL    HW310546   3.315   1.396   3.998 -0.4373  0.6493 -0.0164
 2625SOL    MW410547   3.338   1.480   3.999 -0.1409  0.5642  0.2298
 2626SOL     OW10548   2.759   1.258   4.216  0.0784  0.3402  0.0283
 2626SOL    HW210549   2.763   1.307   4.298  0.6525  0.7745 -0.2519
 2626SOL    HW310550   2.709   1.180   4.237 -0.8351  1.0439  0.4849
 2626SOL    MW410551   2.753   1.255   4.229  0.0336  0.4903  0.0515
 2627SOL     OW10552   3.196   2.319   3.815  0.5389 -0.7926 -0.0162
 2627SOL    HW210553   3.183   2.402   3.860  1.0630 -1.1900  0.8901
 2627SOL    HW310554   3.291   2.305   3.817  0.4281 -1.5608  0.1125
 2627SOL    MW410555   3.207   2.328   3.821  0.5934 -0.9463  0.1202
 2628SOL     OW10556   4.326   0.739   4.196 -0.2355 -0.4600  0.1098
 2628SOL    HW210557   4.393   0.800   4.228 -0.3748 -0.1097 -0.2570
 2628SOL    HW310558   4.366   0.699   4.119  0.6354 -2.3184  1.4915
 2628SOL    MW410559   4.340   0.742   4.190 -0.1392 -0.6589  0.2432
 2629SOL     OW10560   2.996   3.695   3.801  0.1903 -0.1125  0.3167
 2629SOL    HW210561   3.017   3.719   3.891  0.0109 -0.6365  0.5009
 2629SOL    HW310562   2.950   3.612   3.809  0.4921 -0.3392 -0.2875
 2629SOL    MW410563   2.993   3.687   3.814  0.2065 -0.2115  0.2613
 2630SOL     OW10564   1.094   3.887   3.419 -0.1630  0.5513 -0.0980
 2630SOL    HW210565   1.092   3.797   3.450  1.6228  0.3690 -0.4902
 2630SOL    HW310566   1.002   3.915   3.421 -0.8042 -1.4739 -0.6094
 2630SOL    MW410567   1.082   3.879   3.424 -0.0120  0.2599 -0.2174
 2631SOL     OW10568   4.387   1.901   4.456  0.1618 -0.2120  0.1947
 2631SOL    HW210569   4.459   1.884   4.394 -0.6648  0.3610 -0.9446
 2631SOL    HW310570   4.360   1.991   4.438  0.6973  0.3822  2.2431
 2631SOL    MW410571   4.393   1.911   4.445  0.1230 -0.0581  0.3142
 2632SOL     OW10572   2.209   0.383   4.435  0.1942 -0.2598 -0.1881
 2632SOL    HW210573   2.179   0.469   4.406 -0.6130 -0.5149 -0.1243
 2632SOL    HW310574   2.232   0.337   4.355  0.3232 -0.0903 -0.2471
 2632SOL    MW410575   2.208   0.389   4.421  0.1044 -0.2711 -0.1874
 2633SOL     OW10576   3.097   4.326   4.169 -0.1310  0.0275  0.0312
 2633SOL    HW210577   3.071   4.410   4.131  0.7428  0.6078  0.7019
 2633SOL    HW310578   3.139   4.349   4.252  2.0558 -0.9234 -0.7884
 2633SOL    MW410579   3.099   4.340   4.175  0.2728 -0.0215  0.0114
 2634SOL     OW10580   1.102   4.515   4.643 -0.0828  0.2390  0.1725
 2634SOL    HW210581   1.138   4.429   4.662 -0.0290  0.4517  1.0306
 2634SOL    HW310582   1.168   4.577   4.674 -1.3464  0.6393  2.1780
 2634SOL    MW410583   1.115   4.512   4.650 -0.2426  0.3200  0.5503
 2635SOL     OW10584   3.195   1.971   4.159 -0.1127  0.6350 -0.1102
 2635SOL    HW210585   3.143   2.030   4.212  0.1569  0.7775 -0.0035
 2635SOL    HW310586   3.140   1.893   4.148 -0.0689  0.5044  0.5906
 2635SOL    MW410587   3.181   1.968   4.164 -0.0713  0.6365 -0.0033
 2636SOL     OW10588   0.093   3.566   4.546  0.3265  0.2619  0.1260
 2636SOL    HW210589   0.033   3.492   4.553  0.8340  0.0979  3.6719
 2636SOL    HW310590   0.037   3.642   4.531 -0.8300  0.0875  3.2229
 2636SOL    MW410591   0.078   3.566   4.545  0.2409  0.2170  1.0023
 2637SOL     OW10592   4.178   2.603   4.043  0.3235  0.9656 -0.4604
 2637SOL    HW210593   4.190   2.546   4.120  0.8789  0.5923 -0.8181
 2637SOL    HW310594   4.091   2.582   4.011  0.7369 -0.0838 -0.9103
 2637SOL    MW410595   4.168   2.593   4.049  0.4516  0.7777 -0.5674
 2638SOL     OW10596   4.062   1.227   4.188 -0.0263 -0.3962 -0.0122
 2638SOL    HW210597   4.082   1.133   4.187  0.7141 -0.2362 -2.0453
 2638SOL    HW310598   4.110   1.261   4.264 -1.7661 -1.9486  1.8316
 2638SOL    MW410599   4.071   1.219   4.198 -0.1578 -0.5800 -0.0372
 2639SOL     OW10600   2.982   4.400   4.577 -0.3920 -0.4641 -0.2037
 2639SOL    HW210601   2.964   4.490   4.550 -0.2988 -0.1453  0.7887
 2639SOL    HW310602   2.899   4.369   4.613  0.5627  0.4879  2.9369
 2639SOL    MW410603   2.968   4.408   4.578 -0.2539 -0.2961  0.3419
 2640SOL     OW10604   3.399   4.298   3.858  0.0308 -0.1750 -0.0108
 2640SOL    HW210605   3.493   4.281   3.870  0.2983  0.0815 -1.6647
 2640SOL    HW310606   3.357   4.213   3.869  0.7962 -0.9173 -2.6152
 2640SOL    MW410607   3.406   4.285   3.861  0.1671 -0.2389 -0.5724
 2641SOL     OW10608   2.631   3.798   3.841 -0.5823  0.2403 -0.1959
 2641SOL    HW210609   2.565   3.837   3.898 -0.0279  0.3633  0.3689
 2641SOL    HW310610   2.707   3.855   3.850 -0.5522  0.3827 -1.2283
 2641SOL    MW410611   2.632   3.810   3.850 -0.5050  0.2754 -0.2575
 2642SOL     OW10612   2.417   1.455   4.161 -0.5263 -0.2940 -0.0575
 2642SOL    HW210613   2.475   1.400   4.108 -0.2720 -1.4784  1.4229
 2642SOL    HW310614   2.443   1.545   4.139  0.0227 -0.7804 -1.4273
 2642SOL    MW410615   2.428   1.460   4.151 -0.4206 -0.5145 -0.0429
 2643SOL     OW10616   2.764   0.650   4.114 -0.0128 -0.1982  0.3113
 2643SOL    HW210617   2.680   0.679   4.080 -0.3638 -0.3286  1.0588
 2643SOL    HW310618   2.775   0.699   4.196 -0.7530 -2.3567  1.7442
 2643SOL    MW410619   2.755   0.661   4.120 -0.1569 -0.5001  0.5994
 2644SOL     OW10620   2.409   0.476   3.586 -0.2963  0.2686  0.2536
 2644SOL    HW210621   2.423   0.491   3.680 -0.3327  1.0655  0.1342
 2644SOL    HW310622   2.490   0.437   3.556 -0.8534 -1.4513  0.9292
 2644SOL    MW410623   2.421   0.473   3.595 -0.3746  0.1468  0.3271
 2645SOL     OW10624   4.488   3.228   3.768  0.2309 -0.3105 -0.2487
 2645SOL    HW210625   4.572   3.254   3.805 -0.2706 -0.2881  0.8997
 2645SOL    HW310626   4.502   3.229   3.674  1.5568 -0.4419 -0.0612
 2645SOL    MW410627   4.501   3.232   3.761  0.3397 -0.3247 -0.0725
 2646SOL     OW10628   1.385   0.816   3.928  0.0429 -0.1413  0.1580
 2646SOL    HW210629   1.423   0.902   3.948  1.6056 -1.1968  1.9359
 2646SOL    HW310630   1.346   0.787   4.010 -0.3752 -1.1993 -0.4002
 2646SOL    MW410631   1.385   0.824   3.941  0.1940 -0.4202  0.3188
 2647SOL     OW10632   4.449   1.425   3.817  1.0305  0.3847  0.0473
 2647SOL    HW210633   4.488   1.500   3.772  0.6103  1.2006  1.0324
 2647SOL    HW310634   4.422   1.460   3.902  0.0558 -0.6807  0.1759
 2647SOL    MW410635   4.451   1.440   3.822  0.8469  0.3518  0.1941
 2648SOL     OW10636   3.306   3.503   3.566  0.2262 -0.5159 -0.4322
 2648SOL    HW210637   3.239   3.478   3.502 -0.3387 -0.6645  0.2064
 2648SOL    HW310638   3.277   3.588   3.599 -1.1099 -1.7739  1.7865
 2648SOL    MW410639   3.293   3.511   3.562 -0.0248 -0.7017 -0.0551
 2649SOL     OW10640   1.561   3.187   3.777  0.2092 -0.2376 -0.0224
 2649SOL    HW210641   1.534   3.279   3.785  0.7884 -0.1138  0.5707
 2649SOL    HW310642   1.654   3.188   3.801  0.0447 -1.0881  0.6257
 2649SOL    MW410643   1.570   3.200   3.781  0.2639 -0.3335  0.1414
 2650SOL     OW10644   3.758   2.801   3.504 -0.5921 -0.2626  0.5873
 2650SOL    HW210645   3.794   2.807   3.593 -2.6665 -0.0096  1.4279
 2650SOL    HW310646   3.757   2.891   3.472  1.9765 -0.5603 -0.4733
 2650SOL    MW410647   3.763   2.814   3.512 -0.5269 -0.2685  0.5581
 2651SOL     OW10648   1.874   3.859   4.260 -0.1541  0.3556  0.1670
 2651SOL    HW210649   1.969   3.855   4.271  0.0747  0.1574 -1.7196
 2651SOL    HW310650   1.852   3.951   4.279  0.6487  0.8202 -1.0799
 2651SOL    MW410651   1.884   3.871   4.264 -0.0181  0.3905 -0.2465
 2652SOL     OW10652   2.387   4.145   3.866  0.1537 -0.1663 -0.3187
 2652SOL    HW210653   2.293   4.163   3.870  0.1494  0.0419 -1.3335
 2652SOL    HW310654   2.396   4.059   3.907 -0.6842 -0.9230 -1.6920
 2652SOL    MW410655   2.376   4.136   3.872  0.0427 -0.2389 -0.6340
 2653SOL     OW10656   2.012   0.557   3.819 -0.1312 -0.2817 -0.2901
 2653SOL    HW210657   2.042   0.475   3.858 -0.6600 -1.0763 -1.4895
 2653SOL    HW310658   2.085   0.617   3.829  0.0727 -0.7441  1.0674
 2653SOL    MW410659   2.025   0.554   3.825 -0.1743 -0.4476 -0.2692
 2654SOL     OW10660   0.917   2.716   3.876  0.2864  0.0860  0.1772
 2654SOL    HW210661   1.003   2.741   3.842 -0.0656 -1.8913 -2.2591
 2654SOL    HW310662   0.866   2.797   3.875  0.9046  0.4890 -2.2026
 2654SOL    MW410663   0.922   2.730   3.872  0.3215 -0.1218 -0.4582
 2655SOL     OW10664   0.468   3.773   4.575 -0.0212  0.1366 -0.0789
 2655SOL    HW210665   0.437   3.757   4.486 -1.2446  1.5094  0.0723
 2655SOL    HW310666   0.423   3.708   4.629 -0.4666  0.2848 -0.2674
 2655SOL    MW410667   0.458   3.762   4.570 -0.2414  0.3374 -0.0839
 2656SOL     OW10668   1.341   0.165   3.789 -0.5280 -0.1172 -0.3428
 2656SOL    HW210669   1.319   0.164   3.696 -1.1738 -1.3916 -0.1836
 2656SOL    HW310670   1.331   0.257   3.814  0.5145  0.3944 -1.7153
 2656SOL    MW410671   1.337   0.177   3.780 -0.4758 -0.2178 -0.5028
 2657SOL     OW10672   3.264   2.118   4.566  0.4495 -0.7546  0.4287
 2657SOL    HW210673   3.250   2.035   4.521 -2.3772  0.2919 -0.7622
 2657SOL    HW310674   3.209   2.112   4.644  1.5328 -0.6373  1.2078
 2657SOL    MW410675   3.255   2.106   4.570  0.2193 -0.6008  0.3743
 2658SOL     OW10676   0.012   0.865   3.773  0.3722 -0.0826  0.6071
 2658SOL    HW210677  -0.011   0.782   3.814 -1.9506 -0.5805 -1.5376
 2658SOL    HW310678  -0.060   0.924   3.796 -0.6585 -0.2042 -2.1559
 2658SOL    MW410679  -0.001   0.862   3.781 -0.0703 -0.1643 -0.0403
 2659SOL     OW10680   2.477   0.243   3.930 -0.6333  0.1835  0.0489
 2659SOL    HW210681   2.532   0.174   3.966  0.9342 -0.1190 -2.7519
 2659SOL    HW310682   2.389   0.205   3.929 -0.3938 -0.4645  1.6967
 2659SOL    MW410683   2.472   0.229   3.934 -0.3948  0.0581 -0.1030
 2660SOL     OW10684   0.079   3.677   3.907  0.5016  0.0263 -0.1030
 2660SOL    HW210685   0.001   3.670   3.852  0.5836 -1.6639 -0.0056
 2660SOL    HW310686   0.096   3.771   3.912 -1.6135  0.4283 -0.0167
 2660SOL    MW410687   0.071   3.689   3.901  0.2333 -0.1435 -0.0789
 2661SOL     OW10688   1.102   4.641   3.405  0.2971 -0.1700  0.5906
 2661SOL    HW210689   1.113   4.550   3.435  0.7588 -0.1823  0.3809
 2661SOL    HW310690   1.135   4.641   3.316 -0.1912  0.0908  0.4067
 2661SOL    MW410691   1.108   4.629   3.398  0.2935 -0.1369  0.5386
 2662SOL     OW10692   2.248   3.243   3.762 -0.2596 -0.0872 -0.2448
 2662SOL    HW210693   2.291   3.315   3.809 -0.2349  0.1376 -0.6087
 2662SOL    HW310694   2.316   3.176   3.754 -0.6807 -0.7079  1.3014
 2662SOL    MW410695   2.263   3.244   3.767 -0.3121 -0.1395 -0.0889
 2663SOL     OW10696   2.478   2.094   3.780 -0.1017  0.0263 -0.1492
 2663SOL    HW210697   2.406   2.152   3.801 -0.3261 -0.3664  0.1729
 2663SOL    HW310698   2.555   2.135   3.821  0.2559  1.5458 -2.2435
 2663SOL    MW410699   2.479   2.107   3.788 -0.0842  0.1752 -0.3829
 2664SOL     OW10700   3.862   4.157   3.808  0.1379 -0.5003  0.5369
 2664SOL    HW210701   3.949   4.117   3.809  0.3859 -0.1042 -1.4895
 2664SOL    HW310702   3.868   4.223   3.739 -1.4124  0.3595  1.2172
 2664SOL    MW410703   3.874   4.160   3.799 -0.0339 -0.3343  0.3593
 2665SOL     OW10704   1.923   2.343   4.046  0.1586  0.0759 -0.1058
 2665SOL    HW210705   2.007   2.299   4.039  0.5855  0.5875  1.5908
 2665SOL    HW310706   1.937   2.429   4.007  0.7930  0.6334  1.3238
 2665SOL    MW410707   1.936   2.349   4.040  0.2987  0.2170  0.3066
 2666SOL     OW10708   0.077   2.582   3.936  0.4589 -0.4503 -0.3925
 2666SOL    HW210709   0.128   2.661   3.921 -0.0765 -0.2336 -1.0794
 2666SOL    HW310710   0.001   2.591   3.879  0.1438 -1.2284 -0.1035
 2666SOL    MW410711   0.074   2.594   3.927  0.3467 -0.5245 -0.4447
 2667SOL     OW10712   3.437   4.602   4.147 -0.2383 -0.2015 -0.1390
 2667SOL    HW210713   3.377   4.598   4.072 -0.7863  0.1408  0.2817
 2667SOL    HW310714   3.464   4.694   4.151  0.5659 -0.4153 -0.5188
 2667SOL    MW410715   3.433   4.614   4.137 -0.2046 -0.1845 -0.1335
 2668SOL     OW10716   0.260   1.751   4.531 -0.2484 -0.3308  0.0467
 2668SOL    HW210717   0.232   1.683   4.469 -0.6027  0.4672 -0.6899
 2668SOL    HW310718   0.295   1.820   4.475 -0.4537  0.3478  0.7563
 2668SOL    MW410719   0.261   1.751   4.515 -0.3222 -0.1359  0.0429
 2669SOL     OW10720   2.131   4.009   4.587  0.0831  0.4749  0.1506
 2669SOL    HW210721   2.050   3.965   4.611 -0.1167  0.2695 -0.8824
 2669SOL    HW310722   2.200   3.958   4.630 -0.2659  0.1433  0.3197
 2669SOL    MW410723   2.129   3.996   4.596  0.0110  0.4041  0.0362
 2670SOL     OW10724   2.112   2.436   3.752  0.0628  0.4435  0.3605
 2670SOL    HW210725   2.144   2.447   3.663 -1.0562 -0.1039 -0.1149
 2670SOL    HW310726   2.157   2.358   3.785 -1.3289 -0.7784 -0.5689
 2670SOL    MW410727   2.122   2.427   3.745 -0.2685  0.2100  0.1752
 2671SOL     OW10728   3.584   1.838   4.476  0.2295 -0.1524 -0.0791
 2671SOL    HW210729   3.489   1.848   4.471  0.2546 -0.6206 -1.7510
 2671SOL    HW310730   3.616   1.921   4.511 -0.8190 -0.1171  0.8007
 2671SOL    MW410731   3.576   1.850   4.480  0.0944 -0.2095 -0.1841
 2672SOL     OW10732   0.418   1.008   4.631  0.2268 -0.0232  0.4224
 2672SOL    HW210733   0.478   1.064   4.679  0.1512 -0.3656  0.9200
 2672SOL    HW310734   0.345   0.994   4.691 -0.3998  0.4773 -0.2187
 2672SOL    MW410735   0.416   1.014   4.645  0.1341 -0.0023  0.4039
 2673SOL     OW10736   1.576   0.685   4.473  0.0746  0.1965 -0.4225
 2673SOL    HW210737   1.486   0.657   4.493 -0.7626  1.8964 -1.7403
 2673SOL    HW310738   1.630   0.610   4.500 -1.7807 -1.1264 -0.2450
 2673SOL    MW410739   1.571   0.671   4.479 -0.2805  0.2463 -0.5727
 2674SOL     OW10740   2.795   1.467   3.896 -0.6277  0.1635  0.4537
 2674SOL    HW210741   2.849   1.418   3.834 -2.0718 -0.7808 -0.0829
 2674SOL    HW310742   2.814   1.558   3.877 -1.4274 -0.0909 -1.7615
 2674SOL    MW410743   2.805   1.472   3.885 -0.9239  0.0054  0.0908
 2675SOL     OW10744   3.961   1.319   4.688  0.2380 -0.0837  0.1842
 2675SOL    HW210745   4.000   1.346   4.605  0.2078 -0.1811  0.1380
 2675SOL    HW310746   3.867   1.326   4.673  0.2372  0.1089  0.2808
 2675SOL    MW410747   3.954   1.324   4.675  0.2339 -0.0710  0.1907
 2676SOL     OW10748   2.711   0.111   3.517  0.2345  0.2492  0.5244
 2676SOL    HW210749   2.733   0.052   3.445  0.1596  1.1024 -0.2044
 2676SOL    HW310750   2.694   0.195   3.475 -0.8106  0.5048  1.4432
 2676SOL    MW410751   2.712   0.114   3.502  0.0868  0.3955  0.5496
 2677SOL     OW10752   0.875   1.114   4.514 -0.0092  0.2642 -0.0084
 2677SOL    HW210753   0.968   1.134   4.522 -0.1593  0.9598 -0.0002
 2677SOL    HW310754   0.837   1.190   4.469 -0.7737  0.5056  1.0267
 2677SOL    MW410755   0.882   1.126   4.509 -0.1299  0.3878  0.1297
 2678SOL     OW10756   3.272   4.043   3.915  0.1563  0.2035  0.4662
 2678SOL    HW210757   3.272   4.057   4.010 -0.8896 -1.9408  0.8063
 2678SOL    HW310758   3.185   4.070   3.887 -0.1837 -0.9239  0.4102
 2678SOL    MW410759   3.260   4.049   3.924 -0.0267 -0.2279  0.5038
 2679SOL     OW10760   0.613   3.327   4.262  0.6484  0.2092 -0.1092
 2679SOL    HW210761   0.577   3.400   4.212 -1.4726 -0.5654  0.2218
 2679SOL    HW310762   0.595   3.350   4.353 -0.3398 -0.8761 -0.0223
 2679SOL    MW410763   0.606   3.340   4.268  0.2382 -0.0362 -0.0544
 2680SOL     OW10764   0.770   3.738   4.240 -0.8503  0.6492  0.3095
 2680SOL    HW210765   0.768   3.772   4.329  2.0478 -1.4473  1.2322
 2680SOL    HW310766   0.842   3.786   4.198 -0.7279  0.0028 -0.2201
 2680SOL    MW410767   0.779   3.749   4.246 -0.4517  0.2875  0.3614
 2681SOL     OW10768   3.221   4.414   4.420  0.0622 -0.2956 -0.0031
 2681SOL    HW210769   3.272   4.342   4.457  0.0569  0.3397  1.2396
 2681SOL    HW310770   3.158   4.438   4.488 -0.8761 -0.0484 -0.9431
 2681SOL    MW410771   3.219   4.408   4.434 -0.0625 -0.1793  0.0372
 2682SOL     OW10772   0.116   0.471   4.437  0.4644 -0.0185  0.0338
 2682SOL    HW210773   0.091   0.458   4.528  1.4746 -0.6666  0.2287
 2682SOL    HW310774   0.185   0.407   4.422  0.0134 -0.1991 -1.3130
 2682SOL    MW410775   0.122   0.461   4.447  0.5382 -0.1279 -0.1183
 2683SOL     OW10776   0.815   4.355   3.796 -0.0058 -0.6998  0.4662
 2683SOL    HW210777   0.755   4.427   3.775  1.3948  0.2935 -0.2067
 2683SOL    HW310778   0.836   4.367   3.889 -0.6483 -0.9150  0.6438
 2683SOL    MW410779   0.810   4.366   3.806  0.0942 -0.5970  0.4008
 2684SOL     OW10780   4.090   0.874   4.529 -0.6466  0.2106  0.1342
 2684SOL    HW210781   4.014   0.924   4.558 -0.4321  0.2116  0.7005
 2684SOL    HW310782   4.163   0.936   4.532 -0.6387  0.2342 -0.4972
 2684SOL    MW410783   4.089   0.889   4.533 -0.6170  0.2138  0.1254
 2685SOL     OW10784   0.520   2.416   3.726 -0.1530  0.5973  0.0279
 2685SOL    HW210785   0.439   2.402   3.775 -1.3105 -0.7515 -2.1966
 2685SOL    HW310786   0.491   2.434   3.636  1.9967  0.3366 -0.7462
 2685SOL    MW410787   0.505   2.416   3.721 -0.0221  0.3848 -0.3679
 2686SOL     OW10788   0.475   1.025   3.809 -0.1982  0.1796 -0.1548
 2686SOL    HW210789   0.535   0.969   3.857 -0.1656 -0.9695 -1.4959
 2686SOL    HW310790   0.390   1.012   3.850  0.1278  0.4181  0.5914
 2686SOL    MW410791   0.472   1.016   3.820 -0.1509  0.0595 -0.2332
 2687SOL     OW10792   1.332   1.459   3.966 -0.1398 -0.5368  0.1180
 2687SOL    HW210793   1.292   1.522   3.907  1.2196  1.4616  1.2933
 2687SOL    HW310794   1.356   1.385   3.909  0.3677  0.9808 -1.6771
 2687SOL    MW410795   1.330   1.457   3.951  0.1067 -0.0728  0.0360
 2688SOL     OW10796   2.242   1.089   3.939  0.3146 -0.4184 -0.3433
 2688SOL    HW210797   2.326   1.078   3.895  0.6712 -0.8877  0.4389
 2688SOL    HW310798   2.191   1.012   3.914  0.0485 -0.0471 -0.9580
 2688SOL    MW410799   2.246   1.077   3.930  0.3264 -0.4312 -0.3211
 2689SOL     OW10800   0.608   0.057   4.256  0.4565  0.3267 -0.3595
 2689SOL    HW210801   0.640   0.142   4.225  1.6026  0.6854  1.7427
 2689SOL    HW310802   0.683  -0.002   4.243  0.5127  0.2023  0.5328
 2689SOL    MW410803   0.622   0.060   4.250  0.6152  0.3576  0.0353
 2690SOL     OW10804   0.163   0.227   4.766  0.3394 -0.3096 -0.2042
 2690SOL    HW210805   0.130   0.315   4.781 -0.7195 -0.4542 -1.5399
 2690SOL    HW310806   0.227   0.213   4.836 -0.6906  0.8842  1.0173
 2690SOL    MW410807   0.167   0.237   4.777  0.0638 -0.1711 -0.2189
 2691SOL     OW10808   1.806   0.092   3.554 -0.0493  0.0111  0.5451
 2691SOL    HW210809   1.872   0.038   3.509 -0.4569 -1.3662  1.5670
 2691SOL    HW310810   1.724   0.072   3.509 -0.1340  0.0860  0.6659
 2691SOL    MW410811   1.804   0.082   3.542 -0.1141 -0.1607  0.6959
 2692SOL     OW10812   1.123   0.014   3.904 -0.6381 -0.0565 -0.4315
 2692SOL    HW210813   1.131  -0.079   3.883 -0.2675 -0.3023  0.7350
 2692SOL    HW310814   1.200   0.054   3.863 -0.5134 -0.3506 -0.4878
 2692SOL    MW410815   1.135   0.007   3.896 -0.5728 -0.1273 -0.2849
 2693SOL     OW10816   1.095   1.211   3.774 -0.4508  0.2375  0.2107
 2693SOL    HW210817   1.039   1.135   3.788 -0.1336 -0.3028 -1.3384
 2693SOL    HW310818   1.046   1.284   3.813 -1.0283 -0.6514  1.1748
 2693SOL    MW410819   1.081   1.211   3.781 -0.4851  0.0489  0.1335
 2694SOL     OW10820   1.761   4.070   4.410  0.2669 -0.2185  0.6387
 2694SOL    HW210821   1.762   4.098   4.501  0.6208 -2.1189  1.2477
 2694SOL    HW310822   1.668   4.059   4.388  0.1316  1.2930  0.4179
 2694SOL    MW410823   1.749   4.072   4.419  0.2959 -0.2699  0.6900
 2695SOL     OW10824   1.414   4.039   3.779  0.1735  0.6029 -0.4520
 2695SOL    HW210825   1.384   4.004   3.696 -0.5760 -0.7010  0.3456
 2695SOL    HW310826   1.342   4.094   3.809 -0.0656  0.0959 -0.0912
 2695SOL    MW410827   1.400   4.042   3.772  0.0429  0.3638 -0.2992
 2696SOL     OW10828   0.197   2.566   4.502  0.1630 -0.1496  0.0751
 2696SOL    HW210829   0.208   2.573   4.596 -1.1142 -1.4494  0.3446
 2696SOL    HW310830   0.125   2.626   4.481  0.8408  0.5884 -0.1709
 2696SOL    MW410831   0.189   2.575   4.511  0.0839 -0.2239  0.0782
 2697SOL     OW10832   4.167   3.753   4.590 -0.0944  0.1856  0.0834
 2697SOL    HW210833   4.144   3.830   4.642 -0.7148 -0.1934  0.3845
 2697SOL    HW310834   4.261   3.759   4.578 -0.0450  0.6422  0.6806
 2697SOL    MW410835   4.176   3.764   4.596 -0.1698  0.1960  0.2022
 2698SOL     OW10836   1.453   2.293   3.947 -0.8854  0.1857  0.4675
 2698SOL    HW210837   1.437   2.227   3.880 -1.2210  0.9811 -0.2584
 2698SOL    HW310838   1.526   2.259   3.999  0.3589  0.2306 -1.2122
 2698SOL    MW410839   1.460   2.280   3.945 -0.7654  0.2966  0.1500
 2699SOL     OW10840   2.094   0.872   3.818  0.3797  0.1590  0.3830
 2699SOL    HW210841   1.998   0.872   3.823  0.3699  0.3940  0.2241
 2699SOL    HW310842   2.113   0.870   3.724  0.5339 -0.3166  0.4234
 2699SOL    MW410843   2.083   0.872   3.806  0.3986  0.1272  0.3672
 2700SOL     OW10844   1.185   3.883   4.691 -0.1280 -0.1087 -0.0256
 2700SOL    HW210845   1.125   3.956   4.675 -0.5524 -0.1636  1.2365
 2700SOL    HW310846   1.132   3.805   4.673 -0.3001 -0.1429  0.5922
 2700SOL    MW410847   1.170   3.882   4.687 -0.2067 -0.1206  0.2227
 2701SOL     OW10848   4.166   2.342   4.654  0.1906 -0.4642 -0.0197
 2701SOL    HW210849   4.241   2.339   4.595  0.3278 -0.3733  0.1496
 2701SOL    HW310850   4.091   2.358   4.597  0.3237 -0.3677 -0.1673
 2701SOL    MW410851   4.166   2.344   4.639  0.2265 -0.4396 -0.0172
 2702SOL     OW10852   0.405   3.703   4.316 -0.6313  0.1075  0.1469
 2702SOL    HW210853   0.329   3.645   4.309 -0.6626  0.3374 -1.9743
 2702SOL    HW310854   0.475   3.655   4.270 -0.1822  0.9957 -0.1011
 2702SOL    MW410855   0.405   3.689   4.309 -0.5762  0.2551 -0.1655
 2703SOL     OW10856   4.068   2.154   4.838 -0.2865  0.4291 -0.3793
 2703SOL    HW210857   4.147   2.100   4.849 -0.0271  1.0934  1.1438
 2703SOL    HW310858   4.095   2.224   4.779  0.0268  0.1688 -0.5472
 2703SOL    MW410859   4.082   2.156   4.832 -0.2112  0.4823 -0.2003
 2704SOL     OW10860   3.289   0.428   4.431 -0.0326 -0.5971  0.6894
 2704SOL    HW210861   3.227   0.501   4.429 -1.3252 -1.7056 -0.7701
 2704SOL    HW310862   3.258   0.372   4.503 -0.8079 -1.1934 -0.0929
 2704SOL    MW410863   3.277   0.430   4.440 -0.3052 -0.8220  0.3934
 2705SOL     OW10864   3.979   0.473   3.980 -0.1888  0.6809 -0.7607
 2705SOL    HW210865   4.040   0.486   3.907  0.2338  0.3981 -0.4615
 2705SOL    HW310866   4.034   0.444   4.052 -0.6477  0.6696 -0.4128
 2705SOL    MW410867   3.994   0.471   3.980 -0.1934  0.6421 -0.6752
 2706SOL     OW10868   4.192   2.428   4.244  0.4644  0.1740 -0.1737
 2706SOL    HW210869   4.133   2.492   4.285  0.0761 -0.1818 -0.1800
 2706SOL    HW310870   4.136   2.353   4.224  0.8740 -0.0748 -0.3833
 2706SOL    MW410871   4.176   2.427   4.247  0.4673  0.0939 -0.2022
 2707SOL     OW10872   2.246   2.492   4.598  0.3165 -0.2299 -0.1538
 2707SOL    HW210873   2.198   2.450   4.669  1.0442 -2.3684 -0.8765
 2707SOL    HW310874   2.182   2.547   4.554 -0.6464 -0.5152  0.8875
 2707SOL    MW410875   2.232   2.493   4.601  0.2851 -0.5496 -0.1116
 2708SOL     OW10876   4.343   1.826   3.806 -0.1654 -0.4591  0.3198
 2708SOL    HW210877   4.367   1.912   3.773  0.2006 -1.4851 -2.2962
 2708SOL    HW310878   4.367   1.827   3.898 -0.1891  2.2231  0.3243
 2708SOL    MW410879   4.349   1.837   3.813 -0.1202 -0.2404 -0.0246
 2709SOL     OW10880   2.936   3.503   4.176  0.1479  0.1479  0.0994
 2709SOL    HW210881   2.976   3.502   4.262  0.3774  1.7564  0.0284
 2709SOL    HW310882   2.987   3.440   4.125  2.0477  1.5416  0.2511
 2709SOL    MW410883   2.948   3.494   4.180  0.4289  0.5443  0.1106
 2710SOL     OW10884   2.859   0.786   4.359 -0.8877 -0.3059 -0.1904
 2710SOL    HW210885   2.928   0.728   4.392 -0.9649  0.1314  0.7542
 2710SOL    HW310886   2.780   0.761   4.407 -1.0228  0.2682 -0.1022
 2710SOL    MW410887   2.858   0.775   4.370 -0.9155 -0.1724 -0.0539
 2711SOL     OW10888   1.654   1.597   3.765  0.0490 -0.6885  0.1401
 2711SOL    HW210889   1.730   1.608   3.708  0.4788 -0.4314  0.7505
 2711SOL    HW310890   1.626   1.507   3.751  0.3700 -0.7329 -0.2149
 2711SOL    MW410891   1.661   1.587   3.756  0.1481 -0.6604  0.1738
 2712SOL     OW10892   3.439   0.789   4.227  0.4087 -0.0271  0.0100
 2712SOL    HW210893   3.489   0.868   4.211  0.8640 -0.5131 -1.0159
 2712SOL    HW310894   3.497   0.718   4.198  0.2842 -0.7780  1.5579
 2712SOL    MW410895   3.453   0.790   4.221  0.4525 -0.1903  0.0787
 2713SOL     OW10896   3.777   2.891   4.594 -0.2513 -0.3501  0.1499
 2713SOL    HW210897   3.708   2.827   4.615 -0.8857  0.5034  0.7487
 2713SOL    HW310898   3.856   2.856   4.636 -0.8643 -0.1441  1.5172
 2713SOL    MW410899   3.778   2.877   4.602 -0.4160 -0.2105  0.4091
 2714SOL     OW10900   0.781   1.997   4.164  0.2183 -0.6572  0.2850
 2714SOL    HW210901   0.851   2.051   4.199 -0.3648 -0.1722  0.7103
 2714SOL    HW310902   0.792   1.912   4.206  1.7017 -1.1741 -1.0792
 2714SOL    MW410903   0.792   1.993   4.174  0.3371 -0.6617  0.1607
 2715SOL     OW10904   0.226   1.008   3.926 -0.5699 -0.1026 -0.2374
 2715SOL    HW210905   0.213   1.090   3.878 -0.8837 -0.3356 -0.5569
 2715SOL    HW310906   0.163   0.948   3.887 -0.9052 -0.2664  0.5426
 2715SOL    MW410907   0.216   1.011   3.915 -0.6556 -0.1550 -0.1767
 2716SOL     OW10908   1.480   2.746   4.542 -0.6070  0.2172  0.8360
 2716SOL    HW210909   1.509   2.837   4.551 -2.0291  0.7834 -0.1167
 2716SOL    HW310910   1.554   2.701   4.501 -1.2392  1.7652 -2.1437
 2716SOL    MW410911   1.494   2.752   4.538 -0.8781  0.4964  0.3171
 2717SOL     OW10912   1.502   4.598   4.268 -0.3399 -0.1203 -0.0099
 2717SOL    HW210913   1.442   4.618   4.196 -0.7661 -2.7349 -0.4195
 2717SOL    HW310914   1.588   4.622   4.234 -0.5360 -1.3443 -1.4328
 2717SOL    MW410915   1.506   4.604   4.254 -0.4220 -0.6266 -0.2518
 2718SOL     OW10916   2.397   4.466   3.628  0.5016 -0.0807  0.4356
 2718SOL    HW210917   2.425   4.545   3.581  0.0782  0.0864  0.4667
 2718SOL    HW310918   2.356   4.411   3.562  0.7637 -0.2646  0.4215
 2718SOL    MW410919   2.396   4.469   3.613  0.4804 -0.0830  0.4380
 2719SOL     OW10920   3.865   2.317   4.972 -0.3817 -0.0529  0.0686
 2719SOL    HW210921   3.791   2.261   4.949  0.1783  0.5605 -3.6004
 2719SOL    HW310922   3.942   2.264   4.952  0.1369  1.1115 -1.1013
 2719SOL    MW410923   3.865   2.303   4.966 -0.2394  0.1819 -0.5703
 2720SOL     OW10924   2.242   4.262   4.647  0.0367  0.3754 -0.0927
 2720SOL    HW210925   2.286   4.300   4.571  2.6551 -0.8198  0.7990
 2720SOL    HW310926   2.193   4.188   4.611  0.3356  0.5033 -0.7705
 2720SOL    MW410927   2.241   4.257   4.632  0.4215  0.2346 -0.0648
 2721SOL     OW10928   1.838   4.365   4.056 -0.3563 -0.2407 -0.7155
 2721SOL    HW210929   1.861   4.458   4.055  2.4533 -0.9016 -0.6112
 2721SOL    HW310930   1.844   4.339   4.147 -1.4708 -0.4840 -0.6962
 2721SOL    MW410931   1.842   4.374   4.068 -0.1328 -0.3595 -0.6995
 2722SOL     OW10932   1.784   0.824   4.131 -0.2475 -0.1623 -0.0500
 2722SOL    HW210933   1.697   0.849   4.162 -0.1355  0.6564 -0.4002
 2722SOL    HW310934   1.778   0.826   4.036  0.0037 -0.6403 -0.0797
 2722SOL    MW410935   1.772   0.828   4.123 -0.1996 -0.1174 -0.0997
 2723SOL     OW10936   3.069   0.094   4.242  0.0486  0.4590 -0.1991
 2723SOL    HW210937   3.152   0.142   4.241  0.1685  0.2969  0.8933
 2723SOL    HW310938   3.080   0.025   4.177 -0.0736  1.8090 -1.6962
 2723SOL    MW410939   3.082   0.091   4.233  0.0482  0.6158 -0.2518
 2724SOL     OW10940   2.496   2.056   4.114  0.4144  0.5816 -0.1109
 2724SOL    HW210941   2.408   2.054   4.152 -0.3648 -0.3351 -1.8861
 2724SOL    HW310942   2.503   2.143   4.075  0.3871  0.7532  0.2730
 2724SOL    MW410943   2.485   2.067   4.114  0.3080  0.4835 -0.2942
 2725SOL     OW10944   2.108   3.688   3.918  0.1497 -0.1270 -0.0128
 2725SOL    HW210945   2.116   3.723   3.829 -0.3966 -1.2704 -0.5168
 2725SOL    HW310946   2.027   3.638   3.916 -0.6477  1.0588  1.5436
 2725SOL    MW410947   2.098   3.686   3.906 -0.0277 -0.1216  0.1259
 2726SOL     OW10948   3.405   3.018   3.388  0.0647 -0.2368 -0.3585
 2726SOL    HW210949   3.499   2.999   3.385  0.2247  0.5579 -0.3450
 2726SOL    HW310950   3.393   3.068   3.469 -0.0590  1.3452 -1.3307
 2726SOL    MW410951   3.416   3.022   3.399  0.0696  0.0770 -0.4849
 2727SOL     OW10952   0.996   0.340   4.602  0.2474  0.1761 -0.3505
 2727SOL    HW210953   0.924   0.281   4.623  1.4449 -0.0373  3.6038
 2727SOL    HW310954   0.954   0.424   4.587 -0.9896 -0.3214  0.2267
 2727SOL    MW410955   0.981   0.343   4.603  0.2422  0.0823  0.2475
 2728SOL     OW10956   3.677   3.961   4.410 -0.4131  0.1463 -0.0785
 2728SOL    HW210957   3.636   3.876   4.396 -2.3252  0.9169  0.6903
 2728SOL    HW310958   3.680   4.001   4.323 -0.3804 -0.3172 -0.2884
 2728SOL    MW410959   3.672   3.955   4.397 -0.6609  0.1869 -0.0048
 2729SOL     OW10960   1.246   1.911   4.066  0.0035 -0.3998 -0.5491
 2729SOL    HW210961   1.335   1.890   4.092  0.2055  0.5892 -0.4271
 2729SOL    HW310962   1.248   1.912   3.970  0.0395 -0.7070 -0.5525
 2729SOL    MW410963   1.258   1.908   4.057  0.0350 -0.3098 -0.5336
 2730SOL     OW10964   3.644   2.152   3.936 -0.6889 -0.1863 -0.5859
 2730SOL    HW210965   3.597   2.084   3.985  0.2010 -0.6378 -0.3277
 2730SOL    HW310966   3.668   2.217   4.002 -1.5830  0.4001 -0.8427
 2730SOL    MW410967   3.641   2.151   3.952 -0.6893 -0.1683 -0.5858
 2731SOL     OW10968   4.180   3.231   4.226  0.1409 -0.3444 -0.0839
 2731SOL    HW210969   4.160   3.179   4.149 -0.5457 -1.2488  0.6891
 2731SOL    HW310970   4.272   3.256   4.216  0.7666 -2.5540  0.0144
 2731SOL    MW410971   4.189   3.228   4.215  0.1326 -0.7551  0.0310
 2732SOL     OW10972   0.171   3.935   3.983  0.1141 -0.5161 -0.4680
 2732SOL    HW210973   0.227   3.954   4.059  0.4010 -1.2092 -0.5078
 2732SOL    HW310974   0.096   3.994   3.994  0.7233  0.2337 -0.2784
 2732SOL    MW410975   0.169   3.945   3.995  0.2324 -0.5088 -0.4482
 2733SOL     OW10976   1.790   1.567   4.014  0.1312  0.1630 -0.1025
 2733SOL    HW210977   1.757   1.604   3.932 -0.6916  0.3318  0.3005
 2733SOL    HW310978   1.828   1.642   4.061 -1.5065  0.5150  0.7003
 2733SOL    MW410979   1.791   1.582   4.009 -0.1935  0.2317  0.0567
 2734SOL     OW10980   3.358   3.207   4.420  0.0057 -0.0312  0.3363
 2734SOL    HW210981   3.399   3.121   4.430 -1.0239 -0.4546  1.0493
 2734SOL    HW310982   3.429   3.265   4.392  0.1834 -1.6734 -2.8261
 2734SOL    MW410983   3.372   3.203   4.418 -0.1066 -0.3035  0.0134
 2735SOL     OW10984   4.429   4.117   3.971 -0.4164 -0.2434  0.5525
 2735SOL    HW210985   4.406   4.068   3.892 -0.4435  2.9905 -1.5508
 2735SOL    HW310986   4.346   4.153   4.002  0.2439  2.9260 -1.1225
 2735SOL    MW410987   4.415   4.115   3.964 -0.3328  0.6018  0.0539
 2736SOL     OW10988   4.332   2.624   3.816  0.5689  0.3466 -0.2623
 2736SOL    HW210989   4.286   2.624   3.900  0.6438  1.3307 -0.2216
 2736SOL    HW310990   4.303   2.544   3.773 -0.6996  0.6564  0.0184
 2736SOL    MW410991   4.322   2.613   3.822  0.4120  0.5171 -0.2198
 2737SOL     OW10992   1.996   1.516   4.451 -0.1663  0.1187  0.7236
 2737SOL    HW210993   2.061   1.560   4.506  0.5065 -0.2872  0.2499
 2737SOL    HW310994   1.992   1.427   4.486 -1.6879  0.5723  1.8252
 2737SOL    MW410995   2.004   1.510   4.463 -0.2785  0.1249  0.8068
 2738SOL     OW10996   3.688   4.022   4.148  0.0900  0.2513 -0.6189
 2738SOL    HW210997   3.756   3.956   4.141  0.4992  0.5244  0.6195
 2738SOL    HW310998   3.606   3.974   4.132  0.3048 -0.7469  1.1725
 2738SOL    MW410999   3.686   4.007   4.145  0.1721  0.1554 -0.2193
 2739SOL     OW11000   3.404   2.800   3.958 -0.0508  0.0398  0.0492
 2739SOL    HW211001   3.357   2.857   4.018  0.2368 -1.3223  1.6111
 2739SOL    HW311002   3.348   2.794   3.881 -0.8865  1.0402  0.5726
 2739SOL    MW411003   3.390   2.807   3.956 -0.1230 -0.0081  0.3242
 2740SOL     OW11004   2.834   3.078   4.822  0.1362 -0.1723 -0.5131
 2740SOL    HW211005   2.767   3.121   4.875  0.0807 -0.7477 -0.1104
 2740SOL    HW311006   2.917   3.105   4.861  0.1343  0.3765 -0.8851
 2740SOL    MW411007   2.836   3.087   4.834  0.1287 -0.1757 -0.5088
 2741SOL     OW11008   3.623   2.673   4.710 -0.4912 -0.3089 -0.2614
 2741SOL    HW211009   3.697   2.628   4.752 -0.8370  0.1268  0.8242
 2741SOL    HW311010   3.563   2.602   4.686 -1.0351 -0.4467  1.4481
 2741SOL    MW411011   3.625   2.658   4.712 -0.6084 -0.2699  0.1073
 2742SOL     OW11012   3.980   0.182   4.286 -0.0504  0.6701  0.2051
 2742SOL    HW211013   3.904   0.191   4.342  0.0440 -0.1102  0.4555
 2742SOL    HW311014   4.000   0.272   4.259 -1.3053  0.8348 -0.2009
 2742SOL    MW411015   3.973   0.195   4.290 -0.2034  0.5889  0.1841
 2743SOL     OW11016   1.183   1.090   4.236 -0.1331  0.2223  0.4496
 2743SOL    HW211017   1.163   1.140   4.315 -1.3764 -2.9932  2.2781
 2743SOL    HW311018   1.098   1.058   4.206  0.6508 -1.1225 -0.3984
 2743SOL    MW411019   1.169   1.092   4.242 -0.1937 -0.3792  0.5789
 2744SOL     OW11020   2.447   0.975   4.727  0.3303 -0.0909 -0.3339
 2744SOL    HW211021   2.405   0.940   4.806  0.1148 -0.7227 -0.7211
 2744SOL    HW311022   2.374   0.995   4.668  0.3869  2.0276  0.2783
 2744SOL    MW411023   2.432   0.973   4.730  0.3090  0.1052 -0.3047
 2745SOL     OW11024   3.799   0.314   4.699  0.2138 -0.0629  0.0199
 2745SOL    HW211025   3.819   0.273   4.783 -0.3010  0.0245  0.1917
 2745SOL    HW311026   3.711   0.282   4.677 -0.1393  0.8262  0.0897
 2745SOL    MW411027   3.790   0.305   4.707  0.0989  0.0659  0.0525
 2746SOL     OW11028   3.660   3.684   4.342  0.0884  0.0283 -0.1961
 2746SOL    HW211029   3.724   3.622   4.377 -0.9215  0.0237  1.7132
 2746SOL    HW311030   3.704   3.724   4.267  2.3475  0.0261  1.0704
 2746SOL    MW411031   3.674   3.681   4.337  0.2532  0.0272  0.2227
 2747SOL     OW11032   1.769   4.661   4.173  0.4953 -0.4284  0.0925
 2747SOL    HW211033   1.728   4.748   4.182  0.8690 -0.1940 -0.4229
 2747SOL    HW311034   1.847   4.666   4.227 -0.2871 -0.9606  1.2729
 2747SOL    MW411035   1.774   4.673   4.181  0.4414 -0.4676  0.1798
 2748SOL     OW11036   2.361   3.861   4.732  0.0588 -0.3255  0.0389
 2748SOL    HW211037   2.417   3.797   4.689 -0.5178 -1.2896  0.7100
 2748SOL    HW311038   2.298   3.809   4.782  0.0389  0.7580  1.1889
 2748SOL    MW411039   2.360   3.846   4.733 -0.0200 -0.3099  0.2789
 2749SOL     OW11040   3.169   4.344   3.383 -0.0537  0.0560  0.2470
 2749SOL    HW211041   3.115   4.417   3.413  2.5309  1.7091  0.9871
 2749SOL    HW311042   3.252   4.354   3.429  1.2009 -1.9493 -1.4797
 2749SOL    MW411043   3.172   4.355   3.393  0.4530  0.0095  0.1168
 2750SOL     OW11044   1.425   3.557   4.395 -0.2378 -0.4889  0.0183
 2750SOL    HW211045   1.492   3.605   4.346 -0.6566  0.7913  0.6745
 2750SOL    HW311046   1.468   3.476   4.421  1.8938  1.2852  2.3963
 2750SOL    MW411047   1.440   3.553   4.392 -0.0119 -0.0856  0.4187
 2751SOL     OW11048   0.670   1.584   4.148 -0.2904 -0.7874 -0.1929
 2751SOL    HW211049   0.686   1.520   4.217 -0.2376 -1.0635 -0.4590
 2751SOL    HW311050   0.653   1.532   4.070 -0.6790 -0.4795 -0.3191
 2751SOL    MW411051   0.670   1.569   4.147 -0.3347 -0.7831 -0.2446
 2752SOL     OW11052   0.305   3.569   3.786  0.2506  0.2592  0.4980
 2752SOL    HW211053   0.236   3.615   3.835  0.2722  0.0336  0.7414
 2752SOL    HW311054   0.286   3.588   3.694  0.6259  1.2834  0.6267
 2752SOL    MW411055   0.293   3.578   3.781  0.3030  0.3645  0.5472
 2753SOL     OW11056   0.804   0.509   3.832  0.2425  0.1940  0.2175
 2753SOL    HW211057   0.803   0.581   3.896  0.1406 -0.3643  0.8521
 2753SOL    HW311058   0.730   0.526   3.775  0.3869  0.7513  0.1935
 2753SOL    MW411059   0.794   0.521   3.833  0.2481  0.1940  0.2983
 2754SOL     OW11060   3.754   1.238   3.818  0.1399  0.2541  0.3300
 2754SOL    HW211061   3.839   1.243   3.864  1.6456  0.6354 -2.4114
 2754SOL    HW311062   3.709   1.318   3.845  0.5507 -0.0241  1.9393
 2754SOL    MW411063   3.760   1.249   3.828  0.3929  0.2677  0.1805
 2755SOL     OW11064   1.882   4.314   4.321  0.1018 -0.1489 -0.0349
 2755SOL    HW211065   1.849   4.228   4.348 -0.1569 -0.0400 -0.0066
 2755SOL    HW311066   1.919   4.351   4.401  1.5078 -0.8194 -0.3445
 2755SOL    MW411067   1.883   4.307   4.335  0.2532 -0.2222 -0.0720
 2756SOL     OW11068   1.122   4.136   4.430  0.2024  0.2453  0.4488
 2756SOL    HW211069   1.035   4.132   4.470 -0.7557  0.9525 -1.5009
 2756SOL    HW311070   1.134   4.049   4.391 -0.5041  0.7536 -0.9731
 2756SOL    MW411071   1.112   4.124   4.430 -0.0170  0.4058  0.0043
 2757SOL     OW11072   0.341   0.316   4.365  0.0130 -0.0929  0.5185
 2757SOL    HW211073   0.409   0.375   4.335  0.2330 -0.9616 -0.7110
 2757SOL    HW311074   0.387   0.249   4.415  0.1315 -0.9460 -0.7142
 2757SOL    MW411075   0.356   0.315   4.368  0.0576 -0.3200  0.1936
 2758SOL     OW11076   3.350   0.718   3.419  0.5973  0.2428 -0.4423
 2758SOL    HW211077   3.349   0.649   3.484 -1.1464  1.9290  1.4028
 2758SOL    HW311078   3.420   0.777   3.447  1.5129 -0.3077 -1.5290
 2758SOL    MW411079   3.359   0.717   3.431  0.4880  0.3926 -0.3424
 2759SOL     OW11080   2.944   2.384   4.742  0.1423  0.2485  0.0174
 2759SOL    HW211081   2.889   2.336   4.680 -0.3356  0.9850 -0.1301
 2759SOL    HW311082   2.884   2.442   4.789  0.5621  0.0038  0.8853
 2759SOL    MW411083   2.929   2.385   4.740  0.1347  0.3133  0.1121
 2760SOL     OW11084   4.085   3.982   3.773 -0.2332 -0.2794  0.0462
 2760SOL    HW211085   4.069   3.948   3.685  0.5847 -1.9766  0.5351
 2760SOL    HW311086   4.073   3.907   3.831  1.9496  0.1519  1.1205
 2760SOL    MW411087   4.082   3.968   3.769  0.1621 -0.4468  0.2525
 2761SOL     OW11088   3.284   0.184   4.585  0.3195 -0.1809 -0.2037
 2761SOL    HW211089   3.199   0.143   4.602  1.2503 -1.9330  0.3689
 2761SOL    HW311090   3.319   0.137   4.509 -0.0008  1.7675 -1.5936
 2761SOL    MW411091   3.277   0.172   4.577  0.4003 -0.1550 -0.3119
 2762SOL     OW11092   0.139   4.204   4.562 -0.1599 -0.0049  0.3456
 2762SOL    HW211093   0.070   4.138   4.570  0.8187 -1.0138  0.8097
 2762SOL    HW311094   0.220   4.152   4.556  0.4976  1.1259 -0.8668
 2762SOL    MW411095   0.141   4.188   4.562  0.0559  0.0110  0.2470
 2763SOL     OW11096   4.007   2.006   4.629 -0.3126  0.5122  0.7276
 2763SOL    HW211097   4.020   2.050   4.713  0.6377  0.2466  0.7345
 2763SOL    HW311098   3.916   2.024   4.606 -0.5201  0.7713  1.7053
 2763SOL    MW411099   3.997   2.014   4.637 -0.2148  0.5112  0.8578
 2764SOL     OW11100   0.932   0.430   4.254 -0.1945 -0.4106 -0.3536
 2764SOL    HW211101   0.919   0.466   4.341 -0.5165  0.9750 -0.9704
 2764SOL    HW311102   0.975   0.346   4.269  1.5189  0.6986  1.0353
 2764SOL    MW411103   0.936   0.423   4.267 -0.0110 -0.0814 -0.2522
 2765SOL     OW11104   2.916   3.440   3.687  0.2953 -0.0345  0.2380
 2765SOL    HW211105   2.820   3.440   3.680  0.2523  2.2949  0.2894
 2765SOL    HW311106   2.946   3.465   3.600  0.8094  0.4239  0.5456
 2765SOL    MW411107   2.907   3.443   3.675  0.3576  0.3333  0.2851
 2766SOL     OW11108   3.629   1.463   3.923  0.2689  0.2856  0.2802
 2766SOL    HW211109   3.546   1.453   3.969 -0.3028 -1.3721 -1.0459
 2766SOL    HW311110   3.691   1.491   3.991 -1.1201  0.4689  1.4955
 2766SOL    MW411111   3.627   1.465   3.938  0.0103  0.0911  0.2658
 2767SOL     OW11112   2.724   4.327   4.667  0.4216 -0.1774  0.2366
 2767SOL    HW211113   2.687   4.394   4.725 -0.0476 -1.4702  1.4814
 2767SOL    HW311114   2.672   4.248   4.686  2.3708 -1.4632  0.4121
 2767SOL    MW411115   2.712   4.325   4.677  0.6168 -0.5178  0.4239
 2768SOL     OW11116   3.565   3.353   4.286 -0.1127  0.1281 -0.0405
 2768SOL    HW211117   3.622   3.422   4.254 -1.1690  0.6624 -0.8167
 2768SOL    HW311118   3.539   3.304   4.207 -1.2368  0.2953  0.2147
 2768SOL    MW411119   3.569   3.355   4.271 -0.4005  0.2205 -0.1087
 2769SOL     OW11120   2.815   0.411   4.248 -0.0038  0.2391 -0.5449
 2769SOL    HW211121   2.782   0.483   4.195  2.0548  1.8027  0.2302
 2769SOL    HW311122   2.778   0.427   4.335 -1.5575 -1.0616 -0.9454
 2769SOL    MW411123   2.806   0.422   4.253  0.0632  0.2738 -0.4950
 2770SOL     OW11124   3.172   0.683   3.866  0.3300  0.1819  0.3567
 2770SOL    HW211125   3.090   0.636   3.878 -0.2244  0.7436 -1.1571
 2770SOL    HW311126   3.193   0.718   3.953 -0.9981 -0.0057  0.7565
 2770SOL    MW411127   3.164   0.682   3.879  0.0815  0.2313  0.2098
 2771SOL     OW11128   3.482   4.211   4.328 -0.4480  0.1146  0.0802
 2771SOL    HW211129   3.516   4.186   4.414 -1.3835 -0.2581  0.3567
 2771SOL    HW311130   3.554   4.257   4.286  0.4098 -0.7203  0.6158
 2771SOL    MW411131   3.496   4.214   4.334 -0.4582 -0.0443  0.1874
 2772SOL     OW11132   2.149   3.043   4.198 -0.1852  0.1274 -0.1536
 2772SOL    HW211133   2.133   3.137   4.189  0.8644  0.3731  0.5042
 2772SOL    HW311134   2.211   3.021   4.129  1.2562  0.3542  1.0428
 2772SOL    MW411135   2.155   3.052   4.188  0.1435  0.1895  0.0911
 2773SOL     OW11136   3.445   2.919   4.395  0.0017  0.0659  0.0975
 2773SOL    HW211137   3.422   2.893   4.484  1.3580  1.3256  0.8475
 2773SOL    HW311138   3.507   2.853   4.366 -1.3928 -1.0466 -0.3961
 2773SOL    MW411139   3.450   2.907   4.403 -0.0031  0.0854  0.1316
 2774SOL     OW11140   3.214   1.687   3.856 -0.2612  0.1328 -0.3299
 2774SOL    HW211141   3.213   1.666   3.763  1.9213 -0.0392 -0.3556
 2774SOL    HW311142   3.279   1.758   3.863  1.3701 -1.4593  1.3341
 2774SOL    MW411143   3.223   1.694   3.845  0.2422 -0.0999 -0.1137
 2775SOL     OW11144   2.615   4.517   4.822  0.0912 -0.3667 -0.1030
 2775SOL    HW211145   2.640   4.557   4.905 -1.6600  2.4187 -0.8686
 2775SOL    HW311146   2.616   4.589   4.759 -0.6588 -2.0190 -2.0698
 2775SOL    MW411147   2.619   4.532   4.824 -0.2389 -0.2170 -0.4640
 2776SOL     OW11148   2.315   1.604   4.564 -0.4675  0.0343 -0.2361
 2776SOL    HW211149   2.344   1.674   4.504  1.7584  0.0554  0.8156
 2776SOL    HW311150   2.256   1.648   4.625 -0.5324  0.6078 -0.7017
 2776SOL    MW411151   2.311   1.619   4.564 -0.1822  0.1128 -0.1583
 2777SOL     OW11152   1.455   4.070   4.354  0.7709  0.0546  0.1305
 2777SOL    HW211153   1.419   4.149   4.396 -0.4011  0.3265 -1.3365
 2777SOL    HW311154   1.409   3.998   4.397  0.0404  0.3010 -0.2254
 2777SOL    MW411155   1.444   4.071   4.365  0.5198  0.1230 -0.1097
 2778SOL     OW11156   2.793   4.245   4.115  0.2403 -0.1262 -0.3387
 2778SOL    HW211157   2.698   4.237   4.123  0.1710 -0.5777 -1.5173
 2778SOL    HW311158   2.826   4.238   4.205 -0.6344 -2.5116 -0.1917
 2778SOL    MW411159   2.785   4.243   4.128  0.1159 -0.5007 -0.4749
 2779SOL     OW11160   0.873   0.569   4.497  0.3796 -0.2099  0.0460
 2779SOL    HW211161   0.914   0.655   4.499  1.6952 -0.8220  0.6938
 2779SOL    HW311162   0.780   0.586   4.506  0.4660  1.2442 -1.5989
 2779SOL    MW411163   0.866   0.582   4.498  0.5645 -0.0988 -0.0849
 2780SOL     OW11164   2.057   3.297   4.147  0.1336  0.0939 -0.1816
 2780SOL    HW211165   2.015   3.333   4.225  1.3894 -1.1785  1.1185
 2780SOL    HW311166   2.104   3.371   4.108 -0.4927  0.7268  0.2461
 2780SOL    MW411167   2.057   3.312   4.152  0.2165  0.0098  0.0463
 2781SOL     OW11168   4.255   0.707   4.647  0.1489  0.1647  0.0779
 2781SOL    HW211169   4.181   0.766   4.629  0.2763  0.8572  1.7303
 2781SOL    HW311170   4.271   0.663   4.564 -0.3325  2.0335 -1.0368
 2781SOL    MW411171   4.247   0.709   4.634  0.1016  0.5026  0.1488
 2782SOL     OW11172   3.719   1.578   4.170 -0.3567  0.0773  0.0385
 2782SOL    HW211173   3.812   1.587   4.192 -0.3653 -0.6666  0.4116
 2782SOL    HW311174   3.682   1.664   4.188  0.0778  0.1108  0.8164
 2782SOL    MW411175   3.726   1.590   4.176 -0.3006 -0.0165  0.1907
 2783SOL     OW11176   0.835   4.052   3.757  0.1141 -0.3576  0.3543
 2783SOL    HW211177   0.846   4.143   3.783 -0.4632  0.0904 -0.9477
 2783SOL    HW311178   0.769   4.017   3.817 -2.1609  1.0220 -1.2761
 2783SOL    MW411179   0.828   4.059   3.768 -0.2623 -0.1168 -0.0324
 2784SOL     OW11180   0.164   4.280   4.097  0.4457  0.1618 -0.5194
 2784SOL    HW211181   0.108   4.224   4.044  0.2401  0.5832 -0.7498
 2784SOL    HW311182   0.125   4.279   4.184  1.1956 -1.1156 -0.1820
 2784SOL    MW411183   0.152   4.273   4.101  0.5175  0.0496 -0.5045
 2785SOL     OW11184   1.488   3.435   3.872 -0.1961  0.6089  0.0842
 2785SOL    HW211185   1.524   3.523   3.859  0.7763 -0.1358 -2.8876
 2785SOL    HW311186   1.394   3.448   3.879 -0.1919  1.8016 -1.7090
 2785SOL    MW411187   1.480   3.448   3.871 -0.0671  0.6678 -0.5445
 2786SOL     OW11188   2.307   4.535   4.762 -0.1971 -0.1137  0.3350
 2786SOL    HW211189   2.401   4.538   4.777 -0.4490 -0.4468  1.9934
 2786SOL    HW311190   2.283   4.443   4.776 -0.5455 -0.3408 -1.5521
 2786SOL    MW411191   2.316   4.523   4.766 -0.2763 -0.1874  0.3047
 2787SOL     OW11192   2.779   2.234   4.580 -0.9736  0.1878 -0.4072
 2787SOL    HW211193   2.690   2.220   4.551 -0.4587 -1.6515 -1.2031
 2787SOL    HW311194   2.810   2.146   4.605  1.3149  0.4211 -2.2445
 2787SOL    MW411195   2.772   2.220   4.580 -0.6039 -0.0243 -0.7544
 2788SOL     OW11196   4.097   1.717   3.750  0.0056 -0.0325 -0.4709
 2788SOL    HW211197   4.180   1.762   3.760 -0.1483  0.3473 -0.8722
 2788SOL    HW311198   4.099   1.646   3.815  0.1877  0.6441  0.2603
 2788SOL    MW411199   4.108   1.713   3.760  0.0095  0.1069 -0.4275
 2789SOL     OW11200   0.061   3.004   4.434 -0.5138  0.0697 -0.1796
 2789SOL    HW211201   0.106   3.081   4.400 -1.8623 -1.2916 -5.5590
 2789SOL    HW311202  -0.031   3.031   4.440 -0.6894 -0.5316 -0.1654
 2789SOL    MW411203   0.055   3.018   4.431 -0.7149 -0.1893 -0.8874
 2790SOL     OW11204   4.388   4.062   4.552 -0.0467  0.0760 -0.3469
 2790SOL    HW211205   4.299   4.060   4.589  0.3484  0.2290  0.6338
 2790SOL    HW311206   4.378   4.107   4.468 -1.3624 -2.4193 -1.5697
 2790SOL    MW411207   4.375   4.068   4.546 -0.1678 -0.2332 -0.3791
 2791SOL     OW11208   1.267   2.997   3.914  0.2562 -0.7069 -0.2260
 2791SOL    HW211209   1.337   3.051   3.953  1.1155 -0.9603 -1.3898
 2791SOL    HW311210   1.214   2.970   3.989  0.5667  0.6801  0.5170
 2791SOL    MW411211   1.270   3.001   3.929  0.4104 -0.5574 -0.2816
 2792SOL     OW11212   3.216   2.770   3.751 -0.0276  0.3102 -0.1455
 2792SOL    HW211213   3.252   2.762   3.663 -0.9568 -0.7433 -0.4298
 2792SOL    HW311214   3.178   2.858   3.753 -1.2879 -0.1996 -1.2680
 2792SOL    MW411215   3.216   2.781   3.740 -0.3169  0.1040 -0.3312
 2793SOL     OW11216   3.597   1.041   3.900 -0.0285  0.1652 -0.5726
 2793SOL    HW211217   3.507   1.060   3.873  0.4677 -0.3647 -2.6616
 2793SOL    HW311218   3.648   1.115   3.867  0.4072  0.1275  0.0082
 2793SOL    MW411219   3.592   1.053   3.892  0.0944  0.0904 -0.7715
 2794SOL     OW11220   1.409   2.945   4.255 -0.4776 -0.0966 -0.1917
 2794SOL    HW211221   1.466   2.868   4.257 -0.3144 -0.0151 -1.1964
 2794SOL    HW311222   1.427   2.985   4.169 -0.3681  1.1942  0.4226
 2794SOL    MW411223   1.419   2.940   4.244 -0.4416  0.0844 -0.2432
 2795SOL     OW11224   2.057   0.325   3.952  0.8360  0.7883  0.2966
 2795SOL    HW211225   2.109   0.252   3.921 -0.3200  0.4658 -0.9277
 2795SOL    HW311226   2.082   0.336   4.043  0.2059 -1.8601  0.8265
 2795SOL    MW411227   2.067   0.317   3.960  0.6001  0.3963  0.2050
 2796SOL     OW11228   2.607   0.701   4.465 -0.6028 -0.1882 -0.2757
 2796SOL    HW211229   2.605   0.776   4.524 -0.9989  0.7788 -1.5030
 2796SOL    HW311230   2.563   0.731   4.386  0.5429 -1.2321 -1.3432
 2796SOL    MW411231   2.601   0.715   4.463 -0.5040 -0.1983 -0.5784
 2797SOL     OW11232   3.655   2.930   3.931 -0.1160 -0.7932 -0.1757
 2797SOL    HW211233   3.576   2.878   3.941 -0.0467 -0.9113 -0.2376
 2797SOL    HW311234   3.685   2.946   4.020 -0.1499 -0.8396 -0.1563
 2797SOL    MW411235   3.649   2.925   3.944 -0.1111 -0.8149 -0.1812
 2798SOL     OW11236   1.815   0.548   4.176 -0.0189  0.2060 -0.2023
 2798SOL    HW211237   1.805   0.520   4.084 -0.7126 -0.8694  0.1899
 2798SOL    HW311238   1.787   0.640   4.176 -2.2082 -0.4410 -0.6517
 2798SOL    MW411239   1.810   0.557   4.164 -0.3994 -0.0213 -0.2098
 2799SOL     OW11240   3.873   3.256   3.897 -0.2709 -0.0830 -0.0116
 2799SOL    HW211241   3.955   3.211   3.917 -1.1951 -1.7407  0.1876
 2799SOL    HW311242   3.860   3.316   3.970 -0.1584 -1.1587  0.9133
 2799SOL    MW411243   3.882   3.258   3.910 -0.3781 -0.4437  0.1366
 2800SOL     OW11244   1.499   0.347   4.423  0.0591 -0.3256 -0.3226
 2800SOL    HW211245   1.446   0.347   4.343 -0.2600 -1.5775 -0.1191
 2800SOL    HW311246   1.435   0.344   4.494  0.2524  3.1218  0.0836
 2800SOL    MW411247   1.484   0.347   4.422  0.0426 -0.0359 -0.2413
 2801SOL     OW11248   2.716   3.405   4.361 -0.1723 -0.1186  0.0233
 2801SOL    HW211249   2.782   3.422   4.294 -0.5119 -0.7673 -0.4822
 2801SOL    HW311250   2.766   3.373   4.436  0.2967  1.4195  0.3931
 2801SOL    MW411251   2.731   3.403   4.362 -0.1550 -0.0010  0.0052
 2802SOL     OW11252   2.479   3.067   4.615  0.1659 -0.2736 -0.5779
 2802SOL    HW211253   2.529   2.986   4.611  0.8617  0.0901  0.3931
 2802SOL    HW311254   2.388   3.039   4.625  0.5527 -0.9456  1.2146
 2802SOL    MW411255   2.474   3.053   4.616  0.3090 -0.3142 -0.2131
 2803SOL     OW11256   0.093   2.209   4.167  0.4632  0.0842 -0.2659
 2803SOL    HW211257   0.177   2.192   4.126  0.5972  0.9160 -0.3516
 2803SOL    HW311258   0.115   2.247   4.252  0.1797  1.1529 -0.6585
 2803SOL    MW411259   0.107   2.212   4.173  0.4435  0.3350 -0.3285
 2804SOL     OW11260   3.783   1.617   4.591  0.4322 -0.2647 -0.1487
 2804SOL    HW211261   3.717   1.683   4.570  0.8514  0.0769 -0.4089
 2804SOL    HW311262   3.733   1.543   4.625 -0.0760  0.0299 -0.2457
 2804SOL    MW411263   3.767   1.616   4.593  0.4206 -0.1807 -0.1960
 2805SOL     OW11264   3.877   3.482   4.375  0.1707  0.0376  0.0857
 2805SOL    HW211265   3.846   3.395   4.397 -1.5556  0.9428  1.4171
 2805SOL    HW311266   3.969   3.482   4.401 -0.7600 -0.2572  3.6223
 2805SOL    MW411267   3.885   3.471   4.381 -0.1798  0.1180  0.7281
 2806SOL     OW11268   1.985   2.609   3.936  0.1071 -0.4334  0.2366
 2806SOL    HW211269   1.919   2.670   3.902 -1.0089 -1.4827  0.4906
 2806SOL    HW311270   2.031   2.578   3.858 -0.5926 -0.6964 -0.0806
 2806SOL    MW411271   1.982   2.613   3.921 -0.1324 -0.6065  0.2282
 2807SOL     OW11272   0.842   0.065   3.775 -0.3854 -0.4025  0.1088
 2807SOL    HW211273   0.924   0.027   3.805 -0.4081 -0.9450 -0.4938
 2807SOL    HW311274   0.859   0.089   3.684 -0.7149  0.0059  0.1557
 2807SOL    MW411275   0.855   0.063   3.767 -0.4319 -0.4202  0.0353
 2808SOL     OW11276   4.130   0.949   4.116 -0.2955 -0.0140  0.2605
 2808SOL    HW211277   4.046   0.906   4.136 -0.2499 -0.6530 -0.8502
 2808SOL    HW311278   4.196   0.890   4.151 -0.3238  0.9858  2.0417
 2808SOL    MW411279   4.127   0.935   4.123 -0.2937  0.0336  0.3495
 2809SOL     OW11280   0.029   1.656   3.456  0.9109 -0.6623  0.3118
 2809SOL    HW211281   0.092   1.603   3.407  1.3324 -0.5934  0.7737
 2809SOL    HW311282  -0.057   1.619   3.433  0.9210  0.7824 -2.2138
 2809SOL    MW411283   0.026   1.644   3.447  0.9678 -0.4625  0.0396
 2810SOL     OW11284   0.769   3.594   3.789  0.0378  0.2033  0.1927
 2810SOL    HW211285   0.748   3.504   3.815 -1.7632  0.7467  0.7407
 2810SOL    HW311286   0.730   3.604   3.702 -2.6954  1.4095  1.4657
 2810SOL    MW411287   0.761   3.583   3.781 -0.5604  0.4342  0.4334
 2811SOL     OW11288   3.775   0.433   4.310 -0.3410 -0.6527  0.4106
 2811SOL    HW211289   3.841   0.444   4.379 -0.7185 -0.2723  0.7118
 2811SOL    HW311290   3.739   0.345   4.327 -1.5281  0.0532  1.6613
 2811SOL    MW411291   3.779   0.423   4.321 -0.5474 -0.5094  0.6156
 2812SOL     OW11292   0.692   2.070   3.528  0.2177  0.0311 -0.5953
 2812SOL    HW211293   0.676   2.081   3.621 -1.1599 -0.8261 -0.7137
 2812SOL    HW311294   0.606   2.049   3.491  0.3274  2.5640 -2.4105
 2812SOL    MW411295   0.679   2.069   3.535  0.0504  0.2522 -0.8504
 2813SOL     OW11296   4.163   1.507   4.786 -0.4396  0.1829  0.3586
 2813SOL    HW211297   4.120   1.588   4.759 -2.4216 -0.7279  0.7041
 2813SOL    HW311298   4.093   1.441   4.787  0.8147 -1.1802  1.6182
 2813SOL    MW411299   4.148   1.509   4.783 -0.5355 -0.1171  0.5703
 2814SOL     OW11300   1.973   2.448   4.301 -0.0336 -0.3419 -0.6892
 2814SOL    HW211301   1.949   2.540   4.298 -0.4226 -0.4145  0.1803
 2814SOL    HW311302   1.983   2.423   4.209  0.0200  0.5467 -0.9295
 2814SOL    MW411303   1.971   2.457   4.289 -0.0778 -0.2344 -0.6061
 2815SOL     OW11304   4.306   2.200   4.019  0.2471 -0.2721 -0.4027
 2815SOL    HW211305   4.271   2.139   4.083  2.1627 -1.0645 -0.0826
 2815SOL    HW311306   4.392   2.226   4.054  1.1796 -0.4588 -2.4554
 2815SOL    MW411307   4.313   2.196   4.032  0.6232 -0.4013 -0.6313
 2816SOL     OW11308   1.642   3.858   4.669  0.0021  0.3572 -0.2711
 2816SOL    HW211309   1.585   3.862   4.593  0.4870  1.6609 -0.5769
 2816SOL    HW311310   1.590   3.894   4.741 -0.1683 -0.1117 -0.1540
 2816SOL    MW411311   1.628   3.863   4.669  0.0435  0.4675 -0.2961
 2817SOL     OW11312   1.210   0.840   4.589 -0.2294 -0.2961  0.1380
 2817SOL    HW211313   1.260   0.766   4.557  0.5516  0.2684  0.0344
 2817SOL    HW311314   1.276   0.906   4.611 -0.8719  0.1298  0.8334
 2817SOL    MW411315   1.225   0.839   4.588 -0.2110 -0.1654  0.2155
 2818SOL     OW11316   2.226   0.696   3.998 -0.3882 -0.0377 -0.0108
 2818SOL    HW211317   2.182   0.763   3.945 -1.2744 -0.1324  0.5917
 2818SOL    HW311318   2.319   0.719   3.993 -0.5731  0.6018 -0.6948
 2818SOL    MW411319   2.232   0.708   3.990 -0.5300  0.0341 -0.0215
 2819SOL     OW11320   2.220   1.040   4.579 -0.0984  0.3981  0.5447
 2819SOL    HW211321   2.203   0.961   4.529  1.9370  0.3316 -0.1049
 2819SOL    HW311322   2.263   1.099   4.516  0.3429  1.1976  1.5768
 2819SOL    MW411323   2.223   1.038   4.564  0.2284  0.4947  0.5946
 2820SOL     OW11324   4.378   0.322   4.151 -0.1121  0.0685  0.0084
 2820SOL    HW211325   4.397   0.273   4.231 -2.0029  0.3158  0.6259
 2820SOL    HW311326   4.363   0.256   4.085 -0.2832 -0.1613  0.2759
 2820SOL    MW411327   4.379   0.307   4.153 -0.3843  0.0708  0.1249
 2821SOL     OW11328   2.454   0.348   4.635  0.0789  0.1140  0.2372
 2821SOL    HW211329   2.376   0.372   4.584  0.6374  1.9441  0.2142
 2821SOL    HW311330   2.431   0.368   4.725  0.7588  1.3346  0.1510
 2821SOL    MW411331   2.441   0.353   4.640  0.2422  0.5165  0.2232
 2822SOL     OW11332   2.231   3.545   4.113  0.2430 -0.1675  0.2016
 2822SOL    HW211333   2.293   3.498   4.058  1.2354  0.8631  0.4117
 2822SOL    HW311334   2.184   3.603   4.052  0.4224  0.0171  0.2369
 2822SOL    MW411335   2.233   3.546   4.098  0.3977 -0.0072  0.2341
 2823SOL     OW11336   3.351   2.834   4.661 -0.1607  0.1237 -0.1821
 2823SOL    HW211337   3.411   2.836   4.735 -0.0949 -0.4399 -0.2165
 2823SOL    HW311338   3.309   2.748   4.666 -0.9549  0.5078 -0.1644
 2823SOL    MW411339   3.353   2.823   4.671 -0.2568  0.1004 -0.1841
 2824SOL     OW11340   3.101   1.575   4.491 -0.1788  0.2167  0.0440
 2824SOL    HW211341   3.007   1.559   4.498 -0.5355  2.1787  0.0212
 2824SOL    HW311342   3.126   1.532   4.410 -1.0052 -0.5567  0.1889
 2824SOL    MW411343   3.092   1.567   4.481 -0.3350  0.3735  0.0606
 2825SOL     OW11344   3.687   3.941   3.687 -0.5980  0.2342 -0.4746
 2825SOL    HW211345   3.746   4.013   3.711  0.3066 -0.3577 -0.8979
 2825SOL    HW311346   3.618   3.944   3.753  0.7458 -0.0454  0.9650
 2825SOL    MW411347   3.686   3.951   3.699 -0.3016  0.1192 -0.3402
 2826SOL     OW11348   4.118   4.036   4.646  0.0777 -0.0751  0.3576
 2826SOL    HW211349   4.064   3.997   4.578 -0.1138  0.9491 -0.0889
 2826SOL    HW311350   4.096   4.129   4.644  1.2017  0.2095  0.7733
 2826SOL    MW411351   4.108   4.043   4.637  0.2007  0.0978  0.3533
 2827SOL     OW11352   3.535   1.038   4.639 -0.2869 -0.6806  0.4826
 2827SOL    HW211353   3.518   0.947   4.667 -2.7668 -0.1924  0.6935
 2827SOL    HW311354   3.456   1.063   4.592  0.8194  1.0415 -0.4870
 2827SOL    MW411355   3.522   1.029   4.637 -0.4683 -0.3890  0.3824
 2828SOL     OW11356   2.803   3.255   4.601  0.3717  0.1624 -0.1155
 2828SOL    HW211357   2.788   3.187   4.535 -1.2757 -0.2961  0.7108
 2828SOL    HW311358   2.812   3.206   4.683  0.3290  0.8632  0.3056
 2828SOL    MW411359   2.802   3.239   4.603  0.1490  0.1948  0.0486
 2829SOL     OW11360   3.990   3.784   3.934 -0.0982  0.2068 -0.1218
 2829SOL    HW211361   3.912   3.760   3.884  0.3315 -0.6517 -0.3838
 2829SOL    HW311362   4.039   3.703   3.944  0.6174  0.6787  0.3044
 2829SOL    MW411363   3.986   3.770   3.929  0.0529  0.1559 -0.1004
 2830SOL     OW11364   0.993   2.763   4.449  0.4734  0.0118  0.0311
 2830SOL    HW211365   1.084   2.745   4.425  0.5450  0.9402 -0.4012
 2830SOL    HW311366   0.981   2.855   4.428 -0.3639  0.0650  0.7527
 2830SOL    MW411367   1.004   2.772   4.443  0.3724  0.1411  0.0696
 2831SOL     OW11368   3.550   0.186   4.182 -0.6271 -0.0251 -0.1867
 2831SOL    HW211369   3.592   0.180   4.268 -0.3605  0.8357 -0.2553
 2831SOL    HW311370   3.622   0.174   4.120 -0.7161  0.0047 -0.2949
 2831SOL    MW411371   3.565   0.183   4.185 -0.6034  0.0924 -0.2103
 2832SOL     OW11372   3.258   4.116   4.183 -0.1989  0.1018 -0.3628
 2832SOL    HW211373   3.209   4.196   4.167 -2.1436 -0.9529  0.1305
 2832SOL    HW311374   3.347   4.145   4.201 -1.2903  2.3070  1.8024
 2832SOL    MW411375   3.263   4.130   4.183 -0.5994  0.2532 -0.0124
 2833SOL     OW11376   3.667   1.861   4.206 -0.0802 -0.5744  0.2763
 2833SOL    HW211377   3.590   1.890   4.156  1.1950 -0.9919 -2.0204
 2833SOL    HW311378   3.635   1.850   4.295 -2.3988  0.4555 -0.3849
 2833SOL    MW411379   3.653   1.863   4.211 -0.2179 -0.4935 -0.1144
 2834SOL     OW11380   0.414   2.523   4.331  0.0953 -0.8535  0.3890
 2834SOL    HW211381   0.491   2.555   4.379 -0.5489 -0.5161  1.2285
 2834SOL    HW311382   0.340   2.551   4.386 -0.7037  0.1567 -1.1683
 2834SOL    MW411383   0.414   2.531   4.345 -0.0951 -0.6757  0.2937
 2835SOL     OW11384   0.355   4.026   3.767  0.5060  0.3642 -1.0695
 2835SOL    HW211385   0.440   4.008   3.807  0.9788  3.0511 -0.7862
 2835SOL    HW311386   0.291   3.991   3.829  1.3571 -0.0196 -0.3987
 2835SOL    MW411387   0.358   4.019   3.780  0.6807  0.6676 -0.9437
 2836SOL     OW11388   2.521   3.180   4.104  0.2474  0.3027  0.0054
 2836SOL    HW211389   2.493   3.199   4.194  0.5046 -1.3748  0.4644
 2836SOL    HW311390   2.483   3.094   4.085 -0.3960  0.9528 -1.7542
 2836SOL    MW411391   2.512   3.171   4.114  0.1965  0.1667 -0.1659
 2837SOL     OW11392   0.352   0.620   4.063 -0.0048 -0.0533 -0.3865
 2837SOL    HW211393   0.412   0.579   4.126  0.2721  1.9131  0.6640
 2837SOL    HW311394   0.281   0.655   4.117  0.8505  2.7373 -0.9645
 2837SOL    MW411395   0.350   0.619   4.079  0.1446  0.5743 -0.3242
 2838SOL     OW11396   1.038   3.649   3.799  0.3042  0.1379  0.4058
 2838SOL    HW211397   0.943   3.640   3.790  0.2437  0.3076  0.8455
 2838SOL    HW311398   1.050   3.733   3.842  0.6391 -0.0422  0.6684
 2838SOL    MW411399   1.027   3.659   3.803  0.3405  0.1366  0.4985
 2839SOL     OW11400   4.315   1.048   4.494 -0.0163  0.4376 -0.1639
 2839SOL    HW211401   4.394   1.063   4.545 -0.3847  0.9555  0.2610
 2839SOL    HW311402   4.272   1.133   4.491 -0.4435  0.2072 -0.5822
 2839SOL    MW411403   4.320   1.061   4.500 -0.1216  0.4755 -0.1636
 2840SOL     OW11404   2.410   2.746   4.810  0.2235 -0.1649  0.1513
 2840SOL    HW211405   2.344   2.683   4.781  0.8727 -1.1040  0.6666
 2840SOL    HW311406   2.475   2.747   4.740  0.4420 -0.4129  0.3498
 2840SOL    MW411407   2.410   2.738   4.797  0.3378 -0.3219  0.2456
 2841SOL     OW11408   0.080   0.035   3.797 -0.1843 -0.3079  0.4352
 2841SOL    HW211409   0.063   0.067   3.708 -0.8305 -1.8085  0.0073
 2841SOL    HW311410   0.003   0.061   3.847 -0.2826 -0.3673  0.3146
 2841SOL    MW411411   0.068   0.042   3.791 -0.2824 -0.5137  0.3629
 2842SOL     OW11412   4.191   0.576   3.785 -0.3002 -0.3883 -0.2953
 2842SOL    HW211413   4.212   0.550   3.696 -2.7447  0.8395 -1.2786
 2842SOL    HW311414   4.133   0.652   3.775 -0.7440 -0.3294  2.3182
 2842SOL    MW411415   4.186   0.583   3.772 -0.6814 -0.2186 -0.0799
 2843SOL     OW11416   3.213   1.237   3.956 -0.0954 -0.2829  0.1140
 2843SOL    HW211417   3.258   1.211   4.037 -0.9814 -0.5907  0.5035
 2843SOL    HW311418   3.246   1.176   3.890  1.0481  0.3099  0.1090
 2843SOL    MW411419   3.223   1.226   3.958 -0.0613 -0.2453  0.1645
 2844SOL     OW11420   3.673   1.702   3.777 -0.2410 -0.1773 -0.4679
 2844SOL    HW211421   3.663   1.671   3.688 -0.1498 -0.2344 -0.4589
 2844SOL    HW311422   3.658   1.624   3.832 -2.2092  0.2642 -0.3488
 2844SOL    MW411423   3.670   1.688   3.773 -0.4888 -0.1265 -0.4508
 2845SOL     OW11424   1.944   4.654   3.976  0.0512  0.2515 -0.4173
 2845SOL    HW211425   1.898   4.661   4.059  0.3174 -1.1043 -0.1436
 2845SOL    HW311426   2.024   4.705   3.988  0.0445  0.1328  0.1318
 2845SOL    MW411427   1.948   4.662   3.988  0.0855  0.0572 -0.3090
 2846SOL     OW11428   1.213   2.166   4.154  0.4493  0.3628 -0.3579
 2846SOL    HW211429   1.227   2.077   4.121 -0.5522  0.2732 -0.5773
 2846SOL    HW311430   1.191   2.217   4.076 -2.5100  0.0281  0.2063
 2846SOL    MW411431   1.212   2.161   4.139 -0.0732  0.3068 -0.3128
 2847SOL     OW11432   1.628   1.150   4.249  0.0156 -0.1114  0.1975
 2847SOL    HW211433   1.705   1.182   4.202 -0.9088  0.8505 -0.7091
 2847SOL    HW311434   1.603   1.223   4.306 -0.7194 -0.0718 -0.1585
 2847SOL    MW411435   1.635   1.164   4.250 -0.2035  0.0207  0.0310
 2848SOL     OW11436   1.431   2.541   4.700  0.0109  0.1124 -0.2479
 2848SOL    HW211437   1.445   2.621   4.649 -0.8349 -1.2116 -2.6504
 2848SOL    HW311438   1.509   2.488   4.682 -0.2609 -0.3367 -0.0985
 2848SOL    MW411439   1.444   2.545   4.691 -0.1366 -0.1214 -0.5445
 2849SOL     OW11440   4.363   2.326   4.455 -0.1453 -0.2256 -0.1947
 2849SOL    HW211441   4.457   2.328   4.437 -0.0165 -2.1925  0.1103
 2849SOL    HW311442   4.322   2.358   4.375  0.7984  1.0862 -0.1638
 2849SOL    MW411443   4.370   2.330   4.442 -0.0038 -0.3121 -0.1497
 2850SOL     OW11444   0.516   0.493   4.277 -0.3581  0.1908 -0.1914
 2850SOL    HW211445   0.590   0.436   4.257  0.2723  1.0787 -0.4333
 2850SOL    HW311446   0.553   0.562   4.332 -0.9644  0.7275 -0.4474
 2850SOL    MW411447   0.531   0.495   4.281 -0.3549  0.3787 -0.2570
 2851SOL     OW11448   1.426   1.091   4.060 -0.0392  0.1544 -0.1681
 2851SOL    HW211449   1.343   1.095   4.107 -0.5681 -0.0711 -1.0880
 2851SOL    HW311450   1.491   1.120   4.125 -1.1226  2.7545 -0.1960
 2851SOL    MW411451   1.424   1.095   4.075 -0.2519  0.4678 -0.2937
 2852SOL     OW11452   1.165   1.878   4.405 -0.6232  0.1008 -0.4429
 2852SOL    HW211453   1.120   1.828   4.337 -0.0205 -0.7309 -0.2465
 2852SOL    HW311454   1.180   1.815   4.476  0.4124  0.4732 -0.3119
 2852SOL    MW411455   1.161   1.863   4.406 -0.4070  0.0402 -0.3996
 2853SOL     OW11456   3.585   4.145   4.586 -0.0015 -0.0064 -0.1642
 2853SOL    HW211457   3.625   4.085   4.524 -0.6975 -0.0724 -0.5516
 2853SOL    HW311458   3.643   4.221   4.587  0.1546 -0.1196 -0.6854
 2853SOL    MW411459   3.598   4.147   4.578 -0.0730 -0.0300 -0.2837
 2854SOL     OW11460   0.247   4.284   3.750  0.0187  0.3500 -0.5925
 2854SOL    HW211461   0.302   4.206   3.759 -0.1394  0.3630  0.6116
 2854SOL    HW311462   0.301   4.355   3.785 -0.2647  0.5801 -0.6230
 2854SOL    MW411463   0.262   4.283   3.756 -0.0395  0.3819 -0.4375
 2855SOL     OW11464   2.845   0.210   4.607  0.2551  0.2435  0.0401
 2855SOL    HW211465   2.764   0.164   4.630  0.3081 -0.5627 -1.3393
 2855SOL    HW311466   2.819   0.301   4.594 -0.7181 -0.2776 -1.8415
 2855SOL    MW411467   2.831   0.216   4.608  0.1338  0.0684 -0.3905
 2856SOL     OW11468   0.045   0.770   4.627 -0.1214  0.0660  0.2126
 2856SOL    HW211469  -0.050   0.759   4.623 -0.1128 -0.3127  0.8677
 2856SOL    HW311470   0.070   0.794   4.538 -0.5507 -2.0284 -0.4977
 2856SOL    MW411471   0.035   0.772   4.615 -0.1769 -0.2604  0.2060
 2857SOL     OW11472   0.274   3.306   3.778 -0.1453  0.2470  0.2917
 2857SOL    HW211473   0.342   3.261   3.828  1.3246  1.0454 -0.9745
 2857SOL    HW311474   0.293   3.399   3.789 -0.7402  0.4662 -0.4763
 2857SOL    MW411475   0.285   3.312   3.786 -0.0299  0.3810  0.0234
 2858SOL     OW11476   1.256   1.675   4.596  0.0820 -0.1971  0.0730
 2858SOL    HW211477   1.231   1.696   4.686 -0.5769  1.1702 -0.4264
 2858SOL    HW311478   1.345   1.707   4.588  0.5176 -1.2512  0.5415
 2858SOL    MW411479   1.264   1.682   4.607  0.0526 -0.1556  0.0687
 2859SOL     OW11480   4.372   1.518   4.368 -0.4911  0.2955  0.0575
 2859SOL    HW211481   4.384   1.512   4.463 -1.2979 -0.0214  0.1424
 2859SOL    HW311482   4.304   1.585   4.356 -1.4472 -0.7040 -0.2179
 2859SOL    MW411483   4.364   1.526   4.379 -0.7238  0.1217  0.0319
 2860SOL     OW11484   3.848   2.805   3.756 -0.2525 -0.4107  0.1812
 2860SOL    HW211485   3.941   2.823   3.769  0.0877 -1.2771 -0.9365
 2860SOL    HW311486   3.804   2.857   3.823  0.9600  0.9341 -0.0248
 2860SOL    MW411487   3.855   2.814   3.766 -0.0477 -0.3474  0.0064
 2861SOL     OW11488   0.199   0.964   4.774  0.2348 -0.0665  0.7383
 2861SOL    HW211489   0.130   0.904   4.745  1.4481 -0.8915 -0.5364
 2861SOL    HW311490   0.163   1.051   4.760 -0.9243 -0.4970  1.0161
 2861SOL    MW411491   0.185   0.967   4.768  0.2419 -0.2321  0.6065
 2862SOL     OW11492   2.428   2.665   4.386  0.0546 -0.1869  1.1610
 2862SOL    HW211493   2.407   2.598   4.322  0.3304  0.9792 -0.1571
 2862SOL    HW311494   2.523   2.656   4.400  0.4291  1.0884 -0.3812
 2862SOL    MW411495   2.438   2.655   4.380  0.1404  0.1352  0.7834
 2863SOL     OW11496   0.442   3.140   4.148 -0.1179  0.0249  0.1272
 2863SOL    HW211497   0.358   3.143   4.194  0.5422 -0.6290  1.3774
 2863SOL    HW311498   0.500   3.196   4.199  0.4148 -0.1290 -0.3049
 2863SOL    MW411499   0.438   3.148   4.161  0.0395 -0.0818  0.2356
 2864SOL     OW11500   1.550   2.322   4.341  0.1768  0.0191 -0.1895
 2864SOL    HW211501   1.504   2.385   4.286  1.2087 -0.3743 -1.5354
 2864SOL    HW311502   1.481   2.266   4.377 -0.5780  0.8033 -0.4137
 2864SOL    MW411503   1.535   2.323   4.339  0.2134  0.0706 -0.3963
 2865SOL     OW11504   3.075   2.769   4.127 -0.5343 -0.1323  0.6805
 2865SOL    HW211505   3.127   2.792   4.205 -0.3128 -1.1753  0.8407
 2865SOL    HW311506   3.043   2.854   4.096  1.1765  0.5395  0.6321
 2865SOL    MW411507   3.078   2.784   4.133 -0.2797 -0.1814  0.6957
 2866SOL     OW11508   0.012   1.768   4.666 -0.3898 -0.1034 -0.3231
 2866SOL    HW211509   0.101   1.777   4.630 -1.2756 -1.7491 -3.0358
 2866SOL    HW311510  -0.045   1.808   4.600 -1.8345 -0.8076  0.4693
 2866SOL    MW411511   0.016   1.775   4.653 -0.6973 -0.4135 -0.5770
 2867SOL     OW11512   2.696   4.030   4.452  0.2143  0.2002  0.6920
 2867SOL    HW211513   2.755   4.104   4.438  1.4536 -0.6834  1.1075
 2867SOL    HW311514   2.644   4.054   4.529  0.4587  0.7299  0.6901
 2867SOL    MW411515   2.697   4.043   4.461  0.4101  0.1535  0.7463
 2868SOL     OW11516   3.300   0.195   3.808  0.3443 -0.1584  0.2925
 2868SOL    HW211517   3.310   0.288   3.827  0.5397 -0.3680  1.2758
 2868SOL    HW311518   3.216   0.171   3.848 -1.1066  0.1968 -2.4155
 2868SOL    MW411519   3.290   0.204   3.816  0.1788 -0.1392  0.0648
 2869SOL     OW11520   2.458   0.022   3.472 -0.7502  0.1271 -0.4441
 2869SOL    HW211521   2.477   0.005   3.380 -0.5896  0.4447 -0.4705
 2869SOL    HW311522   2.538   0.062   3.506 -1.1062  0.7972 -0.3745
 2869SOL    MW411523   2.471   0.025   3.464 -0.7758  0.2574 -0.4387
 2870SOL     OW11524   2.173   1.492   4.020  0.0760  0.1534  0.3126
 2870SOL    HW211525   2.147   1.422   3.960 -1.3406 -0.1093  1.1963
 2870SOL    HW311526   2.246   1.456   4.070 -0.0754 -0.3722  0.1513
 2870SOL    MW411527   2.179   1.478   4.019 -0.1309  0.0494  0.4082
 2871SOL     OW11528   2.612   3.755   4.148 -0.5704  0.4069 -0.3326
 2871SOL    HW211529   2.634   3.715   4.232  1.2218  1.0506 -0.4631
 2871SOL    HW311530   2.633   3.688   4.083 -2.2596 -0.2061 -0.2569
 2871SOL    MW411531   2.618   3.741   4.150 -0.5569  0.4108 -0.3395
 2872SOL     OW11532   0.370   4.544   4.650  0.1288 -0.2837 -0.5186
 2872SOL    HW211533   0.383   4.458   4.611 -0.7113  0.0294 -1.5097
 2872SOL    HW311534   0.392   4.532   4.743  0.1326 -1.5252 -0.6738
 2872SOL    MW411535   0.375   4.531   4.657  0.0185 -0.4063 -0.6695
 2873SOL     OW11536   1.686   3.659   3.759  0.2529  0.3395 -0.0632
 2873SOL    HW211537   1.654   3.659   3.669  0.2489 -0.1077 -0.0628
 2873SOL    HW311538   1.649   3.737   3.798 -1.6773 -0.7069  0.2456
 2873SOL    MW411539   1.677   3.669   3.752 -0.0023  0.1426 -0.0224
 2874SOL     OW11540   0.200   2.055   3.714  0.2422  0.2123 -0.1011
 2874SOL    HW211541   0.107   2.074   3.717  0.4026  0.9308  0.2507
 2874SOL    HW311542   0.235   2.086   3.798  0.7205 -0.4618 -0.0403
 2874SOL    MW411543   0.193   2.061   3.725  0.3265  0.2184 -0.0465
 2875SOL     OW11544   3.295   1.123   4.506 -0.1463 -0.1458  0.4363
 2875SOL    HW211545   3.346   1.124   4.424 -1.0898  0.9772 -0.1469
 2875SOL    HW311546   3.277   1.030   4.521 -1.8524 -0.2222 -1.8218
 2875SOL    MW411547   3.300   1.111   4.497 -0.4959 -0.0077  0.0615
 2876SOL     OW11548   0.889   2.515   4.413  0.2546 -0.2112 -0.2543
 2876SOL    HW211549   0.926   2.602   4.424 -1.0933  0.3372  0.1056
 2876SOL    HW311550   0.918   2.487   4.326 -0.7042  1.3135 -1.0878
 2876SOL    MW411551   0.898   2.523   4.403 -0.0497  0.0625 -0.3166
 2877SOL     OW11552   3.163   2.565   4.702  0.5449  0.0439 -0.1371
 2877SOL    HW211553   3.104   2.616   4.647  1.0693 -1.0035 -1.7200
 2877SOL    HW311554   3.116   2.482   4.717  1.0983 -0.3213 -0.4012
 2877SOL    MW411555   3.149   2.561   4.697  0.6874 -0.1426 -0.3810
 2878SOL     OW11556   1.118   3.644   4.561  0.7204  0.3768  0.0960
 2878SOL    HW211557   1.049   3.578   4.573  0.8593 -0.2406 -2.1954
 2878SOL    HW311558   1.180   3.603   4.501  2.1573  1.6194  0.7079
 2878SOL    MW411559   1.117   3.630   4.555  0.9284  0.4592 -0.1259
 2879SOL     OW11560   0.864   2.999   4.082  0.2850 -0.2854 -0.0274
 2879SOL    HW211561   0.847   3.015   3.990 -0.0045  0.0393  0.0822
 2879SOL    HW311562   0.865   3.086   4.122 -2.0086 -0.5665  0.6926
 2879SOL    MW411563   0.862   3.012   4.075 -0.0557 -0.2797  0.0820
 2880SOL     OW11564   1.693   4.641   4.702  0.3890 -0.6156 -0.8125
 2880SOL    HW211565   1.627   4.628   4.771  0.5808 -0.8674 -0.6781
 2880SOL    HW311566   1.646   4.687   4.632 -0.3955 -2.3968 -1.4814
 2880SOL    MW411567   1.678   4.646   4.702  0.3108 -0.8838 -0.8831
 2881SOL     OW11568   1.272   0.270   4.573  0.4347  0.7037 -0.0681
 2881SOL    HW211569   1.290   0.184   4.610  0.9121  0.5990 -0.5268
 2881SOL    HW311570   1.182   0.289   4.598 -0.0105 -0.3707 -0.8348
 2881SOL    MW411571   1.263   0.261   4.581  0.4390  0.5481 -0.2294
 2882SOL     OW11572   1.300   2.549   3.816  0.3408 -0.2721 -0.0082
 2882SOL    HW211573   1.376   2.542   3.874  0.3476 -1.5930 -0.1613
 2882SOL    HW311574   1.242   2.478   3.843  0.1821 -0.6713 -1.3530
 2882SOL    MW411575   1.303   2.539   3.827  0.3209 -0.4990 -0.2060
 2883SOL     OW11576   1.547   1.389   4.373 -0.3091 -0.2088  0.1434
 2883SOL    HW211577   1.538   1.440   4.292 -0.5767 -1.3125 -0.5464
 2883SOL    HW311578   1.459   1.389   4.412 -0.3834 -0.3821 -0.0184
 2883SOL    MW411579   1.534   1.396   4.367 -0.3543 -0.3772  0.0315
 2884SOL     OW11580   1.731   1.599   4.468 -0.5077  0.3950 -0.4870
 2884SOL    HW211581   1.825   1.581   4.477 -0.6969  0.0344  0.7954
 2884SOL    HW311582   1.693   1.516   4.441 -0.9695 -0.4560  2.6196
 2884SOL    MW411583   1.739   1.586   4.466 -0.5937  0.2352  0.0920
 2885NA      NA11584   4.108   4.002   0.729 -0.2282 -0.2978  0.6769
   4.49070   4.66690  10.00000
