Gromacs Runs On Most of All Computer Systems in water
11558
    1RG35     P    1   0.188   4.501   1.695  0.0704 -0.4598 -0.0898
    1RG35   O1P    2   0.328   4.517   1.660  0.2985 -0.2291 -0.6091
    1RG35   O2P    3   0.170   4.482   1.839 -0.5250  0.4132 -0.5334
    1RG35   O5'    4   0.119   4.646   1.677 -0.2265 -0.4177 -0.7224
    1RG35   C5'    5   0.113   4.720   1.557  0.0135  0.6613  0.2235
    1RG35  H5'1    6   0.015   4.705   1.512 -0.1735  2.5942 -0.0621
    1RG35  H5'2    7   0.190   4.686   1.487 -1.2693 -0.9109 -0.4738
    1RG35   C4'    8   0.119   4.873   1.569 -0.1710  0.3798 -0.3330
    1RG35   H4'    9   0.145   4.919   1.474 -0.7464 -0.2502 -0.8008
    1RG35   O4'   10   0.002   4.936   1.620 -0.4901 -0.4387  0.5126
    1RG35   C1'   11   0.038   5.067   1.669 -0.0440  0.1065 -0.2289
    1RG35   H1'   12   0.051   5.132   1.582  0.0284 -0.9716 -1.0260
    1RG35    N9   13  -0.054   5.125   1.772 -1.0713  0.6876 -0.3317
    1RG35    C8   14  -0.127   5.242   1.756 -0.2352  0.5208  0.0167
    1RG35    H8   15  -0.119   5.307   1.670 -0.9108 -0.7358 -1.0274
    1RG35    N7   16  -0.209   5.269   1.854  0.6846  0.1029  0.0473
    1RG35    C5   17  -0.189   5.157   1.943 -0.2099 -0.0503 -0.1217
    1RG35    C6   18  -0.247   5.129   2.073 -0.0156 -0.4384 -0.1377
    1RG35    O6   19  -0.331   5.187   2.141  0.1161  0.2349  0.0541
    1RG35    N1   20  -0.205   5.012   2.123  0.0318  0.0452 -0.3383
    1RG35    H1   21  -0.224   4.993   2.220  0.0561  0.7015 -0.2027
    1RG35    C2   22  -0.120   4.930   2.062  0.0510  0.1745  0.3544
    1RG35    N2   23  -0.089   4.817   2.125  0.5466 -0.1373  0.0152
    1RG35   H21   24  -0.133   4.790   2.212  1.2001  0.5143  0.5559
    1RG35   H22   25  -0.032   4.748   2.079  0.4193  0.0831 -0.4760
    1RG35    N3   26  -0.061   4.949   1.943  0.0957 -0.0501 -0.2259
    1RG35    C4   27  -0.099   5.069   1.889 -0.5541 -0.3807 -0.2737
    1RG35   C3'   28   0.238   4.916   1.659 -0.0651  0.1276 -0.2444
    1RG35   H3'   29   0.250   4.833   1.728 -0.2897  1.8126  1.8998
    1RG35   C2'   30   0.172   5.038   1.733  0.7013  0.5726 -0.2560
    1RG35  H2'1   31   0.166   5.011   1.839  1.7959  0.3663 -0.2368
    1RG35   O2'   32   0.250   5.150   1.714 -0.5502  0.5572  0.3297
    1RG35  HO'2   33   0.332   5.123   1.674 -1.0352  0.0632 -0.3378
    1RG35   O3'   34   0.357   4.940   1.595 -0.3630  0.0482 -0.3328
    1RG35   H3T   35   0.416   4.873   1.628 -0.3753 -0.4293 -1.2570
    1RG35   O3P   36   0.117   4.404   1.613 -0.4912 -0.2273 -0.6064
    1SOL     OW   37   2.275   4.566   1.129 -0.6074 -0.6576  0.0136
    1SOL    HW2   38   2.296   4.573   1.036  0.7187 -1.5440  0.2450
    1SOL    HW3   39   2.207   4.498   1.133 -1.7018  0.3867 -0.4461
    1SOL    MW4   40   2.269   4.558   1.117 -0.5770 -0.6366 -0.0166
    1SOL     OW   41   0.241   4.643   3.563 -0.3762 -0.0154  0.0224
    1SOL    HW2   42   0.180   4.692   3.618 -1.9372 -1.4856 -0.3552
    1SOL    HW3   43   0.267   4.569   3.617  2.6736  1.6133  0.9334
    1SOL    MW4   44   0.237   4.640   3.578 -0.1798  0.0057  0.0927
    1SOL     OW   45   2.759   2.243   1.569 -0.0288 -0.1844  0.4587
    1SOL    HW2   46   2.844   2.202   1.584 -0.2088 -0.4537  0.7562
    1SOL    HW3   47   2.749   2.245   1.474 -0.7322 -2.3187  0.4606
    1SOL    MW4   48   2.769   2.238   1.559 -0.1454 -0.5016  0.4982
    1SOL     OW   49   4.476   3.211   2.963  0.1785 -0.2156 -0.2260
    1SOL    HW2   50   4.489   3.117   2.952  0.0795 -0.3780  1.0157
    1SOL    HW3   51   4.449   3.221   3.054  0.7320  1.0714 -0.1937
    1SOL    MW4   52   4.474   3.200   2.974  0.2389 -0.0675 -0.0579
    1SOL     OW   53   2.952   4.479   1.157 -0.4439  0.0749  0.2808
    1SOL    HW2   54   2.906   4.425   1.094 -0.2182 -1.6614  1.5860
    1SOL    HW3   55   3.044   4.474   1.131  0.1969 -3.7356  2.8971
    1SOL    MW4   56   2.958   4.472   1.145 -0.3295 -0.6566  0.7980
    1SOL     OW   57   3.201   4.488   4.555 -0.5774 -0.0029  0.6233
    1SOL    HW2   58   3.109   4.513   4.570 -0.1652  0.5929  2.2888
    1SOL    HW3   59   3.205   4.466   4.462 -2.1758  0.9665  0.3071
    1SOL    MW4   60   3.189   4.488   4.545 -0.7341  0.2036  0.8020
    1SOL     OW   61   3.946   1.497   4.792 -0.0633  0.0165 -0.0597
    1SOL    HW2   62   3.931   1.423   4.734  0.7985  0.4007 -0.7930
    1SOL    HW3   63   3.950   1.459   4.880 -0.9999 -0.6189 -0.2865
    1SOL    MW4   64   3.945   1.483   4.796 -0.0730 -0.0166 -0.1869
    1SOL     OW   65   4.239   2.838   4.344 -0.1502  0.1191 -0.1232
    1SOL    HW2   66   4.249   2.745   4.322 -0.8866 -0.1668  0.7343
    1SOL    HW3   67   4.161   2.866   4.296 -0.5945  0.0083  0.5441
    1SOL    MW4   68   4.230   2.830   4.335 -0.3061  0.0668  0.0782
    1SOL     OW   69   4.213   4.440   1.340  0.0343  0.0757 -0.3024
    1SOL    HW2   70   4.266   4.428   1.419  0.4705  1.1928 -0.4208
    1SOL    HW3   71   4.207   4.352   1.302  0.4460 -0.3388  0.5648
    1SOL    MW4   72   4.219   4.427   1.345  0.1464  0.1683 -0.2035
    1SOL     OW   73   0.140   0.362   2.227  0.1347 -0.6635 -0.3648
    1SOL    HW2   74   0.186   0.397   2.150  0.9591 -1.5554 -0.2814
    1SOL    HW3   75   0.142   0.267   2.215 -1.7644 -0.7097 -0.3918
    1SOL    MW4   76   0.146   0.354   2.215 -0.0071 -0.7873 -0.3576
    1SOL     OW   77   0.085   4.540   4.353 -0.3140 -0.2540 -0.5985
    1SOL    HW2   78   0.103   4.460   4.304 -0.2470 -0.3955 -0.3433
    1SOL    HW3   79   0.098   4.611   4.290  0.0819 -0.4193 -0.6977
    1SOL    MW4   80   0.089   4.539   4.338 -0.2529 -0.2942 -0.5774
    1SOL     OW   81   1.351   3.568   3.060  0.4034  0.2755 -0.5656
    1SOL    HW2   82   1.304   3.551   2.978  0.6302  0.1307 -0.6682
    1SOL    HW3   83   1.423   3.625   3.034  1.0707 -0.5922 -0.6476
    1SOL    MW4   84   1.354   3.573   3.046  0.5214  0.1421 -0.5901
    1SOL     OW   85   1.320   3.631   4.532  0.1205  0.0448  0.0569
    1SOL    HW2   86   1.316   3.584   4.449 -2.3755  0.8358 -0.2935
    1SOL    HW3   87   1.266   3.578   4.592 -0.4376  0.9854  0.3954
    1SOL    MW4   88   1.312   3.618   4.529 -0.2825  0.2732  0.0548
    1SOL     OW   89   1.111   0.993   2.678  0.0964  0.3835  0.0282
    1SOL    HW2   90   1.131   1.006   2.771 -1.5101 -0.2812  0.4815
    1SOL    HW3   91   1.027   1.037   2.665 -0.7846 -1.4491 -0.5812
    1SOL    MW4   92   1.102   1.001   2.689 -0.2319  0.0540  0.0079
    1SOL     OW   93   3.395   2.882   1.944 -0.3631  1.1435 -0.6726
    1SOL    HW2   94   3.394   2.912   2.035  0.3177 -2.8409  0.7328
    1SOL    HW3   95   3.305   2.855   1.926  0.2275 -1.5458  0.1278
    1SOL    MW4   96   3.383   2.882   1.953 -0.1955  0.2630 -0.3816
    1SOL     OW   97   2.749   1.858   2.184  0.1766 -0.3186 -0.5582
    1SOL    HW2   98   2.762   1.880   2.092  1.0711  1.8384  0.0606
    1SOL    HW3   99   2.676   1.913   2.212  2.4552  1.9844  1.0240
    1SOL    MW4  100   2.741   1.868   2.175  0.5951  0.2700 -0.2680
    1SOL     OW  101   3.800   1.852   1.591 -0.0670 -0.3053 -0.4162
    1SOL    HW2  102   3.778   1.772   1.638  0.8249  0.0840  0.7023
    1SOL    HW3  103   3.722   1.906   1.598 -0.6293 -1.0260 -1.0688
    1SOL    MW4  104   3.787   1.849   1.598 -0.0234 -0.3490 -0.3548
    1SOL     OW  105   0.933   2.571   1.185 -0.4825  0.6072 -0.4551
    1SOL    HW2  106   0.843   2.556   1.158 -0.3244  1.6010 -1.5620
    1SOL    HW3  107   0.933   2.657   1.225 -0.5349 -0.4967  2.0259
    1SOL    MW4  108   0.921   2.580   1.186 -0.4686  0.5927 -0.2739
    1SOL     OW  109   3.101   4.647   0.644 -0.2444  0.0762  0.2804
    1SOL    HW2  110   3.108   4.646   0.549 -2.4685 -1.8170  0.1030
    1SOL    HW3  111   3.157   4.575   0.673  1.1782  1.2474  0.4853
    1SOL    MW4  112   3.109   4.637   0.635 -0.3500 -0.0191  0.2840
    1SOL     OW  113   1.271   1.074   3.487  0.3678  0.5140 -0.1276
    1SOL    HW2  114   1.177   1.091   3.484 -0.5393 -3.0274  4.0049
    1SOL    HW3  115   1.302   1.123   3.562  2.0099  2.1220 -1.8035
    1SOL    MW4  116   1.263   1.082   3.496  0.4648  0.2589  0.1965
    1SOL     OW  117   4.328   2.132   3.454  0.1204 -0.2186 -0.1552
    1SOL    HW2  118   4.411   2.085   3.458  1.2892  1.6246 -1.8221
    1SOL    HW3  119   4.272   2.077   3.399  0.2883 -1.3598  0.8008
    1SOL    MW4  120   4.332   2.118   3.447  0.2966 -0.1264 -0.2489
    1SOL     OW  121   1.004   2.221   3.035 -0.4999  0.0052 -0.0764
    1SOL    HW2  122   0.961   2.138   3.016  0.2006 -0.8034  1.7768
    1SOL    HW3  123   0.937   2.273   3.079 -0.4598 -0.2088  0.2471
    1SOL    MW4  124   0.989   2.217   3.038 -0.4022 -0.1299  0.2108
    1SOL     OW  125   4.300   2.473   2.371  0.7274  0.2700  0.0871
    1SOL    HW2  126   4.262   2.387   2.388  0.6489  0.5198  1.2067
    1SOL    HW3  127   4.226   2.534   2.372  1.0237  0.6250  1.3255
    1SOL    MW4  128   4.285   2.470   2.373  0.7558  0.3495  0.3982
    1SOL     OW  129   3.144   3.327   4.128 -0.3779 -0.4405  0.0373
    1SOL    HW2  130   3.093   3.371   4.059  0.4056  0.3211 -0.0719
    1SOL    HW3  131   3.107   3.360   4.210  0.2568  0.5070 -0.0444
    1SOL    MW4  132   3.132   3.337   4.129 -0.1907 -0.2151  0.0129
    1SOL     OW  133   1.597   3.684   2.118 -0.7284  0.0890 -0.2707
    1SOL    HW2  134   1.586   3.612   2.055 -1.2417 -0.2970  0.2616
    1SOL    HW3  135   1.509   3.723   2.125 -0.4957  0.6512 -0.4073
    1SOL    MW4  136   1.584   3.680   2.110 -0.7656  0.1123 -0.2186
    1SOL     OW  137   2.763   3.299   4.821  0.1360 -0.1997  0.1307
    1SOL    HW2  138   2.786   3.392   4.826  0.0730 -0.1839  0.1161
    1SOL    HW3  139   2.695   3.295   4.754  1.2816 -0.4598 -1.0300
    1SOL    MW4  140   2.757   3.311   4.813  0.2789 -0.2320 -0.0238
    1SOL     OW  141   3.772   3.575   3.529  0.5011  0.3941  0.1387
    1SOL    HW2  142   3.802   3.498   3.577  0.7498  1.1231  1.1801
    1SOL    HW3  143   3.850   3.608   3.485  0.4541  0.2182 -0.0787
    1SOL    MW4  144   3.786   3.569   3.529  0.5279  0.4671  0.2475
    1SOL     OW  145   2.970   4.314   2.790  0.3197  0.1389  0.5520
    1SOL    HW2  146   2.977   4.220   2.770  1.4773  0.5774 -1.2336
    1SOL    HW3  147   3.061   4.343   2.798 -0.0583  0.8513  2.4190
    1SOL    MW4  148   2.983   4.305   2.789  0.4230  0.2904  0.5627
    1SOL     OW  149   2.261   0.065   0.657  0.4835  0.5137  0.1796
    1SOL    HW2  150   2.300  -0.009   0.611  2.5483  1.4495  0.3529
    1SOL    HW3  151   2.175   0.076   0.618  0.6515 -1.2178 -0.6884
    1SOL    MW4  152   2.255   0.057   0.646  0.7782  0.4087  0.0879
    1SOL     OW  153   2.466   0.122   1.784 -0.0012 -0.5490 -0.2477
    1SOL    HW2  154   2.478   0.180   1.858 -0.3529 -0.4594 -0.2587
    1SOL    HW3  155   2.499   0.037   1.814  1.3261 -0.1381 -0.5331
    1SOL    MW4  156   2.472   0.118   1.797  0.1276 -0.4829 -0.2867
    1SOL     OW  157   2.421   1.476   0.758 -0.4059 -0.1824 -0.3098
    1SOL    HW2  158   2.468   1.393   0.748  0.2744 -0.4817  4.2742
    1SOL    HW3  159   2.481   1.541   0.723  1.2494 -1.1131  0.7188
    1SOL    MW4  160   2.435   1.473   0.752 -0.0980 -0.3446  0.4306
    1SOL     OW  161   3.590   0.552   3.184 -0.6331  0.4448  0.3462
    1SOL    HW2  162   3.522   0.503   3.137  1.1168 -2.0858  0.3406
    1SOL    HW3  163   3.581   0.524   3.275 -0.0431  0.6485  0.4650
    1SOL    MW4  164   3.580   0.542   3.190 -0.3240  0.1379  0.3612
    1SOL     OW  165   3.309   3.745   1.704 -0.1456  0.1713 -0.3089
    1SOL    HW2  166   3.285   3.718   1.792  0.4629  1.8412  0.3947
    1SOL    HW3  167   3.373   3.679   1.675 -0.3784 -0.4103  0.4782
    1SOL    MW4  168   3.315   3.733   1.712 -0.0958  0.3150 -0.1122
    1SOL     OW  169   4.289   4.296   2.695  0.4136 -0.5560  0.2127
    1SOL    HW2  170   4.299   4.202   2.682 -0.4616 -0.6547  0.1805
    1SOL    HW3  171   4.269   4.306   2.788 -2.0251 -0.6464 -0.2631
    1SOL    MW4  172   4.288   4.285   2.705 -0.0234 -0.5813  0.1459
    1SOL     OW  173   0.067   2.272   2.916  0.3124  0.2835  0.1515
    1SOL    HW2  174   0.073   2.186   2.876 -0.7527 -0.2034  1.0280
    1SOL    HW3  175   0.157   2.306   2.913  0.4140 -0.1267 -1.7802
    1SOL    MW4  176   0.080   2.265   2.910  0.1853  0.1652  0.0124
    1SOL     OW  177   3.906   2.465   3.880  0.1085 -0.0184 -0.3731
    1SOL    HW2  178   3.829   2.448   3.826  0.4884 -1.4020 -0.4965
    1SOL    HW3  179   3.900   2.558   3.901 -0.9412  0.1629 -1.4003
    1SOL    MW4  180   3.895   2.475   3.875  0.0200 -0.1769 -0.5252
    1SOL     OW  181   4.097   0.778   1.015 -0.2834  0.2596 -0.5117
    1SOL    HW2  182   4.181   0.766   0.971  0.4654  0.0284  0.9644
    1SOL    HW3  183   4.115   0.838   1.087 -1.0687 -0.9588  0.7201
    1SOL    MW4  184   4.110   0.784   1.018 -0.2880  0.0684 -0.1543
    1SOL     OW  185   3.994   2.884   2.326  0.0325 -0.3016  0.3100
    1SOL    HW2  186   4.077   2.923   2.352  0.0186  1.1091 -1.7264
    1SOL    HW3  187   4.009   2.789   2.333  1.7845 -0.0582 -0.0146
    1SOL    MW4  188   4.007   2.876   2.331  0.2618 -0.0832 -0.0014
    1SOL     OW  189   1.575   1.755   1.180  0.1792  0.5495 -0.4910
    1SOL    HW2  190   1.575   1.731   1.273  0.2377 -0.4543 -0.7443
    1SOL    HW3  191   1.498   1.711   1.144  0.6965  0.1457 -1.1122
    1SOL    MW4  192   1.565   1.746   1.187  0.2551  0.3638 -0.6063
    1SOL     OW  193   4.140   1.734   2.340 -0.2204  0.1316  0.1829
    1SOL    HW2  194   4.229   1.767   2.324  0.4309  0.4503  4.0435
    1SOL    HW3  195   4.087   1.812   2.355 -0.3346 -0.2290  1.6823
    1SOL    MW4  196   4.145   1.749   2.340 -0.1493  0.1260  0.8900
    1SOL     OW  197   1.277   2.181   4.098 -0.6944  0.1338 -0.0830
    1SOL    HW2  198   1.345   2.216   4.156 -0.1208 -1.4651  0.2337
    1SOL    HW3  199   1.231   2.116   4.151 -1.2744 -0.1156 -0.8743
    1SOL    MW4  200   1.280   2.177   4.113 -0.6951 -0.1099 -0.1459
    1SOL     OW  201   1.924   0.145   1.188  0.2807  0.6143  0.4399
    1SOL    HW2  202   1.875   0.217   1.148  3.7931  1.9574 -1.6132
    1SOL    HW3  203   1.903   0.069   1.133 -2.5131  0.2321  1.9222
    1SOL    MW4  204   1.914   0.144   1.175  0.3755  0.7411  0.3645
    1SOL     OW  205   3.035   2.951   3.357 -0.2030  0.0375  0.0673
    1SOL    HW2  206   2.946   2.985   3.353 -0.5897 -0.8447  0.9029
    1SOL    HW3  207   3.069   2.983   3.440  0.2403  0.3314 -0.2280
    1SOL    MW4  208   3.028   2.959   3.367 -0.1955 -0.0398  0.1388
    1SOL     OW  209   0.139   1.901   0.588 -0.5584  0.4009  0.0244
    1SOL    HW2  210   0.141   1.912   0.493 -1.0482 -0.1388 -0.0502
    1SOL    HW3  211   0.102   1.983   0.621 -1.0438  0.3153 -0.2997
    1SOL    MW4  212   0.134   1.914   0.580 -0.6871  0.3184 -0.0282
    1SOL     OW  213   2.416   4.465   1.675 -0.4503  0.3105  0.4980
    1SOL    HW2  214   2.325   4.488   1.658 -0.5074 -0.0068  0.3602
    1SOL    HW3  215   2.423   4.458   1.770 -0.1529  2.0152  0.6181
    1SOL    MW4  216   2.405   4.467   1.685 -0.4184  0.4940  0.4957
    1SOL     OW  217   3.549   3.323   0.578  0.5413  0.5492  0.0720
    1SOL    HW2  218   3.608   3.399   0.582  1.0189  0.1036  1.5976
    1SOL    HW3  219   3.494   3.340   0.502  3.8288  0.1168 -2.5506
    1SOL    MW4  220   3.550   3.335   0.568  1.0378  0.4332 -0.0729
    1SOL     OW  221   0.211   0.368   3.236  0.1508  0.4808  0.0017
    1SOL    HW2  222   0.250   0.318   3.307 -0.9233 -1.5891 -0.8185
    1SOL    HW3  223   0.265   0.348   3.159 -0.9417 -0.3216 -0.5680
    1SOL    MW4  224   0.223   0.359   3.235 -0.1351  0.1019 -0.1817
    1SOL     OW  225   2.327   0.964   2.203 -0.0181 -0.0232  0.6042
    1SOL    HW2  226   2.403   1.009   2.164  0.0852  0.4426  1.3464
    1SOL    HW3  227   2.311   0.891   2.144  2.5685 -1.5986  1.7482
    1SOL    MW4  228   2.335   0.961   2.190  0.3369 -0.1696  0.8531
    1SOL     OW  229   1.583   0.078   1.506  0.0831  0.2576 -0.0953
    1SOL    HW2  230   1.580   0.149   1.571  1.5006  0.2038  0.0541
    1SOL    HW3  231   1.567  -0.002   1.557  2.7590  0.0545  0.4909
    1SOL    MW4  232   1.580   0.077   1.522  0.6233  0.2237  0.0020
    1SOL     OW  233   1.674   2.411   0.919 -0.2551  0.9006  0.1456
    1SOL    HW2  234   1.678   2.414   0.823  0.7253  0.5881  0.1750
    1SOL    HW3  235   1.705   2.323   0.941 -0.8080  0.8543  0.7341
    1SOL    MW4  236   1.678   2.400   0.909 -0.1987  0.8531  0.2272
    1SOL     OW  237   3.879   1.411   2.764 -0.3028  0.3193 -0.0363
    1SOL    HW2  238   3.849   1.478   2.825 -1.7778 -0.5630  0.2505
    1SOL    HW3  239   3.907   1.339   2.821 -0.4544 -0.0051 -0.3711
    1SOL    MW4  240   3.879   1.410   2.780 -0.5171  0.1601 -0.0427
    1SOL     OW  241   1.618   3.176   2.558  0.0150  0.3068 -0.6154
    1SOL    HW2  242   1.603   3.120   2.483  0.0125  0.0994 -0.4595
    1SOL    HW3  243   1.571   3.257   2.538  1.3427  0.8613 -1.5613
    1SOL    MW4  244   1.610   3.179   2.546  0.1898  0.3526 -0.7200
    1SOL     OW  245   2.223   0.748   4.539  0.5083 -0.0106  0.2047
    1SOL    HW2  246   2.140   0.710   4.568  0.0079  0.6090 -0.4080
    1SOL    HW3  247   2.212   0.763   4.446  1.4025 -0.1475  0.0689
    1SOL    MW4  248   2.211   0.745   4.531  0.5605  0.0530  0.1059
    1SOL     OW  249   2.436   3.024   4.537  0.4520  0.2996  0.0164
    1SOL    HW2  250   2.453   3.014   4.443  0.8992  1.5385 -0.0401
    1SOL    HW3  251   2.346   3.057   4.541  0.4199  0.2117  0.0267
    1SOL    MW4  252   2.426   3.027   4.525  0.5066  0.4513  0.0105
    1SOL     OW  253   3.685   1.829   4.171 -0.0057 -0.5572  0.6333
    1SOL    HW2  254   3.758   1.796   4.224 -0.1994 -1.6066  0.2608
    1SOL    HW3  255   3.694   1.785   4.087  1.4715  2.6313 -0.9528
    1SOL    MW4  256   3.696   1.819   4.167  0.1640 -0.2751  0.3753
    1SOL     OW  257   3.579   2.368   1.582  0.1421  0.0038 -0.3179
    1SOL    HW2  258   3.583   2.363   1.487  0.1553 -0.9163 -0.2731
    1SOL    HW3  259   3.499   2.320   1.605  0.2341  0.0712  0.1426
    1SOL    MW4  260   3.569   2.361   1.573  0.1559 -0.1085 -0.2513
    1SOL     OW  261   2.323   0.092   3.677  0.4444  0.1628 -0.4604
    1SOL    HW2  262   2.416   0.115   3.665  0.7137 -0.6184  0.1341
    1SOL    HW3  263   2.281   0.175   3.699  1.2403  0.2848  0.6312
    1SOL    MW4  264   2.330   0.106   3.678  0.5848  0.0758 -0.2379
    1SOL     OW  265   2.611   2.741   3.516  0.5222  0.5931  0.3293
    1SOL    HW2  266   2.581   2.790   3.593  1.1381  2.1450 -0.3832
    1SOL    HW3  267   2.706   2.745   3.521  0.5743  1.2561 -0.8192
    1SOL    MW4  268   2.619   2.748   3.527  0.6104  0.8852  0.0837
    1SOL     OW  269   1.893   0.442   2.522  0.0794 -1.0632  0.1084
    1SOL    HW2  270   1.952   0.413   2.591  0.4579 -0.5025  0.0328
    1SOL    HW3  271   1.935   0.521   2.487 -0.3031 -1.1204 -0.4969
    1SOL    MW4  272   1.906   0.449   2.526  0.0787 -0.9968  0.0184
    1SOL     OW  273   0.720   3.597   4.580 -0.0764  0.4921  0.1469
    1SOL    HW2  274   0.736   3.591   4.486  0.6146  1.0745  0.2207
    1SOL    HW3  275   0.650   3.661   4.588  0.1013  0.7014  0.0443
    1SOL    MW4  276   0.713   3.605   4.569  0.0383  0.5965  0.1431
    1SOL     OW  277   3.867   1.787   2.933 -0.2078  0.3762 -0.4111
    1SOL    HW2  278   3.956   1.765   2.904  0.6039  1.1397  1.4122
    1SOL    HW3  279   3.838   1.710   2.982 -0.6405  0.0432 -1.1859
    1SOL    MW4  280   3.875   1.774   2.936 -0.1581  0.4331 -0.2728
    1SOL     OW  281   4.381   4.384   0.735  0.5693 -0.2066  0.5657
    1SOL    HW2  282   4.402   4.477   0.738  2.1231 -0.5554  1.4354
    1SOL    HW3  283   4.295   4.377   0.777 -0.2929  1.0024 -0.9399
    1SOL    MW4  284   4.372   4.395   0.741  0.6604 -0.0930  0.4818
    1SOL     OW  285   0.875   3.896   1.484  0.1044 -0.1337  0.3607
    1SOL    HW2  286   0.964   3.918   1.456 -0.0570  0.3375  0.2207
    1SOL    HW3  287   0.835   3.853   1.408  0.0913 -0.0182  0.3027
    1SOL    MW4  288   0.881   3.893   1.471  0.0814 -0.0560  0.3345
    1SOL     OW  289   0.061   2.804   4.172  0.4720  0.1015  0.7584
    1SOL    HW2  290   0.031   2.878   4.225  0.8507  0.2441  0.7757
    1SOL    HW3  291   0.131   2.763   4.224 -0.2753 -0.7433  1.1053
    1SOL    MW4  292   0.067   2.808   4.186  0.4234  0.0091  0.8063
    1SOL     OW  293   0.684   4.051   3.413  0.2088 -0.1669  0.1308
    1SOL    HW2  294   0.747   4.057   3.485 -0.9921  0.3073  1.1469
    1SOL    HW3  295   0.637   3.969   3.429  0.6591 -0.5980 -0.7145
    1SOL    MW4  296   0.686   4.041   3.425  0.1098 -0.1612  0.1531
    1SOL     OW  297   0.002   3.450   0.862 -0.1526  0.0605 -0.3259
    1SOL    HW2  298   0.086   3.467   0.819  0.4695  0.8738  1.1924
    1SOL    HW3  299  -0.021   3.532   0.905 -0.7718 -0.7404  0.8937
    1SOL    MW4  300   0.010   3.463   0.862 -0.1522  0.0620  0.0352
    1SOL     OW  301   2.426   0.726   3.958  0.3917 -0.3939  0.3608
    1SOL    HW2  302   2.381   0.780   3.893  0.2596  0.4825  1.1560
    1SOL    HW3  303   2.361   0.661   3.985 -0.2038  0.4638  1.0348
    1SOL    MW4  304   2.411   0.725   3.953  0.2956 -0.1652  0.5548
    1SOL     OW  305   2.737   0.876   4.578  0.1068 -0.3545  0.5146
    1SOL    HW2  306   2.723   0.965   4.608 -0.7430 -0.5065  0.5929
    1SOL    HW3  307   2.649   0.837   4.577  0.5494 -1.3933  1.1610
    1SOL    MW4  308   2.723   0.882   4.582  0.0529 -0.5116  0.6099
    1SOL     OW  309   2.506   1.719   2.939  0.0067 -0.5365  0.1555
    1SOL    HW2  310   2.473   1.730   2.850  0.8221 -0.3070 -0.1238
    1SOL    HW3  311   2.549   1.634   2.938 -0.5479 -0.8183  0.5063
    1SOL    MW4  312   2.507   1.709   2.927  0.0412 -0.5434  0.1647
    1SOL     OW  313   2.334   2.321   1.384  0.5669 -0.0943 -0.1899
    1SOL    HW2  314   2.260   2.269   1.353  0.5548  0.3021 -0.8435
    1SOL    HW3  315   2.398   2.315   1.313  1.8920 -1.9142  1.1361
    1SOL    MW4  316   2.333   2.314   1.370  0.7401 -0.2823 -0.1012
    1SOL     OW  317   4.212   4.283   2.953  0.0616  0.5020 -0.5174
    1SOL    HW2  318   4.263   4.343   3.007  0.3957  0.2141 -0.5159
    1SOL    HW3  319   4.125   4.325   2.946 -0.1320  0.2907  0.6356
    1SOL    MW4  320   4.207   4.297   2.959  0.0801  0.4363 -0.3650
    1SOL     OW  321   1.183   3.884   1.453 -0.7330 -0.0580  0.3159
    1SOL    HW2  322   1.190   3.935   1.373 -1.6582  0.5483  0.6155
    1SOL    HW3  323   1.271   3.886   1.491 -0.0125 -1.2431 -1.2101
    1SOL    MW4  324   1.195   3.891   1.448 -0.7598 -0.1345  0.1539
    1SOL     OW  325   1.176   1.951   4.252  0.3518  0.2643  0.2393
    1SOL    HW2  326   1.096   1.932   4.300  0.4604  0.4093  0.4818
    1SOL    HW3  327   1.184   1.881   4.188 -0.8660  1.1501 -0.9245
    1SOL    MW4  328   1.167   1.939   4.250  0.2054  0.4004  0.1178
    1SOL     OW  329   1.755   1.198   1.773  0.1349 -0.4444  0.1237
    1SOL    HW2  330   1.689   1.144   1.729 -0.3966 -1.1647  1.7963
    1SOL    HW3  331   1.823   1.136   1.799  0.6421  0.0455 -0.0355
    1SOL    MW4  332   1.755   1.183   1.770  0.1316 -0.4748  0.3234
    1SOL     OW  333   3.585   2.153   1.072 -0.0503  0.9582 -0.4869
    1SOL    HW2  334   3.673   2.144   1.036 -0.5553 -0.2147 -1.4802
    1SOL    HW3  335   3.580   2.085   1.140 -0.7367 -0.1163 -1.5872
    1SOL    MW4  336   3.596   2.143   1.076 -0.2077  0.6616 -0.7631
    1SOL     OW  337   2.453   2.062   2.527 -0.0207 -0.0254 -0.1979
    1SOL    HW2  338   2.501   2.033   2.449  1.2167  1.3662  0.0261
    1SOL    HW3  339   2.361   2.063   2.499  0.2199 -1.2773 -1.0831
    1SOL    MW4  340   2.447   2.058   2.513  0.1743 -0.0072 -0.2851
    1SOL     OW  341   0.704   3.611   2.678 -0.4359  0.4852  0.1072
    1SOL    HW2  342   0.691   3.690   2.625 -3.5720  0.8008  1.2491
    1SOL    HW3  343   0.668   3.541   2.625  1.6499 -0.1227 -0.5704
    1SOL    MW4  344   0.698   3.612   2.664 -0.5745  0.4463  0.1686
    1SOL     OW  345   2.239   3.716   4.273 -0.5931  0.6444  0.0060
    1SOL    HW2  346   2.276   3.638   4.313 -0.1741  1.0060  0.3197
    1SOL    HW3  347   2.148   3.719   4.305 -0.3799  0.7114  0.5995
    1SOL    MW4  348   2.232   3.707   4.282 -0.5097  0.7010  0.1259
    1SOL     OW  349   0.755   0.369   1.143 -0.3083 -0.4826 -0.0736
    1SOL    HW2  350   0.680   0.335   1.093 -0.3697  0.8430 -0.9059
    1SOL    HW3  351   0.822   0.301   1.136 -0.2280 -0.2088 -2.1790
    1SOL    MW4  352   0.754   0.355   1.136 -0.3059 -0.2716 -0.4613
    1SOL     OW  353   3.851   2.049   2.591  0.0676  0.3834 -0.1924
    1SOL    HW2  354   3.827   1.972   2.643 -1.4313  1.1084  0.1973
    1SOL    HW3  355   3.787   2.116   2.615  1.2039  1.6806 -0.7272
    1SOL    MW4  356   3.839   2.047   2.601  0.0198  0.6502 -0.2115
    1SOL     OW  357   2.861   4.409   3.404 -0.3559 -0.3233  0.1728
    1SOL    HW2  358   2.885   4.320   3.378  1.5798  0.8002 -2.0587
    1SOL    HW3  359   2.833   4.452   3.324 -1.1994  1.1245  1.2122
    1SOL    MW4  360   2.861   4.403   3.390 -0.2120  0.0162  0.0155
    1SOL     OW  361   3.657   0.755   1.060  0.1955  0.0447 -0.1668
    1SOL    HW2  362   3.581   0.710   1.098  0.5515 -0.3452  0.0912
    1SOL    HW3  363   3.687   0.814   1.128  0.0016  0.3483 -0.3431
    1SOL    MW4  364   3.651   0.757   1.074  0.2167  0.0333 -0.1560
    1SOL     OW  365   1.353   4.590   2.079 -0.0310 -0.3520  0.3700
    1SOL    HW2  366   1.410   4.547   2.016  0.3808  1.8811 -0.8251
    1SOL    HW3  367   1.269   4.544   2.071 -0.4428  0.8189 -2.9293
    1SOL    MW4  368   1.349   4.578   2.070 -0.0310  0.0973 -0.2232
    1SOL     OW  369   2.914   1.342   4.603 -0.2069 -0.2846 -0.1846
    1SOL    HW2  370   2.973   1.400   4.555 -0.4321  1.9226  2.1391
    1SOL    HW3  371   2.840   1.398   4.627 -1.1082 -1.9060  0.8899
    1SOL    MW4  372   2.912   1.357   4.600 -0.3557 -0.2074  0.2637
    1SOL     OW  373   2.052   4.008   3.387  0.0444 -0.7384  0.2652
    1SOL    HW2  374   2.081   4.092   3.350  1.2980 -1.0041  0.6210
    1SOL    HW3  375   1.984   3.978   3.328  1.1958 -0.5773 -1.1561
    1SOL    MW4  376   2.047   4.015   3.375  0.3617 -0.7520  0.1245
    1SOL     OW  377   4.144   0.885   3.657 -0.1406 -0.1659  0.5067
    1SOL    HW2  378   4.144   0.819   3.588  2.2965  0.2816  0.0068
    1SOL    HW3  379   4.090   0.956   3.623  1.0279  0.0435 -0.9945
    1SOL    MW4  380   4.137   0.886   3.644  0.3352 -0.0792  0.2429
    1SOL     OW  381   3.265   2.384   3.864 -0.2854 -0.0214 -0.1169
    1SOL    HW2  382   3.336   2.330   3.828  0.2091 -0.4420  1.4323
    1SOL    HW3  383   3.308   2.463   3.894 -0.6805  0.2804 -0.3397
    1SOL    MW4  384   3.280   2.387   3.863 -0.2720 -0.0370  0.0579
    1SOL     OW  385   0.018   1.861   1.628 -0.9479 -0.0609  0.3545
    1SOL    HW2  386  -0.017   1.889   1.712 -0.6062  0.8945  0.1845
    1SOL    HW3  387  -0.041   1.898   1.563 -0.4942  0.2651  0.1266
    1SOL    MW4  388   0.006   1.869   1.631 -0.8429  0.1081  0.3020
    1SOL     OW  389   3.306   0.531   0.888  0.0138  0.3720  0.1903
    1SOL    HW2  390   3.231   0.486   0.928  0.2120 -1.3830 -1.3608
    1SOL    HW3  391   3.268   0.583   0.817  0.3305 -1.1733 -1.1382
    1SOL    MW4  392   3.291   0.532   0.884  0.0818 -0.0635 -0.1896
    1SOL     OW  393   3.420   3.379   4.131  0.5890 -0.1032 -0.0964
    1SOL    HW2  394   3.331   3.345   4.121  0.7414  0.2165 -2.6224
    1SOL    HW3  395   3.451   3.393   4.042  3.3432 -0.6143  0.7412
    1SOL    MW4  396   3.412   3.377   4.118  0.9727 -0.1285 -0.3190
    1SOL     OW  397   3.731   4.606   0.783 -0.1787  0.5901  0.2355
    1SOL    HW2  398   3.814   4.593   0.735  0.2418  1.4740  0.7280
    1SOL    HW3  399   3.677   4.532   0.755  0.8183 -0.0694 -0.0029
    1SOL    MW4  400   3.735   4.594   0.773  0.0083  0.6199  0.2690
    1SOL     OW  401   0.027   1.322   0.836  0.2960 -0.4768  0.0541
    1SOL    HW2  402   0.034   1.417   0.847  0.6587 -0.6428  1.3483
    1SOL    HW3  403   0.004   1.290   0.923 -1.3994 -1.4280 -0.7135
    1SOL    MW4  404   0.025   1.331   0.849  0.1202 -0.6244  0.1236
    1SOL     OW  405   2.584   0.112   2.365 -0.8195  0.5172 -0.8269
    1SOL    HW2  406   2.632   0.174   2.419  0.7455 -0.4066 -1.1200
    1SOL    HW3  407   2.651   0.050   2.334 -2.1850 -0.7643 -1.2959
    1SOL    MW4  408   2.600   0.112   2.368 -0.7932  0.2263 -0.9272
    1SOL     OW  409   1.117   2.045   0.726  0.6719 -0.7347  0.3285
    1SOL    HW2  410   1.178   2.090   0.668  0.8458  0.4684  1.4289
    1SOL    HW3  411   1.120   2.095   0.807  0.6314 -2.5378  1.4730
    1SOL    MW4  412   1.126   2.057   0.729  0.6895 -0.8140  0.6248
    1SOL     OW  413   0.339   1.687   2.326 -0.0611 -0.2229 -0.3883
    1SOL    HW2  414   0.370   1.606   2.286  1.6906 -0.4770  1.3786
    1SOL    HW3  415   0.419   1.738   2.343 -0.9217  0.7672  0.8198
    1SOL    MW4  416   0.354   1.683   2.323  0.0564 -0.1258  0.0043
    1SOL     OW  417   1.909   3.336   2.808 -0.1186 -0.1126  0.5897
    1SOL    HW2  418   1.926   3.324   2.714  0.7296  1.8802  0.4776
    1SOL    HW3  419   1.819   3.368   2.812  0.6101  2.0664  0.2638
    1SOL    MW4  420   1.899   3.338   2.796  0.0894  0.4380  0.5319
    1SOL     OW  421   3.441   0.579   1.129  0.7073 -0.1338 -0.1696
    1SOL    HW2  422   3.452   0.493   1.170 -0.3615 -0.4253 -0.4740
    1SOL    HW3  423   3.399   0.560   1.045 -2.0633  0.8878  0.9286
    1SOL    MW4  424   3.437   0.565   1.124  0.2010 -0.0375 -0.0650
    1SOL     OW  425   3.994   3.671   2.809  0.1752  0.4920  0.3089
    1SOL    HW2  426   3.983   3.707   2.896  2.3200 -0.1807  0.8818
    1SOL    HW3  427   4.056   3.730   2.766  0.1133  0.1048 -0.3178
    1SOL    MW4  428   4.001   3.684   2.814  0.4501  0.3521  0.3016
    1SOL     OW  429   2.607   0.131   3.677  0.1260 -0.5815  0.1206
    1SOL    HW2  430   2.638   0.042   3.693 -1.2053 -1.1379 -0.3140
    1SOL    HW3  431   2.631   0.149   3.586 -0.5470 -0.9115 -0.1303
    1SOL    MW4  432   2.614   0.122   3.667 -0.1388 -0.6985  0.0300
    1SOL     OW  433   1.361   4.095   2.959 -0.0544  0.2582 -0.5940
    1SOL    HW2  434   1.375   4.000   2.963  0.9699  0.3640 -1.4936
    1SOL    HW3  435   1.301   4.107   2.886 -0.3118  0.2973 -0.3781
    1SOL    MW4  436   1.355   4.084   2.950  0.0468  0.2770 -0.6843
    1SOL     OW  437   2.306   1.784   4.284  0.3395  0.1773  0.3354
    1SOL    HW2  438   2.318   1.763   4.191  0.0318  0.7665  0.1575
    1SOL    HW3  439   2.326   1.703   4.330 -1.4006 -0.6966 -0.3663
    1SOL    MW4  440   2.310   1.771   4.277  0.0694  0.1396  0.2189
    1SOL     OW  441   2.023   1.448   4.511  0.1342  0.2843 -0.5068
    1SOL    HW2  442   2.028   1.386   4.584  0.8000  2.1148  1.0636
    1SOL    HW3  443   1.997   1.395   4.436  0.8902 -1.9295  0.7313
    1SOL    MW4  444   2.020   1.433   4.511  0.3221  0.2338 -0.1359
    1SOL     OW  445   2.513   0.008   4.345  0.3289 -0.4877  0.0821
    1SOL    HW2  446   2.459   0.074   4.303  1.0538  0.6241  0.8856
    1SOL    HW3  447   2.495   0.016   4.438  2.1090  0.1413  0.3995
    1SOL    MW4  448   2.504   0.018   4.352  0.6592 -0.2580  0.2298
    1SOL     OW  449   0.404   3.535   0.951  0.1221 -0.2157 -0.4267
    1SOL    HW2  450   0.367   3.619   0.979 -0.6084 -0.7628  0.2413
    1SOL    HW3  451   0.498   3.552   0.943  0.2921  0.0671  1.8971
    1SOL    MW4  452   0.411   3.548   0.953  0.0481 -0.2503 -0.0319
    1SOL     OW  453   2.131   1.692   2.125 -0.2833  0.1526  0.6549
    1SOL    HW2  454   2.036   1.702   2.129 -0.0496  2.1644  1.9249
    1SOL    HW3  455   2.148   1.653   2.039 -2.1731  0.6396  0.0426
    1SOL    MW4  456   2.121   1.688   2.114 -0.5016  0.4823  0.7420
    1SOL     OW  457   1.636   3.409   3.003  0.0273 -0.0001 -0.1678
    1SOL    HW2  458   1.581   3.332   3.017 -0.7827  0.8269  1.4194
    1SOL    HW3  459   1.675   3.426   3.089  0.6611  1.0079 -0.6430
    1SOL    MW4  460   1.634   3.401   3.016  0.0041  0.2420 -0.0210
    1SOL     OW  461   2.580   3.329   2.204 -0.6231  0.1466 -0.3514
    1SOL    HW2  462   2.636   3.308   2.278 -1.6501  2.9129  1.2714
    1SOL    HW3  463   2.544   3.244   2.177  1.9751 -1.2610  0.4635
    1SOL    MW4  464   2.583   3.315   2.210 -0.4160  0.3262 -0.0300
    1SOL     OW  465   1.385   2.696   2.176 -0.3807  0.2142  0.0061
    1SOL    HW2  466   1.311   2.635   2.168 -0.2497  0.1707 -1.0302
    1SOL    HW3  467   1.384   2.723   2.267 -1.4386 -0.0929  0.0980
    1SOL    MW4  468   1.375   2.691   2.187 -0.5029  0.1681 -0.1185
    1SOL     OW  469   0.089   1.576   0.945 -0.0506  0.2202 -0.1951
    1SOL    HW2  470   0.136   1.638   0.890  1.8927 -0.1991  0.9741
    1SOL    HW3  471   0.101   1.608   1.034  1.5410 -2.1372  0.4921
    1SOL    MW4  472   0.097   1.588   0.949  0.4157 -0.1462  0.0498
    1SOL     OW  473   3.389   1.657   2.054 -0.3488 -0.4206  0.8882
    1SOL    HW2  474   3.439   1.596   2.108  0.0515 -0.0348  0.9544
    1SOL    HW3  475   3.298   1.640   2.077 -0.2659 -1.3001  0.5865
    1SOL    MW4  476   3.384   1.646   2.064 -0.2851 -0.4858  0.8571
    1SOL     OW  477   2.826   2.960   0.833 -0.0695 -0.4295  0.1978
    1SOL    HW2  478   2.771   2.905   0.777  1.5704 -1.9566  0.0160
    1SOL    HW3  479   2.891   2.997   0.774 -0.7150  1.1320  0.4541
    1SOL    MW4  480   2.828   2.958   0.818  0.0620 -0.4246  0.2076
    1SOL     OW  481   2.244   3.238   1.756  0.0316  0.0546  0.2187
    1SOL    HW2  482   2.254   3.253   1.662 -0.6585 -1.6997 -0.1455
    1SOL    HW3  483   2.334   3.230   1.789  0.2306 -1.3787 -0.6447
    1SOL    MW4  484   2.257   3.239   1.748 -0.0334 -0.3657  0.0567
    1SOL     OW  485   3.474   3.832   4.319 -0.1740 -0.5455  0.2833
    1SOL    HW2  486   3.441   3.751   4.357 -0.1827 -0.0676  1.3055
    1SOL    HW3  487   3.533   3.803   4.249 -0.9461 -1.4166 -0.0225
    1SOL    MW4  488   3.478   3.817   4.315 -0.2773 -0.5972  0.3777
    1SOL     OW  489   1.888   2.653   2.458  0.3122 -0.5620  0.1123
    1SOL    HW2  490   1.882   2.664   2.553 -2.0445 -0.1910 -0.0622
    1SOL    HW3  491   1.831   2.721   2.422  0.5321 -1.2429 -1.5594
    1SOL    MW4  492   1.880   2.663   2.466  0.0303 -0.6030 -0.1314
    1SOL     OW  493   1.052   0.382   3.488  0.3735 -0.0891 -1.0311
    1SOL    HW2  494   0.983   0.390   3.422 -1.3015  0.4233  0.7363
    1SOL    HW3  495   1.097   0.467   3.487 -1.4849  0.9509  0.4338
    1SOL    MW4  496   1.049   0.394   3.480 -0.0927  0.1158 -0.6049
    1SOL     OW  497   3.160   0.405   2.281 -0.1301 -0.3841  0.3224
    1SOL    HW2  498   3.152   0.414   2.376  0.3384  0.8227  0.2626
    1SOL    HW3  499   3.123   0.486   2.247  1.5015  0.0503 -0.4358
    1SOL    MW4  500   3.154   0.417   2.289  0.1471 -0.1675  0.2146
    1SOL     OW  501   1.427   3.377   2.561  0.0070  0.2188  0.0578
    1SOL    HW2  502   1.362   3.312   2.533 -0.9931 -0.0245  2.8083
    1SOL    HW3  503   1.402   3.457   2.515 -1.1225 -0.3456 -0.3318
    1SOL    MW4  504   1.415   3.379   2.551 -0.2738  0.1123  0.3691
    1SOL     OW  505   3.648   4.662   3.816 -0.5732  0.2571 -0.4495
    1SOL    HW2  506   3.648   4.758   3.816  0.3796  0.2700  0.2647
    1SOL    HW3  507   3.629   4.638   3.906  3.0498 -0.1556  0.3165
    1SOL    MW4  508   3.646   4.672   3.828  0.0303  0.2041 -0.2544
    1SOL     OW  509   2.198   4.500   2.303 -0.2834  0.1008  0.3909
    1SOL    HW2  510   2.112   4.490   2.345 -0.3809  0.9394  0.4091
    1SOL    HW3  511   2.248   4.554   2.364 -0.6449  1.8942 -0.8398
    1SOL    MW4  512   2.193   4.506   2.316 -0.3440  0.4478  0.2310
    1SOL     OW  513   1.335   3.304   3.136 -0.1590  0.1078  0.1387
    1SOL    HW2  514   1.349   3.397   3.114 -0.7286 -0.1414 -1.2950
    1SOL    HW3  515   1.378   3.294   3.221  0.8997  1.4193 -0.2109
    1SOL    MW4  516   1.343   3.315   3.144 -0.0944  0.2482 -0.0966
    1SOL     OW  517   2.933   0.303   4.496 -0.3459  0.3795 -0.2175
    1SOL    HW2  518   2.860   0.242   4.508  0.5721 -0.7376 -0.2588
    1SOL    HW3  519   2.977   0.305   4.581 -0.1523  0.7012 -0.3238
    1SOL    MW4  520   2.929   0.296   4.509 -0.1993  0.2745 -0.2370
    1SOL     OW  521   3.382   2.898   3.915 -1.0634 -0.2709  0.2506
    1SOL    HW2  522   3.469   2.922   3.947 -0.0449  0.4749 -2.9365
    1SOL    HW3  523   3.369   2.809   3.948  1.8709 -1.2362 -1.0130
    1SOL    MW4  524   3.392   2.889   3.924 -0.5419 -0.2999 -0.3364
    1SOL     OW  525   3.082   2.301   2.473 -0.1086 -0.2817  0.1023
    1SOL    HW2  526   2.987   2.308   2.482 -0.0539  0.0700  0.4516
    1SOL    HW3  527   3.116   2.369   2.532  0.3530 -0.3142 -0.1270
    1SOL    MW4  528   3.074   2.311   2.482 -0.0405 -0.2394  0.1183
    1SOL     OW  529   1.691   4.541   3.662 -0.0416 -0.3233 -0.0830
    1SOL    HW2  530   1.697   4.454   3.701 -0.0379 -1.1494 -1.8786
    1SOL    HW3  531   1.697   4.526   3.567  0.5467  1.6829 -0.3901
    1SOL    MW4  532   1.692   4.528   3.654  0.0366 -0.1678 -0.3605
    1SOL     OW  533   0.311   4.427   3.774  0.8543  0.5101  0.1555
    1SOL    HW2  534   0.396   4.445   3.814  0.7069  1.3228  0.1030
    1SOL    HW3  535   0.331   4.365   3.704  1.5131  1.2884 -0.3567
    1SOL    MW4  536   0.325   4.421   3.770  0.9218  0.7200  0.0808
    1SOL     OW  537   3.977   2.648   3.466 -0.3051 -0.1060  0.1543
    1SOL    HW2  538   4.025   2.565   3.470  0.9906  0.6642  0.9761
    1SOL    HW3  539   4.043   2.714   3.486 -1.5454  1.0428  0.4669
    1SOL    MW4  540   3.992   2.645   3.469 -0.2978  0.1473  0.3042
    1SOL     OW  541   2.511   4.416   2.639 -0.0815 -0.4241  0.3173
    1SOL    HW2  542   2.578   4.387   2.576 -1.1782 -0.3888 -0.8995
    1SOL    HW3  543   2.467   4.489   2.594 -0.2476  0.2355  1.5339
    1SOL    MW4  544   2.514   4.422   2.624 -0.2482 -0.3324  0.3176
    1SOL     OW  545   1.772   1.391   0.716 -0.5786 -0.1243  0.2397
    1SOL    HW2  546   1.696   1.337   0.695 -0.7972 -0.3508  1.5975
    1SOL    HW3  547   1.847   1.333   0.705 -0.8729 -1.0070  2.6005
    1SOL    MW4  548   1.772   1.376   0.712 -0.6462 -0.2706  0.7302
    1SOL     OW  549   4.339   1.048   3.251  0.2627 -0.7394 -0.0882
    1SOL    HW2  550   4.373   0.980   3.310  1.7908  0.7533  0.7786
    1SOL    HW3  551   4.405   1.055   3.182  0.4897  0.3890  0.2349
    1SOL    MW4  552   4.352   1.040   3.250  0.4940 -0.3935  0.0684
    1SOL     OW  553   4.287   4.039   1.595  0.0334  0.6636 -0.1927
    1SOL    HW2  554   4.351   4.080   1.654  0.6176 -1.4605  0.7142
    1SOL    HW3  555   4.336   3.969   1.552 -1.1706  0.3335 -1.0505
    1SOL    MW4  556   4.302   4.035   1.597 -0.0482  0.3395 -0.1864
    1SOL     OW  557   2.601   0.665   1.274 -0.3149  0.5803 -0.7250
    1SOL    HW2  558   2.535   0.717   1.319  0.3105  1.7122 -1.0896
    1SOL    HW3  559   2.559   0.581   1.257 -0.6202  0.1995  1.7911
    1SOL    MW4  560   2.587   0.661   1.278 -0.2725  0.6794 -0.4411
    1SOL     OW  561   4.474   3.608   3.579  0.3846  0.3128 -0.0323
    1SOL    HW2  562   4.443   3.590   3.668  0.6824  1.3583  0.2938
    1SOL    HW3  563   4.433   3.691   3.556  0.1305 -0.0701 -0.9669
    1SOL    MW4  564   4.464   3.617   3.588  0.3901  0.4001 -0.1128
    1SOL     OW  565   2.707   1.498   4.637  0.5231 -0.4293 -0.2726
    1SOL    HW2  566   2.721   1.591   4.616  0.7864 -0.6831 -1.2501
    1SOL    HW3  567   2.613   1.490   4.650  0.8220  0.5676  2.7521
    1SOL    MW4  568   2.696   1.509   4.636  0.5972 -0.3314 -0.0024
    1SOL     OW  569   2.250   0.399   0.909  0.2372  0.0309 -0.1064
    1SOL    HW2  570   2.224   0.491   0.920 -1.3496 -0.1433 -2.1046
    1SOL    HW3  571   2.245   0.362   0.997 -0.6378  1.4776  0.4665
    1SOL    MW4  572   2.246   0.407   0.922 -0.0875  0.1988 -0.2944
    1SOL     OW  573   2.817   4.563   1.708 -0.3592 -0.0122  0.2202
    1SOL    HW2  574   2.838   4.621   1.781 -2.0392  1.0936 -0.1432
    1SOL    HW3  575   2.824   4.474   1.745  0.4801  0.4780  1.2626
    1SOL    MW4  576   2.820   4.559   1.723 -0.4702  0.1984  0.3097
    1SOL     OW  577   1.518   4.638   4.332  0.0010 -0.3839  0.0763
    1SOL    HW2  578   1.586   4.596   4.279  0.1423 -0.0766  0.0127
    1SOL    HW3  579   1.511   4.582   4.409  0.7082 -0.1366  0.3347
    1SOL    MW4  580   1.526   4.625   4.335  0.1130 -0.3109  0.1016
    1SOL     OW  581   2.395   3.141   3.650 -0.2372 -0.3705 -0.9747
    1SOL    HW2  582   2.486   3.140   3.621  0.3980  3.4348  0.5953
    1SOL    HW3  583   2.346   3.184   3.580  0.0034  1.7143  0.0781
    1SOL    MW4  584   2.400   3.147   3.637 -0.1218  0.4065 -0.6289
    1SOL     OW  585   3.818   2.420   4.480  0.1720 -0.2035  0.1276
    1SOL    HW2  586   3.806   2.327   4.499 -0.1185 -0.2993 -0.5441
    1SOL    HW3  587   3.730   2.457   4.484  0.3850  0.2005  1.2293
    1SOL    MW4  588   3.805   2.412   4.483  0.1619 -0.1631  0.1841
    1SOL     OW  589   3.265   1.554   3.199 -0.5406 -0.2768  0.3525
    1SOL    HW2  590   3.219   1.613   3.259 -1.7735 -0.5930 -0.2609
    1SOL    HW3  591   3.208   1.477   3.192  0.0670 -0.6677 -0.4423
    1SOL    MW4  592   3.252   1.552   3.206 -0.6232 -0.3700  0.1667
    1SOL     OW  593   2.706   2.375   1.304  0.4785 -0.9665 -0.5515
    1SOL    HW2  594   2.633   2.330   1.261 -0.2182 -0.9874  0.6307
    1SOL    HW3  595   2.752   2.420   1.233 -1.4791  0.1686 -1.1539
    1SOL    MW4  596   2.702   2.375   1.289  0.1283 -0.8194 -0.4750
    1SOL     OW  597   0.305   3.292   1.625  0.4866 -0.4695 -0.0191
    1SOL    HW2  598   0.278   3.343   1.549  2.5084 -0.8153 -0.9994
    1SOL    HW3  599   0.225   3.246   1.653 -0.9670  1.8828 -0.1302
    1SOL    MW4  600   0.291   3.292   1.619  0.5616 -0.2046 -0.1631
    1SOL     OW  601   0.541   2.950   0.932  0.2414  0.3897 -0.4403
    1SOL    HW2  602   0.477   3.011   0.895 -0.5828 -0.6785 -0.8234
    1SOL    HW3  603   0.490   2.895   0.991  1.1167  0.5433  0.4756
    1SOL    MW4  604   0.526   2.951   0.935  0.2481  0.2692 -0.3700
    1SOL     OW  605   3.592   1.346   3.110 -0.2248 -0.6390  0.1085
    1SOL    HW2  606   3.577   1.404   3.185  0.0484 -1.0002  0.4501
    1SOL    HW3  607   3.525   1.278   3.119 -0.2315 -0.6478 -0.0112
    1SOL    MW4  608   3.581   1.344   3.121 -0.1898 -0.6880  0.1378
    1SOL     OW  609   1.778   1.943   1.199  0.2198 -0.1111  0.2340
    1SOL    HW2  610   1.777   1.968   1.291 -0.5062 -2.2388  0.8363
    1SOL    HW3  611   1.697   1.894   1.187  0.5136 -0.2050 -1.4355
    1SOL    MW4  612   1.767   1.939   1.210  0.1628 -0.4042  0.0932
    1SOL     OW  613   3.573   2.669   0.628  0.1174 -0.4063  0.0607
    1SOL    HW2  614   3.664   2.644   0.643  0.0390  0.3672  1.9205
    1SOL    HW3  615   3.577   2.763   0.608 -0.4255  0.0629  2.0403
    1SOL    MW4  616   3.586   2.678   0.627  0.0355 -0.2425  0.5673
    1SOL     OW  617   0.276   4.265   1.137 -0.1013  0.1384  0.4072
    1SOL    HW2  618   0.254   4.280   1.229 -0.0381  1.2420  0.2468
    1SOL    HW3  619   0.204   4.303   1.089  0.6200  0.9505 -0.0406
    1SOL    MW4  620   0.264   4.272   1.143  0.0022  0.3915  0.3270
    1SOL     OW  621   3.930   2.190   2.226  0.3613  0.5414 -0.0430
    1SOL    HW2  622   3.869   2.146   2.168 -1.0244  1.9747  0.2962
    1SOL    HW3  623   4.006   2.209   2.171 -0.9387  1.9003 -1.4086
    1SOL    MW4  624   3.932   2.187   2.211  0.0072  0.9100 -0.1786
    1SOL     OW  625   3.370   0.905   1.395  0.0738 -0.2906 -0.2763
    1SOL    HW2  626   3.333   0.941   1.475  0.7484  0.2652 -0.2054
    1SOL    HW3  627   3.313   0.832   1.372  1.3236 -2.1029  2.1157
    1SOL    MW4  628   3.358   0.900   1.402  0.3278 -0.4564  0.0485
    1SOL     OW  629   1.389   0.235   0.864 -0.2825 -0.1781  0.4093
    1SOL    HW2  630   1.311   0.288   0.849 -0.7019 -1.4269 -2.0701
    1SOL    HW3  631   1.453   0.267   0.801 -0.7267 -2.9252 -1.5112
    1SOL    MW4  632   1.387   0.246   0.854 -0.3965 -0.7054 -0.1712
    1SOL     OW  633   0.720   4.353   4.197  0.1272  0.0856  0.0469
    1SOL    HW2  634   0.629   4.381   4.202  0.0263 -0.3927  1.0587
    1SOL    HW3  635   0.751   4.387   4.113 -1.3771 -0.9487 -0.9571
    1SOL    MW4  636   0.712   4.361   4.186 -0.0846 -0.1144  0.0477
    1SOL     OW  637   3.910   0.665   1.619 -0.2390 -0.2136 -1.0643
    1SOL    HW2  638   4.000   0.637   1.639 -0.3002 -0.2021 -0.7767
    1SOL    HW3  639   3.870   0.590   1.576 -1.0442 -1.3106  1.5203
    1SOL    MW4  640   3.917   0.651   1.616 -0.3533 -0.3568 -0.6856
    1SOL     OW  641   3.035   0.159   4.277 -0.3016 -0.2157 -0.1115
    1SOL    HW2  642   3.097   0.217   4.233 -0.6945 -0.3723 -0.8848
    1SOL    HW3  643   2.993   0.214   4.343  1.2279 -0.3147  0.9647
    1SOL    MW4  644   3.038   0.174   4.280 -0.1516 -0.2494 -0.0715
    1SOL     OW  645   3.335   1.929   3.566 -0.0062 -0.5262 -0.1380
    1SOL    HW2  646   3.277   1.989   3.613 -1.3325 -1.8266 -0.0744
    1SOL    HW3  647   3.335   1.849   3.619  1.1399 -0.8559 -0.6135
    1SOL    MW4  648   3.328   1.926   3.579 -0.0300 -0.7412 -0.1924
    1SOL     OW  649   3.061   1.923   2.233 -0.3391  0.0065  0.4268
    1SOL    HW2  650   2.977   1.927   2.278  0.0076 -1.1077  1.2088
    1SOL    HW3  651   3.040   1.885   2.147 -0.7558  0.5480  0.2853
    1SOL    MW4  652   3.047   1.918   2.228 -0.3486 -0.0690  0.5114
    1SOL     OW  653   3.525   0.101   4.452  0.3608 -0.2171 -0.1929
    1SOL    HW2  654   3.430   0.104   4.464  0.4265 -1.1125  0.5848
    1SOL    HW3  655   3.551   0.015   4.486  1.8209  1.1735  2.4331
    1SOL    MW4  656   3.516   0.090   4.458  0.5624 -0.1518  0.2561
    1SOL     OW  657   3.669   2.976   2.060 -0.3372  0.0780  0.5070
    1SOL    HW2  658   3.593   2.965   2.117 -0.7822 -1.2501 -0.3071
    1SOL    HW3  659   3.741   2.995   2.119 -1.1541  0.5676  1.3556
    1SOL    MW4  660   3.668   2.977   2.075 -0.5038 -0.0324  0.5114
    1SOL     OW  661   2.602   4.528   0.745 -0.1236  0.5149  0.3339
    1SOL    HW2  662   2.686   4.493   0.713 -0.2167 -0.0410  0.6811
    1SOL    HW3  663   2.542   4.517   0.671  0.0119  0.5332  0.2211
    1SOL    MW4  664   2.605   4.522   0.731 -0.1180  0.4439  0.3648
    1SOL     OW  665   3.304   2.130   2.496 -0.1561 -0.0271 -0.1670
    1SOL    HW2  666   3.332   2.126   2.405 -0.6776  1.6779 -0.4303
    1SOL    HW3  667   3.219   2.175   2.493  0.9911  2.4055  1.3527
    1SOL    MW4  668   3.296   2.136   2.484 -0.0737  0.5188 -0.0012
    1SOL     OW  669   1.789   4.158   2.173  0.3296  0.3279  0.0607
    1SOL    HW2  670   1.869   4.115   2.203 -0.0351 -0.6964 -0.4571
    1SOL    HW3  671   1.783   4.138   2.080 -0.6874  0.1586  0.1562
    1SOL    MW4  672   1.799   4.150   2.165  0.1473  0.1707  0.0050
    1SOL     OW  673   0.955   3.923   2.091  0.4922  0.3490 -0.7494
    1SOL    HW2  674   0.947   4.009   2.132  0.5081  0.5017 -1.0603
    1SOL    HW3  675   0.950   3.941   1.997  0.2252 -0.0208 -0.8078
    1SOL    MW4  676   0.954   3.937   2.084  0.4591  0.3202 -0.7980
    1SOL     OW  677   2.912   3.344   3.553 -0.1223 -0.0395  0.1321
    1SOL    HW2  678   2.919   3.372   3.461  0.8279  0.2753  0.2953
    1SOL    HW3  679   2.843   3.399   3.590 -0.7360 -0.3895 -0.4703
    1SOL    MW4  680   2.904   3.355   3.546 -0.0777 -0.0441  0.0744
    1SOL     OW  681   4.227   0.650   3.156  0.4090 -0.0496  0.9647
    1SOL    HW2  682   4.309   0.672   3.112  0.3299  0.0875  0.8833
    1SOL    HW3  683   4.178   0.599   3.091 -0.4938  1.7291  0.1956
    1SOL    MW4  684   4.231   0.647   3.142  0.2794  0.2031  0.8526
    1SOL     OW  685   4.208   2.541   4.297  0.0658 -1.0350 -0.2506
    1SOL    HW2  686   4.142   2.574   4.358  1.0434 -1.0322  0.8432
    1SOL    HW3  687   4.159   2.492   4.232 -0.8941 -2.5175  1.5280
    1SOL    MW4  688   4.193   2.539   4.297  0.0677 -1.2302  0.1283
    1SOL     OW  689   2.342   2.053   3.558  0.4368  0.0217  0.0166
    1SOL    HW2  690   2.360   1.959   3.567 -2.3140 -0.4025  1.7761
    1SOL    HW3  691   2.391   2.093   3.630  1.1043 -0.1263 -0.3505
    1SOL    MW4  692   2.351   2.045   3.569  0.1619 -0.0539  0.2003
    1SOL     OW  693   0.404   1.670   1.335  0.0883  0.2524 -0.3102
    1SOL    HW2  694   0.467   1.733   1.300  2.4708 -1.4430  0.7926
    1SOL    HW3  695   0.367   1.713   1.412 -0.8220  1.6060 -1.4616
    1SOL    MW4  696   0.407   1.684   1.340  0.2826  0.2073 -0.3166
    1SOL     OW  697   1.245   2.538   0.637 -0.7693 -0.5834  0.3321
    1SOL    HW2  698   1.220   2.596   0.709  0.7511  1.4771 -0.7736
    1SOL    HW3  699   1.163   2.521   0.590 -1.5914 -1.1247  1.9232
    1SOL    MW4  700   1.231   2.543   0.640 -0.6771 -0.3829  0.3961
    1SOL     OW  701   2.429   1.535   2.481 -0.1372  0.1645  0.0676
    1SOL    HW2  702   2.522   1.540   2.458 -0.2606 -0.0089 -0.4635
    1SOL    HW3  703   2.415   1.443   2.504 -0.5632 -0.1608 -1.4784
    1SOL    MW4  704   2.439   1.524   2.481 -0.2096  0.0987 -0.2065
    1SOL     OW  705   1.327   3.559   3.605  0.6694 -0.2020  0.2709
    1SOL    HW2  706   1.246   3.507   3.598  0.4555  0.0105  1.0923
    1SOL    HW3  707   1.303   3.645   3.572  0.5757 -0.1548  0.4623
    1SOL    MW4  708   1.313   3.563   3.600  0.6287 -0.1678  0.4046
    1SOL     OW  709   2.274   3.720   0.877 -0.4318  0.5894  0.3319
    1SOL    HW2  710   2.365   3.729   0.906  0.4747 -0.9869 -1.9275
    1SOL    HW3  711   2.242   3.643   0.924 -0.3244  0.6324  0.4780
    1SOL    MW4  712   2.282   3.711   0.887 -0.2980  0.3867  0.0532
    1SOL     OW  713   4.004   1.088   2.419 -0.0439  0.6012  0.9611
    1SOL    HW2  714   4.033   0.999   2.439 -1.2598  0.0708  0.4197
    1SOL    HW3  715   4.020   1.137   2.500  0.9152 -0.0378  1.1646
    1SOL    MW4  716   4.010   1.083   2.432 -0.0772  0.4469  0.9165
    1SOL     OW  717   0.515   2.351   4.161 -0.0468 -0.1807 -0.0508
    1SOL    HW2  718   0.541   2.259   4.159 -0.0053 -0.1581 -0.5165
    1SOL    HW3  719   0.443   2.357   4.098  0.3239  0.2209 -0.4395
    1SOL    MW4  720   0.509   2.340   4.153  0.0076 -0.1249 -0.1636
    1SOL     OW  721   3.193   0.258   3.886  0.2725  0.1950  0.2103
    1SOL    HW2  722   3.214   0.312   3.810  0.6717  0.2841  0.3849
    1SOL    HW3  723   3.104   0.226   3.868  0.1767  0.6029 -0.0712
    1SOL    MW4  724   3.184   0.261   3.874  0.3126  0.2606  0.1962
    1SOL     OW  725   3.292   2.339   1.634  0.3050 -0.0241  0.4156
    1SOL    HW2  726   3.318   2.425   1.668  2.2805 -0.6949  0.6161
    1SOL    HW3  727   3.279   2.353   1.540  1.3083  0.3509  0.3253
    1SOL    MW4  728   3.293   2.352   1.626  0.6981 -0.0632  0.4301
    1SOL     OW  729   0.076   0.686   1.079  0.1697 -0.5248 -0.6166
    1SOL    HW2  730   0.065   0.596   1.049 -2.7757  0.3539 -2.4263
    1SOL    HW3  731   0.067   0.680   1.174 -0.3633 -2.1111 -0.7449
    1SOL    MW4  732   0.073   0.673   1.088 -0.2893 -0.6182 -0.8724
    1SOL     OW  733   2.613   1.670   3.526 -0.1992  0.3023 -0.0313
    1SOL    HW2  734   2.590   1.593   3.579 -1.2630  0.9347  0.4287
    1SOL    HW3  735   2.622   1.635   3.437 -0.9883 -0.3053  0.1194
    1SOL    MW4  736   2.611   1.655   3.521 -0.4437  0.3055  0.0496
    1SOL     OW  737   1.178   4.292   1.168  0.7416  0.1034  0.0057
    1SOL    HW2  738   1.198   4.198   1.159 -0.3312 -0.1818  0.5901
    1SOL    HW3  739   1.083   4.297   1.162  0.9253  1.4220 -2.2354
    1SOL    MW4  740   1.168   4.280   1.166  0.6243  0.2398 -0.2130
    1SOL     OW  741   0.813   2.165   2.645 -0.2313 -0.7890  0.8698
    1SOL    HW2  742   0.723   2.196   2.638  0.1087 -0.1125 -0.5447
    1SOL    HW3  743   0.818   2.089   2.587  0.6525  0.4516 -0.7301
    1SOL    MW4  744   0.802   2.159   2.637 -0.0698 -0.5357  0.4721
    1SOL     OW  745   0.969   0.292   4.339 -0.0733 -0.1937  0.1212
    1SOL    HW2  746   0.957   0.253   4.426 -0.3919  1.7127  0.9439
    1SOL    HW3  747   1.064   0.300   4.330 -0.0674  0.2322  0.5690
    1SOL    MW4  748   0.980   0.288   4.349 -0.1147  0.1141  0.2890
    1SOL     OW  749   3.338   4.369   1.375  0.5250 -0.3923 -0.5190
    1SOL    HW2  750   3.287   4.342   1.299 -0.6993  1.2521 -0.3178
    1SOL    HW3  751   3.273   4.403   1.437  1.6647 -0.1959  0.5931
    1SOL    MW4  752   3.323   4.370   1.373  0.5138 -0.1497 -0.3456
    1SOL     OW  753   3.093   3.523   0.488  0.2403  0.8485 -0.0430
    1SOL    HW2  754   3.027   3.457   0.465  0.5175  0.1880  1.0544
    1SOL    HW3  755   3.047   3.583   0.546  0.9643 -0.3717  1.8239
    1SOL    MW4  756   3.078   3.522   0.493  0.3724  0.6001  0.3482
    1SOL     OW  757   3.056   0.437   1.788 -0.9636 -0.6522 -0.9303
    1SOL    HW2  758   2.966   0.424   1.759 -0.8845  1.5329 -2.3210
    1SOL    HW3  759   3.109   0.426   1.708 -0.3170  1.1568 -0.7715
    1SOL    MW4  760   3.051   0.434   1.774 -0.8681 -0.1252 -1.0929
    1SOL     OW  761   2.483   3.932   0.702 -0.1439 -0.3751  0.0556
    1SOL    HW2  762   2.411   3.923   0.640 -0.2548  1.2917 -0.0791
    1SOL    HW3  763   2.457   4.005   0.758  0.9062 -0.5226  0.7390
    1SOL    MW4  764   2.470   3.941   0.701 -0.0200 -0.1748  0.1280
    1SOL     OW  765   1.223   1.771   2.900  0.6151  0.0221 -0.0410
    1SOL    HW2  766   1.244   1.831   2.971 -0.9046 -0.4231  0.8246
    1SOL    HW3  767   1.258   1.686   2.929  0.3868 -0.0672 -0.0237
    1SOL    MW4  768   1.230   1.768   2.913  0.3844 -0.0485  0.0753
    1SOL     OW  769   2.002   1.965   1.985  0.2520 -0.2636  0.2375
    1SOL    HW2  770   1.979   1.939   1.896 -0.6331  0.3136  0.2998
    1SOL    HW3  771   1.940   1.917   2.041  1.8450 -1.9186  0.6633
    1SOL    MW4  772   1.991   1.955   1.981  0.3452 -0.4058  0.3018
    1SOL     OW  773   4.416   4.452   1.912  0.3694 -0.3487 -0.0687
    1SOL    HW2  774   4.509   4.451   1.891 -0.0441 -1.5209 -1.9885
    1SOL    HW3  775   4.381   4.527   1.864  0.2208 -0.2989  0.1188
    1SOL    MW4  776   4.424   4.461   1.903  0.2952 -0.4969 -0.2973
    1SOL     OW  777   0.312   2.920   4.603  0.0105 -0.3791  0.5417
    1SOL    HW2  778   0.232   2.869   4.623 -0.7650 -0.1825 -1.9034
    1SOL    HW3  779   0.375   2.854   4.574  0.3728 -0.4109  1.4058
    1SOL    MW4  780   0.310   2.904   4.602 -0.0440 -0.3574  0.3333
    1SOL     OW  781   2.824   2.411   2.478 -0.0202  0.0179  0.4382
    1SOL    HW2  782   2.829   2.414   2.382  0.7013  0.0244  0.4704
    1SOL    HW3  783   2.852   2.498   2.506 -0.5909  0.1382  0.6482
    1SOL    MW4  784   2.828   2.423   2.469 -0.0002  0.0346  0.4702
    1SOL     OW  785   3.854   3.272   1.241  0.5101 -0.0117 -0.0980
    1SOL    HW2  786   3.901   3.337   1.189 -0.3883  2.0739  1.6440
    1SOL    HW3  787   3.912   3.252   1.314 -0.2083  0.6304  0.6591
    1SOL    MW4  788   3.868   3.278   1.244  0.2966  0.3483  0.2317
    1SOL     OW  789   3.596   3.826   2.735  0.2889  0.1348 -0.2125
    1SOL    HW2  790   3.647   3.749   2.760  0.4358  0.0896 -0.6480
    1SOL    HW3  791   3.573   3.811   2.643 -0.5547  0.1319  0.0015
    1SOL    MW4  792   3.600   3.814   2.726  0.1969  0.1285 -0.2418
    1SOL     OW  793   3.410   1.955   1.805  0.8838 -0.4934  0.0099
    1SOL    HW2  794   3.362   1.875   1.829  0.7853 -0.4308  0.0192
    1SOL    HW3  795   3.349   2.026   1.822  0.7554 -0.4604 -0.5934
    1SOL    MW4  796   3.396   1.953   1.810  0.8540 -0.4809 -0.0684
    1SOL     OW  797   0.855   2.841   3.512  0.1185 -0.5481 -0.1433
    1SOL    HW2  798   0.801   2.800   3.444  1.8386 -1.3927 -1.0375
    1SOL    HW3  799   0.796   2.849   3.587 -1.0137 -2.2674 -0.8004
    1SOL    MW4  800   0.840   2.837   3.513  0.1960 -0.8867 -0.3481
    1SOL     OW  801   2.187   2.951   2.734  0.0827 -0.4961  0.0607
    1SOL    HW2  802   2.139   2.917   2.810 -1.3691 -0.1346 -0.6705
    1SOL    HW3  803   2.193   3.045   2.751 -0.5869 -0.3576 -0.4442
    1SOL    MW4  804   2.181   2.959   2.746 -0.1969 -0.4303 -0.1020
    1SOL     OW  805   0.248   1.561   3.366  0.1536 -0.2293  0.5371
    1SOL    HW2  806   0.290   1.491   3.416  0.9035  1.5142  2.3905
    1SOL    HW3  807   0.321   1.607   3.324 -0.3189 -0.4183 -0.4876
    1SOL    MW4  808   0.263   1.558   3.367  0.1902 -0.0242  0.6466
    1SOL     OW  809   3.565   3.363   3.435 -0.8499  0.5936  0.2191
    1SOL    HW2  810   3.622   3.439   3.447 -3.3502  2.4789  0.5687
    1SOL    HW3  811   3.567   3.319   3.520  0.6450  0.2179  0.0048
    1SOL    MW4  812   3.573   3.368   3.448 -0.9828  0.7930  0.2370
    1SOL     OW  813   4.148   4.378   0.863 -0.5275 -0.0800 -0.3663
    1SOL    HW2  814   4.088   4.434   0.813  0.3693 -0.0273 -1.4084
    1SOL    HW3  815   4.152   4.417   0.950  0.3146  1.6510 -1.1728
    1SOL    MW4  816   4.140   4.390   0.868 -0.2980  0.1550 -0.6102
    1SOL     OW  817   1.274   3.525   0.435 -0.0072 -0.1660  0.0269
    1SOL    HW2  818   1.206   3.458   0.434 -0.8992  0.7103 -3.1494
    1SOL    HW3  819   1.229   3.606   0.459 -0.0616  0.3354 -1.6804
    1SOL    MW4  820   1.259   3.527   0.438 -0.1322  0.0160 -0.6174
    1SOL     OW  821   0.246   2.396   1.162  0.4036 -0.2054 -0.7635
    1SOL    HW2  822   0.171   2.355   1.118 -0.4665  2.5253 -1.9758
    1SOL    HW3  823   0.289   2.447   1.093  0.9281  1.5611  0.8381
    1SOL    MW4  824   0.241   2.398   1.147  0.3580  0.3877 -0.7120
    1SOL     OW  825   4.346   1.321   3.653 -0.5576 -0.0217 -0.3240
    1SOL    HW2  826   4.436   1.353   3.652 -0.8440  0.7662 -0.7778
    1SOL    HW3  827   4.349   1.243   3.709  0.5040 -0.2865 -0.7411
    1SOL    MW4  828   4.358   1.315   3.660 -0.4549  0.0474 -0.4392
    1SOL     OW  829   1.893   3.187   3.825 -0.4940  0.0207  0.4828
    1SOL    HW2  830   1.973   3.164   3.872 -0.3540  0.6627  0.5616
    1SOL    HW3  831   1.826   3.192   3.892 -0.4924 -0.0004  0.4861
    1SOL    MW4  832   1.895   3.185   3.840 -0.4754  0.1025  0.4938
    1SOL     OW  833   3.889   1.558   3.543  0.1097  0.0150  0.1505
    1SOL    HW2  834   3.872   1.560   3.449  0.8289  0.2105  0.0239
    1SOL    HW3  835   3.908   1.649   3.565 -0.3270  0.0146  0.5370
    1SOL    MW4  836   3.889   1.570   3.533  0.1469  0.0409  0.1848
    1SOL     OW  837   1.873   1.791   2.670 -0.2730  0.0404 -0.3434
    1SOL    HW2  838   1.799   1.744   2.632  0.1901 -0.0741 -1.1104
    1SOL    HW3  839   1.906   1.847   2.599  0.2174  0.2773  0.0637
    1SOL    MW4  840   1.868   1.792   2.656 -0.1472  0.0566 -0.3910
    1SOL     OW  841   1.230   1.186   1.936 -0.4771  0.6600 -0.6445
    1SOL    HW2  842   1.141   1.155   1.953 -1.1821  3.2927  0.7314
    1SOL    HW3  843   1.227   1.279   1.956  2.7498  0.6876 -0.0719
    1SOL    MW4  844   1.218   1.194   1.941 -0.1444  1.0110 -0.3873
    1SOL     OW  845   2.347   3.994   2.752  0.7137 -0.0378  0.1148
    1SOL    HW2  846   2.295   3.916   2.772 -0.0607  1.0540  2.5084
    1SOL    HW3  847   2.418   3.961   2.695 -0.9861 -2.0226 -0.9536
    1SOL    MW4  848   2.350   3.979   2.747  0.3874 -0.1557  0.2894
    1SOL     OW  849   1.177   2.961   3.252  0.1087  0.0808 -0.2362
    1SOL    HW2  850   1.146   3.043   3.214 -1.0673  1.0264  2.6124
    1SOL    HW3  851   1.268   2.955   3.224  0.3219  2.5675 -0.2437
    1SOL    MW4  852   1.185   2.971   3.244 -0.0184  0.5336  0.1388
    1SOL     OW  853   4.415   4.622   0.992 -0.9375  0.7164 -0.1223
    1SOL    HW2  854   4.322   4.637   1.010 -0.7612  0.0646  1.4958
    1SOL    HW3  855   4.427   4.529   1.009  0.4145  1.1892  1.6972
    1SOL    MW4  856   4.404   4.612   0.997 -0.7353  0.6928  0.3312
    1SOL     OW  857   0.250   4.306   2.029 -0.2193  0.6958 -0.0375
    1SOL    HW2  858   0.171   4.250   2.026  1.8379 -2.2822 -1.7260
    1SOL    HW3  859   0.248   4.354   1.946 -0.2380  0.6159 -0.0838
    1SOL    MW4  860   0.239   4.305   2.018  0.0496  0.2923 -0.2668
    1SOL     OW  861   2.991   2.968   2.082 -0.3164 -0.1068  0.2469
    1SOL    HW2  862   2.904   2.947   2.049  0.0818 -0.5688 -0.5350
    1SOL    HW3  863   3.012   3.052   2.042  0.5976 -1.1659 -1.5519
    1SOL    MW4  864   2.982   2.976   2.072 -0.1433 -0.3073 -0.0937
    1SOL     OW  865   4.270   2.191   2.395  0.7580  0.2715 -0.0293
    1SOL    HW2  866   4.274   2.171   2.302  1.3592  1.3543 -0.2391
    1SOL    HW3  867   4.201   2.133   2.429 -0.8742  1.3065 -1.5193
    1SOL    MW4  868   4.261   2.181   2.388  0.6218  0.5507 -0.2537
    1SOL     OW  869   3.124   2.672   3.602  0.0731 -0.2908  1.1346
    1SOL    HW2  870   3.186   2.610   3.565  0.0706  0.1949  0.3141
    1SOL    HW3  871   3.049   2.670   3.542  0.0442  0.4433  1.1407
    1SOL    MW4  872   3.122   2.664   3.589  0.0687 -0.1299  1.0271
    1SOL     OW  873   3.267   0.171   3.048 -1.0545  0.0902 -0.0884
    1SOL    HW2  874   3.186   0.145   3.092 -0.6886 -2.4354 -0.8416
    1SOL    HW3  875   3.277   0.108   2.976  2.7621 -1.1380  1.3945
    1SOL    MW4  876   3.258   0.159   3.044 -0.5023 -0.4050  0.0081
    1SOL     OW  877   2.462   2.310   2.214  0.0946  0.0254 -0.0050
    1SOL    HW2  878   2.475   2.325   2.308  0.2514 -1.8466  0.2980
    1SOL    HW3  879   2.369   2.325   2.200  0.2504  1.3013  0.2390
    1SOL    MW4  880   2.452   2.314   2.225  0.1359 -0.0532  0.0672
    1SOL     OW  881   3.509   1.450   2.244  0.1552  0.3826  0.4426
    1SOL    HW2  882   3.465   1.370   2.274 -0.7783  1.1057  1.0329
    1SOL    HW3  883   3.558   1.481   2.321 -1.6293  1.8231  1.0430
    1SOL    MW4  884   3.509   1.444   2.258 -0.2036  0.6682  0.5994
    1SOL     OW  885   0.891   2.462   2.272  0.5856  0.1798  0.2244
    1SOL    HW2  886   0.860   2.473   2.362 -0.9723  0.2165 -0.3097
    1SOL    HW3  887   0.824   2.504   2.218  1.9108  0.8721 -0.9108
    1SOL    MW4  888   0.878   2.469   2.277  0.5549  0.2761  0.0043
    1SOL     OW  889   0.328   0.979   0.723  0.2648  0.7937  0.0795
    1SOL    HW2  890   0.245   0.996   0.679  0.8982  2.6765 -0.4613
    1SOL    HW3  891   0.304   0.931   0.802 -1.1230 -0.4237 -1.0540
    1SOL    MW4  892   0.314   0.975   0.728  0.1653  0.8816 -0.1414
    1SOL     OW  893   2.549   3.271   4.661  0.1688 -0.7834  0.1846
    1SOL    HW2  894   2.467   3.310   4.690 -0.1780 -1.1806 -0.2550
    1SOL    HW3  895   2.526   3.181   4.637  0.4640 -0.4965 -1.2128
    1SOL    MW4  896   2.535   3.265   4.661  0.1621 -0.7977 -0.0577
    1SOL     OW  897   2.973   3.502   3.982  0.4651  0.3169  0.7041
    1SOL    HW2  898   3.002   3.557   3.909 -0.3772  2.1883  1.7573
    1SOL    HW3  899   2.877   3.505   3.978  0.3729 -2.1086  0.0295
    1SOL    MW4  900   2.964   3.509   3.972  0.3419  0.2439  0.7539
    1SOL     OW  901   3.014   1.353   3.690 -0.0137  0.1606  0.6130
    1SOL    HW2  902   3.039   1.419   3.625 -0.1058 -0.2147  0.1906
    1SOL    HW3  903   3.053   1.383   3.771  0.7665  0.2328  0.2148
    1SOL    MW4  904   3.022   1.366   3.692  0.0772  0.1204  0.5050
    1SOL     OW  905   1.944   2.882   1.148 -0.1336 -0.0444 -0.3471
    1SOL    HW2  906   1.940   2.963   1.199 -0.6586 -0.8893  0.9825
    1SOL    HW3  907   2.038   2.868   1.134 -0.0948  1.4300 -1.6458
    1SOL    MW4  908   1.956   2.891   1.153 -0.1978  0.0386 -0.3431
    1SOL     OW  909   3.439   1.533   1.438  0.2271 -0.1415  0.3257
    1SOL    HW2  910   3.534   1.537   1.431  0.2050  0.1144  0.1807
    1SOL    HW3  911   3.417   1.442   1.416  0.0445  0.9201 -4.4414
    1SOL    MW4  912   3.448   1.522   1.434  0.2003  0.0323 -0.3223
    1SOL     OW  913   3.137   1.555   3.542  0.4676  0.1045 -0.2790
    1SOL    HW2  914   3.133   1.624   3.475 -1.2641 -0.2966 -0.6127
    1SOL    HW3  915   3.207   1.583   3.600  1.4213  0.9161 -1.7726
    1SOL    MW4  916   3.145   1.568   3.541  0.3650  0.1587 -0.5200
    1SOL     OW  917   0.601   0.346   3.033 -0.3438  0.6785 -0.3474
    1SOL    HW2  918   0.695   0.344   3.048 -0.3119  1.9175 -0.3075
    1SOL    HW3  919   0.592   0.361   2.939 -0.5101 -0.6835 -0.5519
    1SOL    MW4  920   0.612   0.348   3.023 -0.3615  0.6623 -0.3691
    1SOL     OW  921   0.481   1.776   3.467  0.2208 -0.5818 -0.5112
    1SOL    HW2  922   0.523   1.784   3.552  1.1320 -0.0270 -0.9984
    1SOL    HW3  923   0.552   1.749   3.408  0.0404  1.0434 -1.4824
    1SOL    MW4  924   0.496   1.773   3.470  0.3172 -0.2942 -0.7033
    1SOL     OW  925   3.046   2.156   1.195  0.7104  0.2930  0.9622
    1SOL    HW2  926   3.087   2.077   1.161  0.7447  0.1673  1.2893
    1SOL    HW3  927   2.993   2.126   1.269  0.9331  0.6108  1.2556
    1SOL    MW4  928   3.045   2.142   1.200  0.7441  0.3183  1.0442
    1SOL     OW  929   3.280   3.925   2.179  0.7370 -0.1721  0.2138
    1SOL    HW2  930   3.267   3.962   2.091  3.4804  0.4904  0.0526
    1SOL    HW3  931   3.230   3.982   2.237  2.2083  1.8705 -0.4506
    1SOL    MW4  932   3.272   3.937   2.175  1.2929  0.1850  0.1047
    1SOL     OW  933   1.940   2.600   0.546  0.0081 -0.4643  0.3800
    1SOL    HW2  934   1.922   2.628   0.457  2.1941 -0.6861 -0.1715
    1SOL    HW3  935   1.947   2.504   0.540 -0.7391 -0.5633  0.9701
    1SOL    MW4  936   1.939   2.591   0.534  0.1980 -0.5066  0.3850
    1SOL     OW  937   2.506   3.289   1.842 -0.6166 -0.5953 -0.2720
    1SOL    HW2  938   2.589   3.240   1.843 -0.4918 -0.3874 -0.3525
    1SOL    HW3  939   2.530   3.376   1.809 -0.7860 -0.3885  0.1424
    1SOL    MW4  940   2.520   3.294   1.837 -0.6223 -0.5405 -0.2279
    1SOL     OW  941   0.423   0.767   2.159 -0.0277 -0.5954  0.1303
    1SOL    HW2  942   0.431   0.711   2.082 -2.2580 -0.0575 -0.5225
    1SOL    HW3  943   0.477   0.843   2.138 -0.6703 -0.4207 -0.9479
    1SOL    MW4  944   0.431   0.770   2.146 -0.4067 -0.5013 -0.0982
    1SOL     OW  945   1.876   3.841   3.256 -0.2086  0.1528 -0.1464
    1SOL    HW2  946   1.790   3.864   3.222  0.0956 -0.6678 -1.4905
    1SOL    HW3  947   1.916   3.787   3.188  0.3702 -1.5961  1.5306
    1SOL    MW4  948   1.870   3.837   3.243 -0.0920 -0.1862 -0.1023
    1SOL     OW  949   1.097   4.031   3.608 -0.3369  0.0278  0.5461
    1SOL    HW2  950   1.117   4.040   3.701  0.3490  0.9057  0.3232
    1SOL    HW3  951   1.129   4.113   3.568 -1.1980 -0.0655 -0.3619
    1SOL    MW4  952   1.104   4.043   3.615 -0.3600  0.1316  0.3967
    1SOL     OW  953   0.149   2.218   3.586 -0.2435 -1.1293 -0.4283
    1SOL    HW2  954   0.177   2.234   3.496 -1.7157 -0.3179 -0.7680
    1SOL    HW3  955   0.106   2.300   3.612  0.6001 -1.1807  1.1865
    1SOL    MW4  956   0.147   2.231   3.577 -0.3264 -1.0293 -0.2604
    1SOL     OW  957   3.990   4.608   1.425  0.1219  0.1896 -0.2602
    1SOL    HW2  958   3.948   4.535   1.469 -0.6563  1.2782  0.8363
    1SOL    HW3  959   4.068   4.571   1.384 -0.4213 -1.2940  0.0374
    1SOL    MW4  960   3.995   4.594   1.425 -0.0522  0.1369 -0.0762
    1SOL     OW  961   0.077   0.132   3.690 -0.4714 -0.0455  0.1116
    1SOL    HW2  962   0.149   0.177   3.735 -0.2231  0.0689 -0.3927
    1SOL    HW3  963  -0.001   0.153   3.742 -0.1648 -0.0169  0.5541
    1SOL    MW4  964   0.076   0.141   3.703 -0.3982 -0.0266  0.1035
    1SOL     OW  965   3.640   3.729   4.117  0.3500 -1.1392 -0.0591
    1SOL    HW2  966   3.711   3.665   4.127  1.1760 -0.5574 -1.9125
    1SOL    HW3  967   3.568   3.678   4.081  0.2128 -1.4906  0.6963
    1SOL    MW4  968   3.640   3.714   4.114  0.4408 -1.1086 -0.2036
    1SOL     OW  969   3.561   2.568   4.398 -0.3074 -0.1075 -0.2880
    1SOL    HW2  970   3.470   2.537   4.406  0.2894 -2.2600 -1.6009
    1SOL    HW3  971   3.553   2.663   4.394 -2.3956 -0.1819  1.0540
    1SOL    MW4  972   3.548   2.576   4.399 -0.5040 -0.4013 -0.2847
    1SOL     OW  973   0.149   3.565   2.913 -0.1130  0.3383 -0.2042
    1SOL    HW2  974   0.220   3.547   2.975  0.7974 -0.1481 -1.3659
    1SOL    HW3  975   0.148   3.661   2.906  1.1646  0.2957 -1.0178
    1SOL    MW4  976   0.158   3.575   2.920  0.1757  0.2687 -0.4649
    1SOL     OW  977   1.017   4.328   3.047 -0.1543 -0.4891 -0.4226
    1SOL    HW2  978   0.961   4.299   2.975 -1.1178  0.0204  0.1143
    1SOL    HW3  979   0.978   4.288   3.125 -1.0810  1.6416  0.2326
    1SOL    MW4  980   1.005   4.319   3.048 -0.4036 -0.1407 -0.2654
    1SOL     OW  981   3.573   0.436   2.781  0.4304  0.0554  0.6043
    1SOL    HW2  982   3.503   0.386   2.737 -0.9439  1.5773  0.9871
    1SOL    HW3  983   3.600   0.500   2.715  0.0731  0.7462  1.1194
    1SOL    MW4  984   3.567   0.438   2.766  0.2019  0.3474  0.7229
    1SOL     OW  985   0.008   0.417   3.007 -0.1328 -0.0836  0.2305
    1SOL    HW2  986  -0.069   0.383   3.053  0.3821 -1.8292 -0.1455
    1SOL    HW3  987   0.081   0.397   3.066  0.2971 -0.5271 -0.4499
    1SOL    MW4  988   0.007   0.410   3.021 -0.0080 -0.3724  0.0908
    1SOL     OW  989   0.051   4.221   0.571  0.2726  0.3456 -0.3452
    1SOL    HW2  990   0.130   4.203   0.622  0.3020  1.1129 -0.1280
    1SOL    HW3  991   0.017   4.303   0.605 -1.6186 -0.8601  0.7962
    1SOL    MW4  992   0.057   4.229   0.582  0.0269  0.2880 -0.1659
    1SOL     OW  993   3.536   3.517   2.981  0.2307 -0.2993 -0.2376
    1SOL    HW2  994   3.593   3.567   2.922 -0.1823 -0.3415 -0.6773
    1SOL    HW3  995   3.510   3.440   2.930 -0.0830 -0.3666  0.0184
    1SOL    MW4  996   3.540   3.513   2.966  0.1347 -0.3140 -0.2618
    1SOL     OW  997   1.615   1.370   2.133  0.5197 -0.0036 -0.3725
    1SOL    HW2  998   1.666   1.409   2.204  0.6289  0.2821 -0.6080
    1SOL    HW3  999   1.571   1.295   2.174 -0.5369  0.9844  0.3385
    1SOL    MW4 1000   1.616   1.365   2.148  0.3947  0.1645 -0.3097
    1SOL     OW 1001   0.574   3.806   4.044 -0.2099 -0.1580  0.0482
    1SOL    HW2 1002   0.531   3.724   4.019 -0.1386  0.2235 -1.3905
    1SOL    HW3 1003   0.502   3.864   4.069 -0.3663 -0.2081 -0.2834
    1SOL    MW4 1004   0.559   3.802   4.044 -0.2211 -0.1142 -0.1850
    1SOL     OW 1005   4.172   3.950   1.284 -0.1851  0.5534 -0.3355
    1SOL    HW2 1006   4.091   3.928   1.329 -0.0760 -0.0533 -0.4279
    1SOL    HW3 1007   4.217   3.866   1.273  0.9456  1.0019  0.6528
    1SOL    MW4 1008   4.167   3.936   1.288 -0.0219  0.5326 -0.2174
    1SOL     OW 1009   1.897   0.959   2.245 -0.1553  0.8264 -0.3682
    1SOL    HW2 1010   1.882   1.040   2.196 -0.0520  1.0574 -0.0211
    1SOL    HW3 1011   1.981   0.973   2.289 -0.1346  0.5279 -0.3099
    1SOL    MW4 1012   1.907   0.971   2.244 -0.1389  0.8174 -0.3147
    1SOL     OW 1013   1.080   3.195   3.152 -0.2383  0.1892  0.0235
    1SOL    HW2 1014   1.033   3.177   3.234 -0.8688  0.8193 -0.2039
    1SOL    HW3 1015   1.157   3.244   3.180  0.7584 -1.5722  0.4919
    1SOL    MW4 1016   1.084   3.199   3.167 -0.1899  0.0398  0.0553
    1SOL     OW 1017   3.875   0.468   1.982 -0.2311  0.0051  0.0241
    1SOL    HW2 1018   3.947   0.450   2.043 -0.5890  2.8174  1.3794
    1SOL    HW3 1019   3.801   0.421   2.019  0.4112 -1.1833 -0.1955
    1SOL    MW4 1020   3.875   0.460   1.995 -0.1936  0.2193  0.1740
    1SOL     OW 1021   3.099   2.736   2.923 -0.0555 -0.4022  0.6312
    1SOL    HW2 1022   3.041   2.697   2.858 -0.6389 -0.4917  1.1978
    1SOL    HW3 1023   3.040   2.777   2.986  0.5063 -0.2839  1.0801
    1SOL    MW4 1024   3.084   2.736   2.923 -0.0582 -0.3986  0.7651
    1SOL     OW 1025   1.527   0.191   3.304  0.0905 -0.3008 -0.0545
    1SOL    HW2 1026   1.558   0.159   3.388  0.2751  0.7070  0.2641
    1SOL    HW3 1027   1.432   0.198   3.314  0.3352  1.9787  0.8241
    1SOL    MW4 1028   1.518   0.187   3.316  0.1472  0.1329  0.1035
    1SOL     OW 1029   0.527   3.093   2.684 -0.4823  0.1816  0.1039
    1SOL    HW2 1030   0.607   3.077   2.635 -0.2796 -0.9003  0.7704
    1SOL    HW3 1031   0.530   3.186   2.706  0.1109  0.3588 -0.7044
    1SOL    MW4 1032   0.538   3.103   2.681 -0.3772  0.0622  0.0849
    1SOL     OW 1033   1.432   4.406   3.552 -0.4132  0.4294 -0.3600
    1SOL    HW2 1034   1.408   4.462   3.625  1.3884  0.8122 -0.0241
    1SOL    HW3 1035   1.412   4.457   3.474 -0.7244  0.7009 -0.1031
    1SOL    MW4 1036   1.426   4.420   3.551 -0.2166  0.5159 -0.2816
    1SOL     OW 1037   1.446   2.447   3.233 -0.1107 -0.0393  0.1925
    1SOL    HW2 1038   1.413   2.521   3.182  0.7394 -0.5719 -1.1803
    1SOL    HW3 1039   1.386   2.375   3.212  0.2186 -0.2510 -0.0268
    1SOL    MW4 1040   1.434   2.447   3.223  0.0448 -0.1373 -0.0176
    1SOL     OW 1041   1.535   4.524   1.644 -0.6064 -0.2841  0.0871
    1SOL    HW2 1042   1.528   4.515   1.739 -1.9116  0.9131  0.1128
    1SOL    HW3 1043   1.513   4.437   1.610 -1.2956 -0.4057  0.8262
    1SOL    MW4 1044   1.531   4.511   1.652 -0.8695 -0.1416  0.1879
    1SOL     OW 1045   0.372   0.159   2.060 -0.0157  0.0657  0.6869
    1SOL    HW2 1046   0.447   0.130   2.007  1.0179  0.4791  1.8952
    1SOL    HW3 1047   0.298   0.108   2.028  0.5453  0.4697 -1.3060
    1SOL    MW4 1048   0.372   0.149   2.049  0.1947  0.1735  0.5832
    1SOL     OW 1049   0.896   0.171   2.780 -0.2843  0.9267  0.0130
    1SOL    HW2 1050   0.863   0.248   2.732  0.9571 -0.0260 -2.4232
    1SOL    HW3 1051   0.986   0.161   2.751 -0.3524 -1.3134  0.4859
    1SOL    MW4 1052   0.903   0.180   2.770 -0.1295  0.5055 -0.2460
    1SOL     OW 1053   0.267   3.479   1.953  0.1114  0.2183 -0.3299
    1SOL    HW2 1054   0.256   3.485   2.048 -1.5891 -0.1997 -0.4857
    1SOL    HW3 1055   0.286   3.386   1.937  0.6126  0.3288 -0.3797
    1SOL    MW4 1056   0.268   3.467   1.963 -0.0468  0.1776 -0.3570
    1SOL     OW 1057   1.587   3.502   3.520  0.0184  0.5898 -0.0692
    1SOL    HW2 1058   1.515   3.510   3.582  0.3192  1.2108  0.1963
    1SOL    HW3 1059   1.664   3.490   3.575  0.3257  1.4459 -0.3191
    1SOL    MW4 1060   1.587   3.501   3.535  0.0987  0.7846 -0.0672
    1SOL     OW 1061   3.819   0.561   1.172 -0.0123 -0.1338  0.0987
    1SOL    HW2 1062   3.893   0.553   1.111 -0.0003  0.5804  0.0215
    1SOL    HW3 1063   3.760   0.623   1.130  0.1255  0.5832  0.9424
    1SOL    MW4 1064   3.821   0.568   1.158  0.0074  0.0551  0.1999
    1SOL     OW 1065   0.581   2.178   1.028 -0.9016 -0.0241  0.3612
    1SOL    HW2 1066   0.580   2.165   1.123 -1.0060  1.6265  0.5919
    1SOL    HW3 1067   0.655   2.125   0.997 -0.4739 -0.0489  1.4254
    1SOL    MW4 1068   0.590   2.169   1.036 -0.8590  0.1905  0.5320
    1SOL     OW 1069   1.304   2.450   1.566  0.5953 -0.1716  0.4165
    1SOL    HW2 1070   1.322   2.525   1.508 -2.0478  0.0973 -0.1245
    1SOL    HW3 1071   1.308   2.374   1.508 -2.0724  0.0998 -0.1599
    1SOL    MW4 1072   1.307   2.450   1.551 -0.1054 -0.1006  0.2692
    1SOL     OW 1073   3.843   4.383   2.404  0.1504 -0.3553  0.7719
    1SOL    HW2 1074   3.832   4.458   2.464 -0.3730  0.7078 -0.6133
    1SOL    HW3 1075   3.760   4.335   2.411  0.5027 -0.8493  1.6951
    1SOL    MW4 1076   3.831   4.387   2.413  0.1283 -0.2799  0.7107
    1SOL     OW 1077   2.005   1.925   1.702 -0.0952  0.1313  0.5539
    1SOL    HW2 1078   1.931   1.958   1.650 -0.8032 -2.3380 -0.0452
    1SOL    HW3 1079   2.050   1.863   1.644  0.5784 -0.7645  2.0164
    1SOL    MW4 1080   2.001   1.921   1.687 -0.0999 -0.3127  0.6678
    1SOL     OW 1081   3.881   4.200   4.165 -0.0776 -0.4271  0.2999
    1SOL    HW2 1082   3.825   4.130   4.132 -0.2407 -1.3446  2.4213
    1SOL    HW3 1083   3.970   4.166   4.155 -0.1079 -0.5576  0.4719
    1SOL    MW4 1084   3.886   4.186   4.160 -0.1032 -0.5651  0.6018
    1SOL     OW 1085   2.446   4.340   1.954 -0.0149 -0.4532  0.1853
    1SOL    HW2 1086   2.354   4.364   1.949  0.1801  0.3486  0.3108
    1SOL    HW3 1087   2.492   4.423   1.969  0.9108 -0.5712 -1.8194
    1SOL    MW4 1088   2.440   4.354   1.955  0.1330 -0.3629 -0.0627
    1SOL     OW 1089   0.200   0.957   3.479  0.5002  0.2977  0.1681
    1SOL    HW2 1090   0.178   1.050   3.479 -0.7171  0.0243 -0.2677
    1SOL    HW3 1091   0.115   0.913   3.473  1.1514 -0.8103 -1.0247
    1SOL    MW4 1092   0.186   0.964   3.478  0.4255  0.1155 -0.0465
    1SOL     OW 1093   2.159   4.553   1.786  0.2627  0.1337  0.1990
    1SOL    HW2 1094   2.184   4.638   1.821  1.3817 -0.2056  0.2565
    1SOL    HW3 1095   2.074   4.568   1.743 -0.5094  0.8111  1.9401
    1SOL    MW4 1096   2.151   4.566   1.785  0.3085  0.1783  0.4363
    1SOL     OW 1097   1.719   1.110   1.039 -0.3234  0.4614 -0.0707
    1SOL    HW2 1098   1.671   1.054   1.101 -0.7869  0.4451 -0.4445
    1SOL    HW3 1099   1.811   1.102   1.067 -0.3131 -0.9059 -0.4363
    1SOL    MW4 1100   1.725   1.101   1.051 -0.3831  0.2788 -0.1682
    1SOL     OW 1101   3.490   4.638   2.922  0.2493 -0.1765  0.0113
    1SOL    HW2 1102   3.424   4.570   2.938  0.6548 -0.3672  0.9118
    1SOL    HW3 1103   3.532   4.651   3.007  0.8503  0.5015 -0.3827
    1SOL    MW4 1104   3.487   4.631   2.936  0.3819 -0.1125  0.0780
    1SOL     OW 1105   3.657   1.465   2.477 -0.0676 -0.3842 -0.0997
    1SOL    HW2 1106   3.680   1.377   2.446  0.7367 -0.5103  0.8395
    1SOL    HW3 1107   3.623   1.451   2.565  0.4196  0.2957  0.1953
    1SOL    MW4 1108   3.656   1.452   2.484  0.1030 -0.3111  0.0632
    1SOL     OW 1109   4.007   3.653   3.409  0.3446  0.2763 -0.0050
    1SOL    HW2 1110   4.062   3.714   3.361 -1.5497  1.4629 -0.6901
    1SOL    HW3 1111   4.002   3.576   3.352  1.0156  0.2748 -0.0751
    1SOL    MW4 1112   4.014   3.651   3.395  0.1831  0.4327 -0.1047
    1SOL     OW 1113   2.640   0.849   3.669 -0.2075 -0.0427 -0.4309
    1SOL    HW2 1114   2.736   0.847   3.664 -0.2265 -1.8484 -0.3689
    1SOL    HW3 1115   2.617   0.774   3.724 -1.6883  0.1452 -0.7654
    1SOL    MW4 1116   2.650   0.839   3.676 -0.4053 -0.2561 -0.4668
    1SOL     OW 1117   3.118   3.691   4.126 -0.2793  0.2792  0.2852
    1SOL    HW2 1118   3.124   3.678   4.221  0.5903 -0.5532  0.1209
    1SOL    HW3 1119   3.065   3.617   4.095  0.1916  0.0504  0.0160
    1SOL    MW4 1120   3.111   3.679   4.135 -0.1025  0.1392  0.2284
    1SOL     OW 1121   3.769   0.910   4.406  0.0343 -0.4615 -0.0638
    1SOL    HW2 1122   3.839   0.949   4.458 -0.3534 -1.1125  0.9641
    1SOL    HW3 1123   3.689   0.943   4.446 -0.2687 -0.8726 -0.3355
    1SOL    MW4 1124   3.768   0.920   4.418 -0.0570 -0.6016  0.0362
    1SOL     OW 1125   3.444   3.278   1.793  0.4330  0.5418 -0.2878
    1SOL    HW2 1126   3.431   3.207   1.730  0.4683  0.2177  0.0753
    1SOL    HW3 1127   3.530   3.262   1.830 -0.9036 -1.0906  2.2087
    1SOL    MW4 1128   3.454   3.267   1.789  0.2613  0.2837  0.0895
    1SOL     OW 1129   3.051   2.613   1.769 -0.2651 -0.8812 -0.5197
    1SOL    HW2 1130   3.065   2.532   1.818 -0.7862 -0.7644 -0.1709
    1SOL    HW3 1131   3.063   2.683   1.834  3.4305 -0.5096 -1.5197
    1SOL    MW4 1132   3.054   2.612   1.784  0.1538 -0.8166 -0.6053
    1SOL     OW 1133   0.353   4.604   2.696 -0.7404  0.1278 -0.0184
    1SOL    HW2 1134   0.417   4.667   2.662 -0.5852  0.8785  1.6316
    1SOL    HW3 1135   0.327   4.553   2.619 -0.9111  2.2454 -1.4164
    1SOL    MW4 1136   0.358   4.606   2.681 -0.7424  0.5059  0.0150
    1SOL     OW 1137   2.761   2.273   3.196  0.0413 -0.0128 -0.1688
    1SOL    HW2 1138   2.766   2.206   3.264  0.5090  1.1824  0.9938
    1SOL    HW3 1139   2.692   2.242   3.137  1.5644 -2.4689 -0.7251
    1SOL    MW4 1140   2.752   2.260   3.197  0.3037 -0.1793 -0.0887
    1SOL     OW 1141   0.980   4.598   2.533  0.7980 -0.0073 -0.1317
    1SOL    HW2 1142   1.030   4.625   2.610  0.8303  0.6215 -0.3680
    1SOL    HW3 1143   1.035   4.532   2.491  0.6230 -0.6096  0.5709
    1SOL    MW4 1144   0.994   4.593   2.538  0.7791 -0.0043 -0.0699
    1SOL     OW 1145   2.590   3.053   1.177  0.0297 -0.2152 -0.7297
    1SOL    HW2 1146   2.570   3.102   1.097 -0.9266  0.3351 -0.1639
    1SOL    HW3 1147   2.517   2.992   1.186  0.9344 -1.3684 -1.1238
    1SOL    MW4 1148   2.578   3.052   1.168  0.0229 -0.2949 -0.7069
    1SOL     OW 1149   3.429   0.031   1.932 -0.1852 -0.1158 -0.0301
    1SOL    HW2 1150   3.407   0.123   1.917 -1.5798 -0.6834 -1.5492
    1SOL    HW3 1151   3.484   0.006   1.857  0.8726 -0.3047  0.7951
    1SOL    MW4 1152   3.433   0.040   1.920 -0.2294 -0.2157 -0.1217
    1SOL     OW 1153   1.187   0.626   3.434 -0.4758 -0.2651  0.2746
    1SOL    HW2 1154   1.194   0.665   3.521 -0.1976  1.0436 -0.3365
    1SOL    HW3 1155   1.277   0.616   3.404 -0.4960 -2.2517  0.8029
    1SOL    MW4 1156   1.200   0.630   3.442 -0.4417 -0.3545  0.2635
    1SOL     OW 1157   2.449   3.710   2.263  0.6069  0.0412 -0.1309
    1SOL    HW2 1158   2.432   3.643   2.196  0.5942 -0.3943  0.3066
    1SOL    HW3 1159   2.398   3.786   2.234 -1.2216 -0.8882  0.5765
    1SOL    MW4 1160   2.440   3.711   2.250  0.3641 -0.1390  0.0200
    1SOL     OW 1161   0.537   1.529   4.182 -0.0288 -0.1868 -0.5209
    1SOL    HW2 1162   0.595   1.600   4.211  0.1383  0.4149 -2.2301
    1SOL    HW3 1163   0.471   1.522   4.251  1.5692 -0.3016  1.0405
    1SOL    MW4 1164   0.536   1.538   4.195  0.2040 -0.1225 -0.5407
    1SOL     OW 1165   1.663   1.819   2.942 -1.0323  0.1615  0.0349
    1SOL    HW2 1166   1.737   1.878   2.927  0.4919 -1.2668  1.7784
    1SOL    HW3 1167   1.692   1.735   2.909 -2.5123 -0.0560 -0.7556
    1SOL    MW4 1168   1.676   1.816   2.936 -1.0265 -0.0556  0.1607
    1SOL     OW 1169   0.808   1.651   3.770 -0.2965  0.5561 -0.0946
    1SOL    HW2 1170   0.844   1.619   3.853 -0.5234  0.6256  0.0326
    1SOL    HW3 1171   0.852   1.735   3.756  1.1180 -0.3228 -0.9917
    1SOL    MW4 1172   0.818   1.658   3.779 -0.1398  0.4494 -0.1962
    1SOL     OW 1173   1.852   2.830   3.968 -0.4118  0.3112 -0.2067
    1SOL    HW2 1174   1.844   2.820   3.874  0.9491  2.7972 -0.6305
    1SOL    HW3 1175   1.943   2.805   3.987 -1.8159 -4.2207  1.0863
    1SOL    MW4 1176   1.863   2.826   3.958 -0.4175  0.0412 -0.0918
    1SOL     OW 1177   3.627   4.332   4.289 -0.1393  0.0069  0.5246
    1SOL    HW2 1178   3.721   4.314   4.294 -0.2166 -0.1565  1.4336
    1SOL    HW3 1179   3.591   4.256   4.244  0.0133 -0.4585  1.1842
    1SOL    MW4 1180   3.635   4.320   4.284 -0.1292 -0.0758  0.7315
    1SOL     OW 1181   0.825   2.868   2.116 -0.0669 -0.1728  0.5789
    1SOL    HW2 1182   0.768   2.822   2.055  0.7151  0.0812 -0.3490
    1SOL    HW3 1183   0.802   2.832   2.202 -0.4286 -1.2958  0.0176
    1SOL    MW4 1184   0.814   2.857   2.120 -0.0114 -0.2873  0.3824
    1SOL     OW 1185   0.266   1.838   1.517  0.4574 -0.1975  0.0640
    1SOL    HW2 1186   0.181   1.852   1.559 -0.1885  0.4599 -1.4338
    1SOL    HW3 1187   0.324   1.903   1.558  0.0331 -0.0885  0.4951
    1SOL    MW4 1188   0.263   1.848   1.528  0.3162 -0.0966 -0.0768
    1SOL     OW 1189   2.746   2.842   4.349  0.3518 -0.0627 -0.0508
    1SOL    HW2 1190   2.813   2.792   4.396 -1.1136 -1.7252  0.3010
    1SOL    HW3 1191   2.675   2.779   4.334 -1.4953  1.9013  0.3280
    1SOL    MW4 1192   2.745   2.827   4.353 -0.0854 -0.0229  0.0448
    1SOL     OW 1193   4.379   3.646   3.155  0.6389  0.1187  0.4763
    1SOL    HW2 1194   4.341   3.710   3.094  1.3766  1.8984  1.8294
    1SOL    HW3 1195   4.430   3.587   3.099 -0.4517  0.4256 -0.8588
    1SOL    MW4 1196   4.381   3.647   3.140  0.5927  0.3939  0.4787
    1SOL     OW 1197   4.212   1.168   2.604  0.2543 -0.7296 -0.3366
    1SOL    HW2 1198   4.187   1.260   2.592  0.1644 -0.7333 -0.1779
    1SOL    HW3 1199   4.236   1.162   2.697  2.8079 -0.2505 -0.9301
    1SOL    MW4 1200   4.212   1.179   2.615  0.5794 -0.6669 -0.3939
    1SOL     OW 1201   2.562   0.603   1.713 -0.1554  0.1751  0.1072
    1SOL    HW2 1202   2.594   0.685   1.676  0.6238  0.2817  1.0031
    1SOL    HW3 1203   2.475   0.591   1.674 -1.2218  2.5543  1.5981
    1SOL    MW4 1204   2.555   0.613   1.703 -0.1934  0.5030  0.4221
    1SOL     OW 1205   0.552   3.243   3.409 -0.1502  0.0960 -0.2823
    1SOL    HW2 1206   0.494   3.318   3.396  0.6173  0.2144 -3.2875
    1SOL    HW3 1207   0.626   3.278   3.460  0.4163  1.5075 -2.0403
    1SOL    MW4 1208   0.554   3.257   3.414  0.0259  0.2980 -0.9105
    1SOL     OW 1209   2.896   0.081   1.065  0.6198  0.5673  0.0148
    1SOL    HW2 1210   2.907   0.106   0.973  1.4464  0.9017  0.2020
    1SOL    HW3 1211   2.909  -0.014   1.065 -0.3882  0.4197 -0.3624
    1SOL    MW4 1212   2.899   0.072   1.053  0.5958  0.5920 -0.0103
    1SOL     OW 1213   1.070   3.422   3.585 -0.4971 -0.3678  0.7350
    1SOL    HW2 1214   1.019   3.434   3.505  1.6793 -0.6748 -0.7391
    1SOL    HW3 1215   1.017   3.463   3.653 -0.8929  2.8428 -1.3753
    1SOL    MW4 1216   1.056   3.429   3.583 -0.2621  0.0155  0.2623
    1SOL     OW 1217   1.646   2.569   1.363 -0.4445  0.0637  0.2001
    1SOL    HW2 1218   1.606   2.523   1.290 -1.6157 -0.5828  1.2151
    1SOL    HW3 1219   1.739   2.575   1.341 -0.4018 -2.0882 -0.3129
    1SOL    MW4 1220   1.653   2.564   1.351 -0.5933 -0.3057  0.2663
    1SOL     OW 1221   0.814   3.086   4.146  0.2867 -0.3430  0.2816
    1SOL    HW2 1222   0.856   3.151   4.201  0.8720 -1.2710  0.9526
    1SOL    HW3 1223   0.880   3.018   4.135 -0.5106 -1.1004  0.0788
    1SOL    MW4 1224   0.828   3.085   4.151  0.2587 -0.5653  0.3433
    1SOL     OW 1225   0.013   3.417   4.227 -0.6084  0.0059 -0.2354
    1SOL    HW2 1226  -0.068   3.437   4.179 -2.2794 -1.8385  1.7186
    1SOL    HW3 1227  -0.000   3.456   4.313  0.0760 -1.3516  0.4946
    1SOL    MW4 1228   0.001   3.425   4.232 -0.7386 -0.4165  0.1183
    1SOL     OW 1229   4.238   3.332   0.814 -0.3516 -0.0541  0.5488
    1SOL    HW2 1230   4.264   3.313   0.724 -0.6214 -1.9053  0.8370
    1SOL    HW3 1231   4.320   3.340   0.862 -0.1875  1.8061 -0.0170
    1SOL    MW4 1232   4.252   3.330   0.809 -0.3657 -0.0529  0.5122
    1SOL     OW 1233   3.973   1.786   2.103 -0.1696  0.0605 -0.4244
    1SOL    HW2 1234   3.924   1.837   2.168  0.7725  0.6832 -0.1878
    1SOL    HW3 1235   4.036   1.736   2.155  0.3322  0.2726 -0.8209
    1SOL    MW4 1236   3.975   1.786   2.118  0.0207  0.1707 -0.4454
    1SOL     OW 1237   0.616   1.265   2.953 -0.0812 -0.3753 -0.1918
    1SOL    HW2 1238   0.682   1.280   3.021  1.1409 -0.9948 -1.2297
    1SOL    HW3 1239   0.646   1.318   2.879 -1.0233 -0.2716 -0.4989
    1SOL    MW4 1240   0.629   1.274   2.952 -0.0443 -0.4433 -0.3693
    1SOL     OW 1241   0.968   1.535   1.084 -0.1005  0.2204  0.0471
    1SOL    HW2 1242   0.900   1.531   1.152 -0.3509 -2.6945 -0.3228
    1SOL    HW3 1243   1.045   1.497   1.125  0.1334 -0.3132 -0.8815
    1SOL    MW4 1244   0.969   1.530   1.099 -0.1027 -0.2345 -0.1243
    1SOL     OW 1245   3.305   1.045   2.190 -0.0031 -0.2524 -0.1537
    1SOL    HW2 1246   3.299   0.980   2.120 -0.0070  0.1512 -0.5262
    1SOL    HW3 1247   3.397   1.043   2.216  0.2739  0.5280 -1.0554
    1SOL    MW4 1248   3.317   1.036   2.184  0.0329 -0.0963 -0.3219
    1SOL     OW 1249   4.422   4.444   3.991  0.0063 -0.3770 -0.6160
    1SOL    HW2 1250   4.364   4.482   3.925 -0.4350 -1.5989 -0.9466
    1SOL    HW3 1251   4.371   4.447   4.072 -0.1567 -0.5589 -0.7101
    1SOL    MW4 1252   4.407   4.450   3.993 -0.0734 -0.5622 -0.6721
    1SOL     OW 1253   3.731   3.583   2.793  0.3620  0.2204  0.2284
    1SOL    HW2 1254   3.824   3.598   2.779 -0.2896  2.0134 -2.6178
    1SOL    HW3 1255   3.702   3.534   2.716 -1.3300  0.8812  0.4158
    1SOL    MW4 1256   3.739   3.578   2.781  0.0527  0.5441 -0.1225
    1SOL     OW 1257   1.186   1.563   4.545 -0.3139  0.1917 -0.3275
    1SOL    HW2 1258   1.159   1.640   4.594  0.0871  0.2791 -0.2426
    1SOL    HW3 1259   1.244   1.596   4.477 -0.9324  0.0790 -0.9198
    1SOL    MW4 1260   1.190   1.577   4.543 -0.3425  0.1885 -0.3948
    1SOL     OW 1261   0.847   4.063   3.647 -0.3243  0.8994  0.1158
    1SOL    HW2 1262   0.820   3.977   3.681 -0.5891  0.4658 -1.1627
    1SOL    HW3 1263   0.942   4.055   3.635 -0.4709  0.4722 -0.8387
    1SOL    MW4 1264   0.856   4.050   3.650 -0.3785  0.7854 -0.1791
    1SOL     OW 1265   2.915   0.190   3.909 -0.3671  0.1541 -0.1075
    1SOL    HW2 1266   2.898   0.188   3.815 -0.8998  1.5983 -0.0625
    1SOL    HW3 1267   2.835   0.228   3.946  0.0177  0.0055  0.8835
    1SOL    MW4 1268   2.902   0.195   3.902 -0.3865  0.3251  0.0291
    1SOL     OW 1269   3.548   4.515   4.044 -0.1045 -0.2204 -0.1115
    1SOL    HW2 1270   3.576   4.563   4.122 -1.4700 -0.5003  0.5678
    1SOL    HW3 1271   3.549   4.423   4.070 -3.6390 -0.1262  0.6387
    1SOL    MW4 1272   3.552   4.509   4.058 -0.7510 -0.2451  0.0768
    1SOL     OW 1273   3.538   0.742   2.396 -0.1605 -0.2560 -0.1122
    1SOL    HW2 1274   3.452   0.783   2.394 -0.7135 -1.4505 -1.7947
    1SOL    HW3 1275   3.596   0.804   2.353 -0.9057 -0.9990 -2.2321
    1SOL    MW4 1276   3.534   0.755   2.390 -0.3319 -0.5116 -0.6137
    1SOL     OW 1277   1.650   3.941   1.220 -0.1067 -0.2899  0.3139
    1SOL    HW2 1278   1.570   3.888   1.218 -0.4482  0.2485 -1.1034
    1SOL    HW3 1279   1.633   4.011   1.156  1.2865  0.1415  0.4147
    1SOL    MW4 1280   1.637   3.943   1.211  0.0319 -0.1621  0.1402
    1SOL     OW 1281   3.764   3.817   1.061  0.0946  0.1663 -0.4362
    1SOL    HW2 1282   3.857   3.839   1.060 -0.0159  1.0235  2.3901
    1SOL    HW3 1283   3.751   3.760   0.985  2.4830  1.6922 -2.0369
    1SOL    MW4 1284   3.774   3.812   1.051  0.3951  0.4807 -0.2745
    1SOL     OW 1285   0.659   2.502   1.151 -0.3260  0.1929 -0.3694
    1SOL    HW2 1286   0.628   2.489   1.062 -0.2084  1.6726 -0.6272
    1SOL    HW3 1287   0.697   2.417   1.176 -2.8328 -1.0473 -0.7098
    1SOL    MW4 1288   0.660   2.489   1.143 -0.6412  0.2246 -0.4481
    1SOL     OW 1289   0.696   3.247   3.968 -0.5095 -0.3225 -0.4322
    1SOL    HW2 1290   0.730   3.171   4.016 -3.0794 -0.6634  0.9509
    1SOL    HW3 1291   0.740   3.322   4.007  0.6297 -0.9567 -0.4938
    1SOL    MW4 1292   0.706   3.247   3.979 -0.6983 -0.4511 -0.2577
    1SOL     OW 1293   3.483   3.135   0.775  0.3421  0.1043  0.0215
    1SOL    HW2 1294   3.502   3.204   0.712 -1.5237 -0.2864 -0.9876
    1SOL    HW3 1295   3.564   3.127   0.827  1.7876  0.6551 -2.0791
    1SOL    MW4 1296   3.496   3.143   0.773  0.2866  0.1252 -0.3888
    1SOL     OW 1297   2.592   1.200   2.990 -0.7596 -0.1188  0.6061
    1SOL    HW2 1298   2.518   1.167   3.041 -1.0553  0.2633  0.4249
    1SOL    HW3 1299   2.587   1.152   2.907 -2.0338  1.3841 -0.2173
    1SOL    MW4 1300   2.581   1.189   2.986 -0.9668  0.1298  0.4737
    1SOL     OW 1301   2.903   0.223   2.351  0.0609 -0.2577 -0.3158
    1SOL    HW2 1302   2.887   0.291   2.416 -2.1442 -0.3252 -0.7479
    1SOL    HW3 1303   2.990   0.190   2.371 -0.0568  0.6480  1.7572
    1SOL    MW4 1304   2.912   0.228   2.362 -0.2453 -0.1471 -0.0992
    1SOL     OW 1305   3.091   3.023   4.057 -0.1360  0.5297  0.5367
    1SOL    HW2 1306   3.113   3.043   3.966 -1.6987 -0.0679  0.0110
    1SOL    HW3 1307   3.123   3.098   4.107  0.1942  1.1337 -0.5723
    1SOL    MW4 1308   3.098   3.035   4.051 -0.2985  0.5307  0.3214
    1SOL     OW 1309   0.534   0.313   3.595  0.2000  0.0817 -0.0647
    1SOL    HW2 1310   0.560   0.226   3.625 -0.7457 -0.6992 -1.4712
    1SOL    HW3 1311   0.565   0.318   3.505 -0.5136  0.8754 -0.2730
    1SOL    MW4 1312   0.541   0.302   3.587 -0.0190  0.0834 -0.2775
    1SOL     OW 1313   0.051   1.885   3.208 -0.3027  0.0857  0.3550
    1SOL    HW2 1314   0.145   1.894   3.226 -0.2525  0.4210 -0.0652
    1SOL    HW3 1315   0.019   1.975   3.203 -0.3900 -0.0146 -0.8451
    1SOL    MW4 1316   0.059   1.898   3.210 -0.3076  0.1167  0.1411
    1SOL     OW 1317   1.161   1.861   2.473 -0.2229  0.5537  0.0767
    1SOL    HW2 1318   1.131   1.771   2.485 -1.4117  0.8375 -0.6193
    1SOL    HW3 1319   1.131   1.884   2.385  3.1674  0.4518 -1.1879
    1SOL    MW4 1320   1.153   1.852   2.463  0.0676  0.5777 -0.1819
    1SOL     OW 1321   1.195   2.936   3.550 -0.0008  0.1567 -0.0363
    1SOL    HW2 1322   1.190   2.943   3.455  1.9539 -1.8150 -0.3273
    1SOL    HW3 1323   1.144   2.858   3.571 -1.3151  1.1849  0.6614
    1SOL    MW4 1324   1.187   2.927   3.541  0.0837  0.0322  0.0174
    1SOL     OW 1325   4.275   3.109   3.617 -0.2749  0.0724  0.2146
    1SOL    HW2 1326   4.195   3.149   3.583  0.4279  1.3796  0.0605
    1SOL    HW3 1327   4.335   3.182   3.628  1.2266 -1.0223 -0.5952
    1SOL    MW4 1328   4.272   3.124   3.614  0.0153  0.1001  0.0875
    1SOL     OW 1329   1.370   1.187   3.726  0.1632 -0.1000  0.2693
    1SOL    HW2 1330   1.305   1.206   3.794  0.3423  1.3037  0.0805
    1SOL    HW3 1331   1.429   1.263   3.728  0.2662 -0.1164 -1.3323
    1SOL    MW4 1332   1.369   1.200   3.735  0.2004  0.0830  0.0331
    1SOL     OW 1333   4.346   0.780   0.896 -0.1008  0.2484 -0.4038
    1SOL    HW2 1334   4.401   0.780   0.975 -0.3258  0.4041 -0.2461
    1SOL    HW3 1335   4.407   0.762   0.825 -0.2017 -1.9569  0.0234
    1SOL    MW4 1336   4.362   0.778   0.897 -0.1435 -0.0220 -0.3266
    1SOL     OW 1337   0.543   3.331   2.783 -0.0363  0.1902  0.4823
    1SOL    HW2 1338   0.574   3.330   2.692 -0.8876  1.5503  0.1646
    1SOL    HW3 1339   0.460   3.378   2.779 -0.7311 -0.9062  1.7731
    1SOL    MW4 1340   0.536   3.337   2.770 -0.2403  0.2251  0.6108
    1SOL     OW 1341   2.573   3.508   0.817  0.4120  0.1417 -0.2100
    1SOL    HW2 1342   2.500   3.474   0.869  1.1765 -0.1822  0.6570
    1SOL    HW3 1343   2.584   3.599   0.847 -0.1862  0.4730 -0.9575
    1SOL    MW4 1344   2.565   3.516   0.828  0.4342  0.1428 -0.1943
    1SOL     OW 1345   1.470   2.234   4.309  0.2443  0.2474  0.2809
    1SOL    HW2 1346   1.424   2.235   4.392 -1.9102  0.3727 -0.8795
    1SOL    HW3 1347   1.501   2.325   4.297 -0.0452  0.3868  0.6150
    1SOL    MW4 1348   1.468   2.246   4.318 -0.0782  0.2823  0.1721
    1SOL     OW 1349   0.813   2.433   1.525  0.3592 -0.2887 -0.3259
    1SOL    HW2 1350   0.720   2.411   1.533  0.3599  0.3350  1.9336
    1SOL    HW3 1351   0.837   2.404   1.438 -1.2104 -3.3036  0.1753
    1SOL    MW4 1352   0.804   2.427   1.515  0.1522 -0.6042  0.0384
    1SOL     OW 1353   3.069   4.496   3.549 -0.0075 -0.0773 -0.0445
    1SOL    HW2 1354   3.077   4.484   3.643 -0.2373 -2.7007 -0.3438
    1SOL    HW3 1355   2.983   4.460   3.527  0.9439 -1.4692 -1.5755
    1SOL    MW4 1356   3.059   4.490   3.558  0.0880 -0.6065 -0.2861
    1SOL     OW 1357   1.724   3.848   2.826  0.1237 -0.1654  0.1920
    1SOL    HW2 1358   1.727   3.877   2.735 -0.8041 -0.5440  0.0370
    1SOL    HW3 1359   1.773   3.914   2.874  0.9879 -0.1905 -0.6450
    1SOL    MW4 1360   1.731   3.860   2.820  0.1154 -0.2186  0.0610
    1SOL     OW 1361   1.379   4.183   3.686 -0.0695  0.5763 -0.0297
    1SOL    HW2 1362   1.385   4.268   3.642  1.7300  0.7841  0.5798
    1SOL    HW3 1363   1.464   4.172   3.729  0.1699 -2.0795 -1.0815
    1SOL    MW4 1364   1.391   4.192   3.685  0.1996  0.2527 -0.0882
    1SOL     OW 1365   4.292   0.803   2.311 -0.3593  0.3807 -0.2062
    1SOL    HW2 1366   4.272   0.803   2.218 -0.0539  0.5431 -0.2720
    1SOL    HW3 1367   4.370   0.747   2.319 -0.5702  0.1132 -0.0091
    1SOL    MW4 1368   4.300   0.795   2.300 -0.3471  0.3668 -0.1891
    1SOL     OW 1369   0.712   0.031   2.964 -0.1779 -0.0734  0.3983
    1SOL    HW2 1370   0.756   0.061   2.885  0.7853  0.3078  1.0668
    1SOL    HW3 1371   0.650  -0.036   2.934 -1.3675  1.6031 -0.9168
    1SOL    MW4 1372   0.710   0.026   2.950 -0.2077  0.1979  0.3130
    1SOL     OW 1373   0.410   4.012   1.136  0.5900  0.1206 -0.0830
    1SOL    HW2 1374   0.354   4.088   1.122 -0.4990 -0.6459  0.0441
    1SOL    HW3 1375   0.450   4.028   1.222  0.2623  0.4789  0.0062
    1SOL    MW4 1376   0.408   4.024   1.146  0.4030  0.0672 -0.0544
    1SOL     OW 1377   1.400   0.844   2.306 -0.0545  0.0196  0.3262
    1SOL    HW2 1378   1.364   0.837   2.217  0.6449  1.3958 -0.0741
    1SOL    HW3 1379   1.444   0.760   2.319 -1.1247 -0.6484 -0.1793
    1SOL    MW4 1380   1.401   0.832   2.296 -0.1035  0.1130  0.2065
    1SOL     OW 1381   3.695   2.637   0.960  0.1032 -0.3497 -0.4402
    1SOL    HW2 1382   3.709   2.730   0.978 -1.3314 -0.2168  0.0447
    1SOL    HW3 1383   3.600   2.625   0.964  0.2874 -1.9001 -0.1678
    1SOL    MW4 1384   3.685   2.647   0.963 -0.0618 -0.5367 -0.3403
    1SOL     OW 1385   1.956   3.623   2.788 -0.1513  0.1987 -0.2697
    1SOL    HW2 1386   1.966   3.528   2.795  1.5469  0.3593 -0.3517
    1SOL    HW3 1387   1.893   3.636   2.717  0.9574 -0.8263 -1.4466
    1SOL    MW4 1388   1.949   3.612   2.780  0.2190  0.0849 -0.4358
    1SOL     OW 1389   4.229   2.211   1.633  0.1213 -0.0258 -0.7733
    1SOL    HW2 1390   4.164   2.140   1.633  0.6855 -0.5502  0.0757
    1SOL    HW3 1391   4.224   2.248   1.545 -1.6775  0.2613 -0.5786
    1SOL    MW4 1392   4.220   2.207   1.621 -0.0415 -0.0572 -0.6355
    1SOL     OW 1393   1.157   3.254   4.461 -0.1827 -0.0035 -0.0191
    1SOL    HW2 1394   1.223   3.188   4.441 -0.6892 -0.4422 -0.2629
    1SOL    HW3 1395   1.186   3.332   4.414 -0.2102 -0.4045 -0.7088
    1SOL    MW4 1396   1.169   3.255   4.452 -0.2530 -0.1144 -0.1426
    1SOL     OW 1397   1.165   3.598   1.329  0.0448  0.6933  0.1728
    1SOL    HW2 1398   1.088   3.573   1.381  0.9893  0.0163  1.2727
    1SOL    HW3 1399   1.188   3.685   1.362  0.0618  0.6711  0.2213
    1SOL    MW4 1400   1.158   3.607   1.340  0.1717  0.6013  0.3241
    1SOL     OW 1401   1.560   0.212   1.092 -1.1091  0.0449  0.1655
    1SOL    HW2 1402   1.552   0.117   1.100 -0.7946  0.0711  0.8543
    1SOL    HW3 1403   1.522   0.232   1.007 -0.1585 -0.8184 -0.4658
    1SOL    MW4 1404   1.554   0.202   1.082 -0.9422 -0.0656  0.1731
    1SOL     OW 1405   4.328   1.886   3.863  0.3637 -0.2049 -0.5270
    1SOL    HW2 1406   4.416   1.917   3.843 -0.0746  1.5668  0.2143
    1SOL    HW3 1407   4.270   1.955   3.831 -0.5081  1.0708  3.4609
    1SOL    MW4 1408   4.332   1.899   3.856  0.1907  0.1973  0.0968
    1SOL     OW 1409   0.616   3.613   1.750 -0.2799 -0.1260  0.0547
    1SOL    HW2 1410   0.565   3.538   1.720  0.8482 -1.4692  1.3859
    1SOL    HW3 1411   0.579   3.635   1.835  1.8389 -1.6699  1.4384
    1SOL    MW4 1412   0.605   3.606   1.757  0.1485 -0.5069  0.4131
    1SOL     OW 1413   4.053   1.533   1.560 -0.2447  0.2066  0.1469
    1SOL    HW2 1414   4.140   1.536   1.599 -0.5165 -1.6483  0.9389
    1SOL    HW3 1415   4.050   1.451   1.512 -1.8619 -0.2014  0.8923
    1SOL    MW4 1416   4.064   1.523   1.559 -0.4940 -0.0920  0.3498
    1SOL     OW 1417   2.068   1.067   3.777 -0.0767  0.1371  0.5817
    1SOL    HW2 1418   2.083   1.151   3.734 -1.7111 -0.0583 -0.4165
    1SOL    HW3 1419   1.972   1.061   3.784 -0.2237 -3.4930 -3.1385
    1SOL    MW4 1420   2.057   1.077   3.772 -0.3119 -0.3676 -0.0408
    1SOL     OW 1421   1.394   2.975   0.488 -0.5027  0.8118 -0.3350
    1SOL    HW2 1422   1.435   3.062   0.490 -1.0443  1.0659 -0.3936
    1SOL    HW3 1423   1.465   2.917   0.458 -0.0494  1.1770  0.0108
    1SOL    MW4 1424   1.409   2.979   0.484 -0.5144  0.8936 -0.2971
    1SOL     OW 1425   0.208   1.247   2.592 -0.1480  0.4744  0.0475
    1SOL    HW2 1426   0.185   1.188   2.663 -2.2849  0.1344 -0.8893
    1SOL    HW3 1427   0.205   1.192   2.513  0.3776  1.2531 -0.5287
    1SOL    MW4 1428   0.205   1.232   2.591 -0.3606  0.5324 -0.1523
    1SOL     OW 1429   0.179   0.100   4.183 -0.2532  0.1978  0.4804
    1SOL    HW2 1430   0.264   0.141   4.198 -0.0942  0.3313 -0.7591
    1SOL    HW3 1431   0.194   0.041   4.109 -1.4399  0.8119 -0.2561
    1SOL    MW4 1432   0.192   0.097   4.175 -0.3888  0.2965  0.2198
    1SOL     OW 1433   3.874   3.104   4.541 -0.2986  0.2572 -0.5664
    1SOL    HW2 1434   3.956   3.115   4.590 -1.1879 -1.3722  1.4020
    1SOL    HW3 1435   3.806   3.123   4.605 -1.4914 -1.7222 -1.2050
    1SOL    MW4 1436   3.876   3.108   4.556 -0.5732 -0.2191 -0.3910
    1SOL     OW 1437   1.779   0.358   1.104  0.3601 -0.0183 -0.6633
    1SOL    HW2 1438   1.695   0.313   1.099  0.2221  0.3579 -1.8293
    1SOL    HW3 1439   1.793   0.393   1.016  1.6582  0.0599 -0.4322
    1SOL    MW4 1440   1.770   0.357   1.092  0.5131  0.0417 -0.7867
    1SOL     OW 1441   2.549   1.042   2.031 -0.0547  0.1805 -0.5123
    1SOL    HW2 1442   2.540   1.092   1.950  1.1240  1.3894  0.0967
    1SOL    HW3 1443   2.621   0.981   2.015  0.8803  1.1379 -0.0324
    1SOL    MW4 1444   2.557   1.041   2.018  0.2244  0.4663 -0.3684
    1SOL     OW 1445   2.709   3.894   1.482  0.1612  0.0102 -0.8153
    1SOL    HW2 1446   2.650   3.903   1.556  0.1830  0.0457 -0.8022
    1SOL    HW3 1447   2.685   3.966   1.423  1.6366  1.3475  0.1823
    1SOL    MW4 1448   2.698   3.905   1.484  0.3588  0.1910 -0.6821
    1SOL     OW 1449   4.438   1.923   2.119 -0.1368  0.6197 -0.2089
    1SOL    HW2 1450   4.491   1.871   2.180 -0.1047  0.0189 -0.7475
    1SOL    HW3 1451   4.492   1.931   2.041 -0.1573  1.4418 -0.1429
    1SOL    MW4 1452   4.452   1.917   2.117 -0.1359  0.6489 -0.2711
    1SOL     OW 1453   0.700   4.557   2.548 -0.0999 -0.0171  0.1126
    1SOL    HW2 1454   0.796   4.558   2.541  0.0299 -0.0833  1.8123
    1SOL    HW3 1455   0.679   4.470   2.580 -0.6887  0.2595  0.4783
    1SOL    MW4 1456   0.710   4.546   2.551 -0.1605  0.0105  0.3855
    1SOL     OW 1457   2.647   2.395   4.375 -0.6292  0.4925 -0.3253
    1SOL    HW2 1458   2.642   2.364   4.285 -0.4481  0.2914 -0.2661
    1SOL    HW3 1459   2.595   2.332   4.425 -1.1740  0.9075 -0.3688
    1SOL    MW4 1460   2.639   2.382   4.370 -0.6769  0.5209 -0.3228
    1SOL     OW 1461   4.400   0.272   0.708 -0.5703  0.3765 -0.4983
    1SOL    HW2 1462   4.331   0.331   0.738 -0.3280  0.1973  0.4305
    1SOL    HW3 1463   4.475   0.330   0.692 -0.6440  0.4491 -0.5832
    1SOL    MW4 1464   4.401   0.288   0.710 -0.5484  0.3624 -0.3870
    1SOL     OW 1465   1.458   4.020   2.500  0.1217 -0.0443  0.1413
    1SOL    HW2 1466   1.552   4.003   2.502 -0.2301 -2.2725 -1.3256
    1SOL    HW3 1467   1.438   4.032   2.407 -0.4721  4.1095  0.6782
    1SOL    MW4 1468   1.468   4.019   2.488 -0.0030  0.2093  0.0186
    1SOL     OW 1469   0.873   4.228   2.511  0.2972  0.4004  0.0186
    1SOL    HW2 1470   0.900   4.145   2.550  0.6560  0.5497  0.0970
    1SOL    HW3 1471   0.784   4.242   2.543 -0.5378 -0.9631 -1.6549
    1SOL    MW4 1472   0.865   4.219   2.520  0.2344  0.2408 -0.1919
    1SOL     OW 1473   2.199   3.837   3.028  0.0422 -0.6864  0.6669
    1SOL    HW2 1474   2.153   3.916   3.001 -0.4938 -1.1067  0.3529
    1SOL    HW3 1475   2.132   3.769   3.027  0.4916 -1.1357  0.9904
    1SOL    MW4 1476   2.184   3.839   3.025  0.0308 -0.8011  0.6678
    1SOL     OW 1477   0.890   2.772   4.006 -0.0826  0.4741  0.2486
    1SOL    HW2 1478   0.936   2.695   3.975  1.4880  1.2089  0.7053
    1SOL    HW3 1479   0.798   2.756   3.984  0.3634 -1.0734 -0.5295
    1SOL    MW4 1480   0.884   2.760   3.999  0.1835  0.3667  0.2062
    1SOL     OW 1481   3.389   0.933   4.180 -0.0844  0.3697 -0.2720
    1SOL    HW2 1482   3.305   0.967   4.148 -1.2918 -2.5391 -0.3602
    1SOL    HW3 1483   3.454   0.988   4.137 -1.8882  1.2236 -2.0417
    1SOL    MW4 1484   3.386   0.945   4.170 -0.4818  0.0986 -0.5169
    1SOL     OW 1485   0.994   1.856   1.421  0.3759 -0.2926 -0.4081
    1SOL    HW2 1486   1.024   1.932   1.470  1.3692 -0.7826 -0.2531
    1SOL    HW3 1487   1.068   1.831   1.366  0.2460 -1.4749 -0.0664
    1SOL    MW4 1488   1.007   1.863   1.420  0.4897 -0.5133 -0.3425
    1SOL     OW 1489   2.347   0.788   1.336 -0.5560  0.3726 -0.3367
    1SOL    HW2 1490   2.285   0.739   1.283 -0.0487 -0.8852  0.2006
    1SOL    HW3 1491   2.307   0.792   1.423 -0.2560  0.2291 -0.1873
    1SOL    MW4 1492   2.334   0.782   1.340 -0.4492  0.1877 -0.2460
    1SOL     OW 1493   2.986   2.688   0.463 -0.0191  0.3227  0.4533
    1SOL    HW2 1494   3.068   2.726   0.496 -1.1414  2.4863  0.8788
    1SOL    HW3 1495   2.935   2.764   0.433 -1.1893 -1.1447 -1.3527
    1SOL    MW4 1496   2.990   2.703   0.463 -0.3214  0.4146  0.2711
    1SOL     OW 1497   4.260   4.074   1.930  0.2152 -0.1876  0.0982
    1SOL    HW2 1498   4.331   4.099   1.990  0.4708  1.1452 -0.7280
    1SOL    HW3 1499   4.198   4.027   1.985  0.4565  0.9925  1.4183
    1SOL    MW4 1500   4.261   4.071   1.945  0.2804  0.1435  0.1634
    1SOL     OW 1501   2.965   1.764   1.060 -0.2603  0.0367  0.1283
    1SOL    HW2 1502   2.926   1.749   1.147  0.6941 -0.3123  0.5060
    1SOL    HW3 1503   3.033   1.830   1.076 -0.0717 -0.0421 -0.3514
    1SOL    MW4 1504   2.969   1.770   1.074 -0.1097 -0.0197  0.1149
    1SOL     OW 1505   3.258   0.515   4.216  0.3505 -0.0826 -0.2457
    1SOL    HW2 1506   3.336   0.568   4.231 -0.5597  1.7665 -1.9106
    1SOL    HW3 1507   3.291   0.436   4.171  1.2862  0.5737 -0.7235
    1SOL    MW4 1508   3.273   0.511   4.212  0.3538  0.2480 -0.5283
    1SOL     OW 1509   1.068   3.717   3.276  0.2582  0.1048 -0.0745
    1SOL    HW2 1510   1.072   3.651   3.207 -0.3113 -0.2073  0.1806
    1SOL    HW3 1511   1.067   3.801   3.230  1.5058 -0.0495 -0.3818
    1SOL    MW4 1512   1.068   3.719   3.261  0.3479  0.0434 -0.0815
    1SOL     OW 1513   0.889   3.320   0.698  0.4958 -0.2192  0.2947
    1SOL    HW2 1514   0.868   3.229   0.716  1.7480 -0.4376  0.6893
    1SOL    HW3 1515   0.902   3.359   0.784 -0.8399  0.5450  0.1704
    1SOL    MW4 1516   0.888   3.313   0.712  0.4848 -0.1471  0.3303
    1SOL     OW 1517   0.507   1.809   3.748 -0.0961 -0.0162  0.3005
    1SOL    HW2 1518   0.474   1.763   3.825  1.4435 -1.1731  0.2886
    1SOL    HW3 1519   0.435   1.867   3.722 -0.7978  0.0960  2.3578
    1SOL    MW4 1520   0.493   1.811   3.755  0.0145 -0.1541  0.5703
    1SOL     OW 1521   3.134   3.131   2.612 -0.3655 -0.3680 -0.0962
    1SOL    HW2 1522   3.087   3.098   2.688 -1.3394  0.3572 -0.3785
    1SOL    HW3 1523   3.139   3.225   2.626 -0.9894 -0.1726 -1.1791
    1SOL    MW4 1524   3.128   3.139   2.624 -0.5763 -0.2465 -0.2761
    1SOL     OW 1525   3.872   1.133   1.035  0.0802  0.3095 -0.2797
    1SOL    HW2 1526   3.834   1.178   1.111  0.0608 -1.6478  0.9083
    1SOL    HW3 1527   3.944   1.081   1.072 -0.7581 -1.6952 -1.3871
    1SOL    MW4 1528   3.876   1.132   1.050 -0.0329 -0.2133 -0.2693
    1SOL     OW 1529   3.274   2.190   1.855 -0.0129 -0.2006 -0.1084
    1SOL    HW2 1530   3.350   2.213   1.908 -0.0999  0.1370 -0.1325
    1SOL    HW3 1531   3.292   2.227   1.769 -0.3040  0.0749 -0.0531
    1SOL    MW4 1532   3.286   2.198   1.851 -0.0629 -0.1194 -0.1042
    1SOL     OW 1533   3.777   0.141   2.298  0.0377 -0.4212  0.6890
    1SOL    HW2 1534   3.852   0.156   2.356  2.2878 -1.0666 -1.9540
    1SOL    HW3 1535   3.793   0.056   2.259 -1.0458  0.2924 -1.4053
    1SOL    MW4 1536   3.789   0.132   2.300  0.1915 -0.4122  0.0639
    1SOL     OW 1537   2.612   1.261   1.044 -0.0766 -0.5492  0.3221
    1SOL    HW2 1538   2.681   1.208   1.082 -0.5558 -0.1250  1.8121
    1SOL    HW3 1539   2.604   1.337   1.102 -3.0362 -1.4888  1.2706
    1SOL    MW4 1540   2.620   1.264   1.057 -0.5302 -0.6170  0.6438
    1SOL     OW 1541   3.382   3.650   0.840  0.0416 -0.3490  0.1607
    1SOL    HW2 1542   3.426   3.664   0.924  3.2450  1.5390 -1.7415
    1SOL    HW3 1543   3.308   3.711   0.841  0.6086  0.3236  1.1987
    1SOL    MW4 1544   3.378   3.660   0.851  0.5391 -0.0112  0.0468
    1SOL     OW 1545   0.573   4.597   3.317 -0.5220  0.2142 -0.3685
    1SOL    HW2 1546   0.508   4.625   3.252 -0.2385  1.4482 -0.1399
    1SOL    HW3 1547   0.554   4.505   3.331 -1.2258  0.1724 -1.4705
    1SOL    MW4 1548   0.562   4.589   3.310 -0.5775  0.3710 -0.4838
    1SOL     OW 1549   1.535   0.998   1.203 -0.0403  0.7586  0.1410
    1SOL    HW2 1550   1.503   0.910   1.180  1.3136  0.4297 -0.5117
    1SOL    HW3 1551   1.457   1.044   1.234 -0.5489 -1.0499  1.6544
    1SOL    MW4 1552   1.520   0.992   1.204  0.0712  0.4766  0.2545
    1SOL     OW 1553   2.617   4.416   3.532  0.8726  0.0695 -0.0576
    1SOL    HW2 1554   2.701   4.423   3.487  0.3734  1.0417 -0.8613
    1SOL    HW3 1555   2.552   4.428   3.463  0.0635 -0.7052  0.5537
    1SOL    MW4 1556   2.619   4.418   3.517  0.7002  0.0954 -0.0830
    1SOL     OW 1557   2.343   0.476   3.742 -0.0755 -0.2581 -0.2025
    1SOL    HW2 1558   2.422   0.489   3.690  0.0250 -0.7605 -0.1828
    1SOL    HW3 1559   2.287   0.551   3.721  0.9165  0.7662  0.7345
    1SOL    MW4 1560   2.346   0.488   3.733  0.0689 -0.1892 -0.0763
    1SOL     OW 1561   0.407   4.462   0.970  0.0024 -0.1283  0.1298
    1SOL    HW2 1562   0.413   4.418   0.885 -0.8943  1.6026 -0.8443
    1SOL    HW3 1563   0.380   4.393   1.031 -1.0696 -1.0142 -1.3162
    1SOL    MW4 1564   0.404   4.447   0.967 -0.2573 -0.0172 -0.1895
    1SOL     OW 1565   0.500   3.716   0.698  0.2712  0.0827 -0.3858
    1SOL    HW2 1566   0.538   3.629   0.688  0.0613  0.1606 -1.9886
    1SOL    HW3 1567   0.571   3.769   0.735  0.5778 -0.6328  0.0443
    1SOL    MW4 1568   0.515   3.712   0.701  0.2840 -0.0012 -0.5406
    1SOL     OW 1569   1.544   0.558   3.017 -0.4088 -0.0708 -0.3499
    1SOL    HW2 1570   1.526   0.613   2.940  0.1842  0.5427 -0.0582
    1SOL    HW3 1571   1.458   0.523   3.042 -0.9624  1.5248  0.0493
    1SOL    MW4 1572   1.530   0.561   3.010 -0.4036  0.2206 -0.2587
    1SOL     OW 1573   2.793   0.256   2.096  0.4894  0.9025 -0.9423
    1SOL    HW2 1574   2.819   0.249   2.188 -0.3790  1.0330 -0.6822
    1SOL    HW3 1575   2.827   0.176   2.056  1.0652  0.9516 -0.5592
    1SOL    MW4 1576   2.801   0.244   2.103  0.4508  0.9262 -0.8574
    1SOL     OW 1577   0.545   0.382   2.186  0.4729 -0.0051 -0.2286
    1SOL    HW2 1578   0.508   0.316   2.128 -0.5339  0.4527 -0.1267
    1SOL    HW3 1579   0.616   0.421   2.136 -0.5779  0.5935 -1.2759
    1SOL    MW4 1580   0.550   0.378   2.172  0.2015  0.1343 -0.3533
    1SOL     OW 1581   1.768   4.522   2.600  0.1439 -0.3341  0.3021
    1SOL    HW2 1582   1.731   4.553   2.517  0.8314 -0.7199 -0.1542
    1SOL    HW3 1583   1.738   4.586   2.665  1.1620  1.0584 -0.5530
    1SOL    MW4 1584   1.759   4.535   2.598  0.3690 -0.2012  0.1290
    1SOL     OW 1585   1.281   4.503   3.788 -0.4325  0.0172  0.6651
    1SOL    HW2 1586   1.334   4.468   3.860 -2.3137 -2.0175  1.0970
    1SOL    HW3 1587   1.305   4.596   3.784  1.2301 -0.2933  2.5388
    1SOL    MW4 1588   1.291   4.511   3.797 -0.4613 -0.2923  0.9692
    1SOL     OW 1589   3.720   2.462   1.864 -0.0282  0.1282  0.3921
    1SOL    HW2 1590   3.680   2.439   1.780 -0.0688  1.7925 -0.0507
    1SOL    HW3 1591   3.721   2.557   1.865  0.8496  0.1149  1.8730
    1SOL    MW4 1592   3.715   2.471   1.853  0.0825  0.3459  0.5292
    1SOL     OW 1593   3.325   1.198   3.152  0.5060  0.2603  0.0504
    1SOL    HW2 1594   3.322   1.104   3.165 -0.6953  0.2066 -0.5012
    1SOL    HW3 1595   3.310   1.235   3.239  0.1076 -0.0681  0.1249
    1SOL    MW4 1596   3.322   1.191   3.165  0.2949  0.2097 -0.0124
    1SOL     OW 1597   1.883   0.966   1.853 -0.2972 -0.0848 -0.6828
    1SOL    HW2 1598   1.975   0.945   1.866 -0.8010 -1.0341  1.6054
    1SOL    HW3 1599   1.836   0.896   1.899 -2.1387  1.0362 -0.8149
    1SOL    MW4 1600   1.889   0.954   1.861 -0.6067 -0.0622 -0.3983
    1SOL     OW 1601   1.513   1.378   1.608 -0.5234 -0.1248  0.3604
    1SOL    HW2 1602   1.489   1.306   1.667 -0.0225  0.4037  1.2119
    1SOL    HW3 1603   1.554   1.443   1.664  1.2911 -0.2243 -0.7899
    1SOL    MW4 1604   1.515   1.377   1.623 -0.2179 -0.0683  0.3208
    1SOL     OW 1605   1.337   0.322   1.204 -0.4900  0.4697  0.2098
    1SOL    HW2 1606   1.411   0.275   1.164 -0.5285  1.5384 -1.1601
    1SOL    HW3 1607   1.311   0.267   1.278  0.1996 -1.0746 -0.6725
    1SOL    MW4 1608   1.343   0.309   1.209 -0.4041  0.4070 -0.0873
    1SOL     OW 1609   0.191   3.706   1.562 -0.0586  0.3444  0.5135
    1SOL    HW2 1610   0.170   3.709   1.656  1.1619  2.7938  0.7437
    1SOL    HW3 1611   0.254   3.777   1.549 -0.6481  0.4234 -2.2715
    1SOL    MW4 1612   0.196   3.716   1.573  0.0246  0.6781  0.1764
    1SOL     OW 1613   0.466   2.157   2.361  0.4099 -0.3625  0.0135
    1SOL    HW2 1614   0.533   2.118   2.305  0.5387 -1.0163  0.6096
    1SOL    HW3 1615   0.509   2.168   2.446  0.2600  0.7419 -0.0503
    1SOL    MW4 1616   0.480   2.153   2.365  0.4071 -0.3033  0.0839
    1SOL     OW 1617   3.230   0.686   1.628  0.6956 -0.2738  0.1338
    1SOL    HW2 1618   3.263   0.775   1.640 -0.3032 -0.1729  2.6494
    1SOL    HW3 1619   3.301   0.629   1.656  0.9132 -0.2291 -0.3321
    1SOL    MW4 1620   3.243   0.690   1.634  0.5927 -0.2546  0.4044
    1SOL     OW 1621   0.467   2.952   3.328 -0.5920  0.2641 -0.0982
    1SOL    HW2 1622   0.479   3.045   3.308  1.6372 -0.4385 -2.3020
    1SOL    HW3 1623   0.439   2.951   3.420 -2.5425  3.1779 -0.5828
    1SOL    MW4 1624   0.465   2.964   3.338 -0.5553  0.5560 -0.4530
    1SOL     OW 1625   3.964   3.806   1.408  0.0529  0.0217  0.3418
    1SOL    HW2 1626   3.954   3.811   1.503 -0.0788  0.1694  0.3200
    1SOL    HW3 1627   3.901   3.740   1.381 -1.8438  1.8852  0.0539
    1SOL    MW4 1628   3.955   3.798   1.417 -0.2148  0.2871  0.3011
    1SOL     OW 1629   0.363   1.650   2.661  0.6708  0.4456  0.6724
    1SOL    HW2 1630   0.314   1.681   2.585  2.4059  1.3815 -0.1007
    1SOL    HW3 1631   0.396   1.564   2.635  1.7295  1.0080  0.1558
    1SOL    MW4 1632   0.361   1.643   2.647  1.0394  0.6433  0.5023
    1SOL     OW 1633   0.877   2.222   1.991  0.1765  0.3698 -0.6882
    1SOL    HW2 1634   0.922   2.248   2.072  0.7347  0.4923 -1.0341
    1SOL    HW3 1635   0.894   2.294   1.931  1.5208 -0.6718 -1.5785
    1SOL    MW4 1636   0.885   2.235   1.994  0.4275  0.2489 -0.8513
    1SOL     OW 1637   1.322   2.617   1.084  0.3863 -0.5463  0.2542
    1SOL    HW2 1638   1.401   2.565   1.097  0.4335 -0.1880  1.4699
    1SOL    HW3 1639   1.321   2.677   1.158  0.4345  1.3359 -1.2297
    1SOL    MW4 1640   1.332   2.618   1.096  0.3989 -0.2508  0.2186
    1SOL     OW 1641   3.770   4.175   0.959  0.1807 -0.3575  0.0303
    1SOL    HW2 1642   3.828   4.230   1.012  0.2929  0.9119 -1.3622
    1SOL    HW3 1643   3.716   4.128   1.023  0.3548  1.0876  1.2679
    1SOL    MW4 1644   3.771   4.176   0.974  0.2184  0.0010  0.0099
    1SOL     OW 1645   2.279   3.630   1.397 -0.2176 -0.4807  0.6701
    1SOL    HW2 1646   2.276   3.674   1.482 -0.7625  2.8010 -0.9544
    1SOL    HW3 1647   2.207   3.670   1.348  1.3567 -0.8961 -2.0137
    1SOL    MW4 1648   2.269   3.641   1.402 -0.0818 -0.1025  0.1017
    1SOL     OW 1649   0.560   3.366   4.555 -0.1220 -0.3055 -0.5002
    1SOL    HW2 1650   0.625   3.435   4.539  0.8677 -1.6004 -2.3559
    1SOL    HW3 1651   0.499   3.404   4.618 -0.0580  2.5529 -2.0590
    1SOL    MW4 1652   0.561   3.380   4.561  0.0171 -0.0992 -0.9503
    1SOL     OW 1653   2.209   0.799   4.234 -0.1881  0.2556  0.8368
    1SOL    HW2 1654   2.232   0.753   4.154  1.9730  0.5718  1.2480
    1SOL    HW3 1655   2.132   0.851   4.210  0.7942  0.8201 -1.2181
    1SOL    MW4 1656   2.202   0.800   4.220  0.2267  0.3718  0.6204
    1SOL     OW 1657   0.527   0.138   2.587  0.0885 -0.3958 -0.3467
    1SOL    HW2 1658   0.511   0.163   2.496  0.1892 -0.7710 -0.4652
    1SOL    HW3 1659   0.602   0.079   2.583  0.0898 -0.4166 -0.0187
    1SOL    MW4 1660   0.535   0.134   2.574  0.1020 -0.4480 -0.3190
    1SOL     OW 1661   1.650   1.278   2.509 -0.5810  0.6043 -0.6497
    1SOL    HW2 1662   1.677   1.189   2.484 -1.6630  0.6846 -2.1289
    1SOL    HW3 1663   1.687   1.334   2.441  0.5203  1.3705  0.5494
    1SOL    MW4 1664   1.659   1.273   2.497 -0.5785  0.7161 -0.6869
    1SOL     OW 1665   4.350   1.065   4.207 -0.2231  0.4033 -0.3642
    1SOL    HW2 1666   4.352   0.972   4.185  1.8283  1.0440 -3.2357
    1SOL    HW3 1667   4.274   1.099   4.159 -1.1279  0.1902  0.8934
    1SOL    MW4 1668   4.340   1.057   4.197 -0.0725  0.4597 -0.5774
    1SOL     OW 1669   2.189   3.212   2.797  0.1058  0.0320  0.1169
    1SOL    HW2 1670   2.248   3.266   2.745  1.7571 -0.9267  0.9545
    1SOL    HW3 1671   2.171   3.264   2.875  0.4539  0.0238  0.2055
    1SOL    MW4 1672   2.194   3.226   2.801  0.3693 -0.0954  0.2391
    1SOL     OW 1673   2.847   3.052   4.191 -0.6263  0.2825 -0.0046
    1SOL    HW2 1674   2.805   2.968   4.212  0.2997 -0.2125 -0.0918
    1SOL    HW3 1675   2.933   3.027   4.158 -0.2327  1.2938  0.2612
    1SOL    MW4 1676   2.853   3.037   4.189 -0.4518  0.3502  0.0186
    1SOL     OW 1677   1.780   2.912   4.351  0.1192 -0.1645  0.1527
    1SOL    HW2 1678   1.811   2.946   4.435  0.0165  0.3534 -0.0128
    1SOL    HW3 1679   1.834   2.835   4.335  0.2668 -0.1600  0.6059
    1SOL    MW4 1680   1.791   2.907   4.360  0.1251 -0.0954  0.1907
    1SOL     OW 1681   2.489   0.758   4.575 -0.1827  0.3376  0.1104
    1SOL    HW2 1682   2.395   0.741   4.568 -0.0729  0.4020 -1.8060
    1SOL    HW3 1683   2.528   0.702   4.508  1.1864  0.0517  1.1260
    1SOL    MW4 1684   2.482   0.748   4.565  0.0126  0.3083 -0.0081
    1SOL     OW 1685   1.644   2.257   2.578  0.1234  0.1717 -0.5506
    1SOL    HW2 1686   1.636   2.178   2.524  1.0031 -0.2549 -0.0831
    1SOL    HW3 1687   1.584   2.241   2.651 -0.0126  0.1163 -0.6744
    1SOL    MW4 1688   1.635   2.244   2.581  0.2214  0.1080 -0.5054
    1SOL     OW 1689   1.135   1.383   2.283 -0.6407  0.1225 -0.3230
    1SOL    HW2 1690   1.173   1.296   2.295  1.6947  1.1862  0.4810
    1SOL    HW3 1691   1.146   1.401   2.189  0.8057  0.3517 -0.1338
    1SOL    MW4 1692   1.142   1.374   2.272 -0.1416  0.2929 -0.1922
    1SOL     OW 1693   0.545   1.495   1.506 -0.0917  0.6325 -0.0373
    1SOL    HW2 1694   0.519   1.548   1.581 -1.9219 -0.1784 -0.0808
    1SOL    HW3 1695   0.498   1.533   1.432  0.4751  0.4397 -0.5048
    1SOL    MW4 1696   0.536   1.507   1.506 -0.2583  0.5002 -0.1048
    1SOL     OW 1697   1.629   2.809   0.456 -0.1248  0.1153 -0.3773
    1SOL    HW2 1698   1.707   2.838   0.503 -0.4292  0.9727 -0.3764
    1SOL    HW3 1699   1.609   2.723   0.491  0.2531  0.3141  0.3255
    1SOL    MW4 1700   1.637   2.802   0.467 -0.1150  0.2546 -0.2845
    1SOL     OW 1701   1.877   4.643   2.190 -0.3435 -0.5179  0.1819
    1SOL    HW2 1702   1.812   4.640   2.261  0.0948 -0.6051  0.5854
    1SOL    HW3 1703   1.937   4.714   2.215 -1.2357  0.6911 -1.0328
    1SOL    MW4 1704   1.877   4.652   2.203 -0.4033 -0.3700  0.0746
    1SOL     OW 1705   0.169   3.604   2.191 -0.5731 -0.0200 -0.2632
    1SOL    HW2 1706   0.089   3.552   2.189 -0.1590 -0.8379  2.7155
    1SOL    HW3 1707   0.219   3.569   2.264  1.8333  1.5129 -1.1143
    1SOL    MW4 1708   0.165   3.593   2.200 -0.2010  0.0741  0.0176
    1SOL     OW 1709   3.344   0.128   3.461 -0.1204 -0.3419  0.5162
    1SOL    HW2 1710   3.315   0.097   3.546  0.6883 -1.0816  0.5283
    1SOL    HW3 1711   3.396   0.056   3.425  1.6692  0.9062  0.4932
    1SOL    MW4 1712   3.347   0.115   3.467  0.2224 -0.2748  0.5147
    1SOL     OW 1713   1.640   2.619   2.945 -0.0094 -0.5354 -0.7607
    1SOL    HW2 1714   1.722   2.640   2.989 -0.9907 -1.1435  1.4368
    1SOL    HW3 1715   1.639   2.524   2.939 -0.3785 -0.5095 -1.1503
    1SOL    MW4 1716   1.650   2.609   2.950 -0.1875 -0.6120 -0.5224
    1SOL     OW 1717   3.133   2.409   1.930 -0.2171  0.2787 -0.0176
    1SOL    HW2 1718   3.143   2.398   2.025  3.1284  3.1212  0.0546
    1SOL    HW3 1719   3.183   2.337   1.892 -0.3844 -0.0411  0.3649
    1SOL    MW4 1720   3.141   2.398   1.938  0.2019  0.6115  0.0424
    1SOL     OW 1721   2.814   4.327   0.963  0.3577 -0.4335 -0.1808
    1SOL    HW2 1722   2.837   4.359   0.876  0.1221  1.5610  0.4729
    1SOL    HW3 1723   2.718   4.324   0.963  0.3361  0.1789  0.2156
    1SOL    MW4 1724   2.804   4.331   0.952  0.3235 -0.0901 -0.0423
    1SOL     OW 1725   0.279   3.040   4.088 -0.3589 -0.2770 -0.2019
    1SOL    HW2 1726   0.332   2.960   4.092  0.9256  0.5796  0.2915
    1SOL    HW3 1727   0.226   3.038   4.167  0.6588  0.0190  0.4942
    1SOL    MW4 1728   0.279   3.029   4.099 -0.0552 -0.1252 -0.0448
    1SOL     OW 1729   3.755   1.016   0.809  0.8609 -0.1290 -0.0869
    1SOL    HW2 1730   3.780   0.924   0.817 -2.3140 -1.0087  0.4860
    1SOL    HW3 1731   3.792   1.058   0.887 -0.4688 -1.6284  1.3927
    1SOL    MW4 1732   3.763   1.010   0.820  0.2666 -0.4429  0.1839
    1SOL     OW 1733   2.431   0.386   2.904  0.5778  0.8083 -0.1764
    1SOL    HW2 1734   2.375   0.352   2.974 -0.8943 -0.6288 -1.9768
    1SOL    HW3 1735   2.520   0.366   2.933 -0.0131 -0.0229  1.1388
    1SOL    MW4 1736   2.436   0.379   2.917  0.3057  0.5090 -0.2406
    1SOL     OW 1737   4.229   2.315   1.914 -0.2553  0.2029  0.0065
    1SOL    HW2 1738   4.144   2.349   1.942 -0.0833  0.9007 -0.3044
    1SOL    HW3 1739   4.215   2.289   1.823 -0.0779  0.5164 -0.1095
    1SOL    MW4 1740   4.216   2.316   1.906 -0.2089  0.3364 -0.0498
    1SOL     OW 1741   1.560   0.045   3.963 -0.4594  0.1876  0.3170
    1SOL    HW2 1742   1.484   0.087   3.925  0.6844  2.3868  0.3563
    1SOL    HW3 1743   1.529  -0.042   3.990 -2.0336 -0.2890 -2.8088
    1SOL    MW4 1744   1.546   0.039   3.962 -0.5162  0.4149 -0.0901
    1SOL     OW 1745   2.021   4.470   2.531  0.2938  0.4431 -0.1940
    1SOL    HW2 1746   2.060   4.439   2.613 -1.1564  0.9125  0.6963
    1SOL    HW3 1747   1.929   4.487   2.553 -0.0416  0.8522 -1.8475
    1SOL    MW4 1748   2.014   4.468   2.545  0.0582  0.5589 -0.2944
    1SOL     OW 1749   2.666   1.280   3.279  0.2197  0.4053  0.0589
    1SOL    HW2 1750   2.633   1.247   3.196  0.1968  0.1336  0.1732
    1SOL    HW3 1751   2.624   1.224   3.345  1.2356 -0.2322  0.1858
    1SOL    MW4 1752   2.656   1.268   3.277  0.3505  0.2854  0.0908
    1SOL     OW 1753   1.849   1.115   4.548 -0.0750  0.5660 -0.1702
    1SOL    HW2 1754   1.909   1.126   4.622  0.7243 -1.8897 -0.4046
    1SOL    HW3 1755   1.904   1.130   4.470  0.3741 -2.0204 -0.3960
    1SOL    MW4 1756   1.864   1.118   4.547  0.0898 -0.0993 -0.2308
    1SOL     OW 1757   1.933   0.525   4.149 -0.2717  0.2926 -0.5997
    1SOL    HW2 1758   1.932   0.499   4.241 -1.0066 -2.4445 -1.3340
    1SOL    HW3 1759   1.842   0.548   4.130 -0.2001  0.4491 -0.7541
    1SOL    MW4 1760   1.921   0.525   4.159 -0.3592 -0.0479 -0.7167
    1SOL     OW 1761   2.643   1.478   2.929 -0.3317 -0.5050  0.6393
    1SOL    HW2 1762   2.737   1.467   2.936 -0.2709  0.9901  2.4804
    1SOL    HW3 1763   2.606   1.392   2.950  0.6105 -1.3156 -0.8903
    1SOL    MW4 1764   2.650   1.465   2.932 -0.1993 -0.4147  0.6804
    1SOL     OW 1765   3.357   4.102   0.853 -0.0219 -0.1494  0.4316
    1SOL    HW2 1766   3.399   4.066   0.931  0.0932 -0.0082  0.4338
    1SOL    HW3 1767   3.275   4.140   0.886  1.0091  1.7799  0.8077
    1SOL    MW4 1768   3.351   4.102   0.868  0.1292  0.1240  0.4815
    1SOL     OW 1769   3.507   3.090   4.463 -0.1811 -0.2318 -0.2058
    1SOL    HW2 1770   3.427   3.039   4.461 -0.0792 -0.4130  0.4133
    1SOL    HW3 1771   3.556   3.056   4.538 -0.3534  1.1324  0.5460
    1SOL    MW4 1772   3.503   3.079   4.472 -0.1905 -0.0758 -0.0253
    1SOL     OW 1773   0.394   2.873   2.794  0.0835  0.2536  0.5800
    1SOL    HW2 1774   0.425   2.955   2.755 -2.5311  0.8540 -0.3152
    1SOL    HW3 1775   0.329   2.900   2.858 -0.0736 -1.0934  1.0004
    1SOL    MW4 1776   0.390   2.888   2.798 -0.2822  0.1552  0.5171
    1SOL     OW 1777   1.465   3.199   1.414 -0.3643  0.3958  0.0194
    1SOL    HW2 1778   1.553   3.204   1.451 -1.1964  1.2432  1.9505
    1SOL    HW3 1779   1.429   3.287   1.425 -1.2961  0.1814 -1.1866
    1SOL    MW4 1780   1.472   3.211   1.420 -0.5970  0.4792  0.1152
    1SOL     OW 1781   1.772   1.668   3.207 -0.1123 -0.0064 -0.0307
    1SOL    HW2 1782   1.738   1.754   3.181  0.3420  0.5657  1.2174
    1SOL    HW3 1783   1.699   1.626   3.251  0.2348  0.4986  1.0369
    1SOL    MW4 1784   1.758   1.674   3.209 -0.0066  0.1357  0.2749
    1SOL     OW 1785   3.574   3.632   1.976  0.4259  0.3899 -0.6159
    1SOL    HW2 1786   3.525   3.596   1.902  0.1188  1.0016 -0.7143
    1SOL    HW3 1787   3.576   3.726   1.960  0.0482  0.5645  0.3358
    1SOL    MW4 1788   3.568   3.640   1.964  0.3357  0.4940 -0.5033
    1SOL     OW 1789   3.892   3.451   1.828  0.0608  0.4559  0.7701
    1SOL    HW2 1790   3.840   3.371   1.836  0.0338  0.3342 -0.4392
    1SOL    HW3 1791   3.980   3.421   1.805  0.4209  0.7058  1.8135
    1SOL    MW4 1792   3.897   3.437   1.826  0.1047  0.4728  0.7483
    1SOL     OW 1793   4.025   3.065   3.136 -0.2729 -0.7101  0.0532
    1SOL    HW2 1794   4.006   3.025   3.220 -1.1271 -1.2422 -0.3873
    1SOL    HW3 1795   3.942   3.063   3.089  0.1377 -0.1950 -0.7143
    1SOL    MW4 1796   4.012   3.060   3.141 -0.3314 -0.7122 -0.1063
    1SOL     OW 1797   4.299   2.802   3.234  0.0933  0.0394  0.0807
    1SOL    HW2 1798   4.275   2.831   3.146  0.6993  0.5869  0.0935
    1SOL    HW3 1799   4.284   2.708   3.233 -0.9966  0.2115 -0.2490
    1SOL    MW4 1800   4.294   2.794   3.223  0.0291  0.1345  0.0391
    1SOL     OW 1801   0.343   1.935   3.257 -0.6216 -0.2766 -0.5241
    1SOL    HW2 1802   0.430   1.927   3.217 -0.6870 -0.6322 -0.5944
    1SOL    HW3 1803   0.352   1.893   3.342 -0.6305  0.0006 -0.3839
    1SOL    MW4 1804   0.356   1.929   3.263 -0.6314 -0.2871 -0.5147
    1SOL     OW 1805   1.269   0.325   4.334 -0.2318 -0.0031  0.4071
    1SOL    HW2 1806   1.269   0.415   4.302 -3.9321  0.4711  1.5256
    1SOL    HW3 1807   1.362   0.301   4.338  0.8305  3.7440  0.1220
    1SOL    MW4 1808   1.281   0.334   4.330 -0.5798  0.5538  0.5169
    1SOL     OW 1809   4.077   3.883   1.034 -0.0680  0.0845  0.5483
    1SOL    HW2 1810   4.060   3.961   0.981 -1.2767 -1.6498 -1.7354
    1SOL    HW3 1811   4.101   3.916   1.120 -0.3291  2.9677 -0.4577
    1SOL    MW4 1812   4.078   3.897   1.039 -0.2613  0.2360  0.1144
    1SOL     OW 1813   0.756   3.009   2.556  0.2223  0.1039 -0.9046
    1SOL    HW2 1814   0.803   2.950   2.498  1.9645  2.1756 -1.6886
    1SOL    HW3 1815   0.823   3.071   2.586 -1.1903  0.6591  1.2391
    1SOL    MW4 1816   0.771   3.010   2.553  0.2658  0.4506 -0.7250
    1SOL     OW 1817   1.323   4.623   0.866 -0.0004 -0.0526 -0.7287
    1SOL    HW2 1818   1.246   4.610   0.921 -0.7480 -1.2336 -2.0111
    1SOL    HW3 1819   1.332   4.718   0.858 -1.8069  0.1075 -1.2068
    1SOL    MW4 1820   1.314   4.634   0.872 -0.3374 -0.1869 -0.9609
    1SOL     OW 1821   3.456   0.529   1.719  0.1479  0.3489 -0.4731
    1SOL    HW2 1822   3.493   0.513   1.632  0.0457  1.1260 -0.6629
    1SOL    HW3 1823   3.522   0.583   1.763  1.3412 -2.0656  0.8079
    1SOL    MW4 1824   3.470   0.534   1.713  0.2918  0.1329 -0.3291
    1SOL     OW 1825   0.975   0.605   3.000 -0.2276  0.6044 -0.1658
    1SOL    HW2 1826   0.887   0.625   3.031 -0.3933 -0.1222 -0.1595
    1SOL    HW3 1827   0.982   0.650   2.916 -1.1719 -0.5919 -0.9123
    1SOL    MW4 1828   0.964   0.613   2.993 -0.3740  0.3507 -0.2639
    1SOL     OW 1829   2.821   4.204   4.418  0.1530  0.6052 -0.0464
    1SOL    HW2 1830   2.810   4.222   4.324 -0.2910 -1.4187 -0.4093
    1SOL    HW3 1831   2.732   4.186   4.449  0.7025 -2.4950 -0.0929
    1SOL    MW4 1832   2.807   4.204   4.409  0.1667 -0.0706 -0.1006
    1SOL     OW 1833   4.393   0.889   1.770 -0.0323 -0.6807  0.1819
    1SOL    HW2 1834   4.328   0.944   1.814  0.7509 -1.0191  1.8233
    1SOL    HW3 1835   4.453   0.864   1.840  1.3387 -1.1286 -1.1399
    1SOL    MW4 1836   4.392   0.893   1.785  0.2513 -0.7845  0.2239
    1SOL     OW 1837   4.149   1.638   4.624 -0.2695 -0.2705 -0.0790
    1SOL    HW2 1838   4.073   1.639   4.683  1.0250  1.5608  1.6161
    1SOL    HW3 1839   4.136   1.715   4.568 -0.5612 -0.9851 -1.0178
    1SOL    MW4 1840   4.137   1.649   4.624 -0.1373 -0.1230  0.0210
    1SOL     OW 1841   2.563   3.722   2.762 -0.0652 -0.4310  0.7473
    1SOL    HW2 1842   2.488   3.695   2.814 -0.2321 -0.3065  0.5752
    1SOL    HW3 1843   2.622   3.647   2.763 -0.1944 -0.5309  0.8800
    1SOL    MW4 1844   2.561   3.709   2.769 -0.1042 -0.4280  0.7422
    1SOL     OW 1845   3.956   2.094   3.659 -0.2206  0.2626  0.6535
    1SOL    HW2 1846   3.926   2.154   3.590  0.2039  0.5099  0.6826
    1SOL    HW3 1847   3.920   2.009   3.634 -0.0805  0.3532  0.1331
    1SOL    MW4 1848   3.947   2.091   3.647 -0.1459  0.3073  0.5884
    1SOL     OW 1849   1.591   0.322   0.683  0.1414 -0.3911 -0.3772
    1SOL    HW2 1850   1.672   0.362   0.714 -0.6822 -0.0429  1.3838
    1SOL    HW3 1851   1.552   0.387   0.625 -0.2235  0.5437  0.9174
    1SOL    MW4 1852   1.597   0.336   0.679 -0.0154 -0.2218  0.0260
    1SOL     OW 1853   1.536   4.584   1.045  0.2083 -0.1186 -0.0778
    1SOL    HW2 1854   1.458   4.584   0.989 -0.2245 -0.6281  0.5156
    1SOL    HW3 1855   1.512   4.527   1.118  1.1409 -0.2612  0.1114
    1SOL    MW4 1856   1.522   4.577   1.047  0.2743 -0.2046  0.0255
    1SOL     OW 1857   0.596   0.973   2.139 -0.1612 -0.4642  0.1064
    1SOL    HW2 1858   0.604   1.025   2.220  0.5390  2.2963 -1.6487
    1SOL    HW3 1859   0.686   0.959   2.111 -0.4063 -1.2279 -0.2960
    1SOL    MW4 1860   0.609   0.978   2.146 -0.1011 -0.2008 -0.1781
    1SOL     OW 1861   2.706   1.769   1.658 -0.5148 -0.1184  0.1774
    1SOL    HW2 1862   2.717   1.732   1.746  0.2643  0.5080  0.3505
    1SOL    HW3 1863   2.793   1.800   1.634 -0.7984  0.0179 -0.6814
    1SOL    MW4 1864   2.719   1.768   1.667 -0.4494 -0.0178  0.0868
    1SOL     OW 1865   0.000   3.295   3.676 -0.0303  0.0238 -0.0164
    1SOL    HW2 1866   0.060   3.278   3.603  0.5256  0.3645  0.3552
    1SOL    HW3 1867   0.016   3.224   3.737 -2.5774 -1.9099 -1.5097
    1SOL    MW4 1868   0.010   3.283   3.674 -0.2930 -0.1862 -0.1640
    1SOL     OW 1869   2.688   2.499   3.936  0.1383 -0.2065 -0.8952
    1SOL    HW2 1870   2.755   2.526   3.872  1.3827 -0.3323  0.3122
    1SOL    HW3 1871   2.726   2.423   3.979 -0.9321 -0.4646 -0.4011
    1SOL    MW4 1872   2.702   2.493   3.934  0.1612 -0.2573 -0.6704
    1SOL     OW 1873   0.036   2.249   1.761 -0.7431  0.1594 -0.4364
    1SOL    HW2 1874  -0.028   2.233   1.691 -0.1015  1.0011 -1.2298
    1SOL    HW3 1875  -0.011   2.307   1.822 -0.8336  0.5658 -0.8846
    1SOL    MW4 1876   0.021   2.255   1.760 -0.6705  0.3240 -0.6002
    1SOL     OW 1877   2.377   4.627   2.480  0.4391  0.4143  0.6080
    1SOL    HW2 1878   2.330   4.685   2.541  1.0533  0.1429  1.3416
    1SOL    HW3 1879   2.441   4.684   2.438  1.8038  0.0239  2.1518
    1SOL    MW4 1880   2.379   4.642   2.482  0.7002  0.3266  0.9086
    1SOL     OW 1881   1.125   2.537   2.129  0.1079 -0.6466  0.5004
    1SOL    HW2 1882   1.064   2.505   2.196 -0.7650 -0.7037 -0.3109
    1SOL    HW3 1883   1.085   2.511   2.046  1.3582 -0.8780 -0.0390
    1SOL    MW4 1884   1.111   2.529   2.127  0.1577 -0.6850  0.3223
    1SOL     OW 1885   3.382   1.630   1.056 -0.3272 -0.1659 -0.1688
    1SOL    HW2 1886   3.469   1.611   1.020 -0.3424  2.0635 -1.4548
    1SOL    HW3 1887   3.400   1.684   1.134 -0.5264 -0.6847  0.2418
    1SOL    MW4 1888   3.396   1.635   1.062 -0.3555  0.0597 -0.2844
    1SOL     OW 1889   2.566   3.548   1.693  0.0682 -0.2484 -0.2789
    1SOL    HW2 1890   2.508   3.624   1.701  0.4829 -0.0565  0.9824
    1SOL    HW3 1891   2.644   3.583   1.649  0.5135  0.2093  0.8509
    1SOL    MW4 1892   2.568   3.563   1.688  0.1817 -0.1626  0.0366
    1SOL     OW 1893   1.952   2.735   1.548 -0.6789  0.0168 -0.0161
    1SOL    HW2 1894   1.992   2.821   1.537  0.7565 -0.3513  2.0750
    1SOL    HW3 1895   1.865   2.753   1.583  0.1781  0.5813  1.8783
    1SOL    MW4 1896   1.946   2.749   1.551 -0.3763  0.0427  0.5096
    1SOL     OW 1897   3.751   3.668   0.825 -0.5875  0.5379  0.2051
    1SOL    HW2 1898   3.822   3.718   0.784  0.0979 -0.7167 -0.1542
    1SOL    HW3 1899   3.792   3.586   0.851 -1.4694  0.5588  1.7095
    1SOL    MW4 1900   3.766   3.664   0.823 -0.6135  0.3750  0.3561
    1SOL     OW 1901   4.471   1.917   1.177 -0.0944  0.2184 -0.1450
    1SOL    HW2 1902   4.439   1.947   1.262  1.0572 -1.6964  1.0140
    1SOL    HW3 1903   4.516   1.992   1.141 -2.5149  1.7550 -0.0826
    1SOL    MW4 1904   4.473   1.931   1.184 -0.2618  0.1686  0.0162
    1SOL     OW 1905   3.609   2.884   3.043  0.3269 -0.4026  0.4575
    1SOL    HW2 1906   3.519   2.865   3.016  0.1884  0.0908  0.5696
    1SOL    HW3 1907   3.601   2.927   3.127  0.5936  0.7471 -0.0930
    1SOL    MW4 1908   3.596   2.887   3.050  0.3436 -0.1860  0.3998
    1SOL     OW 1909   2.363   3.046   3.358 -0.6435  0.1371  0.2298
    1SOL    HW2 1910   2.442   2.992   3.365 -1.3187 -0.7692  0.9653
    1SOL    HW3 1911   2.296   2.987   3.324 -1.1247  0.7894  0.0253
    1SOL    MW4 1912   2.365   3.031   3.354 -0.7961  0.1035  0.2997
    1SOL     OW 1913   3.412   1.971   3.290  0.6526  0.9487  0.5043
    1SOL    HW2 1914   3.433   2.064   3.299 -0.5227  1.2326  0.3073
    1SOL    HW3 1915   3.394   1.942   3.380  0.9837  0.9097  0.5608
    1SOL    MW4 1916   3.412   1.979   3.303  0.5412  0.9811  0.4857
    1SOL     OW 1917   3.047   1.100   4.512  0.3471 -0.6753  0.1946
    1SOL    HW2 1918   3.002   1.171   4.558  0.4021  0.0145 -0.8032
    1SOL    HW3 1919   3.002   1.094   4.428  0.4114 -1.7607  0.2319
    1SOL    MW4 1920   3.035   1.109   4.507  0.3631 -0.7274  0.0682
    1SOL     OW 1921   3.580   3.183   1.192 -0.0245  0.2436 -0.0756
    1SOL    HW2 1922   3.548   3.139   1.271  0.9140 -1.6806 -0.7384
    1SOL    HW3 1923   3.675   3.180   1.200  0.0889  3.3652  0.4803
    1SOL    MW4 1924   3.588   3.177   1.203  0.1142  0.4013 -0.0898
    1SOL     OW 1925   4.112   3.273   4.204 -0.1551 -0.4799 -0.0366
    1SOL    HW2 1926   4.148   3.193   4.166  0.3232  0.4728 -1.6359
    1SOL    HW3 1927   4.019   3.254   4.216  0.5838 -2.5222  2.9882
    1SOL    MW4 1928   4.104   3.260   4.201  0.0057 -0.6237  0.1512
    1SOL     OW 1929   3.098   3.944   0.506 -0.1596  0.0326 -0.0957
    1SOL    HW2 1930   3.017   3.903   0.478 -0.6788  0.1057  1.2355
    1SOL    HW3 1931   3.166   3.905   0.451 -1.0444 -0.3207 -0.9385
    1SOL    MW4 1932   3.096   3.934   0.495 -0.3448 -0.0043 -0.0313
    1SOL     OW 1933   3.128   2.826   1.892  0.0961  0.1742 -0.2549
    1SOL    HW2 1934   3.132   2.900   1.831 -0.5824 -0.2491 -0.8095
    1SOL    HW3 1935   3.095   2.864   1.974  0.8683  0.7105 -0.1829
    1SOL    MW4 1936   3.124   2.841   1.895  0.1082  0.1891 -0.3184
    1SOL     OW 1937   2.800   3.626   1.528  0.0282  0.1893  0.0739
    1SOL    HW2 1938   2.782   3.719   1.518 -1.7874  0.0575  1.6660
    1SOL    HW3 1939   2.893   3.617   1.509  0.0523  2.1854 -0.8972
    1SOL    MW4 1940   2.810   3.637   1.524 -0.2084  0.4351  0.1558
    1SOL     OW 1941   4.241   4.514   3.779 -0.0981 -0.0735 -0.2138
    1SOL    HW2 1942   4.234   4.569   3.701 -0.6047  1.6933  1.0581
    1SOL    HW3 1943   4.154   4.520   3.820  0.3779 -0.4210  0.8574
    1SOL    MW4 1944   4.228   4.522   3.774 -0.1016  0.1140  0.0956
    1SOL     OW 1945   3.188   0.313   4.663  0.5766  0.2615  0.2606
    1SOL    HW2 1946   3.229   0.384   4.614  0.6354 -0.5127 -0.8238
    1SOL    HW3 1947   3.202   0.235   4.609 -0.7612 -0.3183  0.7375
    1SOL    MW4 1948   3.195   0.312   4.649  0.4079  0.0829  0.1802
    1SOL     OW 1949   3.316   2.538   2.811  0.3143 -0.0621  0.5094
    1SOL    HW2 1950   3.295   2.445   2.815 -2.0807  0.4684  1.1961
    1SOL    HW3 1951   3.259   2.573   2.743  1.7117  0.7860 -0.2506
    1SOL    MW4 1952   3.306   2.530   2.803  0.1824  0.1199  0.5000
    1SOL     OW 1953   0.550   2.288   4.604 -0.3753 -0.1749 -0.7034
    1SOL    HW2 1954   0.558   2.365   4.547 -0.1808  0.9289  0.7920
    1SOL    HW3 1955   0.463   2.297   4.643  0.7211  0.7991  1.6105
    1SOL    MW4 1956   0.539   2.299   4.601 -0.2050  0.0992 -0.2017
    1SOL     OW 1957   2.208   0.695   0.953 -0.2755  0.0985  0.1177
    1SOL    HW2 1958   2.191   0.674   1.045 -0.8098  2.7695  0.6792
    1SOL    HW3 1959   2.121   0.692   0.912  0.0508 -1.8144 -0.5063
    1SOL    MW4 1960   2.194   0.692   0.959 -0.3028  0.1985  0.1095
    1SOL     OW 1961   1.918   4.191   4.003 -0.6625 -0.2160 -0.1575
    1SOL    HW2 1962   1.907   4.117   3.944  0.0371 -2.3273  2.2656
    1SOL    HW3 1963   2.010   4.216   3.992 -0.4901 -0.7105  0.1499
    1SOL    MW4 1964   1.929   4.185   3.993 -0.5476 -0.5598  0.2027
    1SOL     OW 1965   4.123   3.814   1.721 -0.0936  0.5959 -0.5054
    1SOL    HW2 1966   4.161   3.897   1.691  1.7421  0.6174  1.8088
    1SOL    HW3 1967   4.166   3.748   1.667 -0.6973  1.0229 -1.5390
    1SOL    MW4 1968   4.134   3.817   1.710  0.0691  0.6552 -0.3364
    1SOL     OW 1969   2.694   0.062   3.038 -0.5532 -0.6301 -0.8964
    1SOL    HW2 1970   2.604   0.059   3.006 -0.7575  2.8392 -0.8740
    1SOL    HW3 1971   2.747   0.038   2.962 -1.4211 -1.2123 -1.3313
    1SOL    MW4 1972   2.689   0.058   3.023 -0.6948 -0.2492 -0.9506
    1SOL     OW 1973   0.965   1.009   3.259  0.1719 -0.2318  0.3730
    1SOL    HW2 1974   1.006   0.924   3.244 -1.3123 -0.9454  0.1917
    1SOL    HW3 1975   0.975   1.024   3.353  1.8940  0.1804  0.1352
    1SOL    MW4 1976   0.972   1.000   3.270  0.2033 -0.2716  0.3176
    1SOL     OW 1977   0.761   0.470   2.035  0.7572  0.0660  0.2535
    1SOL    HW2 1978   0.783   0.555   1.995 -1.0496  0.0981 -0.7206
    1SOL    HW3 1979   0.833   0.412   2.008  1.2325  0.9045 -0.3322
    1SOL    MW4 1980   0.774   0.474   2.026  0.5816  0.1809  0.0477
    1SOL     OW 1981   0.883   0.996   0.695 -0.1313 -0.2731  0.2134
    1SOL    HW2 1982   0.950   1.063   0.702  0.6803 -1.0567  0.0227
    1SOL    HW3 1983   0.801   1.044   0.682  0.5181  0.6502 -0.4579
    1SOL    MW4 1984   0.881   1.011   0.694  0.0615 -0.2546  0.0997
    1SOL     OW 1985   3.870   0.902   1.886  0.3163 -0.2459  0.2302
    1SOL    HW2 1986   3.924   0.845   1.941  0.1186 -0.1332  0.5432
    1SOL    HW3 1987   3.847   0.975   1.943  1.8290  0.9146 -0.6143
    1SOL    MW4 1988   3.874   0.904   1.901  0.4895 -0.0780  0.1600
    1SOL     OW 1989   1.869   3.678   2.064 -0.3105  0.1738  0.6845
    1SOL    HW2 1990   1.925   3.662   2.140 -1.7813 -0.6617  1.6213
    1SOL    HW3 1991   1.781   3.692   2.101 -1.2009 -1.0629 -0.9081
    1SOL    MW4 1992   1.864   3.678   2.079 -0.6220 -0.0992  0.5980
    1SOL     OW 1993   0.747   4.188   3.862 -0.8882  0.7855 -0.3797
    1SOL    HW2 1994   0.789   4.162   3.780 -1.5476 -0.8614 -0.2015
    1SOL    HW3 1995   0.814   4.174   3.928 -1.2171 -0.4543 -0.2923
    1SOL    MW4 1996   0.762   4.183   3.860 -1.0185  0.4048 -0.3445
    1SOL     OW 1997   1.819   3.934   3.569 -0.2518  0.0727 -0.3542
    1SOL    HW2 1998   1.902   3.942   3.522 -0.1096  1.6144  0.1396
    1SOL    HW3 1999   1.844   3.935   3.662 -0.6688 -1.3677 -0.2094
    1SOL    MW4 2000   1.833   3.935   3.575 -0.2881  0.0861 -0.2701
    1SOL     OW 2001   4.131   1.940   1.941 -0.1027  0.2144 -0.0824
    1SOL    HW2 2002   4.154   2.005   2.007 -0.1186 -0.2095  0.3401
    1SOL    HW3 2003   4.057   1.893   1.978  0.7299 -0.9199  0.1984
    1SOL    MW4 2004   4.125   1.943   1.954  0.0048  0.0088  0.0104
    1SOL     OW 2005   3.610   2.838   4.347 -0.1208 -0.3445  0.5532
    1SOL    HW2 2006   3.582   2.926   4.370  0.2573  0.0774 -0.6019
    1SOL    HW3 2007   3.702   2.835   4.372 -0.4071 -0.7939  1.6326
    1SOL    MW4 2008   3.618   2.849   4.354 -0.1085 -0.3481  0.5431
    1SOL     OW 2009   3.683   0.189   0.899  0.0865  0.3732 -0.1781
    1SOL    HW2 2010   3.625   0.239   0.842  3.0661  1.5471 -2.2496
    1SOL    HW3 2011   3.694   0.105   0.855 -0.2115  0.0533  0.3458
    1SOL    MW4 2012   3.677   0.184   0.886  0.4404  0.4858 -0.3822
    1SOL     OW 2013   2.379   1.270   2.454  0.3725 -0.1384 -0.1903
    1SOL    HW2 2014   2.453   1.246   2.398 -0.6959 -2.3493 -0.7117
    1SOL    HW3 2015   2.303   1.267   2.395 -0.2142  1.6701  0.4378
    1SOL    MW4 2016   2.379   1.266   2.439  0.1543 -0.1915 -0.1760
    1SOL     OW 2017   3.891   4.485   4.251 -0.1769 -0.0081  0.1697
    1SOL    HW2 2018   3.956   4.542   4.210 -1.1941  1.0996  0.0588
    1SOL    HW3 2019   3.925   4.397   4.240  1.5616  0.5949  0.5765
    1SOL    MW4 2020   3.904   4.481   4.244 -0.0820  0.2170  0.2084
    1SOL     OW 2021   1.592   3.590   2.779  0.5901  0.0812 -0.2820
    1SOL    HW2 2022   1.588   3.531   2.854 -0.8454  0.8960  0.2851
    1SOL    HW3 2023   1.644   3.664   2.810  0.5818  0.1000 -0.3133
    1SOL    MW4 2024   1.599   3.592   2.793  0.3995  0.1912 -0.2112
    1SOL     OW 2025   2.183   2.341   2.156  0.3898  0.5648 -0.2680
    1SOL    HW2 2026   2.159   2.430   2.181  1.6603  0.9048 -0.2197
    1SOL    HW3 2027   2.123   2.285   2.205  0.3414  1.3549  0.5822
    1SOL    MW4 2028   2.172   2.345   2.166  0.5510  0.7138 -0.1493
    1SOL     OW 2029   1.945   0.800   1.134  0.1993  0.6989 -0.1859
    1SOL    HW2 2030   1.912   0.795   1.224 -0.4639 -0.0277 -0.4630
    1SOL    HW3 2031   1.960   0.894   1.120  1.5181  0.6952  1.1018
    1SOL    MW4 2032   1.943   0.812   1.144  0.2859  0.6026 -0.0527
    1SOL     OW 2033   2.007   1.411   1.148 -0.0004  0.2595  0.0564
    1SOL    HW2 2034   2.017   1.345   1.217  0.1582 -0.5282 -0.7144
    1SOL    HW3 2035   1.914   1.406   1.124  0.3436 -0.7714 -1.0787
    1SOL    MW4 2036   1.996   1.402   1.154  0.0659  0.0196 -0.1950
    1SOL     OW 2037   1.658   3.502   1.433  0.0425  0.2060  0.6177
    1SOL    HW2 2038   1.608   3.529   1.356  1.0679 -2.0297 -0.8807
    1SOL    HW3 2039   1.744   3.540   1.420  0.2309 -0.2109  0.6561
    1SOL    MW4 2040   1.662   3.511   1.421  0.2027 -0.1440  0.4250
    1SOL     OW 2041   1.129   0.723   2.123 -0.4507  0.4941  0.2547
    1SOL    HW2 2042   1.129   0.659   2.195  1.2007  0.4856  0.2491
    1SOL    HW3 2043   1.051   0.700   2.072 -0.8662 -0.3900  1.2438
    1SOL    MW4 2044   1.118   0.711   2.126 -0.2875  0.3764  0.3846
    1SOL     OW 2045   3.878   3.228   2.640 -0.7026 -0.0110 -0.0286
    1SOL    HW2 2046   3.887   3.319   2.612 -0.9722  0.7359  2.1488
    1SOL    HW3 2047   3.786   3.221   2.666 -0.1770 -0.2774  1.8151
    1SOL    MW4 2048   3.867   3.239   2.640 -0.6690  0.0522  0.5019
    1SOL     OW 2049   2.835   2.958   1.125 -0.4647  0.1055 -0.1327
    1SOL    HW2 2050   2.840   2.933   1.032 -0.8531  0.7595 -0.3367
    1SOL    HW3 2051   2.742   2.972   1.140 -0.1420  2.9516 -0.4557
    1SOL    MW4 2052   2.823   2.956   1.114 -0.4735  0.5672 -0.2023
    1SOL     OW 2053   0.073   3.097   3.895 -0.4436  0.0415  0.5116
    1SOL    HW2 2054   0.137   3.097   3.966 -0.5812 -0.2811  0.6388
    1SOL    HW3 2055   0.076   3.007   3.861  0.9254  0.6640 -1.0763
    1SOL    MW4 2056   0.082   3.085   3.900 -0.2812  0.0811  0.3188
    1SOL     OW 2057   1.963   2.258   2.932 -0.1944 -0.2256 -0.0342
    1SOL    HW2 2058   1.927   2.170   2.924 -0.3862  0.1334 -4.1808
    1SOL    HW3 2059   2.050   2.245   2.968 -0.4858 -2.0534  0.0462
    1SOL    MW4 2060   1.970   2.245   2.936 -0.2581 -0.4196 -0.5703
    1SOL     OW 2061   1.155   4.250   2.226 -0.1537  0.3772 -0.0706
    1SOL    HW2 2062   1.221   4.184   2.247  0.4080  0.5147 -1.3517
    1SOL    HW3 2063   1.145   4.300   2.307 -1.3207 -1.8758  1.1989
    1SOL    MW4 2064   1.163   4.248   2.239 -0.2334  0.0987 -0.0720
    1SOL     OW 2065   3.001   2.369   1.017  0.1777  0.4231 -0.0147
    1SOL    HW2 2066   3.022   2.296   1.075  0.3405 -1.2002 -2.0429
    1SOL    HW3 2067   2.939   2.333   0.953  1.3181  1.6516 -1.8919
    1SOL    MW4 2068   2.995   2.355   1.016  0.3495  0.3710 -0.5300
    1SOL     OW 2069   0.123   4.029   4.498  0.3796  0.3239 -0.5757
    1SOL    HW2 2070   0.155   3.953   4.450 -2.2598 -1.3300  0.1805
    1SOL    HW3 2071   0.158   4.018   4.587 -0.9522 -0.6618 -0.1576
    1SOL    MW4 2072   0.132   4.017   4.504 -0.1443 -0.0234 -0.4206
    1SOL     OW 2073   1.970   4.659   3.376  0.3986  0.3090  0.4024
    1SOL    HW2 2074   2.049   4.637   3.426 -0.2056 -0.0528  1.2157
    1SOL    HW3 2075   1.934   4.574   3.351 -0.6765  0.4095  1.5402
    1SOL    MW4 2076   1.975   4.645   3.379  0.1770  0.2747  0.6597
    1SOL     OW 2077   2.168   3.416   2.372  0.1736  0.3305  0.2693
    1SOL    HW2 2078   2.098   3.399   2.435 -0.0532 -1.1522 -0.3536
    1SOL    HW3 2079   2.222   3.337   2.375  0.4288  0.4473 -1.0323
    1SOL    MW4 2080   2.166   3.403   2.380  0.1769  0.1502  0.0155
    1SOL     OW 2081   1.861   0.891   2.654  0.4009  0.2148  0.6400
    1SOL    HW2 2082   1.811   0.819   2.690 -2.2286  2.0800  0.8642
    1SOL    HW3 2083   1.944   0.889   2.702  0.2739 -2.4431  0.8203
    1SOL    MW4 2084   1.865   0.882   2.665  0.0372  0.1103  0.6931
    1SOL     OW 2085   2.650   3.131   3.560  0.0888 -0.2149  0.1768
    1SOL    HW2 2086   2.698   3.144   3.478  0.6300  1.2551  0.7134
    1SOL    HW3 2087   2.704   3.070   3.609  1.2663  1.1502  0.6267
    1SOL    MW4 2088   2.664   3.125   3.555  0.3157  0.1590  0.3071
    1SOL     OW 2089   0.674   2.750   3.305 -0.1080  0.1498 -0.3605
    1SOL    HW2 2090   0.616   2.826   3.302 -1.0834 -0.5513  0.5735
    1SOL    HW3 2091   0.712   2.747   3.217 -1.9680  0.2475 -1.2045
    1SOL    MW4 2092   0.671   2.760   3.293 -0.4821  0.0703 -0.3488
    1SOL     OW 2093   1.750   0.561   4.783  0.0354 -0.4397 -0.4696
    1SOL    HW2 2094   1.710   0.537   4.867  0.3618 -0.1735 -0.2323
    1SOL    HW3 2095   1.694   0.521   4.717 -1.1327  0.6587 -0.1725
    1SOL    MW4 2096   1.737   0.553   4.786 -0.0756 -0.2596 -0.3991
    1SOL     OW 2097   0.390   0.504   0.817  0.5403 -0.2793  0.1362
    1SOL    HW2 2098   0.345   0.581   0.852 -0.1967 -0.1558 -1.0639
    1SOL    HW3 2099   0.443   0.538   0.745 -0.4900 -1.0251 -0.9839
    1SOL    MW4 2100   0.391   0.519   0.812  0.3071 -0.3614 -0.1700
    1SOL     OW 2101   3.244   2.459   3.459  0.1176 -0.7886  0.0335
    1SOL    HW2 2102   3.333   2.476   3.427  0.6939 -1.3632  1.3125
    1SOL    HW3 2103   3.255   2.394   3.528 -1.2588 -0.5542  0.4909
    1SOL    MW4 2104   3.258   2.453   3.463  0.0124 -0.8333  0.2625
    1SOL     OW 2105   3.366   3.320   3.682 -0.1198 -0.0459  0.2096
    1SOL    HW2 2106   3.301   3.389   3.667  0.9390  0.8578 -0.3445
    1SOL    HW3 2107   3.433   3.363   3.735 -0.3156 -1.1729  1.3737
    1SOL    MW4 2108   3.366   3.335   3.687 -0.0060 -0.0753  0.2902
    1SOL     OW 2109   2.028   0.180   0.831 -0.3167 -0.0491 -0.0360
    1SOL    HW2 2110   2.028   0.119   0.905 -1.9081 -0.6742 -0.5160
    1SOL    HW3 2111   2.110   0.227   0.838 -0.1439 -0.5910  1.7341
    1SOL    MW4 2112   2.039   0.178   0.842 -0.5038 -0.2031  0.1342
    1SOL     OW 2113   2.496   0.419   1.191 -0.5192 -0.0286 -0.0613
    1SOL    HW2 2114   2.552   0.342   1.179 -1.0660 -0.1387 -2.1397
    1SOL    HW3 2115   2.440   0.396   1.265 -1.4044 -2.0885 -1.3363
    1SOL    MW4 2116   2.496   0.405   1.199 -0.7083 -0.3149 -0.5037
    1SOL     OW 2117   0.900   4.151   0.844 -0.3599 -0.0331 -0.3312
    1SOL    HW2 2118   0.877   4.227   0.897  0.3370 -0.2010  0.2227
    1SOL    HW3 2119   0.853   4.163   0.762 -0.5672  0.7928 -0.0899
    1SOL    MW4 2120   0.891   4.163   0.840 -0.2953  0.0539 -0.2263
    1SOL     OW 2121   3.361   4.393   3.020 -0.2277 -0.4954  0.6220
    1SOL    HW2 2122   3.303   4.411   3.094 -0.9629 -1.4372  0.3000
    1SOL    HW3 2123   3.444   4.369   3.060 -0.1616  0.5154  1.1012
    1SOL    MW4 2124   3.364   4.392   3.035 -0.3161 -0.4859  0.6425
    1SOL     OW 2125   1.712   0.319   2.799 -0.4126 -0.0541  0.7365
    1SOL    HW2 2126   1.708   0.356   2.711  1.1740 -2.1903 -0.2636
    1SOL    HW3 2127   1.764   0.382   2.849  1.0594 -0.1877 -0.5858
    1SOL    MW4 2128   1.718   0.332   2.794 -0.0091 -0.3536  0.4299
    1SOL     OW 2129   2.544   3.014   2.321  0.0488 -0.3095  0.5038
    1SOL    HW2 2130   2.476   3.055   2.375  0.2182  0.8244 -0.1211
    1SOL    HW3 2131   2.623   3.064   2.340  0.8853 -2.0709  1.7566
    1SOL    MW4 2132   2.545   3.026   2.330  0.1814 -0.3922  0.5867
    1SOL     OW 2133   2.624   0.322   3.895 -0.3892 -1.2331 -0.0647
    1SOL    HW2 2134   2.614   0.257   3.825 -2.3537 -0.7925 -0.2454
    1SOL    HW3 2135   2.562   0.294   3.962 -0.1020 -0.4352  0.5377
    1SOL    MW4 2136   2.614   0.310   3.895 -0.6106 -1.0697 -0.0088
    1SOL     OW 2137   2.145   1.293   1.623  0.1080  0.0439 -0.0438
    1SOL    HW2 2138   2.206   1.358   1.587 -0.1921 -0.8081 -2.1264
    1SOL    HW3 2139   2.060   1.318   1.587 -0.1260 -1.0808 -0.2705
    1SOL    MW4 2140   2.142   1.305   1.614  0.0374 -0.2170 -0.3484
    1SOL     OW 2141   1.102   4.457   2.061  0.0225 -0.1694 -0.0094
    1SOL    HW2 2142   1.028   4.512   2.086 -0.0640 -0.1138 -0.3892
    1SOL    HW3 2143   1.093   4.379   2.115 -0.6201 -0.4010 -0.4451
    1SOL    MW4 2144   1.091   4.454   2.071 -0.0737 -0.1922 -0.1171
    1SOL     OW 2145   3.507   4.176   4.060 -0.1510 -0.3238 -0.4432
    1SOL    HW2 2146   3.420   4.162   4.099 -1.1207  3.1606 -1.1904
    1SOL    HW3 2147   3.491   4.176   3.966  0.9838 -1.5105 -0.6371
    1SOL    MW4 2148   3.493   4.174   4.053 -0.1295 -0.0205 -0.5674
    1SOL     OW 2149   2.143   1.196   4.106  0.6476 -0.0947  0.4578
    1SOL    HW2 2150   2.099   1.113   4.091  0.2089  0.1977  0.1252
    1SOL    HW3 2151   2.169   1.226   4.019  0.1713  0.4613  0.5023
    1SOL    MW4 2152   2.141   1.189   4.093  0.5269  0.0173  0.4201
    1SOL     OW 2153   0.357   4.158   3.150  0.1212  0.2644 -0.1202
    1SOL    HW2 2154   0.451   4.173   3.150  0.0880  0.4822 -1.3917
    1SOL    HW3 2155   0.347   4.070   3.114 -0.1383  0.0678  0.4282
    1SOL    MW4 2156   0.368   4.148   3.145  0.0826  0.2670 -0.2153
    1SOL     OW 2157   3.731   2.318   1.269 -0.1012 -0.3893 -0.0077
    1SOL    HW2 2158   3.719   2.413   1.260  2.0387 -0.0521  0.2448
    1SOL    HW3 2159   3.668   2.279   1.209 -0.5560  1.2150 -0.5867
    1SOL    MW4 2160   3.721   2.326   1.260  0.1211 -0.1330 -0.0507
    1SOL     OW 2161   1.250   1.465   1.565 -0.1421  0.6097 -0.1932
    1SOL    HW2 2162   1.237   1.548   1.612  0.2866 -0.7560  2.4741
    1SOL    HW3 2163   1.345   1.453   1.565 -0.1262  0.6709 -1.6132
    1SOL    MW4 2164   1.261   1.474   1.571 -0.0834  0.4376 -0.0286
    1SOL     OW 2165   2.835   2.609   3.181  0.2398  0.6157 -0.4490
    1SOL    HW2 2166   2.928   2.587   3.182 -0.0085 -0.5465  2.2522
    1SOL    HW3 2167   2.793   2.535   3.137  0.5020  0.7682 -0.9607
    1SOL    MW4 2168   2.841   2.597   3.175  0.2418  0.4826 -0.1600
    1SOL     OW 2169   1.869   2.984   2.026 -0.2687 -0.0420  0.3454
    1SOL    HW2 2170   1.907   3.048   2.087 -0.4721  0.1711  0.2484
    1SOL    HW3 2171   1.936   2.974   1.958  0.2616 -0.8098  0.9665
    1SOL    MW4 2172   1.883   2.991   2.025 -0.2255 -0.1152  0.4146
    1SOL     OW 2173   1.430   2.193   1.983  0.1544 -0.2426 -0.0314
    1SOL    HW2 2174   1.406   2.282   1.955 -1.8094 -0.4936  0.7855
    1SOL    HW3 2175   1.434   2.198   2.078 -1.4452 -1.3876  0.1053
    1SOL    MW4 2176   1.428   2.206   1.992 -0.3155 -0.4268  0.0945
    1SOL     OW 2177   2.169   3.579   1.916  0.1303 -0.1743 -0.4686
    1SOL    HW2 2178   2.262   3.565   1.928 -0.1209 -2.4753 -1.0274
    1SOL    HW3 2179   2.157   3.582   1.821 -0.7609 -3.1037 -0.5070
    1SOL    MW4 2180   2.179   3.578   1.905 -0.0205 -0.8643 -0.5474
    1SOL     OW 2181   2.005   0.937   4.123 -0.0177 -0.1467  0.3243
    1SOL    HW2 2182   2.012   0.891   4.039 -1.3250  0.2763 -0.0222
    1SOL    HW3 2183   1.911   0.941   4.141  0.2542 -0.4383  1.9248
    1SOL    MW4 2184   1.994   0.931   4.114 -0.1544 -0.1295  0.4897
    1SOL     OW 2185   1.872   2.697   3.063  0.3467  0.0280 -0.4137
    1SOL    HW2 2186   1.933   2.627   3.084 -0.2014 -0.4775 -0.4845
    1SOL    HW3 2187   1.857   2.741   3.147  2.3723  1.4401 -0.7681
    1SOL    MW4 2188   1.878   2.694   3.077  0.5417  0.1476 -0.4699
    1SOL     OW 2189   3.662   3.290   1.477 -0.3140 -0.4860 -0.1785
    1SOL    HW2 2190   3.582   3.337   1.453 -0.4013 -0.9772 -0.8898
    1SOL    HW3 2191   3.713   3.287   1.395  1.2682  1.4406  0.7033
    1SOL    MW4 2192   3.658   3.295   1.463 -0.1168 -0.2966 -0.1559
    1SOL     OW 2193   2.981   4.039   2.763 -0.8892 -0.0196 -0.2372
    1SOL    HW2 2194   2.997   4.012   2.673 -0.0233 -1.2330  0.2673
    1SOL    HW3 2195   2.892   4.009   2.782 -0.6740 -0.7326 -0.3424
    1SOL    MW4 2196   2.972   4.032   2.754 -0.7467 -0.2742 -0.1845
    1SOL     OW 2197   2.237   4.570   1.400  0.0404 -0.2893 -0.6783
    1SOL    HW2 2198   2.260   4.587   1.309 -0.9894  0.6157 -0.7748
    1SOL    HW3 2199   2.298   4.623   1.450  0.1451 -0.2419 -0.8567
    1SOL    MW4 2200   2.248   4.579   1.395 -0.0818 -0.1631 -0.7144
    1SOL     OW 2201   4.063   2.227   2.682  0.1459 -0.3392  0.0033
    1SOL    HW2 2202   4.000   2.158   2.703  0.6523 -0.6438  0.5594
    1SOL    HW3 2203   4.147   2.193   2.714  0.1186  1.2622  1.8541
    1SOL    MW4 2204   4.066   2.213   2.689  0.2089 -0.1681  0.3209
    1SOL     OW 2205   3.922   1.218   3.984  0.0243  0.4671 -0.1260
    1SOL    HW2 2206   4.014   1.193   3.976 -0.0235  0.2300  0.0499
    1SOL    HW3 2207   3.923   1.312   3.998  0.3509  0.1789  1.9503
    1SOL    MW4 2208   3.934   1.227   3.985  0.0610  0.3979  0.1712
    1SOL     OW 2209   2.525   4.051   4.099 -0.0387  0.2751  0.1883
    1SOL    HW2 2210   2.541   4.124   4.039 -1.1871 -1.0917 -1.8410
    1SOL    HW3 2211   2.587   3.983   4.073 -0.0697 -0.0812  1.0067
    1SOL    MW4 2212   2.535   4.052   4.088 -0.1943  0.0472  0.0291
    1SOL     OW 2213   2.767   3.198   1.812  0.2811  0.0439 -0.2783
    1SOL    HW2 2214   2.780   3.108   1.843 -1.1957  0.3859  1.4541
    1SOL    HW3 2215   2.824   3.251   1.868  1.1233  0.1941 -1.2747
    1SOL    MW4 2216   2.776   3.193   1.824  0.1974  0.1087 -0.1813
    1SOL     OW 2217   1.639   0.322   4.135  0.5050 -0.3677 -0.0017
    1SOL    HW2 2218   1.553   0.299   4.099  0.4668 -1.6136  0.8292
    1SOL    HW3 2219   1.702   0.277   4.079  0.4492 -2.2354  1.3620
    1SOL    MW4 2220   1.636   0.313   4.123  0.4926 -0.7785  0.2885
    1SOL     OW 2221   2.043   3.024   1.821  0.0569  0.0111 -0.2815
    1SOL    HW2 2222   2.135   3.043   1.838  0.0831 -0.1558 -0.2328
    1SOL    HW3 2223   2.008   3.104   1.781  0.1429  0.1937  0.0074
    1SOL    MW4 2224   2.050   3.037   1.818  0.0718  0.0131 -0.2370
    1SOL     OW 2225   3.385   1.954   4.012  0.5813  0.9427  0.2725
    1SOL    HW2 2226   3.474   1.965   3.978  1.1586  0.0941  1.4760
    1SOL    HW3 2227   3.368   2.033   4.062  1.1414  0.5609  1.0791
    1SOL    MW4 2228   3.394   1.966   4.014  0.7317  0.7803  0.5379
    1SOL     OW 2229   3.816   1.807   0.782  0.3861 -0.1260 -0.1523
    1SOL    HW2 2230   3.800   1.879   0.721  1.7632  0.6006  0.3190
    1SOL    HW3 2231   3.894   1.834   0.831  0.3202 -1.4838  0.7272
    1SOL    MW4 2232   3.824   1.820   0.780  0.5591 -0.2093  0.0260
    1SOL     OW 2233   0.685   3.583   0.954  0.7230 -0.3589 -0.1307
    1SOL    HW2 2234   0.759   3.526   0.972  0.3527 -0.8009  0.0071
    1SOL    HW3 2235   0.706   3.665   0.999  1.3753 -0.2980 -0.5418
    1SOL    MW4 2236   0.697   3.586   0.962  0.7602 -0.4094 -0.1668
    1SOL     OW 2237   1.648   2.079   1.881 -0.9650  0.2599 -0.1037
    1SOL    HW2 2238   1.587   2.151   1.898 -1.1668  0.3930 -1.3687
    1SOL    HW3 2239   1.732   2.110   1.916 -1.1347  0.9515 -0.3033
    1SOL    MW4 2240   1.651   2.092   1.888 -1.0141  0.3684 -0.2970
    1SOL     OW 2241   3.247   4.603   4.096  0.3799 -0.4383 -0.3629
    1SOL    HW2 2242   3.330   4.575   4.056 -0.0924 -0.3311 -1.4445
    1SOL    HW3 2243   3.264   4.693   4.125  1.3333 -1.1862  1.4769
    1SOL    MW4 2244   3.261   4.611   4.094  0.4435 -0.5236 -0.2632
    1SOL     OW 2245   3.341   1.682   3.692 -0.2510 -0.1366 -0.2941
    1SOL    HW2 2246   3.414   1.661   3.634  0.7472  1.8026  0.2143
    1SOL    HW3 2247   3.372   1.657   3.779 -0.6311 -0.3512 -0.2200
    1SOL    MW4 2248   3.355   1.676   3.696 -0.1693  0.0908 -0.2174
    1SOL     OW 2249   0.580   1.807   2.352  0.0864 -0.3712 -0.2855
    1SOL    HW2 2250   0.587   1.831   2.444  2.0411 -0.9990 -0.2442
    1SOL    HW3 2251   0.614   1.882   2.304 -2.0795  0.4654 -0.5978
    1SOL    MW4 2252   0.585   1.820   2.358  0.0585 -0.3436 -0.3211
    1SOL     OW 2253   2.964   3.755   1.156  0.5072  0.0682  0.0983
    1SOL    HW2 2254   2.954   3.758   1.061 -1.0288  3.6749  0.3149
    1SOL    HW3 2255   2.884   3.713   1.188  0.3195  0.2453 -0.1363
    1SOL    MW4 2256   2.952   3.750   1.148  0.2799  0.5674  0.0960
    1SOL     OW 2257   2.191   0.197   1.100 -0.1135 -0.6477 -0.4562
    1SOL    HW2 2258   2.106   0.162   1.127 -0.0703  0.1378  0.7428
    1SOL    HW3 2259   2.255   0.134   1.133 -0.1148 -0.1540  0.5028
    1SOL    MW4 2260   2.188   0.184   1.108 -0.1080 -0.4789 -0.1715
    1SOL     OW 2261   0.494   4.101   3.785  0.3611 -0.0199  0.2008
    1SOL    HW2 2262   0.588   4.104   3.802  0.4525 -2.5210  0.3324
    1SOL    HW3 2263   0.454   4.130   3.867  1.0007 -0.9805  0.8681
    1SOL    MW4 2264   0.501   4.105   3.798  0.4575 -0.4768  0.3064
    1SOL     OW 2265   4.406   3.479   2.504 -0.0517 -0.1377 -0.1765
    1SOL    HW2 2266   4.395   3.516   2.592  0.6701 -0.6078  0.1133
    1SOL    HW3 2267   4.451   3.548   2.455 -1.3159  0.4999 -0.4485
    1SOL    MW4 2268   4.411   3.493   2.510 -0.1240 -0.1159 -0.1743
    1SOL     OW 2269   3.276   3.006   1.191 -0.5424 -0.0959 -0.1226
    1SOL    HW2 2270   3.297   3.072   1.125  0.3139 -0.6685 -0.4276
    1SOL    HW3 2271   3.181   3.011   1.201 -0.6013  0.4216 -0.9460
    1SOL    MW4 2272   3.266   3.015   1.184 -0.4373 -0.1035 -0.2714
    1SOL     OW 2273   2.623   0.086   3.362  0.6012  0.4570 -0.5059
    1SOL    HW2 2274   2.656   0.007   3.405 -0.0567  1.0076  1.0193
    1SOL    HW3 2275   2.664   0.085   3.275  2.3541 -0.3670  0.3199
    1SOL    MW4 2276   2.633   0.075   3.356  0.7458  0.4208 -0.1955
    1SOL     OW 2277   3.155   1.779   1.790 -0.6601  0.2227 -0.7346
    1SOL    HW2 2278   3.109   1.743   1.867 -3.0594  2.1447 -1.1998
    1SOL    HW3 2279   3.211   1.708   1.761 -0.4810 -0.9149  2.1832
    1SOL    MW4 2280   3.156   1.765   1.796 -0.9532  0.3263 -0.4109
    1SOL     OW 2281   4.104   3.097   4.668 -0.3161 -0.1742 -0.0682
    1SOL    HW2 2282   4.173   3.038   4.638  0.4596 -0.2791  1.8321
    1SOL    HW3 2283   4.141   3.185   4.655 -0.5988 -0.1678 -0.8504
    1SOL    MW4 2284   4.118   3.101   4.662 -0.2513 -0.1872  0.0796
    1SOL     OW 2285   2.253   2.765   3.209 -0.1633  0.5775  0.0222
    1SOL    HW2 2286   2.339   2.724   3.191 -0.5168 -0.0653 -0.2321
    1SOL    HW3 2287   2.191   2.693   3.198 -0.6962  0.9546  0.6070
    1SOL    MW4 2288   2.256   2.750   3.205 -0.2804  0.5422  0.0656
    1SOL     OW 2289   0.566   0.741   1.063 -0.0094  0.3665  0.0836
    1SOL    HW2 2290   0.638   0.702   1.013  0.5514  0.0178  1.1595
    1SOL    HW3 2291   0.556   0.684   1.139 -1.9765 -0.0630 -0.4700
    1SOL    MW4 2292   0.574   0.728   1.066 -0.1950  0.2639  0.1526
    1SOL     OW 2293   3.292   3.207   3.449  0.4413  0.2965  0.2560
    1SOL    HW2 2294   3.301   3.258   3.530  0.4641 -1.1800  1.1894
    1SOL    HW3 2295   3.370   3.153   3.445  0.4864  0.4230 -0.8144
    1SOL    MW4 2296   3.303   3.207   3.459  0.4504  0.1183  0.2377
    1SOL     OW 2297   1.797   2.480   3.697  0.1220 -0.0187 -0.3914
    1SOL    HW2 2298   1.778   2.547   3.632 -1.4983 -0.7747 -0.7195
    1SOL    HW3 2299   1.759   2.400   3.661  0.9769 -0.8668  0.5547
    1SOL    MW4 2300   1.790   2.478   3.684  0.0210 -0.2303 -0.3099
    1SOL     OW 2301   0.386   2.802   1.114 -0.0419 -0.3999  0.4609
    1SOL    HW2 2302   0.463   2.805   1.170  0.6511  1.1366 -0.5130
    1SOL    HW3 2303   0.335   2.879   1.140  0.4653  0.5306 -1.2254
    1SOL    MW4 2304   0.389   2.813   1.125  0.1164 -0.0744  0.1100
    1SOL     OW 2305   0.277   2.831   1.442 -0.0045 -0.4926 -0.3683
    1SOL    HW2 2306   0.335   2.755   1.437 -0.7272 -1.1664  1.1174
    1SOL    HW3 2307   0.335   2.905   1.458  0.4000 -1.2452  1.6804
    1SOL    MW4 2308   0.292   2.830   1.443 -0.0465 -0.6807  0.0980
    1SOL     OW 2309   4.476   1.575   1.537  0.1268 -0.2060 -0.0842
    1SOL    HW2 2310   4.467   1.671   1.543  0.6177 -0.2354  1.2860
    1SOL    HW3 2311   4.565   1.558   1.568 -0.8268 -1.3114  2.1919
    1SOL    MW4 2312   4.487   1.586   1.542  0.0658 -0.3557  0.3970
    1SOL     OW 2313   1.975   1.538   3.042 -0.2418  0.2726 -0.6802
    1SOL    HW2 2314   2.066   1.534   3.073 -0.3901 -1.4005 -0.4342
    1SOL    HW3 2315   1.939   1.617   3.082 -0.2305 -1.4477  2.8654
    1SOL    MW4 2316   1.983   1.548   3.051 -0.2600 -0.1752 -0.1798
    1SOL     OW 2317   3.926   3.740   3.057  0.1117 -0.6545 -0.2030
    1SOL    HW2 2318   3.869   3.675   3.098  0.2226 -1.1965 -0.8989
    1SOL    HW3 2319   3.875   3.821   3.059 -0.5652 -1.0674 -0.5471
    1SOL    MW4 2320   3.911   3.742   3.063  0.0372 -0.7803 -0.3402
    1SOL     OW 2321   0.401   3.338   0.644 -0.5248 -1.0454  0.1523
    1SOL    HW2 2322   0.479   3.395   0.644 -0.0818 -1.6396  0.8058
    1SOL    HW3 2323   0.330   3.396   0.671 -0.1072 -0.7518  0.6490
    1SOL    MW4 2324   0.402   3.353   0.648 -0.4113 -1.0846  0.3040
    1SOL     OW 2325   1.258   0.055   4.207  0.3523 -0.2946  0.7341
    1SOL    HW2 2326   1.340   0.024   4.246  1.1045 -0.9899 -1.3035
    1SOL    HW3 2327   1.259   0.149   4.222  1.0014 -0.4420  1.6929
    1SOL    MW4 2328   1.269   0.063   4.214  0.5372 -0.4058  0.5918
    1SOL     OW 2329   1.014   4.512   3.864 -0.1640  0.1592 -0.2403
    1SOL    HW2 2330   1.096   4.499   3.817  0.0982  1.2036 -0.0831
    1SOL    HW3 2331   1.039   4.549   3.948 -0.8023  0.6152 -0.2426
    1SOL    MW4 2332   1.028   4.515   3.869 -0.2136  0.3572 -0.2198
    1SOL     OW 2333   4.232   2.725   2.035  0.1238 -0.0131  0.1064
    1SOL    HW2 2334   4.261   2.779   2.108  0.0168 -0.0639  0.1870
    1SOL    HW3 2335   4.146   2.692   2.062 -0.0433  0.1978 -0.1620
    1SOL    MW4 2336   4.225   2.728   2.048  0.0877  0.0079  0.0818
    1SOL     OW 2337   1.672   0.049   0.616 -0.4458 -0.0112 -0.3944
    1SOL    HW2 2338   1.641   0.136   0.642 -1.0248  0.1471 -1.5692
    1SOL    HW3 2339   1.623   0.029   0.536  0.4514 -0.9734 -0.7140
    1SOL    MW4 2340   1.661   0.058   0.609 -0.4038 -0.1172 -0.5916
    1SOL     OW 2341   1.531   3.121   2.809 -0.4337 -0.5184 -0.1174
    1SOL    HW2 2342   1.541   3.137   2.716  1.7276  0.7748  0.3087
    1SOL    HW3 2343   1.449   3.163   2.833 -0.3287  0.2937 -1.1839
    1SOL    MW4 2344   1.522   3.128   2.800 -0.1347 -0.2406 -0.2017
    1SOL     OW 2345   3.583   3.177   4.204  0.2818  0.7255 -0.1724
    1SOL    HW2 2346   3.516   3.239   4.175  0.1673 -0.3399 -2.2901
    1SOL    HW3 2347   3.558   3.155   4.293  0.0988  3.4073  0.4904
    1SOL    MW4 2348   3.571   3.182   4.212  0.2427  0.9389 -0.3643
    1SOL     OW 2349   0.942   3.462   2.767  0.6560  0.2549 -0.1876
    1SOL    HW2 2350   0.975   3.450   2.856 -0.6074  0.4303  0.3068
    1SOL    HW3 2351   0.865   3.517   2.777 -0.1020 -0.5931 -1.2820
    1SOL    MW4 2352   0.936   3.467   2.780  0.3893  0.1662 -0.2666
    1SOL     OW 2353   3.728   1.169   1.271 -0.7071  0.1482  0.6366
    1SOL    HW2 2354   3.724   1.241   1.333 -2.4524 -0.8834  1.7691
    1SOL    HW3 2355   3.637   1.153   1.247 -0.2605 -1.0533 -0.3331
    1SOL    MW4 2356   3.716   1.176   1.276 -0.8783 -0.1464  0.6579
    1SOL     OW 2357   3.570   2.963   0.565  0.3851 -0.0827  0.0333
    1SOL    HW2 2358   3.524   2.985   0.484 -2.0320 -1.2685  1.0446
    1SOL    HW3 2359   3.537   3.026   0.629  1.8700  0.4947  0.2489
    1SOL    MW4 2360   3.560   2.974   0.563  0.2623 -0.1631  0.1952
    1SOL     OW 2361   0.804   3.859   1.056 -1.2368  0.2285  0.4375
    1SOL    HW2 2362   0.791   3.794   1.124 -0.6953  1.4159  1.6942
    1SOL    HW3 2363   0.899   3.873   1.054 -1.4023  1.4175  0.6085
    1SOL    MW4 2364   0.815   3.852   1.064 -1.1871  0.5422  0.6260
    1SOL     OW 2365   1.825   2.613   4.677 -0.2807 -0.5096 -0.1738
    1SOL    HW2 2366   1.771   2.536   4.657 -0.9285 -0.0572 -0.2003
    1SOL    HW3 2367   1.914   2.588   4.652 -0.7786 -0.6086 -1.8952
    1SOL    MW4 2368   1.829   2.599   4.671 -0.4319 -0.4630 -0.4039
    1SOL     OW 2369   0.295   4.253   2.889  0.1843  0.1844 -0.1986
    1SOL    HW2 2370   0.341   4.223   2.968 -1.9012 -1.2999  0.4983
    1SOL    HW3 2371   0.338   4.206   2.817  1.6743  1.0510  0.1116
    1SOL    MW4 2372   0.307   4.242   2.890  0.1058  0.1020 -0.0658
    1SOL     OW 2373   1.736   4.052   4.295  0.0726  0.1310  0.7819
    1SOL    HW2 2374   1.826   4.049   4.264 -0.7546 -0.3658 -1.7032
    1SOL    HW3 2375   1.724   3.970   4.343  0.3394 -0.8037 -0.7117
    1SOL    MW4 2376   1.746   4.040   4.297 -0.0014 -0.0577  0.2565
    1SOL     OW 2377   3.740   2.104   2.010  0.4747  0.5356 -0.0135
    1SOL    HW2 2378   3.676   2.175   2.024  0.6270  1.0735 -1.8080
    1SOL    HW3 2379   3.687   2.025   2.001 -0.0684  1.1168 -2.4219
    1SOL    MW4 2380   3.725   2.103   2.010  0.4227  0.6835 -0.5677
    1SOL     OW 2381   3.804   2.859   3.652 -0.0309 -1.1302  0.2719
    1SOL    HW2 2382   3.834   2.949   3.669 -1.8905 -0.0449 -1.8715
    1SOL    HW3 2383   3.881   2.815   3.615  0.6321 -0.1464  0.4642
    1SOL    MW4 2384   3.818   2.865   3.649 -0.1888 -0.8571  0.0143
    1SOL     OW 2385   0.658   2.030   2.211 -0.2049  0.3798 -0.2558
    1SOL    HW2 2386   0.651   2.036   2.116 -0.7098  0.4100 -0.2186
    1SOL    HW3 2387   0.731   2.088   2.233  0.4126 -0.2305 -0.6951
    1SOL    MW4 2388   0.667   2.039   2.201 -0.1900  0.3030 -0.3085
    1SOL     OW 2389   4.379   1.311   3.356  0.0346  0.7834 -0.7815
    1SOL    HW2 2390   4.359   1.300   3.449  1.7468  2.8063 -0.1344
    1SOL    HW3 2391   4.350   1.229   3.316  0.7911 -0.8296  1.7839
    1SOL    MW4 2392   4.373   1.299   3.363  0.3610  0.8374 -0.3576
    1SOL     OW 2393   4.198   1.764   1.546  0.0416 -0.0662 -0.3230
    1SOL    HW2 2394   4.135   1.692   1.547 -0.4515  0.3538 -0.3148
    1SOL    HW3 2395   4.168   1.821   1.475  0.1739  0.3378 -0.0607
    1SOL    MW4 2396   4.185   1.762   1.537 -0.0062  0.0426 -0.2873
    1SOL     OW 2397   4.486   1.389   2.974  0.0667  0.6118 -0.2648
    1SOL    HW2 2398   4.510   1.431   3.057  0.8773  1.3111 -0.8427
    1SOL    HW3 2399   4.393   1.411   2.963 -0.0931  0.3649  0.5402
    1SOL    MW4 2400   4.477   1.398   2.983  0.1521  0.6714 -0.2348
    1SOL     OW 2401   4.384   0.039   1.816  0.6802 -0.4488  0.1877
    1SOL    HW2 2402   4.401   0.108   1.881  1.4616 -1.2370  0.8272
    1SOL    HW3 2403   4.464   0.034   1.765  0.0613  0.1719 -0.8617
    1SOL    MW4 2404   4.396   0.048   1.818  0.7014 -0.4709  0.1338
    1SOL     OW 2405   3.220   0.679   1.252 -0.3675 -0.9761  0.2271
    1SOL    HW2 2406   3.173   0.744   1.200  0.7945 -0.7283 -0.5392
    1SOL    HW3 2407   3.297   0.658   1.199  1.3865  0.0334  2.3191
    1SOL    MW4 2408   3.224   0.684   1.238  0.0172 -0.8103  0.4020
    1SOL     OW 2409   1.400   1.868   3.357 -0.5978  0.0932  0.0628
    1SOL    HW2 2410   1.361   1.940   3.406 -1.0371  0.7296 -1.1976
    1SOL    HW3 2411   1.482   1.904   3.322 -2.2129  0.9638 -3.0165
    1SOL    MW4 2412   1.406   1.882   3.359 -0.8688  0.2922 -0.5097
    1SOL     OW 2413   3.246   2.244   0.581 -0.5070  1.0880  0.1069
    1SOL    HW2 2414   3.239   2.283   0.668 -0.8695  0.9906  0.1243
    1SOL    HW3 2415   3.192   2.165   0.585  0.6208  0.3090  0.2176
    1SOL    MW4 2416   3.238   2.239   0.593 -0.4063  0.9725  0.1238
    1SOL     OW 2417   1.994   0.941   3.115 -0.1364  0.0678 -0.2471
    1SOL    HW2 2418   1.905   0.908   3.106 -0.0152  0.0749 -1.5388
    1SOL    HW3 2419   2.003   1.007   3.046  0.7561  0.2892  0.0704
    1SOL    MW4 2420   1.984   0.945   3.105 -0.0026  0.0980 -0.3757
    1SOL     OW 2421   0.535   2.224   2.628  0.1906  0.6189 -0.5168
    1SOL    HW2 2422   0.470   2.182   2.684  1.1769 -0.4403 -0.1389
    1SOL    HW3 2423   0.536   2.315   2.657  1.3274 -0.0908  1.8493
    1SOL    MW4 2424   0.527   2.230   2.639  0.4708  0.3858 -0.1547
    1SOL     OW 2425   4.441   3.439   2.116 -0.4208 -0.2572  1.2644
    1SOL    HW2 2426   4.346   3.441   2.107 -0.4427 -0.3156  1.4712
    1SOL    HW3 2427   4.471   3.381   2.046 -0.4513  0.5873  0.5436
    1SOL    MW4 2428   4.433   3.432   2.106 -0.4277 -0.1533  1.1966
    1SOL     OW 2429   4.033   2.597   4.510 -0.5594 -0.1487  0.4234
    1SOL    HW2 2430   4.050   2.581   4.603  0.9856  1.4195  0.4324
    1SOL    HW3 2431   3.962   2.537   4.488  1.4458 -3.0883  1.7337
    1SOL    MW4 2432   4.026   2.587   4.519 -0.0906 -0.3297  0.5975
    1SOL     OW 2433   3.494   1.004   4.470  0.1180 -0.4713 -0.2798
    1SOL    HW2 2434   3.428   0.995   4.539  0.2773  1.3552  0.1410
    1SOL    HW3 2435   3.444   0.998   4.389 -0.3533 -0.6882  0.0247
    1SOL    MW4 2436   3.478   1.002   4.469  0.0770 -0.2589 -0.1841
    1SOL     OW 2437   0.268   3.190   4.637 -0.0488  0.1083  0.1801
    1SOL    HW2 2438   0.311   3.104   4.630 -1.3238 -0.5649  0.4261
    1SOL    HW3 2439   0.278   3.214   4.729 -0.4908 -0.2120  0.3157
    1SOL    MW4 2440   0.275   3.182   4.648 -0.2753 -0.0229  0.2303
    1SOL     OW 2441   0.988   2.498   0.525 -0.2462  0.0212 -0.1323
    1SOL    HW2 2442   0.923   2.503   0.595  0.8311  0.1850  0.8615
    1SOL    HW3 2443   0.978   2.409   0.489 -1.1569  0.1182 -0.1328
    1SOL    MW4 2444   0.978   2.487   0.529 -0.2242  0.0560 -0.0013
    1SOL     OW 2445   3.959   3.475   1.519  0.0826  0.1716 -0.0293
    1SOL    HW2 2446   3.906   3.476   1.600  1.0166 -0.2790  0.5873
    1SOL    HW3 2447   3.900   3.511   1.453 -0.9904 -0.2643  0.6657
    1SOL    MW4 2448   3.944   3.480   1.521  0.0641  0.0546  0.1438
    1SOL     OW 2449   1.529   3.102   0.972 -0.0340  0.1064  0.0898
    1SOL    HW2 2450   1.506   3.094   0.879 -0.2128  0.2740  0.1206
    1SOL    HW3 2451   1.611   3.152   0.972  0.5582 -0.8523 -0.0440
    1SOL    MW4 2452   1.537   3.108   0.959  0.0205  0.0021  0.0762
    1SOL     OW 2453   1.686   0.949   1.426 -0.5385  0.5074 -0.6035
    1SOL    HW2 2454   1.647   0.954   1.339  0.9056  0.2490 -1.2876
    1SOL    HW3 2455   1.738   0.868   1.425  0.6266  1.2292  0.0021
    1SOL    MW4 2456   1.688   0.939   1.415 -0.1941  0.5685 -0.6138
    1SOL     OW 2457   1.326   0.521   1.703 -0.1821 -0.4803  0.5971
    1SOL    HW2 2458   1.238   0.484   1.717 -0.7453  0.5716 -0.1324
    1SOL    HW3 2459   1.353   0.488   1.618 -0.4125  0.2481  0.2390
    1SOL    MW4 2460   1.318   0.511   1.694 -0.2868 -0.2455  0.4536
    1SOL     OW 2461   2.900   1.701   2.565  0.1384  0.3451  0.3289
    1SOL    HW2 2462   2.900   1.762   2.639  0.4271 -1.8262  2.1832
    1SOL    HW3 2463   2.869   1.618   2.603 -0.8747 -0.4973 -2.2583
    1SOL    MW4 2464   2.896   1.698   2.580  0.0429 -0.0525  0.2320
    1SOL     OW 2465   3.526   1.536   3.299  0.1450 -0.1456  0.2197
    1SOL    HW2 2466   3.564   1.613   3.257 -0.3320  0.5281  1.0139
    1SOL    HW3 2467   3.439   1.528   3.261  0.6981 -1.1311 -0.8947
    1SOL    MW4 2468   3.520   1.545   3.288  0.1550 -0.1869  0.1774
    1SOL     OW 2469   3.602   4.321   0.742  0.2686  0.0622  0.7235
    1SOL    HW2 2470   3.565   4.293   0.658 -0.1933  2.7484 -0.0365
    1SOL    HW3 2471   3.668   4.255   0.763 -0.2122 -1.1165 -1.3436
    1SOL    MW4 2472   3.606   4.309   0.733  0.1442  0.2608  0.3505
    1SOL     OW 2473   4.469   3.521   4.470  0.0484  0.2391  0.2954
    1SOL    HW2 2474   4.391   3.465   4.471  0.5423 -0.4658  0.1408
    1SOL    HW3 2475   4.435   3.610   4.482 -0.7886 -0.0453  0.1050
    1SOL    MW4 2476   4.454   3.525   4.471  0.0038  0.1085  0.2494
    1SOL     OW 2477   1.541   4.577   2.775 -0.6338 -0.2424 -0.1182
    1SOL    HW2 2478   1.495   4.649   2.818  0.1658 -0.4578  1.1464
    1SOL    HW3 2479   1.548   4.509   2.843  0.0179 -0.8774 -0.8107
    1SOL    MW4 2480   1.536   4.578   2.790 -0.4424 -0.3543 -0.0424
    1SOL     OW 2481   1.106   1.184   1.091  0.3350 -0.1298 -0.1288
    1SOL    HW2 2482   1.093   1.113   1.153  0.2988 -0.3073 -0.3407
    1SOL    HW3 2483   1.036   1.247   1.111  0.3300 -0.1834  0.0155
    1SOL    MW4 2484   1.095   1.183   1.102  0.3296 -0.1603 -0.1376
    1SOL     OW 2485   2.305   0.003   2.098 -0.2783  0.1387  0.0360
    1SOL    HW2 2486   2.245   0.071   2.066 -0.3617 -0.1340 -0.3884
    1SOL    HW3 2487   2.248  -0.058   2.146  0.0393  1.2647  1.8851
    1SOL    MW4 2488   2.290   0.004   2.100 -0.2472  0.2513  0.2239
    1SOL     OW 2489   3.825   1.477   4.340  0.5742  0.3328 -0.0438
    1SOL    HW2 2490   3.914   1.445   4.355  1.6017  3.3577  0.6766
    1SOL    HW3 2491   3.820   1.490   4.245  0.7728 -0.1650 -0.1253
    1SOL    MW4 2492   3.836   1.474   4.329  0.7360  0.6663  0.0405
    1SOL     OW 2493   3.681   4.076   2.634 -0.3876  0.0962  0.0181
    1SOL    HW2 2494   3.693   4.133   2.710 -1.0371 -0.0083  0.2040
    1SOL    HW3 2495   3.652   3.992   2.670  0.6102 -0.3757 -0.2531
    1SOL    MW4 2496   3.679   4.072   2.649 -0.3417  0.0200  0.0069
    1SOL     OW 2497   0.201   0.725   1.852 -0.1886  0.4225  0.2871
    1SOL    HW2 2498   0.283   0.770   1.830  0.4830 -0.4789  0.8844
    1SOL    HW3 2499   0.200   0.648   1.795 -1.0467  0.8869 -0.3240
    1SOL    MW4 2500   0.212   0.720   1.842 -0.2132  0.3649  0.2853
    1SOL     OW 2501   3.943   4.376   2.891  0.2693 -0.0606 -0.3053
    1SOL    HW2 2502   3.982   4.442   2.834 -2.2647  0.5185 -1.4496
    1SOL    HW3 2503   3.919   4.424   2.970 -0.1091  0.0681 -0.4940
    1SOL    MW4 2504   3.945   4.391   2.894 -0.1149  0.0329 -0.4809
    1SOL     OW 2505   2.774   1.663   4.275  0.4135 -0.0331  0.3544
    1SOL    HW2 2506   2.757   1.713   4.356 -1.0459  0.2263 -0.0893
    1SOL    HW3 2507   2.722   1.584   4.285 -0.4994  0.4159 -0.7177
    1SOL    MW4 2508   2.765   1.659   4.287  0.1004  0.0604  0.1540
    1SOL     OW 2509   2.192   0.017   3.081 -0.4039  0.6404 -0.0108
    1SOL    HW2 2510   2.107  -0.026   3.084 -0.3224  0.3241 -1.5686
    1SOL    HW3 2511   2.204   0.055   3.168 -1.6143 -0.3030  0.5681
    1SOL    MW4 2512   2.182   0.016   3.093 -0.5527  0.4745 -0.1400
    1SOL     OW 2513   3.495   1.103   0.741 -0.7621 -0.4393  0.0656
    1SOL    HW2 2514   3.583   1.078   0.768 -0.2125  2.3253  0.9695
    1SOL    HW3 2515   3.499   1.102   0.645  0.3312 -0.0239  0.1017
    1SOL    MW4 2516   3.507   1.099   0.732 -0.5453 -0.0197  0.1897
    1SOL     OW 2517   2.881   2.693   3.794 -0.1203 -0.2202  0.0073
    1SOL    HW2 2518   2.975   2.680   3.778 -0.0920 -0.6684  0.5240
    1SOL    HW3 2519   2.861   2.776   3.750  0.5388 -0.0709 -0.0243
    1SOL    MW4 2520   2.891   2.703   3.786 -0.0298 -0.2594  0.0715
    1SOL     OW 2521   1.387   0.974   3.905  0.3680 -0.0671 -1.0333
    1SOL    HW2 2522   1.410   1.053   3.856 -1.9340  0.4030 -1.4084
    1SOL    HW3 2523   1.386   1.003   3.996  1.8202 -0.2475 -0.9464
    1SOL    MW4 2524   1.390   0.988   3.911  0.2558 -0.0288 -1.0712
    1SOL     OW 2525   1.973   4.203   1.601 -0.7217 -0.1459 -0.4369
    1SOL    HW2 2526   1.984   4.289   1.562 -1.1963 -0.1180 -0.5107
    1SOL    HW3 2527   2.051   4.191   1.655  0.5013 -0.6680 -2.2695
    1SOL    MW4 2528   1.984   4.212   1.603 -0.6230 -0.2112 -0.6884
    1SOL     OW 2529   0.713   1.669   1.951 -0.3008  0.3534  0.0441
    1SOL    HW2 2530   0.626   1.658   1.913 -0.6763 -1.1236  1.2997
    1SOL    HW3 2531   0.770   1.687   1.876 -1.4358 -0.0902 -0.9416
    1SOL    MW4 2532   0.709   1.670   1.936 -0.5001  0.1000  0.0796
    1SOL     OW 2533   0.738   0.153   3.232 -0.5707 -0.2498  0.5818
    1SOL    HW2 2534   0.693   0.079   3.273 -0.5262 -0.4526  0.2632
    1SOL    HW3 2535   0.729   0.137   3.138  2.4984 -1.6827  0.4965
    1SOL    MW4 2536   0.731   0.142   3.225 -0.1599 -0.4656  0.5288
    1SOL     OW 2537   2.720   3.956   2.792  0.1935  0.1999  0.1165
    1SOL    HW2 2538   2.697   3.989   2.879 -1.7333  0.7948 -0.5804
    1SOL    HW3 2539   2.667   3.877   2.781 -0.9251  1.0982 -1.1855
    1SOL    MW4 2540   2.710   3.950   2.802 -0.2081  0.3967 -0.1473
    1SOL     OW 2541   1.427   0.181   2.136  0.2113 -0.0389 -0.8019
    1SOL    HW2 2542   1.354   0.242   2.148 -1.0042 -1.2287 -1.9828
    1SOL    HW3 2543   1.388   0.094   2.144  1.9349 -0.6804  0.8509
    1SOL    MW4 2544   1.412   0.178   2.138  0.2784 -0.2805 -0.7398
    1SOL     OW 2545   4.084   0.107   1.961 -0.0950  0.8103  0.2186
    1SOL    HW2 2546   3.995   0.073   1.972  0.6321 -1.4122 -0.5626
    1SOL    HW3 2547   4.073   0.185   1.907 -1.4304 -0.4183 -1.3512
    1SOL    MW4 2548   4.071   0.113   1.955 -0.1755  0.3550 -0.0916
    1SOL     OW 2549   3.023   4.144   4.058 -0.0176 -0.1068  0.4746
    1SOL    HW2 2550   2.964   4.214   4.084 -0.9774 -0.2033 -1.3705
    1SOL    HW3 2551   2.976   4.063   4.078  0.0639 -0.1994  0.2959
    1SOL    MW4 2552   3.009   4.143   4.064 -0.1333 -0.1316  0.2079
    1SOL     OW 2553   3.829   3.088   4.002 -0.0938 -0.3639  0.0144
    1SOL    HW2 2554   3.898   3.046   4.054 -1.2798 -3.3423 -0.7002
    1SOL    HW3 2555   3.864   3.089   3.913  0.8995  2.4336  0.3835
    1SOL    MW4 2556   3.843   3.082   3.997 -0.1190 -0.3877 -0.0310
    1SOL     OW 2557   1.630   1.955   3.242  0.1758 -0.5743 -0.3033
    1SOL    HW2 2558   1.674   2.004   3.312 -2.6055  0.1960  0.9497
    1SOL    HW3 2559   1.628   2.016   3.168 -1.5250  0.5413  0.6310
    1SOL    MW4 2560   1.636   1.970   3.241 -0.4156 -0.3253 -0.0150
    1SOL     OW 2561   2.443   0.573   1.960  0.6984  0.2382  0.3784
    1SOL    HW2 2562   2.484   0.498   2.002 -0.1197 -0.3306  0.1646
    1SOL    HW3 2563   2.497   0.590   1.882  1.1263  0.1425  0.6528
    1SOL    MW4 2564   2.456   0.565   1.955  0.6468  0.1505  0.3865
    1SOL     OW 2565   0.457   4.294   2.388  0.5664  0.2791  0.2844
    1SOL    HW2 2566   0.493   4.275   2.301  1.6503  1.6858  0.4115
    1SOL    HW3 2567   0.376   4.342   2.370  0.2575 -0.3299  0.0371
    1SOL    MW4 2568   0.451   4.298   2.374  0.6686  0.3843  0.2689
    1SOL     OW 2569   2.443   1.395   4.602  0.1621 -0.1355  0.1468
    1SOL    HW2 2570   2.394   1.464   4.557  2.2810  0.4315 -1.3672
    1SOL    HW3 2571   2.394   1.314   4.582  0.3927  0.2701 -2.1902
    1SOL    MW4 2572   2.430   1.393   4.594  0.4723 -0.0072 -0.3610
    1SOL     OW 2573   3.082   0.879   2.263 -0.1602 -0.6469 -0.2579
    1SOL    HW2 2574   3.155   0.928   2.224  0.0178 -1.1131 -0.5098
    1SOL    HW3 2575   3.067   0.806   2.203  1.5191 -2.5694  1.6076
    1SOL    MW4 2576   3.090   0.876   2.250  0.0849 -0.9621 -0.0448
    1SOL     OW 2577   1.955   1.276   3.343  0.5826 -0.1152  0.0513
    1SOL    HW2 2578   1.905   1.296   3.264 -1.1867 -0.0270  1.1670
    1SOL    HW3 2579   2.047   1.284   3.316 -0.0012  2.9216 -1.2250
    1SOL    MW4 2580   1.961   1.280   3.329  0.2723  0.2972  0.0300
    1SOL     OW 2581   1.344   1.626   1.078  1.0866 -0.6935 -0.6860
    1SOL    HW2 2582   1.270   1.681   1.105  2.1018  0.7189 -0.7101
    1SOL    HW3 2583   1.321   1.595   0.991 -0.3217 -1.8210  0.0707
    1SOL    MW4 2584   1.331   1.629   1.070  1.0346 -0.6559 -0.5894
    1SOL     OW 2585   0.241   0.591   3.370  0.4196  0.5039  0.1687
    1SOL    HW2 2586   0.221   0.508   3.327  0.2203  0.0254  1.1617
    1SOL    HW3 2587   0.274   0.565   3.456  0.1451  1.4706  0.5662
    1SOL    MW4 2588   0.243   0.576   3.376  0.3571  0.5683  0.3521
    1SOL     OW 2589   3.821   2.952   2.517 -0.4042  0.1381  0.3685
    1SOL    HW2 2590   3.839   3.044   2.536 -0.5412  0.2732 -0.1597
    1SOL    HW3 2591   3.890   2.926   2.456 -0.3798 -0.1065  0.4984
    1SOL    MW4 2592   3.832   2.961   2.512 -0.4189  0.1237  0.3159
    1SOL     OW 2593   1.845   3.733   1.118 -0.1911  0.0020 -0.0600
    1SOL    HW2 2594   1.788   3.801   1.153 -0.4689 -0.1752 -0.1613
    1SOL    HW3 2595   1.810   3.715   1.030  0.6811  0.6497 -0.5453
    1SOL    MW4 2596   1.833   3.739   1.111 -0.1125  0.0637 -0.1374
    1SOL     OW 2597   4.151   3.145   2.367 -0.6540 -0.0628  0.1381
    1SOL    HW2 2598   4.145   3.153   2.462 -0.0241 -0.9939  0.2663
    1SOL    HW3 2599   4.239   3.176   2.346 -0.9771  0.6442 -0.2104
    1SOL    MW4 2600   4.162   3.150   2.377 -0.6132 -0.0923  0.1090
    1SOL     OW 2601   4.448   3.269   1.903 -0.1117  0.1612  0.1169
    1SOL    HW2 2602   4.520   3.211   1.878 -0.9265 -0.5533 -0.6121
    1SOL    HW3 2603   4.380   3.210   1.934 -0.3852  0.8362  0.8096
    1SOL    MW4 2604   4.449   3.254   1.903 -0.2551  0.1559  0.1122
    1SOL     OW 2605   1.438   0.519   1.412 -0.4885 -0.3775 -0.2613
    1SOL    HW2 2606   1.533   0.504   1.409 -0.2743  1.1168 -1.7193
    1SOL    HW3 2607   1.402   0.451   1.355 -0.2368 -0.3963 -0.4001
    1SOL    MW4 2608   1.446   0.508   1.404 -0.4270 -0.1829 -0.4719
    1SOL     OW 2609   3.710   2.012   0.590 -0.1687  0.0649 -0.4356
    1SOL    HW2 2610   3.764   2.081   0.627  0.8129  0.1326 -1.9634
    1SOL    HW3 2611   3.622   2.049   0.588 -0.1467  0.2681  1.2605
    1SOL    MW4 2612   3.706   2.026   0.595 -0.0365  0.1006 -0.4134
    1SOL     OW 2613   3.406   0.079   2.539  0.4684  0.3793  0.5266
    1SOL    HW2 2614   3.426   0.126   2.458 -1.0571  1.6515  0.8648
    1SOL    HW3 2615   3.490   0.070   2.583  0.9873  1.6135 -0.1816
    1SOL    MW4 2616   3.420   0.084   2.534  0.3357  0.7100  0.4778
    1SOL     OW 2617   3.475   0.740   2.842  0.2677  0.8383 -0.6962
    1SOL    HW2 2618   3.414   0.671   2.867 -0.6800  0.7846 -3.0205
    1SOL    HW3 2619   3.506   0.776   2.925 -2.5227  0.5053  0.5583
    1SOL    MW4 2620   3.471   0.736   2.856 -0.2253  0.7873 -0.8373
    1SOL     OW 2621   3.851   4.015   2.994  0.1722 -0.0324  0.1230
    1SOL    HW2 2622   3.883   4.063   3.071 -0.7684  1.0076 -0.1160
    1SOL    HW3 2623   3.926   4.012   2.935  0.5172  0.3236  0.5317
    1SOL    MW4 2624   3.865   4.021   2.997  0.0939  0.1512  0.1452
    1SOL     OW 2625   3.824   2.204   1.760 -0.2948  0.2349 -0.2838
    1SOL    HW2 2626   3.894   2.149   1.726  0.8328  1.2278  0.3863
    1SOL    HW3 2627   3.823   2.185   1.854 -0.2803  0.9249 -0.1415
    1SOL    MW4 2628   3.833   2.195   1.768 -0.1442  0.4568 -0.1767
    1SOL     OW 2629   0.396   3.096   3.024  0.4307 -0.0863 -0.1540
    1SOL    HW2 2630   0.482   3.137   3.038  0.0088  0.5725  0.5609
    1SOL    HW3 2631   0.407   3.006   3.054  1.4165 -0.5507 -1.8867
    1SOL    MW4 2632   0.409   3.090   3.030  0.5051 -0.0608 -0.2885
    1SOL     OW 2633   0.898   4.147   2.232 -0.6011  0.5017  0.2745
    1SOL    HW2 2634   0.876   4.166   2.323  0.4918  1.1814  0.4093
    1SOL    HW3 2635   0.989   4.176   2.223 -0.0396 -1.3975 -0.4832
    1SOL    MW4 2636   0.907   4.153   2.242 -0.3828  0.3409  0.1926
    1SOL     OW 2637   2.122   1.533   0.705 -0.4000  0.2779 -0.3869
    1SOL    HW2 2638   2.082   1.447   0.692 -2.1209  0.6817  1.9760
    1SOL    HW3 2639   2.216   1.515   0.710 -0.7393 -1.4469  0.0057
    1SOL    MW4 2640   2.129   1.519   0.704 -0.6716  0.1036 -0.0234
    1SOL     OW 2641   2.109   2.683   0.750  0.5572  0.4286  0.2715
    1SOL    HW2 2642   2.043   2.718   0.810  0.1268  0.1838 -0.0524
    1SOL    HW3 2643   2.058   2.656   0.673  0.7763 -1.6230  0.8309
    1SOL    MW4 2644   2.093   2.684   0.748  0.5291  0.1259  0.3026
    1SOL     OW 2645   1.509   2.166   1.242 -0.4923  0.0901 -0.1255
    1SOL    HW2 2646   1.472   2.118   1.169 -2.4923  3.2705 -1.2665
    1SOL    HW3 2647   1.439   2.169   1.307  0.1747  0.1126  0.6087
    1SOL    MW4 2648   1.495   2.160   1.241 -0.6683  0.5128 -0.1792
    1SOL     OW 2649   0.136   4.601   3.953  0.2126  0.6226  0.1868
    1SOL    HW2 2650   0.193   4.557   3.891 -0.3107 -2.1389  1.5647
    1SOL    HW3 2651   0.062   4.540   3.965 -1.1180  2.4046  1.2812
    1SOL    MW4 2652   0.133   4.587   3.947 -0.0320  0.4926  0.5131
    1SOL     OW 2653   1.399   1.782   4.612 -0.2147 -0.1872  0.0350
    1SOL    HW2 2654   1.489   1.812   4.624 -0.3299  0.5997 -1.0581
    1SOL    HW3 2655   1.403   1.726   4.534  0.1320 -3.5826  2.4021
    1SOL    MW4 2656   1.411   1.778   4.603 -0.1843 -0.5313  0.2036
    1SOL     OW 2657   4.151   2.055   1.082  0.0634 -0.0920  0.1366
    1SOL    HW2 2658   4.165   1.960   1.083  0.9841  0.0100 -1.5975
    1SOL    HW3 2659   4.228   2.091   1.038  0.1231  1.5517  1.5275
    1SOL    MW4 2660   4.163   2.047   1.076  0.1926  0.1383  0.0913
    1SOL     OW 2661   1.088   3.818   4.793 -0.5403  0.7877 -0.0733
    1SOL    HW2 2662   1.059   3.818   4.884  0.7274  1.1408  0.3400
    1SOL    HW3 2663   1.081   3.726   4.766  1.3150  0.2841  1.1165
    1SOL    MW4 2664   1.083   3.806   4.801 -0.1283  0.7679  0.1378
    1SOL     OW 2665   4.454   2.948   2.535  0.4021 -0.1418  0.4378
    1SOL    HW2 2666   4.523   2.894   2.497  0.2487  1.3715 -2.0638
    1SOL    HW3 2667   4.492   3.036   2.538 -1.1113  0.5495 -0.1898
    1SOL    MW4 2668   4.468   2.953   2.531  0.1822  0.1493  0.0250
    1SOL     OW 2669   0.378   2.412   3.920  0.7519 -0.0448 -0.0938
    1SOL    HW2 2670   0.428   2.441   3.844  1.1078  1.5374  0.7239
    1SOL    HW3 2671   0.300   2.467   3.919  0.0716 -0.9948 -0.1086
    1SOL    MW4 2672   0.374   2.423   3.910  0.7091  0.0384  0.0119
    1SOL     OW 2673   2.183   3.769   2.665 -0.0628 -1.0229  0.5455
    1SOL    HW2 2674   2.116   3.722   2.715  1.4756 -3.2666  0.6103
    1SOL    HW3 2675   2.213   3.705   2.600  0.4546  0.6803 -0.9135
    1SOL    MW4 2676   2.178   3.754   2.663  0.2084 -1.0941  0.3614
    1SOL     OW 2677   1.160   1.307   4.671  0.0233  0.3926  0.4520
    1SOL    HW2 2678   1.066   1.287   4.662  0.3446 -0.1988 -1.9075
    1SOL    HW3 2679   1.171   1.390   4.626  0.4912  0.8994  1.4940
    1SOL    MW4 2680   1.149   1.315   4.664  0.1273  0.3812  0.2785
    1SOL     OW 2681   3.273   2.938   0.754 -0.0784 -0.0962 -0.0577
    1SOL    HW2 2682   3.331   3.008   0.783 -0.0511 -0.0607 -0.1948
    1SOL    HW3 2683   3.269   2.877   0.828  0.2535 -0.1740 -0.1044
    1SOL    MW4 2684   3.280   2.939   0.767 -0.0310 -0.1020 -0.0820
    1SOL     OW 2685   2.540   1.029   2.750  0.5694  0.2072  0.1929
    1SOL    HW2 2686   2.455   1.062   2.722 -0.0208 -1.0535  0.4680
    1SOL    HW3 2687   2.603   1.086   2.706 -0.3992  0.6105 -0.6999
    1SOL    MW4 2688   2.537   1.041   2.741  0.3638  0.0941  0.1116
    1SOL     OW 2689   1.859   1.166   2.064  0.3895 -0.1787 -0.3923
    1SOL    HW2 2690   1.774   1.209   2.055  1.1072  1.2947 -0.3554
    1SOL    HW3 2691   1.863   1.104   1.991 -0.5716 -0.0245 -0.5808
    1SOL    MW4 2692   1.849   1.164   2.053  0.3573  0.0359 -0.4122
    1SOL     OW 2693   0.581   2.171   3.857  0.1365 -0.2119 -0.0192
    1SOL    HW2 2694   0.642   2.243   3.849  0.7239 -0.6692  0.3249
    1SOL    HW3 2695   0.635   2.092   3.854 -0.5744 -0.6735 -1.2223
    1SOL    MW4 2696   0.596   2.170   3.856  0.1202 -0.3328 -0.1326
    1SOL     OW 2697   3.689   0.994   3.313  0.0127  0.5259 -0.1912
    1SOL    HW2 2698   3.654   1.048   3.384  0.4624 -0.5483  0.8652
    1SOL    HW3 2699   3.732   1.056   3.255 -0.5086  1.4399  0.3779
    1SOL    MW4 2700   3.690   1.009   3.315  0.0033  0.5047  0.0234
    1SOL     OW 2701   1.352   1.149   4.573 -0.2836  0.0213  0.5022
    1SOL    HW2 2702   1.283   1.199   4.617  0.1004  1.3480 -0.3751
    1SOL    HW3 2703   1.352   1.064   4.617 -0.1844  1.1713  2.7715
    1SOL    MW4 2704   1.343   1.145   4.585 -0.2199  0.3481  0.6857
    1SOL     OW 2705   1.848   2.227   1.990  0.4294 -0.4264  0.0787
    1SOL    HW2 2706   1.849   2.294   2.059  0.7600  0.5169 -0.8452
    1SOL    HW3 2707   1.913   2.163   2.019  0.6714  0.0337  0.5817
    1SOL    MW4 2708   1.857   2.228   2.003  0.5049 -0.2410  0.0231
    1SOL     OW 2709   1.007   1.035   3.541  0.2035 -0.1470 -0.6706
    1SOL    HW2 2710   1.006   0.942   3.562 -0.4865 -0.3142 -1.4155
    1SOL    HW3 2711   0.949   1.075   3.606  0.6832 -0.2045 -0.2072
    1SOL    MW4 2712   0.999   1.028   3.552  0.1758 -0.1765 -0.7079
    1SOL     OW 2713   3.743   1.201   3.790 -0.0400 -0.2539  0.3329
    1SOL    HW2 2714   3.726   1.293   3.770  0.2738 -0.6334 -1.7754
    1SOL    HW3 2715   3.809   1.203   3.859 -1.2768  1.1021  1.5255
    1SOL    MW4 2716   3.749   1.214   3.797 -0.1616 -0.1251  0.2124
    1SOL     OW 2717   4.086   1.386   3.727 -0.0614 -0.2097  0.1754
    1SOL    HW2 2718   4.173   1.379   3.689 -0.0697  0.4918  0.0195
    1SOL    HW3 2719   4.040   1.447   3.669  0.3552  2.0354  2.1134
    1SOL    MW4 2720   4.091   1.393   3.714 -0.0076  0.1789  0.4106
    1SOL     OW 2721   0.616   0.134   1.901 -0.6238 -0.2589 -0.0232
    1SOL    HW2 2722   0.572   0.064   1.854 -0.6563 -1.7748  2.1923
    1SOL    HW3 2723   0.698   0.094   1.932  0.0187  1.0897  0.0419
    1SOL    MW4 2724   0.621   0.120   1.899 -0.5432 -0.2810  0.2776
    1SOL     OW 2725   1.138   1.945   2.195 -0.2248 -0.0760 -0.4800
    1SOL    HW2 2726   1.196   1.875   2.165 -0.9371 -1.2934  0.9713
    1SOL    HW3 2727   1.059   1.936   2.142 -0.2192 -0.2269 -0.4626
    1SOL    MW4 2728   1.135   1.935   2.184 -0.3181 -0.2564 -0.2861
    1SOL     OW 2729   4.007   1.051   4.468  0.1883 -0.2592  0.5848
    1SOL    HW2 2730   3.968   1.084   4.387 -1.1994 -0.5328  1.1237
    1SOL    HW3 2731   4.099   1.078   4.464 -0.3991  1.7273 -0.0051
    1SOL    MW4 2732   4.014   1.059   4.457 -0.0725 -0.0331  0.5779
    1SOL     OW 2733   3.748   0.303   1.152  0.4506 -0.0516 -0.4184
    1SOL    HW2 2734   3.736   0.276   1.060  0.3145  1.5876 -0.8928
    1SOL    HW3 2735   3.785   0.391   1.146  0.6159 -0.0124  1.1141
    1SOL    MW4 2736   3.751   0.311   1.139  0.4542  0.1698 -0.2788
    1SOL     OW 2737   2.229   2.433   4.400  0.5588 -0.1790 -0.2578
    1SOL    HW2 2738   2.196   2.438   4.311  0.3411  0.0834 -0.1618
    1SOL    HW3 2739   2.324   2.428   4.389  0.4816 -1.1318 -0.5357
    1SOL    MW4 2740   2.238   2.433   4.387  0.5198 -0.2701 -0.2818
    1SOL     OW 2741   3.015   3.082   0.688  0.0398  0.0864 -0.5260
    1SOL    HW2 2742   3.100   3.043   0.708 -0.4965 -1.2030 -0.7132
    1SOL    HW3 2743   3.014   3.164   0.738  0.4883 -0.9606  1.2529
    1SOL    MW4 2744   3.026   3.087   0.697  0.0281 -0.2217 -0.3160
    1SOL     OW 2745   0.700   4.523   1.037 -0.0137 -0.1197 -0.0458
    1SOL    HW2 2746   0.687   4.570   1.119  1.0257 -1.5948  0.9953
    1SOL    HW3 2747   0.611   4.510   1.003 -0.4010  1.1311  0.4832
    1SOL    MW4 2748   0.686   4.527   1.044  0.0723 -0.1493  0.1614
    1SOL     OW 2749   3.068   3.204   1.939  0.0433 -0.2050 -0.2809
    1SOL    HW2 2750   3.152   3.221   1.981 -0.1124 -0.3342  0.0863
    1SOL    HW3 2751   3.088   3.147   1.865  0.5239  1.1705 -1.2558
    1SOL    MW4 2752   3.081   3.199   1.935  0.0863 -0.0410 -0.3611
    1SOL     OW 2753   1.392   2.998   1.835  0.1729 -0.3840 -0.0668
    1SOL    HW2 2754   1.366   2.907   1.824 -0.0605 -0.2007 -1.0794
    1SOL    HW3 2755   1.316   3.049   1.804  1.0470  0.1515 -1.3542
    1SOL    MW4 2756   1.378   2.993   1.829  0.2576 -0.2892 -0.3703
    1SOL     OW 2757   1.610   3.556   2.376  0.3511  0.4241 -0.2699
    1SOL    HW2 2758   1.552   3.605   2.434  0.6171  0.6318 -0.1775
    1SOL    HW3 2759   1.594   3.592   2.289 -0.5503 -0.3548 -0.4392
    1SOL    MW4 2760   1.600   3.567   2.372  0.2671  0.3488 -0.2801
    1SOL     OW 2761   2.378   2.672   0.701  0.3902 -0.4637  0.2302
    1SOL    HW2 2762   2.286   2.679   0.726  0.2176 -2.1109  0.0884
    1SOL    HW3 2763   2.403   2.762   0.679 -1.7656 -0.2862 -1.7940
    1SOL    MW4 2764   2.369   2.685   0.701  0.0827 -0.6573 -0.0556
    1SOL     OW 2765   3.430   2.434   1.341  0.2951  0.8249  0.4775
    1SOL    HW2 2766   3.385   2.355   1.311 -0.5569  1.0883  1.0436
    1SOL    HW3 2767   3.364   2.482   1.390  1.1124  1.3760  1.0490
    1SOL    MW4 2768   3.415   2.430   1.343  0.2906  0.9325  0.6275
    1SOL     OW 2769   0.887   1.408   0.834  0.3905 -0.0382  0.2221
    1SOL    HW2 2770   0.939   1.456   0.899  1.4200 -2.0951  0.9710
    1SOL    HW3 2771   0.827   1.355   0.886 -0.4806  0.1666 -0.5761
    1SOL    MW4 2772   0.886   1.407   0.849  0.4114 -0.2825  0.2156
    1SOL     OW 2773   1.607   1.522   3.420  0.1576  0.2380 -0.0211
    1SOL    HW2 2774   1.514   1.538   3.440  0.6643  1.2203  1.6754
    1SOL    HW3 2775   1.629   1.445   3.473  0.6159  0.7509  0.5437
    1SOL    MW4 2776   1.597   1.514   3.430  0.2849  0.4354  0.2773
    1SOL     OW 2777   0.324   0.235   3.009  0.3294 -0.5065  0.4788
    1SOL    HW2 2778   0.420   0.236   3.014  0.4512  0.0996 -1.5485
    1SOL    HW3 2779   0.305   0.253   2.917 -1.7855  2.5589  1.4376
    1SOL    MW4 2780   0.334   0.238   2.998  0.0665 -0.0221  0.3378
    1SOL     OW 2781   2.976   1.839   2.807 -0.0755 -0.2243  0.2370
    1SOL    HW2 2782   3.037   1.795   2.866 -0.8731 -0.8765  0.5798
    1SOL    HW3 2783   3.002   1.932   2.812  0.4308 -0.3935  0.9235
    1SOL    MW4 2784   2.988   1.846   2.816 -0.1140 -0.3326  0.3726
    1SOL     OW 2785   0.255   3.187   1.992  0.2713 -0.8958  0.1335
    1SOL    HW2 2786   0.290   3.115   1.940 -0.6644 -1.4132  0.1996
    1SOL    HW3 2787   0.219   3.145   2.070  0.1235 -0.3068  0.3880
    1SOL    MW4 2788   0.255   3.172   1.995  0.1283 -0.8864  0.1758
    1SOL     OW 2789   1.019   0.727   2.768  0.3525  0.0308 -0.1017
    1SOL    HW2 2790   1.052   0.806   2.726  0.0097 -0.2266 -0.8782
    1SOL    HW3 2791   1.050   0.656   2.712  1.5540 -0.4693  1.1693
    1SOL    MW4 2792   1.027   0.728   2.755  0.4658 -0.0691 -0.0360
    1SOL     OW 2793   1.939   3.751   4.285  0.3175 -0.2333 -0.1331
    1SOL    HW2 2794   1.883   3.751   4.207  0.7463  0.4738 -0.4453
    1SOL    HW3 2795   1.942   3.660   4.312 -1.4343 -0.2103  0.2051
    1SOL    MW4 2796   1.932   3.739   4.278  0.1429 -0.1369 -0.1302
    1SOL     OW 2797   0.715   3.425   3.010  0.1083 -0.3282 -0.1341
    1SOL    HW2 2798   0.693   3.398   2.920 -1.8300 -0.8081  0.4473
    1SOL    HW3 2799   0.673   3.359   3.065  1.3228 -0.0599  1.1282
    1SOL    MW4 2800   0.706   3.413   3.005  0.0128 -0.3562  0.1087
    1SOL     OW 2801   2.278   3.970   0.512  0.1207  0.2365  0.1229
    1SOL    HW2 2802   2.324   4.047   0.479 -0.8019  0.9194  0.4270
    1SOL    HW3 2803   2.197   4.004   0.551  0.5243 -0.6915  1.8371
    1SOL    MW4 2804   2.273   3.985   0.513  0.0520  0.2041  0.3892
    1SOL     OW 2805   2.701   2.274   4.125  0.1791  0.1646 -0.0739
    1SOL    HW2 2806   2.712   2.182   4.149 -0.1629  1.0124  3.8186
    1SOL    HW3 2807   2.609   2.281   4.099  0.7472 -0.9627 -2.5344
    1SOL    MW4 2808   2.690   2.263   4.125  0.2086  0.1278  0.1149
    1SOL     OW 2809   2.938   1.153   3.307 -0.2874  0.0178  0.1338
    1SOL    HW2 2810   2.851   1.184   3.330 -0.7451 -0.6786 -0.6442
    1SOL    HW3 2811   2.923   1.087   3.239  0.8105 -0.4085  0.2966
    1SOL    MW4 2812   2.925   1.149   3.301 -0.2027 -0.1303  0.0527
    1SOL     OW 2813   1.358   3.544   0.865  0.5612 -0.2718 -0.5034
    1SOL    HW2 2814   1.304   3.516   0.939 -0.5248  2.2387 -0.2927
    1SOL    HW3 2815   1.350   3.473   0.801 -1.5450 -0.7661  0.2729
    1SOL    MW4 2816   1.350   3.531   0.866  0.1401 -0.0060 -0.3732
    1SOL     OW 2817   1.667   1.093   0.352 -0.3302  0.1103  0.1444
    1SOL    HW2 2818   1.719   1.151   0.296  0.2905  0.0494  0.6613
    1SOL    HW3 2819   1.641   1.148   0.426  0.9747 -0.4991  1.0649
    1SOL    MW4 2820   1.670   1.108   0.354 -0.0762  0.0218  0.3341
    1SOL     OW 2821   2.688   4.042   2.421  0.0573 -0.1699  0.3870
    1SOL    HW2 2822   2.696   4.026   2.327 -0.7513  0.1821  0.2540
    1SOL    HW3 2823   2.623   3.978   2.451 -1.7848  1.5561  0.1896
    1SOL    MW4 2824   2.680   4.031   2.412 -0.2925  0.1035  0.3431
    1SOL     OW 2825   0.303   2.445   2.861  0.5270  0.3281  0.1904
    1SOL    HW2 2826   0.336   2.469   2.947 -0.0418  0.2997  0.4210
    1SOL    HW3 2827   0.237   2.513   2.842 -0.4792 -0.5569  0.4734
    1SOL    MW4 2828   0.299   2.457   2.870  0.3193  0.2074  0.2580
    1SOL     OW 2829   1.359   2.027   4.483  0.5698 -0.4659 -0.3507
    1SOL    HW2 2830   1.362   1.938   4.519 -2.8552 -0.6341 -0.2863
    1SOL    HW3 2831   1.328   2.015   4.393  1.8664  0.5489 -0.9477
    1SOL    MW4 2832   1.355   2.014   4.476  0.2891 -0.3538 -0.4206
    1SOL     OW 2833   2.446   2.370   4.126 -0.4044 -0.4983  0.1650
    1SOL    HW2 2834   2.379   2.312   4.162 -0.2369 -0.0117  1.2775
    1SOL    HW3 2835   2.399   2.451   4.107 -0.1972 -0.2600  0.6610
    1SOL    MW4 2836   2.431   2.373   4.128 -0.3548 -0.4027  0.3772
    1SOL     OW 2837   2.887   2.867   3.077  0.2097  0.8221 -0.1222
    1SOL    HW2 2838   2.794   2.886   3.064  0.0423  2.2617  2.9795
    1SOL    HW3 2839   2.888   2.778   3.113  0.0254  0.8507 -0.0451
    1SOL    MW4 2840   2.875   2.857   3.080  0.1631  1.0161  0.2973
    1SOL     OW 2841   0.772   2.837   0.605 -0.4707 -0.2246  0.2091
    1SOL    HW2 2842   0.803   2.823   0.515  0.0681  0.7792  0.2271
    1SOL    HW3 2843   0.759   2.749   0.640  2.3075 -0.6854  0.1686
    1SOL    MW4 2844   0.774   2.824   0.597 -0.0330 -0.1531  0.2062
    1SOL     OW 2845   2.423   2.796   1.259  0.2767 -0.7721 -0.0048
    1SOL    HW2 2846   2.477   2.723   1.290  0.1073 -0.7021  0.4704
    1SOL    HW3 2847   2.381   2.830   1.339  1.0656  0.4258 -0.0917
    1SOL    MW4 2848   2.425   2.791   1.274  0.3583 -0.6049  0.0464
    1SOL     OW 2849   0.374   1.680   2.934 -0.5731  0.3719 -0.3534
    1SOL    HW2 2850   0.456   1.718   2.965 -0.3952  0.0820 -0.4584
    1SOL    HW3 2851   0.380   1.685   2.839  0.4355 -1.8940 -0.4626
    1SOL    MW4 2852   0.386   1.686   2.926 -0.4166  0.0346 -0.3819
    1SOL     OW 2853   1.215   1.267   3.938  0.0780  0.1201  0.1697
    1SOL    HW2 2854   1.203   1.330   4.009 -0.5509 -0.6729  0.7869
    1SOL    HW3 2855   1.140   1.208   3.946  0.3591 -0.3720 -0.7436
    1SOL    MW4 2856   1.204   1.267   3.948  0.0321 -0.0496  0.1309
    1SOL     OW 2857   2.595   1.218   2.307  0.5732  0.1177  0.1337
    1SOL    HW2 2858   2.580   1.288   2.244 -0.5080  0.1593  0.4240
    1SOL    HW3 2859   2.629   1.146   2.254 -0.6500  0.0352 -0.5821
    1SOL    MW4 2860   2.597   1.217   2.291  0.2689  0.1123  0.0772
    1SOL     OW 2861   2.799   1.143   3.624 -0.4723  0.3038  0.3765
    1SOL    HW2 2862   2.863   1.214   3.628 -0.4061  0.3234 -0.7492
    1SOL    HW3 2863   2.812   1.094   3.705  1.4773 -0.1169 -0.1415
    1SOL    MW4 2864   2.809   1.146   3.635 -0.2062  0.2509  0.1597
    1SOL     OW 2865   1.136   3.751   0.520 -0.2343 -0.4971 -0.8288
    1SOL    HW2 2866   1.139   3.834   0.473  3.6430 -1.0751 -1.7319
    1SOL    HW3 2867   1.150   3.775   0.612  1.1111 -0.1399 -1.1185
    1SOL    MW4 2868   1.138   3.765   0.526  0.4547 -0.5262 -0.9862
    1SOL     OW 2869   2.385   3.754   1.652 -0.3761 -0.0850 -0.3753
    1SOL    HW2 2870   2.321   3.772   1.722  1.8019  0.0367  1.6478
    1SOL    HW3 2871   2.433   3.836   1.643  2.0338 -1.3238  0.8374
    1SOL    MW4 2872   2.383   3.768   1.660  0.2291 -0.2327  0.0517
    1SOL     OW 2873   2.365   1.787   4.003  0.0234  0.5479  0.2379
    1SOL    HW2 2874   2.318   1.871   3.997 -0.6071  0.2025  0.3483
    1SOL    HW3 2875   2.457   1.812   4.006 -0.0008  1.1493 -2.4632
    1SOL    MW4 2876   2.371   1.802   4.003 -0.0634  0.5815 -0.1040
    1SOL     OW 2877   3.433   2.607   0.892  0.5556  0.0190  0.0290
    1SOL    HW2 2878   3.401   2.683   0.940  2.1002  0.2507  0.7150
    1SOL    HW3 2879   3.486   2.644   0.821  1.5645 -0.4295  0.5525
    1SOL    MW4 2880   3.436   2.622   0.889  0.8924 -0.0098  0.1886
    1SOL     OW 2881   4.289   3.231   1.182  0.3791  0.5400  0.1811
    1SOL    HW2 2882   4.244   3.179   1.249 -1.0982  0.9875 -0.4265
    1SOL    HW3 2883   4.310   3.169   1.113  0.1029  0.4298  0.1932
    1SOL    MW4 2884   4.286   3.216   1.182  0.1478  0.5846  0.1025
    1SOL     OW 2885   1.245   4.000   1.203 -0.2472 -0.1192 -0.2606
    1SOL    HW2 2886   1.177   3.996   1.137 -0.0814  0.2141 -0.4532
    1SOL    HW3 2887   1.288   3.914   1.198 -0.1929 -0.0727 -0.6322
    1SOL    MW4 2888   1.242   3.988   1.194 -0.2182 -0.0689 -0.3350
    1SOL     OW 2889   0.611   0.010   3.609  0.3512 -0.5670 -0.0948
    1SOL    HW2 2890   0.704  -0.006   3.627  0.2486 -1.8716 -0.6711
    1SOL    HW3 2891   0.603   0.001   3.514 -0.3888 -0.5859 -0.0307
    1SOL    MW4 2892   0.622   0.007   3.599  0.2400 -0.7416 -0.1624
    1SOL     OW 2893   3.587   2.054   1.608  1.2692 -0.0531  0.0931
    1SOL    HW2 2894   3.522   2.028   1.673 -0.9612  1.2786 -1.5149
    1SOL    HW3 2895   3.616   2.141   1.636 -2.2760  2.1039 -2.3935
    1SOL    MW4 2896   3.582   2.062   1.620  0.5071  0.4072 -0.4472
    1SOL     OW 2897   3.105   1.465   3.945 -0.4525 -0.5489  0.0955
    1SOL    HW2 2898   3.127   1.538   4.003 -0.7334 -0.3326 -0.0756
    1SOL    HW3 2899   3.045   1.410   3.996  0.1887 -0.9537  0.4305
    1SOL    MW4 2900   3.100   1.467   3.959 -0.4053 -0.5738  0.1171
    1SOL     OW 2901   4.066   1.972   0.614 -0.4037 -0.3987 -0.2572
    1SOL    HW2 2902   4.013   1.936   0.544  0.3572 -1.9808 -0.0436
    1SOL    HW3 2903   4.015   2.045   0.648 -1.5997 -0.7640 -1.2434
    1SOL    MW4 2904   4.053   1.977   0.609 -0.4606 -0.6557 -0.3591
    1SOL     OW 2905   3.517   1.907   2.197  0.2130 -0.1032  0.5358
    1SOL    HW2 2906   3.463   1.834   2.167 -1.1247  0.2031  2.1316
    1SOL    HW3 2907   3.462   1.985   2.185  0.9623  0.4275  0.5096
    1SOL    MW4 2908   3.503   1.908   2.191  0.1352  0.0073  0.7427
    1SOL     OW 2909   0.263   1.436   3.789 -0.1172  0.1258 -0.0159
    1SOL    HW2 2910   0.311   1.414   3.710  1.4172  0.9893  0.6642
    1SOL    HW3 2911   0.266   1.357   3.843 -0.3237 -0.1409 -0.3969
    1SOL    MW4 2912   0.269   1.423   3.786  0.0580  0.2043  0.0236
    1SOL     OW 2913   2.006   3.440   3.248 -0.3728  0.5545 -0.7211
    1SOL    HW2 2914   1.973   3.393   3.325  0.1642  0.0725 -0.7833
    1SOL    HW3 2915   2.096   3.463   3.270 -0.3175  0.6846 -1.0811
    1SOL    MW4 2916   2.013   3.437   3.261 -0.2947  0.5081 -0.7768
    1SOL     OW 2917   1.568   3.440   2.011  0.5722  0.6624 -0.0586
    1SOL    HW2 2918   1.634   3.371   2.008 -0.6802 -0.5870  0.5698
    1SOL    HW3 2919   1.500   3.406   2.070 -0.5377  2.0129 -0.5266
    1SOL    MW4 2920   1.568   3.426   2.019  0.2605  0.6759 -0.0374
    1SOL     OW 2921   3.007   2.402   0.555 -0.1773  0.3620 -0.2836
    1SOL    HW2 2922   3.020   2.492   0.524 -0.0610  0.9604  1.4740
    1SOL    HW3 2923   3.095   2.364   0.554  0.0789  0.9046  0.8819
    1SOL    MW4 2924   3.021   2.409   0.551 -0.1278  0.5124  0.1021
    1SOL     OW 2925   1.062   1.231   3.124  0.2885 -0.1053  0.3535
    1SOL    HW2 2926   1.025   1.155   3.169  1.1286 -0.4549  0.4578
    1SOL    HW3 2927   1.108   1.279   3.193  0.7353 -0.1132  0.0571
    1SOL    MW4 2928   1.063   1.227   3.139  0.4582 -0.1525  0.3281
    1SOL     OW 2929   3.935   1.922   4.058  0.2909  0.3972 -0.3665
    1SOL    HW2 2930   4.017   1.922   4.108  0.2990  0.9288 -0.3747
    1SOL    HW3 2931   3.939   1.842   4.005  1.8648  1.5972 -2.1115
    1SOL    MW4 2932   3.946   1.911   4.058  0.4997  0.6256 -0.5975
    1SOL     OW 2933   2.563   4.310   2.221 -0.2598  0.2207  0.2213
    1SOL    HW2 2934   2.498   4.291   2.289 -0.1194 -1.9438 -0.2032
    1SOL    HW3 2935   2.513   4.312   2.140 -0.0223 -0.0433  0.0643
    1SOL    MW4 2936   2.548   4.307   2.220 -0.2098 -0.0992  0.1445
    1SOL     OW 2937   3.715   4.206   2.878  0.3904 -0.0488  0.2968
    1SOL    HW2 2938   3.769   4.143   2.925  1.6508  1.2855  0.6795
    1SOL    HW3 2939   3.777   4.271   2.845 -0.8738  0.9779 -0.0991
    1SOL    MW4 2940   3.730   4.207   2.880  0.3901  0.2627  0.2952
    1SOL     OW 2941   4.095   0.423   1.542 -0.1311  0.0106  0.1102
    1SOL    HW2 2942   4.055   0.385   1.620 -0.0386 -0.2302  0.0426
    1SOL    HW3 2943   4.181   0.380   1.536 -0.7852 -1.1618 -1.0322
    1SOL    MW4 2944   4.101   0.412   1.552 -0.2050 -0.1759 -0.0494
    1SOL     OW 2945   1.908   4.617   1.676  0.1513  0.6117 -0.5085
    1SOL    HW2 2946   1.858   4.642   1.599  0.3328  2.8360  0.0612
    1SOL    HW3 2947   1.858   4.653   1.750  0.5378 -0.5623  0.3459
    1SOL    MW4 2948   1.895   4.625   1.676  0.2261  0.7501 -0.3206
    1SOL     OW 2949   0.108   0.436   4.006 -0.1465 -0.4033 -0.1770
    1SOL    HW2 2950   0.035   0.440   3.944 -0.1032 -0.5540 -0.2381
    1SOL    HW3 2951   0.067   0.422   4.091 -0.0692 -2.7920 -0.5006
    1SOL    MW4 2952   0.093   0.435   4.009 -0.1306 -0.7383 -0.2279
    1SOL     OW 2953   0.795   2.284   1.246  0.2362 -0.2370 -0.0817
    1SOL    HW2 2954   0.775   2.192   1.264  0.8420 -0.4786 -0.6087
    1SOL    HW3 2955   0.882   2.282   1.206 -0.0239  0.5056 -0.6997
    1SOL    MW4 2956   0.804   2.272   1.243  0.2818 -0.1709 -0.2328
    1SOL     OW 2957   0.490   1.643   1.739 -0.3897  0.1156  0.1484
    1SOL    HW2 2958   0.548   1.719   1.730 -1.3021  0.8064  0.0843
    1SOL    HW3 2959   0.408   1.679   1.773 -0.2741 -1.0879  1.7371
    1SOL    MW4 2960   0.487   1.658   1.742 -0.4948  0.0478  0.3495
    1SOL     OW 2961   2.342   1.342   4.223  0.2985 -0.6148 -0.4828
    1SOL    HW2 2962   2.275   1.290   4.179 -0.5436  0.4310 -0.4709
    1SOL    HW3 2963   2.415   1.345   4.161  0.3405 -1.7610 -0.4919
    1SOL    MW4 2964   2.343   1.336   4.209  0.1929 -0.6280 -0.4826
    1SOL     OW 2965   0.060   0.880   2.018  0.6667 -0.1845 -0.1403
    1SOL    HW2 2966   0.083   0.841   2.102 -0.7925 -1.9319 -0.5010
    1SOL    HW3 2967   0.122   0.841   1.956  0.9504  0.1526 -0.0673
    1SOL    MW4 2968   0.071   0.869   2.021  0.5116 -0.3706 -0.1783
    1SOL     OW 2969   2.386   4.462   0.561 -0.1064  0.1136 -0.3360
    1SOL    HW2 2970   2.425   4.388   0.515 -1.5777 -0.5347 -0.5699
    1SOL    HW3 2971   2.328   4.422   0.626  0.5635  1.0428  0.8758
    1SOL    MW4 2972   2.384   4.447   0.564 -0.2122  0.1507 -0.2069
    1SOL     OW 2973   4.074   2.857   1.824 -0.0062  0.0880  0.1469
    1SOL    HW2 2974   4.034   2.921   1.883 -1.6539  0.0904 -0.9501
    1SOL    HW3 2975   4.132   2.806   1.881 -2.7741 -0.9899  2.1293
    1SOL    MW4 2976   4.076   2.859   1.839 -0.5884 -0.0539  0.2638
    1SOL     OW 2977   0.369   4.518   1.385  0.2120 -0.3682  0.3673
    1SOL    HW2 2978   0.309   4.450   1.354  0.3565 -0.2124 -0.2771
    1SOL    HW3 2979   0.341   4.537   1.474  0.8220 -2.0423  0.9477
    1SOL    MW4 2980   0.358   4.511   1.393  0.3115 -0.5689  0.3589
    1SOL     OW 2981   1.569   0.978   1.948 -0.3833 -0.6407 -0.0700
    1SOL    HW2 2982   1.532   1.025   1.873 -0.3478 -0.1982  0.1883
    1SOL    HW3 2983   1.504   0.911   1.969 -1.3971  0.6081  0.8521
    1SOL    MW4 2984   1.556   0.975   1.941 -0.5124 -0.4175  0.0856
    1SOL     OW 2985   4.094   3.669   4.128  0.1186 -0.1192 -0.0513
    1SOL    HW2 2986   4.042   3.712   4.060 -0.9797  1.4767  1.7522
    1SOL    HW3 2987   4.176   3.717   4.129 -0.4648  0.8955  0.7932
    1SOL    MW4 2988   4.098   3.681   4.119 -0.1030  0.2253  0.2985
    1SOL     OW 2989   1.869   0.401   4.408  0.2095 -0.7135  0.2835
    1SOL    HW2 2990   1.930   0.456   4.457 -1.0469  0.3141  0.7057
    1SOL    HW3 2991   1.922   0.327   4.379  1.5141 -0.1419  1.1708
    1SOL    MW4 2992   1.884   0.399   4.411  0.2158 -0.5025  0.4568
    1SOL     OW 2993   3.254   2.258   3.248 -0.1243  0.2955 -0.1774
    1SOL    HW2 2994   3.240   2.322   3.318 -0.7324  1.3800 -1.2673
    1SOL    HW3 2995   3.166   2.237   3.217  0.1427 -0.2183 -0.5961
    1SOL    MW4 2996   3.241   2.264   3.254 -0.1693  0.3707 -0.3765
    1SOL     OW 2997   3.557   0.322   4.045  0.0389 -0.3413  0.6985
    1SOL    HW2 2998   3.631   0.274   4.008 -0.0036  0.1082  0.0276
    1SOL    HW3 2999   3.580   0.334   4.138  1.4832  1.0474  0.1916
    1SOL    MW4 3000   3.570   0.317   4.053  0.2236 -0.0988  0.5426
    1SOL     OW 3001   3.118   1.725   3.324 -0.3695  0.4731 -0.2367
    1SOL    HW2 3002   3.141   1.817   3.310 -0.4869  0.3536 -1.2498
    1SOL    HW3 3003   3.037   1.712   3.274 -0.2406 -0.2334 -0.2732
    1SOL    MW4 3004   3.110   1.735   3.315 -0.3676  0.3642 -0.3750
    1SOL     OW 3005   3.147   3.912   3.729 -0.0471  0.4567  0.0468
    1SOL    HW2 3006   3.228   3.926   3.778  0.5705 -0.3199 -0.7356
    1SOL    HW3 3007   3.126   3.820   3.743 -0.9037  0.7044  0.4064
    1SOL    MW4 3008   3.155   3.902   3.737 -0.0787  0.3872 -0.0088
    1SOL     OW 3009   2.193   3.424   2.999  0.0624  0.8580 -0.3401
    1SOL    HW2 3010   2.259   3.492   2.986  0.2269  0.9766  1.0129
    1SOL    HW3 3011   2.215   3.386   3.084 -2.2215  1.6068  0.6336
    1SOL    MW4 3012   2.205   3.428   3.009 -0.2174  0.9725 -0.0331
    1SOL     OW 3013   0.910   0.183   4.068 -0.7130  0.0895  0.8196
    1SOL    HW2 3014   0.964   0.105   4.067 -1.2003 -0.2447 -0.0560
    1SOL    HW3 3015   0.935   0.229   4.149  1.7402  0.5651 -0.1654
    1SOL    MW4 3016   0.920   0.179   4.079 -0.4537  0.1082  0.5741
    1SOL     OW 3017   0.449   1.206   0.804 -0.0525  0.0634  0.0437
    1SOL    HW2 3018   0.404   1.270   0.748  0.0110  0.3262  0.2930
    1SOL    HW3 3019   0.407   1.122   0.784  0.6413 -0.0122 -1.1479
    1SOL    MW4 3020   0.438   1.203   0.794  0.0474  0.0881 -0.0806
    1SOL     OW 3021   2.535   3.451   3.323  0.3172 -0.5184 -0.5457
    1SOL    HW2 3022   2.596   3.379   3.309 -0.9332 -1.6520 -0.2655
    1SOL    HW3 3023   2.506   3.441   3.413  1.5445  1.4580  0.0973
    1SOL    MW4 3024   2.539   3.441   3.333  0.3142 -0.4072 -0.4239
    1SOL     OW 3025   3.039   3.309   0.870  0.1764 -0.5647  0.7576
    1SOL    HW2 3026   3.119   3.352   0.838  1.2246 -1.2521  2.3569
    1SOL    HW3 3027   3.001   3.371   0.931 -0.7103 -0.0962 -0.2646
    1SOL    MW4 3028   3.045   3.323   0.874  0.1979 -0.5937  0.8337
    1SOL     OW 3029   1.724   2.094   4.278 -0.3327  0.2492  0.4833
    1SOL    HW2 3030   1.708   1.999   4.279  0.5120  0.1107  1.9227
    1SOL    HW3 3031   1.639   2.132   4.257 -1.3524 -0.7307  2.6177
    1SOL    MW4 3032   1.711   2.086   4.275 -0.3557  0.1018  0.9551
    1SOL     OW 3033   2.098   1.188   1.309  0.1683 -0.5556 -0.0620
    1SOL    HW2 3034   2.120   1.121   1.373  0.4925  0.2829  0.7035
    1SOL    HW3 3035   2.181   1.209   1.267  0.2877  0.2854  0.5896
    1SOL    MW4 3036   2.112   1.182   1.312  0.2267 -0.3340  0.1249
    1SOL     OW 3037   3.079   1.341   3.159  0.0949 -0.1450  0.0816
    1SOL    HW2 3038   3.149   1.276   3.155  0.9835  0.8139 -0.0707
    1SOL    HW3 3039   3.003   1.292   3.190  0.7468 -1.2654 -0.0656
    1SOL    MW4 3040   3.078   1.326   3.163  0.2985 -0.1663  0.0420
    1SOL     OW 3041   4.403   4.428   3.107  0.3501  0.0486 -0.4047
    1SOL    HW2 3042   4.418   4.436   3.201  1.1073  1.3092 -0.6199
    1SOL    HW3 3043   4.490   4.418   3.069 -0.0554 -1.8971 -0.8629
    1SOL    MW4 3044   4.416   4.428   3.114  0.3963 -0.0415 -0.4935
    1SOL     OW 3045   2.546   2.883   2.079 -0.5027 -0.6411 -0.1351
    1SOL    HW2 3046   2.554   2.789   2.097  1.1731 -0.8218 -1.6405
    1SOL    HW3 3047   2.558   2.925   2.164 -0.0350 -1.7609  0.3660
    1SOL    MW4 3048   2.549   2.876   2.092 -0.2201 -0.8128 -0.2677
    1SOL     OW 3049   3.187   1.448   2.412 -0.2608 -0.3214 -0.5927
    1SOL    HW2 3050   3.270   1.418   2.450  1.1217  0.9980 -2.4256
    1SOL    HW3 3051   3.187   1.543   2.429 -0.0721  0.1264 -2.9560
    1SOL    MW4 3052   3.198   1.457   2.419 -0.0536 -0.0882 -1.1463
    1SOL     OW 3053   3.613   4.033   1.141  0.0849  0.2883 -0.5328
    1SOL    HW2 3054   3.664   3.958   1.111 -0.1826  0.6456 -1.9029
    1SOL    HW3 3055   3.654   4.059   1.223  1.9630  0.4190 -1.4883
    1SOL    MW4 3056   3.625   4.026   1.148  0.2973  0.3524 -0.8397
    1SOL     OW 3057   2.166   1.567   1.329  0.0115  0.3442 -0.2683
    1SOL    HW2 3058   2.087   1.537   1.284 -0.7638 -0.2439  1.4547
    1SOL    HW3 3059   2.213   1.618   1.263 -0.5535 -1.4018 -2.0792
    1SOL    MW4 3060   2.162   1.570   1.315 -0.1655  0.0361 -0.2798
    1SOL     OW 3061   2.477   1.093   3.832  0.3301  0.2680 -0.0477
    1SOL    HW2 3062   2.422   1.016   3.817  2.4526 -1.4719  0.9537
    1SOL    HW3 3063   2.545   1.088   3.765  0.6320  1.1465  0.1767
    1SOL    MW4 3064   2.479   1.082   3.821  0.6502  0.1543  0.1142
    1SOL     OW 3065   4.358   1.365   4.489 -0.3776  0.1302  0.1133
    1SOL    HW2 3066   4.415   1.379   4.413  0.7078 -1.1553  0.6671
    1SOL    HW3 3067   4.275   1.406   4.465  0.6238  1.6244 -0.9000
    1SOL    MW4 3068   4.354   1.372   4.476 -0.1025  0.1576  0.0529
    1SOL     OW 3069   1.955   3.191   0.627  0.1706  0.5766 -0.2504
    1SOL    HW2 3070   2.030   3.242   0.595 -0.1486  1.1199 -0.1348
    1SOL    HW3 3071   1.883   3.253   0.630 -0.2619  0.0798 -0.2480
    1SOL    MW4 3072   1.956   3.206   0.623  0.0715  0.5825 -0.2348
    1SOL     OW 3073   1.183   2.008   1.063 -0.0763  0.4036 -0.4071
    1SOL    HW2 3074   1.108   2.066   1.052  0.3042  0.6541 -1.7530
    1SOL    HW3 3075   1.155   1.924   1.026 -0.0196  0.2280 -0.0557
    1SOL    MW4 3076   1.170   2.005   1.057 -0.0186  0.4137 -0.5383
    1SOL     OW 3077   0.323   0.698   1.491 -0.0564 -0.4564 -0.3149
    1SOL    HW2 3078   0.233   0.679   1.517  0.0927 -0.9284 -0.1195
    1SOL    HW3 3079   0.363   0.737   1.568 -0.2801  0.3810 -0.6218
    1SOL    MW4 3080   0.316   0.700   1.504 -0.0663 -0.4081 -0.3296
    1SOL     OW 3081   2.884   1.721   3.908  0.2003 -0.1692 -0.5365
    1SOL    HW2 3082   2.810   1.761   3.954  0.9891  0.1952  0.4369
    1SOL    HW3 3083   2.941   1.688   3.978  0.0764 -2.0618 -1.3205
    1SOL    MW4 3084   2.882   1.722   3.924  0.2878 -0.3710 -0.5114
    1SOL     OW 3085   0.376   2.575   3.095 -0.1543  0.5912 -0.1452
    1SOL    HW2 3086   0.383   2.547   3.186 -2.2592 -0.9266 -0.4293
    1SOL    HW3 3087   0.449   2.636   3.083  0.2762  0.6258  2.4764
    1SOL    MW4 3088   0.387   2.579   3.105 -0.3752  0.3953  0.1628
    1SOL     OW 3089   4.353   2.697   3.655 -0.1442  0.5898 -0.4301
    1SOL    HW2 3090   4.324   2.761   3.590  0.7375  0.7570 -0.6748
    1SOL    HW3 3091   4.274   2.649   3.679 -1.0722  2.7216  0.8231
    1SOL    MW4 3092   4.339   2.699   3.649 -0.1507  0.8934 -0.2971
    1SOL     OW 3093   3.981   2.149   4.249  0.6043  0.2807  0.2102
    1SOL    HW2 3094   3.937   2.086   4.192  0.0549  0.4971  0.3935
    1SOL    HW3 3095   3.985   2.230   4.198 -1.5574  1.0170  1.1451
    1SOL    MW4 3096   3.976   2.151   4.235  0.2468  0.4065  0.3586
    1SOL     OW 3097   0.797   0.884   1.273  0.4079  0.3672 -0.2353
    1SOL    HW2 3098   0.839   0.810   1.230  1.3298  1.4295 -1.2229
    1SOL    HW3 3099   0.787   0.949   1.204 -0.8086  0.9875  0.5123
    1SOL    MW4 3100   0.801   0.883   1.258  0.3690  0.5893 -0.2670
    1SOL     OW 3101   3.114   4.422   3.123 -0.1959  0.5263 -0.3986
    1SOL    HW2 3102   3.111   4.339   3.077  1.4881  0.5469 -0.5690
    1SOL    HW3 3103   3.139   4.400   3.212 -0.9517  0.7400 -0.1270
    1SOL    MW4 3104   3.117   4.408   3.128 -0.0737  0.5574 -0.3853
    1SOL     OW 3105   0.238   1.148   3.123  0.0373 -0.1406 -0.4200
    1SOL    HW2 3106   0.275   1.220   3.070  0.6412 -0.1421 -0.0062
    1SOL    HW3 3107   0.175   1.106   3.065  1.8610 -1.1453 -1.7288
    1SOL    MW4 3108   0.235   1.152   3.108  0.3576 -0.2733 -0.5381
    1SOL     OW 3109   1.488   0.071   3.560  0.2469  0.3501 -0.4230
    1SOL    HW2 3110   1.435   0.107   3.631  1.9645 -1.0303  1.6281
    1SOL    HW3 3111   1.553   0.016   3.604  0.7590 -1.3310 -3.1373
    1SOL    MW4 3112   1.490   0.068   3.575  0.5411 -0.0538 -0.5105
    1SOL     OW 3113   2.020   0.374   3.165  0.7210 -0.1100  0.1534
    1SOL    HW2 3114   2.047   0.320   3.091  2.7212  0.5174  0.3956
    1SOL    HW3 3115   1.942   0.420   3.135 -0.4712 -2.3916 -0.3823
    1SOL    MW4 3116   2.013   0.373   3.152  0.8278 -0.3283  0.1149
    1SOL     OW 3117   4.252   0.619   1.407 -0.1967 -0.1651 -0.4963
    1SOL    HW2 3118   4.185   0.582   1.463  0.6479 -0.5147  0.2926
    1SOL    HW3 3119   4.267   0.552   1.340 -0.3935 -0.2253 -0.4791
    1SOL    MW4 3120   4.245   0.605   1.405 -0.1116 -0.2192 -0.3898
    1SOL     OW 3121   0.587   0.730   3.575 -0.1496 -0.6275  0.1537
    1SOL    HW2 3122   0.598   0.666   3.645 -1.9913 -2.2006 -0.9209
    1SOL    HW3 3123   0.672   0.733   3.531  1.2943  0.9971  2.8828
    1SOL    MW4 3124   0.599   0.722   3.578 -0.2021 -0.6207  0.3722
    1SOL     OW 3125   4.117   2.465   2.858  0.1589 -0.3442  0.3285
    1SOL    HW2 3126   4.108   2.382   2.812 -1.4533  0.7169 -1.3821
    1SOL    HW3 3127   4.127   2.530   2.788  3.0513  0.7580  1.6610
    1SOL    MW4 3128   4.117   2.463   2.842  0.3285 -0.0589  0.2787
    1SOL     OW 3129   3.529   1.695   2.762 -0.2344  0.1070  0.3225
    1SOL    HW2 3130   3.475   1.736   2.694  1.3682 -0.6721 -1.4626
    1SOL    HW3 3131   3.611   1.743   2.759  2.0390 -3.6958 -2.4585
    1SOL    MW4 3132   3.532   1.707   2.752  0.2770 -0.4976 -0.2799
    1SOL     OW 3133   3.853   4.600   1.832 -0.1786  0.3189 -0.0777
    1SOL    HW2 3134   3.939   4.576   1.796  0.6053  0.6351  1.5481
    1SOL    HW3 3135   3.829   4.525   1.886  0.1300  1.1763  1.2773
    1SOL    MW4 3136   3.861   4.587   1.835 -0.0348  0.4730  0.3155
    1SOL     OW 3137   1.869   0.749   2.056  0.5473  0.0862  0.3909
    1SOL    HW2 3138   1.857   0.813   2.126 -0.1973  0.3282  0.0580
    1SOL    HW3 3139   1.795   0.689   2.066  0.4865  0.0695 -0.1198
    1SOL    MW4 3140   1.857   0.750   2.067  0.4411  0.1159  0.2797
    1SOL     OW 3141   0.902   3.714   0.691  0.0165  0.4951  0.7619
    1SOL    HW2 3142   0.815   3.743   0.716  0.0634  1.0949  0.2185
    1SOL    HW3 3143   0.908   3.732   0.597  0.4199 -0.3096  0.6268
    1SOL    MW4 3144   0.892   3.720   0.682  0.0759  0.4680  0.6723
    1SOL     OW 3145   1.629   0.905   3.792  0.4655  0.1723 -0.1008
    1SOL    HW2 3146   1.546   0.919   3.838  1.0692  0.6897  0.8599
    1SOL    HW3 3147   1.605   0.902   3.699 -0.5396  1.0616  0.1129
    1SOL    MW4 3148   1.615   0.907   3.786  0.4125  0.3579  0.0541
    1SOL     OW 3149   4.324   0.050   3.051 -0.0609  0.2228 -0.0864
    1SOL    HW2 3150   4.335  -0.041   3.080  0.3790 -0.2069 -1.5367
    1SOL    HW3 3151   4.387   0.100   3.102 -0.5872 -0.2130  1.0134
    1SOL    MW4 3152   4.334   0.044   3.061 -0.0725  0.1086 -0.1330
    1SOL     OW 3153   0.839   2.506   3.409 -0.1006  0.3862 -0.3518
    1SOL    HW2 3154   0.815   2.442   3.341  0.8420  0.4819 -0.7760
    1SOL    HW3 3155   0.835   2.591   3.364 -0.7288  0.5696  0.0477
    1SOL    MW4 3156   0.835   2.509   3.394 -0.0591  0.4230 -0.3550
    1SOL     OW 3157   2.476   2.529   2.846  0.0693  0.4842  0.0977
    1SOL    HW2 3158   2.428   2.470   2.787  0.0591  0.4315  0.1589
    1SOL    HW3 3159   2.461   2.617   2.810 -0.2016  0.4817  0.2114
    1SOL    MW4 3160   2.468   2.533   2.833  0.0322  0.4768  0.1209
    1SOL     OW 3161   2.313   3.622   2.483 -0.2064 -0.2722  0.1258
    1SOL    HW2 3162   2.355   3.668   2.411  0.6052 -0.0801  0.7222
    1SOL    HW3 3163   2.253   3.560   2.440 -0.5190  0.5939 -0.6868
    1SOL    MW4 3164   2.310   3.620   2.468 -0.1407 -0.1326  0.0973
    1SOL     OW 3165   0.084   0.533   2.762  0.0269  0.3103  0.4856
    1SOL    HW2 3166   0.010   0.521   2.703  0.7204 -0.4370 -0.2466
    1SOL    HW3 3167   0.049   0.514   2.849 -0.0718 -2.4392 -0.1067
    1SOL    MW4 3168   0.070   0.529   2.766  0.1054 -0.1511  0.3109
    1SOL     OW 3169   4.429   2.374   1.217  0.1979  0.0241 -0.0183
    1SOL    HW2 3170   4.341   2.362   1.254 -0.6068  1.6236 -1.3086
    1SOL    HW3 3171   4.457   2.459   1.252 -0.2458  1.1787 -2.3519
    1SOL    MW4 3172   4.421   2.384   1.227  0.0329  0.3874 -0.4964
    1SOL     OW 3173   1.936   0.536   1.817 -0.4518  0.1941 -0.0593
    1SOL    HW2 3174   2.025   0.546   1.852 -0.2781  1.1926 -0.7540
    1SOL    HW3 3175   1.910   0.448   1.842  1.0557 -0.3991 -0.5367
    1SOL    MW4 3176   1.945   0.526   1.825 -0.2300  0.2477 -0.2139
    1SOL     OW 3177   4.329   4.282   3.648 -0.5802 -0.2304 -0.4094
    1SOL    HW2 3178   4.388   4.331   3.591 -0.7346 -2.0266 -2.1458
    1SOL    HW3 3179   4.289   4.349   3.704  3.1782  0.9923  0.9265
    1SOL    MW4 3180   4.331   4.298   3.648 -0.1044 -0.3061 -0.4618
    1SOL     OW 3181   2.533   2.397   3.285  0.1435  0.1913  0.3493
    1SOL    HW2 3182   2.616   2.363   3.253 -0.0676 -0.4805  0.5199
    1SOL    HW3 3183   2.553   2.430   3.373  0.5001  1.1535 -0.0751
    1SOL    MW4 3184   2.547   2.397   3.293  0.1626  0.2298  0.3159
    1SOL     OW 3185   1.510   2.438   1.163  0.4584 -0.6677  0.1668
    1SOL    HW2 3186   1.555   2.431   1.078  0.1010  0.5196 -0.1300
    1SOL    HW3 3187   1.521   2.352   1.203  0.7986 -1.1822 -1.0089
    1SOL    MW4 3188   1.518   2.426   1.157  0.4561 -0.5789 -0.0275
    1SOL     OW 3189   1.088   2.797   2.074 -0.3308  0.0238 -0.1426
    1SOL    HW2 3190   1.001   2.827   2.098  0.1403  0.1109  1.5038
    1SOL    HW3 3191   1.100   2.715   2.122  0.9880  0.6872  0.7123
    1SOL    MW4 3192   1.078   2.790   2.084 -0.0945  0.1228  0.1874
    1SOL     OW 3193   3.365   1.846   2.568  0.1055  0.2815  0.2319
    1SOL    HW2 3194   3.343   1.939   2.574  0.5386  0.4215 -0.3798
    1SOL    HW3 3195   3.291   1.807   2.521  0.4153  0.4950 -0.4423
    1SOL    MW4 3196   3.352   1.853   2.563  0.2036  0.3282  0.0622
    1SOL     OW 3197   0.556   1.392   4.509  0.0759 -0.0819 -0.0265
    1SOL    HW2 3198   0.538   1.299   4.521 -1.2801 -0.0404 -1.4579
    1SOL    HW3 3199   0.636   1.394   4.456  0.4821 -0.4244  0.5767
    1SOL    MW4 3200   0.564   1.380   4.503 -0.0494 -0.1217 -0.1364
    1SOL     OW 3201   2.905   3.336   1.178 -0.3110 -0.2515  0.4141
    1SOL    HW2 3202   2.810   3.330   1.184 -0.2434 -0.4649  1.4864
    1SOL    HW3 3203   2.936   3.248   1.202  0.2419  0.5709  2.8282
    1SOL    MW4 3204   2.897   3.324   1.182 -0.2294 -0.1714  0.8740
    1SOL     OW 3205   4.168   2.506   3.720 -0.0869  0.5962  0.2737
    1SOL    HW2 3206   4.090   2.515   3.774 -1.1045 -1.0636 -0.8607
    1SOL    HW3 3207   4.139   2.456   3.644  1.6995  1.4191 -0.9981
    1SOL    MW4 3208   4.154   2.501   3.717  0.0143  0.4861 -0.0439
    1SOL     OW 3209   3.117   4.415   1.553  0.2506 -0.5052 -0.3404
    1SOL    HW2 3210   3.139   4.335   1.600 -3.2731  0.4610  3.2186
    1SOL    HW3 3211   3.136   4.486   1.615 -2.2221  0.9720 -1.1838
    1SOL    MW4 3212   3.122   4.414   1.567 -0.5405 -0.1831  0.0179
    1SOL     OW 3213   0.658   4.315   3.383 -0.6021  0.1585  0.0135
    1SOL    HW2 3214   0.676   4.221   3.392 -1.4902  0.0850  1.1915
    1SOL    HW3 3215   0.740   4.357   3.407 -0.2717 -0.3243 -0.2753
    1SOL    MW4 3216   0.671   4.308   3.388 -0.6757  0.0849  0.1309
    1SOL     OW 3217   1.038   4.584   4.124  0.0147  0.3691 -0.1892
    1SOL    HW2 3218   1.111   4.635   4.159 -0.3800  0.6186  0.2693
    1SOL    HW3 3219   0.976   4.577   4.197 -0.9186  1.1077 -0.9053
    1SOL    MW4 3220   1.039   4.590   4.138 -0.1606  0.4992 -0.2232
    1SOL     OW 3221   0.652   1.557   2.215 -0.3782 -0.0462 -0.0239
    1SOL    HW2 3222   0.627   1.635   2.266 -2.9597 -0.3989 -0.6500
    1SOL    HW3 3223   0.666   1.591   2.126 -1.3214 -0.2587 -0.2567
    1SOL    MW4 3224   0.650   1.572   2.210 -0.8432 -0.1206 -0.1373
    1SOL     OW 3225   1.676   3.819   0.828 -0.2942  0.0345 -0.0712
    1SOL    HW2 3226   1.730   3.898   0.821  0.5448 -0.6542 -1.6449
    1SOL    HW3 3227   1.590   3.851   0.856  0.1376  1.4600 -0.3346
    1SOL    MW4 3228   1.672   3.834   0.831 -0.1265  0.1318 -0.3136
    1SOL     OW 3229   2.735   0.237   2.629  0.1200  0.2735 -0.2245
    1SOL    HW2 3230   2.782   0.154   2.629  0.4372  0.4424 -1.5306
    1SOL    HW3 3231   2.728   0.261   2.722 -0.9171 -1.7350  0.2439
    1SOL    MW4 3232   2.740   0.230   2.641  0.0248  0.0308 -0.3350
    1SOL     OW 3233   0.428   3.069   1.513  0.4455 -0.3465  0.0777
    1SOL    HW2 3234   0.392   3.156   1.530 -2.5199 -1.5480  0.2954
    1SOL    HW3 3235   0.499   3.059   1.576 -0.8004  0.9680  1.7345
    1SOL    MW4 3236   0.432   3.079   1.523 -0.1101 -0.3316  0.3251
    1SOL     OW 3237   1.097   1.778   4.682  0.2381  0.1666 -0.4728
    1SOL    HW2 3238   1.142   1.786   4.766 -0.1048  0.1281 -0.2819
    1SOL    HW3 3239   1.061   1.865   4.666  0.3289  0.1819 -0.5954
    1SOL    MW4 3240   1.098   1.790   4.691  0.2048  0.1634 -0.4640
    1SOL     OW 3241   2.548   4.466   1.216 -0.1291 -0.2442  0.2191
    1SOL    HW2 3242   2.547   4.519   1.136  1.7940  0.3585  0.5757
    1SOL    HW3 3243   2.456   4.465   1.245 -0.5979  0.7801 -1.1673
    1SOL    MW4 3244   2.535   4.473   1.209  0.0629 -0.0291  0.0833
    1SOL     OW 3245   4.362   0.872   2.870 -0.3082 -0.6177  0.1826
    1SOL    HW2 3246   4.374   0.864   2.775  0.2122 -1.7287  0.3316
    1SOL    HW3 3247   4.268   0.860   2.883 -0.4524  0.0244 -0.2340
    1SOL    MW4 3248   4.351   0.869   2.859 -0.2584 -0.6796  0.1473
    1SOL     OW 3249   3.144   3.454   3.086 -0.0206 -0.4987 -0.5903
    1SOL    HW2 3250   3.205   3.519   3.121 -1.9487  0.8843  0.2873
    1SOL    HW3 3251   3.165   3.373   3.133  0.7569  0.1038  0.1077
    1SOL    MW4 3252   3.154   3.452   3.097 -0.1724 -0.2367 -0.3827
    1SOL     OW 3253   0.859   1.732   3.372  0.6085 -0.4692 -0.1299
    1SOL    HW2 3254   0.863   1.804   3.435 -2.6760 -0.9675  0.7328
    1SOL    HW3 3255   0.892   1.770   3.290  1.7284  1.1205  1.0271
    1SOL    MW4 3256   0.864   1.747   3.369  0.3228 -0.3251  0.1369
    1SOL     OW 3257   3.596   2.085   4.222 -0.5989  0.1298 -0.1170
    1SOL    HW2 3258   3.627   1.999   4.194  0.1950  0.8283 -1.4928
    1SOL    HW3 3259   3.647   2.104   4.301 -0.3416 -0.4103 -0.1472
    1SOL    MW4 3260   3.607   2.076   4.229 -0.4601  0.1504 -0.3028
    1SOL     OW 3261   0.353   1.411   0.624  0.3070  0.4614 -0.4836
    1SOL    HW2 3262   0.263   1.387   0.602  0.2168  1.1438 -0.8520
    1SOL    HW3 3263   0.403   1.395   0.543  0.2976  1.2417 -0.6488
    1SOL    MW4 3264   0.348   1.405   0.610  0.2939  0.6545 -0.5540
    1SOL     OW 3265   0.034   4.127   0.917 -0.1956 -0.4562 -0.2154
    1SOL    HW2 3266  -0.004   4.200   0.966  0.2448 -0.4426  0.1028
    1SOL    HW3 3267  -0.032   4.107   0.850 -0.3871  0.1294 -0.2053
    1SOL    MW4 3268   0.020   4.134   0.915 -0.1628 -0.3772 -0.1721
    1SOL     OW 3269   3.547   0.423   3.464 -0.0865  0.3169 -0.4934
    1SOL    HW2 3270   3.530   0.513   3.492  0.0643  0.7068 -1.6603
    1SOL    HW3 3271   3.461   0.388   3.444 -0.0677  0.4503 -0.8046
    1SOL    MW4 3272   3.534   0.430   3.465 -0.0644  0.3859 -0.6883
    1SOL     OW 3273   1.000   0.141   2.344 -0.0199 -0.7765 -0.4837
    1SOL    HW2 3274   0.927   0.203   2.339  0.5985  0.0369  0.2875
    1SOL    HW3 3275   0.973   0.078   2.411  0.4132  0.1275  0.5594
    1SOL    MW4 3276   0.987   0.141   2.352  0.1189 -0.5499 -0.2441
    1SOL     OW 3277   3.220   0.598   2.920 -0.4445  0.6635 -0.3541
    1SOL    HW2 3278   3.291   0.544   2.953 -0.2294  0.6762 -0.7919
    1SOL    HW3 3279   3.154   0.536   2.889  0.0373  0.6569 -1.3541
    1SOL    MW4 3280   3.220   0.583   2.920 -0.3524  0.6644 -0.5441
    1SOL     OW 3281   0.498   3.549   3.398 -0.1011  0.4415  0.0365
    1SOL    HW2 3282   0.500   3.569   3.304 -0.4239 -1.8891 -0.4948
    1SOL    HW3 3283   0.407   3.565   3.424 -0.5363 -1.0497 -0.5479
    1SOL    MW4 3284   0.486   3.554   3.389 -0.2012 -0.0627 -0.1109
    1SOL     OW 3285   1.435   1.853   2.523  0.5505 -0.0299 -0.3316
    1SOL    HW2 3286   1.349   1.864   2.481  1.2956  1.3552 -1.5636
    1SOL    HW3 3287   1.424   1.891   2.610  0.0171  0.4997 -0.6242
    1SOL    MW4 3288   1.422   1.860   2.529  0.5783  0.2227 -0.5326
    1SOL     OW 3289   1.120   2.730   2.455  0.5271 -0.1072 -0.3952
    1SOL    HW2 3290   1.162   2.777   2.527 -0.1446  0.9550 -0.6889
    1SOL    HW3 3291   1.160   2.643   2.458  0.2581 -0.1991  1.4794
    1SOL    MW4 3292   1.131   2.725   2.465  0.4029  0.0207 -0.1862
    1SOL     OW 3293   1.567   4.238   4.200  0.0655 -0.0845 -0.0987
    1SOL    HW2 3294   1.640   4.176   4.209 -0.6118 -0.8715 -0.0136
    1SOL    HW3 3295   1.492   4.192   4.237 -0.7192  0.2925 -1.1940
    1SOL    MW4 3296   1.567   4.223   4.206 -0.1274 -0.1388 -0.2322
    1SOL     OW 3297   1.056   2.500   4.608  0.3755 -0.2474 -0.6085
    1SOL    HW2 3298   1.030   2.590   4.628 -1.2163 -0.6758 -0.7462
    1SOL    HW3 3299   1.008   2.446   4.670 -1.6279 -1.2945 -2.9795
    1SOL    MW4 3300   1.046   2.505   4.619 -0.0987 -0.4420 -0.9394
    1SOL     OW 3301   2.502   3.888   2.542 -0.0299  0.0386  0.1150
    1SOL    HW2 3302   2.416   3.859   2.514  0.1874 -0.3449 -0.1602
    1SOL    HW3 3303   2.534   3.819   2.600  0.4594 -0.2482 -0.4875
    1SOL    MW4 3304   2.495   3.875   2.546  0.0634 -0.0498 -0.0010
    1SOL     OW 3305   0.704   3.100   1.990  0.1346  0.1813  0.2784
    1SOL    HW2 3306   0.778   3.134   1.939 -0.2820  0.7320  0.0398
    1SOL    HW3 3307   0.743   3.078   2.075  0.6430  0.1450  0.0409
    1SOL    MW4 3308   0.719   3.101   1.995  0.1467  0.2491  0.2156
    1SOL     OW 3309   2.963   3.469   2.858 -0.0565 -0.3061  0.4591
    1SOL    HW2 3310   2.948   3.562   2.875 -0.3698 -0.2862  0.0818
    1SOL    HW3 3311   3.032   3.444   2.920  0.1665  0.2228  0.4260
    1SOL    MW4 3312   2.970   3.478   2.869 -0.0682 -0.2339  0.4048
    1SOL     OW 3313   4.115   1.472   4.404 -0.1298  0.4514  0.6400
    1SOL    HW2 3314   4.118   1.523   4.485  0.8407 -0.6406  1.3112
    1SOL    HW3 3315   4.124   1.536   4.334  0.2278  1.2841  1.4411
    1SOL    MW4 3316   4.116   1.487   4.406  0.0458  0.4172  0.8345
    1SOL     OW 3317   4.422   3.201   2.291  0.0424  0.0391  0.0098
    1SOL    HW2 3318   4.427   3.267   2.223  0.4837  1.0391  1.0005
    1SOL    HW3 3319   4.511   3.164   2.295  0.6129  1.5101  1.5287
    1SOL    MW4 3320   4.435   3.205   2.283  0.1760  0.3653  0.3407
    1SOL     OW 3321   2.657   0.612   3.867 -0.5575 -0.3091  0.4387
    1SOL    HW2 3322   2.656   0.516   3.859 -0.3279 -0.5201  2.6325
    1SOL    HW3 3323   2.587   0.631   3.929 -0.3305  0.9389  0.3161
    1SOL    MW4 3324   2.647   0.602   3.874 -0.4971 -0.1723  0.7119
    1SOL     OW 3325   2.176   0.148   1.918  0.2215  0.0333 -0.2747
    1SOL    HW2 3326   2.087   0.171   1.944  0.3099 -0.5256  0.5402
    1SOL    HW3 3327   2.215   0.230   1.888  0.1160  0.6898  1.3467
    1SOL    MW4 3328   2.169   0.162   1.917  0.2191  0.0462  0.0467
    1SOL     OW 3329   0.935   2.603   2.853 -0.2730 -0.1783  0.0412
    1SOL    HW2 3330   1.031   2.613   2.851 -0.1601 -1.2294  0.0318
    1SOL    HW3 3331   0.903   2.677   2.802  0.4926  0.7467  0.8752
    1SOL    MW4 3332   0.944   2.614   2.846 -0.1571 -0.1950  0.1497
    1SOL     OW 3333   0.275   0.507   3.644 -0.2762 -1.0015 -0.1106
    1SOL    HW2 3334   0.273   0.445   3.717 -0.2556  1.1775  1.8112
    1SOL    HW3 3335   0.304   0.589   3.684 -1.2976  0.5062 -2.3884
    1SOL    MW4 3336   0.278   0.509   3.659 -0.4083 -0.5151 -0.1576
    1SOL     OW 3337   0.914   0.537   3.818  0.4170  0.1648 -0.0105
    1SOL    HW2 3338   0.962   0.606   3.774  0.4205 -0.4796 -1.0340
    1SOL    HW3 3339   0.822   0.561   3.807  0.4279  0.1525 -0.1311
    1SOL    MW4 3340   0.908   0.549   3.811  0.4189  0.0782 -0.1612
    1SOL     OW 3341   2.852   1.362   2.099 -0.2097  0.6851 -0.2906
    1SOL    HW2 3342   2.846   1.305   2.022 -0.3147  1.4321 -0.8336
    1SOL    HW3 3343   2.761   1.386   2.118 -0.0070  2.2546 -1.2470
    1SOL    MW4 3344   2.839   1.357   2.091 -0.1969  0.9909 -0.4888
    1SOL     OW 3345   0.795   4.139   4.371 -0.2310  0.9033 -0.2004
    1SOL    HW2 3346   0.863   4.158   4.436 -1.1979  2.2300  0.4589
    1SOL    HW3 3347   0.781   4.223   4.326 -2.1715  0.9182  0.3943
    1SOL    MW4 3348   0.802   4.153   4.374 -0.6145  1.0805 -0.0348
    1SOL     OW 3349   1.500   1.418   3.848 -0.0016  0.1705 -0.2686
    1SOL    HW2 3350   1.583   1.388   3.886 -1.0770 -2.3049  0.2811
    1SOL    HW3 3351   1.438   1.412   3.921 -1.0627  0.1001 -1.1640
    1SOL    MW4 3352   1.503   1.413   3.863 -0.2835 -0.1652 -0.3145
    1SOL     OW 3353   1.368   1.050   4.168  0.5914  0.0128  0.4674
    1SOL    HW2 3354   1.355   0.991   4.242  0.3954  2.3885  2.3729
    1SOL    HW3 3355   1.452   1.093   4.186  0.1282  1.2408 -0.2797
    1SOL    MW4 3356   1.378   1.048   4.180  0.5043  0.4882  0.6204
    1SOL     OW 3357   2.453   0.645   2.788 -0.7189 -0.4109 -0.7108
    1SOL    HW2 3358   2.548   0.651   2.796 -0.7313 -0.6362 -0.3618
    1SOL    HW3 3359   2.431   0.560   2.825 -0.9640 -0.7751 -1.6810
    1SOL    MW4 3360   2.463   0.635   2.794 -0.7527 -0.4886 -0.7927
    1SOL     OW 3361   2.009   2.438   0.876  0.1087 -0.0591  0.1462
    1SOL    HW2 3362   2.035   2.510   0.820  1.8132 -1.2497 -0.6318
    1SOL    HW3 3363   2.042   2.462   0.963  2.9319 -1.0175 -0.6009
    1SOL    MW4 3364   2.016   2.451   0.880  0.7057 -0.3426 -0.0550
    1SOL     OW 3365   1.234   0.818   3.644  0.1027 -0.1694  0.1303
    1SOL    HW2 3366   1.253   0.886   3.580  1.2006 -0.7051 -0.1133
    1SOL    HW3 3367   1.140   0.829   3.662  0.0522  0.7743 -0.6301
    1SOL    MW4 3368   1.224   0.829   3.638  0.2409 -0.1155 -0.0021
    1SOL     OW 3369   4.231   2.124   2.120  0.1018  0.2681 -0.6546
    1SOL    HW2 3370   4.254   2.189   2.053 -0.4135 -0.4178 -1.5188
    1SOL    HW3 3371   4.313   2.076   2.134  0.3835  0.8491 -0.3018
    1SOL    MW4 3372   4.245   2.126   2.113  0.0710  0.2542 -0.7222
    1SOL     OW 3373   2.921   0.143   3.629 -0.4721  0.2325 -0.3610
    1SOL    HW2 3374   2.976   0.136   3.551 -1.8378 -0.2433 -1.3108
    1SOL    HW3 3375   2.898   0.053   3.651  0.1641  0.3489  0.7857
    1SOL    MW4 3376   2.925   0.130   3.622 -0.5684  0.1851 -0.3350
    1SOL     OW 3377   3.814   2.902   1.029 -0.5506 -0.5902 -0.5020
    1SOL    HW2 3378   3.892   2.866   0.987  0.1148 -0.8487  0.9343
    1SOL    HW3 3379   3.781   2.967   0.967  0.2282 -1.1933 -1.5620
    1SOL    MW4 3380   3.820   2.906   1.015 -0.3600 -0.7041 -0.4524
    1SOL     OW 3381   4.145   2.190   3.005 -0.0244  0.6914 -0.3056
    1SOL    HW2 3382   4.215   2.152   2.952 -0.4284  0.3835 -0.6230
    1SOL    HW3 3383   4.080   2.120   3.012  0.1532  0.6180  0.8476
    1SOL    MW4 3384   4.146   2.176   2.999 -0.0539  0.6406 -0.1955
    1SOL     OW 3385   2.134   0.693   3.149  0.2535 -0.1995  0.2906
    1SOL    HW2 3386   2.054   0.643   3.134  0.8411 -1.2225  0.5230
    1SOL    HW3 3387   2.107   0.785   3.142 -0.9082 -0.5413  0.2498
    1SOL    MW4 3388   2.120   0.698   3.146  0.1776 -0.3796  0.3161
    1SOL     OW 3389   1.275   3.527   2.355  0.3456  0.1053  0.1660
    1SOL    HW2 3390   1.317   3.610   2.377  0.1026  0.1741  0.3804
    1SOL    HW3 3391   1.181   3.545   2.366  0.3374 -0.4189  0.9788
    1SOL    MW4 3392   1.268   3.540   2.359  0.3124  0.0455  0.3014
    1SOL     OW 3393   0.730   1.573   1.213  0.0771  0.0200  0.7689
    1SOL    HW2 3394   0.692   1.485   1.215  1.2808 -0.5479 -0.0500
    1SOL    HW3 3395   0.733   1.600   1.305  1.1102 -1.4348  1.1870
    1SOL    MW4 3396   0.726   1.565   1.225  0.3723 -0.2469  0.7160
    1SOL     OW 3397   4.194   4.550   2.085 -0.6123  0.1377  0.2187
    1SOL    HW2 3398   4.275   4.514   2.049  0.0112  0.5549  1.1855
    1SOL    HW3 3399   4.189   4.638   2.048 -0.8583 -0.0498 -0.1962
    1SOL    MW4 3400   4.204   4.557   2.075 -0.5622  0.1678  0.2913
    1SOL     OW 3401   0.246   1.989   4.210  0.0104  0.1509 -0.2702
    1SOL    HW2 3402   0.221   2.065   4.157 -0.6429 -0.1269 -0.3680
    1SOL    HW3 3403   0.229   1.914   4.153 -0.0085 -0.1097  0.0760
    1SOL    MW4 3404   0.240   1.989   4.195 -0.0783  0.0798 -0.2370
    1SOL     OW 3405   2.187   3.310   1.491  0.2967  0.2613 -0.0795
    1SOL    HW2 3406   2.112   3.251   1.498  0.6935 -0.4202 -1.3783
    1SOL    HW3 3407   2.161   3.388   1.541 -0.2585 -0.9600  1.5686
    1SOL    MW4 3408   2.174   3.313   1.498  0.2759  0.0103 -0.0334
    1SOL     OW 3409   1.158   2.537   4.195 -0.1750 -0.1069  0.1202
    1SOL    HW2 3410   1.179   2.472   4.262 -0.7149  0.5245  0.9240
    1SOL    HW3 3411   1.231   2.534   4.134 -0.3934 -1.7528 -0.0744
    1SOL    MW4 3412   1.170   2.528   4.196 -0.2751 -0.2408  0.2003
    1SOL     OW 3413   3.261   2.358   0.871 -0.0081 -0.2861  0.6656
    1SOL    HW2 3414   3.172   2.379   0.900 -0.5550  0.1402 -1.2268
    1SOL    HW3 3415   3.311   2.438   0.888 -0.3998  0.0714  0.1747
    1SOL    MW4 3416   3.256   2.371   0.877 -0.1321 -0.1829  0.3511
    1SOL     OW 3417   4.205   1.959   3.247  0.1724  0.3097  0.1785
    1SOL    HW2 3418   4.120   1.982   3.210 -0.7856  1.0566  2.7488
    1SOL    HW3 3419   4.190   1.877   3.293  1.2074 -0.3298 -0.6118
    1SOL    MW4 3420   4.192   1.951   3.248  0.1826  0.3239  0.4137
    1SOL     OW 3421   3.417   0.339   1.493 -0.1852 -0.1179  0.2547
    1SOL    HW2 3422   3.432   0.246   1.510 -0.2978 -0.1550  0.1470
    1SOL    HW3 3423   3.326   0.354   1.517 -0.0931  0.0210  0.5193
    1SOL    MW4 3424   3.407   0.329   1.498 -0.1879 -0.1045  0.2755
    1SOL     OW 3425   0.916   4.547   3.154 -0.4640  0.7016 -0.3038
    1SOL    HW2 3426   0.960   4.473   3.113 -0.7817  0.6973 -0.6403
    1SOL    HW3 3427   0.836   4.558   3.103 -0.6209  1.0082  0.0094
    1SOL    MW4 3428   0.911   4.538   3.142 -0.5266  0.7415 -0.3068
    1SOL     OW 3429   4.468   2.552   2.574  0.6548 -0.4262  0.9352
    1SOL    HW2 3430   4.529   2.478   2.574  2.0774  0.7034 -0.5749
    1SOL    HW3 3431   4.411   2.535   2.499  0.7002 -0.2170  0.8538
    1SOL    MW4 3432   4.468   2.540   2.564  0.8483 -0.2494  0.7250
    1SOL     OW 3433   1.768   0.841   0.491  0.2290  0.5013  0.2115
    1SOL    HW2 3434   1.834   0.891   0.538 -0.9532  1.2101  1.1449
    1SOL    HW3 3435   1.722   0.906   0.437 -0.5260  0.2387  0.5244
    1SOL    MW4 3436   1.770   0.856   0.490 -0.0266  0.5602  0.3759
    1SOL     OW 3437   2.093   3.046   3.220 -0.0473 -0.0925  0.0408
    1SOL    HW2 3438   2.056   3.126   3.182  1.4359 -0.1874 -1.7178
    1SOL    HW3 3439   2.097   2.984   3.147  0.1523 -1.2854  1.0470
    1SOL    MW4 3440   2.089   3.048   3.205  0.1750 -0.2623 -0.0584
    1SOL     OW 3441   0.631   1.949   3.172 -0.2699 -0.5258 -0.0252
    1SOL    HW2 3442   0.619   2.023   3.113  2.4228 -0.9642 -1.1864
    1SOL    HW3 3443   0.640   1.873   3.114 -1.2536 -1.5359  1.0957
    1SOL    MW4 3444   0.630   1.949   3.156 -0.0444 -0.7169 -0.0305
    1SOL     OW 3445   0.180   2.808   1.705  0.1478 -0.5405  0.0912
    1SOL    HW2 3446   0.089   2.786   1.683 -0.5726  1.0766  1.3700
    1SOL    HW3 3447   0.222   2.823   1.620 -0.5201 -2.2038 -0.5636
    1SOL    MW4 3448   0.173   2.807   1.691 -0.0354 -0.5467  0.1734
    1SOL     OW 3449   1.641   2.408   4.606 -0.1058 -0.2491 -0.4205
    1SOL    HW2 3450   1.558   2.424   4.651  0.3919 -0.2814  0.5141
    1SOL    HW3 3451   1.662   2.317   4.627 -0.2626 -0.5177 -1.3734
    1SOL    MW4 3452   1.632   2.398   4.615 -0.0607 -0.2890 -0.4220
    1SOL     OW 3453   3.316   3.521   2.703  0.0726 -0.0748 -0.2910
    1SOL    HW2 3454   3.296   3.613   2.718  0.0471 -0.1968  0.4431
    1SOL    HW3 3455   3.233   3.482   2.677  0.0205  0.0445 -0.3032
    1SOL    MW4 3456   3.303   3.528   2.702  0.0625 -0.0751 -0.1957
    1SOL     OW 3457   1.102   2.996   1.240  0.2008  0.9375 -0.0053
    1SOL    HW2 3458   1.105   3.055   1.315  0.8754  3.2493 -1.7481
    1SOL    HW3 3459   1.185   2.949   1.243  1.4467  2.9830 -0.7306
    1SOL    MW4 3460   1.113   2.998   1.250  0.4542  1.5125 -0.3309
    1SOL     OW 3461   0.614   3.212   3.141 -0.4119  0.1084  0.2632
    1SOL    HW2 3462   0.612   3.236   3.234  0.1532  0.4295  0.1964
    1SOL    HW3 3463   0.680   3.142   3.136 -1.2662 -0.7031  0.2830
    1SOL    MW4 3464   0.623   3.206   3.152 -0.4500  0.0434  0.2570
    1SOL     OW 3465   2.545   2.046   2.277  0.1220  0.3527  0.0468
    1SOL    HW2 3466   2.537   2.131   2.232 -0.3435  0.4488  0.3112
    1SOL    HW3 3467   2.473   1.994   2.243  0.1443  0.2112  0.2149
    1SOL    MW4 3468   2.534   2.051   2.266  0.0637  0.3464  0.1037
    1SOL     OW 3469   4.097   0.806   4.126 -0.1729  0.3212  0.1279
    1SOL    HW2 3470   4.190   0.788   4.108 -0.5278 -1.9917  0.3679
    1SOL    HW3 3471   4.090   0.800   4.221 -0.8462 -1.0853  0.0012
    1SOL    MW4 3472   4.108   0.803   4.136 -0.3090 -0.1695  0.1426
    1SOL     OW 3473   1.192   3.784   3.532 -0.1061 -0.3227  0.4059
    1SOL    HW2 3474   1.153   3.867   3.559  2.2843  0.5929  1.2094
    1SOL    HW3 3475   1.145   3.760   3.453 -0.2222  2.2942 -0.3685
    1SOL    MW4 3476   1.180   3.792   3.525  0.1940  0.1433  0.4094
    1SOL     OW 3477   3.805   3.119   1.645 -0.2610  0.2653  0.5028
    1SOL    HW2 3478   3.749   3.172   1.588 -1.0123 -0.1085  0.8881
    1SOL    HW3 3479   3.893   3.130   1.609 -0.6078  0.7122 -0.2188
    1SOL    MW4 3480   3.809   3.128   1.633 -0.4058  0.2747  0.4585
    1SOL     OW 3481   1.860   3.507   1.806  0.1366  0.1876 -0.3074
    1SOL    HW2 3482   1.868   3.552   1.890  0.8799 -1.8414  0.7410
    1SOL    HW3 3483   1.773   3.530   1.775 -0.1795  0.8911  1.0654
    1SOL    MW4 3484   1.850   3.516   1.813  0.1929  0.0129  0.0122
    1SOL     OW 3485   0.249   3.462   1.414  0.4011 -0.2602  0.4348
    1SOL    HW2 3486   0.252   3.551   1.448  3.1513 -0.6213  1.2275
    1SOL    HW3 3487   0.280   3.469   1.324 -0.6031 -0.2692  0.0724
    1SOL    MW4 3488   0.253   3.475   1.407  0.6315 -0.3090  0.4915
    1SOL     OW 3489   2.645   1.930   1.364  0.4611 -0.1326  0.0544
    1SOL    HW2 3490   2.607   1.963   1.445 -1.8789 -1.8738 -0.2649
    1SOL    HW3 3491   2.583   1.957   1.296 -0.2455 -2.9954 -0.5039
    1SOL    MW4 3492   2.632   1.938   1.366  0.0591 -0.7401 -0.0614
    1SOL     OW 3493   2.134   1.019   2.389  0.5867 -0.0659 -0.3113
    1SOL    HW2 3494   2.102   1.108   2.373  1.0304 -0.0273 -1.0426
    1SOL    HW3 3495   2.202   1.006   2.323  0.2449 -1.0948 -0.4766
    1SOL    MW4 3496   2.139   1.029   2.378  0.6001 -0.1967 -0.4294
    1SOL     OW 3497   0.481   3.564   3.989  0.2968 -0.7620 -0.2021
    1SOL    HW2 3498   0.529   3.537   3.911 -1.2901 -0.1974 -1.4077
    1SOL    HW3 3499   0.407   3.504   3.993 -0.8934  0.6540 -0.4760
    1SOL    MW4 3500   0.478   3.553   3.979 -0.0696 -0.5009 -0.3972
    1SOL     OW 3501   3.190   4.019   1.914  0.5266  0.1858 -0.0185
    1SOL    HW2 3502   3.134   3.944   1.893  0.1598  0.4397  0.0468
    1SOL    HW3 3503   3.129   4.091   1.928  0.6854 -0.1683  2.7543
    1SOL    MW4 3504   3.175   4.019   1.913  0.4992  0.1726  0.3560
    1SOL     OW 3505   3.992   1.440   2.347 -0.1304  0.5888 -0.5276
    1SOL    HW2 3506   3.959   1.525   2.376  0.1770  0.0369  1.5241
    1SOL    HW3 3507   3.936   1.416   2.273  0.0517  2.7578 -1.4026
    1SOL    MW4 3508   3.980   1.448   2.341 -0.0660  0.8023 -0.3722
    1SOL     OW 3509   1.831   3.883   1.868 -0.6869  0.1068  0.4746
    1SOL    HW2 3510   1.847   3.849   1.956 -1.1861  0.1644  0.5870
    1SOL    HW3 3511   1.747   3.844   1.842  0.5844 -1.8265 -0.9096
    1SOL    MW4 3512   1.822   3.873   1.876 -0.5850 -0.1407  0.3068
    1SOL     OW 3513   0.388   4.038   4.667 -0.5737  0.6758  0.1024
    1SOL    HW2 3514   0.440   4.056   4.745 -0.6753  1.0142  0.0912
    1SOL    HW3 3515   0.447   4.055   4.594 -0.3171 -0.1463  0.1149
    1SOL    MW4 3516   0.402   4.042   4.668 -0.5532  0.6123  0.1025
    1SOL     OW 3517   0.131   1.126   1.194  0.0864  0.0581 -0.4963
    1SOL    HW2 3518   0.191   1.060   1.230  0.5974  0.9968  0.4289
    1SOL    HW3 3519   0.180   1.165   1.122 -0.1529 -0.4676 -0.9420
    1SOL    MW4 3520   0.146   1.122   1.189  0.1222  0.1125 -0.4330
    1SOL     OW 3521   0.612   1.270   3.755  0.2245 -0.0323 -0.5898
    1SOL    HW2 3522   0.589   1.270   3.848  0.2156  1.3714 -0.5735
    1SOL    HW3 3523   0.601   1.361   3.729 -1.3318 -0.7077 -2.3704
    1SOL    MW4 3524   0.608   1.282   3.764  0.0181  0.0639 -0.8225
    1SOL     OW 3525   0.363   2.566   0.976 -0.7740 -0.4385  0.0129
    1SOL    HW2 3526   0.367   2.639   1.037 -2.4386 -0.6985  0.4554
    1SOL    HW3 3527   0.296   2.591   0.913  0.2317 -0.6149 -1.1491
    1SOL    MW4 3528   0.355   2.579   0.975 -0.8609 -0.4961 -0.0821
    1SOL     OW 3529   4.473   4.623   2.783  0.2455 -0.4636 -0.4038
    1SOL    HW2 3530   4.485   4.692   2.718 -0.6943 -0.5442 -0.6734
    1SOL    HW3 3531   4.418   4.662   2.851  1.8220 -0.1417  0.7375
    1SOL    MW4 3532   4.468   4.637   2.784  0.3295 -0.4315 -0.2890
    1SOL     OW 3533   3.865   1.267   1.722 -0.0221  0.3627  0.2189
    1SOL    HW2 3534   3.931   1.277   1.790  1.1599  1.0907 -1.0075
    1SOL    HW3 3535   3.857   1.354   1.683 -1.8699  0.3352  0.4840
    1SOL    MW4 3536   3.873   1.280   1.726 -0.1101  0.4550  0.0920
    1SOL     OW 3537   4.419   1.497   0.413 -0.2286  0.0906 -0.8233
    1SOL    HW2 3538   4.420   1.589   0.442 -0.4933  0.0482 -0.6832
    1SOL    HW3 3539   4.327   1.473   0.413 -0.0028 -0.9047  1.4614
    1SOL    MW4 3540   4.407   1.506   0.417 -0.2341 -0.0464 -0.5034
    1SOL     OW 3541   3.980   4.542   3.861  0.3562  0.1168 -0.6747
    1SOL    HW2 3542   3.919   4.609   3.830 -0.0838 -0.2081 -0.5113
    1SOL    HW3 3543   3.925   4.467   3.883  0.5280  0.7183  1.9511
    1SOL    MW4 3544   3.965   4.541   3.860  0.3211  0.1531 -0.3068
    1SOL     OW 3545   1.383   0.036   2.571  0.3087  0.1533 -0.0531
    1SOL    HW2 3546   1.378  -0.001   2.483 -0.6525 -0.5611  0.2954
    1SOL    HW3 3547   1.445  -0.021   2.617  0.6608  0.4071 -0.2213
    1SOL    MW4 3548   1.390   0.023   2.566  0.2284  0.0926 -0.0293
    1SOL     OW 3549   3.226   2.663   4.409 -0.4656 -0.0522 -0.0604
    1SOL    HW2 3550   3.242   2.569   4.401 -0.0679 -0.0109  0.2667
    1SOL    HW3 3551   3.221   2.694   4.319  1.8682  0.0369 -0.1883
    1SOL    MW4 3552   3.227   2.654   4.396 -0.1051 -0.0348 -0.0343
    1SOL     OW 3553   2.733   1.063   1.199  0.2772  0.4511 -0.1108
    1SOL    HW2 3554   2.755   0.979   1.159 -1.6205  0.1961 -0.6195
    1SOL    HW3 3555   2.639   1.060   1.215  0.5862  1.4810  2.2259
    1SOL    MW4 3556   2.724   1.052   1.196  0.0677  0.5534  0.1303
    1SOL     OW 3557   2.277   0.972   3.397 -0.3118  0.2406 -0.2922
    1SOL    HW2 3558   2.301   0.890   3.440 -0.3610 -0.1329 -0.9666
    1SOL    HW3 3559   2.187   0.958   3.366 -0.5398  0.7665  0.1102
    1SOL    MW4 3560   2.268   0.960   3.398 -0.3483  0.2607 -0.3278
    1SOL     OW 3561   0.531   0.581   1.330 -0.4200 -0.0391  0.1889
    1SOL    HW2 3562   0.480   0.520   1.277 -1.0548 -0.2099  0.9946
    1SOL    HW3 3563   0.466   0.628   1.383  0.1365  0.7253  0.1986
    1SOL    MW4 3564   0.516   0.579   1.330 -0.4303  0.0393  0.2965
    1SOL     OW 3565   2.469   2.430   0.931  0.0362  0.3375 -0.1280
    1SOL    HW2 3566   2.466   2.425   0.836 -0.5483 -1.7802 -0.0351
    1SOL    HW3 3567   2.477   2.523   0.951 -1.0720  0.9032 -2.2183
    1SOL    MW4 3568   2.470   2.442   0.921 -0.1872  0.1328 -0.3915
    1SOL     OW 3569   3.023   0.178   2.672 -0.2711  0.2139 -0.5443
    1SOL    HW2 3570   3.042   0.141   2.586  0.4833 -1.1726  0.2039
    1SOL    HW3 3571   3.078   0.129   2.732  1.0491  2.8155  0.4457
    1SOL    MW4 3572   3.032   0.167   2.669  0.0024  0.3742 -0.3152
    1SOL     OW 3573   2.108   2.191   1.723 -0.0638 -0.0091 -0.5149
    1SOL    HW2 3574   2.201   2.187   1.703 -0.0613 -1.1874 -0.2952
    1SOL    HW3 3575   2.079   2.100   1.721 -1.7207  0.5288 -2.9646
    1SOL    MW4 3576   2.116   2.178   1.720 -0.2823 -0.0937 -0.8092
    1SOL     OW 3577   0.584   0.470   4.033 -0.0546 -0.5823 -0.2301
    1SOL    HW2 3578   0.664   0.474   4.086 -0.8592 -0.4410  1.0194
    1SOL    HW3 3579   0.564   0.377   4.027 -0.3142 -0.5598  0.2687
    1SOL    MW4 3580   0.592   0.459   4.040 -0.1950 -0.5607  0.0005
    1SOL     OW 3581   3.915   0.290   3.336  0.2558 -0.2122 -0.1779
    1SOL    HW2 3582   3.901   0.365   3.279  0.6287 -0.7125 -0.9446
    1SOL    HW3 3583   3.839   0.234   3.322  1.1494 -1.1325 -1.4738
    1SOL    MW4 3584   3.903   0.292   3.327  0.4230 -0.3996 -0.4499
    1SOL     OW 3585   3.597   1.794   3.201 -0.4228 -0.0136  0.0727
    1SOL    HW2 3586   3.672   1.828   3.251 -0.0047  0.9505 -1.1871
    1SOL    HW3 3587   3.521   1.839   3.239 -0.0865  0.8473 -0.2679
    1SOL    MW4 3588   3.597   1.804   3.213 -0.3231  0.2272 -0.1383
    1SOL     OW 3589   2.669   4.128   1.326 -0.1355 -0.1366 -0.2842
    1SOL    HW2 3590   2.760   4.145   1.303  0.0887 -0.2443  0.5049
    1SOL    HW3 3591   2.640   4.207   1.371  0.4193 -1.1449  1.9372
    1SOL    MW4 3592   2.677   4.140   1.329 -0.0327 -0.2837  0.1131
    1SOL     OW 3593   4.218   1.145   2.871 -0.6438 -0.0989 -1.1183
    1SOL    HW2 3594   4.297   1.112   2.913 -0.4836 -0.1475 -1.4618
    1SOL    HW3 3595   4.197   1.225   2.919 -0.3465 -0.0471 -1.0772
    1SOL    MW4 3596   4.226   1.151   2.883 -0.5832 -0.0985 -1.1582
    1SOL     OW 3597   2.549   4.291   3.987 -0.1575  0.2386 -0.5539
    1SOL    HW2 3598   2.514   4.317   4.073 -1.3391 -0.7020 -0.7311
    1SOL    HW3 3599   2.530   4.365   3.930 -2.6675 -0.5540 -0.8358
    1SOL    MW4 3600   2.542   4.304   3.991 -0.6442  0.0105 -0.6144
    1SOL     OW 3601   2.147   4.358   2.772 -0.3607  0.3122  0.2251
    1SOL    HW2 3602   2.161   4.277   2.723  1.3560 -0.0900  1.3276
    1SOL    HW3 3603   2.082   4.335   2.838 -0.7524  0.1522 -0.2139
    1SOL    MW4 3604   2.140   4.344   2.774 -0.1855  0.2379  0.3126
    1SOL     OW 3605   1.850   2.641   4.343  0.4790 -0.4497  0.2949
    1SOL    HW2 3606   1.905   2.619   4.418  0.0048  1.5985  1.2810
    1SOL    HW3 3607   1.886   2.589   4.270  1.4093 -1.8804  1.7395
    1SOL    MW4 3608   1.862   2.631   4.343  0.5392 -0.3684  0.6156
    1SOL     OW 3609   2.293   0.095   2.715  0.1132 -0.7801  0.0148
    1SOL    HW2 3610   2.327   0.048   2.791  0.2406  1.5174  1.4209
    1SOL    HW3 3611   2.354   0.167   2.702 -2.0013  1.0719  0.1229
    1SOL    MW4 3612   2.305   0.098   2.723 -0.1490 -0.2326  0.2148
    1SOL     OW 3613   3.262   0.864   3.774 -0.0777  0.5721 -0.4035
    1SOL    HW2 3614   3.251   0.857   3.679  0.0902  1.8781 -0.5264
    1SOL    HW3 3615   3.346   0.908   3.786 -0.1177  0.4522  0.3426
    1SOL    MW4 3616   3.271   0.869   3.763 -0.0610  0.7285 -0.3214
    1SOL     OW 3617   4.004   2.950   4.197 -0.2009 -0.0633 -0.0018
    1SOL    HW2 3618   3.963   2.927   4.280 -0.3591  2.9764  0.7904
    1SOL    HW3 3619   4.021   2.865   4.155 -0.0455 -1.6385  3.1291
    1SOL    MW4 3620   4.001   2.936   4.202 -0.2017  0.1302  0.5150
    1SOL     OW 3621   1.305   1.582   0.793  0.2332  0.1656  0.2291
    1SOL    HW2 3622   1.224   1.627   0.769 -0.0469 -0.5502 -0.1855
    1SOL    HW3 3623   1.371   1.652   0.796  0.1532  0.3869 -2.0435
    1SOL    MW4 3624   1.303   1.597   0.790  0.1856  0.1003 -0.1255
    1SOL     OW 3625   1.950   0.964   0.698  0.5237 -0.0338 -0.1245
    1SOL    HW2 3626   2.001   0.897   0.743  0.4620  0.8976  1.3776
    1SOL    HW3 3627   1.864   0.961   0.741  0.5701  1.0894  0.0775
    1SOL    MW4 3628   1.945   0.955   0.710  0.5218  0.2373  0.1003
    1SOL     OW 3629   4.387   2.498   2.953  0.5223 -0.0609 -0.6601
    1SOL    HW2 3630   4.434   2.415   2.946 -0.0213 -0.5193  0.9150
    1SOL    HW3 3631   4.305   2.483   2.905  0.3977 -0.4710 -0.3293
    1SOL    MW4 3632   4.382   2.485   2.946  0.4339 -0.1755 -0.4086
    1SOL     OW 3633   1.024   2.760   4.589 -0.5154 -0.1321 -0.0912
    1SOL    HW2 3634   0.934   2.794   4.582 -0.3648  0.4980  0.9192
    1SOL    HW3 3635   1.074   2.834   4.624  0.8458  0.2532 -2.7204
    1SOL    MW4 3636   1.018   2.774   4.593 -0.3158  0.0019 -0.3052
    1SOL     OW 3637   2.299   3.875   4.049 -0.3006 -0.0991 -0.2636
    1SOL    HW2 3638   2.280   3.823   4.127 -1.4130  0.2181 -0.3232
    1SOL    HW3 3639   2.363   3.940   4.078 -1.0889  0.3318  0.4886
    1SOL    MW4 3640   2.305   3.876   4.063 -0.5515  0.0000 -0.1721
    1SOL     OW 3641   2.867   0.015   1.987  0.4185  0.0895  0.0396
    1SOL    HW2 3642   2.953   0.040   1.953  1.4204 -0.9560  1.7254
    1SOL    HW3 3643   2.881  -0.072   2.025 -1.2730  0.1251  0.7614
    1SOL    MW4 3644   2.881   0.007   1.988  0.3273 -0.0437  0.3573
    1SOL     OW 3645   2.606   0.738   0.879  0.5558  0.1469 -0.1307
    1SOL    HW2 3646   2.577   0.648   0.861  0.4790 -0.1784  1.5273
    1SOL    HW3 3647   2.525   0.785   0.901  0.5631  0.6970 -1.2495
    1SOL    MW4 3648   2.591   0.732   0.879  0.5467  0.1765 -0.0595
    1SOL     OW 3649   4.215   1.890   4.123  0.3449 -0.1683 -0.3113
    1SOL    HW2 3650   4.265   1.943   4.184  0.3810 -0.8880  0.2872
    1SOL    HW3 3651   4.276   1.872   4.051  1.1864 -1.6336  0.7412
    1SOL    MW4 3652   4.230   1.895   4.122  0.4611 -0.4566 -0.0930
    1SOL     OW 3653   2.076   2.607   4.519 -0.3118 -0.4057 -0.0360
    1SOL    HW2 3654   2.138   2.675   4.547  0.0792 -0.7214 -0.1402
    1SOL    HW3 3655   2.130   2.540   4.477 -0.8287 -0.2215 -1.0179
    1SOL    MW4 3656   2.092   2.607   4.517 -0.3285 -0.4230 -0.1793
    1SOL     OW 3657   2.878   4.274   3.048  0.1469  0.0894  0.1117
    1SOL    HW2 3658   2.851   4.362   3.075 -1.3618 -0.3747  0.1639
    1SOL    HW3 3659   2.929   4.289   2.968  0.2022  1.0413  0.3138
    1SOL    MW4 3660   2.882   4.288   3.041 -0.0451  0.1535  0.1454
    1SOL     OW 3661   1.077   3.334   0.485 -0.4235  0.3366 -0.1058
    1SOL    HW2 3662   1.083   3.244   0.451  1.7021  0.1249  0.7521
    1SOL    HW3 3663   0.996   3.334   0.538 -0.6066 -0.9864 -0.3625
    1SOL    MW4 3664   1.067   3.322   0.488 -0.1673  0.1342 -0.0266
    1SOL     OW 3665   2.744   2.089   3.756  0.4256  0.2378 -0.1121
    1SOL    HW2 3666   2.782   2.067   3.842  2.1060  1.0968 -0.5944
    1SOL    HW3 3667   2.780   2.023   3.697  1.7614  1.4669 -0.7031
    1SOL    MW4 3668   2.754   2.077   3.760  0.8237  0.5131 -0.2537
    1SOL     OW 3669   0.671   3.096   2.303  0.0397  0.2817  0.3052
    1SOL    HW2 3670   0.601   3.161   2.304  0.0820  0.3416 -0.6786
    1SOL    HW3 3671   0.700   3.091   2.394 -0.3723  1.1906  0.4879
    1SOL    MW4 3672   0.665   3.104   2.315 -0.0091  0.4096  0.1996
    1SOL     OW 3673   1.847   3.169   4.267  0.0919 -0.3448 -0.7709
    1SOL    HW2 3674   1.811   3.083   4.288  0.4761 -0.2358  0.3976
    1SOL    HW3 3675   1.941   3.156   4.262  0.0330 -0.2768 -2.0505
    1SOL    MW4 3676   1.854   3.156   4.269  0.1348 -0.3211 -0.7854
    1SOL     OW 3677   0.242   1.783   3.599  0.0412 -0.0096  0.5260
    1SOL    HW2 3678   0.207   1.696   3.583 -1.5453  0.8967 -1.0749
    1SOL    HW3 3679   0.323   1.787   3.548 -0.0969 -0.3948  0.2816
    1SOL    MW4 3680   0.248   1.772   3.590 -0.1864  0.0591  0.2823
    1SOL     OW 3681   1.751   1.504   2.350 -0.2124  0.0596  0.1115
    1SOL    HW2 3682   1.842   1.507   2.381 -0.7542 -0.5059  1.8456
    1SOL    HW3 3683   1.706   1.570   2.402 -1.0301 -0.4789  0.1007
    1SOL    MW4 3684   1.757   1.513   2.361 -0.3918 -0.0861  0.3388
    1SOL     OW 3685   0.946   2.273   3.674 -0.3292  0.1135 -0.5178
    1SOL    HW2 3686   0.869   2.327   3.689 -0.8009 -0.9345  0.9589
    1SOL    HW3 3687   0.989   2.268   3.760  0.7483 -0.2763 -1.0698
    1SOL    MW4 3688   0.942   2.280   3.687 -0.2493 -0.0763 -0.3958
    1SOL     OW 3689   4.286   1.488   1.728 -0.3924  0.2125 -0.7357
    1SOL    HW2 3690   4.364   1.496   1.672 -0.2268  0.6950 -0.4451
    1SOL    HW3 3691   4.273   1.577   1.762 -2.0905  0.5130 -2.1250
    1SOL    MW4 3692   4.295   1.501   1.725 -0.5941  0.3157 -0.8806
    1SOL     OW 3693   3.795   4.027   3.399  0.1685 -0.0825  0.1949
    1SOL    HW2 3694   3.811   4.008   3.491  0.8460  0.4119  0.1897
    1SOL    HW3 3695   3.753   3.948   3.364  2.3274 -1.2990  0.3018
    1SOL    MW4 3696   3.791   4.014   3.406  0.5424 -0.1774  0.2081
    1SOL     OW 3697   1.391   4.177   0.887 -0.6039 -0.0841 -0.4164
    1SOL    HW2 3698   1.308   4.207   0.851 -1.1685 -1.1058  0.0305
    1SOL    HW3 3699   1.457   4.228   0.841 -1.4416  0.1837 -1.3197
    1SOL    MW4 3700   1.389   4.188   0.876 -0.7890 -0.1831 -0.4767
    1SOL     OW 3701   0.893   4.617   0.870  0.1186  0.4802 -0.4231
    1SOL    HW2 3702   0.826   4.583   0.929  1.3585 -2.7395 -0.8015
    1SOL    HW3 3703   0.973   4.618   0.923  0.6674  0.1528 -1.2342
    1SOL    MW4 3704   0.895   4.613   0.885  0.3546  0.0124 -0.5801
    1SOL     OW 3705   3.744   0.659   4.068  0.2290  0.3936 -0.2355
    1SOL    HW2 3706   3.729   0.650   3.974 -1.6360  1.5189 -0.0724
    1SOL    HW3 3707   3.787   0.744   4.078 -1.8415  1.4301  0.1224
    1SOL    MW4 3708   3.748   0.669   4.057 -0.2904  0.6788 -0.1664
    1SOL     OW 3709   0.600   0.098   4.248 -0.0259 -0.5437 -0.1614
    1SOL    HW2 3710   0.633   0.069   4.333  0.0538 -0.7474 -0.2606
    1SOL    HW3 3711   0.678   0.104   4.193  0.0246  0.3785  0.0047
    1SOL    MW4 3712   0.614   0.095   4.252 -0.0087 -0.4489 -0.1531
    1SOL     OW 3713   1.477   0.116   1.870 -0.3955 -0.5001 -0.1404
    1SOL    HW2 3714   1.407   0.115   1.805  0.1886 -0.6503 -0.7856
    1SOL    HW3 3715   1.435   0.139   1.952 -0.7037  2.4627 -1.0950
    1SOL    MW4 3716   1.462   0.119   1.872 -0.3589 -0.1290 -0.3515
    1SOL     OW 3717   1.006   0.680   4.152 -0.3992 -0.6153 -0.0508
    1SOL    HW2 3718   1.046   0.720   4.076 -2.1788 -0.7159 -1.0671
    1SOL    HW3 3719   0.982   0.754   4.209 -0.7840 -0.4194 -0.4632
    1SOL    MW4 3720   1.008   0.695   4.150 -0.6847 -0.6028 -0.2389
    1SOL     OW 3721   1.642   4.256   3.793 -0.3195  0.8917  0.0309
    1SOL    HW2 3722   1.603   4.186   3.845  0.3915  1.2158  0.9970
    1SOL    HW3 3723   1.663   4.324   3.856 -2.8688  2.8668 -1.1487
    1SOL    MW4 3724   1.639   4.255   3.808 -0.5621  1.1950  0.0029
    1SOL     OW 3725   4.253   2.308   3.914 -0.1952 -0.2638  0.3151
    1SOL    HW2 3726   4.241   2.377   3.849  1.3148 -0.2754  0.0235
    1SOL    HW3 3727   4.232   2.227   3.868 -1.3183 -0.0851  0.4780
    1SOL    MW4 3728   4.248   2.306   3.900 -0.1440 -0.2418  0.2980
    1SOL     OW 3729   1.264   4.114   3.239  0.4250 -0.4024 -0.2366
    1SOL    HW2 3730   1.320   4.134   3.163  1.2563  1.0672  0.7403
    1SOL    HW3 3731   1.325   4.081   3.305  0.0356  0.5066  0.5799
    1SOL    MW4 3732   1.280   4.113   3.237  0.4833 -0.0887 -0.0002
    1SOL     OW 3733   3.660   0.173   3.350  0.5330  0.7388  0.3227
    1SOL    HW2 3734   3.620   0.247   3.396  0.6996  1.3707 -0.5239
    1SOL    HW3 3735   3.674   0.107   3.418  0.2157  1.4145  1.0575
    1SOL    MW4 3736   3.656   0.174   3.365  0.5131  0.9114  0.3083
    1SOL     OW 3737   3.639   0.353   2.102 -0.1592  0.6783  0.3842
    1SOL    HW2 3738   3.579   0.405   2.155 -0.3991  0.4208  0.3665
    1SOL    HW3 3739   3.646   0.270   2.148 -1.9075 -0.2676 -1.0031
    1SOL    MW4 3740   3.632   0.349   2.115 -0.4215  0.5196  0.1986
    1SOL     OW 3741   2.790   1.460   2.677  0.4456 -0.0577  0.0320
    1SOL    HW2 3742   2.778   1.376   2.633  1.4333 -0.7077  0.9748
    1SOL    HW3 3743   2.723   1.462   2.746  0.3824 -0.0450 -0.0298
    1SOL    MW4 3744   2.780   1.449   2.681  0.5677 -0.1417  0.1481
    1SOL     OW 3745   0.030   3.914   3.665  0.3758 -0.3361  0.2577
    1SOL    HW2 3746   0.086   3.915   3.587 -0.7593 -1.9672 -0.5897
    1SOL    HW3 3747   0.078   3.861   3.728  0.6787 -0.1353  0.1964
    1SOL    MW4 3748   0.044   3.907   3.663  0.2660 -0.5245  0.1378
    1SOL     OW 3749   1.680   2.840   1.698  0.7256  0.1797  0.5339
    1SOL    HW2 3750   1.609   2.905   1.697  1.3653  0.8901  0.4430
    1SOL    HW3 3751   1.636   2.757   1.681 -0.0784  0.6236  0.3738
    1SOL    MW4 3752   1.664   2.838   1.695  0.7038  0.3321  0.5009
    1SOL     OW 3753   2.996   2.416   3.914 -0.6030  0.4621  0.3530
    1SOL    HW2 3754   2.960   2.403   3.826 -1.9321  1.5948  0.7082
    1SOL    HW3 3755   3.091   2.416   3.901 -0.7081 -1.5180 -0.7613
    1SOL    MW4 3756   3.003   2.414   3.900 -0.7923  0.3505  0.2527
    1SOL     OW 3757   1.978   4.604   0.994 -0.2392  0.5940  0.0410
    1SOL    HW2 3758   1.937   4.572   0.914 -1.0818  1.0328  0.2898
    1SOL    HW3 3759   2.005   4.525   1.040  0.5816  0.3505 -0.8407
    1SOL    MW4 3760   1.976   4.590   0.990 -0.2422  0.6204 -0.0424
    1SOL     OW 3761   2.368   0.911   0.990  0.2708  0.0068  0.1869
    1SOL    HW2 3762   2.288   0.861   0.972 -0.1250 -0.1173  2.1377
    1SOL    HW3 3763   2.358   0.991   0.938 -0.8715 -0.2523 -0.0195
    1SOL    MW4 3764   2.356   0.915   0.981  0.0679 -0.0437  0.4170
    1SOL     OW 3765   4.167   1.021   1.841  0.7769  0.0127 -0.1613
    1SOL    HW2 3766   4.126   1.013   1.755  0.2207 -0.2539  0.1291
    1SOL    HW3 3767   4.159   1.113   1.864 -2.9429 -0.6524  1.5147
    1SOL    MW4 3768   4.161   1.032   1.833  0.2131 -0.1103  0.0981
    1SOL     OW 3769   2.344   0.293   4.022  0.0437  0.2180  0.0667
    1SOL    HW2 3770   2.296   0.240   3.958  0.4701  3.1050 -2.7072
    1SOL    HW3 3771   2.290   0.371   4.035  1.4690  1.0948  0.8900
    1SOL    MW4 3772   2.330   0.296   4.015  0.2878  0.7146 -0.1903
    1SOL     OW 3773   2.065   2.018   3.958  0.2246  0.3257  0.0030
    1SOL    HW2 3774   2.011   1.939   3.963 -0.3890  0.8190  1.1707
    1SOL    HW3 3775   2.046   2.054   3.871 -1.4956  0.5917  0.4607
    1SOL    MW4 3776   2.055   2.012   3.947 -0.0834  0.4258  0.2177
    1SOL     OW 3777   2.070   1.869   4.372 -0.1895  0.2210  0.2954
    1SOL    HW2 3778   2.162   1.852   4.349  0.0372 -0.4582  1.6771
    1SOL    HW3 3779   2.062   1.964   4.368  1.3408  0.5107  2.9234
    1SOL    MW4 3780   2.081   1.879   4.368  0.0424  0.1698  0.8249
    1SOL     OW 3781   4.181   1.158   4.014  0.4836 -0.1677  0.2539
    1SOL    HW2 3782   4.231   1.120   3.942  1.1641 -2.5007  1.9023
    1SOL    HW3 3783   4.194   1.252   4.005  2.4525 -0.5520 -1.3154
    1SOL    MW4 3784   4.189   1.165   4.004  0.8335 -0.5261  0.2642
    1SOL     OW 3785   2.989   4.202   1.969  0.3641  0.2053 -0.2263
    1SOL    HW2 3786   2.921   4.185   2.034  0.6716  1.3872  0.4027
    1SOL    HW3 3787   2.941   4.228   1.891  0.1517  4.4985  1.2211
    1SOL    MW4 3788   2.973   4.203   1.967  0.3767  0.9274  0.0476
    1SOL     OW 3789   4.458   1.108   3.006 -0.3907 -0.5043  0.4633
    1SOL    HW2 3790   4.477   1.074   2.918 -2.6465 -1.2139  0.2316
    1SOL    HW3 3791   4.472   1.203   2.998 -0.2623 -0.5998 -0.5817
    1SOL    MW4 3792   4.463   1.116   2.993 -0.6714 -0.6106  0.2949
    1SOL     OW 3793   3.684   4.078   2.148 -0.5639  0.0995  0.4167
    1SOL    HW2 3794   3.773   4.113   2.157 -0.3089 -0.6067  0.7482
    1SOL    HW3 3795   3.681   4.041   2.060 -0.4914  0.0180  0.4487
    1SOL    MW4 3796   3.695   4.078   2.138 -0.5207 -0.0043  0.4647
    1SOL     OW 3797   0.946   2.694   0.927  0.0648 -0.1236  0.4306
    1SOL    HW2 3798   0.949   2.645   1.009  2.7791 -0.8485 -0.0747
    1SOL    HW3 3799   0.900   2.775   0.950 -0.6103 -1.0012  2.2795
    1SOL    MW4 3800   0.940   2.699   0.941  0.3338 -0.3350  0.6079
    1SOL     OW 3801   3.093   1.410   1.686 -0.1589  0.1734  0.3119
    1SOL    HW2 3802   3.165   1.471   1.698  0.8277 -0.9203 -0.0185
    1SOL    HW3 3803   3.028   1.459   1.635  1.6237  0.1808 -1.9979
    1SOL    MW4 3804   3.094   1.424   1.681  0.2065  0.0299 -0.0366
    1SOL     OW 3805   3.998   0.170   2.466  0.4942 -0.3180  0.1929
    1SOL    HW2 3806   3.996   0.250   2.519 -0.4939  0.2833 -0.7458
    1SOL    HW3 3807   4.079   0.178   2.415 -0.6472  1.1373 -1.4698
    1SOL    MW4 3808   4.009   0.181   2.466  0.2131 -0.0466 -0.1507
    1SOL     OW 3809   2.329   1.602   3.770  0.6960  0.3382  0.2120
    1SOL    HW2 3810   2.240   1.565   3.771  1.2133 -0.9770 -0.7999
    1SOL    HW3 3811   2.335   1.651   3.851 -1.3153  1.2938 -0.1677
    1SOL    MW4 3812   2.318   1.604   3.781  0.4990  0.2906  0.0284
    1SOL     OW 3813   3.852   1.155   2.025 -0.1432  0.6384 -0.1644
    1SOL    HW2 3814   3.825   1.230   2.077  0.1941 -0.0348  0.9900
    1SOL    HW3 3815   3.944   1.141   2.047 -0.3923 -0.5537  0.1708
    1SOL    MW4 3816   3.860   1.163   2.035 -0.1314  0.3922  0.0322
    1SOL     OW 3817   4.324   1.896   3.000  0.0689 -0.4434 -0.0978
    1SOL    HW2 3818   4.400   1.838   3.006 -0.8905 -1.9333 -1.9507
    1SOL    HW3 3819   4.299   1.911   3.091  3.6239  1.5414  0.6370
    1SOL    MW4 3820   4.330   1.890   3.013  0.4120 -0.3780 -0.2451
    1SOL     OW 3821   1.288   3.487   2.798  0.9624  0.6688  0.2988
    1SOL    HW2 3822   1.229   3.547   2.751  0.8320  0.1720 -0.1785
    1SOL    HW3 3823   1.361   3.473   2.737  0.7905  0.0194  0.2318
    1SOL    MW4 3824   1.290   3.493   2.783  0.9226  0.5176  0.2270
    1SOL     OW 3825   0.938   2.138   4.306 -0.2936 -0.2692  0.6475
    1SOL    HW2 3826   0.952   2.221   4.261  1.0803 -0.3285  0.9596
    1SOL    HW3 3827   0.886   2.086   4.245 -0.7059  0.6259  0.2344
    1SOL    MW4 3828   0.933   2.142   4.292 -0.1668 -0.1590  0.6347
    1SOL     OW 3829   0.450   3.713   1.319  0.1405  0.1312 -0.2081
    1SOL    HW2 3830   0.419   3.763   1.395  0.5221  1.0930 -0.6746
    1SOL    HW3 3831   0.375   3.710   1.260 -0.0238 -0.2439  0.0191
    1SOL    MW4 3832   0.436   3.719   1.322  0.1692  0.2086 -0.2397
    1SOL     OW 3833   0.098   1.318   0.542  0.3772  0.1708 -0.0094
    1SOL    HW2 3834   0.043   1.373   0.486 -1.2756 -1.0994  0.3345
    1SOL    HW3 3835   0.047   1.308   0.622  0.9197 -1.3830  0.1491
    1SOL    MW4 3836   0.084   1.324   0.545  0.2307 -0.2018  0.0568
    1SOL     OW 3837   0.992   2.007   1.847 -0.1349  0.2435  0.0816
    1SOL    HW2 3838   1.087   1.995   1.847 -0.3515 -1.7390  0.8466
    1SOL    HW3 3839   0.977   2.081   1.905  0.8807  0.0446  0.6087
    1SOL    MW4 3840   1.002   2.015   1.854 -0.0294 -0.0443  0.2520
    1SOL     OW 3841   3.818   0.882   2.789 -0.0611  0.1295  0.2455
    1SOL    HW2 3842   3.795   0.813   2.727  0.1189 -1.0867  1.4964
    1SOL    HW3 3843   3.781   0.962   2.751  0.0796 -0.5838 -1.4216
    1SOL    MW4 3844   3.810   0.883   2.776 -0.0188 -0.1251  0.1905
    1SOL     OW 3845   1.178   4.419   2.448 -0.3201  0.7097 -0.1569
    1SOL    HW2 3846   1.196   4.367   2.527 -1.7744  0.8443  0.2761
    1SOL    HW3 3847   1.263   4.456   2.424  0.3671 -0.3302  0.6327
    1SOL    MW4 3848   1.192   4.417   2.455 -0.4213  0.5908  0.0045
    1SOL     OW 3849   4.438   4.015   4.051 -0.4145 -0.0610  0.2263
    1SOL    HW2 3850   4.474   4.062   4.125 -0.2073  1.4403 -0.8126
    1SOL    HW3 3851   4.466   4.065   3.974  0.2938 -2.1704 -0.9400
    1SOL    MW4 3852   4.446   4.027   4.050 -0.2937 -0.1416 -0.0644
    1SOL     OW 3853   1.267   2.039   1.827 -0.3726 -0.2226 -0.0828
    1SOL    HW2 3854   1.318   2.089   1.891 -2.3591  1.1125  0.5465
    1SOL    HW3 3855   1.301   2.067   1.742  0.5091  0.0135  0.3434
    1SOL    MW4 3856   1.278   2.049   1.824 -0.5184 -0.0150  0.0565
    1SOL     OW 3857   3.117   3.446   1.808 -0.2831 -0.1288  0.3767
    1SOL    HW2 3858   3.089   3.363   1.845  2.0978 -0.9964  0.3235
    1SOL    HW3 3859   3.153   3.423   1.722 -0.7556  1.1249 -0.1662
    1SOL    MW4 3860   3.118   3.432   1.801 -0.0312 -0.0780  0.2980
    1SOL     OW 3861   1.688   2.442   1.845  0.1232 -0.5111 -0.5512
    1SOL    HW2 3862   1.721   2.371   1.900  2.3653 -0.4106 -1.6928
    1SOL    HW3 3863   1.729   2.521   1.880  1.1066 -0.3718 -1.9570
    1SOL    MW4 3864   1.698   2.443   1.857  0.5488 -0.4795 -0.8872
    1SOL     OW 3865   4.428   2.707   1.648 -0.1436 -0.5401 -0.3277
    1SOL    HW2 3866   4.368   2.781   1.660 -1.4925 -1.2687 -2.3434
    1SOL    HW3 3867   4.382   2.632   1.685 -0.1330 -0.9547 -1.1481
    1SOL    MW4 3868   4.414   2.707   1.654 -0.3204 -0.6909 -0.7019
    1SOL     OW 3869   4.487   0.733   0.656  0.0679  0.5395  0.1219
    1SOL    HW2 3870   4.394   0.722   0.637 -0.2195  0.5991  1.4323
    1SOL    HW3 3871   4.504   0.825   0.637 -0.1722  0.5611  0.0044
    1SOL    MW4 3872   4.477   0.744   0.651 -0.0014  0.5502  0.2792
    1SOL     OW 3873   4.159   4.537   1.088  0.1919 -0.0504  0.2409
    1SOL    HW2 3874   4.166   4.531   1.183  0.1613  1.1771  0.3315
    1SOL    HW3 3875   4.107   4.617   1.073  0.1151 -0.2908 -0.7979
    1SOL    MW4 3876   4.153   4.547   1.098  0.1774  0.0796  0.1159
    1SOL     OW 3877   2.859   3.274   3.077  0.1314 -0.0044  0.0576
    1SOL    HW2 3878   2.768   3.283   3.050 -0.0231 -0.3251  0.4496
    1SOL    HW3 3879   2.906   3.343   3.030  0.1010 -1.3437 -2.0101
    1SOL    MW4 3880   2.853   3.284   3.068  0.1070 -0.2234 -0.1636
    1SOL     OW 3881   2.742   0.578   2.371 -0.2571 -0.2783 -0.0318
    1SOL    HW2 3882   2.802   0.534   2.431  0.7311 -1.1315 -1.6106
    1SOL    HW3 3883   2.752   0.671   2.391  0.0928 -0.5402  1.0727
    1SOL    MW4 3884   2.751   0.584   2.382 -0.0806 -0.4254 -0.0942
    1SOL     OW 3885   3.331   2.587   1.753 -0.5004 -0.3063 -0.1216
    1SOL    HW2 3886   3.367   2.666   1.711 -0.5112 -1.4092 -2.2650
    1SOL    HW3 3887   3.236   2.598   1.746 -0.5061 -0.3869 -0.1632
    1SOL    MW4 3888   3.323   2.599   1.746 -0.5028 -0.4625 -0.4098
    1SOL     OW 3889   1.168   0.633   0.753  0.1217  0.4549 -0.4335
    1SOL    HW2 3890   1.210   0.667   0.674  0.1517  0.5066 -0.3947
    1SOL    HW3 3891   1.239   0.622   0.816 -0.0185  1.1450 -0.1544
    1SOL    MW4 3892   1.183   0.636   0.751  0.1072  0.5527 -0.3915
    1SOL     OW 3893   2.534   3.772   0.919  0.3660  0.1031 -0.6857
    1SOL    HW2 3894   2.532   3.822   0.838  0.6776 -0.8711 -1.2996
    1SOL    HW3 3895   2.585   3.826   0.979  1.0802  0.3276 -1.4803
    1SOL    MW4 3896   2.541   3.785   0.916  0.5014  0.0041 -0.8715
    1SOL     OW 3897   4.380   1.061   2.401 -0.3622  0.6582  0.0934
    1SOL    HW2 3898   4.321   1.085   2.472 -0.3043  0.1103  0.3231
    1SOL    HW3 3899   4.342   0.982   2.362  0.4529  0.0404  0.5275
    1SOL    MW4 3900   4.367   1.054   2.405 -0.2465  0.5044  0.1807
    1SOL     OW 3901   1.666   3.060   3.056  0.6483  0.0126  0.2884
    1SOL    HW2 3902   1.629   3.082   2.970  0.0797  0.8991  0.7465
    1SOL    HW3 3903   1.753   3.101   3.056 -0.1415  1.7559  0.8821
    1SOL    MW4 3904   1.673   3.068   3.044  0.4692  0.3595  0.4272
    1SOL     OW 3905   3.144   1.153   1.802 -0.0797 -0.1628 -0.2402
    1SOL    HW2 3906   3.185   1.199   1.875  0.2027  0.0434 -0.5327
    1SOL    HW3 3907   3.121   1.222   1.740 -0.0838 -0.3686 -0.4657
    1SOL    MW4 3908   3.146   1.168   1.804 -0.0432 -0.1628 -0.3085
    1SOL     OW 3909   1.320   0.125   3.780 -0.4934 -0.5171 -0.5584
    1SOL    HW2 3910   1.342   0.195   3.842 -0.4964  0.7030 -1.9217
    1SOL    HW3 3911   1.231   0.146   3.750 -0.4369 -1.0239 -1.0912
    1SOL    MW4 3912   1.311   0.137   3.784 -0.4863 -0.4230 -0.8082
    1SOL     OW 3913   1.409   0.319   3.966  0.6833 -0.2388  0.0135
    1SOL    HW2 3914   1.469   0.359   3.903  0.2434  0.0317 -0.2370
    1SOL    HW3 3915   1.330   0.372   3.961  0.1556 -1.0255 -0.1913
    1SOL    MW4 3916   1.406   0.331   3.957  0.5556 -0.3069 -0.0465
    1SOL     OW 3917   4.126   3.937   4.350  0.1094 -0.5278 -0.4805
    1SOL    HW2 3918   4.035   3.930   4.378 -0.6158  1.1442 -2.2768
    1SOL    HW3 3919   4.121   3.972   4.261  2.6148  2.2781  0.4025
    1SOL    MW4 3920   4.113   3.941   4.342  0.3438  0.0629 -0.6013
    1SOL     OW 3921   4.304   4.091   3.130  0.4780  0.5993  0.1353
    1SOL    HW2 3922   4.239   4.126   3.069 -0.5482 -0.9730  0.2919
    1SOL    HW3 3923   4.297   4.147   3.207 -0.6806  0.4768  0.1362
    1SOL    MW4 3924   4.294   4.103   3.132  0.1898  0.3757  0.1559
    1SOL     OW 3925   2.249   1.488   3.110  0.2016 -0.1621  0.6174
    1SOL    HW2 3926   2.260   1.417   3.174  0.0903 -0.5164  0.2479
    1SOL    HW3 3927   2.313   1.554   3.136  0.6293 -0.6035  0.6881
    1SOL    MW4 3928   2.259   1.487   3.121  0.2432 -0.2670  0.5782
    1SOL     OW 3929   2.654   2.748   1.713  0.4579  0.4363  0.1533
    1SOL    HW2 3930   2.694   2.702   1.640 -0.2220  0.8858 -0.5069
    1SOL    HW3 3931   2.629   2.833   1.678 -0.5166  0.3961  0.7064
    1SOL    MW4 3932   2.656   2.753   1.699  0.2394  0.4904  0.1392
    1SOL     OW 3933   4.459   2.159   3.167 -0.1374 -0.1185 -0.6304
    1SOL    HW2 3934   4.474   2.206   3.085 -2.7068  3.2234  0.7019
    1SOL    HW3 3935   4.364   2.161   3.179  0.0343 -2.3433  1.4303
    1SOL    MW4 3936   4.448   2.165   3.158 -0.4535  0.0291 -0.1831
    1SOL     OW 3937   0.482   1.424   1.196 -0.4011  0.8859 -0.2144
    1SOL    HW2 3938   0.468   1.518   1.198 -2.3022  0.6272 -0.3503
    1SOL    HW3 3939   0.428   1.393   1.124  1.9225 -0.0644 -1.5963
    1SOL    MW4 3940   0.473   1.432   1.187 -0.3454  0.7265 -0.4145
    1SOL     OW 3941   2.411   3.153   2.986 -0.3058  0.0811 -0.2518
    1SOL    HW2 3942   2.342   3.153   2.919 -0.0807  1.2317 -0.4923
    1SOL    HW3 3943   2.368   3.187   3.064 -0.0518  0.6590 -0.3615
    1SOL    MW4 3944   2.396   3.157   2.988 -0.2425  0.3090 -0.2983
    1SOL     OW 3945   3.132   1.979   3.165  0.4174 -0.1037  0.0682
    1SOL    HW2 3946   3.216   2.013   3.196  0.5287  0.4118 -0.7953
    1SOL    HW3 3947   3.155   1.900   3.116  0.5298  0.7345 -1.2562
    1SOL    MW4 3948   3.146   1.973   3.163  0.4473  0.0749 -0.2203
    1SOL     OW 3949   1.919   0.392   1.584 -0.3389 -0.0757 -0.2823
    1SOL    HW2 3950   1.976   0.316   1.588 -0.1555  0.0555 -0.3605
    1SOL    HW3 3951   1.948   0.448   1.657 -0.5403 -0.1284 -0.1622
    1SOL    MW4 3952   1.931   0.390   1.594 -0.3413 -0.0653 -0.2768
    1SOL     OW 3953   0.853   3.348   2.365 -0.3139  0.1138 -0.1552
    1SOL    HW2 3954   0.816   3.378   2.282 -1.6827 -0.4967  0.2190
    1SOL    HW3 3955   0.904   3.270   2.342 -1.5977 -0.7014 -0.2730
    1SOL    MW4 3956   0.855   3.341   2.351 -0.6638 -0.0741 -0.1214
    1SOL     OW 3957   0.823   3.601   3.418  0.1306 -0.2927 -0.3035
    1SOL    HW2 3958   0.790   3.674   3.469  0.7394 -1.5973  1.9935
    1SOL    HW3 3959   0.898   3.636   3.371  0.0695  0.6966  0.3198
    1SOL    MW4 3960   0.828   3.615   3.418  0.2029 -0.3343  0.0818
    1SOL     OW 3961   0.150   0.800   2.256 -0.3494 -0.1226 -0.0884
    1SOL    HW2 3962   0.102   0.718   2.271  1.1559 -1.0862 -0.4109
    1SOL    HW3 3963   0.238   0.772   2.234  0.1651  1.6074 -0.2900
    1SOL    MW4 3964   0.155   0.785   2.255 -0.0829 -0.0215 -0.1574
    1SOL     OW 3965   0.873   0.333   3.007  0.0186  0.1379  0.6396
    1SOL    HW2 3966   0.926   0.412   2.996 -0.7771  0.5383 -0.4135
    1SOL    HW3 3967   0.884   0.285   2.925 -1.4432  0.3514  0.3082
    1SOL    MW4 3968   0.882   0.337   2.994 -0.2792  0.2189  0.4573
    1SOL     OW 3969   3.712   2.681   2.870  0.3893 -0.6380 -0.6589
    1SOL    HW2 3970   3.668   2.730   2.940 -1.3115  0.5209 -2.4911
    1SOL    HW3 3971   3.793   2.730   2.853 -0.1316  0.1785 -0.8102
    1SOL    MW4 3972   3.717   2.694   2.877  0.0963 -0.3774 -0.9208
    1SOL     OW 3973   1.812   1.786   2.089 -0.5426  0.2101  0.3142
    1SOL    HW2 3974   1.818   1.726   2.015  0.6596 -0.2025  0.7323
    1SOL    HW3 3975   1.725   1.826   2.081 -0.7158 -0.3875 -0.8800
    1SOL    MW4 3976   1.801   1.784   2.078 -0.4067  0.0769  0.2117
    1SOL     OW 3977   0.367   3.629   4.386  0.2124 -0.1316 -0.3623
    1SOL    HW2 3978   0.334   3.554   4.436 -0.9772  0.1839 -0.6776
    1SOL    HW3 3979   0.433   3.590   4.328  1.0849 -0.6092  0.9191
    1SOL    MW4 3980   0.372   3.614   4.385  0.1706 -0.1531 -0.2351
    1SOL     OW 3981   0.685   1.594   0.758 -0.3641 -0.1919  0.3849
    1SOL    HW2 3982   0.736   1.521   0.794 -2.1590 -2.1084 -0.8703
    1SOL    HW3 3983   0.595   1.574   0.780 -0.8529  1.9545  0.4665
    1SOL    MW4 3984   0.680   1.582   0.766 -0.6654 -0.1615  0.2301
    1SOL     OW 3985   3.113   1.123   3.513  0.3573 -0.4701 -0.0873
    1SOL    HW2 3986   3.073   1.160   3.592  0.0083  0.6656 -0.7973
    1SOL    HW3 3987   3.048   1.135   3.444  1.8062  1.1973 -1.2050
    1SOL    MW4 3988   3.099   1.129   3.515  0.5026 -0.1003 -0.3285
    1SOL     OW 3989   4.346   2.007   0.534  0.1287 -0.3030 -0.5278
    1SOL    HW2 3990   4.251   2.002   0.545  0.0616  0.4092 -0.7911
    1SOL    HW3 3991   4.377   2.050   0.614  0.2254 -0.5295 -0.4445
    1SOL    MW4 3992   4.338   2.012   0.546  0.1326 -0.2389 -0.5516
    1SOL     OW 3993   1.725   0.686   3.949  0.0772  0.0309 -0.9043
    1SOL    HW2 3994   1.651   0.627   3.947 -0.1312  0.1267  1.5338
    1SOL    HW3 3995   1.702   0.757   3.889 -1.4559 -0.3305 -0.7526
    1SOL    MW4 3996   1.712   0.688   3.941 -0.1526 -0.0041 -0.5629
    1SOL     OW 3997   4.415   0.414   4.229 -0.0234 -0.2948 -0.2438
    1SOL    HW2 3998   4.393   0.321   4.226 -0.0548 -0.2542 -1.6049
    1SOL    HW3 3999   4.347   0.456   4.176  1.8487  0.1123 -2.3962
    1SOL    MW4 4000   4.403   0.407   4.222  0.2198 -0.2358 -0.7076
    1SOL     OW 4001   2.888   4.452   0.696 -0.0066  0.0343  0.0208
    1SOL    HW2 4002   2.957   4.514   0.675 -2.2737  1.4645 -3.6666
    1SOL    HW3 4003   2.907   4.376   0.641 -0.1827 -0.4281  0.5985
    1SOL    MW4 4004   2.900   4.450   0.686 -0.3288  0.1616 -0.3895
    1SOL     OW 4005   3.853   4.531   3.096  0.1785 -0.4414  0.5262
    1SOL    HW2 4006   3.885   4.541   3.185  0.4149  0.8535  0.2988
    1SOL    HW3 4007   3.852   4.620   3.060  3.0098 -1.2480 -1.7395
    1SOL    MW4 4008   3.857   4.544   3.103  0.5832 -0.3772  0.1972
    1SOL     OW 4009   2.068   2.362   3.750 -0.4091 -0.0232 -0.4283
    1SOL    HW2 4010   1.988   2.406   3.722 -1.2301  0.1862  2.1122
    1SOL    HW3 4011   2.051   2.269   3.733 -1.6033 -0.0821  0.9584
    1SOL    MW4 4012   2.055   2.355   3.744 -0.6752 -0.0033  0.0896
    1SOL     OW 4013   2.262   2.322   3.022  0.3163  0.0374 -0.4569
    1SOL    HW2 4014   2.345   2.286   3.054  0.1960  1.4343  1.5223
    1SOL    HW3 4015   2.288   2.392   2.962  0.5504 -0.2877 -0.7407
    1SOL    MW4 4016   2.276   2.326   3.018  0.3314  0.1788 -0.2334
    1SOL     OW 4017   0.390   3.885   1.567  0.2837 -0.3089  0.0440
    1SOL    HW2 4018   0.463   3.879   1.629  0.0382 -0.0104  0.3572
    1SOL    HW3 4019   0.340   3.961   1.595  0.6264  0.3266 -1.0012
    1SOL    MW4 4020   0.393   3.894   1.579  0.2965 -0.1853 -0.0525
    1SOL     OW 4021   4.302   1.765   1.802  0.2801  0.0611 -0.1709
    1SOL    HW2 4022   4.244   1.823   1.851 -1.1176 -1.0415 -0.4975
    1SOL    HW3 4023   4.285   1.786   1.710  1.7968  1.0688 -0.2277
    1SOL    MW4 4024   4.292   1.775   1.796  0.2961  0.0488 -0.2214
    1SOL     OW 4025   3.477   1.666   4.252 -0.1096  0.4324 -0.0978
    1SOL    HW2 4026   3.418   1.731   4.292 -0.6965  1.7342 -2.9707
    1SOL    HW3 4027   3.555   1.716   4.229  1.5913 -1.0041  2.3868
    1SOL    MW4 4028   3.479   1.681   4.255  0.0377  0.4146 -0.1493
    1SOL     OW 4029   0.449   2.043   1.583 -0.6461 -0.6363  0.3282
    1SOL    HW2 4030   0.417   2.106   1.647 -1.4203 -1.5569  0.8722
    1SOL    HW3 4031   0.449   2.091   1.500  0.9035  0.7324  1.0915
    1SOL    MW4 4032   0.445   2.057   1.580 -0.5438 -0.5770  0.5007
    1SOL     OW 4033   0.951   1.882   3.721  0.0555 -0.3796 -0.3676
    1SOL    HW2 4034   1.044   1.868   3.738 -0.2729 -3.4853 -0.8527
    1SOL    HW3 4035   0.950   1.936   3.642  1.4362  0.4502  0.1612
    1SOL    MW4 4036   0.964   1.887   3.712  0.1943 -0.6800 -0.3617
    1SOL     OW 4037   1.753   0.830   3.072 -0.4986  0.1875  0.0372
    1SOL    HW2 4038   1.719   0.896   3.012 -1.6082 -1.4848 -1.2104
    1SOL    HW3 4039   1.701   0.841   3.152 -0.5016  0.9837 -0.0779
    1SOL    MW4 4040   1.741   0.840   3.075 -0.6454  0.0719 -0.1423
    1SOL     OW 4041   2.781   1.640   1.936 -0.1671 -0.3133  0.0387
    1SOL    HW2 4042   2.689   1.642   1.961 -0.3412 -0.4558 -0.5913
    1SOL    HW3 4043   2.794   1.555   1.895  0.6256 -0.9305  1.5416
    1SOL    MW4 4044   2.771   1.629   1.934 -0.0854 -0.4135  0.1538
    1SOL     OW 4045   4.061   3.309   3.016 -0.6403 -0.0541 -0.3343
    1SOL    HW2 4046   3.973   3.321   2.982 -1.5138 -2.2760  1.0023
    1SOL    HW3 4047   4.056   3.228   3.068  1.6640  0.8629  1.4337
    1SOL    MW4 4048   4.049   3.299   3.019 -0.4520 -0.2263  0.0753
    1SOL     OW 4049   3.674   0.679   2.637 -0.6008  0.3911 -0.1219
    1SOL    HW2 4050   3.629   0.722   2.564  0.6447  0.4438 -0.8884
    1SOL    HW3 4051   3.629   0.711   2.715 -2.7037 -0.5568 -0.9139
    1SOL    MW4 4052   3.663   0.689   2.638 -0.7138  0.2729 -0.3276
    1SOL     OW 4053   0.041   1.599   3.180  0.4832  0.0580 -0.3124
    1SOL    HW2 4054   0.109   1.578   3.244  0.6661  0.9119 -0.2281
    1SOL    HW3 4055   0.040   1.694   3.176  1.0086 -0.0014 -2.1640
    1SOL    MW4 4056   0.049   1.609   3.188  0.5766  0.1628 -0.5457
    1SOL     OW 4057   4.453   3.781   0.654  0.0168  0.1310 -0.8051
    1SOL    HW2 4058   4.441   3.775   0.749 -1.6919  1.7507 -0.8789
    1SOL    HW3 4059   4.547   3.792   0.642 -0.0107  2.7268  0.9196
    1SOL    MW4 4060   4.464   3.782   0.665 -0.2122  0.6871 -0.5873
    1SOL     OW 4061   3.009   2.293   3.080  0.3544  0.0552 -0.5607
    1SOL    HW2 4062   3.046   2.379   3.098  0.4199  0.7858 -3.8868
    1SOL    HW3 4063   2.930   2.289   3.133  1.4343  1.3085  1.1912
    1SOL    MW4 4064   3.003   2.304   3.089  0.5057  0.3171 -0.7689
    1SOL     OW 4065   2.139   1.229   0.933  0.0626  0.2105  0.0525
    1SOL    HW2 4066   2.146   1.315   0.975 -1.3078  0.4099 -0.1075
    1SOL    HW3 4067   2.229   1.203   0.917  0.4757  2.6858 -2.0610
    1SOL    MW4 4068   2.152   1.237   0.936 -0.0637  0.5634 -0.2475
    1SOL     OW 4069   0.895   0.804   4.397  0.4843  0.4029  0.1688
    1SOL    HW2 4070   0.813   0.755   4.383  0.5780  1.0700 -3.2146
    1SOL    HW3 4071   0.869   0.896   4.396  1.1674  0.5995 -0.2421
    1SOL    MW4 4072   0.881   0.810   4.395  0.5867  0.5168 -0.3319
    1SOL     OW 4073   1.562   2.058   1.621 -0.6424  0.1550  0.0551
    1SOL    HW2 4074   1.595   2.055   1.710  0.4201 -1.2958 -0.3606
    1SOL    HW3 4075   1.564   2.151   1.597  0.9916  0.3383  0.8443
    1SOL    MW4 4076   1.566   2.070   1.629 -0.2866 -0.0119  0.1044
    1SOL     OW 4077   1.576   3.830   1.797 -0.6039  0.2435  0.1024
    1SOL    HW2 4078   1.545   3.853   1.710 -1.2226 -1.2862 -0.0978
    1SOL    HW3 4079   1.574   3.734   1.799 -1.6109  0.2709  2.1279
    1SOL    MW4 4080   1.571   3.820   1.786 -0.8184  0.0455  0.3433
    1SOL     OW 4081   3.247   3.860   3.476 -0.4760 -0.5498  0.1103
    1SOL    HW2 4082   3.249   3.941   3.425  0.6746 -1.2562 -0.9779
    1SOL    HW3 4083   3.220   3.888   3.564  1.1412  1.1760  0.0764
    1SOL    MW4 4084   3.243   3.875   3.481 -0.1109 -0.4156 -0.0377
    1SOL     OW 4085   3.686   1.893   4.569 -0.0534 -0.0951 -0.6394
    1SOL    HW2 4086   3.690   1.805   4.607 -1.0345  0.0288 -0.2234
    1SOL    HW3 4087   3.612   1.890   4.508  0.4196  0.2130 -1.2349
    1SOL    MW4 4088   3.677   1.881   4.566 -0.1202 -0.0380 -0.6633
    1SOL     OW 4089   2.199   4.253   4.057  0.2635  0.4430  0.3172
    1SOL    HW2 4090   2.215   4.203   4.137 -0.5823 -0.9494 -0.3664
    1SOL    HW3 4091   2.267   4.225   3.996 -1.0141 -0.8824 -0.5143
    1SOL    MW4 4092   2.210   4.243   4.059 -0.0167  0.0849  0.1173
    1SOL     OW 4093   0.605   1.166   2.339  0.2123 -0.3059 -0.3015
    1SOL    HW2 4094   0.527   1.219   2.320 -0.3119 -1.4134 -1.2718
    1SOL    HW3 4095   0.601   1.153   2.434  1.2523  2.7708  0.2330
    1SOL    MW4 4096   0.594   1.171   2.349  0.2803 -0.0459 -0.3591
    1SOL     OW 4097   4.393   2.941   0.716  0.1225  0.4362  0.7616
    1SOL    HW2 4098   4.364   2.856   0.750  1.0448  0.6040  2.0241
    1SOL    HW3 4099   4.485   2.927   0.691  0.4901  1.2373  1.6337
    1SOL    MW4 4100   4.402   2.928   0.717  0.2933  0.5639  1.0433
    1SOL     OW 4101   0.513   1.633   4.672  0.0594 -0.6471 -0.0811
    1SOL    HW2 4102   0.538   1.554   4.623  1.3475 -0.1323 -0.2924
    1SOL    HW3 4103   0.555   1.704   4.624 -0.3967  0.0778  0.5953
    1SOL    MW4 4104   0.522   1.632   4.659  0.1692 -0.4836 -0.0191
    1SOL     OW 4105   2.639   2.312   1.811 -0.5000  0.1394  0.1105
    1SOL    HW2 4106   2.688   2.301   1.729 -0.4092  2.3587 -0.1730
    1SOL    HW3 4107   2.564   2.253   1.802 -0.3768  0.1994 -1.4928
    1SOL    MW4 4108   2.636   2.303   1.799 -0.4718  0.4399 -0.1384
    1SOL     OW 4109   2.096   4.517   4.073  0.0923 -0.5161  0.0165
    1SOL    HW2 4110   2.129   4.427   4.082  1.9655 -0.0039 -1.3114
    1SOL    HW3 4111   2.083   4.546   4.163  2.6051 -1.0332  0.5892
    1SOL    MW4 4112   2.099   4.509   4.086  0.6709 -0.5169 -0.0830
    1SOL     OW 4113   3.919   3.350   0.580  0.4023  0.0364 -0.2473
    1SOL    HW2 4114   3.840   3.392   0.545 -0.8534 -0.9297  1.3633
    1SOL    HW3 4115   3.903   3.257   0.570  2.3977 -0.1129 -2.1191
    1SOL    MW4 4116   3.906   3.344   0.574  0.4997 -0.1111 -0.2818
    1SOL     OW 4117   2.666   1.806   4.063 -0.2880 -0.4569  0.5493
    1SOL    HW2 4118   2.685   1.750   4.138 -2.3545  0.1892  1.6001
    1SOL    HW3 4119   2.659   1.894   4.100 -3.5493 -0.4351  0.0265
    1SOL    MW4 4120   2.667   1.811   4.078 -0.9911 -0.3688  0.6189
    1SOL     OW 4121   1.941   3.999   1.397  0.0592 -0.2584 -0.1577
    1SOL    HW2 4122   1.957   4.059   1.470 -2.4841 -0.6358  0.7775
    1SOL    HW3 4123   1.975   4.044   1.320  1.6157  0.7141  1.0799
    1SOL    MW4 4124   1.947   4.013   1.396 -0.0708 -0.1793  0.1290
    1SOL     OW 4125   3.023   3.419   4.369  0.3316 -0.0880  0.2351
    1SOL    HW2 4126   3.006   3.357   4.439  0.6684  0.9969  1.2973
    1SOL    HW3 4127   3.063   3.494   4.412  1.5216  0.1683 -1.2779
    1SOL    MW4 4128   3.026   3.421   4.384  0.5333  0.0889  0.1755
    1SOL     OW 4129   2.025   1.569   2.751 -0.0649  0.2477  0.1197
    1SOL    HW2 4130   1.972   1.645   2.729 -0.0627  0.0513 -0.5466
    1SOL    HW3 4131   2.003   1.551   2.843 -2.2302 -0.7284 -0.5821
    1SOL    MW4 4132   2.015   1.577   2.760 -0.3502  0.0930 -0.0610
    1SOL     OW 4133   0.057   2.786   1.129  0.5622 -0.0854  0.0787
    1SOL    HW2 4134   0.121   2.853   1.153  0.3972  0.0376  0.1823
    1SOL    HW3 4135   0.048   2.732   1.207  0.3246  0.0729  0.1622
    1SOL    MW4 4136   0.064   2.788   1.142  0.5091 -0.0484  0.1035
    1SOL     OW 4137   3.560   0.972   3.773 -0.0343 -0.1035  0.1213
    1SOL    HW2 4138   3.585   1.038   3.709  0.7987 -1.1920 -0.6883
    1SOL    HW3 4139   3.584   1.011   3.858  1.9788 -0.0037 -0.4530
    1SOL    MW4 4140   3.567   0.986   3.776  0.3412 -0.2339 -0.0610
    1SOL     OW 4141   2.413   0.650   3.242  0.4861  0.4270 -0.1346
    1SOL    HW2 4142   2.437   0.560   3.220  1.3453  0.4564  0.6106
    1SOL    HW3 4143   2.320   0.656   3.221  0.3189 -0.7650  0.1957
    1SOL    MW4 4144   2.404   0.639   3.237  0.5777  0.2736  0.0074
    1SOL     OW 4145   1.830   1.332   3.099  0.4433  0.0154  0.2754
    1SOL    HW2 4146   1.883   1.274   3.045 -1.4184 -0.0297 -1.5359
    1SOL    HW3 4147   1.868   1.419   3.087  0.0189  0.0098 -1.1624
    1SOL    MW4 4148   1.842   1.336   3.091  0.1416  0.0088 -0.1531
    1SOL     OW 4149   4.216   3.806   2.679 -0.1563  0.4119 -0.0324
    1SOL    HW2 4150   4.279   3.877   2.667  1.0566 -0.3711  1.5812
    1SOL    HW3 4151   4.269   3.732   2.710 -1.3776 -1.2479 -1.8232
    1SOL    MW4 4152   4.232   3.806   2.681 -0.1569  0.0901 -0.0558
    1SOL     OW 4153   2.892   2.731   3.440 -0.1581 -0.1265  0.4240
    1SOL    HW2 4154   2.879   2.688   3.356 -0.4327  1.8881 -0.5780
    1SOL    HW3 4155   2.957   2.799   3.422 -1.9759  1.8801  1.2860
    1SOL    MW4 4156   2.899   2.734   3.427 -0.4342  0.4044  0.4055
    1SOL     OW 4157   0.816   2.914   1.023  0.3281  0.8673 -0.5832
    1SOL    HW2 4158   0.726   2.895   0.999  1.0832  0.0444 -2.8923
    1SOL    HW3 4159   0.850   2.968   0.952  2.0495  0.0650 -0.4025
    1SOL    MW4 4160   0.809   2.918   1.011  0.6549  0.6530 -0.8639
    1SOL     OW 4161   1.063   3.580   4.657  0.3089  0.1914  0.0789
    1SOL    HW2 4162   1.047   3.637   4.581  0.7720 -0.0134 -0.1737
    1SOL    HW3 4163   0.977   3.546   4.680 -0.0442  1.3663  0.5232
    1SOL    MW4 4164   1.050   3.583   4.650  0.3234  0.3195  0.1040
    1SOL     OW 4165   0.892   4.632   2.172  0.4632 -0.0770  0.1841
    1SOL    HW2 4166   0.947   4.681   2.233  0.1832 -0.1760  0.5190
    1SOL    HW3 4167   0.807   4.626   2.216  0.4529 -0.7378  0.0809
    1SOL    MW4 4168   0.888   4.638   2.186  0.4249 -0.1779  0.2143
    1SOL     OW 4169   2.010   2.133   4.340 -0.3568  0.3354  0.8250
    1SOL    HW2 4170   1.954   2.108   4.266  1.4811  0.1618 -0.5523
    1SOL    HW3 4171   1.949   2.156   4.410 -2.1577  1.1218 -0.9535
    1SOL    MW4 4172   1.995   2.133   4.339 -0.3520  0.4160  0.4082
    1SOL     OW 4173   1.673   3.163   0.724  0.1223 -0.4353  0.4445
    1SOL    HW2 4174   1.607   3.193   0.661  0.6647  0.2475  0.1951
    1SOL    HW3 4175   1.694   3.073   0.696 -0.8603 -0.7296  0.6617
    1SOL    MW4 4176   1.667   3.155   0.712  0.0643 -0.3843  0.4403
    1SOL     OW 4177   3.098   3.645   2.465 -0.0869 -0.1943  0.0662
    1SOL    HW2 4178   3.052   3.601   2.393 -0.3665  1.7310 -0.9830
    1SOL    HW3 4179   3.029   3.685   2.517  0.2275  0.3067  0.1069
    1SOL    MW4 4180   3.083   3.644   2.462 -0.0825  0.1259 -0.0670
    1SOL     OW 4181   0.094   2.658   2.810  0.2740  0.4240  0.2430
    1SOL    HW2 4182   0.038   2.608   2.869  0.6915  0.2085  0.4552
    1SOL    HW3 4183   0.055   2.644   2.723 -0.0562  0.3539  0.4029
    1SOL    MW4 4184   0.082   2.650   2.806  0.2855  0.3862  0.2921
    1SOL     OW 4185   4.141   3.863   3.231  0.0153 -0.1226 -0.0972
    1SOL    HW2 4186   4.111   3.845   3.142 -0.8686  1.6240 -0.1542
    1SOL    HW3 4187   4.123   3.956   3.245  1.3756 -0.0662  1.4326
    1SOL    MW4 4188   4.135   3.873   3.221  0.0777  0.1152  0.0973
    1SOL     OW 4189   1.476   2.231   2.260 -0.7294 -0.3292 -0.0206
    1SOL    HW2 4190   1.540   2.303   2.257 -0.2683 -0.7683 -1.2843
    1SOL    HW3 4191   1.520   2.162   2.311  0.0552 -0.8434 -1.3614
    1SOL    MW4 4192   1.491   2.231   2.266 -0.5651 -0.4551 -0.3643
    1SOL     OW 4193   1.918   0.767   1.658 -0.2139 -0.2407  0.2647
    1SOL    HW2 4194   1.911   0.855   1.695  0.8469 -0.5258  1.1470
    1SOL    HW3 4195   1.926   0.709   1.734 -0.5067 -1.0660 -0.3260
    1SOL    MW4 4196   1.918   0.771   1.673 -0.1125 -0.3871  0.3031
    1SOL     OW 4197   1.333   2.840   1.274 -0.3568 -0.2011 -0.0021
    1SOL    HW2 4198   1.403   2.842   1.209 -1.8863  1.3048 -1.6540
    1SOL    HW3 4199   1.371   2.880   1.352  0.5736  0.7857 -0.9540
    1SOL    MW4 4200   1.347   2.846   1.276 -0.4358  0.1278 -0.3457
    1SOL     OW 4201   2.727   0.593   2.777  0.4624  0.5331  0.0678
    1SOL    HW2 4202   2.749   0.562   2.865 -0.3821 -0.2910 -0.0012
    1SOL    HW3 4203   2.788   0.547   2.720  0.9495  0.9949  0.2206
    1SOL    MW4 4204   2.738   0.583   2.781  0.4153  0.4854  0.0784
    1SOL     OW 4205   1.525   1.100   2.199 -0.2761 -0.2735  0.2360
    1SOL    HW2 4206   1.555   1.066   2.114  1.3853 -0.4278  0.8549
    1SOL    HW3 4207   1.504   1.022   2.250 -0.2303 -0.2238  0.3311
    1SOL    MW4 4208   1.526   1.085   2.195 -0.0508 -0.2874  0.3304
    1SOL     OW 4209   0.925   3.514   1.419  0.4159 -0.7059 -0.3800
    1SOL    HW2 4210   0.924   3.429   1.376  0.0961 -0.1210 -1.5252
    1SOL    HW3 4211   0.903   3.495   1.510 -1.7824 -1.5906 -1.0823
    1SOL    MW4 4212   0.922   3.500   1.426  0.0836 -0.7453 -0.6238
    1SOL     OW 4213   2.414   2.230   4.494  0.2139 -0.7158 -0.7590
    1SOL    HW2 4214   2.347   2.271   4.549  0.5491  0.2522 -1.0468
    1SOL    HW3 4215   2.370   2.216   4.410  0.4689  0.2810 -1.0718
    1SOL    MW4 4216   2.399   2.234   4.490  0.2916 -0.4563 -0.8378
    1SOL     OW 4217   0.823   0.273   3.821  0.3143 -0.0466  0.1235
    1SOL    HW2 4218   0.850   0.364   3.815 -0.9946  0.4710  1.7766
    1SOL    HW3 4219   0.857   0.242   3.905 -1.1483 -0.4023  0.6121
    1SOL    MW4 4220   0.831   0.281   3.831 -0.0514 -0.0252  0.4063
    1SOL     OW 4221   3.504   0.076   1.476 -0.0640 -0.1984 -0.1808
    1SOL    HW2 4222   3.584   0.067   1.424  0.2959 -2.5270  0.6940
    1SOL    HW3 4223   3.436   0.035   1.423 -0.3295  0.3040 -0.2216
    1SOL    MW4 4224   3.506   0.069   1.462 -0.0515 -0.4394 -0.0708
    1SOL     OW 4225   1.523   1.472   2.673  0.5137 -0.1253  0.3281
    1SOL    HW2 4226   1.550   1.387   2.638  0.9098  0.3635 -0.5770
    1SOL    HW3 4227   1.428   1.469   2.672  0.5085  0.1359 -1.4545
    1SOL    MW4 4228   1.514   1.460   2.668  0.5652 -0.0263 -0.0265
    1SOL     OW 4229   3.561   3.166   2.664 -0.4441 -0.2443 -0.4458
    1SOL    HW2 4230   3.514   3.209   2.736 -0.7990 -0.7014 -0.4036
    1SOL    HW3 4231   3.513   3.084   2.650  0.0356 -0.4708 -0.7460
    1SOL    MW4 4232   3.548   3.161   2.672 -0.4275 -0.3343 -0.4799
    1SOL     OW 4233   3.591   1.213   1.795  0.7290  0.2057  0.4777
    1SOL    HW2 4234   3.559   1.302   1.808  1.3166  0.4573  0.2260
    1SOL    HW3 4235   3.683   1.224   1.772  1.3347 -0.5863  2.4969
    1SOL    MW4 4236   3.599   1.226   1.793  0.8864  0.1343  0.7110
    1SOL     OW 4237   4.453   1.675   2.529  0.7084  0.1433  0.1136
    1SOL    HW2 4238   4.360   1.673   2.551  0.0647  0.1830 -2.4088
    1SOL    HW3 4239   4.494   1.610   2.586 -1.2099 -1.3936 -0.2423
    1SOL    MW4 4240   4.446   1.666   2.540  0.3705 -0.0542 -0.2661
    1SOL     OW 4241   0.181   1.079   1.873  0.1605  0.0342  0.4444
    1SOL    HW2 4242   0.129   1.137   1.817  1.3857  1.3279  0.6141
    1SOL    HW3 4243   0.116   1.032   1.927 -0.9848 -0.7421 -1.5712
    1SOL    MW4 4244   0.166   1.080   1.873  0.1711  0.1025  0.2007
    1SOL     OW 4245   1.459   2.003   3.978  0.6033  0.0119 -0.4892
    1SOL    HW2 4246   1.416   1.980   3.895 -0.2993 -1.2073  0.2840
    1SOL    HW3 4247   1.397   2.062   4.021  0.5768 -0.2238 -0.2053
    1SOL    MW4 4248   1.445   2.007   3.973  0.4807 -0.1800 -0.3498
    1SOL     OW 4249   4.282   2.506   3.236 -0.0429  0.0005  0.1200
    1SOL    HW2 4250   4.193   2.473   3.219  0.2703 -1.1194  0.6008
    1SOL    HW3 4251   4.320   2.518   3.149 -0.1760 -0.8778 -0.0619
    1SOL    MW4 4252   4.275   2.503   3.222 -0.0186 -0.2632  0.1593
    1SOL     OW 4253   1.921   0.272   1.973  0.4897 -0.2025 -0.0935
    1SOL    HW2 4254   1.898   0.306   2.059 -2.8582  0.4595 -1.1911
    1SOL    HW3 4255   1.854   0.207   1.954  0.3412  0.6596 -2.7851
    1SOL    MW4 4256   1.909   0.268   1.981  0.0283 -0.0014 -0.5933
    1SOL     OW 4257   4.212   2.104   3.726 -0.4678  0.2387  0.3744
    1SOL    HW2 4258   4.256   2.133   3.646  0.1254  0.2260  0.6906
    1SOL    HW3 4259   4.120   2.094   3.701 -0.2635  0.1052 -0.3382
    1SOL    MW4 4260   4.206   2.106   3.712 -0.3629  0.2196  0.3221
    1SOL     OW 4261   2.906   3.664   0.650  0.4386  0.2955 -0.0647
    1SOL    HW2 4262   2.875   3.578   0.679 -1.2065  0.9892  0.3054
    1SOL    HW3 4263   2.916   3.714   0.731 -0.6904  1.1133 -0.4217
    1SOL    MW4 4264   2.903   3.659   0.665  0.0730  0.4947 -0.0630
    1SOL     OW 4265   4.224   3.644   1.926 -0.4958 -0.2820 -0.1035
    1SOL    HW2 4266   4.317   3.665   1.922 -0.7358  0.6962 -0.7508
    1SOL    HW3 4267   4.183   3.703   1.862 -1.4648 -1.2189 -0.3696
    1SOL    MW4 4268   4.231   3.654   1.917 -0.6547 -0.2763 -0.2241
    1SOL     OW 4269   2.360   1.733   3.233  0.2426 -0.3288  0.3642
    1SOL    HW2 4270   2.354   1.736   3.328  2.6727  0.4441  0.5347
    1SOL    HW3 4271   2.447   1.698   3.216  0.3290  0.7450 -1.5739
    1SOL    MW4 4272   2.371   1.729   3.243  0.5746 -0.0851  0.1309
    1SOL     OW 4273   1.932   2.264   0.645  0.3377 -0.3165  0.6587
    1SOL    HW2 4274   1.947   2.307   0.729  1.1988 -0.5395  0.6189
    1SOL    HW3 4275   2.008   2.208   0.632 -0.4000 -1.2647  0.3271
    1SOL    MW4 4276   1.944   2.263   0.654  0.3539 -0.4711  0.6097
    1SOL     OW 4277   1.130   4.623   1.059  0.2008 -0.3267  0.0022
    1SOL    HW2 4278   1.075   4.695   1.090  1.1303  0.8762 -1.0872
    1SOL    HW3 4279   1.163   4.582   1.139 -0.0485  0.6894  0.6393
    1SOL    MW4 4280   1.127   4.628   1.074  0.2906 -0.0343 -0.0576
    1SOL     OW 4281   4.019   2.042   1.682 -0.0194 -0.3336  0.3255
    1SOL    HW2 4282   4.045   2.003   1.765 -1.1067 -1.5307  0.1086
    1SOL    HW3 4283   3.971   1.973   1.636  0.1130  0.4806 -1.0766
    1SOL    MW4 4284   4.016   2.028   1.687 -0.1454 -0.3843  0.1119
    1SOL     OW 4285   3.731   3.261   3.248  0.1369  0.4650 -0.2962
    1SOL    HW2 4286   3.738   3.166   3.260 -0.4351  0.1689 -2.2429
    1SOL    HW3 4287   3.663   3.288   3.310  0.7156 -0.2963  0.6870
    1SOL    MW4 4288   3.723   3.252   3.258  0.1380  0.3254 -0.4234
    1SOL     OW 4289   0.649   2.421   2.955  0.1020 -0.1478 -0.1084
    1SOL    HW2 4290   0.698   2.469   2.887  2.3517 -0.3830  1.2884
    1SOL    HW3 4291   0.577   2.480   2.979  0.3711  0.7270 -1.3913
    1SOL    MW4 4292   0.646   2.435   2.949  0.4343 -0.0637 -0.0935
    1SOL     OW 4293   0.870   1.998   2.942 -0.0420 -0.0344  0.0083
    1SOL    HW2 4294   0.923   1.950   2.878 -0.7539 -0.7564 -0.0501
    1SOL    HW3 4295   0.787   2.014   2.897  0.2380  1.3707 -0.0160
    1SOL    MW4 4296   0.866   1.994   2.927 -0.0991  0.0558 -0.0024
    1SOL     OW 4297   3.778   1.407   2.145  0.0047  0.4249  0.2757
    1SOL    HW2 4298   3.796   1.454   2.064  0.5920 -1.4207 -0.6944
    1SOL    HW3 4299   3.683   1.416   2.158  0.1867  2.2472  0.3657
    1SOL    MW4 4300   3.768   1.414   2.136  0.1061  0.4219  0.1595
    1SOL     OW 4301   3.863   4.601   2.563  0.2768  0.2720 -0.3419
    1SOL    HW2 4302   3.907   4.672   2.516  1.1079  0.0326  0.0724
    1SOL    HW3 4303   3.781   4.640   2.594  0.4987  0.9033 -0.5397
    1SOL    MW4 4304   3.858   4.616   2.561  0.4156  0.3233 -0.3133
    1SOL     OW 4305   3.601   3.454   1.226 -0.2152  0.1572 -0.2148
    1SOL    HW2 4306   3.539   3.507   1.177 -0.9129 -1.8376 -1.5410
    1SOL    HW3 4307   3.579   3.363   1.204  0.6820 -0.7311  2.2954
    1SOL    MW4 4308   3.590   3.449   1.217 -0.1886 -0.2232 -0.0585
    1SOL     OW 4309   1.511   4.294   2.509  0.0099 -0.4715  0.4204
    1SOL    HW2 4310   1.583   4.297   2.571 -0.2610  0.2132  0.7083
    1SOL    HW3 4311   1.489   4.201   2.501  1.4765 -0.7570 -0.3297
    1SOL    MW4 4312   1.517   4.282   2.516  0.1676 -0.4187  0.3593
    1SOL     OW 4313   0.093   1.714   2.233 -0.0202 -0.3250  0.7514
    1SOL    HW2 4314   0.051   1.662   2.301 -1.3244 -0.7442 -0.3554
    1SOL    HW3 4315   0.187   1.704   2.250 -0.2466 -2.7096  0.8201
    1SOL    MW4 4316   0.100   1.706   2.244 -0.2222 -0.6949  0.6142
    1SOL     OW 4317   2.414   1.044   3.167 -0.3311  0.0071  0.2613
    1SOL    HW2 4318   2.396   0.972   3.105  0.0976  0.7886 -0.7845
    1SOL    HW3 4319   2.383   1.011   3.251 -0.5711 -1.2305 -0.2981
    1SOL    MW4 4320   2.407   1.030   3.170 -0.3061 -0.0532  0.0494
    1SOL     OW 4321   0.259   4.129   0.781  0.1608 -0.0955 -0.0843
    1SOL    HW2 4322   0.258   4.037   0.754  0.1220  0.3867 -1.7536
    1SOL    HW3 4323   0.173   4.144   0.820 -0.6785 -0.1700 -1.8757
    1SOL    MW4 4324   0.248   4.119   0.783  0.0450 -0.0415 -0.5409
    1SOL     OW 4325   3.644   1.964   3.594  0.4107  0.1484 -0.5193
    1SOL    HW2 4326   3.629   1.884   3.544  0.7266  0.6710 -1.4577
    1SOL    HW3 4327   3.587   2.029   3.553  0.1958  0.4208  0.2071
    1SOL    MW4 4328   3.634   1.962   3.582  0.4239  0.2533 -0.5472
    1SOL     OW 4329   2.165   4.239   3.264 -0.1126  0.2132 -0.2976
    1SOL    HW2 4330   2.218   4.289   3.203  0.0123 -0.2446 -0.5708
    1SOL    HW3 4331   2.229   4.202   3.326  0.2682 -2.7141 -2.2982
    1SOL    MW4 4332   2.181   4.241   3.264 -0.0458 -0.2337 -0.5972
    1SOL     OW 4333   4.137   2.983   3.831 -0.0136  0.0009 -0.7667
    1SOL    HW2 4334   4.180   2.930   3.898  0.8081  1.3029 -0.2415
    1SOL    HW3 4335   4.201   2.991   3.760  0.0269  0.6140 -0.6692
    1SOL    MW4 4336   4.151   2.977   3.830  0.1006  0.2537 -0.6843
    1SOL     OW 4337   4.028   3.128   0.872 -0.1045  0.1701  0.3779
    1SOL    HW2 4338   3.993   3.081   0.796  0.4789 -2.4587  1.6872
    1SOL    HW3 4339   4.098   3.182   0.836 -0.0663 -0.7635 -1.0222
    1SOL    MW4 4340   4.032   3.129   0.857 -0.0229 -0.2999  0.3659
    1SOL     OW 4341   2.524   1.044   1.565 -0.5412  0.4484  0.3835
    1SOL    HW2 4342   2.591   1.107   1.536 -0.6733  1.0853  1.4507
    1SOL    HW3 4343   2.574   0.977   1.611 -0.5602  0.5447  0.5441
    1SOL    MW4 4344   2.540   1.043   1.567 -0.5610  0.5451  0.5455
    1SOL     OW 4345   3.179   1.741   2.993 -0.4299 -0.3746  0.0031
    1SOL    HW2 4346   3.199   1.658   3.036  1.0270 -0.6816 -1.2249
    1SOL    HW3 4347   3.264   1.779   2.974 -1.0749  0.5685 -1.0635
    1SOL    MW4 4348   3.193   1.735   2.996 -0.3228 -0.2905 -0.2997
    1SOL     OW 4349   1.186   3.493   4.056 -0.3137  0.7849  0.2270
    1SOL    HW2 4350   1.176   3.401   4.032 -0.4495  0.7580  0.3867
    1SOL    HW3 4351   1.240   3.530   3.986 -3.6847  1.5484 -2.1151
    1SOL    MW4 4352   1.192   3.486   4.044 -0.7764  0.8819 -0.0610
    1SOL     OW 4353   3.703   1.188   2.720 -0.0036 -0.3826  0.1284
    1SOL    HW2 4354   3.663   1.275   2.730 -1.1143 -0.7627 -0.8412
    1SOL    HW3 4355   3.787   1.195   2.764  1.4906  2.2491 -2.9809
    1SOL    MW4 4356   3.709   1.200   2.727  0.0470 -0.0856 -0.4096
    1SOL     OW 4357   2.887   2.288   1.965 -0.0540  0.0638 -0.3060
    1SOL    HW2 4358   2.967   2.326   1.930 -0.5022  0.2305 -1.1499
    1SOL    HW3 4359   2.822   2.299   1.896 -0.8374  0.0226  0.4075
    1SOL    MW4 4360   2.889   2.295   1.951 -0.2165  0.0801 -0.3231
    1SOL     OW 4361   4.081   2.380   3.493  0.2077 -0.5387 -0.4447
    1SOL    HW2 4362   4.028   2.311   3.453  1.4706 -0.9692 -1.4034
    1SOL    HW3 4363   4.162   2.381   3.442  0.6207  0.9557  0.2181
    1SOL    MW4 4364   4.085   2.371   3.481  0.4287 -0.3984 -0.4840
    1SOL     OW 4365   1.099   3.005   2.831  0.1141  0.1038 -0.0278
    1SOL    HW2 4366   1.026   3.050   2.790 -0.1754  0.4556  0.8598
    1SOL    HW3 4367   1.156   3.075   2.865  0.4251 -0.1739  0.0328
    1SOL    MW4 4368   1.097   3.020   2.830  0.1169  0.1137  0.0973
    1SOL     OW 4369   1.372   1.158   2.535 -0.2085 -0.0392  0.0317
    1SOL    HW2 4370   1.465   1.171   2.518 -0.3607  0.3996 -0.4738
    1SOL    HW3 4371   1.366   1.067   2.565  0.9136  1.1016  4.0130
    1SOL    MW4 4372   1.384   1.148   2.537 -0.0805  0.1690  0.4902
    1SOL     OW 4373   3.372   0.983   3.498 -0.0738  0.0782 -0.0691
    1SOL    HW2 4374   3.365   0.960   3.406 -1.1229 -0.0669  0.0381
    1SOL    HW3 4375   3.282   1.006   3.524  0.4471  1.4138  0.5738
    1SOL    MW4 4376   3.359   0.983   3.489 -0.1435  0.2352  0.0300
    1SOL     OW 4377   2.435   2.795   2.736 -0.4039  0.1626 -0.0687
    1SOL    HW2 4378   2.351   2.838   2.723  0.2872  2.0573  1.4059
    1SOL    HW3 4379   2.480   2.803   2.652 -0.7803  1.2562 -0.1640
    1SOL    MW4 4380   2.430   2.802   2.723 -0.3622  0.5569  0.1135
    1SOL     OW 4381   4.336   2.243   0.985 -0.1922  0.0763  0.3265
    1SOL    HW2 4382   4.370   2.295   1.058 -1.3116 -0.0486  0.9527
    1SOL    HW3 4383   4.296   2.307   0.926  1.8960  0.3192 -0.8625
    1SOL    MW4 4384   4.335   2.258   0.987 -0.0644  0.0918  0.2522
    1SOL     OW 4385   2.808   2.729   2.488  0.0468  0.2370  0.1663
    1SOL    HW2 4386   2.855   2.799   2.443  0.6066  0.1360  0.5847
    1SOL    HW3 4387   2.716   2.753   2.478  0.2241  0.9771  0.2099
    1SOL    MW4 4388   2.802   2.742   2.481  0.1440  0.3211  0.2270
    1SOL     OW 4389   2.519   4.162   3.631 -0.6068 -0.0203  0.7111
    1SOL    HW2 4390   2.561   4.245   3.609 -1.3412  0.5515  1.4296
    1SOL    HW3 4391   2.448   4.187   3.690 -1.4443 -1.0544  0.1446
    1SOL    MW4 4392   2.515   4.177   3.636 -0.8142 -0.0811  0.7312
    1SOL     OW 4393   3.717   1.447   1.426  0.8715 -0.6196 -0.0165
    1SOL    HW2 4394   3.760   1.503   1.361 -1.1814  0.5384 -0.3876
    1SOL    HW3 4395   3.744   1.483   1.510  0.2002  0.4335 -0.2495
    1SOL    MW4 4396   3.726   1.459   1.428  0.5124 -0.3278 -0.0961
    1SOL     OW 4397   3.327   2.595   3.092  0.1649 -0.3001  0.7736
    1SOL    HW2 4398   3.419   2.573   3.107 -0.3582 -3.2069  0.0649
    1SOL    HW3 4399   3.317   2.594   2.997 -0.7593 -0.7087  0.8701
    1SOL    MW4 4400   3.338   2.592   3.081 -0.0262 -0.7377  0.6928
    1SOL     OW 4401   1.659   1.834   4.586  0.2828  0.1656  0.3282
    1SOL    HW2 4402   1.740   1.797   4.621 -1.2155 -1.8899  1.7426
    1SOL    HW3 4403   1.676   1.845   4.492  2.1992 -0.2270  0.6180
    1SOL    MW4 4404   1.672   1.831   4.578  0.3380 -0.1575  0.5527
    1SOL     OW 4405   1.654   1.056   2.924 -0.0116 -0.2478 -0.6164
    1SOL    HW2 4406   1.614   1.041   2.837  0.9949 -0.3788 -1.0613
    1SOL    HW3 4407   1.609   1.133   2.957 -0.3613 -0.1530 -1.2845
    1SOL    MW4 4408   1.643   1.064   2.917  0.0751 -0.2526 -0.7632
    1SOL     OW 4409   1.704   3.463   4.133  0.0655  0.3524 -0.3671
    1SOL    HW2 4410   1.670   3.447   4.045 -1.5604  1.7245 -0.0127
    1SOL    HW3 4411   1.794   3.430   4.130 -0.6688 -1.5780 -1.8955
    1SOL    MW4 4412   1.712   3.457   4.121 -0.2459  0.2787 -0.5217
    1SOL     OW 4413   0.426   3.991   2.256  0.1461 -0.1464 -0.4776
    1SOL    HW2 4414   0.341   4.016   2.292  0.0910 -0.0893 -0.6469
    1SOL    HW3 4415   0.440   4.052   2.183  0.1329 -0.4422 -0.7252
    1SOL    MW4 4416   0.417   4.003   2.251  0.1371 -0.1779 -0.5326
    1SOL     OW 4417   1.677   2.854   4.696 -0.4856 -0.2891  0.3634
    1SOL    HW2 4418   1.720   2.772   4.720  0.3680 -0.0733 -0.3728
    1SOL    HW3 4419   1.641   2.838   4.609  0.2993  0.3248 -0.0874
    1SOL    MW4 4420   1.678   2.841   4.687 -0.2694 -0.1800  0.2065
    1SOL     OW 4421   2.561   4.252   1.033  0.4679  0.4885 -0.1838
    1SOL    HW2 4422   2.563   4.324   1.096 -1.2090  0.2402  0.1788
    1SOL    HW3 4423   2.591   4.176   1.082 -0.8236  0.2970  0.3149
    1SOL    MW4 4424   2.565   4.252   1.048  0.0761  0.4306 -0.0702
    1SOL     OW 4425   3.230   0.578   1.969 -0.2027  0.1384  0.3370
    1SOL    HW2 4426   3.182   0.513   1.918  0.3280 -0.5975  0.7713
    1SOL    HW3 4427   3.314   0.586   1.925 -0.8982  1.8144 -0.7319
    1SOL    MW4 4428   3.234   0.571   1.957 -0.2246  0.2624  0.2532
    1SOL     OW 4429   4.367   2.001   1.421 -0.0009  0.0143  0.5032
    1SOL    HW2 4430   4.279   2.032   1.401 -0.9484 -0.8405  3.1020
    1SOL    HW3 4431   4.422   2.079   1.412 -1.1219  0.6949 -0.5628
    1SOL    MW4 4432   4.363   2.015   1.417 -0.2732 -0.0086  0.7055
    1SOL     OW 4433   2.069   2.108   1.007 -0.1524  0.5187  0.5579
    1SOL    HW2 4434   1.974   2.116   1.003 -0.1656  0.3094  0.4071
    1SOL    HW3 4435   2.101   2.198   1.008 -0.3709  0.5909  1.0631
    1SOL    MW4 4436   2.061   2.121   1.006 -0.1831  0.5007  0.6047
    1SOL     OW 4437   1.962   0.001   0.608 -0.3975  0.1515  0.3570
    1SOL    HW2 4438   1.979   0.064   0.679  0.4379  2.1790 -1.5466
    1SOL    HW3 4439   1.870   0.014   0.586 -0.7073 -0.6146  1.1882
    1SOL    MW4 4440   1.952   0.011   0.614 -0.3281  0.3181  0.2155
    1SOL     OW 4441   2.346   1.623   1.766  0.0817  0.0773 -0.4776
    1SOL    HW2 4442   2.252   1.622   1.786  0.2804  0.4719  0.4959
    1SOL    HW3 4443   2.369   1.531   1.756 -0.5372  0.0087 -1.3396
    1SOL    MW4 4444   2.337   1.611   1.767  0.0265  0.1203 -0.4629
    1SOL     OW 4445   1.587   0.821   3.537  0.3630 -0.2058 -0.2419
    1SOL    HW2 4446   1.677   0.788   3.539  0.3192 -0.4074 -1.2347
    1SOL    HW3 4447   1.583   0.873   3.456 -0.2214  0.3617  0.1433
    1SOL    MW4 4448   1.598   0.824   3.526  0.2803 -0.1576 -0.3219
    1SOL     OW 4449   3.056   2.812   1.563  0.2345 -0.5406 -0.0404
    1SOL    HW2 4450   3.002   2.810   1.483  0.0472  0.1437  0.0638
    1SOL    HW3 4451   3.031   2.733   1.610  0.8334 -1.3040 -0.9813
    1SOL    MW4 4452   3.045   2.802   1.558  0.2887 -0.5510 -0.1508
    1SOL     OW 4453   0.063   3.635   1.806 -0.3865  0.1817  0.0188
    1SOL    HW2 4454   0.116   3.580   1.863 -0.3621 -0.2337 -0.4011
    1SOL    HW3 4455   0.057   3.719   1.852  1.6254  0.6275 -0.4860
    1SOL    MW4 4456   0.069   3.639   1.819 -0.1179  0.1857 -0.1032
    1SOL     OW 4457   3.539   2.285   1.962  0.3540 -0.0869 -0.5368
    1SOL    HW2 4458   3.540   2.297   2.057  3.1308  1.8179 -0.7429
    1SOL    HW3 4459   3.596   2.354   1.928 -1.8495  0.3062 -3.7493
    1SOL    MW4 4460   3.547   2.295   1.970  0.4296  0.2162 -0.9878
    1SOL     OW 4461   4.310   2.705   0.843 -0.2916 -0.0139 -0.0791
    1SOL    HW2 4462   4.398   2.699   0.881 -0.7830 -1.3395  0.8920
    1SOL    HW3 4463   4.275   2.617   0.851 -1.1426  0.1411 -1.8889
    1SOL    MW4 4464   4.317   2.693   0.849 -0.4692 -0.1683 -0.1898
    1SOL     OW 4465   0.552   4.329   1.487 -0.4576  0.0701 -0.4357
    1SOL    HW2 4466   0.510   4.296   1.566 -1.7826 -0.5251 -1.3589
    1SOL    HW3 4467   0.492   4.395   1.454  1.0967  1.8165  0.1652
    1SOL    MW4 4468   0.538   4.333   1.493 -0.4274  0.2222 -0.4783
    1SOL     OW 4469   2.775   4.117   2.161  0.3786  0.5276 -0.1274
    1SOL    HW2 4470   2.824   4.145   2.238  2.2229  0.5386 -1.2578
    1SOL    HW3 4471   2.699   4.175   2.158  0.3059  0.5377  1.6554
    1SOL    MW4 4472   2.772   4.128   2.171  0.6120  0.5307 -0.0410
    1SOL     OW 4473   3.607   0.314   2.472 -0.7270 -0.0878 -0.2074
    1SOL    HW2 4474   3.527   0.335   2.424 -0.2508 -1.3321 -1.5585
    1SOL    HW3 4475   3.650   0.247   2.420  1.2230  0.5847  0.4851
    1SOL    MW4 4476   3.602   0.308   2.459 -0.4070 -0.1632 -0.2942
    1SOL     OW 4477   1.289   2.857   2.655  0.1510 -0.1490 -0.2270
    1SOL    HW2 4478   1.375   2.830   2.689 -1.0748 -0.3577  2.8324
    1SOL    HW3 4479   1.238   2.878   2.733 -2.6080 -0.0283 -2.0059
    1SOL    MW4 4480   1.294   2.856   2.670 -0.3747 -0.1605 -0.0582
    1SOL     OW 4481   4.115   1.043   1.136 -0.1707  0.0381  0.3588
    1SOL    HW2 4482   4.207   1.025   1.156  0.4606 -0.5148 -2.8016
    1SOL    HW3 4483   4.107   1.138   1.144  2.0502  0.7815 -4.1916
    1SOL    MW4 4484   4.126   1.054   1.140  0.2060  0.0633 -0.6585
    1SOL     OW 4485   0.702   2.909   3.734  0.1267 -0.0100 -0.6337
    1SOL    HW2 4486   0.662   2.865   3.810  0.0711 -2.2033 -1.8737
    1SOL    HW3 4487   0.632   2.965   3.699  0.5685  2.0814  1.6930
    1SOL    MW4 4488   0.687   2.910   3.740  0.1776 -0.0236 -0.4904
    1SOL     OW 4489   3.459   4.524   2.150  0.2137  0.0322  0.5097
    1SOL    HW2 4490   3.553   4.525   2.169  0.1946  0.4017  0.5932
    1SOL    HW3 4491   3.450   4.579   2.072  0.0635  0.0363  0.5299
    1SOL    MW4 4492   3.470   4.532   2.142  0.1915  0.0815  0.5231
    1SOL     OW 4493   3.117   1.065   4.130 -0.3197 -0.1320 -0.0399
    1SOL    HW2 4494   3.102   1.073   4.036  0.5334  2.4066  0.0055
    1SOL    HW3 4495   3.034   1.032   4.165 -0.6648 -1.0220 -1.6553
    1SOL    MW4 4496   3.104   1.061   4.123 -0.2527  0.0855 -0.2470
    1SOL     OW 4497   2.428   3.220   0.509  0.1620 -0.0587 -0.4125
    1SOL    HW2 4498   2.333   3.230   0.514  0.0479 -0.7097 -1.1392
    1SOL    HW3 4499   2.462   3.301   0.547 -0.6977  1.2349 -2.3093
    1SOL    MW4 4500   2.420   3.232   0.514  0.0336  0.0260 -0.7586
    1SOL     OW 4501   1.992   4.086   1.082  0.0503 -0.6163 -0.4443
    1SOL    HW2 4502   2.060   4.046   1.028  2.0640  2.4134 -0.2454
    1SOL    HW3 4503   1.913   4.084   1.027  1.2816 -0.4704 -2.2456
    1SOL    MW4 4504   1.990   4.080   1.068  0.4786 -0.1979 -0.6557
    1SOL     OW 4505   2.067   3.571   1.650 -0.0822  0.2492 -0.8466
    1SOL    HW2 4506   1.993   3.554   1.707  0.3221  0.8889 -0.1205
    1SOL    HW3 4507   2.031   3.567   1.561 -0.5908 -1.3420 -0.5900
    1SOL    MW4 4508   2.053   3.568   1.646 -0.0956  0.1235 -0.7170
    1SOL     OW 4509   1.541   0.419   1.875  0.3818 -0.0928 -0.2235
    1SOL    HW2 4510   1.466   0.470   1.845  0.5295  0.1149 -0.2393
    1SOL    HW3 4511   1.506   0.331   1.890  0.2485 -0.1299 -0.7401
    1SOL    MW4 4512   1.527   0.414   1.873  0.3837 -0.0703 -0.2937
    1SOL     OW 4513   4.231   1.772   3.609 -0.1425 -0.4099  0.8448
    1SOL    HW2 4514   4.277   1.817   3.681  0.7545 -0.5909  0.3920
    1SOL    HW3 4515   4.301   1.743   3.551 -0.9249  0.4927 -0.5552
    1SOL    MW4 4516   4.246   1.774   3.611 -0.1273 -0.3147  0.6003
    1SOL     OW 4517   0.907   3.030   0.770 -0.6455 -0.3285  0.0375
    1SOL    HW2 4518   0.875   2.969   0.703 -1.5535  0.9103 -0.6820
    1SOL    HW3 4519   0.998   3.045   0.748 -0.2485 -1.9004  0.5816
    1SOL    MW4 4520   0.914   3.024   0.758 -0.7130 -0.3722  0.0143
    1SOL     OW 4521   3.315   2.093   2.207  0.2368 -0.1996  0.1918
    1SOL    HW2 4522   3.237   2.037   2.201 -0.6172  1.0437 -0.7106
    1SOL    HW3 4523   3.280   2.182   2.197  1.7205  0.4047  0.3496
    1SOL    MW4 4524   3.300   2.098   2.205  0.3200  0.0443  0.0935
    1SOL     OW 4525   0.437   4.297   3.562 -0.0348  0.0886  0.8197
    1SOL    HW2 4526   0.454   4.213   3.604  0.1300 -0.8934 -1.1398
    1SOL    HW3 4527   0.516   4.315   3.511 -1.0931  0.1204 -0.8482
    1SOL    MW4 4528   0.450   4.288   3.561 -0.1527 -0.0362  0.3412
    1SOL     OW 4529   2.976   3.792   3.420  0.4603  0.0789 -0.2171
    1SOL    HW2 4530   3.072   3.798   3.424  0.4412  0.8218 -0.6335
    1SOL    HW3 4531   2.959   3.728   3.351  0.6624 -0.1822 -0.0240
    1SOL    MW4 4532   2.987   3.785   3.411  0.4842  0.1426 -0.2465
    1SOL     OW 4533   1.989   3.501   4.372  0.7214 -0.2955  0.3970
    1SOL    HW2 4534   1.964   3.444   4.445  3.2817 -0.8414  0.9183
    1SOL    HW3 4535   2.084   3.492   4.367  0.6574  0.1789 -2.6643
    1SOL    MW4 4536   1.998   3.492   4.381  1.0508 -0.3047  0.0620
    1SOL     OW 4537   2.290   4.165   1.341  0.3412 -0.5603 -0.0137
    1SOL    HW2 4538   2.277   4.102   1.270 -0.3108 -0.6578  0.1877
    1SOL    HW3 4539   2.214   4.224   1.335 -0.1393 -1.0542  1.1057
    1SOL    MW4 4540   2.278   4.165   1.331  0.1917 -0.6380  0.1607
    1SOL     OW 4541   2.056   3.804   1.277  0.1396 -0.0929 -0.4061
    1SOL    HW2 4542   2.008   3.858   1.340  2.0720  0.6751  0.4480
    1SOL    HW3 4543   1.995   3.793   1.204 -0.4986  2.8370 -0.3822
    1SOL    MW4 4544   2.042   3.810   1.275  0.3102  0.3951 -0.2905
    1SOL     OW 4545   1.461   0.602   3.422  1.2099  0.3665 -0.8934
    1SOL    HW2 4546   1.506   0.685   3.434  0.6891  0.8214 -1.9463
    1SOL    HW3 4547   1.523   0.548   3.372  1.2142  0.4236 -0.9498
    1SOL    MW4 4548   1.475   0.606   3.417  1.1418  0.4340 -1.0397
    1SOL     OW 4549   0.777   0.277   1.664  0.3454 -0.0856 -0.0020
    1SOL    HW2 4550   0.850   0.307   1.717 -2.1300  1.6441  2.5984
    1SOL    HW3 4551   0.723   0.226   1.724  0.2109 -2.7693 -2.2943
    1SOL    MW4 4552   0.779   0.274   1.679  0.0010 -0.2115  0.0386
    1SOL     OW 4553   0.999   1.072   3.979 -0.0295  0.1045 -0.5088
    1SOL    HW2 4554   0.918   1.064   4.029  1.0570 -2.5816  0.8931
    1SOL    HW3 4555   0.973   1.121   3.900 -3.1820 -1.3565 -0.4622
    1SOL    MW4 4556   0.984   1.078   3.975 -0.3021 -0.4427 -0.3178
    1SOL     OW 4557   3.005   1.935   4.189  0.1244 -0.6473  0.2072
    1SOL    HW2 4558   3.091   1.964   4.219 -0.6438  1.8762  0.0757
    1SOL    HW3 4559   2.977   2.002   4.126 -2.4775 -0.7338  1.1930
    1SOL    MW4 4560   3.013   1.948   4.185 -0.3202 -0.3257  0.3195
    1SOL     OW 4561   0.636   3.487   0.690  0.3568  0.1978 -0.1472
    1SOL    HW2 4562   0.696   3.423   0.652  1.9466  2.0098 -0.7697
    1SOL    HW3 4563   0.675   3.508   0.775 -0.2170  0.2693  0.0990
    1SOL    MW4 4564   0.649   3.481   0.696  0.4908  0.4466 -0.1968
    1SOL     OW 4565   1.275   3.346   0.695 -0.1310  0.1916  0.6387
    1SOL    HW2 4566   1.254   3.258   0.726  0.7019  0.1094  0.9862
    1SOL    HW3 4567   1.204   3.369   0.636  0.0519 -1.0285 -0.0665
    1SOL    MW4 4568   1.263   3.337   0.691  0.0031  0.0198  0.5915
    1SOL     OW 4569   0.761   2.506   2.544 -0.1855  0.0833 -0.3404
    1SOL    HW2 4570   0.817   2.498   2.621  1.1193 -0.5832 -1.3322
    1SOL    HW3 4571   0.672   2.489   2.577  0.3850 -0.4538  0.9605
    1SOL    MW4 4572   0.757   2.503   2.558  0.0619 -0.0756 -0.2997
    1SOL     OW 4573   3.739   4.543   2.201  0.8725 -0.0673  0.3770
    1SOL    HW2 4574   3.773   4.493   2.126 -1.6004 -3.2271  1.2790
    1SOL    HW3 4575   3.780   4.502   2.277  2.4382  2.3696  0.9063
    1SOL    MW4 4576   3.749   4.531   2.201  0.7524 -0.1621  0.5660
    1SOL     OW 4577   3.282   0.880   1.964 -0.0345  0.4090 -0.0703
    1SOL    HW2 4578   3.198   0.883   1.918 -1.0032 -0.1010  1.6183
    1SOL    HW3 4579   3.295   0.787   1.982  1.0902  0.4508 -0.6444
    1SOL    MW4 4580   3.272   0.868   1.960 -0.0141  0.3472  0.0767
    1SOL     OW 4581   4.152   3.431   2.102 -0.0581 -0.4478 -0.0893
    1SOL    HW2 4582   4.162   3.513   2.054  0.8100 -0.2238  0.4618
    1SOL    HW3 4583   4.144   3.458   2.194  0.6989 -1.0031  0.1436
    1SOL    MW4 4584   4.152   3.445   2.108  0.1564 -0.4914  0.0141
    1SOL     OW 4585   0.407   2.491   1.973  0.9035  0.2826  0.4136
    1SOL    HW2 4586   0.320   2.528   1.960  1.4983  1.3644 -0.4853
    1SOL    HW3 4587   0.440   2.535   2.052  1.2722  1.0425 -0.1652
    1SOL    MW4 4588   0.400   2.502   1.982  1.0306  0.5255  0.2186
    1SOL     OW 4589   1.586   3.405   3.864 -0.0690 -0.2326  0.4791
    1SOL    HW2 4590   1.656   3.400   3.798 -1.1605  0.6798 -0.7629
    1SOL    HW3 4591   1.542   3.321   3.859  0.6083 -0.6181  0.9053
    1SOL    MW4 4592   1.590   3.394   3.854 -0.1236 -0.1628  0.3712
    1SOL     OW 4593   0.352   4.325   4.446  0.8572 -0.0309 -0.2419
    1SOL    HW2 4594   0.428   4.267   4.445  0.7036 -0.2296 -2.6831
    1SOL    HW3 4595   0.278   4.268   4.468  1.1314 -0.1610  0.3729
    1SOL    MW4 4596   0.352   4.310   4.449  0.8731 -0.0739 -0.4830
    1SOL     OW 4597   3.972   0.318   1.781 -0.5343 -0.2255  0.0171
    1SOL    HW2 4598   3.938   0.391   1.832 -0.1775  1.4606 -2.0678
    1SOL    HW3 4599   3.897   0.289   1.729 -0.3494 -0.5060 -0.0956
    1SOL    MW4 4600   3.957   0.324   1.781 -0.4628 -0.0401 -0.2730
    1SOL     OW 4601   3.971   3.011   2.023  0.7133 -0.0037 -0.3588
    1SOL    HW2 4602   3.971   2.929   2.073  0.7018  0.0962 -0.1944
    1SOL    HW3 4603   3.941   3.077   2.085  1.2151  0.2156 -0.3436
    1SOL    MW4 4604   3.967   3.009   2.038  0.7777  0.0384 -0.3350
    1SOL     OW 4605   2.327   3.181   2.125 -0.3619  0.0283 -0.3007
    1SOL    HW2 4606   2.255   3.231   2.088 -1.1327 -1.7806 -1.3383
    1SOL    HW3 4607   2.310   3.091   2.097  2.2353 -0.4505 -0.4604
    1SOL    MW4 4608   2.315   3.175   2.116 -0.1204 -0.2737 -0.4587
    1SOL     OW 4609   0.106   3.252   2.545 -0.0367  0.4550 -0.0656
    1SOL    HW2 4610   0.115   3.261   2.639 -0.6107 -1.0171  0.1398
    1SOL    HW3 4611   0.038   3.314   2.521 -1.5036 -0.7880  0.8199
    1SOL    MW4 4612   0.098   3.261   2.554 -0.3060  0.0970  0.0784
    1SOL     OW 4613   1.928   3.250   1.705 -0.7095  0.0208  0.2062
    1SOL    HW2 4614   1.855   3.251   1.643  0.3877 -0.3374 -1.1206
    1SOL    HW3 4615   1.930   3.339   1.741 -0.1276  0.8687 -1.8030
    1SOL    MW4 4616   1.919   3.262   1.702 -0.4878  0.0854 -0.2339
    1SOL     OW 4617   1.828   2.689   0.305 -0.1431  0.0176 -0.3240
    1SOL    HW2 4618   1.802   2.704   0.214 -0.7416 -0.2421 -0.2004
    1SOL    HW3 4619   1.772   2.748   0.355 -0.4709 -0.5234 -0.0548
    1SOL    MW4 4620   1.817   2.699   0.299 -0.2654 -0.0875 -0.2722
    1SOL     OW 4621   3.426   0.914   0.941 -0.1609 -0.5683  0.1650
    1SOL    HW2 4622   3.464   0.963   0.867  0.3753 -1.7062 -0.3230
    1SOL    HW3 4623   3.497   0.858   0.971 -1.2577 -2.2477 -0.3363
    1SOL    MW4 4624   3.441   0.913   0.935 -0.2348 -0.9400  0.0345
    1SOL     OW 4625   0.232   4.401   4.122 -0.1857 -0.4759 -0.1626
    1SOL    HW2 4626   0.200   4.463   4.056 -2.4431 -1.4954 -0.0567
    1SOL    HW3 4627   0.303   4.448   4.165 -1.7113  1.9858 -0.2330
    1SOL    MW4 4628   0.237   4.416   4.119 -0.6848 -0.2861 -0.1578
    1SOL     OW 4629   1.583   0.915   3.287 -0.0621 -0.3779  0.8928
    1SOL    HW2 4630   1.615   1.005   3.291  0.6663 -0.6567  1.3418
    1SOL    HW3 4631   1.499   0.921   3.240  0.3483  0.4351  0.2634
    1SOL    MW4 4632   1.576   0.928   3.281  0.0882 -0.3075  0.8688
    1SOL     OW 4633   0.572   2.692   1.516 -0.4295 -0.2377 -0.1786
    1SOL    HW2 4634   0.614   2.768   1.557  0.4299 -0.5705 -0.4201
    1SOL    HW3 4635   0.616   2.683   1.432 -0.1683 -1.3090  0.0661
    1SOL    MW4 4636   0.583   2.701   1.510 -0.2816 -0.4230 -0.1782
    1SOL     OW 4637   4.071   0.958   3.179 -0.1832 -0.4904 -0.9004
    1SOL    HW2 4638   4.159   0.962   3.215 -0.3566  1.2333 -0.6003
    1SOL    HW3 4639   4.021   0.906   3.242  0.0305  0.6903  0.2772
    1SOL    MW4 4640   4.076   0.952   3.192 -0.1779 -0.1072 -0.7055
    1SOL     OW 4641   3.482   3.531   1.728 -1.0948  0.4909 -0.1246
    1SOL    HW2 4642   3.468   3.443   1.760  1.2563 -0.2689 -1.0281
    1SOL    HW3 4643   3.475   3.523   1.632 -0.9323  1.2773 -0.2074
    1SOL    MW4 4644   3.479   3.519   1.719 -0.7632  0.4942 -0.2548
    1SOL     OW 4645   0.853   3.979   2.587  0.0865  0.3058  0.1922
    1SOL    HW2 4646   0.771   3.933   2.568  0.1767  0.4575 -0.5596
    1SOL    HW3 4647   0.878   3.947   2.674 -0.6609  0.1062  0.3404
    1SOL    MW4 4648   0.845   3.969   2.596 -0.0002  0.2997  0.1123
    1SOL     OW 4649   3.887   1.869   0.424  0.2393  0.3052 -0.0735
    1SOL    HW2 4650   3.814   1.926   0.450 -0.6240 -0.4850 -0.7465
    1SOL    HW3 4651   3.863   1.782   0.456  1.3210  0.2011  0.4994
    1SOL    MW4 4652   3.874   1.865   0.432  0.2680  0.1869 -0.0867
    1SOL     OW 4653   1.007   1.479   3.672  0.0325  0.8070 -0.2534
    1SOL    HW2 4654   0.934   1.535   3.699 -0.7583  0.1765 -1.0692
    1SOL    HW3 4655   1.082   1.513   3.722 -0.6271  1.9960 -0.0359
    1SOL    MW4 4656   1.007   1.491   3.683 -0.1589  0.8807 -0.3324
    1SOL     OW 4657   1.254   4.478   2.930 -0.0662 -0.0337  0.2549
    1SOL    HW2 4658   1.210   4.542   2.874 -0.6112 -0.9101 -0.3442
    1SOL    HW3 4659   1.183   4.424   2.965  0.5649 -2.3838 -1.8721
    1SOL    MW4 4660   1.239   4.479   2.927 -0.0550 -0.4592 -0.1049
    1SOL     OW 4661   2.990   2.127   1.693 -0.1077  0.0992  0.2418
    1SOL    HW2 4662   3.082   2.123   1.666 -0.7158  0.3981 -1.9972
    1SOL    HW3 4663   2.981   2.059   1.760  1.2905 -1.2815 -0.9456
    1SOL    MW4 4664   3.001   2.117   1.698 -0.0033 -0.0436 -0.2103
    1SOL     OW 4665   1.809   1.230   2.775 -0.4375  0.3375 -0.1218
    1SOL    HW2 4666   1.741   1.174   2.812 -1.4599  1.5869 -0.0850
    1SOL    HW3 4667   1.790   1.231   2.681 -0.9912  1.3571 -0.0094
    1SOL    MW4 4668   1.797   1.223   2.767 -0.6454  0.6367 -0.1018
    1SOL     OW 4669   0.905   1.240   1.281 -0.0029 -0.6287 -0.1635
    1SOL    HW2 4670   0.927   1.155   1.319  0.2355  0.1736  1.5284
    1SOL    HW3 4671   0.809   1.240   1.277  0.0244 -1.3104 -0.9711
    1SOL    MW4 4672   0.895   1.229   1.285  0.0322 -0.6129 -0.0468
    1SOL     OW 4673   2.293   2.187   4.249 -0.4200  0.3737 -0.1454
    1SOL    HW2 4674   2.199   2.202   4.256 -0.5644 -0.5420 -0.1338
    1SOL    HW3 4675   2.304   2.131   4.172 -0.1046 -1.3651  1.1260
    1SOL    MW4 4676   2.282   2.182   4.240 -0.3972  0.0234  0.0243
    1SOL     OW 4677   1.876   2.370   2.441  0.2410 -0.4507 -0.3574
    1SOL    HW2 4678   1.882   2.464   2.421  0.0477 -0.4063 -0.2048
    1SOL    HW3 4679   1.795   2.361   2.491 -0.8003 -0.9956 -2.0641
    1SOL    MW4 4680   1.866   2.381   2.445  0.0781 -0.5169 -0.5622
    1SOL     OW 4681   2.287   3.454   4.383 -0.6898  0.2540  0.2309
    1SOL    HW2 4682   2.275   3.419   4.471  0.7941  0.2662  0.4491
    1SOL    HW3 4683   2.380   3.441   4.364 -0.8385  0.9342 -1.0341
    1SOL    MW4 4684   2.298   3.448   4.393 -0.5133  0.3455  0.0930
    1SOL     OW 4685   2.864   1.607   0.790 -0.0334 -0.2165  0.5331
    1SOL    HW2 4686   2.912   1.606   0.873  0.0212 -0.6373  0.4940
    1SOL    HW3 4687   2.815   1.526   0.789 -1.4016  0.5901  0.9418
    1SOL    MW4 4688   2.864   1.596   0.801 -0.2067 -0.1657  0.5819
    1SOL     OW 4689   4.282   3.699   1.279  0.4056  0.4920 -0.1478
    1SOL    HW2 4690   4.343   3.633   1.244 -0.9268 -0.1853 -1.2156
    1SOL    HW3 4691   4.242   3.656   1.355 -0.8121 -0.1192 -1.1249
    1SOL    MW4 4692   4.285   3.685   1.284  0.0687  0.3219 -0.4177
    1SOL     OW 4693   1.061   2.710   3.607 -0.1884 -0.0874 -0.0167
    1SOL    HW2 4694   0.974   2.740   3.578 -0.4904 -1.4746 -0.5606
    1SOL    HW3 4695   1.044   2.668   3.692 -0.0516 -0.3701 -0.1301
    1SOL    MW4 4696   1.047   2.709   3.614 -0.2103 -0.3078 -0.1035
    1SOL     OW 4697   2.698   0.117   0.715 -0.5313  0.2379  0.1951
    1SOL    HW2 4698   2.667   0.027   0.724 -1.3681  0.3738 -1.3030
    1SOL    HW3 4699   2.619   0.170   0.712 -0.0715  0.9066 -0.2775
    1SOL    MW4 4700   2.684   0.112   0.716 -0.5808  0.3440 -0.0649
    1SOL     OW 4701   1.522   3.086   4.663  0.1353  0.2188 -0.3849
    1SOL    HW2 4702   1.437   3.058   4.699  0.0627  0.3142 -0.4812
    1SOL    HW3 4703   1.583   3.018   4.691  0.1094  0.3782  0.0642
    1SOL    MW4 4704   1.519   3.073   4.672  0.1222  0.2525 -0.3381
    1SOL     OW 4705   4.141   2.643   1.664  0.4550 -0.1610  0.6250
    1SOL    HW2 4706   4.112   2.723   1.707 -1.6256  0.0102 -0.9673
    1SOL    HW3 4707   4.070   2.580   1.679  0.3919 -0.5642 -1.1641
    1SOL    MW4 4708   4.128   2.645   1.671  0.1726 -0.1919  0.1789
    1SOL     OW 4709   3.935   1.173   2.877  0.5103  0.3317 -0.4571
    1SOL    HW2 4710   4.018   1.134   2.903 -0.5198 -2.4570 -1.1680
    1SOL    HW3 4711   3.880   1.164   2.955  0.2009  0.1528 -0.6945
    1SOL    MW4 4712   3.938   1.167   2.891  0.3335 -0.0600 -0.5822
    1SOL     OW 4713   1.907   2.798   0.897 -0.0066  0.4684  0.1705
    1SOL    HW2 4714   1.823   2.771   0.861  0.2481 -0.1815  0.0504
    1SOL    HW3 4715   1.888   2.820   0.988 -0.3555  0.5783  0.0708
    1SOL    MW4 4716   1.893   2.797   0.905 -0.0190  0.3972  0.1416
    1SOL     OW 4717   4.488   2.946   2.903  0.2976 -0.1690  0.2620
    1SOL    HW2 4718   4.542   2.869   2.922  2.4310  0.9447 -1.1617
    1SOL    HW3 4719   4.406   2.909   2.869 -0.0757 -1.8848  2.8383
    1SOL    MW4 4720   4.484   2.931   2.901  0.5299 -0.2484  0.4137
    1SOL     OW 4721   3.780   0.179   4.002  0.2926  0.4539  0.0318
    1SOL    HW2 4722   3.746   0.103   4.049 -0.6430  0.2384 -0.9615
    1SOL    HW3 4723   3.848   0.215   4.059  0.8634 -1.2297  0.4434
    1SOL    MW4 4724   3.785   0.174   4.016  0.2444  0.2033 -0.0453
    1SOL     OW 4725   2.553   1.393   4.025 -0.4757  0.0427 -0.5443
    1SOL    HW2 4726   2.610   1.463   3.993 -2.2265  0.7728 -2.1642
    1SOL    HW3 4727   2.597   1.312   3.997 -0.8120  0.6294 -2.8563
    1SOL    MW4 4728   2.566   1.391   4.017 -0.7508  0.2165 -1.0629
    1SOL     OW 4729   0.605   1.365   0.459  0.2541  0.1702 -0.1582
    1SOL    HW2 4730   0.626   1.310   0.535 -0.8668  0.0046  0.0504
    1SOL    HW3 4731   0.617   1.307   0.383  2.3146  0.6180 -0.1835
    1SOL    MW4 4732   0.609   1.350   0.459  0.3781  0.2074 -0.1340
    1SOL     OW 4733   3.641   0.698   3.780 -0.1230 -0.7910  0.0408
    1SOL    HW2 4734   3.707   0.671   3.716  0.4360  0.8245 -0.1074
    1SOL    HW3 4735   3.639   0.794   3.772  1.9875 -0.2740  4.3529
    1SOL    MW4 4736   3.650   0.707   3.770  0.2291 -0.5097  0.5901
    1SOL     OW 4737   0.937   4.427   3.449 -0.3747 -0.1146  0.1004
    1SOL    HW2 4738   0.958   4.478   3.371  0.5576  0.8654  0.9698
    1SOL    HW3 4739   0.922   4.493   3.517 -0.7060 -0.9703  0.8619
    1SOL    MW4 4740   0.938   4.443   3.448 -0.2954 -0.0987  0.3157
    1SOL     OW 4741   2.714   3.964   3.700 -0.0861  0.4324 -0.0613
    1SOL    HW2 4742   2.643   4.025   3.678  1.1946  1.5626 -1.1753
    1SOL    HW3 4743   2.793   4.019   3.699  0.9703 -1.0759 -0.1600
    1SOL    MW4 4744   2.715   3.980   3.697  0.2224  0.3824 -0.2210
    1SOL     OW 4745   1.878   0.265   3.370 -0.4678 -0.3456  0.1187
    1SOL    HW2 4746   1.876   0.170   3.369 -1.0870 -0.3444  0.7635
    1SOL    HW3 4747   1.928   0.289   3.291 -0.2122 -1.1960  0.0172
    1SOL    MW4 4748   1.884   0.256   3.359 -0.5157 -0.4576  0.1905
    1SOL     OW 4749   0.900   1.573   4.053  0.3638  0.5468 -0.0695
    1SOL    HW2 4750   0.846   1.625   4.113 -2.0500 -0.5261 -1.2666
    1SOL    HW3 4751   0.924   1.496   4.104 -1.6539 -0.3453 -0.4240
    1SOL    MW4 4752   0.896   1.570   4.068 -0.2209  0.2877 -0.2742
    1SOL     OW 4753   2.281   0.218   4.291  0.1698  0.9972  0.1410
    1SOL    HW2 4754   2.299   0.219   4.197 -0.5529  0.9448 -0.0060
    1SOL    HW3 4755   2.295   0.308   4.319  0.3424  1.0235 -0.0265
    1SOL    MW4 4756   2.285   0.230   4.282  0.0973  0.9938  0.0997
    1SOL     OW 4757   2.211   3.671   0.578  0.1791 -0.0622  0.0096
    1SOL    HW2 4758   2.191   3.693   0.669  2.5013 -0.3468  0.6308
    1SOL    HW3 4759   2.225   3.756   0.536 -0.3109  0.0464  0.0656
    1SOL    MW4 4760   2.210   3.685   0.585  0.4208 -0.0858  0.0989
    1SOL     OW 4761   3.169   2.021   3.817  0.3378 -0.2079 -0.0988
    1SOL    HW2 4762   3.137   1.940   3.779 -0.9223  0.7598 -1.1188
    1SOL    HW3 4763   3.252   1.996   3.859  0.4088 -1.8309 -1.1502
    1SOL    MW4 4764   3.176   2.007   3.818  0.1810 -0.2942 -0.3722
    1SOL     OW 4765   0.968   2.177   1.047 -0.5908 -0.1604  0.0901
    1SOL    HW2 4766   0.904   2.109   1.028 -1.4959  1.0584 -1.3559
    1SOL    HW3 4767   0.945   2.249   0.988  1.2542  0.8333  0.5381
    1SOL    MW4 4768   0.956   2.177   1.037 -0.4668  0.1316 -0.0417
    1SOL     OW 4769   2.731   3.140   2.827  0.0130  0.6695 -0.1648
    1SOL    HW2 4770   2.691   3.057   2.854  0.8133 -0.2986 -1.8876
    1SOL    HW3 4771   2.823   3.131   2.851  0.7033 -0.1253 -2.8798
    1SOL    MW4 4772   2.738   3.127   2.834  0.2098  0.4368 -0.7501
    1SOL     OW 4773   4.481   3.922   1.106 -0.1130 -0.1237  0.6055
    1SOL    HW2 4774   4.506   3.980   1.034 -1.6838 -0.1346  0.0219
    1SOL    HW3 4775   4.463   3.981   1.179 -0.7456  0.0655  0.3033
    1SOL    MW4 4776   4.482   3.938   1.106 -0.4034 -0.1001  0.4886
    1SOL     OW 4777   1.753   2.267   1.281 -0.3171  0.4414 -0.1449
    1SOL    HW2 4778   1.676   2.210   1.287 -0.7255  0.8268 -1.5899
    1SOL    HW3 4779   1.784   2.257   1.191  2.5329 -1.2011  0.9571
    1SOL    MW4 4780   1.747   2.258   1.270  0.0050  0.2756 -0.1900
    1SOL     OW 4781   0.999   2.046   4.574  0.1649 -0.2307 -0.0322
    1SOL    HW2 4782   0.980   2.091   4.492  1.9942 -1.8234 -1.3771
    1SOL    HW3 4783   1.065   2.101   4.616 -0.6031  0.4658  0.2811
    1SOL    MW4 4784   1.005   2.059   4.569  0.3048 -0.3488 -0.1678
    1SOL     OW 4785   1.144   1.707   4.068  0.0829  0.0442  0.2897
    1SOL    HW2 4786   1.151   1.742   3.980 -1.0744  1.3707  0.7062
    1SOL    HW3 4787   1.054   1.675   4.075  0.0721  0.2161  1.0751
    1SOL    MW4 4788   1.133   1.707   4.057 -0.0713  0.2419  0.4487
    1SOL     OW 4789   4.019   4.115   1.508  0.3849 -0.2211  0.1044
    1SOL    HW2 4790   3.957   4.079   1.572  0.9658 -1.2328  0.1105
    1SOL    HW3 4791   4.104   4.079   1.535  1.2242  2.2860  0.9576
    1SOL    MW4 4792   4.022   4.105   1.520  0.5722 -0.0234  0.2179
    1SOL     OW 4793   1.261   2.219   0.558  0.5081  0.0749  0.4179
    1SOL    HW2 4794   1.337   2.205   0.501  0.0359  0.5230 -0.3336
    1SOL    HW3 4795   1.267   2.312   0.583  0.6025 -0.0699  0.9373
    1SOL    MW4 4796   1.272   2.230   0.554  0.4581  0.1147  0.3872
    1SOL     OW 4797   4.252   4.522   2.525  0.3632  0.8512  0.1611
    1SOL    HW2 4798   4.279   4.449   2.580  0.8045  0.6413 -0.3225
    1SOL    HW3 4799   4.198   4.482   2.456 -0.5907  1.1745  0.7123
    1SOL    MW4 4800   4.248   4.507   2.523  0.2952  0.8659  0.1700
    1SOL     OW 4801   4.269   0.438   1.196 -0.2443 -0.0067  0.0906
    1SOL    HW2 4802   4.351   0.431   1.148 -1.1148 -1.3225 -1.2288
    1SOL    HW3 4803   4.251   0.349   1.226 -1.3796  0.1964  0.0341
    1SOL    MW4 4804   4.277   0.426   1.194 -0.5088 -0.1535 -0.0908
    1SOL     OW 4805   0.904   3.410   0.957  0.4296  0.1354 -0.1483
    1SOL    HW2 4806   0.876   3.327   0.993 -1.7033  1.0253  0.3029
    1SOL    HW3 4807   0.988   3.428   0.999  0.7950 -1.6682 -0.0942
    1SOL    MW4 4808   0.911   3.402   0.967  0.1964  0.0148 -0.0816
    1SOL     OW 4809   1.612   4.306   0.777 -0.0466  0.3093  0.6264
    1SOL    HW2 4810   1.629   4.393   0.812 -1.8775  0.4301  1.2584
    1SOL    HW3 4811   1.564   4.322   0.695  0.9707 -0.0726 -0.0586
    1SOL    MW4 4812   1.608   4.320   0.771 -0.1540  0.2747  0.6195
    1SOL     OW 4813   2.545   3.309   4.384 -0.1984  0.1829 -0.3731
    1SOL    HW2 4814   2.632   3.330   4.350 -0.2166 -0.1010 -0.5998
    1SOL    HW3 4815   2.556   3.304   4.479 -0.0052  0.3185 -0.3881
    1SOL    MW4 4816   2.558   3.311   4.392 -0.1755  0.1631 -0.4048
    1SOL     OW 4817   2.576   3.806   3.504 -0.3556  0.1193  0.3678
    1SOL    HW2 4818   2.644   3.788   3.569  0.6943 -0.7160 -0.9330
    1SOL    HW3 4819   2.608   3.882   3.456  0.4073 -1.2052 -1.2482
    1SOL    MW4 4820   2.589   3.814   3.506 -0.1163 -0.1657 -0.0169
    1SOL     OW 4821   2.278   0.880   3.761  0.0298 -0.1881 -0.2387
    1SOL    HW2 4822   2.280   0.854   3.669  0.3725 -0.1684 -0.2371
    1SOL    HW3 4823   2.203   0.938   3.768  0.3423  0.2634 -0.6267
    1SOL    MW4 4824   2.268   0.884   3.750  0.1161 -0.1258 -0.2899
    1SOL     OW 4825   2.570   0.457   0.887 -0.1368 -0.5193  0.0398
    1SOL    HW2 4826   2.539   0.382   0.837 -1.3220 -0.1174  0.1621
    1SOL    HW3 4827   2.523   0.452   0.971 -0.7094  0.7082 -0.1986
    1SOL    MW4 4828   2.560   0.447   0.892 -0.3688 -0.3043  0.0245
    1SOL     OW 4829   1.199   4.115   3.879  0.4407 -0.0169  0.3093
    1SOL    HW2 4830   1.197   4.190   3.938 -3.2747  0.5284 -0.4173
    1SOL    HW3 4831   1.260   4.141   3.810  0.3027  1.7612  0.8209
    1SOL    MW4 4832   1.207   4.128   3.878 -0.0677  0.2899  0.2809
    1SOL     OW 4833   0.392   0.947   2.461  0.3397  0.3662  0.0911
    1SOL    HW2 4834   0.341   0.872   2.493  0.1703  0.6583  0.5089
    1SOL    HW3 4835   0.329   0.999   2.411  0.4399  0.2709 -0.1352
    1SOL    MW4 4836   0.377   0.944   2.459  0.3305  0.3922  0.1163
    1SOL     OW 4837   4.350   3.532   0.620  0.1447  0.1257  0.1317
    1SOL    HW2 4838   4.378   3.622   0.603  0.0779  0.3482  1.2059
    1SOL    HW3 4839   4.411   3.500   0.687 -1.2530  0.1305  1.4227
    1SOL    MW4 4840   4.362   3.540   0.626 -0.0482  0.1562  0.4438
    1SOL     OW 4841   3.259   0.383   3.406  0.2381 -0.0578 -0.1095
    1SOL    HW2 4842   3.282   0.290   3.406 -0.4113 -0.2351  1.2701
    1SOL    HW3 4843   3.246   0.405   3.498 -0.0420  1.2972 -0.4510
    1SOL    MW4 4844   3.260   0.374   3.418  0.1156  0.0976  0.0277
    1SOL     OW 4845   2.975   2.589   4.123 -0.2699  0.0535  0.5925
    1SOL    HW2 4846   2.982   2.536   4.043  0.4434  0.0566  0.6467
    1SOL    HW3 4847   2.894   2.639   4.112 -0.7220 -0.7212  0.3395
    1SOL    MW4 4848   2.965   2.589   4.111 -0.2356 -0.0482  0.5660
    1SOL     OW 4849   2.224   4.178   4.328 -0.4256 -0.1392  0.3438
    1SOL    HW2 4850   2.201   4.257   4.377 -0.2690 -0.3599  0.7805
    1SOL    HW3 4851   2.142   4.128   4.325 -0.3691 -0.2522  0.6262
    1SOL    MW4 4852   2.210   4.182   4.334 -0.3972 -0.1831  0.4387
    1SOL     OW 4853   0.632   0.247   0.720 -0.0668 -0.7125  0.0336
    1SOL    HW2 4854   0.602   0.245   0.811 -0.9193  1.0797 -0.1875
    1SOL    HW3 4855   0.612   0.160   0.686 -1.0663 -0.9278  1.1369
    1SOL    MW4 4856   0.626   0.235   0.728 -0.3111 -0.5044  0.1500
    1SOL     OW 4857   3.109   0.463   1.070 -0.0783 -0.1901  0.3864
    1SOL    HW2 4858   3.027   0.478   1.024  0.2732  0.4056 -0.0598
    1SOL    HW3 4859   3.112   0.533   1.136  0.9595  0.9867 -0.8533
    1SOL    MW4 4860   3.099   0.474   1.073  0.1049  0.0438  0.1640
    1SOL     OW 4861   1.649   0.048   3.094 -0.0728 -0.1643  0.2502
    1SOL    HW2 4862   1.591  -0.028   3.097  0.3618 -0.4810  0.8367
    1SOL    HW3 4863   1.635   0.093   3.178  1.5986 -1.0563  1.0343
    1SOL    MW4 4864   1.639   0.044   3.106  0.2050 -0.3238  0.4311
    1SOL     OW 4865   1.623   3.777   3.834  0.5406 -0.0613  0.2969
    1SOL    HW2 4866   1.558   3.721   3.875  0.5762 -0.3563 -0.0489
    1SOL    HW3 4867   1.600   3.777   3.741  0.0552  1.1415  0.3988
    1SOL    MW4 4868   1.611   3.770   3.827  0.4812  0.0584  0.2646
    1SOL     OW 4869   1.520   2.742   3.377  0.1985  0.5958  0.0831
    1SOL    HW2 4870   1.600   2.689   3.386 -0.3786 -0.3537 -0.3138
    1SOL    HW3 4871   1.449   2.679   3.386 -0.5024  1.2579 -0.7946
    1SOL    MW4 4872   1.522   2.727   3.380  0.0300  0.5574 -0.0851
    1SOL     OW 4873   1.318   3.438   4.327 -0.2715 -0.3040  0.3434
    1SOL    HW2 4874   1.397   3.384   4.334 -0.4887 -0.6786 -0.0701
    1SOL    HW3 4875   1.308   3.453   4.233  0.5780  1.6410  0.5351
    1SOL    MW4 4876   1.327   3.433   4.316 -0.1880 -0.0968  0.3142
    1SOL     OW 4877   1.337   2.437   1.851 -0.5140 -0.3068  0.1909
    1SOL    HW2 4878   1.248   2.449   1.885 -0.4986  0.5118 -0.0628
    1SOL    HW3 4879   1.331   2.456   1.758 -0.2552 -1.1718 -0.0152
    1SOL    MW4 4880   1.325   2.441   1.843 -0.4779 -0.3130  0.1302
    1SOL     OW 4881   3.951   2.253   1.409 -0.2266  0.5381  0.3180
    1SOL    HW2 4882   3.873   2.278   1.358 -1.0051 -0.1689  1.1579
    1SOL    HW3 4883   3.941   2.299   1.492 -0.0102  0.0291  0.6253
    1SOL    MW4 4884   3.939   2.262   1.413 -0.3011  0.3774  0.4693
    1SOL     OW 4885   0.261   3.421   4.075  0.0390 -0.1386  0.7242
    1SOL    HW2 4886   0.314   3.343   4.059  0.5163  0.1530  0.9069
    1SOL    HW3 4887   0.200   3.394   4.144  0.2924 -0.3058  0.8844
    1SOL    MW4 4888   0.260   3.407   4.082  0.1354 -0.1223  0.7691
    1SOL     OW 4889   1.205   2.193   4.662 -0.5965  0.2020  0.3154
    1SOL    HW2 4890   1.262   2.269   4.671 -0.3733  0.1425 -0.5535
    1SOL    HW3 4891   1.261   2.125   4.626 -1.0991  0.0132 -0.1260
    1SOL    MW4 4892   1.220   2.194   4.658 -0.6335  0.1695  0.1431
    1SOL     OW 4893   3.891   3.170   2.229 -0.3274  0.4470  0.1047
    1SOL    HW2 4894   3.966   3.170   2.289  0.7157 -0.0761 -1.1742
    1SOL    HW3 4895   3.833   3.238   2.264  0.0851 -0.0877  1.9022
    1SOL    MW4 4896   3.893   3.179   2.242 -0.1357  0.3073  0.1731
    1SOL     OW 4897   0.519   0.085   4.590 -0.0301  0.0275  0.3477
    1SOL    HW2 4898   0.444   0.037   4.556 -0.0022 -0.9394  1.5766
    1SOL    HW3 4899   0.488   0.122   4.673  1.0620 -1.0222  1.2410
    1SOL    MW4 4900   0.505   0.084   4.597  0.1177 -0.2386  0.6280
    1SOL     OW 4901   3.358   1.783   1.309  0.6110 -0.2348 -0.4506
    1SOL    HW2 4902   3.437   1.830   1.335  0.4269 -0.3308  0.2735
    1SOL    HW3 4903   3.369   1.695   1.344  0.4710 -0.4344 -0.8984
    1SOL    MW4 4904   3.370   1.777   1.317  0.5682 -0.2738 -0.4140
    1SOL     OW 4905   4.060   2.031   2.406  0.2966  0.0200 -0.1760
    1SOL    HW2 4906   4.020   2.075   2.331  1.7433  0.7791 -0.5332
    1SOL    HW3 4907   3.993   2.033   2.474 -0.1581  1.5613 -0.6430
    1SOL    MW4 4908   4.046   2.037   2.405  0.4272  0.3233 -0.2847
    1SOL     OW 4909   0.396   1.176   1.511 -0.2416  0.4437  0.3361
    1SOL    HW2 4910   0.476   1.174   1.459 -0.4624 -0.4056  0.0242
    1SOL    HW3 4911   0.340   1.240   1.466 -0.4569 -0.3340 -0.5075
    1SOL    MW4 4912   0.399   1.184   1.498 -0.2992  0.2291  0.1836
    1SOL     OW 4913   2.374   2.236   1.656  0.2698  0.2076  0.2323
    1SOL    HW2 4914   2.429   2.163   1.628  0.2611  0.1276  0.4191
    1SOL    HW3 4915   2.357   2.286   1.576 -1.2203 -0.9914 -0.2228
    1SOL    MW4 4916   2.379   2.233   1.642  0.0722  0.0389  0.1969
    1SOL     OW 4917   3.588   1.656   3.540 -0.5254  0.0312 -0.2661
    1SOL    HW2 4918   3.555   1.610   3.463 -0.0315 -0.5612 -0.1333
    1SOL    HW3 4919   3.670   1.610   3.561 -0.2311  0.7212  0.1087
    1SOL    MW4 4920   3.595   1.643   3.532 -0.4213  0.0441 -0.1991
    1SOL     OW 4921   2.779   0.058   4.484  0.6356 -0.2710  0.6387
    1SOL    HW2 4922   2.796  -0.026   4.528  1.3161 -0.2510  0.4226
    1SOL    HW3 4923   2.731   0.035   4.405  2.3411 -0.6403 -0.3183
    1SOL    MW4 4924   2.775   0.044   4.480  0.9503 -0.3171  0.4840
    1SOL     OW 4925   3.734   3.566   3.185 -0.4212  0.4066  0.3699
    1SOL    HW2 4926   3.681   3.530   3.114  2.7428  1.6034 -2.7343
    1SOL    HW3 4927   3.795   3.496   3.208 -0.8144  0.3534  1.2672
    1SOL    MW4 4928   3.735   3.552   3.179 -0.0556  0.5577  0.0784
    1SOL     OW 4929   2.940   0.884   1.543 -0.0895 -0.1443  0.2744
    1SOL    HW2 4930   2.961   0.947   1.474 -3.1440 -0.0012 -0.6174
    1SOL    HW3 4931   2.957   0.799   1.503  1.8848  0.0344  0.7077
    1SOL    MW4 4932   2.945   0.881   1.529 -0.2322 -0.1019  0.2139
    1SOL     OW 4933   1.442   1.908   2.811  0.0547 -0.6296  1.0168
    1SOL    HW2 4934   1.378   1.843   2.840 -0.1728 -0.2850  1.2899
    1SOL    HW3 4935   1.525   1.878   2.849 -0.0510 -0.7525  1.1540
    1SOL    MW4 4936   1.445   1.895   2.820  0.0108 -0.6003  1.0707
    1SOL     OW 4937   0.018   3.345   1.447 -0.1372  0.0446 -0.2889
    1SOL    HW2 4938  -0.013   3.372   1.533  1.9183  1.4212  0.0593
    1SOL    HW3 4939   0.093   3.402   1.429  0.5539 -1.4002 -2.2141
    1SOL    MW4 4940   0.024   3.356   1.456  0.2260  0.0358 -0.4971
    1SOL     OW 4941   3.541   4.056   0.639  1.0473  0.3421 -0.0614
    1SOL    HW2 4942   3.632   4.055   0.668  1.1115 -1.5512 -0.2698
    1SOL    HW3 4943   3.490   4.063   0.719  1.3334 -0.6537  0.2101
    1SOL    MW4 4944   3.547   4.057   0.653  1.0936 -0.0391 -0.0531
    1SOL     OW 4945   1.855   2.902   3.275  0.4963 -0.4362  0.2411
    1SOL    HW2 4946   1.777   2.953   3.295  0.4789 -0.8328  1.1928
    1SOL    HW3 4947   1.925   2.967   3.267  0.4374 -0.2449  1.2541
    1SOL    MW4 4948   1.854   2.917   3.277  0.4863 -0.4632  0.5002
    1SOL     OW 4949   2.419   4.455   3.306 -0.3224  0.0847  0.6974
    1SOL    HW2 4950   2.357   4.480   3.375 -0.7745  1.7862 -0.2828
    1SOL    HW3 4951   2.365   4.448   3.227  0.4697 -0.0275  0.1658
    1SOL    MW4 4952   2.404   4.458   3.305 -0.2778  0.2942  0.4976
    1SOL     OW 4953   2.091   2.523   1.141  0.4335  0.0222  0.1931
    1SOL    HW2 4954   2.030   2.561   1.205 -1.1313 -1.4867 -0.3541
    1SOL    HW3 4955   2.148   2.595   1.116  0.9770  0.6862  3.1777
    1SOL    MW4 4956   2.091   2.537   1.146  0.2987 -0.0892  0.5146
    1SOL     OW 4957   3.106   2.563   2.623 -0.0223  0.1707 -0.2294
    1SOL    HW2 4958   3.140   2.637   2.573 -0.3288  0.0754 -0.5768
    1SOL    HW3 4959   3.027   2.596   2.665  0.0453  0.1484 -0.0810
    1SOL    MW4 4960   3.100   2.577   2.622 -0.0539  0.1552 -0.2553
    1SOL     OW 4961   0.084   0.075   0.785  0.3172 -0.6865 -0.6330
    1SOL    HW2 4962   0.035   0.015   0.842  2.0726 -1.5108  0.0240
    1SOL    HW3 4963   0.019   0.141   0.759 -1.4137 -2.3054 -0.5767
    1SOL    MW4 4964   0.069   0.076   0.789  0.3204 -1.0089 -0.5389
    1SOL     OW 4965   2.523   4.634   0.984  0.1955  0.3198  0.2985
    1SOL    HW2 4966   2.555   4.721   1.003  1.2807  0.3740 -1.6496
    1SOL    HW3 4967   2.558   4.613   0.897  0.6904 -2.3915  1.0875
    1SOL    MW4 4968   2.531   4.642   0.975  0.4039 -0.0310  0.1456
    1SOL     OW 4969   1.838   0.765   3.443  0.0721  0.0799 -0.4930
    1SOL    HW2 4970   1.857   0.725   3.358 -1.5470 -1.5407 -0.1191
    1SOL    HW3 4971   1.876   0.852   3.437  0.2597 -0.1258 -2.7699
    1SOL    MW4 4972   1.846   0.771   3.431 -0.1168 -0.1610 -0.7441
    1SOL     OW 4973   3.211   3.783   2.733 -0.5575 -0.1007  0.0493
    1SOL    HW2 4974   3.256   3.810   2.814 -0.4027 -0.2098 -0.0000
    1SOL    HW3 4975   3.240   3.846   2.668 -1.7938  0.8512  0.4022
    1SOL    MW4 4976   3.221   3.795   2.735 -0.7002  0.0105  0.0892
    1SOL     OW 4977   0.814   0.541   1.335 -0.1303  0.0478  0.5063
    1SOL    HW2 4978   0.798   0.468   1.275 -0.0722 -0.1898  0.7764
    1SOL    HW3 4979   0.727   0.571   1.360 -0.1892 -1.4460  2.2158
    1SOL    MW4 4980   0.801   0.535   1.330 -0.1304 -0.1807  0.7676
    1SOL     OW 4981   2.535   2.806   2.496  0.0805 -0.5099 -0.1503
    1SOL    HW2 4982   2.470   2.742   2.467  0.0452 -0.9967  0.9664
    1SOL    HW3 4983   2.522   2.881   2.439 -1.9064 -0.3479  0.4598
    1SOL    MW4 4984   2.525   2.808   2.485 -0.1864 -0.5527  0.0775
    1SOL     OW 4985   2.161   3.122   4.564  0.4404 -0.3450 -0.2189
    1SOL    HW2 4986   2.085   3.070   4.590  0.9445 -0.0998  1.8808
    1SOL    HW3 4987   2.146   3.143   4.472 -1.5391 -1.1421 -0.1027
    1SOL    MW4 4988   2.149   3.118   4.555  0.2460 -0.4179  0.0734
    1SOL     OW 4989   0.781   1.058   4.398 -0.0656 -0.2530  0.7079
    1SOL    HW2 4990   0.776   1.069   4.303  1.7805  0.1419  0.6353
    1SOL    HW3 4991   0.691   1.069   4.428 -0.5066  0.6760 -0.8885
    1SOL    MW4 4992   0.768   1.061   4.389  0.1198 -0.0783  0.4883
    1SOL     OW 4993   1.020   3.939   4.004 -0.2163 -0.0367  0.3238
    1SOL    HW2 4994   1.103   3.973   3.969  0.1260  1.2028  2.2476
    1SOL    HW3 4995   1.046   3.876   4.071 -0.8235  0.1654  0.7556
    1SOL    MW4 4996   1.035   3.936   4.008 -0.2513  0.1535  0.6347
    1SOL     OW 4997   2.246   3.590   3.343 -0.0463  0.2961  0.5980
    1SOL    HW2 4998   2.262   3.684   3.350 -0.0624  0.4031 -0.7676
    1SOL    HW3 4999   2.311   3.551   3.402  0.0724  1.1462  1.0446
    1SOL    MW4 5000   2.257   3.597   3.352 -0.0327  0.4222  0.4768
    1SOL     OW 5001   3.098   4.128   1.574 -0.1209  0.3537  0.1104
    1SOL    HW2 5002   3.184   4.087   1.587 -0.5215 -0.6210 -0.2581
    1SOL    HW3 5003   3.040   4.081   1.634 -0.3043  1.3369  0.7135
    1SOL    MW4 5004   3.102   4.116   1.583 -0.1981  0.3548  0.1413
    1SOL     OW 5005   4.324   1.068   3.783 -0.5732  0.2291 -0.5010
    1SOL    HW2 5006   4.254   1.019   3.741 -0.9764  0.8960 -0.6012
    1SOL    HW3 5007   4.391   1.002   3.801 -1.1330 -0.3696 -0.5943
    1SOL    MW4 5008   4.324   1.053   3.780 -0.7000  0.2381 -0.5262
    1SOL     OW 5009   0.261   0.289   3.832 -0.2148 -0.2743 -0.2574
    1SOL    HW2 5010   0.233   0.333   3.912 -0.9994 -1.4061  0.1034
    1SOL    HW3 5011   0.355   0.274   3.845  0.3880  2.5571 -1.0060
    1SOL    MW4 5012   0.269   0.293   3.844 -0.2388 -0.0500 -0.3088
    1SOL     OW 5013   0.240   2.857   3.149 -0.2469  0.0260 -0.4263
    1SOL    HW2 5014   0.314   2.852   3.209 -1.2594  0.7435  0.9026
    1SOL    HW3 5015   0.216   2.766   3.132  0.1964 -0.1862  0.0676
    1SOL    MW4 5016   0.246   2.845   3.154 -0.3220  0.0925 -0.1860
    1SOL     OW 5017   2.010   2.074   3.314  0.0932 -0.2669  0.0158
    1SOL    HW2 5018   2.049   2.160   3.333 -1.6506  0.7552 -0.9389
    1SOL    HW3 5019   1.987   2.039   3.400  0.2254  0.4986  0.3665
    1SOL    MW4 5020   2.012   2.081   3.328 -0.1192 -0.0310 -0.0637
    1SOL     OW 5021   0.809   0.903   1.542 -0.0289 -0.6317 -0.2257
    1SOL    HW2 5022   0.796   0.899   1.447 -1.6497  1.1652 -0.1048
    1SOL    HW3 5023   0.846   0.989   1.559  1.5046 -1.4414  0.6598
    1SOL    MW4 5024   0.812   0.914   1.532 -0.0405 -0.5014 -0.0929
    1SOL     OW 5025   4.210   1.668   0.764 -0.3366 -0.2042  0.0813
    1SOL    HW2 5026   4.221   1.583   0.807 -0.9688 -0.5720 -0.4697
    1SOL    HW3 5027   4.276   1.669   0.695 -0.9025 -0.6172 -0.4719
    1SOL    MW4 5028   4.220   1.657   0.760 -0.4950 -0.3072 -0.0644
    1SOL     OW 5029   2.288   3.286   1.229 -0.2473  0.4465  0.1042
    1SOL    HW2 5030   2.241   3.295   1.312  0.0346  0.0896  0.3039
    1SOL    HW3 5031   2.220   3.275   1.163 -0.3985 -2.0253  0.6223
    1SOL    MW4 5032   2.273   3.286   1.232 -0.2298  0.0732  0.1990
    1SOL     OW 5033   0.217   1.758   4.021 -0.3207  0.4653 -0.1906
    1SOL    HW2 5034   0.193   1.807   3.943 -1.5201  1.0059  0.4914
    1SOL    HW3 5035   0.290   1.703   3.994  1.3215  2.9006 -0.8723
    1SOL    MW4 5036   0.223   1.757   4.007 -0.2623  0.8578 -0.1907
    1SOL     OW 5037   1.791   3.393   3.683 -0.3617 -0.4569  0.2335
    1SOL    HW2 5038   1.842   3.465   3.721 -0.5897  0.3049 -0.9090
    1SOL    HW3 5039   1.820   3.316   3.732 -1.8825  0.7463  3.1620
    1SOL    MW4 5040   1.802   3.392   3.695 -0.5924 -0.1974  0.4692
    1SOL     OW 5041   1.420   1.271   2.915 -0.0294  0.0248  0.2963
    1SOL    HW2 5042   1.365   1.197   2.941 -0.3972 -0.0911 -0.7811
    1SOL    HW3 5043   1.372   1.311   2.842  1.5680 -0.3808 -0.9857
    1SOL    MW4 5044   1.406   1.266   2.909  0.1329 -0.0440 -0.0150
    1SOL     OW 5045   2.437   0.329   2.647  0.1577 -0.5700  0.0007
    1SOL    HW2 5046   2.532   0.316   2.647  0.3743  0.9219  0.4156
    1SOL    HW3 5047   2.419   0.374   2.730 -0.7693  0.1493 -0.5771
    1SOL    MW4 5048   2.447   0.333   2.658  0.0639 -0.2782 -0.0207
    1SOL     OW 5049   0.942   1.815   3.135 -0.2622  0.1084 -0.3510
    1SOL    HW2 5050   0.885   1.875   3.088 -0.3308 -0.6584 -1.2487
    1SOL    HW3 5051   1.027   1.861   3.138 -0.4825  0.5272 -0.4622
    1SOL    MW4 5052   0.946   1.829   3.129 -0.3003  0.0626 -0.4840
    1SOL     OW 5053   4.123   1.333   1.872 -0.1616 -0.1531 -0.3847
    1SOL    HW2 5054   4.186   1.367   1.809  1.0754 -0.6184  0.5891
    1SOL    HW3 5055   4.129   1.392   1.947 -1.8628  0.5941 -0.8008
    1SOL    MW4 5056   4.132   1.345   1.873 -0.2222 -0.1159 -0.3113
    1SOL     OW 5057   2.123   2.817   3.993 -0.0042 -0.1062 -0.0752
    1SOL    HW2 5058   2.132   2.898   3.943 -0.3831  0.0627  0.1289
    1SOL    HW3 5059   2.165   2.836   4.076 -0.4763  0.0259  0.1353
    1SOL    MW4 5060   2.130   2.830   3.997 -0.1168 -0.0665 -0.0205
    1SOL     OW 5061   2.016   0.685   2.445  0.0605  0.7948  0.2095
    1SOL    HW2 5062   1.976   0.766   2.478 -2.1725 -0.3029  0.3161
    1SOL    HW3 5063   2.105   0.687   2.477 -1.0207  1.4917  3.2994
    1SOL    MW4 5064   2.022   0.696   2.453 -0.3765  0.7419  0.6313
    1SOL     OW 5065   3.852   4.139   3.673  0.4880  0.2278  0.1899
    1SOL    HW2 5066   3.809   4.065   3.717  0.8002  0.0867  0.2543
    1SOL    HW3 5067   3.827   4.215   3.725 -1.3373  0.4155 -0.9056
    1SOL    MW4 5068   3.843   4.139   3.686  0.2885  0.2337  0.0539
    1SOL     OW 5069   3.277   0.813   2.438  0.1767 -0.2844 -0.3575
    1SOL    HW2 5070   3.194   0.831   2.393 -0.0964 -0.4334  0.0933
    1SOL    HW3 5071   3.253   0.790   2.527  0.8300  1.7996  0.3852
    1SOL    MW4 5072   3.263   0.813   2.444  0.2267 -0.0291 -0.2000
    1SOL     OW 5073   3.906   2.353   2.467 -0.0927  0.2254  0.2457
    1SOL    HW2 5074   3.892   2.309   2.383 -0.3030 -0.4752  0.6396
    1SOL    HW3 5075   3.978   2.304   2.508  0.9383  1.4185 -0.1145
    1SOL    MW4 5076   3.914   2.340   2.461  0.0155  0.2904  0.2501
    1SOL     OW 5077   3.460   2.617   2.033 -0.2033  0.5011 -0.2580
    1SOL    HW2 5078   3.408   2.569   1.968  0.0431 -0.0677 -0.0427
    1SOL    HW3 5079   3.450   2.709   2.010  0.3562  0.2690 -1.4526
    1SOL    MW4 5080   3.452   2.622   2.022 -0.0970  0.3955 -0.3872
    1SOL     OW 5081   0.492   2.151   1.288  0.0728  0.0332  0.7494
    1SOL    HW2 5082   0.412   2.098   1.285 -0.0769  0.3072 -0.5266
    1SOL    HW3 5083   0.463   2.240   1.268  0.6533  0.1933  0.6126
    1SOL    MW4 5084   0.478   2.156   1.285  0.1296  0.0904  0.5630
    1SOL     OW 5085   2.444   2.163   0.593 -0.4607 -0.3484  0.0378
    1SOL    HW2 5086   2.466   2.254   0.608 -0.9536 -0.0618 -0.9139
    1SOL    HW3 5087   2.526   2.122   0.566 -0.7757  0.4232 -2.2182
    1SOL    MW4 5088   2.458   2.169   0.592 -0.5677 -0.2091 -0.3854
    1SOL     OW 5089   0.313   4.626   3.125  0.0980  0.4309 -0.0895
    1SOL    HW2 5090   0.293   4.701   3.069  0.4517  0.4548 -0.1858
    1SOL    HW3 5091   0.274   4.551   3.080 -0.3925  0.5802  0.0870
    1SOL    MW4 5092   0.305   4.626   3.111  0.0800  0.4535 -0.0789
    1SOL     OW 5093   0.615   4.585   2.285  0.2679 -0.3188  0.7057
    1SOL    HW2 5094   0.640   4.560   2.374  1.1886 -0.8833  0.2953
    1SOL    HW3 5095   0.521   4.568   2.281 -0.3439  2.2815  2.4193
    1SOL    MW4 5096   0.606   4.580   2.297  0.3087 -0.0501  0.8776
    1SOL     OW 5097   3.317   0.499   4.490 -0.1176 -0.4693  0.0788
    1SOL    HW2 5098   3.277   0.580   4.523  1.4430  0.6490 -0.7161
    1SOL    HW3 5099   3.272   0.483   4.407  0.2230  0.1189 -0.2230
    1SOL    MW4 5100   3.306   0.508   4.483  0.1330 -0.2441 -0.0653
    1SOL     OW 5101   2.319   1.322   3.899  0.1876 -0.5254  0.0721
    1SOL    HW2 5102   2.394   1.377   3.921  0.2369 -0.4630 -0.2389
    1SOL    HW3 5103   2.357   1.239   3.870  0.2443  0.2907 -2.2995
    1SOL    MW4 5104   2.334   1.318   3.898  0.2019 -0.4095 -0.2820
    1SOL     OW 5105   3.819   4.081   0.675 -0.6239  0.0367  0.3288
    1SOL    HW2 5106   3.850   3.990   0.672  0.8557  0.5667 -1.7777
    1SOL    HW3 5107   3.834   4.109   0.765  1.4619 -0.9687  0.3198
    1SOL    MW4 5108   3.825   4.073   0.687 -0.1533 -0.0267  0.0496
    1SOL     OW 5109   0.320   0.083   0.939  0.2268 -0.1559  0.2872
    1SOL    HW2 5110   0.247   0.079   0.878  0.9651  1.0127 -0.7063
    1SOL    HW3 5111   0.353  -0.006   0.944 -1.1066 -0.6443  0.5567
    1SOL    MW4 5112   0.315   0.071   0.932  0.1483 -0.0661  0.1917
    1SOL     OW 5113   1.916   3.013   4.585 -0.5618 -0.1221 -0.0648
    1SOL    HW2 5114   1.903   3.107   4.572 -2.2526 -0.3805 -0.3970
    1SOL    HW3 5115   1.865   2.992   4.663 -0.2124 -0.7629 -0.0039
    1SOL    MW4 5116   1.907   3.023   4.594 -0.7387 -0.2408 -0.1006
    1SOL     OW 5117   2.532   2.705   0.972  0.0533  0.0335  0.7711
    1SOL    HW2 5118   2.497   2.725   0.886 -0.4232 -1.4817  0.5994
    1SOL    HW3 5119   2.459   2.720   1.032  0.7257  2.2760  1.0843
    1SOL    MW4 5120   2.518   2.710   0.969  0.0792  0.1295  0.7898
    1SOL     OW 5121   3.815   4.329   3.927  0.0698 -0.0304 -0.1571
    1SOL    HW2 5122   3.845   4.300   4.013  1.0116 -1.2891 -0.9062
    1SOL    HW3 5123   3.739   4.385   3.947  0.2904 -0.2713  1.4831
    1SOL    MW4 5124   3.809   4.333   3.941  0.2232 -0.2279 -0.0396
    1SOL     OW 5125   1.315   3.474   1.739  0.0891 -0.1491 -0.0534
    1SOL    HW2 5126   1.241   3.514   1.784  0.3640  0.9655 -0.5838
    1SOL    HW3 5127   1.344   3.404   1.798 -1.4317 -0.6572  0.1093
    1SOL    MW4 5128   1.309   3.470   1.753 -0.0752 -0.0689 -0.1018
    1SOL     OW 5129   1.443   2.937   1.497  0.6671  0.3268 -0.0044
    1SOL    HW2 5130   1.438   3.028   1.469  1.1233 -0.3656 -2.3807
    1SOL    HW3 5131   1.530   2.907   1.469 -0.2777 -1.4363 -1.1552
    1SOL    MW4 5132   1.454   2.945   1.490  0.6026  0.0026 -0.4697
    1SOL     OW 5133   0.583   4.665   1.271 -0.3045  0.3464 -0.1141
    1SOL    HW2 5134   0.559   4.757   1.284 -0.5127  0.7058 -2.7008
    1SOL    HW3 5135   0.505   4.616   1.297 -0.0301  0.8418  1.7365
    1SOL    MW4 5136   0.570   4.671   1.276 -0.2957  0.4592 -0.2111
    1SOL     OW 5137   1.073   0.909   2.350  0.1078  0.0315 -0.1170
    1SOL    HW2 5138   1.113   0.995   2.339 -2.3938  0.9999 -2.0949
    1SOL    HW3 5139   1.100   0.860   2.272 -0.7882  0.0003 -0.4167
    1SOL    MW4 5140   1.082   0.914   2.338 -0.3406  0.1552 -0.4172
    1SOL     OW 5141   2.890   0.995   4.301 -0.4940 -0.2603 -0.3919
    1SOL    HW2 5142   2.910   0.903   4.321 -1.1813 -0.4381 -0.5386
    1SOL    HW3 5143   2.795   1.000   4.303 -0.4249  0.7164  0.8073
    1SOL    MW4 5144   2.880   0.983   4.304 -0.5758 -0.1550 -0.2532
    1SOL     OW 5145   2.702   1.888   2.856  0.0100 -0.5511 -0.1060
    1SOL    HW2 5146   2.661   1.806   2.882  1.0917 -0.8408  0.7189
    1SOL    HW3 5147   2.789   1.863   2.824  1.0560  0.4285  1.8817
    1SOL    MW4 5148   2.708   1.874   2.855  0.2909 -0.4599  0.2651
    1SOL     OW 5149   1.347   2.510   4.678 -0.7570  0.1569  0.2074
    1SOL    HW2 5150   1.366   2.576   4.745 -0.7887 -1.2150  1.6131
    1SOL    HW3 5151   1.252   2.510   4.670 -0.9104 -1.0826  1.6830
    1SOL    MW4 5152   1.337   2.519   4.686 -0.7814 -0.1876  0.5875
    1SOL     OW 5153   0.916   2.328   0.814 -0.3094 -0.1643  0.1293
    1SOL    HW2 5154   0.869   2.271   0.753 -1.4750  0.9332 -0.0199
    1SOL    HW3 5155   0.884   2.416   0.794  2.3640  0.7090 -0.4786
    1SOL    MW4 5156   0.905   2.332   0.804 -0.1105  0.0958  0.0294
    1SOL     OW 5157   1.144   4.282   0.818 -0.4720  0.5324  0.4354
    1SOL    HW2 5158   1.059   4.238   0.813 -1.6847  2.9143 -0.8649
    1SOL    HW3 5159   1.138   4.336   0.897 -0.0232  0.4518  0.5275
    1SOL    MW4 5160   1.132   4.283   0.828 -0.5728  0.8359  0.2760
    1SOL     OW 5161   4.270   3.350   2.845  0.5748  0.0187 -0.1895
    1SOL    HW2 5162   4.193   3.346   2.901 -0.6010  0.8974 -1.7178
    1SOL    HW3 5163   4.337   3.301   2.893 -0.4233  0.6842  1.9273
    1SOL    MW4 5164   4.269   3.343   2.859  0.2880  0.2222 -0.1118
    1SOL     OW 5165   2.558   2.126   2.791 -0.1046  0.2544  0.6310
    1SOL    HW2 5166   2.494   2.110   2.722 -0.0956 -1.9760  1.0912
    1SOL    HW3 5167   2.593   2.039   2.812  2.7921  1.3638  0.6570
    1SOL    MW4 5168   2.555   2.112   2.785  0.2785  0.1068  0.6950
    1SOL     OW 5169   2.848   2.350   3.679  0.4019 -0.3330 -0.0627
    1SOL    HW2 5170   2.813   2.270   3.718 -0.1988 -0.6876 -1.3022
    1SOL    HW3 5171   2.771   2.402   3.656  0.6585 -0.8232 -2.1813
    1SOL    MW4 5172   2.833   2.346   3.681  0.3564 -0.4444 -0.5059
    1SOL     OW 5173   0.821   0.477   4.207  0.4082  0.2716 -0.5269
    1SOL    HW2 5174   0.872   0.408   4.249  1.0661  1.0579 -0.0346
    1SOL    HW3 5175   0.880   0.552   4.202 -0.2640  0.7681 -1.1679
    1SOL    MW4 5176   0.835   0.478   4.212  0.4063  0.4408 -0.5460
    1SOL     OW 5177   1.666   0.556   2.096  0.5582 -0.7979  0.0297
    1SOL    HW2 5178   1.612   0.508   2.033  1.9953 -0.0360 -1.8248
    1SOL    HW3 5179   1.732   0.492   2.125  0.4289 -0.8970  0.1067
    1SOL    MW4 5180   1.668   0.541   2.092  0.7308 -0.7104 -0.2048
    1SOL     OW 5181   2.702   0.317   2.914  0.7420  0.2516  0.0937
    1SOL    HW2 5182   2.757   0.375   2.967 -0.5732 -0.2688  2.0784
    1SOL    HW3 5183   2.703   0.233   2.961 -1.4575  0.1376 -0.0385
    1SOL    MW4 5184   2.710   0.313   2.927  0.2782  0.1679  0.3381
    1SOL     OW 5185   4.380   4.037   2.655 -0.1221  0.6724  0.2807
    1SOL    HW2 5186   4.405   4.035   2.747 -0.7420 -2.7173  0.4488
    1SOL    HW3 5187   4.458   4.009   2.608 -0.6277 -0.3093  0.0125
    1SOL    MW4 5188   4.394   4.033   2.661 -0.2704  0.0954  0.2673
    1SOL     OW 5189   2.157   2.974   2.440 -0.4495 -0.0476 -0.6305
    1SOL    HW2 5190   2.129   2.952   2.529 -1.1985  2.0184 -0.3247
    1SOL    HW3 5191   2.078   2.967   2.387  0.0427 -1.4996 -1.1984
    1SOL    MW4 5192   2.143   2.970   2.445 -0.4835  0.0334 -0.6652
    1SOL     OW 5193   2.664   3.627   1.970 -0.0233 -0.5024 -0.1409
    1SOL    HW2 5194   2.699   3.542   1.998  1.5841 -0.2512 -1.3178
    1SOL    HW3 5195   2.647   3.616   1.876 -0.4566  0.2650 -0.1554
    1SOL    MW4 5196   2.666   3.614   1.961  0.1316 -0.3679 -0.2980
    1SOL     OW 5197   1.677   1.833   4.284  0.1580 -0.4539  0.1472
    1SOL    HW2 5198   1.759   1.793   4.255  0.8878  1.0992  0.0350
    1SOL    HW3 5199   1.611   1.802   4.222  0.9099 -0.6412 -0.5639
    1SOL    MW4 5200   1.679   1.824   4.272  0.3536 -0.2737  0.0386
    1SOL     OW 5201   2.626   3.962   1.105 -0.0912 -0.5185 -0.1857
    1SOL    HW2 5202   2.619   4.013   1.186 -1.3227 -0.5263 -0.2797
    1SOL    HW3 5203   2.720   3.958   1.087  0.1886 -0.4449  1.1995
    1SOL    MW4 5204   2.637   3.968   1.113 -0.2167 -0.5097 -0.0154
    1SOL     OW 5205   1.755   4.416   3.994 -0.1684 -0.3166  0.0032
    1SOL    HW2 5206   1.821   4.452   3.934 -0.8551  1.8230  0.4785
    1SOL    HW3 5207   1.793   4.334   4.025  1.4765 -0.0102 -1.1358
    1SOL    MW4 5208   1.769   4.410   3.990 -0.0420  0.0062 -0.0844
    1SOL     OW 5209   0.466   3.679   1.969  0.2072  0.7941 -0.1603
    1SOL    HW2 5210   0.395   3.618   1.953 -1.8538  2.0019  3.7191
    1SOL    HW3 5211   0.432   3.764   1.941  0.0078  1.3903  1.7844
    1SOL    MW4 5212   0.452   3.682   1.963 -0.0911  1.0319  0.6081
    1SOL     OW 5213   0.574   2.136   2.973 -0.1101 -0.3616  0.1923
    1SOL    HW2 5214   0.505   2.105   2.914 -1.2386  0.5988  0.9646
    1SOL    HW3 5215   0.582   2.229   2.953  0.2616 -0.2612  0.7945
    1SOL    MW4 5216   0.566   2.144   2.962 -0.2100 -0.2217  0.3734
    1SOL     OW 5217   2.866   2.000   0.916  0.6891  0.3894 -0.7063
    1SOL    HW2 5218   2.824   1.950   0.986  0.5742  0.0800 -0.9973
    1SOL    HW3 5219   2.947   1.952   0.897  1.0182  0.8095 -0.3651
    1SOL    MW4 5220   2.871   1.987   0.923  0.7174  0.4039 -0.6997
    1SOL     OW 5221   1.963   2.424   4.208 -0.0676  0.9706  0.1162
    1SOL    HW2 5222   1.933   2.369   4.135 -0.8946  1.6432 -0.0614
    1SOL    HW3 5223   1.972   2.363   4.281  0.2604  0.3782 -0.4115
    1SOL    MW4 5224   1.960   2.408   4.208 -0.1334  0.9811  0.0234
    1SOL     OW 5225   3.479   3.667   1.099 -0.2148 -0.1313 -0.1160
    1SOL    HW2 5226   3.534   3.739   1.131 -1.0270  1.1724 -1.6184
    1SOL    HW3 5227   3.404   3.666   1.158 -0.0270  0.0296  0.1254
    1SOL    MW4 5228   3.477   3.677   1.111 -0.2973  0.0620 -0.2822
    1SOL     OW 5229   3.337   1.055   2.586 -0.0690 -0.2515  0.3342
    1SOL    HW2 5230   3.312   1.026   2.674  2.4077 -0.9561  0.8332
    1SOL    HW3 5231   3.313   0.981   2.530 -1.7693  0.2478  0.3764
    1SOL    MW4 5232   3.330   1.041   2.591  0.0334 -0.2785  0.4058
    1SOL     OW 5233   1.535   2.818   2.776 -0.1316 -0.3957  0.2887
    1SOL    HW2 5234   1.592   2.763   2.829 -0.6153  0.7452  2.0352
    1SOL    HW3 5235   1.566   2.907   2.791 -1.6145  0.1367  0.3267
    1SOL    MW4 5236   1.546   2.823   2.785 -0.3911 -0.1748  0.5243
    1SOL     OW 5237   4.107   4.024   2.836 -0.3829  0.3067  0.1418
    1SOL    HW2 5238   4.109   4.008   2.742 -0.4309  1.5543 -0.0756
    1SOL    HW3 5239   4.143   4.112   2.846 -1.6192  0.6961  1.1733
    1SOL    MW4 5240   4.112   4.034   2.825 -0.5522  0.5231  0.2494
    1SOL     OW 5241   2.833   0.522   1.027  0.0283 -0.2169 -0.3441
    1SOL    HW2 5242   2.802   0.608   1.056  0.4708  0.4140 -1.6653
    1SOL    HW3 5243   2.754   0.470   1.017 -0.0233 -0.9187  3.3643
    1SOL    MW4 5244   2.818   0.527   1.029  0.0799 -0.2263 -0.0290
    1SOL     OW 5245   1.202   3.143   2.546  0.1361  0.9998 -0.0415
    1SOL    HW2 5246   1.243   3.072   2.595 -1.5777  0.4591  0.6490
    1SOL    HW3 5247   1.222   3.123   2.454 -0.4115 -0.4486  0.1336
    1SOL    MW4 5248   1.210   3.131   2.540 -0.1622  0.7372  0.0727
    1SOL     OW 5249   3.303   2.840   3.284  0.2250  0.3166  0.2018
    1SOL    HW2 5250   3.213   2.867   3.269  1.2122  3.6167 -0.1733
    1SOL    HW3 5251   3.315   2.764   3.227 -2.5756 -0.8327  1.0469
    1SOL    MW4 5252   3.293   2.834   3.274 -0.0141  0.6003  0.2637
    1SOL     OW 5253   2.842   2.015   1.922  0.1968 -0.2224 -0.1486
    1SOL    HW2 5254   2.884   2.096   1.951  2.8532 -1.0109 -1.5969
    1SOL    HW3 5255   2.748   2.033   1.929  0.7218  2.8522 -0.1147
    1SOL    MW4 5256   2.835   2.028   1.927  0.6166  0.0792 -0.3352
    1SOL     OW 5257   3.779   4.180   1.337  0.2649 -0.4086  0.2392
    1SOL    HW2 5258   3.850   4.130   1.377  0.8563  1.2797  1.3498
    1SOL    HW3 5259   3.720   4.201   1.409  1.3949  2.7357  0.3500
    1SOL    MW4 5260   3.781   4.176   1.352  0.4921  0.2289  0.4003
    1SOL     OW 5261   0.851   3.480   4.032 -0.4160 -0.4316  0.4281
    1SOL    HW2 5262   0.851   3.515   3.943 -0.3712 -0.8777  0.2526
    1SOL    HW3 5263   0.943   3.479   4.058 -0.6432  2.0258  1.3977
    1SOL    MW4 5264   0.863   3.484   4.024 -0.4400 -0.1662  0.5331
    1SOL     OW 5265   0.181   3.793   3.261 -0.3167  0.1386 -0.1394
    1SOL    HW2 5266   0.092   3.763   3.279 -0.5654  0.3669 -1.0181
    1SOL    HW3 5267   0.213   3.823   3.346 -1.2837  0.6151  0.0607
    1SOL    MW4 5268   0.174   3.793   3.275 -0.4771  0.2315 -0.2286
    1SOL     OW 5269   2.366   1.277   1.272 -0.3541 -0.2489 -0.4801
    1SOL    HW2 5270   2.364   1.313   1.184 -1.8622 -1.5272 -0.9909
    1SOL    HW3 5271   2.421   1.199   1.265  0.3246  0.1816 -0.0603
    1SOL    MW4 5272   2.373   1.272   1.260 -0.4637 -0.3608 -0.4920
    1SOL     OW 5273   4.411   3.443   1.683 -0.1303  0.4741 -0.5097
    1SOL    HW2 5274   4.421   3.374   1.749  0.0488 -0.5655 -1.6126
    1SOL    HW3 5275   4.455   3.519   1.722 -1.4203  0.3716  1.2585
    1SOL    MW4 5276   4.418   3.444   1.697 -0.2766  0.3233 -0.4220
    1SOL     OW 5277   1.895   2.693   2.746  0.3108  0.0196 -0.7544
    1SOL    HW2 5278   1.892   2.787   2.766 -0.0828  0.0258 -0.8243
    1SOL    HW3 5279   1.808   2.661   2.770  0.9331 -0.6245  0.6565
    1SOL    MW4 5280   1.883   2.701   2.752  0.3409 -0.0646 -0.5777
    1SOL     OW 5281   1.299   2.098   3.516  0.2144 -0.5619  0.6554
    1SOL    HW2 5282   1.204   2.102   3.520  0.2172 -0.2772  0.4827
    1SOL    HW3 5283   1.329   2.183   3.550  0.3448  0.1321 -1.0819
    1SOL    MW4 5284   1.291   2.110   3.521  0.2319 -0.4330  0.4036
    1SOL     OW 5285   2.336   0.282   2.212 -0.1330 -0.3240 -0.2743
    1SOL    HW2 5286   2.373   0.347   2.272 -1.4745  1.1473 -0.9947
    1SOL    HW3 5287   2.384   0.201   2.232  1.9735  1.0052  0.2374
    1SOL    MW4 5288   2.347   0.280   2.223 -0.0317  0.0455 -0.3014
    1SOL     OW 5289   4.158   3.647   0.949 -0.0309 -0.1208 -0.0984
    1SOL    HW2 5290   4.117   3.638   0.863  1.6351  0.6194 -0.9859
    1SOL    HW3 5291   4.138   3.737   0.976  0.5843  0.0788 -0.3082
    1SOL    MW4 5292   4.150   3.658   0.942  0.2699  0.0033 -0.2432
    1SOL     OW 5293   4.288   3.465   4.070  0.0056 -0.1317 -0.2204
    1SOL    HW2 5294   4.229   3.533   4.103 -0.4274 -1.4017  1.6722
    1SOL    HW3 5295   4.246   3.383   4.093  1.8529 -1.0563 -0.0692
    1SOL    MW4 5296   4.275   3.463   4.077  0.1917 -0.4213  0.0496
    1SOL     OW 5297   1.010   1.372   4.218 -0.2847  0.1940 -0.0383
    1SOL    HW2 5298   0.953   1.391   4.292 -1.2217  1.8250 -1.1605
    1SOL    HW3 5299   1.097   1.361   4.257 -0.3947  3.0076  1.0963
    1SOL    MW4 5300   1.014   1.373   4.233 -0.4230  0.7806 -0.0367
    1SOL     OW 5301   0.822   1.544   0.467 -0.3351  0.3422  0.1131
    1SOL    HW2 5302   0.755   1.493   0.422 -0.2581 -0.3930  0.8314
    1SOL    HW3 5303   0.793   1.548   0.558  1.0718 -0.7904  0.6344
    1SOL    MW4 5304   0.809   1.538   0.473 -0.1393  0.0957  0.2766
    1SOL     OW 5305   2.435   2.874   3.690 -0.3221 -0.2792  0.0962
    1SOL    HW2 5306   2.408   2.959   3.653  0.9033  0.1415  0.1525
    1SOL    HW3 5307   2.371   2.812   3.656 -1.1910  0.6581 -0.0072
    1SOL    MW4 5308   2.423   2.877   3.680 -0.2749 -0.0999  0.0899
    1SOL     OW 5309   3.614   1.264   4.513  0.0666 -0.3333  0.4166
    1SOL    HW2 5310   3.588   1.321   4.440  0.1983 -0.8372 -0.0247
    1SOL    HW3 5311   3.579   1.178   4.489  0.6696 -0.6384  0.6414
    1SOL    MW4 5312   3.606   1.260   4.500  0.1636 -0.4401  0.3877
    1SOL     OW 5313   2.827   2.445   2.195 -0.3640  0.4440  0.1628
    1SOL    HW2 5314   2.751   2.500   2.174  1.3501  1.9549 -2.4018
    1SOL    HW3 5315   2.826   2.376   2.128 -1.2404 -1.4002  2.0383
    1SOL    MW4 5316   2.817   2.443   2.183 -0.2537  0.4001  0.0720
    1SOL     OW 5317   1.449   1.959   3.703 -0.3096 -0.6660 -0.3831
    1SOL    HW2 5318   1.490   1.894   3.646  0.8602 -1.6130  1.5194
    1SOL    HW3 5319   1.412   2.023   3.642  2.3405 -0.7674 -2.2142
    1SOL    MW4 5320   1.450   1.959   3.687  0.1943 -0.8043 -0.3736
    1SOL     OW 5321   0.953   3.174   2.667 -0.2706 -0.2895  0.3770
    1SOL    HW2 5322   1.043   3.175   2.635 -0.4883 -0.1682 -0.2411
    1SOL    HW3 5323   0.939   3.263   2.700 -0.0828 -0.3801  0.6986
    1SOL    MW4 5324   0.963   3.186   2.667 -0.2745 -0.2856  0.3376
    1SOL     OW 5325   2.777   2.066   3.358  0.1320 -0.1115  0.0317
    1SOL    HW2 5326   2.806   2.015   3.282  2.1918 -1.1038  1.4440
    1SOL    HW3 5327   2.770   2.002   3.429  0.5634  1.1974  1.2834
    1SOL    MW4 5328   2.780   2.051   3.357  0.4606 -0.0696  0.3831
    1SOL     OW 5329   2.352   1.766   3.542  0.1586  0.3307 -0.2232
    1SOL    HW2 5330   2.310   1.728   3.620 -0.5033 -2.9440 -2.0936
    1SOL    HW3 5331   2.446   1.748   3.555  0.4210  2.5365  1.2222
    1SOL    MW4 5332   2.359   1.759   3.554  0.1056  0.1895 -0.2792
    1SOL     OW 5333   1.598   3.550   1.721  0.2561 -0.3404 -0.8134
    1SOL    HW2 5334   1.609   3.556   1.626  0.6328 -2.6632 -0.9432
    1SOL    HW3 5335   1.515   3.504   1.733  1.3903 -2.2532 -0.0810
    1SOL    MW4 5336   1.589   3.545   1.710  0.4555 -0.8993 -0.7340
    1SOL     OW 5337   4.223   3.621   1.549 -0.4841 -0.8583 -0.5114
    1SOL    HW2 5338   4.288   3.555   1.575  1.2641  0.9894 -0.1142
    1SOL    HW3 5339   4.140   3.572   1.546  0.4313 -2.6724  1.6457
    1SOL    MW4 5340   4.220   3.606   1.552 -0.1335 -0.8538 -0.1744
    1SOL     OW 5341   0.954   1.111   1.931  0.5191 -0.2283 -0.7362
    1SOL    HW2 5342   0.922   1.114   1.841 -0.8418 -1.0490 -0.3025
    1SOL    HW3 5343   0.911   1.184   1.975 -1.6854 -1.9658  0.1125
    1SOL    MW4 5344   0.944   1.121   1.925  0.0488 -0.5659 -0.5670
    1SOL     OW 5345   0.256   3.921   3.482 -0.1250  0.7605  0.2943
    1SOL    HW2 5346   0.257   4.012   3.452  1.0921  0.5352 -0.3581
    1SOL    HW3 5347   0.316   3.920   3.556 -0.7309  0.6390  0.7942
    1SOL    MW4 5348   0.264   3.933   3.488 -0.0444  0.7148  0.2742
    1SOL     OW 5349   3.480   3.023   3.429  0.4257  0.5806 -0.1020
    1SOL    HW2 5350   3.428   2.968   3.370  1.6319  0.3746 -0.9805
    1SOL    HW3 5351   3.471   2.980   3.515 -1.3079  0.8639 -0.1153
    1SOL    MW4 5352   3.472   3.010   3.433  0.3562  0.5908 -0.2198
    1SOL     OW 5353   4.083   1.197   0.795 -0.3448  0.3419  0.1973
    1SOL    HW2 5354   4.019   1.226   0.730 -0.0157  0.3240 -0.1313
    1SOL    HW3 5355   4.030   1.179   0.873 -0.6992  0.6853  0.0410
    1SOL    MW4 5356   4.068   1.199   0.797 -0.3481  0.3848  0.1333
    1SOL     OW 5357   4.277   4.479   4.227  0.5068 -0.2046 -0.0863
    1SOL    HW2 5358   4.250   4.394   4.263 -1.0364  0.0615 -0.5377
    1SOL    HW3 5359   4.356   4.502   4.275  0.5331 -1.5605  0.5535
    1SOL    MW4 5360   4.284   4.471   4.238  0.3066 -0.3486 -0.0610
    1SOL     OW 5361   4.105   1.719   3.351  0.1079 -0.6308 -0.1666
    1SOL    HW2 5362   4.139   1.634   3.320 -0.4992 -1.0000  0.1843
    1SOL    HW3 5363   4.133   1.724   3.442  1.8034  0.4125 -0.7191
    1SOL    MW4 5364   4.113   1.708   3.359  0.2518 -0.5419 -0.1931
    1SOL     OW 5365   4.476   0.583   2.313 -0.1354 -0.1427 -0.0660
    1SOL    HW2 5366   4.443   0.551   2.396  1.0154  0.0060  0.4623
    1SOL    HW3 5367   4.529   0.511   2.278  0.9556  0.4900  0.2548
    1SOL    MW4 5368   4.479   0.569   2.319  0.1602 -0.0396  0.0463
    1SOL     OW 5369   0.457   0.987   1.179  0.3424 -0.1846  0.1908
    1SOL    HW2 5370   0.498   0.913   1.134 -1.8296 -0.1226 -2.0300
    1SOL    HW3 5371   0.404   0.947   1.248  0.1300 -0.6493 -0.2309
    1SOL    MW4 5372   0.455   0.972   1.182  0.0278 -0.2378 -0.1578
    1SOL     OW 5373   1.347   1.601   3.438 -0.5457  0.1374  0.5024
    1SOL    HW2 5374   1.360   1.689   3.401  0.5850  0.2965  1.2377
    1SOL    HW3 5375   1.308   1.550   3.366  1.2666  0.5388 -0.8022
    1SOL    MW4 5376   1.344   1.606   3.423 -0.1575  0.2114  0.4270
    1SOL     OW 5377   1.255   3.210   3.554 -0.6026  0.5943  0.2310
    1SOL    HW2 5378   1.218   3.122   3.562  0.1154  0.1703 -0.8826
    1SOL    HW3 5379   1.181   3.269   3.566 -1.4368 -0.2079 -0.8609
    1SOL    MW4 5380   1.241   3.206   3.556 -0.6179  0.4325 -0.0598
    1SOL     OW 5381   0.472   1.407   2.571 -0.1546 -0.6152  0.0675
    1SOL    HW2 5382   0.485   1.417   2.477 -1.9734 -0.5888 -0.1980
    1SOL    HW3 5383   0.415   1.330   2.579 -0.3081 -0.3993  1.1286
    1SOL    MW4 5384   0.467   1.398   2.560 -0.4148 -0.5832  0.1724
    1SOL     OW 5385   0.000   4.101   1.373  0.3685 -0.1351 -0.0193
    1SOL    HW2 5386   0.007   4.011   1.407 -0.3123  0.5961  2.1270
    1SOL    HW3 5387  -0.081   4.135   1.411  0.2125  1.1529 -1.4426
    1SOL    MW4 5388  -0.010   4.093   1.382  0.2584  0.1307  0.0763
    1SOL     OW 5389   0.916   1.597   1.457 -0.3944  0.5093 -0.2285
    1SOL    HW2 5390   0.932   1.687   1.427  0.0388  0.8023  0.8760
    1SOL    HW3 5391   0.987   1.546   1.416 -0.1474  0.8087 -0.1744
    1SOL    MW4 5392   0.928   1.602   1.447 -0.3046  0.5875 -0.0756
    1SOL     OW 5393   2.646   3.152   0.758 -0.1477  0.2693 -0.6415
    1SOL    HW2 5394   2.600   3.086   0.706 -0.2586 -0.6472  0.6049
    1SOL    HW3 5395   2.713   3.103   0.805 -2.0029  0.5682  2.4153
    1SOL    MW4 5396   2.649   3.137   0.757 -0.4075  0.1881 -0.0738
    1SOL     OW 5397   3.520   1.550   0.585 -0.0340 -0.0998 -0.2221
    1SOL    HW2 5398   3.454   1.617   0.568  0.3260 -0.0908 -1.5982
    1SOL    HW3 5399   3.481   1.495   0.653 -0.6537  1.0389  0.3622
    1SOL    MW4 5400   3.506   1.551   0.592 -0.0682  0.0516 -0.3266
    1SOL     OW 5401   4.453   3.850   1.937  0.0177 -0.1956 -0.4006
    1SOL    HW2 5402   4.376   3.902   1.915  0.1335  0.6310  1.0821
    1SOL    HW3 5403   4.492   3.895   2.011  1.3430 -1.2034 -0.4606
    1SOL    MW4 5404   4.448   3.863   1.944  0.2084 -0.2196 -0.2129
    1SOL     OW 5405   3.654   3.819   3.298 -0.0110  0.0832  0.5774
    1SOL    HW2 5406   3.678   3.731   3.270  0.7699  0.0885  1.2224
    1SOL    HW3 5407   3.615   3.859   3.220  3.3122  0.5324 -0.9079
    1SOL    MW4 5408   3.652   3.813   3.284  0.5305  0.1433  0.4663
    1SOL     OW 5409   0.633   3.829   2.506 -0.3368 -0.0068 -0.5416
    1SOL    HW2 5410   0.570   3.869   2.565 -0.6514 -2.7913  1.0872
    1SOL    HW3 5411   0.580   3.791   2.435 -0.2630  0.1096 -0.6598
    1SOL    MW4 5412   0.618   3.829   2.504 -0.3685 -0.3588 -0.3424
    1SOL     OW 5413   0.186   2.163   4.000  0.0389  0.0970 -0.3512
    1SOL    HW2 5414   0.265   2.217   3.992 -0.9322  1.6463  0.1530
    1SOL    HW3 5415   0.115   2.227   4.004 -0.9710 -1.1294  2.6086
    1SOL    MW4 5416   0.187   2.179   4.000 -0.2225  0.1395  0.1059
    1SOL     OW 5417   3.406   4.382   1.772  0.0939  0.1499 -0.1795
    1SOL    HW2 5418   3.499   4.398   1.759  0.0933  0.9008  0.7204
    1SOL    HW3 5419   3.368   4.468   1.786 -0.6966 -0.1806 -0.2298
    1SOL    MW4 5420   3.413   4.395   1.772 -0.0105  0.2055 -0.0675
    1SOL     OW 5421   2.817   2.235   2.729 -0.3688  0.0882 -0.1643
    1SOL    HW2 5422   2.725   2.217   2.747  0.1878 -0.6799  2.0530
    1SOL    HW3 5423   2.816   2.289   2.650 -2.8140  1.5222  0.7949
    1SOL    MW4 5424   2.805   2.239   2.721 -0.6182  0.1760  0.2546
    1SOL     OW 5425   3.352   2.070   0.947 -0.1761  0.3725 -0.3309
    1SOL    HW2 5426   3.297   2.145   0.927 -0.3320  0.5490  0.6964
    1SOL    HW3 5427   3.436   2.107   0.974  0.2051  0.1289 -1.1697
    1SOL    MW4 5428   3.356   2.085   0.948 -0.1464  0.3636 -0.3060
    1SOL     OW 5429   3.704   1.483   3.746  0.1033  0.1594  0.3528
    1SOL    HW2 5430   3.641   1.437   3.689  1.4020 -0.0078 -0.9629
    1SOL    HW3 5431   3.778   1.503   3.689  0.3528  2.2505  1.3819
    1SOL    MW4 5432   3.705   1.479   3.731  0.3076  0.4133  0.3150
    1SOL     OW 5433   3.479   1.381   3.580  0.0382 -0.8171  0.7761
    1SOL    HW2 5434   3.422   1.353   3.652  0.7827 -2.1848  0.8524
    1SOL    HW3 5435   3.423   1.378   3.502 -0.9620  1.3340  1.3636
    1SOL    MW4 5436   3.464   1.377   3.579  0.0045 -0.7137  0.8638
    1SOL     OW 5437   0.296   0.507   2.049 -0.1554  0.2172  0.3250
    1SOL    HW2 5438   0.236   0.558   1.995  0.7053  1.2259  0.3326
    1SOL    HW3 5439   0.361   0.472   1.988  0.2405  0.5313  0.5666
    1SOL    MW4 5440   0.297   0.509   2.034  0.0103  0.3917  0.3579
    1SOL     OW 5441   1.129   0.751   1.329 -0.3747  0.0931 -0.1315
    1SOL    HW2 5442   1.087   0.735   1.245 -0.9139 -0.5419  0.2476
    1SOL    HW3 5443   1.079   0.697   1.391 -0.4890  1.1640  0.7245
    1SOL    MW4 5444   1.117   0.742   1.326 -0.4611  0.1507  0.0315
    1SOL     OW 5445   1.980   1.078   1.098  0.2140  0.5105 -0.5812
    1SOL    HW2 5446   2.031   1.102   1.175  0.4313 -0.3349 -0.4592
    1SOL    HW3 5447   2.023   1.124   1.025  3.1239 -2.6946 -0.9878
    1SOL    MW4 5448   1.993   1.087   1.098  0.6266 -0.0238 -0.6187
    1SOL     OW 5449   2.510   0.304   2.003 -0.8145 -0.5940 -0.4685
    1SOL    HW2 5450   2.438   0.298   2.066 -0.6473  0.5338 -0.1461
    1SOL    HW3 5451   2.588   0.280   2.053 -0.9259 -1.4689 -0.7227
    1SOL    MW4 5452   2.510   0.300   2.018 -0.8073 -0.5606 -0.4592
    1SOL     OW 5453   2.071   4.106   0.718  0.0180  0.3625 -0.3575
    1SOL    HW2 5454   2.126   4.047   0.770 -1.3411  1.1914  2.0961
    1SOL    HW3 5455   2.113   4.191   0.727 -0.7865  0.7029  0.2775
    1SOL    MW4 5456   2.084   4.109   0.726 -0.2675  0.5174  0.0501
    1SOL     OW 5457   2.511   1.203   1.814 -0.2182  1.1420  0.2641
    1SOL    HW2 5458   2.505   1.152   1.733 -1.8036 -0.3542  1.2849
    1SOL    HW3 5459   2.586   1.261   1.800  0.5534 -0.2388 -1.6313
    1SOL    MW4 5460   2.520   1.204   1.801 -0.3259  0.7625  0.1489
    1SOL     OW 5461   2.891   1.674   3.177 -0.6162  0.2564 -0.3431
    1SOL    HW2 5462   2.907   1.623   3.097 -1.1083 -0.4793  0.0208
    1SOL    HW3 5463   2.863   1.760   3.145  0.5064  0.3975 -0.9658
    1SOL    MW4 5464   2.889   1.679   3.162 -0.5331  0.1780 -0.3774
    1SOL     OW 5465   0.752   2.087   3.372  0.3510 -0.6080  0.5953
    1SOL    HW2 5466   0.683   2.120   3.429 -0.3141  0.6145 -0.8774
    1SOL    HW3 5467   0.712   2.013   3.326  0.5639 -0.9443  0.9413
    1SOL    MW4 5468   0.738   2.081   3.373  0.2913 -0.4911  0.4470
    1SOL     OW 5469   0.924   2.804   1.321  0.8506 -0.5311  0.1173
    1SOL    HW2 5470   0.954   2.799   1.412 -1.0851 -0.3470  0.7852
    1SOL    HW3 5471   0.967   2.882   1.286 -1.2106  1.5301  1.9786
    1SOL    MW4 5472   0.934   2.813   1.329  0.3233 -0.2348  0.4511
    1SOL     OW 5473   3.532   1.412   2.792  0.1584  0.2791 -0.6830
    1SOL    HW2 5474   3.516   1.507   2.785 -0.3351  0.2113 -0.5268
    1SOL    HW3 5475   3.470   1.383   2.858  1.6049  0.1592  0.6520
    1SOL    MW4 5476   3.522   1.421   2.800  0.2840  0.2543 -0.4866
    1SOL     OW 5477   0.270   0.967   1.387  0.1515 -0.0975 -0.2306
    1SOL    HW2 5478   0.271   0.887   1.440 -0.0096  0.4736  0.6437
    1SOL    HW3 5479   0.318   1.031   1.439 -0.5101  0.6409 -0.5096
    1SOL    MW4 5480   0.276   0.965   1.401  0.0429  0.0753 -0.1521
    1SOL     OW 5481   3.737   0.244   1.622 -0.1659  0.0417 -0.2894
    1SOL    HW2 5482   3.770   0.187   1.552 -1.5318 -1.0010 -0.1058
    1SOL    HW3 5483   3.751   0.333   1.588  2.0128 -0.3772 -0.5615
    1SOL    MW4 5484   3.743   0.248   1.608 -0.0587 -0.1511 -0.3011
    1SOL     OW 5485   4.158   0.176   3.330 -0.8810  0.5816  0.0827
    1SOL    HW2 5486   4.210   0.213   3.258 -2.0496  1.5283 -0.2954
    1SOL    HW3 5487   4.075   0.224   3.327 -1.2930 -0.0079  1.4938
    1SOL    MW4 5488   4.154   0.187   3.320 -1.0896  0.6288  0.2191
    1SOL     OW 5489   0.129   3.946   2.550 -0.0157 -0.5250  0.3735
    1SOL    HW2 5490   0.093   3.869   2.505 -0.9107  0.1630 -0.1079
    1SOL    HW3 5491   0.168   3.998   2.480 -0.0433 -0.1957  0.6031
    1SOL    MW4 5492   0.130   3.943   2.535 -0.1374 -0.3908  0.3402
    1SOL     OW 5493   3.466   0.315   1.225 -0.3279  0.4393 -0.1920
    1SOL    HW2 5494   3.562   0.315   1.226 -0.3131 -0.8772 -0.3398
    1SOL    HW3 5495   3.441   0.320   1.317 -0.1043 -0.1782 -0.0939
    1SOL    MW4 5496   3.475   0.316   1.237 -0.2966  0.1841 -0.1986
    1SOL     OW 5497   1.233   1.124   2.293 -0.4087  0.1988 -0.2869
    1SOL    HW2 5498   1.289   1.150   2.365  0.2130 -1.2917 -0.2174
    1SOL    HW3 5499   1.293   1.106   2.221 -0.6248 -2.7764  0.1985
    1SOL    MW4 5500   1.248   1.125   2.293 -0.3552 -0.3904 -0.2139
    1SOL     OW 5501   4.463   3.843   1.468  0.3805  0.0844  0.0176
    1SOL    HW2 5502   4.408   3.771   1.436  0.6626 -0.6679  1.2013
    1SOL    HW3 5503   4.545   3.802   1.494  1.4174  1.1652 -1.4418
    1SOL    MW4 5504   4.466   3.828   1.468  0.5546  0.1278 -0.0187
    1SOL     OW 5505   0.402   0.522   4.394  0.7008 -0.1789  0.3991
    1SOL    HW2 5506   0.337   0.460   4.426  1.2876 -0.4666  1.0433
    1SOL    HW3 5507   0.351   0.597   4.363  0.0435 -0.5945  0.4728
    1SOL    MW4 5508   0.386   0.524   4.394  0.6914 -0.2717  0.4940
    1SOL     OW 5509   1.891   0.105   2.752 -0.1880  0.1032  0.5069
    1SOL    HW2 5510   1.826   0.175   2.761  0.0951  0.5013 -0.5088
    1SOL    HW3 5511   1.934   0.123   2.669  0.0672 -1.1336  0.3713
    1SOL    MW4 5512   1.888   0.117   2.742 -0.1168 -0.0075  0.3550
    1SOL     OW 5513   0.758   1.991   1.283  0.2940 -0.1104  0.0240
    1SOL    HW2 5514   0.842   1.956   1.314  0.0136 -1.1765 -0.4056
    1SOL    HW3 5515   0.715   2.024   1.362  0.1358 -1.6451  0.5974
    1SOL    MW4 5516   0.764   1.991   1.298  0.2362 -0.4537  0.0430
    1SOL     OW 5517   0.301   0.944   3.894  0.0396  0.2431 -0.1248
    1SOL    HW2 5518   0.323   0.910   3.807  0.3509  0.2620 -0.0552
    1SOL    HW3 5519   0.327   0.874   3.954 -1.3113 -0.2716 -0.1335
    1SOL    MW4 5520   0.308   0.930   3.890 -0.0976  0.1777 -0.1168
    1SOL     OW 5521   1.767   4.141   3.088  0.0745  0.0167  0.4983
    1SOL    HW2 5522   1.695   4.177   3.035  0.1341 -0.3123  0.1933
    1SOL    HW3 5523   1.736   4.150   3.178  0.8603  2.5416  0.5657
    1SOL    MW4 5524   1.753   4.147   3.093  0.1860  0.3066  0.4671
    1SOL     OW 5525   0.620   0.530   3.774 -0.2258 -0.2541 -0.4775
    1SOL    HW2 5526   0.597   0.460   3.713 -0.0785  0.6403 -1.5579
    1SOL    HW3 5527   0.593   0.496   3.860  0.4258 -1.8944 -0.9033
    1SOL    MW4 5528   0.613   0.516   3.777 -0.1203 -0.3525 -0.6764
    1SOL     OW 5529   3.617   4.652   3.161 -0.4054  0.1637  0.0307
    1SOL    HW2 5530   3.703   4.613   3.148 -1.1226 -1.2254 -0.6153
    1SOL    HW3 5531   3.634   4.733   3.209  1.1928 -0.4389  0.4908
    1SOL    MW4 5532   3.630   4.658   3.166 -0.2890 -0.0997  0.0062
    1SOL     OW 5533   0.538   0.359   3.309  0.3322  0.0269 -0.1313
    1SOL    HW2 5534   0.583   0.316   3.237  0.3115 -0.8929  0.3927
    1SOL    HW3 5535   0.561   0.451   3.301  3.5429 -0.6134  0.9951
    1SOL    MW4 5536   0.547   0.365   3.298  0.7532 -0.1790  0.0865
    1SOL     OW 5537   3.258   1.278   4.463 -0.4219  0.4681 -0.2154
    1SOL    HW2 5538   3.199   1.206   4.444  1.0493 -0.3682 -1.7168
    1SOL    HW3 5539   3.284   1.265   4.554 -2.4297  0.7722  0.4128
    1SOL    MW4 5540   3.254   1.267   4.472 -0.4928  0.3980 -0.3300
    1SOL     OW 5541   0.294   0.218   3.461  0.4126  0.2621  0.2290
    1SOL    HW2 5542   0.347   0.263   3.526  2.4751 -0.7040 -0.7597
    1SOL    HW3 5543   0.286   0.128   3.495 -0.2927  0.2964  0.1788
    1SOL    MW4 5544   0.300   0.212   3.474  0.5917  0.1391  0.0918
    1SOL     OW 5545   3.633   2.504   3.815 -0.1963  0.0944 -0.1784
    1SOL    HW2 5546   3.601   2.550   3.738  0.1713  0.0432 -0.3637
    1SOL    HW3 5547   3.657   2.574   3.876 -1.2723  0.1268  0.2185
    1SOL    MW4 5548   3.632   2.519   3.813 -0.2899  0.0920 -0.1507
    1SOL     OW 5549   0.311   0.755   0.924  0.2696  0.1901 -0.4674
    1SOL    HW2 5550   0.244   0.743   0.993  0.4877  1.1870 -0.0799
    1SOL    HW3 5551   0.394   0.756   0.972  0.4510  0.4821 -0.7903
    1SOL    MW4 5552   0.313   0.753   0.940  0.3223  0.3601 -0.4589
    1SOL     OW 5553   3.804   1.519   3.000  0.1751  0.1371  0.2577
    1SOL    HW2 5554   3.730   1.458   2.999 -0.3872  0.8064  1.2101
    1SOL    HW3 5555   3.823   1.533   3.092  0.7301  0.8964  0.0342
    1SOL    MW4 5556   3.797   1.512   3.012  0.1743  0.3256  0.3536
    1SOL     OW 5557   2.090   2.563   3.159 -0.3377  0.0330 -0.0694
    1SOL    HW2 5558   2.083   2.483   3.210 -1.8761  0.6972  0.7738
    1SOL    HW3 5559   2.120   2.534   3.073  2.2245 -1.0967  1.1475
    1SOL    MW4 5560   2.093   2.549   3.154 -0.2027 -0.0284  0.2024
    1SOL     OW 5561   4.370   1.822   0.922 -0.0758  0.2165  0.4072
    1SOL    HW2 5562   4.315   1.768   0.865  0.6004 -0.0646  0.0098
    1SOL    HW3 5563   4.439   1.762   0.952 -1.1309  0.0432  2.5085
    1SOL    MW4 5564   4.372   1.807   0.918 -0.1259  0.1565  0.6320
    1SOL     OW 5565   1.005   3.576   2.390 -0.3876  0.0231  0.1778
    1SOL    HW2 5566   0.943   3.649   2.391 -0.2686  0.1660 -1.8650
    1SOL    HW3 5567   0.950   3.498   2.404 -0.7540  0.3200  0.4058
    1SOL    MW4 5568   0.990   3.575   2.392 -0.4203  0.0813 -0.0618
    1SOL     OW 5569   3.170   0.763   3.524  0.0852 -0.0327 -0.5479
    1SOL    HW2 5570   3.191   0.722   3.440  0.5630 -0.1308 -0.3871
    1SOL    HW3 5571   3.135   0.692   3.578 -0.7998  0.1643 -0.8685
    1SOL    MW4 5572   3.168   0.748   3.520  0.0315 -0.0196 -0.5689
    1SOL     OW 5573   2.304   1.955   3.080  0.4755 -0.0685 -0.0712
    1SOL    HW2 5574   2.337   1.870   3.111 -1.8046 -0.9477  0.0561
    1SOL    HW3 5575   2.318   2.014   3.154 -1.1968 -1.2082  1.1918
    1SOL    MW4 5576   2.310   1.952   3.094 -0.0460 -0.3347  0.1123
    1SOL     OW 5577   2.476   3.744   3.877  0.2321  0.2111 -0.2148
    1SOL    HW2 5578   2.561   3.775   3.910 -0.1113  1.4443 -0.4920
    1SOL    HW3 5579   2.411   3.791   3.928 -0.3129 -1.4961  0.7133
    1SOL    MW4 5580   2.479   3.754   3.888  0.1149  0.1485 -0.1290
    1SOL     OW 5581   2.351   1.286   3.498 -0.6919 -0.0877  0.1594
    1SOL    HW2 5582   2.403   1.206   3.490  0.1460  0.6510 -2.4816
    1SOL    HW3 5583   2.411   1.350   3.534 -0.3423  0.2371 -0.9839
    1SOL    MW4 5584   2.365   1.284   3.501 -0.5350  0.0527 -0.3405
    1SOL     OW 5585   4.471   2.071   0.791 -0.1782  0.3587  0.4834
    1SOL    HW2 5586   4.423   2.015   0.852  0.9330  1.3481  2.3203
    1SOL    HW3 5587   4.449   2.161   0.818 -0.0566  0.8180 -0.8994
    1SOL    MW4 5588   4.462   2.076   0.802 -0.0157  0.5498  0.5433
    1SOL     OW 5589   3.843   3.258   4.292 -0.4143  0.1463 -0.4582
    1SOL    HW2 5590   3.757   3.234   4.259 -1.1609  0.7239  1.0051
    1SOL    HW3 5591   3.853   3.206   4.372  1.0317 -0.6791 -1.1482
    1SOL    MW4 5592   3.833   3.248   4.298 -0.3219  0.1137 -0.3562
    1SOL     OW 5593   1.398   2.608   4.409  0.2975  0.0193 -0.5568
    1SOL    HW2 5594   1.487   2.580   4.387  0.0757 -0.9862 -0.1559
    1SOL    HW3 5595   1.387   2.583   4.500 -0.0973  0.9237 -0.3495
    1SOL    MW4 5596   1.408   2.601   4.418  0.2162  0.0060 -0.4764
    1SOL     OW 5597   0.265   2.013   1.290  0.0753  0.1198 -0.1657
    1SOL    HW2 5598   0.206   2.089   1.290 -0.6260 -0.4134  0.7152
    1SOL    HW3 5599   0.235   1.959   1.363 -0.3513 -1.7166 -1.6427
    1SOL    MW4 5600   0.253   2.016   1.299 -0.0735 -0.1931 -0.2444
    1SOL     OW 5601   3.681   0.854   2.154  0.7039 -0.5919 -0.3131
    1SOL    HW2 5602   3.695   0.941   2.118 -1.0177 -0.9754 -1.9633
    1SOL    HW3 5603   3.756   0.841   2.213  0.6301  2.2458  0.4965
    1SOL    MW4 5604   3.693   0.864   2.157  0.4668 -0.2682 -0.4241
    1SOL     OW 5605   4.191   0.524   4.051  0.1429  0.0476 -0.2462
    1SOL    HW2 5606   4.134   0.448   4.064  0.2629 -0.0983 -0.5793
    1SOL    HW3 5607   4.132   0.599   4.060 -0.1507 -0.1077 -0.8332
    1SOL    MW4 5608   4.176   0.524   4.054  0.1202  0.0079 -0.3676
    1SOL     OW 5609   3.697   3.555   0.574  0.1611  0.6087 -0.3772
    1SOL    HW2 5610   3.652   3.633   0.540 -2.1353 -0.7049 -0.4659
    1SOL    HW3 5611   3.706   3.571   0.668 -0.9304  0.6946 -0.2822
    1SOL    MW4 5612   3.692   3.568   0.582 -0.2859  0.4466 -0.3764
    1SOL     OW 5613   4.151   1.437   3.265  0.2776 -0.0279  0.2961
    1SOL    HW2 5614   4.099   1.358   3.278  1.1879 -0.5537  0.8038
    1SOL    HW3 5615   4.236   1.417   3.306  0.5200  1.1988  0.4176
    1SOL    MW4 5616   4.156   1.424   3.272  0.4296  0.0645  0.3791
    1SOL     OW 5617   2.078   0.602   2.148 -0.3367  0.4499  0.0487
    1SOL    HW2 5618   2.075   0.630   2.240 -0.1835 -0.0113  0.1965
    1SOL    HW3 5619   2.002   0.643   2.108  0.5926  2.1426 -0.0366
    1SOL    MW4 5620   2.068   0.611   2.155 -0.1936  0.6123  0.0565
    1SOL     OW 5621   4.413   1.304   1.123  0.2818  0.2453  0.2742
    1SOL    HW2 5622   4.426   1.381   1.179 -0.5434 -0.3186  1.2472
    1SOL    HW3 5623   4.465   1.235   1.164  1.2884  0.3390 -0.7804
    1SOL    MW4 5624   4.422   1.305   1.135  0.3052  0.1832  0.2633
    1SOL     OW 5625   0.900   3.273   4.348 -0.1519 -0.4955 -0.0499
    1SOL    HW2 5626   0.982   3.256   4.395 -0.6559 -1.6887  0.4045
    1SOL    HW3 5627   0.897   3.369   4.339  0.8405 -0.3824  0.7310
    1SOL    MW4 5628   0.911   3.284   4.353 -0.0874 -0.6380  0.1130
    1SOL     OW 5629   0.065   2.194   1.389  0.0540 -0.4829 -0.0381
    1SOL    HW2 5630   0.030   2.238   1.311 -1.4555 -0.8368  0.4235
    1SOL    HW3 5631   0.113   2.262   1.436 -0.7845  0.2453 -0.2310
    1SOL    MW4 5632   0.067   2.209   1.385 -0.2558 -0.4334 -0.0026
    1SOL     OW 5633   1.205   4.300   4.121  0.2426 -0.5043  0.2121
    1SOL    HW2 5634   1.232   4.219   4.165 -0.0370 -0.8132 -0.1806
    1SOL    HW3 5635   1.112   4.286   4.100  0.7365 -0.9441 -1.7585
    1SOL    MW4 5636   1.196   4.288   4.124  0.2710 -0.6032 -0.1001
    1SOL     OW 5637   1.863   2.919   0.583  0.1750  0.1393 -0.3448
    1SOL    HW2 5638   1.913   3.000   0.583 -0.9882  0.9353  2.1990
    1SOL    HW3 5639   1.925   2.853   0.614  0.3600  0.6357  0.3687
    1SOL    MW4 5640   1.878   2.921   0.587  0.0459  0.3099  0.0850
    1SOL     OW 5641   2.255   1.930   0.884  0.0709  0.2089 -0.0016
    1SOL    HW2 5642   2.233   1.841   0.914  1.2166 -0.6327 -1.6091
    1SOL    HW3 5643   2.201   1.987   0.939  0.7612 -1.3667  2.4313
    1SOL    MW4 5644   2.245   1.926   0.895  0.3130 -0.1098  0.1073
    1SOL     OW 5645   3.622   3.803   1.411  0.5773 -0.3145  0.2201
    1SOL    HW2 5646   3.673   3.802   1.493  1.1129 -1.5399 -0.1138
    1SOL    HW3 5647   3.682   3.840   1.347 -0.7618  3.2781  0.9240
    1SOL    MW4 5648   3.637   3.808   1.414  0.4711 -0.0024  0.2691
    1SOL     OW 5649   2.591   2.913   2.932  0.0291 -0.1229 -0.5977
    1SOL    HW2 5650   2.524   2.953   2.987 -1.2023 -1.0789 -1.3895
    1SOL    HW3 5651   2.543   2.858   2.870  1.6134 -2.8120  0.4285
    1SOL    MW4 5652   2.576   2.911   2.931  0.0756 -0.6039 -0.5667
    1SOL     OW 5653   1.537   4.289   2.237 -0.1042  0.2272  0.0018
    1SOL    HW2 5654   1.543   4.303   2.331  0.6787  1.7954 -0.2678
    1SOL    HW3 5655   1.608   4.228   2.217 -0.5392 -0.4436  0.4846
    1SOL    MW4 5656   1.547   4.283   2.247 -0.0583  0.3457  0.0298
    1SOL     OW 5657   1.501   4.533   0.439  0.0511 -0.2904  0.6788
    1SOL    HW2 5658   1.426   4.509   0.494 -0.4994  2.0065  0.9705
    1SOL    HW3 5659   1.462   4.558   0.356  0.7096 -1.5123 -0.0099
    1SOL    MW4 5660   1.486   4.533   0.435  0.0653 -0.1478  0.6264
    1SOL     OW 5661   3.860   0.448   4.200  0.1704 -0.6117  0.3853
    1SOL    HW2 5662   3.793   0.417   4.260  0.1163  0.1233  0.7137
    1SOL    HW3 5663   3.819   0.520   4.152  0.7683 -0.0463  0.7081
    1SOL    MW4 5664   3.846   0.453   4.201  0.2422 -0.4401  0.4716
    1SOL     OW 5665   3.262   0.188   0.946  0.3664  0.4513  0.4104
    1SOL    HW2 5666   3.347   0.155   0.974  0.3664  1.1123  1.2229
    1SOL    HW3 5667   3.251   0.270   0.995  0.1847  1.4401 -1.2408
    1SOL    MW4 5668   3.271   0.194   0.956  0.3424  0.6690  0.2998
    1SOL     OW 5669   1.658   4.082   3.370  0.3550 -0.2847 -0.0409
    1SOL    HW2 5670   1.569   4.062   3.400  1.0345 -0.1703  2.1385
    1SOL    HW3 5671   1.714   4.022   3.419  1.7211  1.5694  0.7392
    1SOL    MW4 5672   1.654   4.071   3.380  0.6249 -0.0243  0.3498
    1SOL     OW 5673   0.287   4.159   3.983  0.9955 -0.1709  0.9073
    1SOL    HW2 5674   0.290   4.243   4.028 -1.2414 -0.5925  1.9132
    1SOL    HW3 5675   0.206   4.162   3.932  0.8134 -1.7540  1.0710
    1SOL    MW4 5676   0.277   4.170   3.982  0.6763 -0.4354  1.0617
    1SOL     OW 5677   0.490   2.589   3.687 -0.0740 -0.1453  0.0304
    1SOL    HW2 5678   0.417   2.622   3.633 -0.2787  0.1688  0.4941
    1SOL    HW3 5679   0.511   2.662   3.745  0.3995 -0.3507  0.1179
    1SOL    MW4 5680   0.483   2.603   3.687 -0.0385 -0.1309  0.1032
    1SOL     OW 5681   1.431   4.185   1.990 -0.3557 -0.1494  0.9578
    1SOL    HW2 5682   1.514   4.161   1.949 -0.7564  0.9177 -0.4775
    1SOL    HW3 5683   1.456   4.224   2.074  0.5123 -1.1264  1.1681
    1SOL    MW4 5684   1.445   4.187   1.996 -0.2940 -0.1373  0.7962
    1SOL     OW 5685   0.609   3.888   3.079  0.2435 -0.2340 -0.3113
    1SOL    HW2 5686   0.620   3.801   3.119 -1.5326 -0.7848 -0.9586
    1SOL    HW3 5687   0.514   3.899   3.072  0.4319  2.2732  0.8297
    1SOL    MW4 5688   0.598   3.878   3.083  0.0340  0.0241 -0.2465
    1SOL     OW 5689   0.145   0.011   1.996  0.2805 -0.0486  0.1260
    1SOL    HW2 5690   0.145  -0.045   2.073  1.8075 -0.6103 -0.2786
    1SOL    HW3 5691   0.144  -0.050   1.922 -0.4601  0.4831 -0.3159
    1SOL    MW4 5692   0.145  -0.005   1.996  0.3843 -0.0525  0.0142
    1SOL     OW 5693   0.395   1.409   3.056  0.6019  0.1785 -0.4634
    1SOL    HW2 5694   0.381   1.492   3.011 -0.2536 -0.0880 -0.7022
    1SOL    HW3 5695   0.461   1.364   3.003  0.4899  0.3804 -0.7793
    1SOL    MW4 5696   0.402   1.414   3.043  0.4743  0.1700 -0.5369
    1SOL     OW 5697   1.675   4.488   3.401 -0.6508  0.5801 -0.0113
    1SOL    HW2 5698   1.753   4.456   3.355 -0.4452  0.9087  0.1037
    1SOL    HW3 5699   1.627   4.409   3.424 -0.0383  0.3406  0.4574
    1SOL    MW4 5700   1.679   4.473   3.398 -0.5429  0.5918  0.0658
    1SOL     OW 5701   2.996   4.325   3.830  0.0455  0.3608  0.3089
    1SOL    HW2 5702   3.079   4.371   3.844  0.1291 -0.1442  1.5985
    1SOL    HW3 5703   2.999   4.252   3.892 -1.3721  0.3422  0.3732
    1SOL    MW4 5704   3.007   4.321   3.840 -0.1307  0.2918  0.4876
    1SOL     OW 5705   0.234   4.184   3.388 -0.6081 -0.1906 -0.2333
    1SOL    HW2 5706   0.274   4.188   3.301  1.0048  0.2815  0.5186
    1SOL    HW3 5707   0.301   4.217   3.447 -1.4206 -1.2361  1.3045
    1SOL    MW4 5708   0.248   4.189   3.384 -0.5025 -0.2666  0.0689
    1SOL     OW 5709   2.840   2.935   0.504 -0.3447 -0.0686  0.0145
    1SOL    HW2 5710   2.801   2.979   0.428 -0.1648  0.0657 -0.0007
    1SOL    HW3 5711   2.905   2.997   0.536 -0.3114 -0.1925  0.1837
    1SOL    MW4 5712   2.843   2.949   0.498 -0.3166 -0.0672  0.0348
    1SOL     OW 5713   3.955   0.516   0.684  0.4916  0.3938  0.3390
    1SOL    HW2 5714   3.927   0.583   0.746 -0.3272 -0.1162  0.5296
    1SOL    HW3 5715   3.887   0.515   0.617  0.8865  0.2779 -0.0673
    1SOL    MW4 5716   3.943   0.525   0.684  0.4356  0.3112  0.3105
    1SOL     OW 5717   2.789   3.066   3.316  0.4364 -0.6526  0.3213
    1SOL    HW2 5718   2.838   3.081   3.236 -2.0031  0.7957 -0.9739
    1SOL    HW3 5719   2.721   3.002   3.292 -1.0817  0.7100  0.8764
    1SOL    MW4 5720   2.786   3.059   3.302 -0.0856 -0.2818  0.2236
    1SOL     OW 5721   3.600   4.424   3.599 -0.3682  0.3931 -0.5788
    1SOL    HW2 5722   3.634   4.375   3.525 -0.6464 -0.0976 -0.3843
    1SOL    HW3 5723   3.665   4.493   3.615  1.5951 -1.8000  1.1353
    1SOL    MW4 5724   3.613   4.427   3.591 -0.1459  0.0391 -0.3271
    1SOL     OW 5725   2.283   2.966   0.879 -0.2985 -0.5371 -0.7597
    1SOL    HW2 5726   2.340   2.960   0.802  0.1547  0.6260 -0.5238
    1SOL    HW3 5727   2.197   2.989   0.844  0.2050  1.3273 -0.8287
    1SOL    MW4 5728   2.280   2.968   0.864 -0.1719 -0.1378 -0.7377
    1SOL     OW 5729   1.211   2.543   2.836  0.4719 -0.0291 -0.5353
    1SOL    HW2 5730   1.243   2.567   2.923 -1.7033  0.9048  0.0566
    1SOL    HW3 5731   1.209   2.447   2.838  0.9279 -0.0318  0.2715
    1SOL    MW4 5732   1.215   2.533   2.848  0.2451  0.0935 -0.3510
    1SOL     OW 5733   1.209   0.272   2.904  0.6736  0.4332  0.4330
    1SOL    HW2 5734   1.165   0.219   2.970 -0.0509 -0.0515 -0.4253
    1SOL    HW3 5735   1.302   0.250   2.912  0.6128  0.5310  1.4175
    1SOL    MW4 5736   1.215   0.262   2.914  0.5699  0.3822  0.4497
    1SOL     OW 5737   0.063   2.830   3.794  0.0038  0.1978 -0.2889
    1SOL    HW2 5738   0.098   2.844   3.706 -0.0482 -0.7558 -0.4670
    1SOL    HW3 5739  -0.019   2.783   3.781  0.5137 -0.8782  0.3126
    1SOL    MW4 5740   0.057   2.826   3.781  0.0642 -0.0699 -0.2332
    1SOL     OW 5741   3.325   4.010   1.139 -0.1026  0.1685  0.3078
    1SOL    HW2 5742   3.417   4.004   1.164 -0.0860 -1.7179 -0.0932
    1SOL    HW3 5743   3.277   3.972   1.213 -0.7765  3.2791  1.5562
    1SOL    MW4 5744   3.330   4.004   1.152 -0.1893  0.3300  0.4195
    1SOL     OW 5745   1.045   3.975   0.996 -0.6177  0.0795  0.7435
    1SOL    HW2 5746   0.994   4.024   0.931  0.4295 -0.3226 -0.4081
    1SOL    HW3 5747   1.095   3.912   0.944  2.6409  1.8608  1.5928
    1SOL    MW4 5748   1.045   3.973   0.981 -0.0496  0.2613  0.7036
    1SOL     OW 5749   0.400   1.585   0.817 -0.8684  0.8389  0.1990
    1SOL    HW2 5750   0.370   1.530   0.745  0.4123  0.1055  0.2114
    1SOL    HW3 5751   0.351   1.667   0.806  0.0359  1.1267 -2.1280
    1SOL    MW4 5752   0.390   1.589   0.806 -0.5801  0.7802 -0.1063
    1SOL     OW 5753   0.771   1.875   0.649  0.3291  0.1665 -0.3100
    1SOL    HW2 5754   0.854   1.828   0.656 -0.0779 -0.8715 -2.1840
    1SOL    HW3 5755   0.708   1.818   0.693  0.4485  0.5922  0.4283
    1SOL    MW4 5756   0.774   1.861   0.656  0.2913  0.0857 -0.4598
    1SOL     OW 5757   3.526   4.192   1.516 -0.8819  0.0836 -0.0787
    1SOL    HW2 5758   3.468   4.253   1.469 -1.3506 -0.6566 -0.4709
    1SOL    HW3 5759   3.467   4.128   1.556 -0.3807 -0.2245  0.1737
    1SOL    MW4 5760   3.511   4.192   1.515 -0.8776 -0.0548 -0.0970
    1SOL     OW 5761   4.411   4.059   2.301 -0.0839 -0.2405 -0.3990
    1SOL    HW2 5762   4.334   4.001   2.302 -0.6742  0.5238 -0.6557
    1SOL    HW3 5763   4.376   4.145   2.325  0.5491  0.2906 -1.3448
    1SOL    MW4 5764   4.396   4.063   2.304 -0.0782 -0.0691 -0.5579
    1SOL     OW 5765   4.296   2.074   2.777  0.3889 -0.2738 -0.4310
    1SOL    HW2 5766   4.315   2.014   2.849  0.2518 -1.2440 -1.1904
    1SOL    HW3 5767   4.371   2.064   2.718  0.4629  0.4524 -0.4628
    1SOL    MW4 5768   4.309   2.065   2.779  0.3805 -0.3059 -0.5355
    1SOL     OW 5769   1.298   3.395   1.469 -0.8308  0.1607  0.4117
    1SOL    HW2 5770   1.249   3.462   1.423 -0.9931 -0.4396 -0.2987
    1SOL    HW3 5771   1.296   3.422   1.561 -1.6282  0.6645  0.2446
    1SOL    MW4 5772   1.291   3.407   1.475 -0.9575  0.1483  0.2961
    1SOL     OW 5773   1.342   3.357   2.148  0.2724 -0.1382 -0.3352
    1SOL    HW2 5774   1.340   3.410   2.227  0.4473 -0.7004  0.0491
    1SOL    HW3 5775   1.255   3.368   2.109  0.3353  0.4850 -0.2931
    1SOL    MW4 5776   1.330   3.365   2.153  0.3039 -0.1302 -0.2789
    1SOL     OW 5777   3.359   0.924   3.218 -0.2498 -0.2072  0.2621
    1SOL    HW2 5778   3.315   0.840   3.232  1.0315 -1.5063 -2.9669
    1SOL    HW3 5779   3.447   0.900   3.191  0.4367  2.2116  0.3026
    1SOL    MW4 5780   3.365   0.910   3.216  0.0100 -0.0594 -0.1583
    1SOL     OW 5781   1.670   2.645   4.083  0.4509  0.0011 -0.1879
    1SOL    HW2 5782   1.736   2.703   4.046  0.7049 -0.6727 -0.8067
    1SOL    HW3 5783   1.676   2.565   4.031 -0.7276 -0.1319 -0.1448
    1SOL    MW4 5784   1.679   2.642   4.071  0.3290 -0.1051 -0.2642
    1SOL     OW 5785   4.369   3.081   0.958  0.0542 -0.1350 -0.0113
    1SOL    HW2 5786   4.347   3.021   0.887  1.1830 -0.2606 -0.2532
    1SOL    HW3 5787   4.460   3.062   0.979  0.8949  2.4815 -1.0569
    1SOL    MW4 5788   4.378   3.071   0.952  0.3138  0.1938 -0.1812
    1SOL     OW 5789   2.973   2.965   4.501  0.1274 -0.3228  0.4179
    1SOL    HW2 5790   2.931   2.902   4.559 -1.0947 -0.2876 -0.4076
    1SOL    HW3 5791   2.905   2.988   4.438  1.0752  0.5528 -0.2959
    1SOL    MW4 5792   2.958   2.960   4.501  0.0913 -0.2027  0.2146
    1SOL     OW 5793   2.224   1.721   2.394 -0.3373  0.3542  0.4328
    1SOL    HW2 5794   2.213   1.701   2.301  0.8200  0.9330  0.1652
    1SOL    HW3 5795   2.292   1.661   2.424  0.5682  1.3805  0.4737
    1SOL    MW4 5796   2.231   1.710   2.385 -0.0653  0.5659  0.4029
    1SOL     OW 5797   2.347   3.963   2.262  0.5366  0.1137  0.1580
    1SOL    HW2 5798   2.357   4.057   2.270  1.3096 -0.0421  1.1190
    1SOL    HW3 5799   2.274   3.951   2.201 -1.4292  1.3590  2.1752
    1SOL    MW4 5800   2.339   3.974   2.255  0.3793  0.2573  0.5507
    1SOL     OW 5801   1.445   2.971   2.114 -0.1069  0.3476 -0.3176
    1SOL    HW2 5802   1.442   2.989   2.020 -2.5675  2.3720  0.1018
    1SOL    HW3 5803   1.405   2.885   2.123 -2.8565  1.5140 -0.8570
    1SOL    MW4 5804   1.439   2.962   2.103 -0.7943  0.7684 -0.3335
    1SOL     OW 5805   1.672   2.227   3.638 -0.2317  0.4931 -0.2970
    1SOL    HW2 5806   1.683   2.165   3.710  0.5572 -0.0411 -0.8737
    1SOL    HW3 5807   1.721   2.189   3.565  0.0295  1.6565 -0.7428
    1SOL    MW4 5808   1.680   2.214   3.638 -0.0931  0.5758 -0.4318
    1SOL     OW 5809   2.733   1.223   1.505 -0.2764 -0.4113  0.0403
    1SOL    HW2 5810   2.726   1.317   1.485 -0.1423 -0.0775  1.5004
    1SOL    HW3 5811   2.818   1.197   1.470 -0.7240 -0.2205 -1.2323
    1SOL    MW4 5812   2.743   1.232   1.498 -0.3178 -0.3421  0.0650
    1SOL     OW 5813   3.699   3.950   3.789  0.0377 -0.2069  0.0901
    1SOL    HW2 5814   3.711   3.856   3.779 -1.9176 -0.6133  1.4164
    1SOL    HW3 5815   3.715   3.967   3.882  0.3579  0.7669 -0.1353
    1SOL    MW4 5816   3.703   3.940   3.800 -0.1779 -0.1321  0.2356
    1SOL     OW 5817   3.179   0.447   2.562  0.2119 -0.3008  0.7507
    1SOL    HW2 5818   3.193   0.537   2.592 -1.3247 -0.4803  2.0852
    1SOL    HW3 5819   3.251   0.398   2.601  2.2706  0.6684 -1.6885
    1SOL    MW4 5820   3.190   0.453   2.571  0.2806 -0.1966  0.6051
    1SOL     OW 5821   0.147   1.228   3.369  0.6887  0.4352 -0.3846
    1SOL    HW2 5822   0.058   1.258   3.351  0.4426 -1.1634 -1.9883
    1SOL    HW3 5823   0.184   1.207   3.283  2.9323  1.8795  0.1674
    1SOL    MW4 5824   0.140   1.229   3.355  0.9522  0.4148 -0.5233
    1SOL     OW 5825   2.793   0.547   3.037 -0.5095  0.0877 -0.1040
    1SOL    HW2 5826   2.752   0.629   3.063  0.3682  1.2715 -2.2568
    1SOL    HW3 5827   2.886   0.559   3.057 -0.4114 -0.4780 -0.1943
    1SOL    MW4 5828   2.800   0.559   3.043 -0.3810  0.1693 -0.3998
    1SOL     OW 5829   2.612   2.452   3.539 -0.1119 -0.1928  0.1697
    1SOL    HW2 5830   2.613   2.545   3.519 -0.6352 -0.2108  0.0401
    1SOL    HW3 5831   2.542   2.443   3.604  0.3529 -0.4031  0.6466
    1SOL    MW4 5832   2.603   2.463   3.545 -0.1199 -0.2227  0.2158
    1SOL     OW 5833   2.780   0.871   1.912  0.0227  0.8246 -0.2870
    1SOL    HW2 5834   2.745   0.793   1.955 -0.4027  0.6665 -0.9084
    1SOL    HW3 5835   2.868   0.844   1.884  0.4286  1.0400  0.7724
    1SOL    MW4 5836   2.787   0.857   1.914  0.0203  0.8322 -0.2295
    1SOL     OW 5837   0.783   0.305   2.366 -0.0848  0.1176 -0.3636
    1SOL    HW2 5838   0.781   0.397   2.342  0.2522 -0.0942 -1.2118
    1SOL    HW3 5839   0.709   0.266   2.318  0.2578 -0.2052 -0.6325
    1SOL    MW4 5840   0.773   0.312   2.357  0.0048  0.0471 -0.5109
    1SOL     OW 5841   4.465   1.349   1.978 -0.6265  0.4742  0.1259
    1SOL    HW2 5842   4.454   1.444   1.980 -0.7043  0.4654  0.0943
    1SOL    HW3 5843   4.419   1.317   2.056 -0.8500  0.4347 -0.0249
    1SOL    MW4 5844   4.458   1.357   1.989 -0.6661  0.4678  0.1018
    1SOL     OW 5845   1.611   1.227   4.455  0.4125 -0.4877  0.1530
    1SOL    HW2 5846   1.681   1.184   4.505 -0.3427 -0.4812  1.2213
    1SOL    HW3 5847   1.530   1.192   4.492 -0.1578 -0.8289 -1.3778
    1SOL    MW4 5848   1.610   1.217   4.466  0.2377 -0.5317  0.0920
    1SOL     OW 5849   3.336   2.864   3.630  0.4966 -0.1518 -0.0257
    1SOL    HW2 5850   3.343   2.892   3.721  0.8206 -0.9788  0.2063
    1SOL    HW3 5851   3.263   2.803   3.628  0.5321 -0.1878 -0.3143
    1SOL    MW4 5852   3.328   2.860   3.641  0.5441 -0.2656 -0.0331
    1SOL     OW 5853   0.911   0.700   1.938  0.0125  0.0838  0.3664
    1SOL    HW2 5854   0.897   0.760   2.010  1.2096 -0.7157  1.2952
    1SOL    HW3 5855   0.841   0.719   1.876 -0.0867  1.8696  1.0030
    1SOL    MW4 5856   0.900   0.710   1.939  0.1573  0.2139  0.5728
    1SOL     OW 5857   1.633   0.510   2.568  0.6780  0.0156  0.0828
    1SOL    HW2 5858   1.590   0.544   2.490 -0.6895 -0.6616  0.5295
    1SOL    HW3 5859   1.722   0.489   2.539  0.4437  0.5578 -1.0689
    1SOL    MW4 5860   1.639   0.512   2.554  0.4666 -0.0021 -0.0103
    1SOL     OW 5861   1.455   3.718   2.518  0.5750  0.1265  0.0619
    1SOL    HW2 5862   1.471   3.701   2.611  0.4403  0.2176  0.1017
    1SOL    HW3 5863   1.442   3.812   2.512  2.6640  0.4123 -0.3636
    1SOL    MW4 5864   1.455   3.728   2.530  0.8328  0.1767  0.0112
    1SOL     OW 5865   2.388   2.144   3.290  0.4658 -0.2967 -0.2833
    1SOL    HW2 5866   2.363   2.127   3.381  0.7940 -1.8206 -0.4714
    1SOL    HW3 5867   2.430   2.230   3.293 -1.0601  0.4372  0.7118
    1SOL    MW4 5868   2.390   2.153   3.303  0.3076 -0.4010 -0.1769
    1SOL     OW 5869   4.102   4.397   2.315  1.0441 -0.0317 -0.4782
    1SOL    HW2 5870   4.091   4.471   2.256  2.1841  0.9567  0.5043
    1SOL    HW3 5871   4.013   4.374   2.341  0.5166 -0.6635 -2.7717
    1SOL    MW4 5872   4.089   4.404   2.311  1.1244  0.0157 -0.6511
    1SOL     OW 5873   0.375   3.311   3.651 -0.5877 -0.0078 -0.1088
    1SOL    HW2 5874   0.316   3.250   3.607 -2.5083  2.3738 -0.9231
    1SOL    HW3 5875   0.344   3.312   3.742 -0.0444 -0.8260  0.0921
    1SOL    MW4 5876   0.363   3.303   3.657 -0.7694  0.1986 -0.1895
    1SOL     OW 5877   0.315   1.208   3.961 -0.7590  0.1959 -0.4129
    1SOL    HW2 5878   0.242   1.208   4.023 -0.6694 -0.7005 -0.3053
    1SOL    HW3 5879   0.317   1.119   3.926  0.9570 -0.0907  0.3684
    1SOL    MW4 5880   0.306   1.196   3.965 -0.5208  0.0398 -0.2956
    1SOL     OW 5881   2.905   2.030   1.388  0.0014  0.4778  0.0728
    1SOL    HW2 5882   2.817   2.004   1.359 -0.7778  1.4752  1.4269
    1SOL    HW3 5883   2.933   1.959   1.445 -0.2561  0.4967  0.2271
    1SOL    MW4 5884   2.897   2.018   1.392 -0.1357  0.6120  0.2718
    1SOL     OW 5885   2.736   4.502   3.187 -0.4765 -0.6675  0.1013
    1SOL    HW2 5886   2.726   4.583   3.137  1.1961 -1.0487 -0.9213
    1SOL    HW3 5887   2.652   4.457   3.177 -0.6661 -0.0625 -1.1903
    1SOL    MW4 5888   2.724   4.507   3.179 -0.2809 -0.6380 -0.2036
    1SOL     OW 5889   0.072   1.520   2.747  0.6121  0.2540 -0.0367
    1SOL    HW2 5890   0.123   1.447   2.713  0.1573  0.5913 -1.4501
    1SOL    HW3 5891   0.029   1.485   2.825  0.4844 -0.9512 -0.6478
    1SOL    MW4 5892   0.073   1.506   2.753  0.5353  0.1394 -0.3037
    1SOL     OW 5893   1.479   4.434   1.280  0.1248 -0.3176  0.1375
    1SOL    HW2 5894   1.457   4.394   1.365 -2.0243 -1.1868 -0.7814
    1SOL    HW3 5895   1.537   4.371   1.238  0.7123 -0.1644  0.7103
    1SOL    MW4 5896   1.484   4.420   1.286 -0.0812 -0.4115  0.0918
    1SOL     OW 5897   1.660   1.678   2.549  1.0993  0.1381  0.3519
    1SOL    HW2 5898   1.601   1.753   2.540  0.9541 -0.2728 -2.5409
    1SOL    HW3 5899   1.606   1.611   2.592  0.6783  1.0647  1.2979
    1SOL    MW4 5900   1.645   1.679   2.553  1.0246  0.2061  0.0951
    1SOL     OW 5901   4.008   0.698   3.841  0.4168 -0.1920 -0.1635
    1SOL    HW2 5902   4.009   0.731   3.931  1.5470 -1.8960  0.4871
    1SOL    HW3 5903   4.065   0.757   3.793  0.9231 -0.0843  0.5553
    1SOL    MW4 5904   4.016   0.710   3.847  0.6323 -0.4026  0.0174
    1SOL     OW 5905   3.122   1.467   2.142 -0.1457 -0.8829  0.1523
    1SOL    HW2 5906   3.136   1.474   2.236 -0.5203  0.9989  0.0904
    1SOL    HW3 5907   3.031   1.438   2.134 -0.3516 -0.2877  0.3526
    1SOL    MW4 5908   3.112   1.464   2.153 -0.2222 -0.5562  0.1707
    1SOL     OW 5909   4.198   0.710   0.613  0.1359 -0.2311 -0.2337
    1SOL    HW2 5910   4.145   0.630   0.613 -0.2126 -0.0323  1.4404
    1SOL    HW3 5911   4.135   0.781   0.625  0.5967  0.1580 -0.0613
    1SOL    MW4 5912   4.183   0.709   0.615  0.1507 -0.1534  0.0098
    1SOL     OW 5913   4.045   0.286   4.099  0.0520  0.5682 -0.1173
    1SOL    HW2 5914   3.976   0.324   4.153  0.9830  1.7800  0.2357
    1SOL    HW3 5915   4.040   0.192   4.116 -1.3689  0.6665  0.0603
    1SOL    MW4 5916   4.035   0.278   4.108 -0.0124  0.7411 -0.0477
    1SOL     OW 5917   1.113   0.427   1.078 -0.2686  0.5304  0.4032
    1SOL    HW2 5918   1.197   0.401   1.116 -0.7557  0.6112  1.5767
    1SOL    HW3 5919   1.121   0.409   0.985  0.3018 -1.4258  0.8175
    1SOL    MW4 5920   1.125   0.421   1.071 -0.2577  0.2830  0.6126
    1SOL     OW 5921   3.927   3.947   2.557 -0.0077 -0.2087 -0.2490
    1SOL    HW2 5922   3.900   3.888   2.487 -0.5573  1.0897 -1.1513
    1SOL    HW3 5923   3.847   3.993   2.582  0.6246  1.0109 -0.4029
    1SOL    MW4 5924   3.913   3.945   2.551  0.0029  0.1233 -0.3884
    1SOL     OW 5925   3.452   2.820   1.661 -0.5500  0.5311 -0.3036
    1SOL    HW2 5926   3.469   2.816   1.755 -0.9537  1.4822 -0.1909
    1SOL    HW3 5927   3.539   2.828   1.621 -0.3402 -0.3778 -0.0532
    1SOL    MW4 5928   3.466   2.820   1.668 -0.5758  0.5367 -0.2557
    1SOL     OW 5929   2.158   0.960   1.873 -0.5879 -0.6780  0.3493
    1SOL    HW2 5930   2.210   1.037   1.853 -1.5533  0.0600  0.6448
    1SOL    HW3 5931   2.213   0.908   1.931  0.0133 -0.1415  0.2615
    1SOL    MW4 5932   2.172   0.963   1.878 -0.6361 -0.5099  0.3767
    1SOL     OW 5933   3.053   1.829   0.777  0.2838 -0.0222  0.6546
    1SOL    HW2 5934   2.980   1.767   0.769  0.9574 -0.6710 -0.7861
    1SOL    HW3 5935   3.124   1.777   0.815  0.2115  0.4171  1.3861
    1SOL    MW4 5936   3.053   1.814   0.781  0.3629 -0.0499  0.5610
    1SOL     OW 5937   1.301   3.009   4.428 -0.4369 -0.2662 -0.0412
    1SOL    HW2 5938   1.271   2.933   4.378  1.2291 -1.0949  0.2028
    1SOL    HW3 5939   1.393   2.991   4.448  0.9007  3.1552 -2.5633
    1SOL    MW4 5940   1.309   2.997   4.424 -0.0405  0.0758 -0.3414
    1SOL     OW 5941   1.226   4.594   1.319 -0.2702  0.4999  0.1426
    1SOL    HW2 5942   1.303   4.542   1.301  0.2201  0.9995  0.7574
    1SOL    HW3 5943   1.174   4.540   1.380  1.1226  1.4864  2.2514
    1SOL    MW4 5944   1.229   4.580   1.325 -0.0217  0.6962  0.5019
    1SOL     OW 5945   3.649   1.858   1.956  0.1504  0.3976  0.2800
    1SOL    HW2 5946   3.616   1.856   2.046  0.6491  1.7938  0.4950
    1SOL    HW3 5947   3.574   1.885   1.904  0.3961  1.5410  0.5180
    1SOL    MW4 5948   3.635   1.861   1.961  0.2484  0.7327  0.3397
    1SOL     OW 5949   2.282   3.878   3.313  0.5045 -0.1626  0.2519
    1SOL    HW2 5950   2.268   3.867   3.219  0.6274  0.1274  0.2020
    1SOL    HW3 5951   2.198   3.910   3.346  0.9694  1.3508 -0.0115
    1SOL    MW4 5952   2.269   3.880   3.305  0.5822  0.0751  0.2105
    1SOL     OW 5953   1.468   0.184   2.922  0.0217  0.0905 -0.1291
    1SOL    HW2 5954   1.507   0.152   3.004  0.5535  1.5573  0.2114
    1SOL    HW3 5955   1.539   0.233   2.880 -0.9862  1.4354 -0.2786
    1SOL    MW4 5956   1.483   0.186   2.928 -0.0410  0.4614 -0.1040
    1SOL     OW 5957   2.315   4.162   3.810 -0.4625  0.5494 -0.0445
    1SOL    HW2 5958   2.247   4.226   3.788 -0.6619 -0.0822 -1.2956
    1SOL    HW3 5959   2.277   4.077   3.788  0.3330  0.1001  0.2725
    1SOL    MW4 5960   2.301   4.159   3.804 -0.3841  0.4072 -0.1676
    1SOL     OW 5961   2.207   0.559   4.074 -0.1419 -0.7062 -0.2929
    1SOL    HW2 5962   2.119   0.595   4.063  0.6986  2.4367  2.2983
    1SOL    HW3 5963   2.216   0.545   4.168  1.9627 -1.4057 -0.5622
    1SOL    MW4 5964   2.197   0.562   4.085  0.2465 -0.3839  0.0134
    1SOL     OW 5965   1.864   3.298   3.427 -0.0976  0.2435 -0.1897
    1SOL    HW2 5966   1.797   3.230   3.423 -0.6737  0.8615 -1.2789
    1SOL    HW3 5967   1.852   3.338   3.513 -0.0587 -0.7105  0.2711
    1SOL    MW4 5968   1.854   3.294   3.438 -0.1684  0.1991 -0.2725
    1SOL     OW 5969   3.363   3.081   1.624 -0.2268 -0.0720 -0.4338
    1SOL    HW2 5970   3.343   3.111   1.535 -3.0719 -0.2734  0.1087
    1SOL    HW3 5971   3.384   2.988   1.614 -0.0211  0.0269 -0.9500
    1SOL    MW4 5972   3.363   3.073   1.611 -0.5753 -0.0858 -0.4303
    1SOL     OW 5973   3.294   0.989   1.637 -0.0601 -0.2258  0.2676
    1SOL    HW2 5974   3.385   1.019   1.641 -0.4768  1.0922 -0.0284
    1SOL    HW3 5975   3.247   1.046   1.697 -0.9550  0.0575 -0.6900
    1SOL    MW4 5976   3.300   1.000   1.645 -0.2329 -0.0145  0.1023
    1SOL     OW 5977   3.464   4.248   3.778 -0.0025  0.2139  0.3734
    1SOL    HW2 5978   3.516   4.294   3.712 -0.6283  0.9661  0.4008
    1SOL    HW3 5979   3.462   4.157   3.748  0.8686  0.2826  0.0882
    1SOL    MW4 5980   3.471   4.242   3.766  0.0296  0.3223  0.3393
    1SOL     OW 5981   1.673   2.651   2.152  0.0649  0.3973 -0.6548
    1SOL    HW2 5982   1.580   2.673   2.146 -0.1153 -0.7198 -2.3516
    1SOL    HW3 5983   1.711   2.687   2.071  0.7168 -0.9628 -0.9698
    1SOL    MW4 5984   1.666   2.659   2.140  0.1271  0.0706 -0.9203
    1SOL     OW 5985   2.107   3.318   1.980  0.7320  0.3715  0.3493
    1SOL    HW2 5986   2.151   3.268   1.911 -1.3891  2.2115 -2.4453
    1SOL    HW3 5987   2.130   3.409   1.963 -1.8468  1.0977  0.4907
    1SOL    MW4 5988   2.115   3.323   1.969  0.1123  0.7102 -0.0006
    1SOL     OW 5989   3.588   2.672   3.600 -0.1191 -0.2835 -0.2041
    1SOL    HW2 5990   3.663   2.732   3.609  0.1272 -0.6958  0.5233
    1SOL    HW3 5991   3.512   2.725   3.624  0.1880 -0.4820  1.2982
    1SOL    MW4 5992   3.588   2.687   3.605 -0.0460 -0.3641  0.0899
    1SOL     OW 5993   0.839   0.415   3.306  0.1387 -0.2779  0.1123
    1SOL    HW2 5994   0.812   0.326   3.286 -0.6606 -0.3878  1.6080
    1SOL    HW3 5995   0.859   0.454   3.221  0.2019 -1.7833 -0.5709
    1SOL    MW4 5996   0.838   0.409   3.292  0.0416 -0.4910  0.2193
    1SOL     OW 5997   4.340   4.422   1.586 -0.1296 -0.0366 -0.1565
    1SOL    HW2 5998   4.329   4.342   1.638  1.9511 -1.0843 -1.2471
    1SOL    HW3 5999   4.435   4.437   1.586 -0.5700  3.2809  1.2402
    1SOL    MW4 6000   4.351   4.414   1.593  0.0863  0.2632 -0.1162
    1SOL     OW 6001   1.836   4.648   1.408 -0.3080 -0.1188 -0.2087
    1SOL    HW2 6002   1.876   4.700   1.338  1.4393  0.0689  0.9062
    1SOL    HW3 6003   1.743   4.671   1.405 -0.2217  0.0789 -2.2917
    1SOL    MW4 6004   1.829   4.658   1.398 -0.0660 -0.0677 -0.3364
    1SOL     OW 6005   2.153   4.386   0.690  0.0468 -0.1658  0.0922
    1SOL    HW2 6006   2.182   4.420   0.774  0.4281  0.6782 -0.3775
    1SOL    HW3 6007   2.076   4.438   0.668 -1.1905 -1.6784  0.8271
    1SOL    MW4 6008   2.147   4.397   0.698 -0.0663 -0.2546  0.1272
    1SOL     OW 6009   3.179   4.432   4.288  0.3529  0.1029 -0.2623
    1SOL    HW2 6010   3.206   4.349   4.249  1.7755  0.2653  0.3339
    1SOL    HW3 6011   3.212   4.499   4.228  0.5285  0.2784  0.0251
    1SOL    MW4 6012   3.187   4.430   4.275  0.5639  0.1473 -0.1454
    1SOL     OW 6013   3.934   0.381   3.575  0.4249  0.0048 -0.2718
    1SOL    HW2 6014   3.926   0.336   3.491  1.6168 -0.3144 -0.2240
    1SOL    HW3 6015   4.028   0.399   3.583  0.3665 -0.3489  1.1905
    1SOL    MW4 6016   3.946   0.378   3.565  0.5744 -0.0840 -0.0725
    1SOL     OW 6017   3.498   2.218   3.123 -0.5241  0.3303 -0.3109
    1SOL    HW2 6018   3.469   2.178   3.041  1.8373 -0.8929 -0.5798
    1SOL    HW3 6019   3.417   2.251   3.163 -1.6978  1.1123 -3.1852
    1SOL    MW4 6020   3.483   2.217   3.118 -0.3674  0.2720 -0.7255
    1SOL     OW 6021   0.920   2.745   1.629  0.1406 -0.1758 -0.1995
    1SOL    HW2 6022   0.985   2.758   1.699  0.2460  0.0556 -0.3419
    1SOL    HW3 6023   0.877   2.662   1.652  0.5940 -0.4092 -0.1902
    1SOL    MW4 6024   0.923   2.736   1.642  0.2144 -0.1760 -0.2170
    1SOL     OW 6025   3.209   0.532   4.869  0.2102 -0.9197 -0.0790
    1SOL    HW2 6026   3.262   0.509   4.945  1.6080  0.0615 -0.7425
    1SOL    HW3 6027   3.232   0.468   4.802  1.0059 -0.1320 -0.5638
    1SOL    MW4 6028   3.219   0.521   4.870  0.4992 -0.6864 -0.2303
    1SOL     OW 6029   3.244   2.626   1.398  0.5359  0.5695 -0.0522
    1SOL    HW2 6030   3.179   2.655   1.462 -0.7254 -0.9799 -0.6182
    1SOL    HW3 6031   3.196   2.619   1.316  1.2469 -1.2950 -0.3281
    1SOL    MW4 6032   3.229   2.629   1.396  0.4635  0.1190 -0.1632
    1SOL     OW 6033   3.233   2.036   4.323  0.1550 -0.0247 -0.2329
    1SOL    HW2 6034   3.195   2.107   4.376 -0.8109 -1.1140  0.5540
    1SOL    HW3 6035   3.287   2.081   4.259 -0.0343  1.4154  0.5856
    1SOL    MW4 6036   3.235   2.051   4.322  0.0024  0.0215 -0.0219
    1SOL     OW 6037   1.680   0.977   0.776  0.3172 -0.1194 -0.1292
    1SOL    HW2 6038   1.632   0.894   0.780  0.0543  0.1165  1.7608
    1SOL    HW3 6039   1.695   1.001   0.867  0.7835  1.6998 -0.6641
    1SOL    MW4 6040   1.676   0.969   0.788  0.3440  0.1518  0.0496
    1SOL     OW 6041   3.727   2.989   3.296 -0.2226  0.5167  0.1404
    1SOL    HW2 6042   3.649   2.985   3.351  1.0331  1.7845  2.0532
    1SOL    HW3 6043   3.758   2.899   3.291  0.6010  0.6074  2.9452
    1SOL    MW4 6044   3.721   2.977   3.302  0.0520  0.6957  0.7627
    1SOL     OW 6045   1.423   0.727   1.207 -0.1748 -0.2365 -0.1951
    1SOL    HW2 6046   1.330   0.742   1.222 -0.1377 -1.1034  1.0077
    1SOL    HW3 6047   1.448   0.663   1.274  0.9619 -1.1162 -1.4231
    1SOL    MW4 6048   1.414   0.720   1.218 -0.0199 -0.4670 -0.1985
    1SOL     OW 6049   1.083   2.832   1.828  0.0000  0.0000  0.1603
    1SOL    HW2 6050   1.106   2.825   1.921  0.0000  0.0000  0.1609
    1SOL    HW3 6051   1.159   2.795   1.782  0.0000  0.0000  0.1624
    1SOL    MW4 6052   1.096   2.826   1.834  0.0000  0.0000  0.1607
    1SOL     OW 6053   1.148   3.096   1.760  0.0000  0.0000  0.4710
    1SOL    HW2 6054   1.122   3.007   1.783  0.0000  0.0000  0.4787
    1SOL    HW3 6055   1.136   3.101   1.665  0.0000  0.0000  0.4711
    1SOL    MW4 6056   1.143   3.085   1.750  0.0000  0.0000  0.4721
    1SOL     OW 6057   0.919   3.208   1.835  0.0000  0.0000 -0.7097
    1SOL    HW2 6058   0.903   3.287   1.782  0.0000  0.0000 -0.7408
    1SOL    HW3 6059   1.006   3.179   1.806  0.0000  0.0000 -0.6321
    1SOL    MW4 6060   0.928   3.215   1.824  0.0000  0.0000 -0.7036
    1SOL     OW 6061   0.887   3.462   1.714  0.0000  0.0000  0.3140
    1SOL    HW2 6062   0.961   3.508   1.756  0.0000  0.0000  0.3056
    1SOL    HW3 6063   0.810   3.511   1.743  0.0000  0.0000  0.3035
    1SOL    MW4 6064   0.887   3.474   1.723  0.0000  0.0000  0.3114
    1SOL     OW 6065   1.102   3.599   1.846  0.0000  0.0000  0.0047
    1SOL    HW2 6066   1.101   3.626   1.937  0.0000  0.0000  0.0045
    1SOL    HW3 6067   1.100   3.681   1.796  0.0000  0.0000  0.0041
    1SOL    MW4 6068   1.102   3.613   1.851  0.0000  0.0000  0.0048
    1SOL     OW 6069   1.098   3.851   1.731  0.0000  0.0000  0.1232
    1SOL    HW2 6070   1.178   3.889   1.769  0.0000  0.0000  0.1238
    1SOL    HW3 6071   1.110   3.859   1.637  0.0000  0.0000  0.1233
    1SOL    MW4 6072   1.110   3.857   1.724  0.0000  0.0000  0.1233
    1SOL     OW 6073   0.893   4.008   1.826  0.0000  0.0000 -0.6812
    1SOL    HW2 6074   0.957   3.963   1.770  0.0000  0.0000 -0.6779
    1SOL    HW3 6075   0.809   3.969   1.801  0.0000  0.0000 -0.6867
    1SOL    MW4 6076   0.890   3.997   1.815  0.0000  0.0000 -0.6816
    1SOL     OW 6077   0.888   4.266   1.746  0.0000  0.0000  0.2002
    1SOL    HW2 6078   0.892   4.173   1.770  0.0000  0.0000  0.1991
    1SOL    HW3 6079   0.884   4.265   1.650  0.0000  0.0000  0.2001
    1SOL    MW4 6080   0.888   4.254   1.736  0.0000  0.0000  0.2002
    1SOL     OW 6081   1.144   4.351   1.793  0.0000  0.0000 -0.3599
    1SOL    HW2 6082   1.137   4.378   1.885  0.0000  0.0000 -0.3592
    1SOL    HW3 6083   1.055   4.327   1.768  0.0000  0.0000 -0.3651
    1SOL    MW4 6084   1.131   4.351   1.802  0.0000  0.0000 -0.3605
    1SOL     OW 6085   3.758   1.819   2.687 -0.8369 -0.2976  0.9323
    1SOL    HW2 6086   3.783   1.826   2.779  2.1277 -0.3418  0.1934
    1SOL    HW3 6087   3.819   1.755   2.651 -1.2308  0.5569 -1.3009
    1SOL    MW4 6088   3.770   1.811   2.694 -0.4981 -0.1907  0.5400
    1SOL     OW 6089   2.062   4.083   3.007  0.6838  0.4944  0.2967
    1SOL    HW2 6090   1.971   4.080   3.035  0.5831 -0.1110 -0.0860
    1SOL    HW3 6091   2.098   4.161   3.050  0.6025 -0.5173  2.2433
    1SOL    MW4 6092   2.055   4.093   3.016  0.6597  0.2809  0.5026
    1SOL     OW 6093   4.474   4.188   1.731  0.0808 -0.4838  0.1360
    1SOL    HW2 6094   4.471   4.194   1.827 -1.0420 -0.0478  0.0778
    1SOL    HW3 6095   4.517   4.268   1.703  0.5734 -0.6950  0.2833
    1SOL    MW4 6096   4.479   4.199   1.740 -0.0024 -0.4544  0.1477
    1SOL     OW 6097   3.853   1.584   3.268 -0.6248  0.1688  0.5991
    1SOL    HW2 6098   3.814   1.672   3.268 -0.4093  0.3106 -1.9885
    1SOL    HW3 6099   3.945   1.599   3.246 -1.0448 -0.8449 -1.9875
    1SOL    MW4 6100   3.860   1.598   3.265 -0.6518  0.0538 -0.0839
    1SOL     OW 6101   3.880   0.603   4.428  0.4272 -0.5742 -0.0095
    1SOL    HW2 6102   3.787   0.623   4.424  0.2456 -1.5055 -0.4660
    1SOL    HW3 6103   3.894   0.536   4.362  1.5395 -0.0126 -0.3572
    1SOL    MW4 6104   3.869   0.597   4.419  0.5498 -0.6230 -0.1154
    1SOL     OW 6105   1.572   1.343   1.057 -0.5704 -0.2928 -0.2110
    1SOL    HW2 6106   1.628   1.267   1.038  1.0080  0.6639  0.5288
    1SOL    HW3 6107   1.625   1.418   1.031 -1.3502  0.6589  0.9391
    1SOL    MW4 6108   1.586   1.343   1.051 -0.4649 -0.0410  0.0383
    1SOL     OW 6109   4.295   1.013   0.743  0.3838 -0.2121 -0.3098
    1SOL    HW2 6110   4.301   0.944   0.809  2.6091 -0.0170 -0.2880
    1SOL    HW3 6111   4.220   1.067   0.771 -0.7757 -2.0408  0.1921
    1SOL    MW4 6112   4.286   1.011   0.755  0.5245 -0.4276 -0.2407
    1SOL     OW 6113   2.612   0.745   2.147 -0.3000  0.3728  0.0340
    1SOL    HW2 6114   2.557   0.790   2.212 -0.2164  1.6834 -0.7805
    1SOL    HW3 6115   2.549   0.705   2.086 -0.3603  0.5841 -0.0415
    1SOL    MW4 6116   2.596   0.745   2.147 -0.2968  0.5736 -0.0837
    1SOL     OW 6117   4.407   1.604   3.869  0.4184 -0.4224  0.1925
    1SOL    HW2 6118   4.442   1.605   3.958 -1.1761  0.0387  0.8250
    1SOL    HW3 6119   4.360   1.687   3.860  0.6206 -0.4390 -1.0971
    1SOL    MW4 6120   4.405   1.615   3.880  0.2346 -0.3638  0.1059
    1SOL     OW 6121   2.340   3.510   1.077 -0.2636  0.2637 -0.1139
    1SOL    HW2 6122   2.388   3.579   1.123 -1.4122  0.8887  0.1704
    1SOL    HW3 6123   2.312   3.450   1.147  1.5889 -1.0502 -0.4598
    1SOL    MW4 6124   2.342   3.511   1.093 -0.1707  0.1726 -0.1220
    1SOL     OW 6125   2.979   0.426   3.387 -0.1096  0.2497 -0.3179
    1SOL    HW2 6126   2.979   0.522   3.380  1.8649  0.3221  0.4623
    1SOL    HW3 6127   3.070   0.403   3.401 -0.6605 -1.7210  0.1567
    1SOL    MW4 6128   2.991   0.436   3.388  0.0784 -0.0008 -0.1521
    1SOL     OW 6129   2.664   3.353   0.124  0.2130 -0.1096 -0.1843
    1SOL    HW2 6130   2.571   3.358   0.103  0.2058 -0.1991 -0.1764
    1SOL    HW3 6131   2.682   3.432   0.173  0.2474  0.1449 -0.6017
    1SOL    MW4 6132   2.654   3.364   0.128  0.2167 -0.0880 -0.2383
    1SOL     OW 6133   0.197   1.110   2.324 -0.1629  0.4554  0.1849
    1SOL    HW2 6134   0.193   1.178   2.256  0.2082  1.2836  0.9845
    1SOL    HW3 6135   0.123   1.053   2.305 -0.2998  0.9090 -0.6791
    1SOL    MW4 6136   0.187   1.111   2.312 -0.1320  0.6244  0.1767
    1SOL     OW 6137   0.236   3.440   2.404  0.2222 -0.1757 -0.6302
    1SOL    HW2 6138   0.284   3.473   2.479  1.2733  0.3378 -1.5281
    1SOL    HW3 6139   0.192   3.361   2.437 -2.2692  2.0052  1.5187
    1SOL    MW4 6140   0.236   3.434   2.418  0.0322  0.1795 -0.4652
    1SOL     OW 6141   3.231   0.115   4.472 -0.1267 -0.1672  0.1556
    1SOL    HW2 6142   3.160   0.137   4.412 -0.3536  2.1421  1.2366
    1SOL    HW3 6143   3.216   0.024   4.495 -1.4228 -0.3628 -1.3963
    1SOL    MW4 6144   3.220   0.106   4.467 -0.3276  0.1117  0.0935
    1SOL     OW 6145   2.708   4.039   0.564 -0.0611  0.0455  0.3956
    1SOL    HW2 6146   2.730   3.966   0.505 -1.1511  0.5452 -0.6377
    1SOL    HW3 6147   2.636   4.005   0.617  0.1268  0.0130  0.6307
    1SOL    MW4 6148   2.701   4.025   0.563 -0.1802  0.1073  0.2902
    1SOL     OW 6149   4.436   0.060   2.428  1.3087  0.1566 -0.1383
    1SOL    HW2 6150   4.375  -0.002   2.468  2.2225 -0.9458 -0.4215
    1SOL    HW3 6151   4.506   0.070   2.492  2.1115 -0.5785 -0.8946
    1SOL    MW4 6152   4.437   0.053   2.442  1.5354 -0.0858 -0.2751
    1SOL     OW 6153   0.199   2.391   2.557 -0.0375  0.5988  0.5372
    1SOL    HW2 6154   0.188   2.368   2.650 -1.2047 -0.1933  0.2084
    1SOL    HW3 6155   0.170   2.314   2.510 -0.2593  1.3231 -0.5162
    1SOL    MW4 6156   0.194   2.378   2.563 -0.2208  0.5898  0.3550
    1SOL     OW 6157   4.102   1.082   2.145 -0.6404  0.5040  0.4472
    1SOL    HW2 6158   4.076   1.106   2.234 -0.7444  0.7196  0.3583
    1SOL    HW3 6159   4.096   0.986   2.144 -1.2326  0.5360  0.4906
    1SOL    MW4 6160   4.098   1.072   2.157 -0.7329  0.5367  0.4411
    1SOL     OW 6161   3.456   0.505   3.863 -0.0675  0.2727  0.3913
    1SOL    HW2 6162   3.487   0.447   3.932 -1.4077 -0.1369  0.6451
    1SOL    HW3 6163   3.523   0.574   3.859  2.1879 -1.9214 -0.7771
    1SOL    MW4 6164   3.469   0.507   3.872  0.0532 -0.0708  0.2708
    1SOL     OW 6165   3.674   0.645   1.833  0.2809  0.2051  0.3598
    1SOL    HW2 6166   3.757   0.601   1.852  1.1929  1.8907  0.3675
    1SOL    HW3 6167   3.640   0.669   1.919 -0.1918 -0.4441  0.3535
    1SOL    MW4 6168   3.681   0.642   1.847  0.3390  0.3419  0.3599
    1SOL     OW 6169   2.678   0.836   1.660  0.4602  0.2055  0.2386
    1SOL    HW2 6170   2.760   0.850   1.613  0.6511 -0.9091  0.2196
    1SOL    HW3 6171   2.703   0.832   1.752  0.4663 -0.3186  0.2202
    1SOL    MW4 6172   2.692   0.837   1.666  0.4861 -0.0106  0.2337
    1SOL     OW 6173   3.942   4.133   2.202  0.1000  0.2100  0.3683
    1SOL    HW2 6174   3.995   4.146   2.124  0.2211 -1.4063  0.1743
    1SOL    HW3 6175   4.006   4.122   2.273  0.0063 -0.3126  0.3707
    1SOL    MW4 6176   3.958   4.133   2.201  0.1037 -0.0720  0.3428
    1SOL     OW 6177   3.811   0.517   2.446  0.7830 -0.3947  0.0507
    1SOL    HW2 6178   3.760   0.437   2.429  1.1301 -0.6954  0.4053
    1SOL    HW3 6179   3.757   0.568   2.505  0.6369 -0.4469 -0.0383
    1SOL    MW4 6180   3.797   0.513   2.451  0.8097 -0.4413  0.0858
    1SOL     OW 6181   3.846   3.814   2.168  0.0591 -0.0003 -0.2919
    1SOL    HW2 6182   3.840   3.798   2.074  1.5977  1.2232 -0.6207
    1SOL    HW3 6183   3.774   3.873   2.188 -1.0207 -1.2463 -0.4604
    1SOL    MW4 6184   3.836   3.820   2.159  0.1199 -0.0033 -0.3579
    1SOL     OW 6185   2.679   0.436   3.303  0.1445 -0.5196  0.2339
    1SOL    HW2 6186   2.719   0.455   3.219  0.3938 -0.5922  0.3344
    1SOL    HW3 6187   2.716   0.351   3.329 -0.0032 -0.5433  0.3715
    1SOL    MW4 6188   2.689   0.427   3.296  0.1578 -0.5323  0.2651
    1SOL     OW 6189   3.421   3.503   2.172 -0.4396 -0.1986  0.4195
    1SOL    HW2 6190   3.430   3.530   2.263  2.6924 -0.8619  0.3647
    1SOL    HW3 6191   3.486   3.555   2.125  0.1225 -2.0474 -0.9267
    1SOL    MW4 6192   3.431   3.513   2.178  0.0477 -0.5300  0.2348
    1SOL     OW 6193   0.943   0.119   4.592 -0.8607  0.3740 -0.1624
    1SOL    HW2 6194   0.917   0.176   4.664  0.0390 -0.2436  0.6593
    1SOL    HW3 6195   1.038   0.116   4.597 -0.8755 -0.8884 -0.4344
    1SOL    MW4 6196   0.952   0.126   4.602 -0.7439  0.1259 -0.0901
    1SOL     OW 6197   0.009   3.145   4.235  0.0280 -0.2282 -0.0798
    1SOL    HW2 6198   0.007   3.240   4.250 -0.2673 -0.1902 -0.3457
    1SOL    HW3 6199  -0.062   3.130   4.173 -0.3246 -0.7078  0.4374
    1SOL    MW4 6200  -0.001   3.156   4.229 -0.0575 -0.2863 -0.0463
    1SOL     OW 6201   1.554   2.614   1.623 -0.0231 -0.3970 -0.3861
    1SOL    HW2 6202   1.559   2.534   1.675  0.6854 -0.3745 -0.4215
    1SOL    HW3 6203   1.575   2.586   1.534  0.0800 -0.1937 -0.4250
    1SOL    MW4 6204   1.557   2.599   1.618  0.0842 -0.3672 -0.3959
    1SOL     OW 6205   3.863   0.739   0.849  0.3915 -0.4682  0.1837
    1SOL    HW2 6206   3.785   0.724   0.902 -0.3000  2.3003  0.0131
    1SOL    HW3 6207   3.931   0.764   0.911 -0.1536  1.7770 -0.0621
    1SOL    MW4 6208   3.862   0.740   0.864  0.2282  0.1934  0.1288
    1SOL     OW 6209   2.887   2.757   1.329  0.3656 -0.7207  0.0688
    1SOL    HW2 6210   2.858   2.825   1.268  0.7090  0.3372  1.0719
    1SOL    HW3 6211   2.813   2.698   1.336 -0.9004  0.9572  1.1975
    1SOL    MW4 6212   2.874   2.758   1.322  0.2439 -0.3598  0.3500
    1SOL     OW 6213   0.196   3.464   3.814 -0.1125 -0.5220 -0.2342
    1SOL    HW2 6214   0.230   3.431   3.898  0.2393  0.6669  0.0971
    1SOL    HW3 6215   0.112   3.420   3.803  1.1182 -2.8337 -0.6287
    1SOL    MW4 6216   0.190   3.454   3.824  0.0963 -0.6700 -0.2427
    1SOL     OW 6217   0.749   4.454   3.927  0.0691 -0.3433  0.3285
    1SOL    HW2 6218   0.741   4.366   3.891  1.0051  0.4887 -2.0261
    1SOL    HW3 6219   0.839   4.480   3.904 -1.0285  2.1710 -1.2668
    1SOL    MW4 6220   0.760   4.446   3.919  0.0478  0.0978 -0.1926
    1SOL     OW 6221   0.811   3.725   2.252 -0.8287 -0.2900 -0.5034
    1SOL    HW2 6222   0.716   3.720   2.252 -0.8496 -0.0087 -2.0727
    1SOL    HW3 6223   0.831   3.810   2.214  0.0707 -0.8885 -1.3928
    1SOL    MW4 6224   0.801   3.735   2.247 -0.7127 -0.3319 -0.8278
    1SOL     OW 6225   3.293   3.761   0.406 -0.3592 -0.2995 -0.1664
    1SOL    HW2 6226   3.242   3.683   0.426  1.4260 -1.7126 -0.9694
    1SOL    HW3 6227   3.368   3.757   0.466 -1.1641  1.7553  1.0155
    1SOL    MW4 6228   3.296   3.750   0.416 -0.2296 -0.2148 -0.1164
    1SOL     OW 6229   2.808   2.969   3.702 -0.0053 -0.1337  0.4437
    1SOL    HW2 6230   2.784   3.020   3.780 -1.7500  0.6978 -0.6108
    1SOL    HW3 6231   2.894   3.003   3.677 -1.1572  2.3578 -0.2671
    1SOL    MW4 6232   2.817   2.981   3.709 -0.3874  0.3047  0.2108
    1SOL     OW 6233   1.658   2.371   0.648 -0.3270  0.1789 -0.4683
    1SOL    HW2 6234   1.746   2.338   0.630 -1.2011 -1.9515 -1.0115
    1SOL    HW3 6235   1.606   2.292   0.665 -2.0713  1.4225  0.0878
    1SOL    MW4 6236   1.663   2.356   0.648 -0.6725  0.0620 -0.4666
    1SOL     OW 6237   4.105   0.798   2.029  0.2801 -0.6657  0.5630
    1SOL    HW2 6238   4.126   0.872   1.972 -0.0164  0.5071  1.9580
    1SOL    HW3 6239   4.153   0.724   1.991  0.3363  0.1582 -1.0163
    1SOL    MW4 6240   4.114   0.798   2.016  0.2489 -0.4022  0.5386
    1SOL     OW 6241   1.810   2.027   0.740 -0.4408  0.0814  0.5393
    1SOL    HW2 6242   1.858   2.094   0.690  0.0536  0.6609  1.7707
    1SOL    HW3 6243   1.861   1.947   0.726 -0.7304  0.0732 -0.5040
    1SOL    MW4 6244   1.823   2.025   0.732 -0.4137  0.1569  0.5642
    1SOL     OW 6245   0.409   2.717   2.540 -0.2535  0.0107  0.0558
    1SOL    HW2 6246   0.324   2.745   2.506 -0.2072  0.5290  0.3513
    1SOL    HW3 6247   0.421   2.769   2.620 -1.1368 -2.3762  1.8115
    1SOL    MW4 6248   0.400   2.728   2.546 -0.3640 -0.2360  0.3266
    1SOL     OW 6249   2.288   4.553   0.859 -0.0608 -0.6166 -0.1313
    1SOL    HW2 6250   2.265   4.617   0.792 -0.4769 -0.1569  0.4353
    1SOL    HW3 6251   2.384   4.559   0.865  0.0124 -0.9666 -0.9759
    1SOL    MW4 6252   2.298   4.562   0.851 -0.1061 -0.6022 -0.1680
    1SOL     OW 6253   1.896   1.786   3.907  0.1982 -0.2172 -0.3450
    1SOL    HW2 6254   1.841   1.713   3.879 -0.7231 -0.1330  1.2395
    1SOL    HW3 6255   1.920   1.766   3.997 -0.8197  1.8806  0.4275
    1SOL    MW4 6256   1.892   1.774   3.915 -0.0577  0.0706 -0.0341
    1SOL     OW 6257   3.467   0.670   3.557 -0.4970  0.0956  0.1298
    1SOL    HW2 6258   3.522   0.714   3.621  0.0845  0.3200 -0.5220
    1SOL    HW3 6259   3.404   0.736   3.529  0.8293  0.7263 -1.3800
    1SOL    MW4 6260   3.466   0.684   3.562 -0.2451  0.2085 -0.1552
    1SOL     OW 6261   1.716   3.541   3.257 -0.3388  0.0765  0.1145
    1SOL    HW2 6262   1.656   3.510   3.326  0.9625  0.9362  1.6679
    1SOL    HW3 6263   1.801   3.507   3.283  0.2200  0.7183 -0.8858
    1SOL    MW4 6264   1.719   3.532   3.270 -0.0933  0.2744  0.1874
    1SOL     OW 6265   2.127   3.164   4.293  0.3793  0.3035  0.2712
    1SOL    HW2 6266   2.169   3.080   4.275 -0.4002 -0.3478  1.3547
    1SOL    HW3 6267   2.138   3.214   4.213  1.1117 -0.7311 -0.2944
    1SOL    MW4 6268   2.134   3.159   4.280  0.3734  0.0813  0.3390
    1SOL     OW 6269   0.692   1.334   3.416  0.2359 -0.1125  0.2268
    1SOL    HW2 6270   0.642   1.256   3.440  2.8500 -1.5643  1.1575
    1SOL    HW3 6271   0.688   1.390   3.493 -2.1495  1.0104 -0.6520
    1SOL    MW4 6272   0.685   1.331   3.429  0.2661 -0.1560  0.2339
    1SOL     OW 6273   3.981   1.544   1.010  0.1094  0.0635 -0.0468
    1SOL    HW2 6274   3.992   1.526   0.917  1.1706 -0.8890  0.2541
    1SOL    HW3 6275   4.055   1.601   1.032 -0.5463  0.8823  0.0605
    1SOL    MW4 6276   3.992   1.549   1.001  0.1628  0.0459  0.0070
    1SOL     OW 6277   4.486   3.162   4.529 -0.1814 -0.0995 -0.4260
    1SOL    HW2 6278   4.499   3.160   4.434  0.0096 -0.5566 -0.3869
    1SOL    HW3 6279   4.574   3.160   4.566 -0.2959 -1.4512 -0.2077
    1SOL    MW4 6280   4.499   3.162   4.521 -0.1712 -0.3381 -0.3915
    1SOL     OW 6281   3.430   1.369   0.783 -0.2932 -0.2565 -0.3458
    1SOL    HW2 6282   3.454   1.277   0.786 -2.0397 -0.7026  0.3918
    1SOL    HW3 6283   3.501   1.414   0.829  0.3716 -1.2677 -0.3706
    1SOL    MW4 6284   3.443   1.363   0.790 -0.4358 -0.4487 -0.2518
    1SOL     OW 6285   0.595   1.200   1.311 -0.2334  0.7145  0.6458
    1SOL    HW2 6286   0.558   1.145   1.241  0.2709  0.9350  0.1996
    1SOL    HW3 6287   0.558   1.287   1.295  0.8797  1.0642 -0.1317
    1SOL    MW4 6288   0.585   1.204   1.300 -0.0200  0.7896  0.4842
    1SOL     OW 6289   1.797   1.617   1.566 -0.6760 -0.2845 -0.1289
    1SOL    HW2 6290   1.831   1.528   1.553  0.0603  0.2841 -2.4213
    1SOL    HW3 6291   1.849   1.671   1.506 -3.0194  1.2420 -0.8601
    1SOL    MW4 6292   1.808   1.612   1.556 -0.8880 -0.0081 -0.5277
    1SOL     OW 6293   2.718   3.842   3.957 -0.1856 -0.0576 -0.0734
    1SOL    HW2 6294   2.729   3.896   3.879  0.7657  0.3806  0.3630
    1SOL    HW3 6295   2.793   3.863   4.013 -1.1350  0.0393  1.2040
    1SOL    MW4 6296   2.729   3.852   3.954 -0.1853  0.0134  0.1526
    1SOL     OW 6297   1.146   3.763   0.799  0.1086 -0.3723 -0.3895
    1SOL    HW2 6298   1.056   3.739   0.780  0.0963 -0.2976 -0.4264
    1SOL    HW3 6299   1.194   3.680   0.798  0.0554 -0.4020 -0.4538
    1SOL    MW4 6300   1.141   3.749   0.796  0.0999 -0.3662 -0.4028
    1SOL     OW 6301   0.715   0.619   3.113 -0.0868  0.7988 -0.0289
    1SOL    HW2 6302   0.681   0.627   3.024 -0.9545 -2.2304  0.0083
    1SOL    HW3 6303   0.639   0.632   3.170  0.0768  0.6203  0.2311
    1SOL    MW4 6304   0.701   0.622   3.109 -0.1798  0.3756  0.0103
    1SOL     OW 6305   4.446   4.336   1.077 -0.2355 -0.1332 -0.4272
    1SOL    HW2 6306   4.355   4.312   1.095 -0.0892 -0.8180 -0.5910
    1SOL    HW3 6307   4.479   4.367   1.161 -1.1009  1.6892 -0.7432
    1SOL    MW4 6308   4.438   4.337   1.091 -0.3304  0.0167 -0.4905
    1SOL     OW 6309   2.332   2.634   4.170  0.3101  0.0109  0.0940
    1SOL    HW2 6310   2.260   2.595   4.120  1.6094 -2.6781  0.2113
    1SOL    HW3 6311   2.377   2.690   4.106  0.3879 -1.3289 -1.0533
    1SOL    MW4 6312   2.329   2.636   4.155  0.4919 -0.5205 -0.0424
    1SOL     OW 6313   3.083   4.479   2.391  0.0301  0.3317 -0.0496
    1SOL    HW2 6314   3.165   4.459   2.437 -0.2595 -0.3250  0.1972
    1SOL    HW3 6315   3.047   4.393   2.369  0.0314  0.6409 -1.2805
    1SOL    MW4 6316   3.089   4.465   2.394 -0.0081  0.2851 -0.1793
    1SOL     OW 6317   3.736   2.873   1.294 -0.0741 -0.1003 -0.1024
    1SOL    HW2 6318   3.769   2.890   1.206  0.8255 -0.0679  0.2434
    1SOL    HW3 6319   3.647   2.838   1.280 -1.1204  2.7630 -0.8857
    1SOL    MW4 6320   3.728   2.870   1.281 -0.0935  0.2816 -0.1602
    1SOL     OW 6321   4.170   2.876   3.482 -0.1916 -0.2330  0.1356
    1SOL    HW2 6322   4.227   2.950   3.504  0.6920 -0.6965 -0.5587
    1SOL    HW3 6323   4.193   2.855   3.391  0.2454 -1.9727  0.6419
    1SOL    MW4 6324   4.181   2.883   3.473 -0.0172 -0.5238  0.1109
    1SOL     OW 6325   1.651   2.689   0.835  0.0004 -0.6769  0.4811
    1SOL    HW2 6326   1.696   2.607   0.857  1.2943  0.2945  1.5077
    1SOL    HW3 6327   1.602   2.669   0.755  0.7567 -2.2854  0.4071
    1SOL    MW4 6328   1.651   2.675   0.827  0.2710 -0.7608  0.6068
    1SOL     OW 6329   1.913   4.075   2.766  0.2522  0.3108 -0.2835
    1SOL    HW2 6330   1.860   4.152   2.745 -0.1082 -0.2353 -1.4021
    1SOL    HW3 6331   1.966   4.103   2.841 -1.5722  0.8685  0.8301
    1SOL    MW4 6332   1.913   4.089   2.773 -0.0361  0.3128 -0.2842
    1SOL     OW 6333   1.840   0.376   2.212 -0.5076  0.0126  0.3016
    1SOL    HW2 6334   1.910   0.368   2.276  1.8224  0.9218 -2.0529
    1SOL    HW3 6335   1.760   0.352   2.260  1.0030  1.7006  3.7814
    1SOL    MW4 6336   1.838   0.372   2.227 -0.0008  0.3553  0.4501
    1SOL     OW 6337   0.278   3.259   3.230 -0.0874  0.3086  0.0641
    1SOL    HW2 6338   0.320   3.204   3.163 -0.1414  0.6248 -0.2337
    1SOL    HW3 6339   0.184   3.253   3.209 -0.2915 -1.2365  1.3649
    1SOL    MW4 6340   0.271   3.251   3.218 -0.1214  0.1464  0.1962
    1SOL     OW 6341   4.206   4.215   1.179 -0.0318 -0.0968  0.7949
    1SOL    HW2 6342   4.208   4.126   1.215  1.3779 -0.6303 -0.5438
    1SOL    HW3 6343   4.119   4.222   1.139  0.4292 -1.4758 -0.5076
    1SOL    MW4 6344   4.195   4.204   1.178  0.2155 -0.3486  0.4464
    1SOL     OW 6345   4.032   0.843   1.382  0.0753  0.9591  0.6017
    1SOL    HW2 6346   4.090   0.904   1.428  1.3165 -0.4167  0.9368
    1SOL    HW3 6347   4.085   0.763   1.373 -0.8358  0.5551 -1.4949
    1SOL    MW4 6348   4.047   0.840   1.387  0.1192  0.7243  0.3693
    1SOL     OW 6349   1.997   4.428   1.404 -0.3893  0.3773 -0.1380
    1SOL    HW2 6350   1.926   4.491   1.412  0.2696  1.0177  0.6030
    1SOL    HW3 6351   2.077   4.478   1.418  0.2356 -0.2996 -1.1872
    1SOL    MW4 6352   1.998   4.443   1.407 -0.2201  0.3724 -0.1787
    1SOL     OW 6353   1.683   1.543   2.900  0.4683  0.4487 -0.2071
    1SOL    HW2 6354   1.734   1.468   2.933  1.5890  2.0119  1.7086
    1SOL    HW3 6355   1.618   1.503   2.842 -1.1424 -2.3657  3.3546
    1SOL    MW4 6356   1.681   1.528   2.896  0.4036  0.2837  0.5155
    1SOL     OW 6357   1.003   1.837   2.749 -0.1050 -0.0005 -0.7038
    1SOL    HW2 6358   1.034   1.896   2.681  2.3257 -1.1850 -0.6898
    1SOL    HW3 6359   1.083   1.808   2.794 -1.5326 -0.3519  1.7309
    1SOL    MW4 6360   1.018   1.841   2.746  0.0273 -0.2031 -0.3808
    1SOL     OW 6361   1.895   2.652   1.293 -0.1431  0.0949 -0.9251
    1SOL    HW2 6362   1.938   2.682   1.373 -0.7710 -0.0252 -0.5326
    1SOL    HW3 6363   1.895   2.728   1.236 -1.3738  0.7425 -0.0874
    1SOL    MW4 6364   1.900   2.666   1.296 -0.3883  0.1643 -0.7628
    1SOL     OW 6365   1.271   1.371   2.708 -0.5514 -0.6334  0.3688
    1SOL    HW2 6366   1.296   1.298   2.651 -1.3502  1.5537 -2.9428
    1SOL    HW3 6367   1.179   1.353   2.730 -0.7267 -0.7064 -0.3811
    1SOL    MW4 6368   1.262   1.359   2.703 -0.6800 -0.3544 -0.1669
    1SOL     OW 6369   3.824   3.036   2.960 -0.3361  0.0817  0.1078
    1SOL    HW2 6370   3.802   3.125   2.934 -0.1443  0.0767 -0.0752
    1SOL    HW3 6371   3.740   2.995   2.981 -0.5856 -0.1921 -1.3884
    1SOL    MW4 6372   3.810   3.042   2.959 -0.3440  0.0451 -0.1137
    1SOL     OW 6373   3.081   0.080   3.401 -0.1469 -0.0007 -0.3380
    1SOL    HW2 6374   3.080  -0.002   3.451 -0.5692  0.2415  0.0637
    1SOL    HW3 6375   3.173   0.107   3.401  0.1218 -0.8842 -1.1658
    1SOL    MW4 6376   3.093   0.073   3.408 -0.1674 -0.0854 -0.3941
    1SOL     OW 6377   1.647   1.149   4.193  0.1348  0.0890 -0.5363
    1SOL    HW2 6378   1.668   1.055   4.194 -0.9021 -0.1480 -0.1305
    1SOL    HW3 6379   1.648   1.175   4.285 -2.8911 -0.3157 -0.3144
    1SOL    MW4 6380   1.650   1.140   4.205 -0.4011  0.0043 -0.4530
    1SOL     OW 6381   3.600   2.816   2.413  0.1181  0.3817  0.1272
    1SOL    HW2 6382   3.575   2.779   2.498 -0.7765 -0.9380 -0.6727
    1SOL    HW3 6383   3.681   2.863   2.430  0.8122 -1.1988  1.4130
    1SOL    MW4 6384   3.608   2.817   2.426  0.0918 -0.0010  0.1912
    1SOL     OW 6385   0.292   0.761   4.278 -0.1583  0.4624 -0.1362
    1SOL    HW2 6386   0.308   0.713   4.197  0.1191 -1.7432  1.1689
    1SOL    HW3 6387   0.201   0.741   4.301  0.5490 -1.0630  1.4326
    1SOL    MW4 6388   0.282   0.752   4.271 -0.0284 -0.0298  0.2427
    1SOL     OW 6389   2.402   0.950   4.389  0.0908 -0.8513  0.2218
    1SOL    HW2 6390   2.449   0.886   4.443 -0.6488 -0.6629  1.1059
    1SOL    HW3 6391   2.345   0.898   4.333  2.0149 -1.1346 -1.5316
    1SOL    MW4 6392   2.400   0.935   4.389  0.2468 -0.8639  0.1073
    1SOL     OW 6393   2.961   3.742   2.854 -0.1627  0.1540  0.2111
    1SOL    HW2 6394   2.956   3.786   2.939 -0.4410 -0.4504  0.5099
    1SOL    HW3 6395   3.048   3.764   2.821  0.3457 -0.4585  1.1161
    1SOL    MW4 6396   2.971   3.751   2.861 -0.1321 -0.0064  0.3698
    1SOL     OW 6397   3.494   4.030   2.333 -0.2362  0.0516 -0.2229
    1SOL    HW2 6398   3.572   4.050   2.281  0.2861 -0.4464  0.3655
    1SOL    HW3 6399   3.430   4.001   2.268 -0.2869  1.4693 -0.8287
    1SOL    MW4 6400   3.496   4.029   2.318 -0.1740  0.1731 -0.2253
    1SOL     OW 6401   3.079   2.638   1.172  0.0110  0.1183  0.7763
    1SOL    HW2 6402   3.007   2.694   1.198  0.2100  1.3141 -1.1384
    1SOL    HW3 6403   3.037   2.560   1.134 -0.2578 -0.8018  2.8821
    1SOL    MW4 6404   3.064   2.635   1.170  0.0019  0.1545  0.8014
    1SOL     OW 6405   2.923   2.680   4.503 -0.3356 -0.0784 -0.8302
    1SOL    HW2 6406   3.018   2.676   4.495 -0.2544  0.4418 -0.1830
    1SOL    HW3 6407   2.893   2.592   4.480  0.4749 -0.9234  1.2216
    1SOL    MW4 6408   2.932   2.668   4.499 -0.2179 -0.1211 -0.4745
    1SOL     OW 6409   1.318   4.456   0.649  0.0793  0.2083  0.1164
    1SOL    HW2 6410   1.256   4.398   0.693  0.6222  0.6590  1.5318
    1SOL    HW3 6411   1.327   4.530   0.709  1.6382  0.3560 -0.2756
    1SOL    MW4 6412   1.311   4.458   0.663  0.3566  0.2875  0.2515
    1SOL     OW 6413   4.186   1.734   1.104  0.2082 -0.0954  0.1647
    1SOL    HW2 6414   4.239   1.678   1.160  0.0690  0.5272  0.9274
    1SOL    HW3 6415   4.247   1.767   1.038  0.8544  0.8415  1.2046
    1SOL    MW4 6416   4.201   1.731   1.103  0.2756  0.1105  0.4026
    1SOL     OW 6417   3.999   4.611   3.317  0.0313 -0.2939 -0.0027
    1SOL    HW2 6418   4.041   4.694   3.295  0.1164  0.1342  1.6959
    1SOL    HW3 6419   4.066   4.562   3.365  0.3832 -1.8556 -1.9945
    1SOL    MW4 6420   4.014   4.615   3.321  0.0887 -0.4439 -0.0412
    1SOL     OW 6421   2.735   4.544   2.274 -0.1875 -0.4547 -0.0454
    1SOL    HW2 6422   2.675   4.470   2.262 -0.9037  0.2600 -1.0039
    1SOL    HW3 6423   2.818   4.513   2.237 -1.0820 -0.0119 -2.5295
    1SOL    MW4 6424   2.738   4.530   2.267 -0.4001 -0.3023 -0.4992
    1SOL     OW 6425   0.223   4.074   1.721  0.1985  0.2739  0.5687
    1SOL    HW2 6426   0.272   4.157   1.731 -0.4887  0.6585  0.7386
    1SOL    HW3 6427   0.131   4.100   1.724 -0.0457 -0.2131 -1.5859
    1SOL    MW4 6428   0.218   4.089   1.722  0.0756  0.2604  0.3068
    1SOL     OW 6429   1.579   1.216   0.638  0.0467 -0.3213  0.0152
    1SOL    HW2 6430   1.600   1.133   0.681 -0.1973 -0.9568 -1.0552
    1SOL    HW3 6431   1.493   1.240   0.672 -0.2147 -0.9008 -0.2124
    1SOL    MW4 6432   1.571   1.208   0.648 -0.0199 -0.4816 -0.1561
    1SOL     OW 6433   2.044   2.332   2.670  0.1389 -0.5303 -0.1203
    1SOL    HW2 6434   1.984   2.375   2.610 -0.5972 -2.3317 -0.7145
    1SOL    HW3 6435   1.999   2.332   2.754  0.0232 -0.3975 -0.1824
    1SOL    MW4 6436   2.030   2.337   2.673  0.0267 -0.7503 -0.2069
    1SOL     OW 6437   0.480   3.307   2.288 -0.2791 -0.2130  0.2487
    1SOL    HW2 6438   0.482   3.313   2.192 -0.1831  0.6496  0.3059
    1SOL    HW3 6439   0.387   3.304   2.309 -0.3318  1.0833  0.2196
    1SOL    MW4 6440   0.468   3.307   2.278 -0.2733  0.0720  0.2525
    1SOL     OW 6441   1.314   1.155   1.319 -0.0998 -0.1371 -0.4039
    1SOL    HW2 6442   1.358   1.111   1.391  0.2581  0.8434 -0.0233
    1SOL    HW3 6443   1.342   1.246   1.325 -1.1791  0.2422 -0.9203
    1SOL    MW4 6444   1.324   1.161   1.329 -0.1949  0.0423 -0.4219
    1SOL     OW 6445   0.904   3.243   1.362  0.3011  0.2627  0.0015
    1SOL    HW2 6446   0.835   3.211   1.419  1.3016  0.2536  1.2238
    1SOL    HW3 6447   0.872   3.225   1.273 -1.2689  0.2944  0.5401
    1SOL    MW4 6448   0.891   3.237   1.358  0.2259  0.2658  0.2338
    1SOL     OW 6449   1.516   3.520   1.199 -0.0520  0.7431 -0.2668
    1SOL    HW2 6450   1.486   3.430   1.183 -0.2182  0.6623  0.4874
    1SOL    HW3 6451   1.586   3.533   1.136 -0.4066  0.2781 -0.7709
    1SOL    MW4 6452   1.521   3.510   1.188 -0.1208  0.6711 -0.2338
    1SOL     OW 6453   2.949   3.224   4.588 -1.0225  0.5405 -0.2265
    1SOL    HW2 6454   2.981   3.142   4.549  0.6386  1.0488  0.0441
    1SOL    HW3 6455   2.920   3.199   4.676  0.5714  0.4432  0.2854
    1SOL    MW4 6456   2.949   3.210   4.594 -0.5932  0.5949 -0.1230
    1SOL     OW 6457   1.706   2.377   2.218 -0.0072  0.1298  0.4013
    1SOL    HW2 6458   1.762   2.367   2.295 -0.6224  0.3987  0.8839
    1SOL    HW3 6459   1.682   2.469   2.217 -0.2644  0.0607  0.0713
    1SOL    MW4 6460   1.710   2.388   2.228 -0.1223  0.1564  0.4215
    1SOL     OW 6461   1.480   1.742   4.103 -0.1931  1.2311 -0.1797
    1SOL    HW2 6462   1.418   1.672   4.080  2.4307 -0.8045 -1.3975
    1SOL    HW3 6463   1.465   1.809   4.036  1.3724 -0.8699 -2.7742
    1SOL    MW4 6464   1.470   1.741   4.091  0.3598  0.6852 -0.6824
    1SOL     OW 6465   3.060   1.252   2.767 -0.3146  0.1378 -0.0689
    1SOL    HW2 6466   3.026   1.254   2.677  0.7271 -0.0218 -0.4748
    1SOL    HW3 6467   3.046   1.161   2.795  0.9150 -0.2635 -0.6964
    1SOL    MW4 6468   3.054   1.240   2.759 -0.0148  0.0638 -0.2050
    1SOL     OW 6469   2.010   0.179   4.275 -0.5419 -0.3409 -0.3255
    1SOL    HW2 6470   2.104   0.190   4.287 -0.4921 -1.1695  0.1358
    1SOL    HW3 6471   1.997   0.185   4.181 -0.0437 -0.0737 -0.3787
    1SOL    MW4 6472   2.021   0.181   4.264 -0.4694 -0.4150 -0.2718
    1SOL     OW 6473   0.362   2.062   2.748 -0.1592 -0.2166 -0.1091
    1SOL    HW2 6474   0.267   2.050   2.750 -0.1751 -0.0198  1.1387
    1SOL    HW3 6475   0.395   1.986   2.700 -0.9596 -0.1723 -0.7350
    1SOL    MW4 6476   0.354   2.050   2.742 -0.2669 -0.1848 -0.0272
    1SOL     OW 6477   2.493   1.932   4.436 -0.3116  0.3050  0.2275
    1SOL    HW2 6478   2.462   2.020   4.455 -1.9855 -0.5381  1.6950
    1SOL    HW3 6479   2.423   1.893   4.384  1.1633  0.3493 -1.8478
    1SOL    MW4 6480   2.479   1.938   4.432 -0.3378  0.1997  0.1473
    1SOL     OW 6481   0.637   1.716   3.016 -0.2839 -0.1116  0.0222
    1SOL    HW2 6482   0.704   1.665   2.970 -0.4295 -1.1080  0.8960
    1SOL    HW3 6483   0.619   1.666   3.095 -0.8420  1.0240  0.6282
    1SOL    MW4 6484   0.644   1.703   3.020 -0.3768 -0.0932  0.2174
    1SOL     OW 6485   0.884   1.235   4.646  0.0780 -0.4349  0.1546
    1SOL    HW2 6486   0.848   1.191   4.723  1.3572 -1.8391 -0.0087
    1SOL    HW3 6487   0.883   1.167   4.578 -1.2997  0.8668 -1.1428
    1SOL    MW4 6488   0.879   1.220   4.647  0.0651 -0.4483 -0.0381
    1SOL     OW 6489   3.549   1.347   4.003  0.8252 -0.7081  0.2569
    1SOL    HW2 6490   3.492   1.338   3.926  1.8688 -0.6992 -0.5408
    1SOL    HW3 6491   3.489   1.353   4.077 -0.2385  0.9209 -0.7139
    1SOL    MW4 6492   3.534   1.346   4.002  0.8223 -0.4921  0.0238
    1SOL     OW 6493   3.469   0.305   0.772 -0.0781 -0.6217  0.0521
    1SOL    HW2 6494   3.378   0.278   0.758 -0.1233 -0.8447  0.7168
    1SOL    HW3 6495   3.462   0.384   0.825  0.1107 -0.6286  0.0875
    1SOL    MW4 6496   3.456   0.312   0.777 -0.0589 -0.6520  0.1445
    1SOL     OW 6497   2.332   1.450   1.038  0.0776 -0.2854 -0.5169
    1SOL    HW2 6498   2.376   1.440   0.953 -0.8795  2.2921 -1.3671
    1SOL    HW3 6499   2.274   1.526   1.026  1.6008  1.5912  3.1110
    1SOL    MW4 6500   2.330   1.459   1.025  0.1523  0.3022 -0.1503
    1SOL     OW 6501   1.578   3.776   3.556  0.3956  0.1533  0.3835
    1SOL    HW2 6502   1.665   3.814   3.541  0.0795  0.8430  0.3126
    1SOL    HW3 6503   1.584   3.688   3.518  0.8530  0.4484 -0.2307
    1SOL    MW4 6504   1.590   3.769   3.549  0.4143  0.2835  0.2933
    1SOL     OW 6505   2.641   0.177   1.144 -0.2104  0.1592 -0.3215
    1SOL    HW2 6506   2.635   0.146   1.234  1.2262  0.5521 -0.0766
    1SOL    HW3 6507   2.733   0.163   1.120 -0.0027  2.3554 -0.8836
    1SOL    MW4 6508   2.653   0.171   1.152  0.0064  0.5008 -0.3633
    1SOL     OW 6509   4.346   0.436   3.850 -0.4217 -0.1981  0.0463
    1SOL    HW2 6510   4.286   0.472   3.914 -0.9147 -0.2121 -0.4020
    1SOL    HW3 6511   4.384   0.513   3.807  1.2762 -0.1376  1.5759
    1SOL    MW4 6512   4.343   0.451   3.852 -0.2627 -0.1920  0.1891
    1SOL     OW 6513   3.347   2.871   2.929  0.5880  0.1452 -0.1974
    1SOL    HW2 6514   3.280   2.803   2.929  2.3475 -1.6585  0.0231
    1SOL    HW3 6515   3.344   2.908   2.841  0.1905 -0.8336 -0.6075
    1SOL    MW4 6516   3.338   2.867   2.917  0.7677 -0.2222 -0.2224
    1SOL     OW 6517   0.800   3.862   4.265 -0.0065  0.1093 -0.4208
    1SOL    HW2 6518   0.720   3.828   4.225  0.0247 -1.8647  1.1241
    1SOL    HW3 6519   0.772   3.942   4.310 -0.8512  0.0867 -0.8865
    1SOL    MW4 6520   0.786   3.868   4.265 -0.1137 -0.1543 -0.2785
    1SOL     OW 6521   3.628   2.435   2.475  0.3371  0.4636 -0.2735
    1SOL    HW2 6522   3.723   2.435   2.464  0.3028  1.0502 -0.6125
    1SOL    HW3 6523   3.612   2.500   2.544  0.2788 -0.5795  0.6985
    1SOL    MW4 6524   3.638   2.444   2.483  0.3247  0.4032 -0.1903
    1SOL     OW 6525   2.180   1.658   0.936 -0.4003  0.1707 -0.4357
    1SOL    HW2 6526   2.139   1.616   0.860  0.1225 -0.8171 -0.1845
    1SOL    HW3 6527   2.111   1.663   1.001 -0.7599  0.7129 -0.8506
    1SOL    MW4 6528   2.166   1.653   0.934 -0.3788  0.1121 -0.4573
    1SOL     OW 6529   0.202   3.175   3.500 -0.3840  0.1864 -0.3249
    1SOL    HW2 6530   0.221   3.083   3.518 -0.7388  0.3746  1.0381
    1SOL    HW3 6531   0.256   3.195   3.423  2.3759 -0.2067  1.4250
    1SOL    MW4 6532   0.212   3.165   3.492 -0.0667  0.1595  0.0858
    1SOL     OW 6533   3.681   2.234   2.694 -0.0718 -0.5594 -0.2005
    1SOL    HW2 6534   3.639   2.290   2.629 -0.1571 -0.0689  0.2745
    1SOL    HW3 6535   3.608   2.193   2.741 -0.0096 -0.8066 -0.3148
    1SOL    MW4 6536   3.666   2.236   2.692 -0.0749 -0.5274 -0.1528
    1SOL     OW 6537   3.232   2.797   0.529  0.1478  0.0241  0.4238
    1SOL    HW2 6538   3.244   2.703   0.541 -0.1908 -0.0596  0.1196
    1SOL    HW3 6539   3.246   2.834   0.616  0.7300 -0.2603  0.4497
    1SOL    MW4 6540   3.235   2.790   0.542  0.1798 -0.0246  0.3871
    1SOL     OW 6541   2.458   3.551   0.533 -0.2068 -0.0196 -0.0825
    1SOL    HW2 6542   2.501   3.536   0.617  0.6564  1.6384 -0.2041
    1SOL    HW3 6543   2.383   3.606   0.554  1.0115  1.8701 -0.6070
    1SOL    MW4 6544   2.454   3.556   0.547  0.0677  0.4487 -0.1678
    1SOL     OW 6545   1.135   0.751   3.191  0.0229  0.2203 -0.1932
    1SOL    HW2 6546   1.111   0.686   3.126 -2.2920  0.5308  0.2992
    1SOL    HW3 6547   1.129   0.704   3.275  1.2964  0.2723 -0.0694
    1SOL    MW4 6548   1.131   0.736   3.194 -0.1146  0.2681 -0.1118
    1SOL     OW 6549   0.231   1.487   1.685 -0.2833 -0.0721 -0.1196
    1SOL    HW2 6550   0.237   1.566   1.739 -0.3734 -1.1983  1.5653
    1SOL    HW3 6551   0.321   1.454   1.679 -0.2624  0.0831 -0.7239
    1SOL    MW4 6552   0.243   1.493   1.691 -0.2924 -0.2002  0.0228
    1SOL     OW 6553   2.088   1.532   1.870  0.0988 -0.0728 -0.5224
    1SOL    HW2 6554   1.999   1.567   1.862 -0.1717 -0.8918 -1.0350
    1SOL    HW3 6555   2.078   1.455   1.925  0.5208 -0.0748 -0.4521
    1SOL    MW4 6556   2.075   1.527   1.876  0.1187 -0.1811 -0.5807
    1SOL     OW 6557   0.900   0.067   1.917 -0.1349 -0.3032 -0.3393
    1SOL    HW2 6558   0.903   0.033   2.007 -2.7455  0.6233  0.1684
    1SOL    HW3 6559   0.943   0.153   1.922 -1.0236  0.1202  0.2444
    1SOL    MW4 6560   0.906   0.074   1.930 -0.5966 -0.1251 -0.1953
    1SOL     OW 6561   1.471   3.281   3.386 -0.0410 -0.3642 -0.1169
    1SOL    HW2 6562   1.503   3.358   3.433 -0.7222 -0.2953  0.2409
    1SOL    HW3 6563   1.400   3.248   3.440  0.3275 -1.3233 -0.2097
    1SOL    MW4 6564   1.466   3.287   3.399 -0.0821 -0.4816 -0.0820
    1SOL     OW 6565   3.380   3.616   2.419 -0.7660 -0.0698 -0.0581
    1SOL    HW2 6566   3.288   3.643   2.425 -1.0130 -0.7400 -0.7545
    1SOL    HW3 6567   3.388   3.544   2.481 -0.3701  0.8642  1.0007
    1SOL    MW4 6568   3.369   3.610   2.428 -0.7465 -0.0350 -0.0103
    1SOL     OW 6569   2.890   3.810   3.116  0.1451  0.0464 -0.3532
    1SOL    HW2 6570   2.823   3.874   3.091 -0.0576  0.2057  0.6006
    1SOL    HW3 6571   2.841   3.729   3.131  0.0820  0.3328  1.0008
    1SOL    MW4 6572   2.874   3.807   3.115  0.1101  0.1049 -0.0486
    1SOL     OW 6573   0.491   4.164   2.042 -0.2082  0.1481 -0.3088
    1SOL    HW2 6574   0.421   4.223   2.015  0.0836  1.4294  1.6553
    1SOL    HW3 6575   0.563   4.222   2.067  0.9328 -1.1110 -0.6202
    1SOL    MW4 6576   0.492   4.179   2.042 -0.0191  0.1512 -0.0908
    1SOL     OW 6577   0.065   1.990   1.893 -0.2201  0.3245  0.5596
    1SOL    HW2 6578   0.158   1.981   1.913 -0.4389 -1.5378  0.8359
    1SOL    HW3 6579   0.054   2.082   1.871  1.7825  0.4601  0.0499
    1SOL    MW4 6580   0.076   2.001   1.893  0.0153  0.0968  0.5288
    1SOL     OW 6581   3.619   3.921   1.912  0.3926  0.2666  0.1473
    1SOL    HW2 6582   3.631   3.903   1.819 -0.9326  0.4127 -0.0617
    1SOL    HW3 6583   3.551   3.988   1.915 -0.3779 -0.5495  1.2705
    1SOL    MW4 6584   3.612   3.928   1.900  0.1156  0.1781  0.2679
    1SOL     OW 6585   4.079   3.602   0.668 -0.6356  0.3475  0.0033
    1SOL    HW2 6586   4.039   3.518   0.692 -0.9212 -0.1465 -2.1123
    1SOL    HW3 6587   4.171   3.582   0.654 -0.4344  0.6688  0.8414
    1SOL    MW4 6588   4.086   3.589   0.670 -0.6466  0.3247 -0.1653
    1SOL     OW 6589   3.433   2.932   2.213 -0.3913  0.0198 -0.8012
    1SOL    HW2 6590   3.386   3.002   2.258  1.8487  0.8244  0.3749
    1SOL    HW3 6591   3.465   2.876   2.283  0.1514 -0.6763 -1.5966
    1SOL    MW4 6592   3.431   2.934   2.228 -0.0241  0.0346 -0.7510
    1SOL     OW 6593   0.279   0.339   2.739 -0.3936  0.4129  0.4040
    1SOL    HW2 6594   0.368   0.371   2.755 -0.4828  0.9030 -0.0932
    1SOL    HW3 6595   0.222   0.412   2.762 -0.6157  0.4561 -0.2581
    1SOL    MW4 6596   0.283   0.353   2.744 -0.4347  0.4833  0.2511
    1SOL     OW 6597   2.845   3.807   0.432  0.1797 -0.0408 -0.2915
    1SOL    HW2 6598   2.820   3.740   0.368 -0.6290 -0.5555  0.5537
    1SOL    HW3 6599   2.848   3.760   0.515  2.2075  0.4011 -0.0769
    1SOL    MW4 6600   2.842   3.792   0.434  0.3405 -0.0503 -0.1516
    1SOL     OW 6601   2.056   0.412   2.739  0.1931 -0.1874  0.3502
    1SOL    HW2 6602   2.086   0.349   2.805  1.0752  0.1461  0.2836
    1SOL    HW3 6603   2.112   0.489   2.753  0.7126 -0.2915 -1.0859
    1SOL    MW4 6604   2.067   0.414   2.750  0.3781 -0.1571  0.1519
    1SOL     OW 6605   2.574   3.385   2.996  0.2279 -0.0450  0.5637
    1SOL    HW2 6606   2.515   3.310   2.996  1.3624 -0.9367  1.3688
    1SOL    HW3 6607   2.600   3.395   2.905 -0.9778  0.2093  0.2382
    1SOL    MW4 6608   2.570   3.377   2.984  0.2186 -0.1292  0.6268
    1SOL     OW 6609   1.032   2.088   1.564  0.0358  0.3918 -0.1919
    1SOL    HW2 6610   1.053   2.180   1.579 -1.2231  0.5961  0.4110
    1SOL    HW3 6611   1.001   2.057   1.649  0.7316 -0.6709 -0.3241
    1SOL    MW4 6612   1.030   2.096   1.577 -0.0385  0.2785 -0.1299
    1SOL     OW 6613   2.786   4.256   1.762  0.0348  0.2466 -0.4412
    1SOL    HW2 6614   2.744   4.291   1.684 -1.0950  0.3293  0.1964
    1SOL    HW3 6615   2.797   4.163   1.742  0.1266  0.3439 -0.8606
    1SOL    MW4 6616   2.782   4.248   1.749 -0.1020  0.2704 -0.4125
    1SOL     OW 6617   0.573   1.296   4.026  0.1105  0.2364 -0.2518
    1SOL    HW2 6618   0.572   1.378   4.077 -1.4420 -0.7346  1.3645
    1SOL    HW3 6619   0.481   1.269   4.023  0.4818 -0.9442 -1.6257
    1SOL    MW4 6620   0.561   1.303   4.033 -0.0454 -0.0473 -0.2203
    1SOL     OW 6621   0.704   2.439   3.975  0.7143 -0.6461 -0.0818
    1SOL    HW2 6622   0.627   2.408   4.023 -0.1755  1.0936 -0.3323
    1SOL    HW3 6623   0.776   2.429   4.037 -0.1146 -0.1538  0.9867
    1SOL    MW4 6624   0.703   2.434   3.990  0.4876 -0.3517  0.0260
    1SOL     OW 6625   0.036   1.257   1.715 -0.2700 -0.3084 -0.3001
    1SOL    HW2 6626   0.004   1.284   1.801 -0.7602 -0.9273 -0.2911
    1SOL    HW3 6627   0.105   1.321   1.695 -1.1875  0.7558 -0.1291
    1SOL    MW4 6628   0.041   1.269   1.723 -0.4557 -0.2496 -0.2764
    1SOL     OW 6629   2.849   4.509   1.412 -0.2733 -0.1088  0.1097
    1SOL    HW2 6630   2.898   4.518   1.331 -0.0197 -0.8888  0.1722
    1SOL    HW3 6631   2.910   4.469   1.474 -0.7687 -0.4465  0.3926
    1SOL    MW4 6632   2.863   4.505   1.410 -0.3054 -0.2561  0.1552
    1SOL     OW 6633   1.249   4.150   1.643  0.3421 -0.5833  0.2806
    1SOL    HW2 6634   1.226   4.202   1.720 -0.5171 -1.2708  0.4925
    1SOL    HW3 6635   1.186   4.176   1.576  1.1004  0.0261 -0.2013
    1SOL    MW4 6636   1.238   4.160   1.644  0.3288 -0.5937  0.2450
    1SOL     OW 6637   4.079   4.036   3.824  0.1284 -0.1226 -0.5535
    1SOL    HW2 6638   4.151   4.022   3.762 -0.1436  1.2381 -1.1863
    1SOL    HW3 6639   4.001   4.044   3.769 -0.5522 -1.6552  0.1314
    1SOL    MW4 6640   4.078   4.035   3.808  0.0029 -0.1454 -0.5467
    1SOL     OW 6641   2.520   2.247   1.170  0.0088 -0.2969  0.0283
    1SOL    HW2 6642   2.503   2.153   1.169 -1.4367 -0.0817  1.3983
    1SOL    HW3 6643   2.447   2.284   1.119 -0.0107  0.1560  0.3894
    1SOL    MW4 6644   2.508   2.239   1.163 -0.1845 -0.2089  0.2567
    1SOL     OW 6645   4.134   0.156   0.663 -0.5917  0.3326  0.3470
    1SOL    HW2 6646   4.205   0.219   0.649 -0.2292 -0.9235 -4.2029
    1SOL    HW3 6647   4.054   0.206   0.644 -0.3376 -0.3488 -2.7218
    1SOL    MW4 6648   4.133   0.171   0.659 -0.5107  0.0770 -0.6582
    1SOL     OW 6649   0.019   1.925   3.514  0.2501  0.0964 -0.1151
    1SOL    HW2 6650  -0.008   1.863   3.447  1.4593  0.5289 -1.0423
    1SOL    HW3 6651   0.090   1.881   3.560  0.5790  0.4624 -0.2624
    1SOL    MW4 6652   0.025   1.911   3.511  0.4530  0.2018 -0.2568
    1SOL     OW 6653   4.199   3.156   1.991  0.7010 -0.0896  0.2881
    1SOL    HW2 6654   4.124   3.101   2.016 -1.5114  1.6071 -2.2511
    1SOL    HW3 6655   4.187   3.236   2.042  0.3595  0.4630 -0.6496
    1SOL    MW4 6656   4.187   3.159   2.001  0.3643  0.2072 -0.1705
    1SOL     OW 6657   2.196   0.759   1.586  0.0954  0.2112 -0.3912
    1SOL    HW2 6658   2.103   0.735   1.579  0.1953 -0.1962 -0.3364
    1SOL    HW3 6659   2.195   0.853   1.605 -0.3022  0.2436 -0.5663
    1SOL    MW4 6660   2.183   0.769   1.588  0.0558  0.1617 -0.4071
    1SOL     OW 6661   3.794   4.358   1.983  0.3027 -0.1834  0.3380
    1SOL    HW2 6662   3.743   4.321   1.911  0.3528 -1.1403  0.8010
    1SOL    HW3 6663   3.879   4.314   1.977  0.0179 -0.9014  1.5303
    1SOL    MW4 6664   3.799   4.347   1.972  0.2718 -0.4039  0.5563
    1SOL     OW 6665   0.125   3.710   4.094  0.2866  0.1679  0.3242
    1SOL    HW2 6666   0.159   3.624   4.119 -0.3392 -0.0617  0.3872
    1SOL    HW3 6667   0.033   3.708   4.120  0.0253  0.5019 -0.5612
    1SOL    MW4 6668   0.117   3.698   4.101  0.1696  0.1817  0.2155
    1SOL     OW 6669   0.015   2.943   3.329  0.2584 -0.0752  0.4177
    1SOL    HW2 6670   0.085   2.921   3.268  0.2659  2.1538 -0.4104
    1SOL    HW3 6671  -0.061   2.893   3.298  1.2329 -1.9066  0.8736
    1SOL    MW4 6672   0.014   2.933   3.317  0.3880 -0.0226  0.3688
    1SOL     OW 6673   4.366   0.810   4.084  0.0429 -0.2121  0.2002
    1SOL    HW2 6674   4.422   0.776   4.154 -0.4206 -1.0283  0.1886
    1SOL    HW3 6675   4.423   0.819   4.008 -0.0677 -2.1087 -0.1257
    1SOL    MW4 6676   4.381   0.807   4.083 -0.0329 -0.5700  0.1559
    1SOL     OW 6677   2.670   3.549   0.355  0.0544  0.3537  0.3668
    1SOL    HW2 6678   2.743   3.494   0.382  0.1936  0.4383  0.1594
    1SOL    HW3 6679   2.600   3.528   0.418 -0.3601 -1.0828 -0.5392
    1SOL    MW4 6680   2.670   3.539   0.367  0.0181  0.1755  0.2199
    1SOL     OW 6681   0.230   1.291   2.087  0.0821 -0.2782 -0.0759
    1SOL    HW2 6682   0.143   1.329   2.071  0.2836  0.0046 -0.5333
    1SOL    HW3 6683   0.237   1.220   2.023  0.4513  0.1392 -0.5107
    1SOL    MW4 6684   0.220   1.287   2.076  0.1574 -0.1858 -0.1936
    1SOL     OW 6685   3.394   4.278   4.603  0.5008  0.1117  0.6026
    1SOL    HW2 6686   3.325   4.344   4.610 -0.1440 -0.5808  0.8237
    1SOL    HW3 6687   3.476   4.327   4.609  0.0264  0.9616  0.1224
    1SOL    MW4 6688   3.396   4.293   4.605  0.3531  0.1326  0.5689
    1SOL     OW 6689   3.281   1.649   0.808  0.9681  0.2782 -0.2634
    1SOL    HW2 6690   3.324   1.641   0.893 -2.2136  0.4405  1.4434
    1SOL    HW3 6691   3.284   1.561   0.771  0.5008 -0.2600  0.9576
    1SOL    MW4 6692   3.287   1.636   0.814  0.4866  0.2286  0.1228
    1SOL     OW 6693   4.170   2.897   2.982  0.0819  0.3646  0.1464
    1SOL    HW2 6694   4.182   2.930   2.893 -0.5291  0.2742  0.0299
    1SOL    HW3 6695   4.140   2.974   3.032  0.6625  0.4744  0.3302
    1SOL    MW4 6696   4.167   2.912   2.977  0.0777  0.3669  0.1554
    1SOL     OW 6697   0.519   0.254   1.366 -0.0474 -0.0803 -0.5983
    1SOL    HW2 6698   0.458   0.266   1.439 -0.5656 -2.2746 -0.6429
    1SOL    HW3 6699   0.491   0.318   1.301 -0.9794  0.3737  0.2359
    1SOL    MW4 6700   0.508   0.264   1.367 -0.2387 -0.3099 -0.4939
    1SOL     OW 6701   1.521   4.435   1.914  0.1514 -0.0725 -0.4920
    1SOL    HW2 6702   1.610   4.400   1.906  0.2235  0.2787 -1.3050
    1SOL    HW3 6703   1.465   4.357   1.921  0.4479 -0.3129 -0.7854
    1SOL    MW4 6704   1.525   4.420   1.914  0.2002 -0.0577 -0.6380
    1SOL     OW 6705   0.346   3.378   1.159  0.2993  0.1192 -0.2520
    1SOL    HW2 6706   0.397   3.435   1.102 -1.7888 -0.2180 -2.5027
    1SOL    HW3 6707   0.408   3.309   1.185  2.0767  1.8922  0.3350
    1SOL    MW4 6708   0.361   3.376   1.155  0.2583  0.3085 -0.4715
    1SOL     OW 6709   2.040   0.423   1.304 -0.1373  0.1386  0.6861
    1SOL    HW2 6710   2.013   0.352   1.245 -1.4086  0.9106  0.3259
    1SOL    HW3 6711   1.990   0.408   1.384 -0.7009  0.8522  0.4690
    1SOL    MW4 6712   2.030   0.411   1.307 -0.3793  0.3346  0.6099
    1SOL     OW 6713   3.564   1.992   1.324  0.0552 -0.1607 -0.0254
    1SOL    HW2 6714   3.558   2.027   1.413 -0.8117 -0.8880  0.2033
    1SOL    HW3 6715   3.657   1.969   1.313  0.4830  1.4295  0.1108
    1SOL    MW4 6716   3.576   1.994   1.334 -0.0029 -0.0468  0.0228
    1SOL     OW 6717   4.113   2.683   2.689  0.1708  0.0396  0.0299
    1SOL    HW2 6718   4.035   2.732   2.714  1.2143  0.3627  2.7931
    1SOL    HW3 6719   4.184   2.747   2.692  0.6201 -0.2825 -2.3180
    1SOL    MW4 6720   4.112   2.698   2.693  0.3681  0.0396  0.0846
    1SOL     OW 6721   3.908   2.190   1.035 -0.2246  0.5536  0.1995
    1SOL    HW2 6722   3.923   2.273   1.081 -0.7908  0.8004 -0.0564
    1SOL    HW3 6723   3.987   2.139   1.051  0.3897  1.3902 -0.1730
    1SOL    MW4 6724   3.920   2.194   1.044 -0.2182  0.6962  0.1166
    1SOL     OW 6725   2.436   1.712   1.508 -0.0058  0.2230  0.1049
    1SOL    HW2 6726   2.525   1.739   1.529  0.2485 -0.8304  0.4597
    1SOL    HW3 6727   2.402   1.679   1.592 -0.5413  0.1215 -0.1528
    1SOL    MW4 6728   2.443   1.711   1.522 -0.0432  0.0706  0.1177
    1SOL     OW 6729   1.515   0.434   3.673  0.0439 -0.3352  0.5912
    1SOL    HW2 6730   1.610   0.421   3.673  0.1618  0.5390  0.5848
    1SOL    HW3 6731   1.494   0.462   3.584 -0.3091 -1.1056  0.4207
    1SOL    MW4 6732   1.524   0.436   3.661  0.0130 -0.3215  0.5677
    1SOL     OW 6733   3.783   4.662   3.503 -0.4785  0.0995  0.4590
    1SOL    HW2 6734   3.863   4.640   3.456 -0.7289  1.1247 -0.4563
    1SOL    HW3 6735   3.812   4.715   3.577 -0.2356 -0.2504  0.6165
    1SOL    MW4 6736   3.797   4.666   3.506 -0.4797  0.1888  0.3593
    1SOL     OW 6737   1.449   2.947   3.194 -0.1708  0.4763 -0.0521
    1SOL    HW2 6738   1.525   2.986   3.150  0.2601  1.5399  1.6226
    1SOL    HW3 6739   1.487   2.885   3.257 -0.7024  0.7820  0.5697
    1SOL    MW4 6740   1.464   2.944   3.196 -0.1842  0.6571  0.2511
    1SOL     OW 6741   1.830   0.829   4.470 -0.3091  0.0089 -0.4513
    1SOL    HW2 6742   1.745   0.796   4.498  0.0856 -0.0645  0.6875
    1SOL    HW3 6743   1.842   0.911   4.519  0.7256 -0.5093  0.1730
    1SOL    MW4 6744   1.820   0.836   4.480 -0.1206 -0.0691 -0.2189
    1SOL     OW 6745   0.123   0.133   2.624 -0.4566  0.1495  0.0641
    1SOL    HW2 6746   0.171   0.213   2.645 -2.1566  1.2032 -0.0056
    1SOL    HW3 6747   0.190   0.064   2.624  1.1053  1.6405 -0.3779
    1SOL    MW4 6748   0.138   0.134   2.627 -0.4748  0.4853 -0.0036
    1SOL     OW 6749   0.037   0.845   3.863 -0.2835  0.3932 -0.0037
    1SOL    HW2 6750   0.128   0.872   3.881 -0.4770  0.8020  0.3598
    1SOL    HW3 6751   0.046   0.771   3.803  0.2413  1.3239 -1.0807
    1SOL    MW4 6752   0.051   0.839   3.857 -0.2398  0.5699 -0.0978
    1SOL     OW 6753   3.874   1.790   4.377 -0.1426  0.7471 -0.6373
    1SOL    HW2 6754   3.812   1.815   4.446  0.4540  1.4640 -0.3609
    1SOL    HW3 6755   3.871   1.694   4.377 -0.8758  0.7631 -0.2846
    1SOL    MW4 6756   3.865   1.781   4.386 -0.1607  0.8439 -0.5550
    1SOL     OW 6757   0.124   1.198   4.167 -0.5698  0.5023 -0.7224
    1SOL    HW2 6758   0.120   1.279   4.217 -0.5493 -0.8427  1.5021
    1SOL    HW3 6759   0.036   1.161   4.174  0.1442 -0.9992  0.5774
    1SOL    MW4 6760   0.112   1.204   4.174 -0.4729  0.1267 -0.2570
    1SOL     OW 6761   0.490   3.686   2.842 -0.2367  0.6109 -0.3745
    1SOL    HW2 6762   0.519   3.680   2.933 -1.6553  1.1371  0.1334
    1SOL    HW3 6763   0.563   3.652   2.791  1.0012  1.3212  0.8864
    1SOL    MW4 6764   0.503   3.681   2.847 -0.2606  0.7739 -0.1411
    1SOL     OW 6765   0.556   1.214   1.996 -0.2589 -0.2743 -0.4518
    1SOL    HW2 6766   0.529   1.189   1.907  0.1417 -1.5826 -0.2158
    1SOL    HW3 6767   0.541   1.135   2.048  1.7015 -0.2407  0.1868
    1SOL    MW4 6768   0.550   1.200   1.991  0.0526 -0.4425 -0.3364
    1SOL     OW 6769   0.908   1.211   3.748 -0.4903 -0.3926  0.4356
    1SOL    HW2 6770   0.951   1.296   3.736  1.5633 -1.3194  1.0607
    1SOL    HW3 6771   0.816   1.233   3.759 -0.1115  1.6981 -0.2549
    1SOL    MW4 6772   0.902   1.225   3.748 -0.1695 -0.2390  0.4272
    1SOL     OW 6773   3.365   3.839   4.049 -0.0549  0.2574  0.1106
    1SOL    HW2 6774   3.282   3.792   4.049  1.0134 -1.6551  0.0614
    1SOL    HW3 6775   3.390   3.846   4.141  1.2503 -1.9688 -0.0278
    1SOL    MW4 6776   3.358   3.834   4.061  0.2580 -0.2887  0.0858
    1SOL     OW 6777   0.023   2.371   4.017  0.3967 -0.1430 -0.2369
    1SOL    HW2 6778   0.051   2.459   3.994  1.2935 -0.3510  0.0154
    1SOL    HW3 6779  -0.061   2.360   3.973  0.3503  0.7795 -0.3888
    1SOL    MW4 6780   0.016   2.381   4.008  0.5088 -0.0486 -0.2241
    1SOL     OW 6781   3.148   1.731   2.423  0.2647  0.0303  0.0616
    1SOL    HW2 6782   3.125   1.802   2.363 -0.2303  0.7798  1.1203
    1SOL    HW3 6783   3.067   1.711   2.469  0.7781 -0.1182  0.9113
    1SOL    MW4 6784   3.135   1.738   2.421  0.2673  0.1097  0.3133
    1SOL     OW 6785   3.170   0.958   0.867 -0.2179 -0.0480  0.2764
    1SOL    HW2 6786   3.261   0.944   0.895 -0.5811 -0.9145  1.0305
    1SOL    HW3 6787   3.178   0.986   0.776  0.7908 -0.5212  0.2097
    1SOL    MW4 6788   3.183   0.960   0.858 -0.1330 -0.2248  0.3671
    1SOL     OW 6789   2.388   3.637   2.984  0.2896 -0.3783  0.3753
    1SOL    HW2 6790   2.451   3.664   3.052 -0.6814  1.9085  0.4334
    1SOL    HW3 6791   2.317   3.701   2.992  0.3621  0.2057 -3.0979
    1SOL    MW4 6792   2.387   3.649   2.994  0.1712  0.0005 -0.0751
    1SOL     OW 6793   1.152   1.449   2.007 -0.0493 -0.0770  0.4336
    1SOL    HW2 6794   1.068   1.457   1.961 -0.0370  0.0857  0.4398
    1SOL    HW3 6795   1.211   1.508   1.960 -0.6240  1.8050  2.0185
    1SOL    MW4 6796   1.149   1.458   1.995 -0.1235  0.1926  0.6435
    1SOL     OW 6797   3.325   4.266   2.171  0.1170 -0.0898  0.3990
    1SOL    HW2 6798   3.369   4.351   2.170  2.2967 -1.1605  0.3690
    1SOL    HW3 6799   3.358   4.222   2.092  0.0324 -1.4401  1.1030
    1SOL    MW4 6800   3.335   4.271   2.160  0.3934 -0.4096  0.4878
    1SOL     OW 6801   0.184   2.893   3.558  0.0127  0.7216  0.0986
    1SOL    HW2 6802   0.119   2.920   3.493 -2.5384 -0.5752  2.0190
    1SOL    HW3 6803   0.215   2.808   3.527  3.6747  2.9829 -2.8059
    1SOL    MW4 6804   0.179   2.886   3.546  0.1592  0.8488 -0.0310
    1SOL     OW 6805   4.468   2.426   2.148 -0.7003  0.2220 -0.1631
    1SOL    HW2 6806   4.409   2.442   2.221  0.5652 -0.4360  1.0207
    1SOL    HW3 6807   4.416   2.446   2.070 -2.5461 -0.5694  0.8441
    1SOL    MW4 6808   4.454   2.431   2.147 -0.7772  0.0308  0.1259
    1SOL     OW 6809   3.538   3.441   3.883  0.5568  0.0945 -0.0422
    1SOL    HW2 6810   3.560   3.521   3.835  0.1817 -0.6530 -1.4814
    1SOL    HW3 6811   3.623   3.401   3.903  0.7104  0.3161 -0.2502
    1SOL    MW4 6812   3.552   3.446   3.879  0.5276  0.0253 -0.2594
    1SOL     OW 6813   2.580   2.612   2.204  0.1618  0.1562  0.4888
    1SOL    HW2 6814   2.548   2.557   2.132 -0.4683  3.2021 -1.6742
    1SOL    HW3 6815   2.526   2.588   2.279 -1.3368 -0.8887 -0.8960
    1SOL    MW4 6816   2.569   2.602   2.204 -0.1190  0.4203  0.0207
    1SOL     OW 6817   1.070   4.174   1.404  0.2134  0.0563 -0.1842
    1SOL    HW2 6818   0.994   4.230   1.421 -0.6736 -1.2149  0.1150
    1SOL    HW3 6819   1.118   4.219   1.335 -1.3229  0.3977 -1.0484
    1SOL    MW4 6820   1.066   4.187   1.398 -0.1062 -0.0668 -0.2586
    1SOL     OW 6821   1.638   0.445   3.267 -0.0053  0.3678  0.2761
    1SOL    HW2 6822   1.623   0.461   3.174  0.7433 -0.4409  0.0068
    1SOL    HW3 6823   1.622   0.351   3.278  1.1072  0.2154  0.7106
    1SOL    MW4 6824   1.634   0.434   3.256  0.2403  0.2410  0.2978
    1SOL     OW 6825   0.042   4.554   2.235 -0.3161 -0.0151 -0.5779
    1SOL    HW2 6826   0.010   4.603   2.311 -0.7312 -0.5889 -0.3884
    1SOL    HW3 6827  -0.012   4.475   2.232  0.7291 -0.7317 -0.5626
    1SOL    MW4 6828   0.031   4.550   2.244 -0.2331 -0.1855 -0.5512
    1SOL     OW 6829   0.834   3.835   3.803  0.0017  0.0643  0.0465
    1SOL    HW2 6830   0.753   3.833   3.854  0.5989 -0.6584  0.9818
    1SOL    HW3 6831   0.900   3.870   3.863  0.5115  0.1074 -0.5287
    1SOL    MW4 6832   0.832   3.839   3.817  0.1477 -0.0253  0.0942
    1SOL     OW 6833   4.458   3.476   1.193 -0.6079 -0.0035  0.6961
    1SOL    HW2 6834   4.476   3.451   1.284 -0.8308 -0.9803  0.4820
    1SOL    HW3 6835   4.399   3.408   1.161 -1.3862  0.9293  0.1425
    1SOL    MW4 6836   4.453   3.463   1.201 -0.7405 -0.0095  0.5950
    1SOL     OW 6837   3.768   1.634   4.606 -0.3794  0.4647 -0.2151
    1SOL    HW2 6838   3.812   1.598   4.683  2.3555  3.1199 -0.4581
    1SOL    HW3 6839   3.775   1.564   4.540  2.3797  0.3247  0.1699
    1SOL    MW4 6840   3.775   1.620   4.607  0.3455  0.7964 -0.1965
    1SOL     OW 6841   1.240   0.596   4.267  0.2667 -0.2576  0.3149
    1SOL    HW2 6842   1.310   0.635   4.214  0.2136 -0.6780 -0.0686
    1SOL    HW3 6843   1.159   0.624   4.224  0.2148 -0.3039  0.3829
    1SOL    MW4 6844   1.239   0.605   4.254  0.2527 -0.3191  0.2732
    1SOL     OW 6845   2.638   3.373   1.194 -0.2825  0.5715 -0.5718
    1SOL    HW2 6846   2.573   3.363   1.124  0.4378  0.0788 -1.1787
    1SOL    HW3 6847   2.588   3.407   1.268 -1.0291  1.2543 -1.3718
    1SOL    MW4 6848   2.622   3.377   1.194 -0.2861  0.5965 -0.7573
    1SOL     OW 6849   1.393   3.256   1.150  0.2255 -0.6431  0.0246
    1SOL    HW2 6850   1.431   3.223   1.232  0.1160  0.2772  0.4523
    1SOL    HW3 6851   1.431   3.200   1.082  1.8402 -0.1703  0.5079
    1SOL    MW4 6852   1.403   3.245   1.152  0.4241 -0.4594  0.1448
    1SOL     OW 6853   4.072   4.659   4.127 -0.0199  0.0672  0.1848
    1SOL    HW2 6854   4.068   4.642   4.033 -0.5786 -0.4485  0.3032
    1SOL    HW3 6855   4.153   4.616   4.156 -1.1015 -1.9115  0.3699
    1SOL    MW4 6856   4.082   4.651   4.119 -0.2360 -0.2618  0.2251
    1SOL     OW 6857   3.370   2.617   3.980  0.2822  0.1209 -0.1553
    1SOL    HW2 6858   3.324   2.661   4.052 -0.9892 -0.7980 -0.3864
    1SOL    HW3 6859   3.457   2.599   4.014 -0.3360 -0.3739  1.1867
    1SOL    MW4 6860   3.376   2.621   3.994  0.0329 -0.0656 -0.0088
    1SOL     OW 6861   1.353   0.815   1.711 -0.4798  0.2647 -0.0760
    1SOL    HW2 6862   1.352   0.721   1.694 -0.2535  0.2108  0.2008
    1SOL    HW3 6863   1.262   0.843   1.702 -0.2932  0.3337 -1.9203
    1SOL    MW4 6864   1.341   0.807   1.707 -0.4253  0.2667 -0.2828
    1SOL     OW 6865   2.903   4.139   3.400  0.1179  0.8048 -0.2119
    1SOL    HW2 6866   2.969   4.105   3.341  0.7071  1.6672 -0.0537
    1SOL    HW3 6867   2.933   4.113   3.488 -2.0565 -2.7234 -0.4045
    1SOL    MW4 6868   2.915   4.131   3.404 -0.0913  0.4535 -0.2165
    1SOL     OW 6869   1.999   0.562   3.702 -0.2814  0.2235 -0.1765
    1SOL    HW2 6870   1.935   0.492   3.698  0.4864 -0.4848 -0.1501
    1SOL    HW3 6871   1.952   0.640   3.672 -0.9129 -0.4592 -0.9477
    1SOL    MW4 6872   1.985   0.563   3.698 -0.2635  0.0400 -0.2749
    1SOL     OW 6873   3.431   2.038   0.665 -0.0530  0.4310  0.5926
    1SOL    HW2 6874   3.404   2.123   0.629  3.1768  2.0661  1.8367
    1SOL    HW3 6875   3.409   2.043   0.758  0.0913 -0.1073  0.6570
    1SOL    MW4 6876   3.424   2.050   0.672  0.3922  0.5758  0.7653
    1SOL     OW 6877   3.610   4.272   3.120 -1.0367  0.1806  0.0346
    1SOL    HW2 6878   3.658   4.265   3.037 -1.6494  0.5098 -0.3553
    1SOL    HW3 6879   3.574   4.184   3.134 -0.3743 -0.0508  0.2968
    1SOL    MW4 6880   3.611   4.259   3.111 -1.0304  0.1931  0.0174
    1SOL     OW 6881   3.431   3.307   2.839  0.8280 -0.1864  0.0958
    1SOL    HW2 6882   3.364   3.249   2.875  0.0106  1.8527  1.9486
    1SOL    HW3 6883   3.382   3.375   2.793  1.7437 -0.3682 -1.1744
    1SOL    MW4 6884   3.415   3.309   2.837  0.8411  0.0587  0.1726
    1SOL     OW 6885   1.841   0.399   0.849 -0.3803  0.6586  0.2857
    1SOL    HW2 6886   1.909   0.336   0.827 -0.5215 -0.4917  2.9700
    1SOL    HW3 6887   1.885   0.484   0.844  1.0715 -0.0145  1.2662
    1SOL    MW4 6888   1.856   0.402   0.845 -0.2074  0.4181  0.7693
    1SOL     OW 6889   3.607   2.545   3.172  0.6487 -0.3477 -0.1411
    1SOL    HW2 6890   3.651   2.489   3.107  2.0634  1.1049 -0.4478
    1SOL    HW3 6891   3.665   2.620   3.184 -1.4735  1.3704 -0.1585
    1SOL    MW4 6892   3.620   2.547   3.165  0.5555  0.0706 -0.1838
    1SOL     OW 6893   0.541   3.485   4.237  0.0714  0.3204 -0.2288
    1SOL    HW2 6894   0.534   3.499   4.142  1.9858 -1.6212 -0.7204
    1SOL    HW3 6895   0.478   3.415   4.255 -1.5030  1.8364  0.2540
    1SOL    MW4 6896   0.532   3.477   4.227  0.1162  0.2642 -0.2298
    1SOL     OW 6897   4.309   3.856   2.970  0.7265  0.0734 -0.0815
    1SOL    HW2 6898   4.244   3.884   2.906 -0.8523 -0.0098  1.4201
    1SOL    HW3 6899   4.317   3.930   3.030 -1.0331 -1.3503  2.0362
    1SOL    MW4 6900   4.301   3.869   2.970  0.2856 -0.1256  0.3963
    1SOL     OW 6901   4.480   1.590   4.641 -0.1944 -0.2069 -0.0887
    1SOL    HW2 6902   4.398   1.601   4.689 -1.7824 -0.8909 -2.5609
    1SOL    HW3 6903   4.468   1.508   4.592  2.5241 -1.0681  0.6030
    1SOL    MW4 6904   4.468   1.580   4.641 -0.0453 -0.4108 -0.3238
    1SOL     OW 6905   0.577   2.579   2.212  0.2703  0.7835  0.6397
    1SOL    HW2 6906   0.523   2.509   2.247 -1.8801  2.1824  0.1864
    1SOL    HW3 6907   0.546   2.658   2.255  1.3332  1.7512 -0.3125
    1SOL    MW4 6908   0.566   2.580   2.222  0.1268  1.0958  0.4542
    1SOL     OW 6909   3.738   1.171   2.448 -0.3596  0.1426  0.5723
    1SOL    HW2 6910   3.823   1.133   2.429 -0.1625  1.0087 -0.2566
    1SOL    HW3 6911   3.733   1.171   2.544  1.4096  1.9719  0.6709
    1SOL    MW4 6912   3.748   1.166   2.458 -0.1001  0.4983  0.4761
    1SOL     OW 6913   2.054   1.547   3.786  0.3730 -0.4099  0.1256
    1SOL    HW2 6914   2.018   1.509   3.706  0.6294 -2.3710  0.9091
    1SOL    HW3 6915   2.027   1.639   3.784  0.5568 -0.4000 -2.2982
    1SOL    MW4 6916   2.045   1.554   3.775  0.4311 -0.6673 -0.0906
    1SOL     OW 6917   2.492   1.667   2.005 -0.7130  0.1726 -0.2269
    1SOL    HW2 6918   2.430   1.647   1.935 -1.7729 -0.9246  1.0002
    1SOL    HW3 6919   2.447   1.730   2.060 -0.4087  0.0022  0.2185
    1SOL    MW4 6920   2.478   1.672   2.003 -0.8125  0.0055 -0.0062
    1SOL     OW 6921   0.605   2.085   1.912 -0.5191 -0.1685  0.5194
    1SOL    HW2 6922   0.697   2.111   1.905 -0.8302  0.6027 -0.8992
    1SOL    HW3 6923   0.603   1.995   1.880 -0.5103  0.3749 -1.0460
    1SOL    MW4 6924   0.617   2.077   1.907 -0.5590  0.0048  0.1258
    1SOL     OW 6925   3.592   3.788   2.446  0.1329  0.0873 -0.7140
    1SOL    HW2 6926   3.577   3.859   2.384 -0.4446 -0.3641 -1.0952
    1SOL    HW3 6927   3.513   3.734   2.441  0.3048 -0.2446  0.0234
    1SOL    MW4 6928   3.580   3.790   2.437  0.0792 -0.0162 -0.6669
    1SOL     OW 6929   2.936   1.523   2.936 -0.1333  0.1886  0.0552
    1SOL    HW2 6930   2.934   1.510   2.841 -1.1162 -0.1288  0.1182
    1SOL    HW3 6931   3.002   1.461   2.967 -0.4154 -0.3015 -0.3256
    1SOL    MW4 6932   2.945   1.513   2.927 -0.3004  0.0821  0.0131
    1SOL     OW 6933   0.755   2.582   1.851  0.2070  0.0070 -0.2040
    1SOL    HW2 6934   0.699   2.652   1.882 -0.3054 -0.9111  1.0121
    1SOL    HW3 6935   0.695   2.511   1.827  0.7544 -0.3853 -0.4408
    1SOL    MW4 6936   0.740   2.582   1.852  0.2115 -0.1657 -0.0747
    1SOL     OW 6937   2.282   2.674   3.536  0.1216 -0.3427  0.0593
    1SOL    HW2 6938   2.321   2.682   3.449 -0.4208  1.9556 -0.0029
    1SOL    HW3 6939   2.189   2.689   3.523  0.0477  0.0817  1.0529
    1SOL    MW4 6940   2.275   2.677   3.523  0.0403  0.0167  0.1819
    1SOL     OW 6941   1.102   1.549   0.529  0.2952 -0.0672 -0.5052
    1SOL    HW2 6942   1.146   1.521   0.449 -0.4542 -0.0902 -0.9075
    1SOL    HW3 6943   1.009   1.532   0.514  0.1577 -0.1661  0.4050
    1SOL    MW4 6944   1.096   1.543   0.517  0.1781 -0.0833 -0.4382
    1SOL     OW 6945   3.346   3.536   3.358  0.1276  0.5476 -0.0664
    1SOL    HW2 6946   3.399   3.603   3.401  0.0577  0.4988  0.0935
    1SOL    HW3 6947   3.381   3.453   3.388  0.8455  0.4924 -1.0148
    1SOL    MW4 6948   3.357   3.534   3.367  0.2131  0.5338 -0.1705
    1SOL     OW 6949   2.456   4.143   2.974 -0.0659  0.0262  0.4679
    1SOL    HW2 6950   2.420   4.101   2.896 -0.2709  0.3340  0.3990
    1SOL    HW3 6951   2.488   4.070   3.028  0.1705 -0.1803  0.0498
    1SOL    MW4 6952   2.456   4.127   2.971 -0.0618  0.0401  0.4039
    1SOL     OW 6953   2.961   1.107   1.348 -0.4849  0.4579 -0.4926
    1SOL    HW2 6954   2.880   1.107   1.296 -1.2924  0.1772  0.7280
    1SOL    HW3 6955   3.009   1.184   1.318 -0.2854 -0.4592 -2.6295
    1SOL    MW4 6956   2.957   1.117   1.337 -0.5648  0.2998 -0.6135
    1SOL     OW 6957   4.210   1.459   2.978  0.0019  0.0024 -0.2357
    1SOL    HW2 6958   4.177   1.462   3.068 -1.0845 -3.0344 -0.4600
    1SOL    HW3 6959   4.157   1.523   2.931 -0.9575  0.0196  0.8331
    1SOL    MW4 6960   4.198   1.467   2.984 -0.2685 -0.3959 -0.1242
    1SOL     OW 6961   2.353   3.181   2.407  0.3112 -0.0241 -0.7264
    1SOL    HW2 6962   2.346   3.188   2.312  0.6847  0.6073 -0.7102
    1SOL    HW3 6963   2.289   3.114   2.431 -0.9672  0.9776 -1.2505
    1SOL    MW4 6964   2.344   3.173   2.398  0.1917  0.1915 -0.7935
    1SOL     OW 6965   3.078   2.223   4.452 -0.0198 -0.0125 -0.3069
    1SOL    HW2 6966   3.027   2.294   4.411 -0.5383  0.4779  1.1658
    1SOL    HW3 6967   3.013   2.171   4.498  0.3765 -1.4197 -1.3097
    1SOL    MW4 6968   3.062   2.226   4.452 -0.0360 -0.1335 -0.2456
    1SOL     OW 6969   1.176   4.625   3.475 -0.5788 -0.2167  0.3194
    1SOL    HW2 6970   1.241   4.678   3.521 -0.4351 -0.7551  0.7439
    1SOL    HW3 6971   1.163   4.548   3.531  0.1646 -1.2595 -0.9105
    1SOL    MW4 6972   1.183   4.622   3.488 -0.4617 -0.4253  0.2131
    1SOL     OW 6973   0.422   3.246   3.953 -0.5225  0.1258 -0.1819
    1SOL    HW2 6974   0.515   3.253   3.975 -0.9533  2.9919  0.9028
    1SOL    HW3 6975   0.390   3.173   4.006  0.9322 -0.4147 -0.0277
    1SOL    MW4 6976   0.430   3.237   3.963 -0.3874  0.4325 -0.0184
    1SOL     OW 6977   3.734   3.131   0.869  0.3124 -0.0842 -0.1680
    1SOL    HW2 6978   3.780   3.120   0.786 -0.3812 -1.7596 -0.3363
    1SOL    HW3 6979   3.783   3.199   0.915 -0.0972  1.8623 -2.5221
    1SOL    MW4 6980   3.746   3.139   0.864  0.1669 -0.0484 -0.5008
    1SOL     OW 6981   0.432   1.401   2.278  0.3815 -0.4443 -0.0927
    1SOL    HW2 6982   0.507   1.445   2.235 -1.8548  2.2957 -1.3926
    1SOL    HW3 6983   0.378   1.370   2.205 -0.6633 -0.7553  0.8046
    1SOL    MW4 6984   0.435   1.403   2.262 -0.0514 -0.1237 -0.1462
    1SOL     OW 6985   1.476   2.194   2.797  0.3284 -0.2013  0.3648
    1SOL    HW2 6986   1.473   2.098   2.798 -0.2769 -0.1795  1.0637
    1SOL    HW3 6987   1.384   2.221   2.794  0.5290  0.3433 -3.6088
    1SOL    MW4 6988   1.463   2.185   2.796  0.2750 -0.1266 -0.0672
    1SOL     OW 6989   3.100   0.895   1.157 -0.6459  0.0286  0.0087
    1SOL    HW2 6990   3.104   0.929   1.068 -1.1725  1.0913  0.3845
    1SOL    HW3 6991   3.069   0.969   1.210 -0.5464 -0.6529  1.0382
    1SOL    MW4 6992   3.097   0.909   1.152 -0.7021  0.0789  0.1940
    1SOL     OW 6993   3.899   2.831   4.429  0.0378 -0.1654 -0.0460
    1SOL    HW2 6994   3.955   2.756   4.450 -0.5284 -0.7095 -0.4678
    1SOL    HW3 6995   3.921   2.896   4.496  1.8422 -0.0165 -0.7521
    1SOL    MW4 6996   3.909   2.829   4.441  0.2012 -0.2177 -0.1945
    1SOL     OW 6997   1.395   4.007   3.461  0.2267  1.0076 -1.0482
    1SOL    HW2 6998   1.412   3.916   3.486 -0.9134  0.7283 -1.2485
    1SOL    HW3 6999   1.389   4.053   3.545 -0.6936  0.6097 -0.8840
    1SOL    MW4 7000   1.397   4.001   3.475 -0.0452  0.9189 -1.0529
    1SOL     OW 7001   0.522   4.102   4.402  0.4888  0.0027 -0.3103
    1SOL    HW2 7002   0.497   4.060   4.320 -0.6535  0.1636 -0.0516
    1SOL    HW3 7003   0.618   4.104   4.400  0.5458 -2.3623 -0.4318
    1SOL    MW4 7004   0.532   4.097   4.391  0.3456 -0.2885 -0.2923
    1SOL     OW 7005   2.115   1.298   2.359  0.8017  0.6610 -0.0112
    1SOL    HW2 7006   2.099   1.383   2.400 -0.7320  0.1963  0.3830
    1SOL    HW3 7007   2.087   1.310   2.268 -1.2180  0.0622  0.4993
    1SOL    MW4 7008   2.109   1.311   2.352  0.3331  0.5207  0.1080
    1SOL     OW 7009   3.736   4.007   4.064  0.4381 -0.4999  0.0005
    1SOL    HW2 7010   3.727   3.914   4.084 -0.6488 -0.0784  1.4890
    1SOL    HW3 7011   3.646   4.041   4.063  0.9878  1.1176  2.3245
    1SOL    MW4 7012   3.723   3.999   4.066  0.3672 -0.2313  0.5035
    1SOL     OW 7013   1.067   1.033   1.344 -0.1602 -0.1548  0.2220
    1SOL    HW2 7014   1.091   0.941   1.354 -0.3640 -0.1441  0.8754
    1SOL    HW3 7015   1.151   1.080   1.345 -0.1395 -0.2009  1.5324
    1SOL    MW4 7016   1.081   1.027   1.346 -0.1843 -0.1594  0.4812
    1SOL     OW 7017   1.997   1.557   2.459  0.2726 -0.0219 -0.7297
    1SOL    HW2 7018   2.068   1.616   2.433 -0.5344  1.6813  0.8039
    1SOL    HW3 7019   1.992   1.566   2.554 -2.2228  0.1457 -0.8514
    1SOL    MW4 7020   2.006   1.566   2.468 -0.1631  0.2251 -0.5434
    1SOL     OW 7021   3.036   0.842   1.800 -0.3810  0.8743  0.5499
    1SOL    HW2 7022   3.071   0.754   1.787 -2.3022 -0.0731  1.5683
    1SOL    HW3 7023   3.026   0.878   1.712 -1.0898 -0.5237  0.0619
    1SOL    MW4 7024   3.040   0.835   1.787 -0.7281  0.5648  0.6199
    1SOL     OW 7025   1.572   1.932   2.092  0.6212 -0.3058 -0.7282
    1SOL    HW2 7026   1.616   1.982   2.161  2.6309 -2.2656 -0.5197
    1SOL    HW3 7027   1.597   1.975   2.011  1.5070 -0.3706 -0.4928
    1SOL    MW4 7028   1.581   1.944   2.091  1.0031 -0.5729 -0.6697
    1SOL     OW 7029   2.140   0.641   1.215  0.4179  0.0278  0.1556
    1SOL    HW2 7030   2.063   0.698   1.224  1.3433  1.5185 -1.0679
    1SOL    HW3 7031   2.110   0.555   1.245 -1.1992  1.0010  1.4339
    1SOL    MW4 7032   2.126   0.638   1.220  0.3266  0.3529  0.1628
    1SOL     OW 7033   0.853   4.540   0.595  0.1201 -0.3619 -0.5081
    1SOL    HW2 7034   0.916   4.600   0.555  0.7024 -2.5526 -2.9769
    1SOL    HW3 7035   0.866   4.553   0.690  2.7233  0.8099 -0.9631
    1SOL    MW4 7036   0.863   4.550   0.603  0.5404 -0.4959 -0.8938
    1SOL     OW 7037   2.937   1.535   1.465 -0.0644  0.7325  0.1543
    1SOL    HW2 7038   2.986   1.475   1.408  1.0384  2.5116 -0.8208
    1SOL    HW3 7039   2.868   1.570   1.409  0.1396  1.3899  0.3080
    1SOL    MW4 7040   2.935   1.532   1.450  0.1078  1.0539  0.0459
    1SOL     OW 7041   1.640   3.543   0.919 -0.9010  0.8342  0.0146
    1SOL    HW2 7042   1.660   3.616   0.861 -1.3064  1.7345  0.9928
    1SOL    HW3 7043   1.549   3.521   0.900 -0.7244  0.4701 -0.4055
    1SOL    MW4 7044   1.631   3.550   0.909 -0.9313  0.9053  0.0883
    1SOL     OW 7045   1.725   3.216   1.970 -0.1303 -0.4683 -0.2527
    1SOL    HW2 7046   1.768   3.131   1.982 -0.3683 -0.7443 -1.2917
    1SOL    HW3 7047   1.785   3.264   1.913 -0.1690 -0.0699  0.0449
    1SOL    MW4 7048   1.739   3.211   1.964 -0.1668 -0.4520 -0.3505
    1SOL     OW 7049   0.213   0.193   1.167 -0.5608 -0.0492  0.2427
    1SOL    HW2 7050   0.236   0.142   1.088  0.7932  1.7287 -0.5521
    1SOL    HW3 7051   0.125   0.164   1.189 -1.0645 -0.4256 -2.0829
    1SOL    MW4 7052   0.204   0.182   1.159 -0.4486  0.1357 -0.1689
    1SOL     OW 7053   3.865   3.070   0.633 -0.2947  0.1455 -0.1507
    1SOL    HW2 7054   3.806   3.011   0.585 -0.7154 -1.0677  1.7957
    1SOL    HW3 7055   3.951   3.055   0.593 -0.6063 -0.9443 -0.4393
    1SOL    MW4 7056   3.868   3.060   0.621 -0.3912 -0.1583  0.0680
    1SOL     OW 7057   2.634   1.444   4.365 -0.2477 -0.0845  0.4931
    1SOL    HW2 7058   2.640   1.421   4.457 -0.1859  1.9721  1.0229
    1SOL    HW3 7059   2.588   1.370   4.325 -1.1285 -0.5614  2.3336
    1SOL    MW4 7060   2.629   1.431   4.372 -0.3557  0.1240  0.8054
    1SOL     OW 7061   1.713   0.502   1.334 -0.1179  0.0491  0.0688
    1SOL    HW2 7062   1.738   0.458   1.253 -1.4021  0.4694 -0.5695
    1SOL    HW3 7063   1.733   0.439   1.403 -1.6501 -1.4381 -0.8063
    1SOL    MW4 7064   1.719   0.488   1.332 -0.4895 -0.0917 -0.1309
    1SOL     OW 7065   1.114   2.340   3.897  0.1239  0.2039 -0.0802
    1SOL    HW2 7066   1.091   2.279   3.967  0.3681  0.8348  0.5486
    1SOL    HW3 7067   1.208   2.353   3.906  0.8777 -2.6013 -2.8370
    1SOL    MW4 7068   1.123   2.333   3.907  0.2556 -0.0830 -0.3607
    1SOL     OW 7069   2.385   4.174   1.587  0.2869  0.0967  0.2167
    1SOL    HW2 7070   2.390   4.267   1.609  0.2072  0.4001 -1.0153
    1SOL    HW3 7071   2.355   4.172   1.496  0.6268 -1.1231  0.1164
    1SOL    MW4 7072   2.382   4.186   1.578  0.3214 -0.0238  0.0410
    1SOL     OW 7073   0.512   4.497   2.911  0.4417 -0.2991 -0.1807
    1SOL    HW2 7074   0.442   4.509   2.847  0.6970  0.3000 -0.3545
    1SOL    HW3 7075   0.469   4.504   2.996  0.0117 -1.6246 -0.2866
    1SOL    MW4 7076   0.498   4.500   2.914  0.4186 -0.3943 -0.2177
    1SOL     OW 7077   3.760   4.302   3.372  0.4302 -0.1474 -0.8314
    1SOL    HW2 7078   3.754   4.207   3.386  0.6152  0.1281  1.2516
    1SOL    HW3 7079   3.722   4.316   3.285 -0.0763 -2.0665 -0.9383
    1SOL    MW4 7080   3.754   4.291   3.362  0.3874 -0.3643 -0.5705
    1SOL     OW 7081   0.725   1.926   3.884  0.3878 -0.3711  0.8972
    1SOL    HW2 7082   0.807   1.924   3.835  0.0626  1.0081  0.2762
    1SOL    HW3 7083   0.661   1.883   3.827  0.5776 -1.0420  1.1898
    1SOL    MW4 7084   0.727   1.920   3.870  0.3700 -0.2778  0.8540
    1SOL     OW 7085   2.528   3.702   3.209  0.2102 -0.6640  0.0901
    1SOL    HW2 7086   2.490   3.767   3.268 -1.9994 -1.5235 -0.3203
    1SOL    HW3 7087   2.522   3.620   3.257 -1.0598 -1.2748 -1.0624
    1SOL    MW4 7088   2.522   3.700   3.223 -0.2489 -0.8578 -0.1159
    1SOL     OW 7089   2.122   2.321   3.308 -0.2946  0.2203  0.1824
    1SOL    HW2 7090   2.171   2.339   3.388 -0.9783 -2.1066  1.1807
    1SOL    HW3 7091   2.187   2.286   3.246  0.1366  1.5315 -0.1209
    1SOL    MW4 7092   2.137   2.318   3.310 -0.3278  0.0861  0.2742
    1SOL     OW 7093   0.613   1.882   1.729 -0.1262 -0.4566 -0.0053
    1SOL    HW2 7094   0.707   1.885   1.708 -0.0069  2.0424  0.7158
    1SOL    HW3 7095   0.572   1.942   1.666 -0.7752  1.0626  1.8308
    1SOL    MW4 7096   0.620   1.891   1.718 -0.1962  0.0737  0.3320
    1SOL     OW 7097   1.539   2.853   4.448  0.3817 -0.3386  0.8366
    1SOL    HW2 7098   1.619   2.868   4.398 -0.9858  0.0666 -1.2891
    1SOL    HW3 7099   1.499   2.776   4.407 -0.7133 -0.0529  1.3522
    1SOL    MW4 7100   1.544   2.845   4.436  0.0569 -0.2472  0.6247
    1SOL     OW 7101   1.236   2.955   4.700 -0.0211  0.1265  0.2421
    1SOL    HW2 7102   1.256   2.970   4.607 -2.1068 -1.2683 -0.4495
    1SOL    HW3 7103   1.220   3.043   4.735  0.3593  0.6217 -0.7993
    1SOL    MW4 7104   1.237   2.969   4.692 -0.2459  0.0079  0.0134
    1SOL     OW 7105   3.966   0.105   1.110 -0.3616 -0.2571  0.4083
    1SOL    HW2 7106   3.927   0.187   1.080  1.0321 -0.3437 -1.7470
    1SOL    HW3 7107   3.893   0.043   1.112 -0.7387  0.0663 -1.7582
    1SOL    MW4 7108   3.951   0.107   1.106 -0.2277 -0.2258 -0.1620
    1SOL     OW 7109   3.348   0.286   2.726 -0.6596 -0.1020 -0.5313
    1SOL    HW2 7110   3.353   0.207   2.671 -1.5922  0.1877 -1.0410
    1SOL    HW3 7111   3.283   0.264   2.793 -0.7265  0.1436 -0.5178
    1SOL    MW4 7112   3.340   0.273   2.727 -0.7913 -0.0314 -0.5968
    1SOL     OW 7113   3.792   1.166   3.124 -0.1219  0.2270  0.2237
    1SOL    HW2 7114   3.862   1.197   3.182 -0.6151 -0.1806  1.0570
    1SOL    HW3 7115   3.733   1.240   3.116  0.3269  0.5262 -0.3666
    1SOL    MW4 7116   3.794   1.180   3.131 -0.1278  0.2127  0.2561
    1SOL     OW 7117   3.643   3.461   2.570 -0.7002 -0.3136  0.1325
    1SOL    HW2 7118   3.706   3.460   2.498  0.7301 -1.0314  1.3617
    1SOL    HW3 7119   3.564   3.422   2.533  0.3703 -1.7113 -0.7501
    1SOL    MW4 7120   3.641   3.456   2.555 -0.3705 -0.5927  0.1781
    1SOL     OW 7121   0.559   0.384   2.755 -0.3444 -0.1814  0.1558
    1SOL    HW2 7122   0.549   0.297   2.716 -1.9992 -0.2937  0.7872
    1SOL    HW3 7123   0.540   0.444   2.684 -1.2791 -0.3730  0.2270
    1SOL    MW4 7124   0.555   0.380   2.741 -0.6860 -0.2216  0.2482
    1SOL     OW 7125   2.867   1.161   1.913 -0.6082  0.4210  0.1713
    1SOL    HW2 7126   2.827   1.079   1.943 -0.8316  0.0960 -0.9474
    1SOL    HW3 7127   2.947   1.133   1.868 -0.7324  0.8030 -0.2959
    1SOL    MW4 7128   2.872   1.146   1.911 -0.6540  0.4284 -0.0380
    1SOL     OW 7129   1.626   3.093   2.297  0.0906  0.0044 -0.3056
    1SOL    HW2 7130   1.568   3.077   2.222  0.9555  0.4053 -1.0590
    1SOL    HW3 7131   1.684   3.017   2.298  2.5399  1.7888 -2.3403
    1SOL    MW4 7132   1.626   3.081   2.287  0.5280  0.2928 -0.6735
    1SOL     OW 7133   2.539   3.013   4.276  0.3850 -0.6623  0.2591
    1SOL    HW2 7134   2.533   3.106   4.296 -3.7065 -1.1990  2.0424
    1SOL    HW3 7135   2.612   2.982   4.330  2.0425  1.5239 -0.6567
    1SOL    MW4 7136   2.548   3.021   4.286  0.0637 -0.4447  0.3738
    1SOL     OW 7137   4.277   2.824   1.201 -0.6411 -0.3157 -0.1057
    1SOL    HW2 7138   4.362   2.808   1.159 -0.5244 -0.7401  0.2892
    1SOL    HW3 7139   4.228   2.874   1.136  0.1764  0.5828 -0.0576
    1SOL    MW4 7140   4.282   2.829   1.187 -0.5178 -0.2534 -0.0472
    1SOL     OW 7141   0.693   1.416   2.739  0.2621 -0.0855 -0.7240
    1SOL    HW2 7142   0.630   1.407   2.667  1.5243 -0.7500 -1.7745
    1SOL    HW3 7143   0.727   1.505   2.730  0.7784 -0.3343 -1.2604
    1SOL    MW4 7144   0.689   1.427   2.728  0.4967 -0.2059 -0.9332
    1SOL     OW 7145   2.191   3.333   3.724 -0.3568 -0.0313  0.4900
    1SOL    HW2 7146   2.149   3.285   3.652 -0.3071  1.0160 -0.2435
    1SOL    HW3 7147   2.270   3.370   3.685 -0.3938  0.6390  1.0539
    1SOL    MW4 7148   2.196   3.332   3.709 -0.3550  0.1950  0.4678
    1SOL     OW 7149   2.180   4.339   1.951 -0.1720  0.4495  0.2422
    1SOL    HW2 7150   2.119   4.327   2.025 -2.2067 -0.3621 -1.5217
    1SOL    HW3 7151   2.150   4.418   1.908  0.7070  0.6426 -0.0258
    1SOL    MW4 7152   2.168   4.348   1.955 -0.3245  0.3676 -0.0259
    1SOL     OW 7153   3.097   3.041   1.721  0.1778  0.4180 -0.5742
    1SOL    HW2 7154   3.186   3.048   1.684 -0.1497 -0.1611 -1.4925
    1SOL    HW3 7155   3.051   2.984   1.660 -0.1756 -1.1871  1.1505
    1SOL    MW4 7156   3.103   3.035   1.708  0.0882  0.1297 -0.4678
    1SOL     OW 7157   3.781   1.609   1.221  0.8204  0.2254  0.0878
    1SOL    HW2 7158   3.780   1.703   1.239 -0.9595  0.3603 -0.5721
    1SOL    HW3 7159   3.847   1.599   1.153  0.7492  1.0610 -0.1170
    1SOL    MW4 7160   3.790   1.620   1.214  0.5763  0.3535 -0.0263
    1SOL     OW 7161   0.245   0.765   3.091  0.1741  0.3106  0.2168
    1SOL    HW2 7162   0.270   0.675   3.069 -1.2392 -0.1658  0.4750
    1SOL    HW3 7163   0.301   0.788   3.165  0.5685 -0.3504  0.1269
    1SOL    MW4 7164   0.256   0.756   3.098  0.0397  0.1605  0.2389
    1SOL     OW 7165   3.899   0.725   2.287 -0.5390 -0.3620 -0.2407
    1SOL    HW2 7166   3.855   0.654   2.333 -1.4076 -0.0280 -0.5371
    1SOL    HW3 7167   3.936   0.685   2.209 -0.5605 -0.5984 -0.1272
    1SOL    MW4 7168   3.898   0.711   2.283 -0.6564 -0.3490 -0.2646
    1SOL     OW 7169   0.700   2.887   1.664 -0.5698  0.6309  0.1448
    1SOL    HW2 7170   0.670   2.873   1.754  0.6223  0.9671  0.6013
    1SOL    HW3 7171   0.777   2.830   1.655 -1.3657 -0.2942 -1.0465
    1SOL    MW4 7172   0.706   2.877   1.675 -0.5175  0.5534  0.0478
    1SOL     OW 7173   3.453   0.313   1.911  0.1153 -0.0217  0.1735
    1SOL    HW2 7174   3.531   0.312   1.966 -0.0308 -1.4351  0.3557
    1SOL    HW3 7175   3.475   0.373   1.840  1.5076 -0.6984  0.0215
    1SOL    MW4 7176   3.466   0.321   1.909  0.2797 -0.2975  0.1775
    1SOL     OW 7177   1.802   4.397   1.866 -0.2865  0.0559  0.3789
    1SOL    HW2 7178   1.847   4.433   1.789  1.5897 -2.9359 -0.0121
    1SOL    HW3 7179   1.863   4.411   1.938  0.0254 -1.3075  0.4086
    1SOL    MW4 7180   1.816   4.403   1.865  0.0023 -0.5188  0.3312
    1SOL     OW 7181   1.260   3.246   4.724 -0.3363 -0.1580  0.1854
    1SOL    HW2 7182   1.273   3.331   4.767 -0.8764  0.6325 -1.1655
    1SOL    HW3 7183   1.240   3.269   4.633 -2.3096 -1.6654  0.2200
    1SOL    MW4 7184   1.259   3.261   4.718 -0.6678 -0.2522  0.0119
    1SOL     OW 7185   2.728   2.477   2.953  0.4273  0.6868  0.5923
    1SOL    HW2 7186   2.771   2.395   2.928 -0.0981  0.7010 -0.3652
    1SOL    HW3 7187   2.643   2.474   2.909  0.1923  1.5117  0.9787
    1SOL    MW4 7188   2.723   2.465   2.944  0.3273  0.7977  0.5167
    1SOL     OW 7189   2.767   1.474   3.811 -0.1639 -0.0265 -0.4166
    1SOL    HW2 7190   2.831   1.419   3.766  0.4087  0.1490  0.1819
    1SOL    HW3 7191   2.802   1.562   3.804 -0.3286  0.0661 -0.0564
    1SOL    MW4 7192   2.780   1.478   3.804 -0.1101  0.0089 -0.2902
    1SOL     OW 7193   1.004   0.316   1.963  0.5330 -0.1863 -0.2100
    1SOL    HW2 7194   1.055   0.353   1.891  0.1884  0.0561 -0.3334
    1SOL    HW3 7195   1.067   0.305   2.034  1.3163 -2.3315 -1.1983
    1SOL    MW4 7196   1.019   0.320   1.963  0.5908 -0.4373 -0.3566
    1SOL     OW 7197   1.746   3.099   4.030 -0.6805  0.0733  0.0725
    1SOL    HW2 7198   1.756   3.005   4.010 -2.7844 -0.2567  0.4472
    1SOL    HW3 7199   1.800   3.112   4.108 -0.4776 -0.8513  0.1022
    1SOL    MW4 7200   1.755   3.088   4.038 -0.9314 -0.0923  0.1254
    1SOL     OW 7201   2.375   4.128   3.409 -0.0752  0.0216 -0.1536
    1SOL    HW2 7202   2.417   4.138   3.495  0.6105 -0.3272 -0.4468
    1SOL    HW3 7203   2.364   4.034   3.398  0.4765  0.0233 -0.7516
    1SOL    MW4 7204   2.379   4.117   3.419  0.0880 -0.0243 -0.2711
    1SOL     OW 7205   2.274   2.147   1.991 -0.0311  0.1710  0.1233
    1SOL    HW2 7206   2.190   2.124   1.952 -0.4564  1.0179  0.5353
    1SOL    HW3 7207   2.257   2.228   2.038  0.9695  0.2318  0.3816
    1SOL    MW4 7208   2.261   2.154   1.992  0.0448  0.2909  0.2117
    1SOL     OW 7209   1.146   4.260   3.474  0.4483 -0.5066 -0.2074
    1SOL    HW2 7210   1.184   4.236   3.390 -0.5060 -1.3138 -0.4017
    1SOL    HW3 7211   1.070   4.313   3.452  0.1763 -0.7483  0.1477
    1SOL    MW4 7212   1.141   4.264   3.460  0.2866 -0.6452 -0.1862
    1SOL     OW 7213   2.282   4.357   3.047 -0.1621 -0.0004  0.0192
    1SOL    HW2 7214   2.335   4.282   3.020  0.6947  0.0999  1.3706
    1SOL    HW3 7215   2.263   4.404   2.966  1.4197 -0.2967 -0.5349
    1SOL    MW4 7216   2.287   4.353   3.033  0.1595 -0.0262  0.1242
    1SOL     OW 7217   1.982   1.782   0.751  0.8136  0.5468 -0.2687
    1SOL    HW2 7218   2.050   1.795   0.817 -0.2506  1.3213  0.6903
    1SOL    HW3 7219   2.016   1.711   0.696  2.0210  0.3580  0.6882
    1SOL    MW4 7220   1.996   1.774   0.752  0.8324  0.6242 -0.0159
    1SOL     OW 7221   0.124   2.128   1.041 -0.6018  0.4736  0.6107
    1SOL    HW2 7222   0.214   2.097   1.025 -1.0974 -1.1863  0.9614
    1SOL    HW3 7223   0.081   2.121   0.956 -1.3602 -2.0492  1.1588
    1SOL    MW4 7224   0.130   2.123   1.028 -0.7672 -0.0784  0.7293
    1SOL     OW 7225   1.364   1.191   0.976 -0.2995  0.2158  0.0592
    1SOL    HW2 7226   1.286   1.203   1.031  0.5775  0.2409  1.3260
    1SOL    HW3 7227   1.427   1.254   1.010  0.8183 -0.8985  0.0921
    1SOL    MW4 7228   1.362   1.201   0.988 -0.0364  0.0720  0.2307
    1SOL     OW 7229   0.236   4.238   1.410 -0.2387  0.0189  0.1150
    1SOL    HW2 7230   0.154   4.192   1.391 -0.2330  0.2195 -0.4058
    1SOL    HW3 7231   0.217   4.289   1.488 -0.7025  0.2968 -0.1753
    1SOL    MW4 7232   0.223   4.238   1.418 -0.2992  0.0815  0.0081
    1SOL     OW 7233   3.241   0.208   2.107  0.0290  0.3098  0.1775
    1SOL    HW2 7234   3.202   0.269   2.169  0.1964  0.2354  0.3576
    1SOL    HW3 7235   3.307   0.260   2.060 -0.6856  0.5802 -0.5245
    1SOL    MW4 7236   3.245   0.223   2.109 -0.0432  0.3356  0.1087
    1SOL     OW 7237   1.612   3.331   4.588  0.0304 -0.6011 -0.0919
    1SOL    HW2 7238   1.602   3.307   4.496  1.3601 -1.6495  0.0041
    1SOL    HW3 7239   1.568   3.260   4.636  0.6917 -0.8884  0.1034
    1SOL    MW4 7240   1.605   3.318   4.582  0.2929 -0.7772 -0.0534
    1SOL     OW 7241   0.092   3.844   2.869  0.1803 -0.2308  0.0809
    1SOL    HW2 7242   0.090   3.936   2.842 -0.1116 -0.6670 -1.4337
    1SOL    HW3 7243   0.005   3.827   2.905  0.6832  0.4482  1.6761
    1SOL    MW4 7244   0.080   3.854   2.870  0.2082 -0.1988  0.0916
    1SOL     OW 7245   0.981   0.704   1.077 -0.0745  0.0722  0.7245
    1SOL    HW2 7246   1.030   0.763   1.019 -2.2152  0.4729 -0.7451
    1SOL    HW3 7247   1.020   0.618   1.063  0.2611  0.3955 -0.3739
    1SOL    MW4 7248   0.993   0.701   1.067 -0.3127  0.1677  0.3856
    1SOL     OW 7249   1.895   3.081   1.322 -0.1194 -0.5608 -0.0176
    1SOL    HW2 7250   1.823   3.054   1.380  0.5168  0.4534  1.2857
    1SOL    HW3 7251   1.974   3.072   1.376  0.5817 -0.3859 -1.0029
    1SOL    MW4 7252   1.896   3.076   1.337  0.0571 -0.4039  0.0243
    1SOL     OW 7253   0.823   4.202   2.898  0.5837  0.1066  0.6227
    1SOL    HW2 7254   0.790   4.249   2.821 -0.4662 -2.8353 -0.7753
    1SOL    HW3 7255   0.751   4.208   2.961  1.1063  1.7654  1.0938
    1SOL    MW4 7256   0.809   4.209   2.896  0.5142 -0.0629  0.5002
    1SOL     OW 7257   4.356   4.047   0.685 -0.4289 -0.2467 -0.6550
    1SOL    HW2 7258   4.390   3.961   0.662  1.0989 -0.1015  0.9473
    1SOL    HW3 7259   4.408   4.108   0.634 -0.8870 -0.2032 -1.0816
    1SOL    MW4 7260   4.367   4.044   0.676 -0.2871 -0.2217 -0.5000
    1SOL     OW 7261   4.007   1.129   3.567  0.2445 -0.0804  0.0229
    1SOL    HW2 7262   3.917   1.120   3.597 -0.1329  0.9935 -0.7299
    1SOL    HW3 7263   4.042   1.201   3.620  0.5457 -0.2576  0.0622
    1SOL    MW4 7264   4.000   1.138   3.578  0.2346  0.0378 -0.0713
    1SOL     OW 7265   0.097   2.674   0.887  0.2623 -0.2337 -0.3346
    1SOL    HW2 7266   0.088   2.698   0.979  1.0235 -0.2447 -0.2544
    1SOL    HW3 7267   0.134   2.752   0.845  0.3510 -0.3879 -0.5455
    1SOL    MW4 7268   0.101   2.687   0.894  0.3744 -0.2556 -0.3518
    1SOL     OW 7269   1.676   2.876   1.358 -0.5433 -0.3097 -0.1440
    1SOL    HW2 7270   1.669   2.780   1.367 -0.0031 -0.4354 -1.0468
    1SOL    HW3 7271   1.673   2.891   1.264 -0.9994  0.6006  0.0143
    1SOL    MW4 7272   1.675   2.865   1.347 -0.5322 -0.2065 -0.2421
    1SOL     OW 7273   1.347   3.811   2.141 -0.0154 -0.2032  0.1212
    1SOL    HW2 7274   1.332   3.852   2.056  0.3463  0.8392  0.5482
    1SOL    HW3 7275   1.270   3.757   2.155 -0.7106  0.6653 -0.2674
    1SOL    MW4 7276   1.335   3.809   2.132 -0.0594  0.0486  0.1261
    1SOL     OW 7277   0.049   1.021   0.621 -0.1278  0.2327  0.3800
    1SOL    HW2 7278  -0.036   1.026   0.665 -0.7087 -1.7618 -0.4787
    1SOL    HW3 7279   0.044   1.087   0.552 -1.5847 -0.9114 -0.6449
    1SOL    MW4 7280   0.037   1.030   0.618 -0.3966 -0.1814  0.1315
    1SOL     OW 7281   3.000   0.439   4.114 -0.6423  0.3943  0.9164
    1SOL    HW2 7282   3.076   0.491   4.138 -0.1705 -0.1089  0.5314
    1SOL    HW3 7283   3.032   0.381   4.044 -1.3973  0.2479  0.6919
    1SOL    MW4 7284   3.014   0.438   4.108 -0.6795  0.3086  0.8359
    1SOL     OW 7285   3.892   3.764   1.897  0.0896 -0.3067 -0.1109
    1SOL    HW2 7286   3.903   3.670   1.913 -0.3238 -0.5537 -1.2414
    1SOL    HW3 7287   3.974   3.791   1.856 -0.4337 -0.5197 -1.3061
    1SOL    MW4 7288   3.904   3.755   1.894 -0.0341 -0.3676 -0.4177
    1SOL     OW 7289   2.423   3.454   3.597 -0.8738  0.5509 -0.0831
    1SOL    HW2 7290   2.512   3.447   3.631 -0.4537 -0.8856 -1.4145
    1SOL    HW3 7291   2.400   3.547   3.606  0.1733  0.6550  1.6754
    1SOL    MW4 7292   2.431   3.465   3.603 -0.6800  0.3753 -0.0265
    1SOL     OW 7293   4.490   3.718   2.401  0.6234  1.3130 -0.6083
    1SOL    HW2 7294   4.403   3.755   2.396 -0.3216 -0.8132 -0.5961
    1SOL    HW3 7295   4.530   3.739   2.317 -0.4290  1.0881 -1.1776
    1SOL    MW4 7296   4.484   3.725   2.389  0.3600  1.0028 -0.6816
    1SOL     OW 7297   0.782   2.584   0.725 -0.1546 -0.2731  0.0013
    1SOL    HW2 7298   0.707   2.547   0.773  0.5677 -1.9137 -0.0941
    1SOL    HW3 7299   0.835   2.626   0.792 -0.0163 -1.0816  0.4110
    1SOL    MW4 7300   0.779   2.585   0.740 -0.0411 -0.5960  0.0428
    1SOL     OW 7301   3.593   0.823   3.104  0.6217  0.8930 -0.2571
    1SOL    HW2 7302   3.604   0.730   3.127 -0.2223  0.6502 -0.8180
    1SOL    HW3 7303   3.646   0.870   3.168 -0.8869  0.1646  1.5845
    1SOL    MW4 7304   3.601   0.817   3.116  0.3111  0.7648 -0.0882
    1SOL     OW 7305   1.113   3.676   2.691 -0.0689 -0.0991 -0.7768
    1SOL    HW2 7306   1.106   3.718   2.776  0.8457 -0.5265 -0.4782
    1SOL    HW3 7307   1.037   3.618   2.686 -1.3174  1.5327 -1.1831
    1SOL    MW4 7308   1.102   3.674   2.702 -0.1128  0.0596 -0.7911
    1SOL     OW 7309   0.375   2.006   0.999 -0.7974  0.7247 -0.3406
    1SOL    HW2 7310   0.371   1.944   1.072 -2.8337  1.0882 -0.1099
    1SOL    HW3 7311   0.454   2.057   1.016 -0.6779  0.1202  1.0548
    1SOL    MW4 7312   0.385   2.005   1.011 -1.0503  0.6931 -0.1262
    1SOL     OW 7313   1.859   0.721   1.384  0.2397  0.0592 -0.0793
    1SOL    HW2 7314   1.818   0.638   1.363  0.2143  0.4553 -1.6792
    1SOL    HW3 7315   1.869   0.720   1.479 -2.1469 -0.6566  0.1946
    1SOL    MW4 7316   1.855   0.710   1.394 -0.0786  0.0170 -0.2542
    1SOL     OW 7317   1.388   4.553   3.311 -0.2059 -0.3943  0.1207
    1SOL    HW2 7318   1.444   4.611   3.363 -0.3440 -1.4014  1.4090
    1SOL    HW3 7319   1.299   4.583   3.330 -0.1925  0.1134 -0.6050
    1SOL    MW4 7320   1.384   4.565   3.320 -0.2224 -0.4606  0.1948
    1SOL     OW 7321   3.963   1.809   3.628  0.2252 -0.6144  0.1587
    1SOL    HW2 7322   4.056   1.826   3.616  0.0721  0.5476  0.5401
    1SOL    HW3 7323   3.952   1.798   3.722 -0.3706  1.4575  0.3445
    1SOL    MW4 7324   3.974   1.810   3.639  0.1264 -0.1878  0.2332
    1SOL     OW 7325   1.398   1.636   4.357 -0.2241 -0.2200  0.1151
    1SOL    HW2 7326   1.414   1.681   4.274  3.2537  0.3153  0.9934
    1SOL    HW3 7327   1.462   1.564   4.357  0.9129  0.7295  2.9846
    1SOL    MW4 7328   1.409   1.632   4.346  0.3848 -0.0241  0.6099
    1SOL     OW 7329   0.727   2.443   3.648  0.1786 -0.0261 -0.2188
    1SOL    HW2 7330   0.655   2.506   3.650  1.1305  1.0598  0.7893
    1SOL    HW3 7331   0.780   2.471   3.574 -0.7341 -1.1791 -1.3214
    1SOL    MW4 7332   0.725   2.455   3.639  0.1838 -0.0348 -0.2313
    1SOL     OW 7333   2.973   0.498   0.778 -0.0950 -0.9189  0.0061
    1SOL    HW2 7334   2.904   0.504   0.845 -1.9825  0.7793 -2.0033
    1SOL    HW3 7335   2.985   0.404   0.765 -1.0342 -1.2543  1.3967
    1SOL    MW4 7336   2.965   0.487   0.785 -0.4680 -0.7391 -0.0756
    1SOL     OW 7337   2.158   3.881   2.072 -0.4140  0.0879 -0.1088
    1SOL    HW2 7338   2.148   3.791   2.104 -0.6148  0.0842 -0.1795
    1SOL    HW3 7339   2.149   3.874   1.977 -0.7000  0.2170 -0.0939
    1SOL    MW4 7340   2.155   3.869   2.064 -0.4783  0.1042 -0.1161
    1SOL     OW 7341   0.674   3.874   1.692  0.1499 -0.7177  0.7319
    1SOL    HW2 7342   0.655   3.782   1.711 -1.1686 -0.5207  0.4044
    1SOL    HW3 7343   0.735   3.871   1.618 -0.2068 -1.3216  0.4583
    1SOL    MW4 7344   0.679   3.861   1.685 -0.0711 -0.7715  0.6526
    1SOL     OW 7345   1.186   3.105   0.744 -0.6982 -0.0394 -0.2104
    1SOL    HW2 7346   1.248   3.034   0.765  1.5831  1.9528  0.0658
    1SOL    HW3 7347   1.157   3.085   0.655  2.5670  0.4468 -1.4703
    1SOL    MW4 7348   1.191   3.093   0.735  0.0336  0.2875 -0.3402
    1SOL     OW 7349   3.722   2.872   1.583  0.3319  0.1264 -0.2508
    1SOL    HW2 7350   3.735   2.876   1.488 -0.6830  0.0867 -0.4018
    1SOL    HW3 7351   3.771   2.946   1.617 -1.0942  1.4778 -1.0394
    1SOL    MW4 7352   3.730   2.882   1.575  0.0095  0.2995 -0.3747
    1SOL     OW 7353   3.192   0.717   2.671  0.5847 -0.2262 -0.3097
    1SOL    HW2 7354   3.097   0.724   2.663  0.4084 -0.8733  1.1374
    1SOL    HW3 7355   3.207   0.702   2.764  2.0950 -0.3874 -0.5732
    1SOL    MW4 7356   3.181   0.716   2.682  0.7606 -0.3329 -0.1533
    1SOL     OW 7357   4.132   3.039   0.563  0.0870  0.6224 -0.5030
    1SOL    HW2 7358   4.179   3.115   0.529  1.0700  0.9465  1.4693
    1SOL    HW3 7359   4.192   3.002   0.628 -0.5116 -1.6707 -1.2085
    1SOL    MW4 7360   4.146   3.044   0.567  0.1373  0.3626 -0.3359
    1SOL     OW 7361   0.914   2.401   4.157  0.1477  0.0062  0.0260
    1SOL    HW2 7362   1.001   2.437   4.141  0.5313 -1.5114 -1.5834
    1SOL    HW3 7363   0.894   2.424   4.247  1.6191  1.5929 -0.0255
    1SOL    MW4 7364   0.923   2.409   4.167  0.3925  0.0153 -0.1926
    1SOL     OW 7365   0.008   4.192   3.863 -0.5905 -0.2533  0.1898
    1SOL    HW2 7366  -0.043   4.191   3.782 -0.2598  0.5314 -0.0369
    1SOL    HW3 7367  -0.029   4.264   3.914 -2.2027 -2.1022  1.6643
    1SOL    MW4 7368  -0.003   4.202   3.859 -0.7594 -0.3934  0.3541
    1SOL     OW 7369   0.027   0.410   1.051  0.3576 -0.8347 -0.5166
    1SOL    HW2 7370   0.104   0.365   1.084  1.1901 -0.4801 -1.9307
    1SOL    HW3 7371   0.035   0.404   0.955 -0.7760  0.1862 -0.6881
    1SOL    MW4 7372   0.038   0.403   1.042  0.3179 -0.6532 -0.7256
    1SOL     OW 7373   2.073   2.650   1.818 -0.0994  0.2089 -0.4664
    1SOL    HW2 7374   2.139   2.580   1.818  0.0799  0.3671  1.0448
    1SOL    HW3 7375   2.063   2.673   1.725  0.9460 -0.7765 -0.8377
    1SOL    MW4 7376   2.080   2.643   1.806  0.0622  0.0997 -0.3160
    1SOL     OW 7377   3.018   0.399   2.868  0.6049 -0.3895 -0.1598
    1SOL    HW2 7378   3.018   0.329   2.803 -1.9962 -0.6904  0.1054
    1SOL    HW3 7379   2.996   0.355   2.950  0.8704  0.4485  0.3667
    1SOL    MW4 7380   3.015   0.384   2.871  0.2966 -0.3187 -0.0553
    1SOL     OW 7381   3.923   4.397   1.568 -0.3837 -0.1559  0.0305
    1SOL    HW2 7382   3.983   4.441   1.629  0.3015 -0.9740 -0.0411
    1SOL    HW3 7383   3.974   4.323   1.535 -1.0419 -0.1869 -0.9132
    1SOL    MW4 7384   3.938   4.393   1.572 -0.3803 -0.2689 -0.1035
    1SOL     OW 7385   2.207   2.784   1.079  0.1308 -0.5371  0.4124
    1SOL    HW2 7386   2.278   2.786   1.144  0.2276 -1.3770  0.3277
    1SOL    HW3 7387   2.234   2.849   1.013 -0.1989  0.6646  1.4425
    1SOL    MW4 7388   2.220   2.793   1.079  0.1001 -0.4895  0.5370
    1SOL     OW 7389   0.627   4.193   3.106 -0.2266 -0.0015  0.0664
    1SOL    HW2 7390   0.649   4.100   3.112 -0.6620 -0.2662 -2.2050
    1SOL    HW3 7391   0.678   4.234   3.176  1.5721 -1.6541 -0.2408
    1SOL    MW4 7392   0.637   4.186   3.116 -0.0467 -0.2542 -0.2739
    1SOL     OW 7393   3.480   0.686   4.194  0.4222 -0.2182 -0.1990
    1SOL    HW2 7394   3.568   0.688   4.155 -0.0678  1.0129 -1.2601
    1SOL    HW3 7395   3.452   0.778   4.195 -1.6249 -0.8061 -1.6144
    1SOL    MW4 7396   3.488   0.699   4.189  0.0875 -0.1335 -0.5260
    1SOL     OW 7397   2.731   1.337   0.821 -0.5068  0.1303  0.2601
    1SOL    HW2 7398   2.696   1.298   0.901  0.7890 -1.2328  0.1743
    1SOL    HW3 7399   2.688   1.289   0.750 -0.4816  0.2910  0.1361
    1SOL    MW4 7400   2.721   1.326   0.822 -0.3326 -0.0284  0.2325
    1SOL     OW 7401   1.927   3.224   3.072 -0.0048 -0.0165 -0.2577
    1SOL    HW2 7402   1.969   3.293   3.123  0.6888  0.2936 -1.2239
    1SOL    HW3 7403   1.946   3.247   2.981 -1.6745 -0.2592 -0.6977
    1SOL    MW4 7404   1.935   3.236   3.067 -0.1336 -0.0074 -0.4432
    1SOL     OW 7405   1.739   1.566   1.070  0.1515  0.0747 -0.4878
    1SOL    HW2 7406   1.735   1.604   0.982  0.3674  1.7344  0.1976
    1SOL    HW3 7407   1.681   1.622   1.122  0.6332 -0.4282  0.5958
    1SOL    MW4 7408   1.730   1.578   1.065  0.2435  0.2275 -0.2544
    1SOL     OW 7409   4.468   0.763   3.091 -0.2068  0.2023 -0.6224
    1SOL    HW2 7410   4.563   0.775   3.089 -0.1044 -0.5156 -0.3470
    1SOL    HW3 7411   4.436   0.806   3.012  0.4012  0.0292 -0.9629
    1SOL    MW4 7412   4.476   0.770   3.081 -0.1135  0.0848 -0.6306
    1SOL     OW 7413   1.585   4.220   1.103  0.3493 -0.0281  0.2508
    1SOL    HW2 7414   1.513   4.195   1.045  0.6226  0.1752 -0.1896
    1SOL    HW3 7415   1.658   4.238   1.043  1.1643 -1.5163  0.7681
    1SOL    MW4 7416   1.585   4.219   1.087  0.4930 -0.1979  0.2607
    1SOL     OW 7417   1.855   2.988   2.708  0.4832  0.1379 -0.4401
    1SOL    HW2 7418   1.931   3.047   2.708  0.5675  0.0429  0.4017
    1SOL    HW3 7419   1.783   3.042   2.676  0.4078  0.9182  0.9927
    1SOL    MW4 7420   1.856   3.003   2.704  0.4845  0.2284 -0.1400
    1SOL     OW 7421   2.181   3.888   3.791 -0.2989 -0.0959  0.0764
    1SOL    HW2 7422   2.209   3.811   3.742 -1.0841 -1.2891  1.4526
    1SOL    HW3 7423   2.218   3.875   3.878 -2.1277  0.0495  0.9047
    1SOL    MW4 7424   2.189   3.876   3.796 -0.6437 -0.2341  0.3674
    1SOL     OW 7425   4.235   1.419   3.953  0.2916 -0.4131 -0.0472
    1SOL    HW2 7426   4.299   1.482   3.920  0.5450 -1.0384 -0.7767
    1SOL    HW3 7427   4.172   1.409   3.881 -0.2473 -0.3014  0.4113
    1SOL    MW4 7428   4.235   1.426   3.939  0.2537 -0.4809 -0.0832
    1SOL     OW 7429   2.912   4.484   4.511  0.0140  0.1603  0.3647
    1SOL    HW2 7430   2.912   4.508   4.418 -2.1777 -1.5802 -0.1172
    1SOL    HW3 7431   2.906   4.389   4.512  0.9160  0.0824  2.3159
    1SOL    MW4 7432   2.912   4.475   4.499 -0.1559 -0.0796  0.5584
    1SOL     OW 7433   0.561   2.230   3.503 -0.9647  0.0087 -0.2340
    1SOL    HW2 7434   0.617   2.275   3.566 -0.4938 -1.1549  0.1838
    1SOL    HW3 7435   0.503   2.177   3.556 -0.8918 -0.6083 -0.7650
    1SOL    MW4 7436   0.561   2.229   3.518 -0.8929 -0.2260 -0.2489
    1SOL     OW 7437   3.560   0.932   1.781  0.0368 -0.5139 -0.4534
    1SOL    HW2 7438   3.502   0.905   1.853 -0.3729 -0.3153 -0.7086
    1SOL    HW3 7439   3.568   1.027   1.791 -0.9730 -0.3201 -1.3702
    1SOL    MW4 7440   3.554   0.941   1.792 -0.1507 -0.4622 -0.6082
    1SOL     OW 7441   0.446   3.842   3.692  0.0000 -0.1406 -0.1696
    1SOL    HW2 7442   0.466   3.928   3.729  1.3969 -0.8430  0.7479
    1SOL    HW3 7443   0.380   3.806   3.751 -0.6009  0.3013 -0.5650
    1SOL    MW4 7444   0.440   3.849   3.705  0.1051 -0.1752 -0.1009
    1SOL     OW 7445   3.757   2.160   3.160  0.0761  0.0403 -0.3329
    1SOL    HW2 7446   3.661   2.155   3.167  0.0751  0.7366  0.1959
    1SOL    HW3 7447   3.772   2.245   3.117  0.4230 -0.4661 -1.2329
    1SOL    MW4 7448   3.746   2.171   3.155  0.1216  0.0656 -0.3819
    1SOL     OW 7449   2.111   3.634   2.200 -0.4133 -0.1902  0.1210
    1SOL    HW2 7450   2.138   3.559   2.255 -0.0647  0.6715  1.1465
    1SOL    HW3 7451   2.131   3.606   2.111  1.4770 -0.6198  0.6437
    1SOL    MW4 7452   2.117   3.620   2.196 -0.1180 -0.1330  0.3250
    1SOL     OW 7453   1.734   1.311   3.971 -0.1097 -0.1630  0.1814
    1SOL    HW2 7454   1.780   1.251   3.913 -2.2785 -0.5111 -1.2693
    1SOL    HW3 7455   1.708   1.257   4.045  0.4671 -0.3228  0.2700
    1SOL    MW4 7456   1.736   1.296   3.973 -0.3200 -0.2301  0.0014
    1SOL     OW 7457   3.099   0.146   1.873 -0.4702 -0.4536  0.1417
    1SOL    HW2 7458   3.157   0.148   1.949 -2.5438 -0.4285  1.7847
    1SOL    HW3 7459   3.053   0.230   1.875 -1.4721 -0.9718 -0.3744
    1SOL    MW4 7460   3.100   0.157   1.883 -0.8762 -0.5187  0.2904
    1SOL     OW 7461   1.270   4.316   2.692 -0.1459 -0.4622 -0.0182
    1SOL    HW2 7462   1.272   4.373   2.769 -0.2954 -2.2571  1.3489
    1SOL    HW3 7463   1.360   4.316   2.659 -0.4577  1.7583 -0.9599
    1SOL    MW4 7464   1.282   4.324   2.698 -0.2067 -0.4058  0.0379
    1SOL     OW 7465   1.956   4.340   2.971  0.0334 -0.0229  0.4726
    1SOL    HW2 7466   1.919   4.428   2.956  0.3670  0.1265  0.5234
    1SOL    HW3 7467   1.892   4.298   3.029  0.3556  0.5354  1.2570
    1SOL    MW4 7468   1.943   4.346   2.977  0.1199  0.0710  0.5827
    1SOL     OW 7469   2.506   3.448   1.441 -0.4893  0.1543  0.5535
    1SOL    HW2 7470   2.512   3.467   1.534 -2.3283  0.8690  0.5647
    1SOL    HW3 7471   2.415   3.468   1.419 -0.2632 -0.6847 -1.2429
    1SOL    MW4 7472   2.494   3.453   1.450 -0.7024  0.1380  0.3182
    1SOL     OW 7473   2.696   2.750   0.656  0.0685  0.1579 -0.3384
    1SOL    HW2 7474   2.732   2.663   0.674 -0.3480  0.2062  0.7845
    1SOL    HW3 7475   2.759   2.791   0.597  0.6187 -0.6502 -0.3173
    1SOL    MW4 7476   2.709   2.744   0.651  0.0861  0.0579 -0.1875
    1SOL     OW 7477   1.526   0.236   4.385  0.0327  0.7433 -0.4852
    1SOL    HW2 7478   1.582   0.267   4.313 -0.2330 -0.7014 -1.3416
    1SOL    HW3 7479   1.531   0.141   4.379 -2.1295  0.5939 -0.2589
    1SOL    MW4 7480   1.534   0.228   4.375 -0.2878  0.5330 -0.5684
    1SOL     OW 7481   1.697   3.804   4.420  0.6243 -0.1191 -0.1967
    1SOL    HW2 7482   1.784   3.783   4.387  0.2087  0.6798 -1.8600
    1SOL    HW3 7483   1.674   3.730   4.477  2.2961 -0.4200  0.0930
    1SOL    MW4 7484   1.705   3.791   4.423  0.7901 -0.0534 -0.3777
    1SOL     OW 7485   0.354   3.947   1.938  0.2204 -0.5257 -0.3102
    1SOL    HW2 7486   0.310   3.985   1.861 -0.3077 -0.5626 -0.0251
    1SOL    HW3 7487   0.408   4.018   1.972 -0.0005 -0.3316 -0.3650
    1SOL    MW4 7488   0.356   3.961   1.932  0.1216 -0.5052 -0.2797
    1SOL     OW 7489   1.059   3.312   2.052  0.4070  0.5914  0.2959
    1SOL    HW2 7490   1.004   3.271   1.985 -0.7038  1.4581  0.6612
    1SOL    HW3 7491   1.049   3.255   2.128  0.8308  0.1908  0.0571
    1SOL    MW4 7492   1.051   3.299   2.053  0.3164  0.6533  0.3126
    1SOL     OW 7493   4.119   0.614   2.674  0.3257  0.5236 -0.3787
    1SOL    HW2 7494   4.104   0.662   2.755 -0.9849  0.1618 -0.3882
    1SOL    HW3 7495   4.088   0.674   2.605 -0.0887  0.1793 -0.4902
    1SOL    MW4 7496   4.113   0.628   2.675  0.0978  0.4304 -0.3948
    1SOL     OW 7497   1.188   3.478   1.078  0.1861 -0.4342  0.0597
    1SOL    HW2 7498   1.210   3.390   1.106 -1.5150 -0.9706 -0.2027
    1SOL    HW3 7499   1.186   3.530   1.159 -0.0503 -0.9245  0.3691
    1SOL    MW4 7500   1.190   3.473   1.092 -0.0696 -0.5698  0.0660
    1SOL     OW 7501   4.047   0.502   1.019  0.5227 -0.0057  0.3772
    1SOL    HW2 7502   4.073   0.594   1.028 -1.6396  0.8080 -1.2484
    1SOL    HW3 7503   4.104   0.455   1.080  1.1336  2.4956  1.8149
    1SOL    MW4 7504   4.058   0.508   1.028  0.3181  0.4316  0.3524
    1SOL     OW 7505   1.525   4.046   3.910  0.4550  0.6170  0.9036
    1SOL    HW2 7506   1.453   4.021   3.967 -0.4090  2.3375  0.5927
    1SOL    HW3 7507   1.566   3.963   3.886  0.0389 -0.2198  2.9678
    1SOL    MW4 7508   1.521   4.032   3.915  0.2860  0.7329  1.1351
    1SOL     OW 7509   1.609   0.251   2.346 -0.1936  0.8583  0.3295
    1SOL    HW2 7510   1.565   0.309   2.408 -1.3177  0.2630  0.0852
    1SOL    HW3 7511   1.549   0.244   2.272  0.4635  0.3276 -0.1568
    1SOL    MW4 7512   1.596   0.258   2.345 -0.2552  0.7098  0.2332
    1SOL     OW 7513   1.163   0.724   4.510  0.0007  0.1723  0.0089
    1SOL    HW2 7514   1.188   0.652   4.452  0.0040  0.7809 -0.7582
    1SOL    HW3 7515   1.068   0.729   4.503 -0.2205 -1.1947  1.7943
    1SOL    MW4 7516   1.154   0.715   4.501 -0.0281  0.0723  0.1435
    1SOL     OW 7517   3.396   1.257   4.697 -0.2159  0.2225  0.3723
    1SOL    HW2 7518   3.371   1.165   4.706  0.6559  0.0439  0.9868
    1SOL    HW3 7519   3.474   1.256   4.642  0.0210  0.5569  0.6978
    1SOL    MW4 7520   3.403   1.245   4.691 -0.0696  0.2431  0.4959
    1SOL     OW 7521   0.158   2.607   1.904  0.1332 -0.0013  0.0807
    1SOL    HW2 7522   0.184   2.658   1.828 -0.8840 -1.8881 -1.5805
    1SOL    HW3 7523   0.071   2.573   1.882  0.0745 -1.0729  1.8313
    1SOL    MW4 7524   0.150   2.609   1.891 -0.0088 -0.3915  0.0924
    1SOL     OW 7525   3.113   3.914   1.340 -0.2803 -0.3133 -0.3283
    1SOL    HW2 7526   3.049   3.867   1.287  0.0838 -0.7483 -0.3827
    1SOL    HW3 7527   3.064   3.942   1.418 -0.8037  0.2907 -0.8688
    1SOL    MW4 7528   3.098   3.912   1.344 -0.3014 -0.2909 -0.4066
    1SOL     OW 7529   3.303   1.326   2.909  0.3893 -0.4997 -0.0060
    1SOL    HW2 7530   3.292   1.270   2.986 -1.2301  0.9111  0.7956
    1SOL    HW3 7531   3.224   1.312   2.858  1.7951 -2.0369 -1.8658
    1SOL    MW4 7532   3.291   1.317   2.912  0.3610 -0.5164 -0.1457
    1SOL     OW 7533   2.217   3.989   0.932 -0.0169  0.4337 -0.3661
    1SOL    HW2 7534   2.258   3.991   1.019 -0.5154 -0.3022 -0.1105
    1SOL    HW3 7535   2.212   3.896   0.910  0.1086  0.6214 -1.1858
    1SOL    MW4 7536   2.222   3.977   0.941 -0.0660  0.3612 -0.4405
    1SOL     OW 7537   3.822   2.740   3.905 -0.1500  0.4372  0.0187
    1SOL    HW2 7538   3.767   2.794   3.962  0.3051  0.0671  0.7976
    1SOL    HW3 7539   3.829   2.792   3.824  0.3024  1.5589  0.7629
    1SOL    MW4 7540   3.816   2.754   3.902 -0.0303  0.5364  0.2196
    1SOL     OW 7541   3.883   1.283   4.611  0.0112 -0.0675 -0.0709
    1SOL    HW2 7542   3.925   1.205   4.574 -0.1061  0.4095 -1.2405
    1SOL    HW3 7543   3.793   1.279   4.578 -0.1512  0.2707  0.3285
    1SOL    MW4 7544   3.876   1.272   4.602 -0.0257  0.0402 -0.1721
    1SOL     OW 7545   4.472   1.634   4.135 -0.0485 -0.0174 -0.5653
    1SOL    HW2 7546   4.446   1.688   4.210  0.7202  0.9484 -0.9782
    1SOL    HW3 7547   4.554   1.674   4.105 -0.3337 -0.4299 -1.8965
    1SOL    MW4 7548   4.480   1.647   4.141  0.0153  0.0556 -0.7954
    1SOL     OW 7549   2.685   0.803   3.105  0.2321 -0.4335 -0.6064
    1SOL    HW2 7550   2.640   0.812   3.190  0.7842  1.1115 -0.4639
    1SOL    HW3 7551   2.618   0.827   3.041 -0.6551 -3.0979 -0.7372
    1SOL    MW4 7552   2.670   0.807   3.108  0.1879 -0.5812 -0.6051
    1SOL     OW 7553   0.604   2.835   1.925  0.1249 -0.1175 -0.2697
    1SOL    HW2 7554   0.509   2.845   1.920  0.2534  1.0578 -0.4801
    1SOL    HW3 7555   0.636   2.920   1.955  0.8781 -1.4630  2.9457
    1SOL    MW4 7556   0.596   2.847   1.928  0.2413 -0.1402  0.1267
    1SOL     OW 7557   3.764   0.884   1.298  0.3151 -0.0992  0.2349
    1SOL    HW2 7558   3.739   0.977   1.300 -1.3821 -0.5379  2.0124
    1SOL    HW3 7559   3.857   0.883   1.319  0.8035  1.3192 -1.7690
    1SOL    MW4 7560   3.773   0.896   1.301  0.1557  0.0300  0.2050
    1SOL     OW 7561   3.416   4.202   2.801 -0.0425 -0.4695 -0.6380
    1SOL    HW2 7562   3.354   4.221   2.871 -0.8195 -0.8654 -1.2135
    1SOL    HW3 7563   3.502   4.204   2.844 -0.4189  0.3930  0.0974
    1SOL    MW4 7564   3.419   4.205   2.816 -0.1945 -0.4077 -0.6173
    1SOL     OW 7565   4.283   1.101   4.474  0.0031 -0.8240 -0.6748
    1SOL    HW2 7566   4.322   1.187   4.494 -0.5949 -0.8419  0.6157
    1SOL    HW3 7567   4.300   1.089   4.380  0.2490  0.6307 -0.8434
    1SOL    MW4 7568   4.290   1.111   4.464 -0.0434 -0.6344 -0.5264
    1SOL     OW 7569   4.333   0.171   3.859 -0.2187  0.3892 -0.3611
    1SOL    HW2 7570   4.336   0.267   3.862  1.8645  0.3290  0.4326
    1SOL    HW3 7571   4.258   0.151   3.803 -0.8227  2.4834 -0.3351
    1SOL    MW4 7572   4.323   0.181   3.852 -0.0234  0.6575 -0.2527
    1SOL     OW 7573   2.958   4.096   3.663 -0.2403 -0.3073 -0.3897
    1SOL    HW2 7574   3.024   4.040   3.704  0.9611  0.0771 -1.7261
    1SOL    HW3 7575   2.968   4.181   3.706 -1.2377 -0.7774  0.7947
    1SOL    MW4 7576   2.968   4.100   3.674 -0.2136 -0.3185 -0.4098
    1SOL     OW 7577   3.047   1.694   2.017 -0.0049  0.0076  0.1739
    1SOL    HW2 7578   3.067   1.620   2.075 -0.2148  1.4657  2.1601
    1SOL    HW3 7579   2.956   1.679   1.990 -0.1886 -0.2479  0.9089
    1SOL    MW4 7580   3.038   1.682   2.021 -0.0567  0.1663  0.5331
    1SOL     OW 7581   2.572   1.087   3.461  1.0909  0.0332 -0.3853
    1SOL    HW2 7582   2.643   1.113   3.520  0.9457  0.0308 -0.2092
    1SOL    HW3 7583   2.574   0.992   3.461 -0.3989 -0.0226  1.4383
    1SOL    MW4 7584   2.582   1.078   3.469  0.8752  0.0254 -0.1216
    1SOL     OW 7585   2.531   1.438   3.664  0.4376 -0.0383 -0.2949
    1SOL    HW2 7586   2.458   1.459   3.722 -0.2271  0.7943 -1.4253
    1SOL    HW3 7587   2.609   1.453   3.718 -0.2050 -0.7366  0.8488
    1SOL    MW4 7588   2.532   1.442   3.679  0.2651 -0.0207 -0.2933
    1SOL     OW 7589   4.141   3.324   1.741 -0.2052  0.3282  0.3714
    1SOL    HW2 7590   4.221   3.360   1.704 -1.5685 -0.3401 -3.4384
    1SOL    HW3 7591   4.170   3.247   1.790  1.2903 -1.5112 -3.2282
    1SOL    MW4 7592   4.155   3.319   1.743 -0.1879 -0.0026 -0.6062
    1SOL     OW 7593   1.621   2.478   4.310 -0.2673  0.0066  0.0395
    1SOL    HW2 7594   1.674   2.477   4.390  0.2571  0.3044 -0.2938
    1SOL    HW3 7595   1.669   2.538   4.251 -0.8735  0.1217 -0.3377
    1SOL    MW4 7596   1.635   2.486   4.313 -0.2781  0.0610 -0.0544
    1SOL     OW 7597   1.312   2.769   1.684 -0.5045  0.3019  0.0682
    1SOL    HW2 7598   1.332   2.835   1.618  0.8994  0.9517  1.1107
    1SOL    HW3 7599   1.380   2.703   1.673 -0.5659  0.1630  0.5284
    1SOL    MW4 7600   1.324   2.769   1.674 -0.3275  0.3695  0.2666
    1SOL     OW 7601   0.217   1.326   1.362  0.0104  0.4633 -0.7078
    1SOL    HW2 7602   0.209   1.266   1.287 -0.4264  0.5148 -0.7062
    1SOL    HW3 7603   0.255   1.405   1.325  1.2899 -0.0665 -0.5715
    1SOL    MW4 7604   0.221   1.328   1.347  0.1215  0.4003 -0.6897
    1SOL     OW 7605   4.166   0.701   3.425 -0.0257 -0.3696  0.1764
    1SOL    HW2 7606   4.206   0.629   3.475  1.8422  1.2062  0.9778
    1SOL    HW3 7607   4.192   0.685   3.335  1.3909 -0.0251  0.5234
    1SOL    MW4 7608   4.175   0.689   3.420  0.4072 -0.1163  0.3276
    1SOL     OW 7609   1.972   0.601   4.572 -0.0595 -0.1300 -0.5313
    1SOL    HW2 7610   1.942   0.671   4.514  0.6185  0.8876  0.3284
    1SOL    HW3 7611   1.914   0.606   4.648 -0.3778 -0.8788 -0.7240
    1SOL    MW4 7612   1.961   0.611   4.574 -0.0120 -0.0946 -0.4435
    1SOL     OW 7613   1.354   2.485   3.952 -0.3961  0.1433  0.0073
    1SOL    HW2 7614   1.448   2.472   3.953 -0.5936 -1.5105  0.0279
    1SOL    HW3 7615   1.341   2.572   3.917  1.1388  0.3650 -0.0223
    1SOL    MW4 7616   1.364   2.495   3.948 -0.2197 -0.0455  0.0060
    1SOL     OW 7617   0.223   2.190   3.309 -0.0977 -0.0103  0.3021
    1SOL    HW2 7618   0.132   2.190   3.278  0.1903 -2.1240 -0.6249
    1SOL    HW3 7619   0.254   2.101   3.292  1.5508  0.1261  2.4294
    1SOL    MW4 7620   0.215   2.178   3.302  0.1578 -0.2711  0.4606
    1SOL     OW 7621   1.796   1.113   3.763  0.0540  0.0281  0.7933
    1SOL    HW2 7622   1.754   1.180   3.709 -0.0816  0.3279  1.2655
    1SOL    HW3 7623   1.737   1.038   3.759 -0.2434  0.2500  0.9964
    1SOL    MW4 7624   1.783   1.112   3.755 -0.0032  0.0968  0.8824
    1SOL     OW 7625   0.370   0.392   2.401  0.9440 -0.5273 -0.1899
    1SOL    HW2 7626   0.424   0.413   2.325  0.7516  0.3378 -0.0939
    1SOL    HW3 7627   0.281   0.387   2.367  1.0302 -1.5732 -0.2778
    1SOL    MW4 7628   0.366   0.395   2.387  0.9300 -0.5511 -0.1886
    1SOL     OW 7629   3.952   1.972   3.123 -0.4195  0.9231 -0.2767
    1SOL    HW2 7630   3.884   2.040   3.132 -1.0679  0.1159  1.0895
    1SOL    HW3 7631   3.911   1.904   3.069 -0.5365  0.6345  0.1770
    1SOL    MW4 7632   3.938   1.972   3.117 -0.5205  0.7786 -0.0367
    1SOL     OW 7633   2.170   2.090   0.640  0.0128  0.3344  0.1376
    1SOL    HW2 7634   2.262   2.110   0.623 -0.1864  0.9239 -0.2771
    1SOL    HW3 7635   2.172   2.013   0.696  0.7689  0.6906  0.6091
    1SOL    MW4 7636   2.182   2.082   0.645  0.0863  0.4590  0.1451
    1SOL     OW 7637   2.244   1.232   1.870 -0.2967 -0.0472 -0.6082
    1SOL    HW2 7638   2.205   1.246   1.784 -0.3337 -1.7469 -0.9032
    1SOL    HW3 7639   2.338   1.242   1.856 -0.5236  3.1807 -0.0815
    1SOL    MW4 7640   2.251   1.235   1.857 -0.3316  0.1545 -0.5776
    1SOL     OW 7641   2.940   3.838   2.219  0.0850  0.3373  0.1348
    1SOL    HW2 7642   2.926   3.863   2.128  2.6630 -1.9172 -0.9674
    1SOL    HW3 7643   2.854   3.809   2.249 -0.7993  1.0942 -1.5763
    1SOL    MW4 7644   2.927   3.837   2.211  0.3083  0.1397 -0.2365
    1SOL     OW 7645   1.978   1.786   1.432 -0.2249  0.5188  0.1405
    1SOL    HW2 7646   2.047   1.728   1.400 -0.0775  0.6863  0.1507
    1SOL    HW3 7647   1.996   1.870   1.389 -0.1252  0.6983  0.5255
    1SOL    MW4 7648   1.990   1.789   1.422 -0.1924  0.5646  0.1926
    1SOL     OW 7649   0.014   0.622   3.664  0.0591  0.2836 -0.1357
    1SOL    HW2 7650   0.098   0.578   3.647  0.1743  0.2050  0.6419
    1SOL    HW3 7651  -0.021   0.640   3.577  1.4065  1.3213 -0.4888
    1SOL    MW4 7652   0.020   0.619   3.650  0.2521  0.4101 -0.0799
    1SOL     OW 7653   0.512   4.603   3.877  0.4136  0.4253  0.0201
    1SOL    HW2 7654   0.591   4.553   3.899  0.9057  0.8847 -0.6846
    1SOL    HW3 7655   0.528   4.634   3.788 -0.9532 -0.2520 -0.4777
    1SOL    MW4 7656   0.525   4.600   3.868  0.2983  0.3967 -0.1388
    1SOL     OW 7657   2.306   3.940   1.200  0.5477 -0.3973  0.4172
    1SOL    HW2 7658   2.234   3.882   1.223  0.2193 -0.0236  0.3398
    1SOL    HW3 7659   2.379   3.882   1.179  0.4573 -0.7701  1.1071
    1SOL    MW4 7660   2.307   3.925   1.201  0.4923 -0.3972  0.4978
    1SOL     OW 7661   2.100   2.881   2.998  0.1087  0.3555  0.0725
    1SOL    HW2 7662   2.172   2.851   3.053 -0.0972  1.6875  1.0905
    1SOL    HW3 7663   2.037   2.809   2.998  0.3461  0.1493  1.1702
    1SOL    MW4 7664   2.101   2.868   3.005  0.1128  0.5040  0.3514
    1SOL     OW 7665   0.889   1.575   2.983 -0.7508 -0.0882 -0.3322
    1SOL    HW2 7666   0.861   1.510   3.047 -1.1100  0.3573 -0.0353
    1SOL    HW3 7667   0.905   1.654   3.034  1.4977 -0.4586 -0.4352
    1SOL    MW4 7668   0.887   1.576   2.998 -0.5015 -0.0783 -0.3066
    1SOL     OW 7669   0.971   2.054   3.509  0.2611  0.1435 -0.3084
    1SOL    HW2 7670   0.961   2.128   3.569 -2.4674 -1.1453  0.9346
    1SOL    HW3 7671   0.895   2.060   3.451  0.4646 -1.1887 -0.7308
    1SOL    MW4 7672   0.960   2.064   3.510 -0.0721 -0.2022 -0.2000
    1SOL     OW 7673   2.687   2.013   4.254  0.5828  0.0856  0.3479
    1SOL    HW2 7674   2.770   1.993   4.295 -0.2511 -0.2573  1.8963
    1SOL    HW3 7675   2.621   1.975   4.312 -0.7552  2.2368  0.3057
    1SOL    MW4 7676   2.689   2.005   4.267  0.2964  0.3240  0.5469
    1SOL     OW 7677   0.417   0.556   2.976  0.0345  0.0910  0.2350
    1SOL    HW2 7678   0.461   0.480   3.016 -1.5632 -1.3638 -0.6887
    1SOL    HW3 7679   0.487   0.602   2.930  1.0375 -0.8333  0.7958
    1SOL    MW4 7680   0.432   0.552   2.975 -0.0439 -0.2229  0.1867
    1SOL     OW 7681   2.299   2.445   2.656  0.3355 -0.1042 -0.1168
    1SOL    HW2 7682   2.360   2.394   2.602  1.2128  0.0299  0.7432
    1SOL    HW3 7683   2.217   2.396   2.651  0.4576 -0.1809 -1.4336
    1SOL    MW4 7684   2.296   2.432   2.649  0.4671 -0.0966 -0.1774
    1SOL     OW 7685   0.538   2.042   4.504 -0.2750  0.3858  0.2347
    1SOL    HW2 7686   0.445   2.022   4.503 -0.0096 -0.9033 -0.5113
    1SOL    HW3 7687   0.544   2.128   4.544 -1.8642  0.9134 -0.6295
    1SOL    MW4 7688   0.527   2.050   4.509 -0.4496  0.2854  0.0224
    1SOL     OW 7689   1.144   4.422   4.417 -0.4249  0.3744 -0.1590
    1SOL    HW2 7690   1.166   4.406   4.325 -1.5642 -1.1671 -0.1934
    1SOL    HW3 7691   1.081   4.494   4.415  0.9876  1.6047 -0.4331
    1SOL    MW4 7692   1.138   4.429   4.404 -0.3887  0.3338 -0.1993
    1SOL     OW 7693   0.852   3.024   3.018 -0.2297 -0.8302  0.0991
    1SOL    HW2 7694   0.943   3.050   3.006 -0.5593  0.1135 -0.3705
    1SOL    HW3 7695   0.857   2.936   3.055  0.8746 -0.6365  0.4223
    1SOL    MW4 7696   0.864   3.016   3.022 -0.1275 -0.6802  0.0799
    1SOL     OW 7697   1.559   4.267   2.927 -0.4642 -0.6255 -0.0291
    1SOL    HW2 7698   1.484   4.208   2.920 -1.5368  0.6222  0.7458
    1SOL    HW3 7699   1.532   4.334   2.990 -0.0781  1.8751 -2.4134
    1SOL    MW4 7700   1.546   4.268   2.934 -0.5548 -0.1311 -0.2415
    1SOL     OW 7701   1.549   1.656   1.427  0.6190  0.4139  0.0111
    1SOL    HW2 7702   1.635   1.632   1.462  0.5348 -0.4512 -0.3581
    1SOL    HW3 7703   1.509   1.572   1.404 -0.7007  0.7355  1.0769
    1SOL    MW4 7704   1.555   1.642   1.429  0.4338  0.3421  0.1029
    1SOL     OW 7705   1.299   4.019   2.282  0.0969 -0.3224  0.0061
    1SOL    HW2 7706   1.241   3.979   2.346  2.0770 -0.6114  1.6546
    1SOL    HW3 7707   1.330   3.946   2.228 -0.4627 -0.2665 -0.3994
    1SOL    MW4 7708   1.296   4.004   2.283  0.2844 -0.3533  0.1702
    1SOL     OW 7709   2.001   1.735   3.367  0.4987  0.2858 -0.0312
    1SOL    HW2 7710   1.921   1.722   3.316 -0.8272  3.8908  1.0399
    1SOL    HW3 7711   2.064   1.771   3.304  0.0558  1.1430  0.0164
    1SOL    MW4 7712   1.999   1.738   3.352  0.2655  0.8744  0.1161
    1SOL     OW 7713   1.874   2.006   2.884  0.2037 -0.0227  0.0861
    1SOL    HW2 7714   1.941   1.974   2.945 -0.1857 -0.6759  0.1786
    1SOL    HW3 7715   1.906   1.978   2.798  0.3884  0.2555  0.0657
    1SOL    MW4 7716   1.887   1.998   2.881  0.1767 -0.0720  0.0956
    1SOL     OW 7717   2.312   1.802   1.263  0.5107 -0.3217 -0.0661
    1SOL    HW2 7718   2.346   1.790   1.352 -1.6413 -0.2109  0.7939
    1SOL    HW3 7719   2.241   1.865   1.273 -0.9659 -1.7043 -1.5790
    1SOL    MW4 7720   2.307   1.809   1.276  0.0319 -0.4896 -0.1525
    1SOL     OW 7721   0.678   0.896   3.298 -0.1284 -0.2683 -0.0848
    1SOL    HW2 7722   0.588   0.923   3.279 -0.4637 -1.6410 -0.4624
    1SOL    HW3 7723   0.732   0.960   3.252 -0.9166 -0.1301 -0.8284
    1SOL    MW4 7724   0.673   0.908   3.290 -0.2767 -0.4312 -0.2327
    1SOL     OW 7725   2.260   2.443   1.820  0.2099 -0.1820  0.0180
    1SOL    HW2 7726   2.325   2.466   1.886 -0.1735  0.5446  0.1421
    1SOL    HW3 7727   2.248   2.348   1.829  1.4130 -0.3484 -0.1578
    1SOL    MW4 7728   2.267   2.434   1.830  0.3181 -0.1080  0.0110
    1SOL     OW 7729   1.633   0.702   0.803 -0.0151 -0.1678  0.5716
    1SOL    HW2 7730   1.557   0.665   0.849 -0.2486 -0.6030 -0.1469
    1SOL    HW3 7731   1.624   0.670   0.713  0.3587  0.7966  0.1914
    1SOL    MW4 7732   1.622   0.693   0.798  0.0035 -0.0979  0.4267
    1SOL     OW 7733   2.091   2.096   3.675  0.2817 -0.3495 -0.3277
    1SOL    HW2 7734   2.177   2.077   3.638 -0.0153  0.2347 -1.3251
    1SOL    HW3 7735   2.030   2.041   3.625  0.0092 -0.4049  0.0571
    1SOL    MW4 7736   2.094   2.086   3.664  0.2065 -0.2799 -0.4084
    1SOL     OW 7737   4.035   3.176   1.510 -0.2316 -0.3451 -0.3709
    1SOL    HW2 7738   4.064   3.238   1.577  0.1283 -0.0924 -0.7572
    1SOL    HW3 7739   4.112   3.122   1.492 -0.8902 -1.6925  0.8348
    1SOL    MW4 7740   4.049   3.177   1.516 -0.2708 -0.4897 -0.2627
    1SOL     OW 7741   0.222   3.762   3.849 -0.6383 -0.5019 -0.0822
    1SOL    HW2 7742   0.235   3.674   3.812 -0.7846 -0.6992  0.3395
    1SOL    HW3 7743   0.208   3.747   3.942  0.7897  0.0752  0.2455
    1SOL    MW4 7744   0.222   3.748   3.856 -0.4692 -0.4518  0.0165
    1SOL     OW 7745   3.005   3.080   1.293  0.1475 -0.2719 -0.3326
    1SOL    HW2 7746   2.968   3.083   1.381 -1.5847  0.1554 -1.0541
    1SOL    HW3 7747   2.935   3.042   1.239  0.7538  0.5294 -1.7135
    1SOL    MW4 7748   2.991   3.075   1.297 -0.0012 -0.1101 -0.6100
    1SOL     OW 7749   3.789   1.647   0.579 -0.1992 -0.3559  0.4468
    1SOL    HW2 7750   3.695   1.636   0.570 -0.2046 -0.1103  0.1816
    1SOL    HW3 7751   3.800   1.704   0.656 -0.2852 -0.0337  0.2188
    1SOL    MW4 7752   3.778   1.653   0.588 -0.2110 -0.2811  0.3817
    1SOL     OW 7753   0.013   2.603   1.375  0.6367 -0.2542  0.0796
    1SOL    HW2 7754  -0.026   2.643   1.453  2.7803  0.5510  0.7866
    1SOL    HW3 7755   0.095   2.565   1.407  1.1081 -0.6934 -1.6228
    1SOL    MW4 7756   0.019   2.603   1.390  0.9817 -0.2058 -0.0519
    1SOL     OW 7757   1.471   3.842   2.940 -0.3259 -0.0737  0.0944
    1SOL    HW2 7758   1.546   3.884   2.899 -0.3427  0.3314  0.4721
    1SOL    HW3 7759   1.498   3.828   3.031 -1.3578  1.7344  0.7073
    1SOL    MW4 7760   1.484   3.846   2.946 -0.4643  0.2184  0.2251
    1SOL     OW 7761   2.722   3.117   3.924  0.0290  0.3757  0.0162
    1SOL    HW2 7762   2.752   3.080   4.007 -0.2163  1.5677  0.6439
    1SOL    HW3 7763   2.627   3.109   3.926 -0.0917  1.8536  0.5547
    1SOL    MW4 7764   2.714   3.111   3.935 -0.0191  0.7279  0.1700
    1SOL     OW 7765   3.795   1.473   4.058  0.0569  0.3285  0.1462
    1SOL    HW2 7766   3.729   1.411   4.027 -0.9474  1.1050  0.7055
    1SOL    HW3 7767   3.758   1.559   4.037  1.0017  0.7647  0.2554
    1SOL    MW4 7768   3.782   1.476   4.051  0.0489  0.4885  0.2351
    1SOL     OW 7769   2.001   4.591   4.329  0.4228 -0.4301 -0.3805
    1SOL    HW2 7770   1.907   4.577   4.318  0.4521 -0.4462 -0.6112
    1SOL    HW3 7771   2.013   4.686   4.317  0.4372 -0.4299 -0.3627
    1SOL    MW4 7772   1.991   4.602   4.326  0.4284 -0.4320 -0.4082
    1SOL     OW 7773   3.600   0.766   1.492  0.1968 -0.1849  0.2350
    1SOL    HW2 7774   3.658   0.801   1.425 -0.4682  0.0852 -0.2044
    1SOL    HW3 7775   3.519   0.815   1.482 -0.3184 -0.9772  0.4380
    1SOL    MW4 7776   3.597   0.777   1.482  0.0412 -0.2538  0.2037
    1SOL     OW 7777   2.076   1.317   2.070  0.1600  0.0156  0.1508
    1SOL    HW2 7778   1.996   1.265   2.076  0.4593 -0.6078 -1.0517
    1SOL    HW3 7779   2.134   1.265   2.014  0.3496  1.7642 -1.3436
    1SOL    MW4 7780   2.073   1.304   2.063  0.2246  0.1640 -0.2050
    1SOL     OW 7781   2.639   4.338   1.508 -0.2646 -0.8876 -0.2549
    1SOL    HW2 7782   2.569   4.401   1.525 -1.4042 -2.1637 -0.1726
    1SOL    HW3 7783   2.708   4.390   1.466 -0.7833  0.6097  0.6862
    1SOL    MW4 7784   2.639   4.353   1.505 -0.4835 -0.8583 -0.1198
    1SOL     OW 7785   3.981   1.706   3.884 -0.4376 -0.5855  0.2443
    1SOL    HW2 7786   3.909   1.648   3.909 -0.0203 -0.9821  0.5221
    1SOL    HW3 7787   4.058   1.670   3.927 -0.0267 -0.2845 -0.2262
    1SOL    MW4 7788   3.981   1.694   3.893 -0.3281 -0.5981  0.2191
    1SOL     OW 7789   1.055   0.120   3.103  0.0974 -0.0852  0.1237
    1SOL    HW2 7790   1.026   0.031   3.122  0.6564 -0.1342  0.7814
    1SOL    HW3 7791   0.977   0.174   3.115 -0.5931 -0.6348 -1.6231
    1SOL    MW4 7792   1.041   0.115   3.107  0.0801 -0.1642 -0.0200
    1SOL     OW 7793   0.651   4.362   1.851 -0.1781 -0.5832 -0.1953
    1SOL    HW2 7794   0.728   4.339   1.798  0.0526  3.1556 -1.6168
    1SOL    HW3 7795   0.680   4.348   1.941  1.8160 -0.2847 -0.7543
    1SOL    MW4 7796   0.665   4.357   1.856  0.1155 -0.0505 -0.4566
    1SOL     OW 7797   0.338   3.506   2.668  0.3369  0.2906  0.3285
    1SOL    HW2 7798   0.361   3.583   2.720 -0.2410 -0.7777  2.2103
    1SOL    HW3 7799   0.276   3.458   2.723 -1.2968 -0.2021 -1.9238
    1SOL    MW4 7800   0.333   3.510   2.682  0.0451  0.0849  0.2797
    1SOL     OW 7801   4.066   2.381   4.118 -0.1372 -0.4187 -0.4501
    1SOL    HW2 7802   4.131   2.345   4.058 -0.3313 -1.2713 -0.1629
    1SOL    HW3 7803   4.003   2.426   4.062  0.6513  0.3259 -0.7328
    1SOL    MW4 7804   4.066   2.382   4.103 -0.0587 -0.4332 -0.4492
    1SOL     OW 7805   3.951   3.836   0.732 -0.0458 -0.1286 -0.2634
    1SOL    HW2 7806   3.995   3.773   0.675  0.9167  0.0696  0.2602
    1SOL    HW3 7807   4.021   3.878   0.780 -0.7913  0.3677  0.3980
    1SOL    MW4 7808   3.966   3.833   0.731 -0.0172 -0.0372 -0.1070
    1SOL     OW 7809   1.236   2.233   3.223  0.3610  0.1095  0.5297
    1SOL    HW2 7810   1.163   2.234   3.161 -0.1494 -0.6545  1.1069
    1SOL    HW3 7811   1.197   2.262   3.306  0.6380 -0.6341  0.9233
    1SOL    MW4 7812   1.221   2.237   3.226  0.3302 -0.0894  0.6578
    1SOL     OW 7813   4.459   2.378   3.388  0.0687  0.4568 -0.4099
    1SOL    HW2 7814   4.392   2.407   3.326 -2.7921  2.1809  3.2835
    1SOL    HW3 7815   4.433   2.289   3.411 -1.3827  1.3601  1.5177
    1SOL    MW4 7816   4.447   2.370   3.383 -0.5007  0.8032  0.3316
    1SOL     OW 7817   1.084   2.694   3.246  0.4475  0.0225  0.4323
    1SOL    HW2 7818   1.161   2.645   3.274  0.4722  0.6114  1.4327
    1SOL    HW3 7819   1.114   2.785   3.243  0.7163 -0.0907 -2.4639
    1SOL    MW4 7820   1.098   2.700   3.249  0.4863  0.0854  0.1822
    1SOL     OW 7821   2.742   4.294   2.535 -0.1062 -0.4896 -0.2681
    1SOL    HW2 7822   2.705   4.223   2.484 -0.9358 -1.4061  1.5594
    1SOL    HW3 7823   2.743   4.262   2.625  0.2151  1.5127  0.4896
    1SOL    MW4 7824   2.737   4.281   2.540 -0.1733 -0.3467  0.0730
    1SOL     OW 7825   2.984   2.227   3.465  0.2177 -0.1863  0.3901
    1SOL    HW2 7826   2.945   2.282   3.533 -1.6318  0.0902 -0.8527
    1SOL    HW3 7827   2.912   2.172   3.434  0.4543  1.1418 -2.7672
    1SOL    MW4 7828   2.969   2.227   3.470  0.0050  0.0255 -0.1905
    1SOL     OW 7829   2.109   4.325   3.718 -0.0998 -0.2138 -0.1439
    1SOL    HW2 7830   2.043   4.266   3.683 -1.1127  1.0029 -0.3167
    1SOL    HW3 7831   2.061   4.382   3.778  1.4521 -1.7391  2.6935
    1SOL    MW4 7832   2.094   4.325   3.722 -0.0291 -0.2542  0.2079
    1SOL     OW 7833   2.965   1.259   2.495  0.1198  0.0084  0.0503
    1SOL    HW2 7834   2.957   1.211   2.413 -3.4853  0.4567  0.0712
    1SOL    HW3 7835   3.046   1.309   2.485  1.5042 -2.4563 -1.8374
    1SOL    MW4 7836   2.975   1.259   2.483 -0.1731 -0.2576 -0.1960
    1SOL     OW 7837   4.210   0.171   1.598 -0.2116  0.0444 -0.5203
    1SOL    HW2 7838   4.296   0.152   1.636 -0.5625  1.7196  1.1985
    1SOL    HW3 7839   4.148   0.153   1.668 -1.1285  0.4123 -1.2247
    1SOL    MW4 7840   4.213   0.166   1.612 -0.3786  0.3140 -0.3865
    1SOL     OW 7841   0.316   4.594   4.510 -0.0215  0.3600 -0.0877
    1SOL    HW2 7842   0.326   4.499   4.507 -2.7919  0.0429  0.2253
    1SOL    HW3 7843   0.227   4.610   4.479 -0.6141  2.6376  2.5754
    1SOL    MW4 7844   0.306   4.584   4.505 -0.4652  0.6189  0.3052
    1SOL     OW 7845   0.371   2.419   2.345  0.3525 -0.0358 -0.0821
    1SOL    HW2 7846   0.339   2.451   2.429 -0.6864 -1.1599 -0.0368
    1SOL    HW3 7847   0.391   2.326   2.360  1.6358  0.1235 -0.6745
    1SOL    MW4 7848   0.369   2.411   2.358  0.3847 -0.1631 -0.1543
    1SOL     OW 7849   0.825   1.391   1.613 -0.8427 -0.2129  0.1180
    1SOL    HW2 7850   0.742   1.381   1.567  0.0331 -1.6209 -1.2063
    1SOL    HW3 7851   0.867   1.466   1.570 -1.3787  0.4352  0.7204
    1SOL    MW4 7852   0.820   1.400   1.601 -0.7979 -0.3130  0.0229
    1SOL     OW 7853   4.410   1.234   1.458  0.0564  0.5072  0.3458
    1SOL    HW2 7854   4.468   1.280   1.397 -0.8733  1.8413  0.4376
    1SOL    HW3 7855   4.451   1.247   1.544  0.1954  0.5165  0.2796
    1SOL    MW4 7856   4.423   1.242   1.461 -0.0477  0.6846  0.3492
    1SOL     OW 7857   3.858   3.677   2.408  0.2475  0.2289 -0.5115
    1SOL    HW2 7858   3.858   3.689   2.314 -2.8256 -1.5618 -0.8125
    1SOL    HW3 7859   3.771   3.707   2.437  0.2698 -1.3592  1.3828
    1SOL    MW4 7860   3.846   3.683   2.400 -0.1547 -0.2170 -0.3016
    1SOL     OW 7861   0.433   4.546   4.247  0.1487  0.0791 -0.2713
    1SOL    HW2 7862   0.485   4.624   4.227 -0.1406  0.1478 -0.7761
    1SOL    HW3 7863   0.399   4.561   4.335 -0.2535  0.7155 -0.5337
    1SOL    MW4 7864   0.435   4.558   4.256  0.0575  0.1721 -0.3719
    1SOL     OW 7865   0.036   4.172   4.274 -0.1492 -0.3726  0.1843
    1SOL    HW2 7866   0.076   4.119   4.344 -0.7287 -0.4931  0.4232
    1SOL    HW3 7867   0.107   4.229   4.245  0.2744 -0.7591  0.4401
    1SOL    MW4 7868   0.051   4.172   4.280 -0.1697 -0.4396  0.2494
    1SOL     OW 7869   2.347   3.705   3.649 -0.2967  0.0155 -0.0617
    1SOL    HW2 7870   2.399   3.728   3.727  0.7557 -0.4637 -0.6133
    1SOL    HW3 7871   2.393   3.747   3.577  0.3895 -1.9509 -0.8021
    1SOL    MW4 7872   2.360   3.714   3.650 -0.0672 -0.3071 -0.2322
    1SOL     OW 7873   2.076   2.775   2.072  0.0193 -0.1520 -0.0235
    1SOL    HW2 7874   2.072   2.735   1.985  0.0136  1.8747 -0.9833
    1SOL    HW3 7875   2.000   2.833   2.075  0.6198  0.6059  0.9036
    1SOL    MW4 7876   2.066   2.777   2.061  0.0975  0.2155 -0.0277
    1SOL     OW 7877   1.977   0.283   4.006 -0.0791 -0.2259 -0.4409
    1SOL    HW2 7878   2.025   0.293   3.924 -0.4009  0.0092 -0.5998
    1SOL    HW3 7879   1.969   0.372   4.040  1.9343 -0.5060  0.9192
    1SOL    MW4 7880   1.982   0.296   4.000  0.1440 -0.2318 -0.2825
    1SOL     OW 7881   2.549   3.012   1.662  0.3185 -0.1217  0.1474
    1SOL    HW2 7882   2.532   3.084   1.722 -0.5543 -0.0577 -0.1720
    1SOL    HW3 7883   2.577   3.054   1.581 -0.2968 -0.1341 -0.0739
    1SOL    MW4 7884   2.550   3.027   1.659  0.1221 -0.1147  0.0761
    1SOL     OW 7885   1.181   0.298   2.180  0.5926 -0.3568  0.5923
    1SOL    HW2 7886   1.166   0.378   2.232 -2.7676  0.2059 -1.1293
    1SOL    HW3 7887   1.135   0.229   2.228 -0.6864 -0.2540 -0.4528
    1SOL    MW4 7888   1.173   0.300   2.193 -0.0196 -0.2690  0.2272
    1SOL     OW 7889   3.057   1.805   3.700  0.1023  0.0833  0.6317
    1SOL    HW2 7890   3.125   1.737   3.697  0.7990  0.7628  0.9433
    1SOL    HW3 7891   2.998   1.776   3.770  0.7008  0.0734  1.1432
    1SOL    MW4 7892   3.058   1.792   3.709  0.2735  0.1717  0.7403
    1SOL     OW 7893   3.474   1.435   1.899  0.4096  0.4264  0.1338
    1SOL    HW2 7894   3.454   1.519   1.940  2.3599  0.1421  1.7486
    1SOL    HW3 7895   3.410   1.374   1.936  0.0838  0.8370  0.2495
    1SOL    MW4 7896   3.463   1.438   1.909  0.6239  0.4430  0.3620
    1SOL     OW 7897   0.706   3.885   0.793 -0.3289 -0.0094 -0.1117
    1SOL    HW2 7898   0.653   3.964   0.803 -0.5776 -0.0887 -0.8103
    1SOL    HW3 7899   0.747   3.873   0.879 -2.2273 -0.5338  0.7235
    1SOL    MW4 7900   0.705   3.894   0.805 -0.6122 -0.0889 -0.0937
    1SOL     OW 7901   3.985   4.538   0.716  0.9374 -0.2279  0.2964
    1SOL    HW2 7902   4.036   4.617   0.735  0.1361  0.5953 -0.9365
    1SOL    HW3 7903   4.005   4.518   0.625 -0.0621 -0.5552  0.1443
    1SOL    MW4 7904   3.994   4.546   0.707  0.6998 -0.1631  0.1136
    1SOL     OW 7905   1.704   4.132   1.904 -0.3027  0.6960  0.2216
    1SOL    HW2 7906   1.743   4.045   1.889  0.3438  0.8517  0.9621
    1SOL    HW3 7907   1.764   4.193   1.861 -0.3109  0.8441  0.4219
    1SOL    MW4 7908   1.717   4.128   1.896 -0.2185  0.7358  0.3458
    1SOL     OW 7909   0.502   0.392   1.861 -0.2672  0.5551 -0.6456
    1SOL    HW2 7910   0.535   0.303   1.872 -0.5529  0.5374  0.0687
    1SOL    HW3 7911   0.554   0.428   1.789 -0.5015 -0.3571 -1.2784
    1SOL    MW4 7912   0.513   0.385   1.853 -0.3359  0.4324 -0.6349
    1SOL     OW 7913   0.382   4.514   2.174  0.4370 -0.5850  0.3181
    1SOL    HW2 7914   0.318   4.449   2.145  0.9299 -0.8098 -0.2737
    1SOL    HW3 7915   0.422   4.546   2.094  0.8190 -0.1924  0.6646
    1SOL    MW4 7916   0.379   4.509   2.160  0.5524 -0.5622  0.2859
    1SOL     OW 7917   1.547   3.295   4.315  0.2939  0.7125 -0.1446
    1SOL    HW2 7918   1.613   3.352   4.277  0.5618  0.1622 -0.4977
    1SOL    HW3 7919   1.528   3.230   4.248  0.3380  0.0920  0.4347
    1SOL    MW4 7920   1.553   3.294   4.301  0.3351  0.5581 -0.1149
    1SOL     OW 7921   0.758   4.583   4.598  0.0018 -0.0119 -0.2363
    1SOL    HW2 7922   0.674   4.629   4.601 -0.0549 -0.2198  1.5712
    1SOL    HW3 7923   0.824   4.651   4.608 -0.0878 -0.2933  2.6748
    1SOL    MW4 7924   0.755   4.598   4.599 -0.0175 -0.0768  0.3858
    1SOL     OW 7925   2.428   0.249   0.756  0.2850 -0.4352  0.4634
    1SOL    HW2 7926   2.378   0.179   0.715 -0.2532 -0.6824  1.5280
    1SOL    HW3 7927   2.363   0.314   0.782  0.6339 -0.2124  0.7896
    1SOL    MW4 7928   2.413   0.248   0.754  0.2599 -0.4384  0.6469
    1SOL     OW 7929   4.464   0.076   1.241 -0.0456  0.2553  0.0515
    1SOL    HW2 7930   4.379   0.115   1.259 -0.3181  0.2973 -1.3497
    1SOL    HW3 7931   4.462   0.053   1.148  2.2474  2.1441 -0.4985
    1SOL    MW4 7932   4.453   0.078   1.231  0.2213  0.5100 -0.2059
    1SOL     OW 7933   3.826   2.731   3.270 -0.4399 -0.5198 -0.0758
    1SOL    HW2 7934   3.874   2.687   3.341 -1.5427 -0.8534  0.4720
    1SOL    HW3 7935   3.882   2.721   3.193  0.7800 -0.1516  0.7442
    1SOL    MW4 7936   3.840   2.724   3.270 -0.4241 -0.5152  0.1047
    1SOL     OW 7937   0.180   3.078   2.263  0.1202  0.2375 -0.5522
    1SOL    HW2 7938   0.172   2.986   2.236 -0.7800  0.3584 -0.6960
    1SOL    HW3 7939   0.256   3.079   2.321  0.2968 -0.5503 -0.7607
    1SOL    MW4 7940   0.189   3.066   2.267  0.0247  0.1495 -0.5989
    1SOL     OW 7941   0.757   0.759   0.566 -0.0680  0.5674  0.5633
    1SOL    HW2 7942   0.843   0.764   0.608  1.6761  0.6804 -2.8668
    1SOL    HW3 7943   0.723   0.673   0.591  0.8041  0.7133  2.3128
    1SOL    MW4 7944   0.764   0.748   0.575  0.2773  0.6016  0.3415
    1SOL     OW 7945   1.360   1.571   1.876  0.4923 -0.6416  0.1243
    1SOL    HW2 7946   1.373   1.638   1.943  0.1320  0.4751 -0.8987
    1SOL    HW3 7947   1.435   1.514   1.884  1.0726  0.1884  0.6804
    1SOL    MW4 7948   1.371   1.573   1.886  0.5213 -0.3848  0.0627
    1SOL     OW 7949   2.589   1.708   0.965 -0.3361 -0.2734  0.2091
    1SOL    HW2 7950   2.585   1.686   0.872  2.3649 -1.1488  0.2384
    1SOL    HW3 7951   2.567   1.801   0.969  0.2760 -0.0491 -1.3988
    1SOL    MW4 7952   2.586   1.717   0.953  0.1013 -0.3593  0.0008
    1SOL     OW 7953   2.478   0.474   2.403 -0.3487  0.3676 -0.2304
    1SOL    HW2 7954   2.567   0.507   2.410 -0.4309  1.1506 -2.5574
    1SOL    HW3 7955   2.464   0.425   2.485  2.5974 -0.7560 -0.3451
    1SOL    MW4 7956   2.488   0.472   2.415  0.0291  0.3227 -0.5524
    1SOL     OW 7957   0.616   0.698   2.344 -0.2881  0.4589 -0.0674
    1SOL    HW2 7958   0.542   0.721   2.289  0.4941  2.2593 -0.3839
    1SOL    HW3 7959   0.673   0.775   2.343  2.0721 -1.2192 -0.6406
    1SOL    MW4 7960   0.614   0.711   2.337  0.1265  0.4750 -0.1850
    1SOL     OW 7961   0.089   2.010   2.762  0.4185 -0.0949 -0.2937
    1SOL    HW2 7962   0.101   1.949   2.835 -1.0026  0.1370  0.1515
    1SOL    HW3 7963   0.108   1.958   2.684 -1.2686 -1.2658  0.0500
    1SOL    MW4 7964   0.093   1.995   2.761  0.0084 -0.2185 -0.1895
    1SOL     OW 7965   2.532   2.207   3.045 -0.2256 -0.2559 -0.2429
    1SOL    HW2 7966   2.513   2.132   3.102  2.2211 -0.8874 -0.2217
    1SOL    HW3 7967   2.531   2.171   2.956  2.3787 -0.6704 -0.1446
    1SOL    MW4 7968   2.529   2.193   3.041  0.4408 -0.3939 -0.2272
    1SOL     OW 7969   3.116   1.541   1.122  0.0424 -0.1898  0.2666
    1SOL    HW2 7970   3.206   1.570   1.107 -0.5720  0.6016 -2.0544
    1SOL    HW3 7971   3.062   1.605   1.076 -1.5829 -2.0928 -0.5424
    1SOL    MW4 7972   3.121   1.553   1.114 -0.2530 -0.3365 -0.1463
    1SOL     OW 7973   2.786   0.529   2.062  0.1490  0.1672  0.0837
    1SOL    HW2 7974   2.778   0.434   2.070 -0.1552 -0.0585 -2.4051
    1SOL    HW3 7975   2.744   0.563   2.141 -0.6574 -1.7422  0.5245
    1SOL    MW4 7976   2.779   0.521   2.073  0.0024 -0.1146 -0.1864
    1SOL     OW 7977   2.217   4.527   3.517  0.8993 -0.4457  0.2544
    1SOL    HW2 7978   2.176   4.477   3.587 -1.5626  0.2471 -0.6320
    1SOL    HW3 7979   2.246   4.608   3.559  0.3435 -0.4639  0.6781
    1SOL    MW4 7980   2.216   4.531   3.532  0.5014 -0.3567  0.1931
    1SOL     OW 7981   2.686   3.478   3.694 -0.4052 -0.3531 -0.1638
    1SOL    HW2 7982   2.728   3.562   3.674 -1.5435  0.3218  0.2021
    1SOL    HW3 7983   2.686   3.475   3.790 -1.1028 -0.3866 -0.1655
    1SOL    MW4 7984   2.692   3.489   3.704 -0.6473 -0.2682 -0.1159
    1SOL     OW 7985   0.855   2.708   3.086 -0.0238 -0.0502 -0.1401
    1SOL    HW2 7986   0.882   2.646   3.018  1.0602  0.5313 -0.2524
    1SOL    HW3 7987   0.928   2.708   3.148 -1.0429 -0.6326  1.0734
    1SOL    MW4 7988   0.868   2.700   3.085 -0.0153 -0.0503  0.0052
    1SOL     OW 7989   0.813   3.479   2.104  0.1480 -0.4116  0.2040
    1SOL    HW2 7990   0.817   3.564   2.148 -1.3108 -0.2512  0.0421
    1SOL    HW3 7991   0.902   3.464   2.071  0.4624  0.9390  0.4422
    1SOL    MW4 7992   0.825   3.488   2.105 -0.0030 -0.2122  0.2139
    1SOL     OW 7993   0.396   1.026   4.237 -0.4743  0.3213 -0.0714
    1SOL    HW2 7994   0.328   1.089   4.215 -0.5161  0.6537  0.9833
    1SOL    HW3 7995   0.349   0.950   4.270 -0.4584 -0.5519 -1.9907
    1SOL    MW4 7996   0.381   1.024   4.238 -0.4778  0.2499 -0.1855
    1SOL     OW 7997   1.450   0.705   4.145 -0.0414 -0.0858 -0.1016
    1SOL    HW2 7998   1.413   0.737   4.063 -0.7116  0.2674  0.3271
    1SOL    HW3 7999   1.420   0.769   4.211  0.0865 -0.6275  0.4849
    1SOL    MW4 8000   1.441   0.718   4.143 -0.1130 -0.1106  0.0324
    1SOL     OW 8001   2.973   1.801   1.570 -0.3518 -0.0687  0.2808
    1SOL    HW2 8002   3.020   1.806   1.654 -0.1679 -2.1388  0.3259
    1SOL    HW3 8003   2.982   1.710   1.543 -4.4460 -0.5707  0.3079
    1SOL    MW4 8004   2.981   1.790   1.578 -0.8676 -0.4081  0.2903
    1SOL     OW 8005   1.343   1.309   0.723  0.0396  0.8320 -0.5321
    1SOL    HW2 8006   1.311   1.398   0.739 -0.5945  0.5220 -0.0398
    1SOL    HW3 8007   1.346   1.268   0.810 -0.4722  0.1112 -0.8488
    1SOL    MW4 8008   1.339   1.315   0.737 -0.1115  0.6959 -0.5090
    1SOL     OW 8009   4.349   0.286   2.799  0.7743 -0.5446  0.1365
    1SOL    HW2 8010   4.270   0.239   2.821  0.5491  0.2292  1.0034
    1SOL    HW3 8011   4.401   0.288   2.880  1.0416  0.1662 -0.0418
    1SOL    MW4 8012   4.346   0.280   2.812  0.7801 -0.3487  0.2272
    1SOL     OW 8013   4.058   2.619   2.410  0.0031 -0.2148  0.5775
    1SOL    HW2 8014   4.067   2.647   2.501  0.4979 -0.8258  0.7175
    1SOL    HW3 8015   3.997   2.546   2.413  0.4436 -0.5886  0.4851
    1SOL    MW4 8016   4.051   2.613   2.422  0.1264 -0.3448  0.5836
    1SOL     OW 8017   0.057   4.438   1.318 -0.1798 -0.3241  0.0457
    1SOL    HW2 8018   0.023   4.526   1.329  0.0980 -0.3101  0.8307
    1SOL    HW3 8019   0.058   4.401   1.406  2.7202  0.0072  0.1834
    1SOL    MW4 8020   0.052   4.444   1.331  0.2395 -0.2785  0.1674
    1SOL     OW 8021   2.463   0.865   2.943  0.0921  0.0036  0.3916
    1SOL    HW2 8022   2.429   0.780   2.914 -2.2683  1.1785 -0.4042
    1SOL    HW3 8023   2.486   0.911   2.862  0.0252  0.6494  0.7337
    1SOL    MW4 8024   2.461   0.860   2.929 -0.2282  0.2438  0.3314
    1SOL     OW 8025   2.059   4.064   2.230  0.1012 -0.1618  0.2605
    1SOL    HW2 8026   2.094   4.002   2.166  0.2639 -0.6087  0.7795
    1SOL    HW3 8027   2.125   4.134   2.234  0.0518 -0.0911 -0.1169
    1SOL    MW4 8028   2.073   4.065   2.222  0.1161 -0.2112  0.2789
    1SOL     OW 8029   3.440   4.293   0.504  0.5334 -0.0757 -0.3301
    1SOL    HW2 8030   3.458   4.203   0.532 -0.4640 -0.3966 -0.7025
    1SOL    HW3 8031   3.484   4.301   0.420 -1.5605 -1.0741 -1.5578
    1SOL    MW4 8032   3.448   4.282   0.497  0.1256 -0.2494 -0.5411
    1SOL     OW 8033   4.322   2.950   4.603  0.3241 -0.1736 -0.2057
    1SOL    HW2 8034   4.303   2.916   4.515  0.1801  0.1725 -0.3099
    1SOL    HW3 8035   4.375   3.027   4.587 -1.3458  1.0245 -0.0858
    1SOL    MW4 8036   4.326   2.955   4.589  0.0849  0.0303 -0.2036
    1SOL     OW 8037   1.157   0.357   0.821 -0.1280  0.6339 -0.0042
    1SOL    HW2 8038   1.090   0.295   0.792  0.1242  1.2978 -2.0720
    1SOL    HW3 8039   1.134   0.440   0.779  0.0343  1.7584  2.0545
    1SOL    MW4 8040   1.145   0.360   0.811 -0.0733  0.8699 -0.0054
    1SOL     OW 8041   1.584   2.043   2.404  0.3662  0.4077 -0.1094
    1SOL    HW2 8042   1.661   1.992   2.379  0.1242  0.2225 -0.4803
    1SOL    HW3 8043   1.524   1.977   2.440  0.3109  0.5271  0.0159
    1SOL    MW4 8044   1.586   2.027   2.406  0.3270  0.3989 -0.1416
    1SOL     OW 8045   1.311   1.516   4.065 -0.3620  0.0747  0.1631
    1SOL    HW2 8046   1.300   1.463   4.144  0.6463  1.7771  1.4679
    1SOL    HW3 8047   1.232   1.570   4.061 -0.9343 -0.8080 -0.6248
    1SOL    MW4 8048   1.299   1.516   4.075 -0.3045  0.1827  0.2313
    1SOL     OW 8049   3.021   0.672   3.132  0.2520 -0.4721  0.2277
    1SOL    HW2 8050   3.038   0.759   3.098 -2.7985 -0.6233 -1.8370
    1SOL    HW3 8051   2.968   0.687   3.211 -1.1497 -0.4749 -0.7031
    1SOL    MW4 8052   3.016   0.685   3.138 -0.3355 -0.4925 -0.1674
    1SOL     OW 8053   2.306   0.721   3.524  0.0242 -0.6295 -0.4798
    1SOL    HW2 8054   2.380   0.673   3.558  0.8022  0.9134  0.0683
    1SOL    HW3 8055   2.248   0.654   3.487  1.2839 -1.9084 -0.1640
    1SOL    MW4 8056   2.308   0.706   3.524  0.2933 -0.5946 -0.3662
    1SOL     OW 8057   0.908   2.174   2.293  0.7313  0.3553  0.1324
    1SOL    HW2 8058   1.003   2.171   2.305  0.8856  0.2326 -1.1293
    1SOL    HW3 8059   0.886   2.267   2.300  0.7923  0.2786  1.5154
    1SOL    MW4 8060   0.918   2.186   2.296  0.7598  0.3293  0.1485
    1SOL     OW 8061   2.234   3.373   4.694  0.0621  0.1794  0.2620
    1SOL    HW2 8062   2.229   3.384   4.789  1.5160 -0.5491  0.4264
    1SOL    HW3 8063   2.188   3.291   4.678  1.7611 -0.8414  0.5817
    1SOL    MW4 8064   2.227   3.364   4.705  0.4780 -0.0515  0.3257
    1SOL     OW 8065   0.388   0.283   4.246  0.4001  0.2854  0.3701
    1SOL    HW2 8066   0.466   0.228   4.242  0.5713  0.4591  1.1498
    1SOL    HW3 8067   0.420   0.368   4.274  0.1375  0.7954 -0.8475
    1SOL    MW4 8068   0.402   0.287   4.249  0.3881  0.3756  0.3123
    1SOL     OW 8069   2.844   3.720   2.571  0.1645  0.2250 -0.0801
    1SOL    HW2 8070   2.832   3.723   2.666 -0.0389  1.7916 -0.1464
    1SOL    HW3 8071   2.864   3.810   2.547  0.2978 -0.1879 -1.5208
    1SOL    MW4 8072   2.845   3.732   2.581  0.1554  0.3772 -0.2792
    1SOL     OW 8073   2.520   2.334   2.503 -0.3784 -0.3645 -0.0491
    1SOL    HW2 8074   2.522   2.239   2.500 -1.8886 -0.4320  0.5828
    1SOL    HW3 8075   2.612   2.360   2.510 -0.0053 -1.7996  0.6143
    1SOL    MW4 8076   2.532   2.325   2.504 -0.5283 -0.5624  0.1216
    1SOL     OW 8077   0.989   1.496   3.376 -0.3561 -0.9543  0.3477
    1SOL    HW2 8078   0.933   1.574   3.380  1.2872  0.3635 -1.8333
    1SOL    HW3 8079   1.004   1.474   3.468 -1.0872  1.1033  0.9990
    1SOL    MW4 8080   0.983   1.503   3.389 -0.2358 -0.5089  0.1457
    1SOL     OW 8081   0.840   1.631   2.441  0.7781 -0.3189  0.6690
    1SOL    HW2 8082   0.929   1.604   2.465  1.4403 -0.0942 -1.4894
    1SOL    HW3 8083   0.811   1.567   2.377 -0.6063 -0.3336  1.2843
    1SOL    MW4 8084   0.848   1.619   2.436  0.6827 -0.2912  0.4656
    1SOL     OW 8085   2.437   1.760   2.664 -0.4546  0.0779 -0.3682
    1SOL    HW2 8086   2.463   1.830   2.604 -2.2025  1.2507  0.2110
    1SOL    HW3 8087   2.430   1.683   2.608 -0.2001  0.7349 -1.3247
    1SOL    MW4 8088   2.440   1.759   2.648 -0.6516  0.3194 -0.4179
    1SOL     OW 8089   2.889   4.057   1.012  0.5466  0.2685 -0.0487
    1SOL    HW2 8090   2.936   4.063   1.095 -1.1118 -0.3692  0.9647
    1SOL    HW3 8091   2.858   4.146   0.996 -0.5481  0.0695  0.8871
    1SOL    MW4 8092   2.891   4.070   1.021  0.1831  0.1583  0.2085
    1SOL     OW 8093   1.323   0.151   1.436 -0.4119  0.1294 -0.0932
    1SOL    HW2 8094   1.415   0.128   1.447 -0.5018  0.3212  1.2248
    1SOL    HW3 8095   1.284   0.075   1.394  0.4154  0.1957 -1.0070
    1SOL    MW4 8096   1.330   0.138   1.432 -0.3146  0.1635 -0.0397
    1SOL     OW 8097   2.790   4.578   3.694 -0.1780  0.2489 -0.1014
    1SOL    HW2 8098   2.725   4.518   3.660 -0.6803  0.2416  0.8610
    1SOL    HW3 8099   2.791   4.562   3.788 -0.9515  2.3532  0.2855
    1SOL    MW4 8100   2.782   4.568   3.702 -0.3462  0.5255  0.0765
    1SOL     OW 8101   0.890   3.553   3.764 -0.1440 -0.1107 -0.2429
    1SOL    HW2 8102   0.889   3.645   3.789 -1.5491  0.2859 -1.6880
    1SOL    HW3 8103   0.805   3.539   3.722  0.0407 -2.0742  0.0015
    1SOL    MW4 8104   0.878   3.563   3.762 -0.3051 -0.3176 -0.4010
    1SOL     OW 8105   4.039   2.697   4.082  0.4386  0.5343  0.0421
    1SOL    HW2 8106   3.978   2.744   4.025  1.3236  0.2200 -1.1892
    1SOL    HW3 8107   3.984   2.661   4.151 -0.8671 -0.1404 -1.3182
    1SOL    MW4 8108   4.024   2.698   4.083  0.3834  0.4036 -0.3004
    1SOL     OW 8109   3.100   1.883   4.693 -0.4720  0.3281 -0.3153
    1SOL    HW2 8110   3.067   1.841   4.772 -0.1964  1.1093  0.2163
    1SOL    HW3 8111   3.165   1.823   4.659 -1.1448 -0.3742 -0.3762
    1SOL    MW4 8112   3.104   1.870   4.699 -0.5248  0.3384 -0.2532
    1SOL     OW 8113   1.176   3.978   4.593  0.0501  0.0534  0.2986
    1SOL    HW2 8114   1.161   3.936   4.677  0.4496  0.2725  0.4814
    1SOL    HW3 8115   1.264   3.949   4.567  0.9156  1.8682  1.0911
    1SOL    MW4 8116   1.186   3.969   4.601  0.2170  0.3216  0.4277
    1SOL     OW 8117   0.348   0.429   1.162 -0.5423  0.1416  0.7470
    1SOL    HW2 8118   0.404   0.402   1.089 -1.2778  2.2089 -0.6225
    1SOL    HW3 8119   0.299   0.350   1.184 -0.3379 -0.5200 -1.0514
    1SOL    MW4 8120   0.349   0.415   1.155 -0.6123  0.3271  0.3290
    1SOL     OW 8121   2.499   3.688   1.211 -0.0442  0.5099  0.5511
    1SOL    HW2 8122   2.594   3.696   1.221  0.1539 -0.7425 -0.3029
    1SOL    HW3 8123   2.468   3.660   1.298  0.4793 -0.0311  0.5639
    1SOL    MW4 8124   2.507   3.686   1.224  0.0510  0.2730  0.4400
    1SOL     OW 8125   2.172   4.127   1.767 -0.1485 -0.0404  0.2103
    1SOL    HW2 8126   2.173   4.203   1.826  0.5388  0.3385 -0.2794
    1SOL    HW3 8127   2.260   4.125   1.730 -0.8118  0.2243 -1.4386
    1SOL    MW4 8128   2.184   4.137   1.770 -0.1452  0.0448 -0.0720
    1SOL     OW 8129   1.103   2.351   3.450  0.2813  0.1648 -0.3582
    1SOL    HW2 8130   1.058   2.422   3.402  1.1904 -0.2002 -1.7939
    1SOL    HW3 8131   1.049   2.336   3.527 -0.1324  2.1721 -0.2351
    1SOL    MW4 8132   1.090   2.359   3.454  0.3467  0.3812 -0.5314
    1SOL     OW 8133   0.796   3.317   3.522 -0.1258  0.1865  0.2826
    1SOL    HW2 8134   0.807   3.412   3.516  0.5923  0.2348  1.9922
    1SOL    HW3 8135   0.834   3.294   3.607 -2.3122 -1.3354  0.8803
    1SOL    MW4 8136   0.802   3.327   3.533 -0.3195 -0.0076  0.5870
    1SOL     OW 8137   0.787   1.323   2.076  0.1436  0.3211 -0.0763
    1SOL    HW2 8138   0.699   1.302   2.045 -0.5683 -0.2155  2.2268
    1SOL    HW3 8139   0.780   1.412   2.111  1.1048  1.1869 -1.9965
    1SOL    MW4 8140   0.775   1.332   2.076  0.1764  0.3647 -0.0257
    1SOL     OW 8141   2.560   2.028   1.607  0.3217 -0.2054  0.6491
    1SOL    HW2 8142   2.599   1.949   1.646  2.3549 -0.2470 -1.3834
    1SOL    HW3 8143   2.633   2.087   1.594 -0.3674  0.0128 -2.6014
    1SOL    MW4 8144   2.574   2.025   1.611  0.4990 -0.1822 -0.0479
    1SOL     OW 8145   2.280   0.753   2.041 -0.2645  0.4923 -0.2255
    1SOL    HW2 8146   2.352   0.695   2.015  0.1095  0.3337  1.1354
    1SOL    HW3 8147   2.214   0.694   2.077  0.0875  0.8916  1.0955
    1SOL    MW4 8148   2.281   0.737   2.042 -0.1688  0.5240  0.1283
    1SOL     OW 8149   3.121   1.999   0.571 -0.2737  0.4276  0.9015
    1SOL    HW2 8150   3.088   1.950   0.646 -0.3078  0.2550  0.7751
    1SOL    HW3 8151   3.200   1.953   0.544  1.3606  2.1670  2.6051
    1SOL    MW4 8152   3.127   1.986   0.577 -0.0627  0.6343  1.1097
    1SOL     OW 8153   2.015   1.241   0.684  0.2788 -0.0205 -0.8318
    1SOL    HW2 8154   2.040   1.242   0.776  0.4122  0.7302 -0.8698
    1SOL    HW3 8155   1.997   1.149   0.664  3.4055 -0.6610 -0.9248
    1SOL    MW4 8156   2.016   1.229   0.694  0.7091 -0.0060 -0.8491
    1SOL     OW 8157   1.012   3.473   3.074  0.0353  0.1244 -0.3265
    1SOL    HW2 8158   1.063   3.393   3.087  1.9359  1.2544 -0.6033
    1SOL    HW3 8159   0.922   3.443   3.062  0.6360 -1.9241  0.1320
    1SOL    MW4 8160   1.007   3.459   3.074  0.3655  0.0033 -0.3023
    1SOL     OW 8161   0.832   0.901   2.434  0.2791  0.1141 -0.0083
    1SOL    HW2 8162   0.923   0.894   2.407  0.4694  1.6449  0.1959
    1SOL    HW3 8163   0.826   0.985   2.480 -1.6173  0.8961 -1.5782
    1SOL    MW4 8164   0.843   0.911   2.437  0.0540  0.4193 -0.1886
    1SOL     OW 8165   0.317   1.995   2.006  0.0723 -0.1995  0.0828
    1SOL    HW2 8166   0.388   2.057   1.991 -0.1944 -0.1098 -0.7906
    1SOL    HW3 8167   0.307   1.994   2.101  1.2522 -0.2190  0.2226
    1SOL    MW4 8168   0.325   2.003   2.017  0.1928 -0.1903 -0.0138
    1SOL     OW 8169   2.000   3.872   2.459 -0.3236  0.2244 -0.1628
    1SOL    HW2 8170   2.070   3.851   2.521  0.8373 -2.4119 -2.2797
    1SOL    HW3 8171   2.044   3.917   2.388 -1.2491  0.9505 -0.2914
    1SOL    MW4 8172   2.015   3.875   2.458 -0.2925 -0.0277 -0.4592
    1SOL     OW 8173   3.586   0.352   4.314 -0.3614  0.2938  0.2657
    1SOL    HW2 8174   3.556   0.282   4.372  0.8885  0.2371  0.8628
    1SOL    HW3 8175   3.566   0.432   4.363  0.3309  0.2597  0.6165
    1SOL    MW4 8176   3.579   0.353   4.328 -0.1049  0.2818  0.3910
    1SOL     OW 8177   2.848   0.510   4.355 -0.2766  0.0668 -0.1811
    1SOL    HW2 8178   2.878   0.439   4.411  0.5945  0.2572 -0.3898
    1SOL    HW3 8179   2.865   0.479   4.266 -0.4449  0.2918 -0.2919
    1SOL    MW4 8180   2.855   0.497   4.350 -0.1841  0.1216 -0.2232
    1SOL     OW 8181   2.919   2.443   4.366 -0.1932 -0.8990 -0.2361
    1SOL    HW2 8182   2.922   2.498   4.289 -1.0186  0.0117  0.3722
    1SOL    HW3 8183   2.826   2.422   4.378  0.0307 -1.8500 -0.0642
    1SOL    MW4 8184   2.907   2.447   4.358 -0.2725 -0.9043 -0.1335
    1SOL     OW 8185   3.435   0.130   2.274  0.1382 -0.4769 -0.2008
    1SOL    HW2 8186   3.479   0.048   2.252 -2.0917 -1.4816 -1.0347
    1SOL    HW3 8187   3.381   0.150   2.198  0.3554  1.5938  0.1463
    1SOL    MW4 8188   3.434   0.122   2.261 -0.1273 -0.3363 -0.2649
    1SOL     OW 8189   0.912   3.115   3.360  0.0133 -0.0950 -0.0306
    1SOL    HW2 8190   0.868   3.181   3.413 -0.1806 -1.2628  1.2945
    1SOL    HW3 8191   0.919   3.039   3.418  0.8854 -0.9877 -1.2907
    1SOL    MW4 8192   0.907   3.114   3.375  0.1028 -0.3669 -0.0219
    1SOL     OW 8193   3.175   1.927   1.126  0.1045 -0.5689  0.4433
    1SOL    HW2 8194   3.252   1.961   1.081 -1.0018 -0.8837 -1.7352
    1SOL    HW3 8195   3.211   1.870   1.195  1.8162 -0.6430 -0.4854
    1SOL    MW4 8196   3.190   1.924   1.129  0.1843 -0.6201  0.0334
    1SOL     OW 8197   1.921   3.979   3.829 -0.9862  0.0622 -0.1854
    1SOL    HW2 8198   1.885   3.912   3.889 -0.9114 -0.9129 -1.2184
    1SOL    HW3 8199   2.008   3.947   3.807 -0.8066  0.6984 -0.4037
    1SOL    MW4 8200   1.928   3.966   3.834 -0.9527  0.0174 -0.3507
    1SOL     OW 8201   1.075   1.770   0.974 -0.7142  0.4724  0.3503
    1SOL    HW2 8202   1.031   1.693   1.009 -0.3987  0.4279  0.6441
    1SOL    HW3 8203   1.065   1.761   0.879 -0.4360 -0.0758  0.3697
    1SOL    MW4 8204   1.068   1.758   0.966 -0.6359  0.3941  0.3916
    1SOL     OW 8205   1.488   3.077   4.134 -0.0369  0.1191  0.5913
    1SOL    HW2 8206   1.565   3.078   4.078 -1.4104 -0.0642 -1.3720
    1SOL    HW3 8207   1.481   2.987   4.164  0.0865 -0.0345  0.1602
    1SOL    MW4 8208   1.497   3.065   4.130 -0.2018  0.0746  0.2756
    1SOL     OW 8209   1.088   3.668   2.122  0.3817  0.3102  0.4241
    1SOL    HW2 8210   1.060   3.608   2.191  0.4721 -0.4590 -0.2035
    1SOL    HW3 8211   1.025   3.740   2.127 -0.3750 -0.3464  0.4799
    1SOL    MW4 8212   1.076   3.670   2.132  0.2939  0.1221  0.3486
    1SOL     OW 8213   3.251   3.439   0.701  0.5271 -0.0841 -0.1300
    1SOL    HW2 8214   3.310   3.506   0.736 -0.7760  1.2967 -0.5337
    1SOL    HW3 8215   3.221   3.475   0.617 -3.0818  0.5625  1.3581
    1SOL    MW4 8216   3.255   3.453   0.695 -0.1209  0.1833  0.0131
    1SOL     OW 8217   0.840   1.956   2.454 -0.0587  0.7515  0.3385
    1SOL    HW2 8218   0.833   1.864   2.428  1.1275  0.7081  0.1796
    1SOL    HW3 8219   0.865   2.002   2.374 -1.1616  1.2980  0.2910
    1SOL    MW4 8220   0.842   1.950   2.440 -0.0477  0.8180  0.3111
    1SOL     OW 8221   4.177   2.122   4.456  0.0367  0.4751 -0.3913
    1SOL    HW2 8222   4.122   2.182   4.405  0.9778  1.5194 -0.2031
    1SOL    HW3 8223   4.256   2.111   4.404 -0.4598 -1.2609 -0.7991
    1SOL    MW4 8224   4.180   2.129   4.442  0.0958  0.3841 -0.4206
    1SOL     OW 8225   3.495   0.076   1.089  0.0066 -0.2087 -0.0173
    1SOL    HW2 8226   3.493   0.147   1.153  2.8489 -0.1498  0.0738
    1SOL    HW3 8227   3.549   0.110   1.017 -0.3844 -1.5055 -0.9557
    1SOL    MW4 8228   3.502   0.090   1.088  0.3302 -0.3720 -0.1291
    1SOL     OW 8229   0.564   2.489   4.407 -0.1641  0.0863 -0.0606
    1SOL    HW2 8230   0.657   2.467   4.401 -0.2965 -0.5850  0.2660
    1SOL    HW3 8231   0.525   2.452   4.328 -0.2309 -0.0551  0.0373
    1SOL    MW4 8232   0.571   2.481   4.396 -0.1904 -0.0207 -0.0048
    1SOL     OW 8233   3.139   1.112   3.840 -0.0223  0.0801  0.5747
    1SOL    HW2 8234   3.045   1.095   3.845 -0.0199 -0.0335  0.2628
    1SOL    HW3 8235   3.178   1.029   3.814  0.2066  0.0281  1.0822
    1SOL    MW4 8236   3.132   1.099   3.837  0.0081  0.0583  0.6006
    1SOL     OW 8237   3.775   2.360   2.970  0.9940 -0.0950  0.1345
    1SOL    HW2 8238   3.762   2.282   2.915 -1.3135 -0.3262  0.9651
    1SOL    HW3 8239   3.816   2.424   2.911 -0.4137 -0.7126 -1.5732
    1SOL    MW4 8240   3.779   2.358   2.955  0.5038 -0.2069  0.0188
    1SOL     OW 8241   1.285   1.305   4.287 -0.3506 -0.2260  0.0500
    1SOL    HW2 8242   1.284   1.219   4.245  1.8394 -0.1912 -0.1301
    1SOL    HW3 8243   1.308   1.287   4.379 -1.1675  0.0584  0.3174
    1SOL    MW4 8244   1.288   1.292   4.294 -0.1694 -0.1838  0.0615
    1SOL     OW 8245   0.135   2.745   2.446 -0.6100  0.6240  0.2624
    1SOL    HW2 8246   0.128   2.719   2.354  0.0114 -0.1179  0.4262
    1SOL    HW3 8247   0.082   2.682   2.493  3.0141 -2.0335  0.9540
    1SOL    MW4 8248   0.127   2.733   2.440 -0.0498  0.1757  0.3755
    1SOL     OW 8249   3.910   3.104   3.737 -0.2181 -0.0569  0.2166
    1SOL    HW2 8250   3.927   3.172   3.671  1.1266 -1.5048 -0.9337
    1SOL    HW3 8251   3.996   3.072   3.762 -0.8728 -1.9078  0.1571
    1SOL    MW4 8252   3.923   3.109   3.731 -0.1273 -0.4921  0.0570
    1SOL     OW 8253   3.312   4.041   4.456  0.1879  0.5042 -0.1069
    1SOL    HW2 8254   3.373   3.974   4.423  0.4417  0.2523  0.8652
    1SOL    HW3 8255   3.368   4.108   4.494 -0.1233  0.4846  0.3912
    1SOL    MW4 8256   3.328   4.041   4.457  0.1800  0.4687  0.0873
    1SOL     OW 8257   0.521   0.024   1.650  0.2373  0.0015  0.9807
    1SOL    HW2 8258   0.459  -0.048   1.664  0.3968 -0.1802  0.7505
    1SOL    HW3 8259   0.578  -0.007   1.580 -0.1465  0.6378  0.3737
    1SOL    MW4 8260   0.520   0.010   1.642  0.2077  0.0615  0.8702
    1SOL     OW 8261   2.450   3.094   3.921 -0.4736  0.5363  0.7026
    1SOL    HW2 8262   2.419   3.100   3.830  0.7444  1.2205  0.3256
    1SOL    HW3 8263   2.456   3.000   3.938 -1.4609  0.4006  0.3427
    1SOL    MW4 8264   2.447   3.083   3.911 -0.4432  0.6087  0.6051
    1SOL     OW 8265   1.778   0.051   1.924 -0.3465 -0.1424 -0.3423
    1SOL    HW2 8266   1.780  -0.004   2.002  0.8705 -0.0456 -0.2830
    1SOL    HW3 8267   1.688   0.084   1.918 -0.0485  1.1612  1.9456
    1SOL    MW4 8268   1.767   0.048   1.933 -0.1467  0.0424 -0.0325
    1SOL     OW 8269   0.034   2.290   4.292  0.0890 -0.3367  0.0003
    1SOL    HW2 8270   0.013   2.307   4.200  0.3178 -1.5649 -0.2790
    1SOL    HW3 8271  -0.034   2.336   4.341 -1.4222 -1.6412 -0.8359
    1SOL    MW4 8272   0.022   2.299   4.286 -0.0803 -0.6709 -0.1469
    1SOL     OW 8273   4.131   1.335   1.170 -0.0797  0.4558 -0.2708
    1SOL    HW2 8274   4.080   1.399   1.121  0.7753 -0.0280 -1.7930
    1SOL    HW3 8275   4.216   1.332   1.126  0.2869 -0.8728  0.4972
    1SOL    MW4 8276   4.136   1.343   1.158  0.0806  0.2165 -0.3703
    1SOL     OW 8277   1.180   2.267   2.827  0.4516  0.2782 -0.1840
    1SOL    HW2 8278   1.119   2.262   2.900 -0.1476 -0.7866 -0.7508
    1SOL    HW3 8279   1.134   2.228   2.753  2.1901 -1.5160 -0.3574
    1SOL    MW4 8280   1.166   2.261   2.827  0.6019 -0.0987 -0.2818
    1SOL     OW 8281   1.475   4.286   1.528  0.1440  0.5036 -0.1368
    1SOL    HW2 8282   1.399   4.237   1.560 -0.4528  0.0915 -2.0641
    1SOL    HW3 8283   1.538   4.219   1.502  0.8794  0.8344  0.7643
    1SOL    MW4 8284   1.473   4.271   1.529  0.1624  0.4930 -0.2722
    1SOL     OW 8285   3.774   0.108   1.361 -0.9699 -0.0296 -0.6954
    1SOL    HW2 8286   3.799   0.143   1.276 -0.6669  1.1654 -0.1135
    1SOL    HW3 8287   3.844   0.045   1.382 -0.8389 -0.0353 -1.1339
    1SOL    MW4 8288   3.787   0.104   1.353 -0.9124  0.1273 -0.6764
    1SOL     OW 8289   1.182   0.454   3.893 -0.0096 -0.5054 -1.2303
    1SOL    HW2 8290   1.220   0.543   3.892  0.4451 -0.6726 -0.1603
    1SOL    HW3 8291   1.088   0.468   3.886 -0.0981  0.1950  0.8521
    1SOL    MW4 8292   1.175   0.468   3.892  0.0389 -0.4351 -0.8144
    1SOL     OW 8293   0.730   1.715   4.238 -0.5997  0.2830 -0.4260
    1SOL    HW2 8294   0.736   1.733   4.332 -1.2254  1.7436 -0.6489
    1SOL    HW3 8295   0.742   1.801   4.197 -0.4496 -0.3336 -1.6768
    1SOL    MW4 8296   0.733   1.729   4.245 -0.6624  0.3945 -0.6204
    1SOL     OW 8297   4.034   2.745   0.941  0.2050 -0.1573  0.2245
    1SOL    HW2 8298   4.029   2.726   1.035 -0.1874  0.7949  0.4006
    1SOL    HW3 8299   4.128   2.751   0.923  0.2684  2.1711  1.0903
    1SOL    MW4 8300   4.046   2.743   0.951  0.1616  0.2756  0.3620
    1SOL     OW 8301   3.365   1.323   2.565 -0.1726 -0.0948 -0.0876
    1SOL    HW2 8302   3.347   1.229   2.572 -3.7548  0.5429  0.4958
    1SOL    HW3 8303   3.401   1.347   2.651 -1.1395 -0.5954  0.4733
    1SOL    MW4 8304   3.367   1.314   2.577 -0.7730 -0.0767  0.0634
    1SOL     OW 8305   4.163   4.028   4.090 -0.1289 -0.1913 -0.0155
    1SOL    HW2 8306   4.135   4.050   4.002  0.2258 -0.4772 -0.2013
    1SOL    HW3 8307   4.258   4.039   4.089 -0.0922 -0.4623  0.2492
    1SOL    MW4 8308   4.172   4.032   4.078 -0.0777 -0.2651 -0.0052
    1SOL     OW 8309   1.814   2.694   1.904  0.5086  0.7842  0.0819
    1SOL    HW2 8310   1.901   2.683   1.865  0.3372  1.4218 -0.4697
    1SOL    HW3 8311   1.772   2.762   1.852  0.1514  1.3989  1.1595
    1SOL    MW4 8312   1.820   2.701   1.892  0.4387  0.9494  0.1514
    1SOL     OW 8313   2.077   1.189   4.675  0.2017 -0.3970  0.5844
    1SOL    HW2 8314   2.144   1.175   4.608  0.6552 -2.7714  1.4813
    1SOL    HW3 8315   2.126   1.215   4.753 -0.1312  0.1222  0.6226
    1SOL    MW4 8316   2.092   1.190   4.676  0.2174 -0.6417  0.7071
    1SOL     OW 8317   1.234   1.824   1.263  0.7187  0.9108 -0.4454
    1SOL    HW2 8318   1.196   1.903   1.224  0.8837  1.1344 -0.1538
    1SOL    HW3 8319   1.288   1.857   1.335  0.1193  0.4854  0.2129
    1SOL    MW4 8320   1.236   1.839   1.267  0.6615  0.8842 -0.3200
    1SOL     OW 8321   0.086   3.064   1.694 -0.6566  0.1540 -0.4701
    1SOL    HW2 8322   0.129   2.980   1.713 -1.1166  0.2361  1.0105
    1SOL    HW3 8323  -0.007   3.043   1.694 -0.7000  0.3477 -1.7727
    1SOL    MW4 8324   0.079   3.050   1.697 -0.7230  0.1903 -0.4466
    1SOL     OW 8325   0.515   1.142   3.547 -0.0857  0.0798 -0.5750
    1SOL    HW2 8326   0.552   1.182   3.625 -3.2262  0.2182  0.9096
    1SOL    HW3 8327   0.553   1.054   3.546  1.4031  0.6923  0.0403
    1SOL    MW4 8328   0.525   1.135   3.557 -0.3036  0.1788 -0.2983
    1SOL     OW 8329   2.471   2.801   3.984  0.1062  0.1800  0.4754
    1SOL    HW2 8330   2.455   2.800   3.890 -1.5743  1.7236  0.7144
    1SOL    HW3 8331   2.567   2.805   3.992  0.2817 -0.5479 -1.1421
    1SOL    MW4 8332   2.482   2.802   3.972 -0.0925  0.2875  0.2935
    1SOL     OW 8333   1.437   3.931   1.575  0.2598 -0.0453  0.1764
    1SOL    HW2 8334   1.378   4.000   1.607  0.8858 -0.5468  2.5071
    1SOL    HW3 8335   1.513   3.978   1.543 -0.4512  0.4872 -0.7486
    1SOL    MW4 8336   1.439   3.946   1.575  0.2486 -0.0412  0.3619
    1SOL     OW 8337   1.843   3.620   2.535 -0.1526  0.7641 -0.4890
    1SOL    HW2 8338   1.756   3.619   2.495 -1.4132  2.4799  2.0869
    1SOL    HW3 8339   1.887   3.695   2.494 -0.2628  0.5444 -1.0159
    1SOL    MW4 8340   1.837   3.630   2.524 -0.3333  0.9615 -0.2189
    1SOL     OW 8341   1.743   4.517   4.256 -0.2306 -0.9350  0.2859
    1SOL    HW2 8342   1.762   4.486   4.167  0.9391 -1.7778  0.8283
    1SOL    HW3 8343   1.754   4.441   4.311 -3.2515 -0.9907  0.9082
    1SOL    MW4 8344   1.747   4.503   4.251 -0.4749 -1.0533  0.4396
    1SOL     OW 8345   2.050   4.387   1.140  0.2838 -0.1414 -0.0435
    1SOL    HW2 8346   2.026   4.298   1.113  0.4166 -0.0203 -0.5583
    1SOL    HW3 8347   2.035   4.388   1.235  1.7695 -1.1776  0.2190
    1SOL    MW4 8348   2.045   4.375   1.149  0.4976 -0.2613 -0.0768
    1SOL     OW 8349   0.074   2.497   3.621 -0.7254 -0.1628  0.3144
    1SOL    HW2 8350   0.032   2.472   3.539  0.4259  1.7811 -0.9229
    1SOL    HW3 8351   0.017   2.564   3.658 -0.1340  0.5152  0.0063
    1SOL    MW4 8352   0.061   2.502   3.615 -0.4955  0.1833  0.1106
    1SOL     OW 8353   0.377   2.075   3.675  0.3390 -0.4363 -0.1432
    1SOL    HW2 8354   0.418   2.122   3.748 -1.0748 -0.1736  0.4868
    1SOL    HW3 8355   0.297   2.123   3.657  0.7231 -0.4448 -1.9554
    1SOL    MW4 8356   0.372   2.087   3.683  0.2031 -0.4029 -0.2990
    1SOL     OW 8357   4.081   0.782   4.419  0.0559  0.1192 -0.2277
    1SOL    HW2 8358   4.041   0.867   4.436  1.5022  1.3371 -2.5582
    1SOL    HW3 8359   4.008   0.721   4.414 -0.9475  1.0745  2.1798
    1SOL    MW4 8360   4.066   0.785   4.420  0.1144  0.4059 -0.2174
    1SOL     OW 8361   3.509   2.273   3.798  0.0567  0.3370 -0.0167
    1SOL    HW2 8362   3.560   2.354   3.802  0.5964 -0.0460  1.3637
    1SOL    HW3 8363   3.507   2.250   3.706  1.2561  1.0755 -0.2319
    1SOL    MW4 8364   3.515   2.281   3.787  0.2866  0.3839  0.1371
    1SOL     OW 8365   1.265   0.446   3.116 -0.0626 -0.6372  0.6076
    1SOL    HW2 8366   1.267   0.377   3.184 -0.0422 -1.0841  0.1578
    1SOL    HW3 8367   1.222   0.404   3.042  1.3849 -0.6684 -0.2269
    1SOL    MW4 8368   1.260   0.431   3.115  0.1311 -0.7003  0.4380
    1SOL     OW 8369   4.199   4.272   3.369  0.7066 -0.3176 -0.1785
    1SOL    HW2 8370   4.123   4.305   3.415 -0.0544  1.0329 -2.3550
    1SOL    HW3 8371   4.274   4.305   3.419 -0.0791 -0.5249  1.1775
    1SOL    MW4 8372   4.199   4.280   3.382  0.5026 -0.1664 -0.2871
    1SOL     OW 8373   2.470   3.213   0.967  0.1083  0.3802  0.3523
    1SOL    HW2 8374   2.528   3.219   0.891 -0.3604 -0.6428 -0.1039
    1SOL    HW3 8375   2.394   3.165   0.935 -0.7223  1.1810  1.1098
    1SOL    MW4 8376   2.468   3.207   0.953 -0.0632  0.3512  0.3921
    1SOL     OW 8377   4.131   1.051   1.544  0.2233 -0.3988  0.2849
    1SOL    HW2 8378   4.106   1.140   1.518  0.2318 -0.5078 -0.1066
    1SOL    HW3 8379   4.223   1.044   1.517  0.5655 -0.1270  1.3741
    1SOL    MW4 8380   4.140   1.062   1.537  0.2694 -0.3774  0.3768
    1SOL     OW 8381   1.600   3.603   4.596  0.3562 -0.2438 -0.3203
    1SOL    HW2 8382   1.596   3.509   4.614  0.2972 -0.3649 -0.9481
    1SOL    HW3 8383   1.508   3.628   4.583  0.2834  0.0915  0.7873
    1SOL    MW4 8384   1.587   3.594   4.596  0.3388 -0.2155 -0.2575
    1SOL     OW 8385   1.405   3.906   0.895  0.1685 -0.1295  0.4964
    1SOL    HW2 8386   1.341   3.873   0.832 -0.4754 -1.3239  1.7382
    1SOL    HW3 8387   1.401   4.001   0.886 -2.0794 -0.1681  0.8179
    1SOL    MW4 8388   1.396   3.914   0.885 -0.2130 -0.2918  0.7026
    1SOL     OW 8389   4.302   2.974   1.683 -0.3807  0.2113 -0.0525
    1SOL    HW2 8390   4.215   2.966   1.722 -0.8202  0.2213 -1.0033
    1SOL    HW3 8391   4.285   2.976   1.588  0.8106 -1.9131 -0.3455
    1SOL    MW4 8392   4.288   2.973   1.676 -0.2813 -0.0675 -0.2166
    1SOL     OW 8393   0.551   1.835   2.621  0.5765 -0.1291  0.3896
    1SOL    HW2 8394   0.625   1.798   2.671  0.9133  0.4924  0.3644
    1SOL    HW3 8395   0.485   1.767   2.622  1.4334 -0.9786 -0.2059
    1SOL    MW4 8396   0.552   1.821   2.628  0.7341 -0.1591  0.3080
    1SOL     OW 8397   2.637   0.931   0.627  0.3378  0.5027  0.2019
    1SOL    HW2 8398   2.624   0.857   0.568  1.9325  0.1472  0.2820
    1SOL    HW3 8399   2.629   0.893   0.715  0.9681  0.4601  0.2413
    1SOL    MW4 8400   2.634   0.916   0.631  0.6316  0.4502  0.2176
    1SOL     OW 8401   0.240   0.725   2.631 -0.3792  0.1508  0.2634
    1SOL    HW2 8402   0.193   0.658   2.681  0.7866 -0.3369  0.7346
    1SOL    HW3 8403   0.324   0.684   2.609 -0.5904  0.6201 -1.4927
    1SOL    MW4 8404   0.245   0.711   2.635 -0.2533  0.1483  0.0937
    1SOL     OW 8405   3.796   3.513   2.099  0.5854 -0.2015  0.4739
    1SOL    HW2 8406   3.725   3.541   2.041 -1.0211  0.2077  2.5663
    1SOL    HW3 8407   3.863   3.479   2.041 -0.0369  2.2437 -1.7721
    1SOL    MW4 8408   3.795   3.513   2.084  0.2913  0.1752  0.4537
    1SOL     OW 8409   0.895   1.318   2.396 -0.0900 -0.0138  0.1645
    1SOL    HW2 8410   0.838   1.272   2.334  0.4399 -1.3601  0.6676
    1SOL    HW3 8411   0.981   1.316   2.354  0.9154 -3.5501  2.2543
    1SOL    MW4 8412   0.899   1.312   2.382  0.1126 -0.6580  0.5064
    1SOL     OW 8413   3.321   1.571   1.696  0.2423 -0.2212 -0.7379
    1SOL    HW2 8414   3.369   1.510   1.752  1.5725  0.7308 -0.8153
    1SOL    HW3 8415   3.372   1.572   1.614 -0.1262  0.4928 -0.9616
    1SOL    MW4 8416   3.334   1.563   1.692  0.3691 -0.0013 -0.7776
    1SOL     OW 8417   0.566   3.062   4.272 -0.7759  0.0018  0.1603
    1SOL    HW2 8418   0.643   3.062   4.216 -1.0459  1.3253 -0.2314
    1SOL    HW3 8419   0.601   3.075   4.360 -0.4334 -0.9977  0.1741
    1SOL    MW4 8420   0.581   3.064   4.276 -0.7663  0.0446  0.1106
    1SOL     OW 8421   1.904   1.516   3.522 -0.2019 -0.6832 -0.6307
    1SOL    HW2 8422   1.940   1.438   3.481 -1.5620 -0.8017 -1.6166
    1SOL    HW3 8423   1.932   1.588   3.466  1.9463 -0.3107  0.8468
    1SOL    MW4 8424   1.912   1.515   3.509 -0.0979 -0.6497 -0.5658
    1SOL     OW 8425   4.396   1.558   1.260 -0.1687 -0.3663 -0.4278
    1SOL    HW2 8426   4.481   1.594   1.236 -0.8089  2.1682  0.8852
    1SOL    HW3 8427   4.401   1.548   1.356 -1.0351 -1.0572 -0.4484
    1SOL    MW4 8428   4.408   1.561   1.270 -0.3681 -0.1230 -0.2573
    1SOL     OW 8429   2.683   1.140   4.024 -0.3626 -0.4782 -0.5531
    1SOL    HW2 8430   2.622   1.092   3.968  0.9129 -1.6295 -0.9689
    1SOL    HW3 8431   2.645   1.132   4.112 -0.2129 -2.1615 -0.6380
    1SOL    MW4 8432   2.670   1.133   4.028 -0.1745 -0.8521 -0.6189
    1SOL     OW 8433   1.223   0.158   4.563  0.4646 -0.2121  0.2970
    1SOL    HW2 8434   1.230   0.209   4.483  0.4977 -0.2978  0.2455
    1SOL    HW3 8435   1.272   0.078   4.545 -0.1075 -0.5322  0.1544
    1SOL    MW4 8436   1.230   0.154   4.550  0.3935 -0.2656  0.2708
    1SOL     OW 8437   0.648   0.535   0.691  0.9523  0.1500  0.1292
    1SOL    HW2 8438   0.644   0.439   0.684 -0.4150  0.0079  2.4827
    1SOL    HW3 8439   0.680   0.552   0.779 -0.7267  1.8607  0.4498
    1SOL    MW4 8440   0.651   0.524   0.702  0.5503  0.3570  0.4820
    1SOL     OW 8441   2.176   3.557   3.905  0.9805  0.0672 -0.2143
    1SOL    HW2 8442   2.167   3.480   3.849  0.0933  0.6999 -0.9541
    1SOL    HW3 8443   2.262   3.547   3.945  1.3621 -0.7093 -1.1956
    1SOL    MW4 8444   2.186   3.545   3.903  0.9139  0.0484 -0.4413
    1SOL     OW 8445   0.314   3.893   3.051 -0.2608 -0.0354 -0.1996
    1SOL    HW2 8446   0.249   3.873   2.984 -1.4055  0.5124  0.7192
    1SOL    HW3 8447   0.280   3.852   3.130  1.5680 -1.5069 -0.1521
    1SOL    MW4 8448   0.301   3.885   3.053 -0.1705 -0.1576 -0.0725
    1SOL     OW 8449   4.030   3.610   3.721  0.0037 -0.0436 -0.3484
    1SOL    HW2 8450   4.118   3.594   3.756 -0.1435  0.1075  0.0864
    1SOL    HW3 8451   4.046   3.653   3.637  0.3604 -0.5896 -0.5633
    1SOL    MW4 8452   4.044   3.614   3.715  0.0315 -0.0956 -0.3195
    1SOL     OW 8453   3.447   1.387   4.267 -0.3477  0.0720  0.0515
    1SOL    HW2 8454   3.460   1.482   4.272  0.3515 -0.0510  0.5513
    1SOL    HW3 8455   3.372   1.370   4.325 -1.2440  0.4622 -0.9626
    1SOL    MW4 8456   3.439   1.397   4.275 -0.3736  0.1073 -0.0167
    1SOL     OW 8457   2.699   1.170   4.566  0.2997 -0.1836  0.1597
    1SOL    HW2 8458   2.771   1.225   4.596  0.5590 -1.6428  2.2644
    1SOL    HW3 8459   2.633   1.177   4.636 -1.6454  1.1674 -1.7391
    1SOL    MW4 8460   2.699   1.178   4.579  0.0772 -0.1978  0.1874
    1SOL     OW 8461   2.775   3.318   4.240  0.1682  0.0168 -0.2272
    1SOL    HW2 8462   2.850   3.361   4.282  0.2866  2.1478 -2.5161
    1SOL    HW3 8463   2.804   3.228   4.225  2.1405  0.7167 -0.7263
    1SOL    MW4 8464   2.789   3.311   4.244  0.4439  0.3905 -0.5946
    1SOL     OW 8465   4.196   2.339   1.347  0.4223  0.3942  0.0175
    1SOL    HW2 8466   4.166   2.426   1.370  0.5866  0.9884 -1.9141
    1SOL    HW3 8467   4.120   2.283   1.360 -0.0793  1.0636 -0.0357
    1SOL    MW4 8468   4.182   2.343   1.352  0.3777  0.5610 -0.2444
    1SOL     OW 8469   3.982   2.421   1.962 -0.0369 -0.7645  0.3664
    1SOL    HW2 8470   3.895   2.411   1.923 -0.5763 -1.6523  1.7433
    1SOL    HW3 8471   3.984   2.511   1.994 -0.7557 -0.9802  1.0329
    1SOL    MW4 8472   3.971   2.431   1.961 -0.2031 -0.9100  0.6360
    1SOL     OW 8473   1.071   0.920   0.919  0.1731 -0.1815  0.4527
    1SOL    HW2 8474   1.066   1.008   0.956  2.8197  0.3849 -0.3804
    1SOL    HW3 8475   1.055   0.933   0.825 -1.0832 -0.8248  0.5760
    1SOL    MW4 8476   1.068   0.933   0.911  0.3564 -0.1916  0.3591
    1SOL     OW 8477   2.924   0.966   3.100  0.1803 -0.4710 -1.0686
    1SOL    HW2 8478   2.947   0.982   3.008  1.5937 -3.8654 -1.3864
    1SOL    HW3 8479   2.837   0.925   3.096  1.1431 -2.5718 -1.0974
    1SOL    MW4 8480   2.915   0.963   3.087  0.4940 -1.1960 -1.1144
    1SOL     OW 8481   0.744   3.691   1.287  0.3355  0.6914 -0.0589
    1SOL    HW2 8482   0.655   3.656   1.291  0.2809  0.9174  0.6869
    1SOL    HW3 8483   0.800   3.620   1.316  0.4302  0.4323 -0.8715
    1SOL    MW4 8484   0.740   3.677   1.291  0.3408  0.6866 -0.0677
    1SOL     OW 8485   1.755   2.165   3.370 -0.1908 -0.0382  0.3721
    1SOL    HW2 8486   1.746   2.255   3.341 -0.2206  0.6880  2.5702
    1SOL    HW3 8487   1.844   2.140   3.346 -0.2765  0.4689 -0.4877
    1SOL    MW4 8488   1.765   2.173   3.363 -0.2061  0.1245  0.5484
    1SOL     OW 8489   2.537   4.601   1.990  0.3271 -0.2863 -0.2441
    1SOL    HW2 8490   2.600   4.641   2.049  1.4177 -1.0049 -0.9038
    1SOL    HW3 8491   2.452   4.631   2.022  0.9779  0.4689  0.8195
    1SOL    MW4 8492   2.534   4.610   2.002  0.5569 -0.2809 -0.1907
    1SOL     OW 8493   0.345   3.086   2.485 -0.0619 -0.0172  0.2559
    1SOL    HW2 8494   0.277   3.136   2.531  1.3966  1.6169  0.7045
    1SOL    HW3 8495   0.415   3.076   2.549  0.2456 -1.4601 -0.2810
    1SOL    MW4 8496   0.345   3.091   2.499  0.1711  0.0081  0.2441
    1SOL     OW 8497   0.881   1.876   2.048 -0.1304 -0.1700  0.4837
    1SOL    HW2 8498   0.829   1.799   2.024 -0.9216  0.5030  0.0224
    1SOL    HW3 8499   0.907   1.914   1.964 -1.7671  1.4249  0.6602
    1SOL    MW4 8500   0.878   1.871   2.034 -0.4507  0.1291  0.4458
    1SOL     OW 8501   3.210   2.757   4.130 -0.2233  0.1277  0.0726
    1SOL    HW2 8502   3.177   2.842   4.101 -2.1937 -0.4416  0.5625
    1SOL    HW3 8503   3.137   2.697   4.115  1.4445 -1.6568 -1.0878
    1SOL    MW4 8504   3.196   2.761   4.125 -0.2630 -0.1829 -0.0162
    1SOL     OW 8505   0.293   2.709   4.293 -0.4352 -0.1516 -0.0219
    1SOL    HW2 8506   0.362   2.752   4.344 -2.6260  1.0130  2.0149
    1SOL    HW3 8507   0.278   2.625   4.338 -0.6523 -0.2128 -0.2063
    1SOL    MW4 8508   0.300   2.703   4.305 -0.7529 -0.0062  0.2227
    1SOL     OW 8509   0.305   3.806   0.977  0.3914  0.2081  0.2676
    1SOL    HW2 8510   0.251   3.783   1.052 -0.2952  0.9438  0.0095
    1SOL    HW3 8511   0.344   3.890   1.001  0.6824  0.1325  0.0656
    1SOL    MW4 8512   0.303   3.814   0.990  0.3392  0.2956  0.2069
    1SOL     OW 8513   3.576   0.599   4.441 -0.2802  0.5152  0.4032
    1SOL    HW2 8514   3.494   0.564   4.478 -0.6970  2.3678  1.2822
    1SOL    HW3 8515   3.549   0.639   4.358 -0.6018  2.6490  1.4998
    1SOL    MW4 8516   3.561   0.600   4.435 -0.3779  1.0411  0.6633
    1SOL     OW 8517   1.498   3.411   0.301  0.0205  0.3873  0.1631
    1SOL    HW2 8518   1.422   3.458   0.334 -0.0874 -0.0796  0.5897
    1SOL    HW3 8519   1.488   3.411   0.206  0.1896  1.5081  0.1362
    1SOL    MW4 8520   1.487   3.417   0.293  0.0285  0.4735  0.2158
    1SOL     OW 8521   1.643   0.332   1.619 -0.1645  0.2203  0.3950
    1SOL    HW2 8522   1.613   0.354   1.707 -0.9633 -2.8749  0.9585
    1SOL    HW3 8523   1.737   0.321   1.628 -0.3921 -1.1846  1.1238
    1SOL    MW4 8524   1.651   0.334   1.632 -0.2998 -0.3734  0.5658
    1SOL     OW 8525   2.074   0.194   2.284  0.4909  0.1945 -0.0995
    1SOL    HW2 8526   2.093   0.142   2.362 -0.3401  0.1676  0.0829
    1SOL    HW3 8527   2.160   0.225   2.255  0.8227  0.0783  0.7399
    1SOL    MW4 8528   2.088   0.191   2.291  0.4249  0.1756  0.0350
    1SOL     OW 8529   3.418   1.859   4.434 -0.2786 -0.2862 -0.1659
    1SOL    HW2 8530   3.351   1.926   4.418 -0.2957 -0.0589  0.8242
    1SOL    HW3 8531   3.378   1.800   4.497  0.9275  0.5825  1.4409
    1SOL    MW4 8532   3.404   1.860   4.440 -0.1216 -0.1416  0.1769
    1SOL     OW 8533   3.345   3.994   1.572  0.0989 -0.2250 -0.3718
    1SOL    HW2 8534   3.379   3.963   1.489 -1.1960 -1.4526 -0.4430
    1SOL    HW3 8535   3.323   3.915   1.621 -2.7464  0.5217 -0.3607
    1SOL    MW4 8536   3.347   3.980   1.568 -0.4473 -0.2885 -0.3797
    1SOL     OW 8537   0.520   2.424   1.501 -0.5811  0.0473 -0.0958
    1SOL    HW2 8538   0.530   2.517   1.519  0.5246 -0.2258  0.7559
    1SOL    HW3 8539   0.532   2.382   1.586 -0.8605 -0.8817 -0.5141
    1SOL    MW4 8540   0.523   2.431   1.514 -0.4721 -0.1113 -0.0387
    1SOL     OW 8541   3.866   2.631   0.731 -0.4629  0.3728 -0.4226
    1SOL    HW2 8542   3.814   2.593   0.801 -0.2646  0.9105  0.0219
    1SOL    HW3 8543   3.938   2.675   0.776  1.2786 -1.6976 -1.0942
    1SOL    MW4 8544   3.869   2.632   0.746 -0.2067  0.1705 -0.4526
    1SOL     OW 8545   1.560   0.704   4.480  0.2273  0.4299 -0.3716
    1SOL    HW2 8546   1.563   0.628   4.539 -0.6769  1.3375  0.8694
    1SOL    HW3 8547   1.609   0.676   4.403  0.4700 -1.1864  0.3420
    1SOL    MW4 8548   1.567   0.690   4.478  0.1401  0.3364 -0.1135
    1SOL     OW 8549   4.073   3.008   1.111 -0.4137  0.0395  0.2699
    1SOL    HW2 8550   4.070   3.047   1.024  0.1375 -0.0032  0.2297
    1SOL    HW3 8551   3.981   2.996   1.135 -0.5702  0.2628 -0.2086
    1SOL    MW4 8552   4.060   3.012   1.103 -0.3610  0.0634  0.2012
    1SOL     OW 8553   1.640   1.789   3.572  0.2166 -0.3530  0.4660
    1SOL    HW2 8554   1.625   1.728   3.500  0.7543  0.4351 -0.3241
    1SOL    HW3 8555   1.668   1.734   3.645  0.5534 -1.0667 -0.1947
    1SOL    MW4 8556   1.641   1.774   3.572  0.3320 -0.3431  0.2744
    1SOL     OW 8557   0.053   3.075   1.385 -0.5094  0.1975  0.0430
    1SOL    HW2 8558   0.104   3.032   1.454  2.4909 -0.1162 -2.2599
    1SOL    HW3 8559   0.046   3.166   1.413 -1.2522 -0.3880  1.8092
    1SOL    MW4 8560   0.059   3.082   1.397 -0.2116  0.0789 -0.0278
    1SOL     OW 8561   3.028   4.033   3.169 -0.3791  0.0250  0.0034
    1SOL    HW2 8562   3.058   4.040   3.078 -0.0373  0.3512  0.1356
    1SOL    HW3 8563   2.989   3.947   3.175  1.7005 -0.9512  0.1505
    1SOL    MW4 8564   3.027   4.023   3.158 -0.0594 -0.0606  0.0401
    1SOL     OW 8565   3.029   3.956   4.418  0.5201  0.3594 -0.4838
    1SOL    HW2 8566   3.114   3.991   4.444  1.0367 -1.2099 -0.0246
    1SOL    HW3 8567   2.966   4.024   4.443  1.4315  0.6729  0.9749
    1SOL    MW4 8568   3.032   3.970   4.424  0.7083  0.1938 -0.2308
    1SOL     OW 8569   0.592   4.123   0.963  0.3873  0.5714  0.1840
    1SOL    HW2 8570   0.671   4.110   1.015  0.4078  0.2151  0.0664
    1SOL    HW3 8571   0.522   4.082   1.014  0.5588 -0.5910 -0.4848
    1SOL    MW4 8572   0.593   4.116   0.976  0.4126  0.3705  0.0803
    1SOL     OW 8573   3.306   2.397   4.355 -0.2723  0.0927 -0.0127
    1SOL    HW2 8574   3.313   2.349   4.273  0.5674 -2.6285  1.5815
    1SOL    HW3 8575   3.262   2.337   4.414  0.1934  1.5467  1.8681
    1SOL    MW4 8576   3.301   2.383   4.352 -0.1001 -0.0746  0.4458
    1SOL     OW 8577   3.896   0.804   3.334 -0.0709  0.2056 -0.4806
    1SOL    HW2 8578   3.908   0.770   3.422  0.2164 -0.1463 -0.6569
    1SOL    HW3 8579   3.823   0.866   3.342 -1.7272 -1.6834 -0.4858
    1SOL    MW4 8580   3.888   0.808   3.346 -0.2518 -0.0901 -0.5045
    1SOL     OW 8581   1.856   4.205   3.588  0.6943  0.1979 -0.1916
    1SOL    HW2 8582   1.849   4.113   3.563  2.8519  0.0663 -0.4538
    1SOL    HW3 8583   1.788   4.218   3.654  0.3451 -1.5599 -0.1941
    1SOL    MW4 8584   1.846   4.195   3.593  0.9329 -0.0510 -0.2263
    1SOL     OW 8585   2.340   0.105   3.307  0.2566  0.5569  0.2841
    1SOL    HW2 8586   2.431   0.098   3.336  0.7404  1.6506 -0.9173
    1SOL    HW3 8587   2.289   0.103   3.388  1.3248 -0.3361  0.9592
    1SOL    MW4 8588   2.345   0.104   3.321  0.4613  0.5834  0.2148
    1SOL     OW 8589   3.342   0.068   3.745  0.1866 -0.2061 -0.2441
    1SOL    HW2 8590   3.294   0.130   3.799 -1.8345 -2.1667  0.2480
    1SOL    HW3 8591   3.425   0.112   3.727 -0.3960  1.8004  1.7523
    1SOL    MW4 8592   3.347   0.082   3.750 -0.1569 -0.2001  0.0844
    1SOL     OW 8593   2.638   1.584   3.254 -0.0953 -0.8358  0.2485
    1SOL    HW2 8594   2.632   1.489   3.241  1.0884 -0.8911  0.0743
    1SOL    HW3 8595   2.726   1.606   3.226 -0.4490  0.3603  0.0704
    1SOL    MW4 8596   2.648   1.574   3.249  0.0141 -0.6853  0.2019
    1SOL     OW 8597   0.313   0.779   3.672 -0.1314  0.4977 -0.0439
    1SOL    HW2 8598   0.406   0.776   3.647  0.0587  0.2955  0.6624
    1SOL    HW3 8599   0.271   0.831   3.604  0.2628 -0.5639 -1.1160
    1SOL    MW4 8600   0.320   0.785   3.660 -0.0543  0.3310 -0.0920
    1SOL     OW 8601   3.260   4.432   0.682 -0.3223 -0.3444  0.1185
    1SOL    HW2 8602   3.334   4.436   0.742 -0.0987  0.5994 -0.2075
    1SOL    HW3 8603   3.288   4.371   0.613  0.0516 -0.1846  0.1298
    1SOL    MW4 8604   3.273   4.424   0.681 -0.2434 -0.1988  0.0771
    1SOL     OW 8605   0.876   1.709   1.713 -0.2042 -0.5957 -0.2534
    1SOL    HW2 8606   0.880   1.684   1.621  0.9965 -2.4021  0.2820
    1SOL    HW3 8607   0.967   1.717   1.741 -0.5501  0.9928  0.5216
    1SOL    MW4 8608   0.888   1.707   1.705 -0.0914 -0.6244 -0.0805
    1SOL     OW 8609   0.627   4.332   2.711  0.0824  0.0451  0.2183
    1SOL    HW2 8610   0.583   4.366   2.788 -0.5780 -0.6121  0.1424
    1SOL    HW3 8611   0.558   4.287   2.662  0.1429  1.8279 -1.5671
    1SOL    MW4 8612   0.613   4.330   2.714  0.0032  0.1945 -0.0272
    1SOL     OW 8613   1.807   2.040   1.476 -0.0492  0.2231 -0.3273
    1SOL    HW2 8614   1.727   2.040   1.529  0.2644 -0.4302  0.1624
    1SOL    HW3 8615   1.833   2.132   1.471  0.4500  0.2008  1.4831
    1SOL    MW4 8616   1.800   2.052   1.482  0.0582  0.1340 -0.0241
    1SOL     OW 8617   0.519   2.085   4.220 -0.1287  0.0301 -0.0558
    1SOL    HW2 8618   0.531   2.069   4.313  3.8896 -0.7621 -0.6015
    1SOL    HW3 8619   0.439   2.037   4.197 -0.0214 -1.4791  2.5630
    1SOL    MW4 8620   0.510   2.077   4.229  0.4156 -0.2737  0.2179
    1SOL     OW 8621   2.953   0.195   0.813  0.1643 -0.5380  0.0295
    1SOL    HW2 8622   2.879   0.158   0.763 -0.6955  0.5081  0.5004
    1SOL    HW3 8623   3.028   0.142   0.786 -0.5145 -0.7970 -1.4405
    1SOL    MW4 8624   2.953   0.183   0.803 -0.0386 -0.4341 -0.1024
    1SOL     OW 8625   3.126   0.082   2.441  0.1385  0.1463  0.3081
    1SOL    HW2 8626   3.221   0.077   2.433  0.1514  0.3087  0.3783
    1SOL    HW3 8627   3.096  -0.006   2.419  0.2402  0.3601 -0.7053
    1SOL    MW4 8628   3.135   0.070   2.437  0.1535  0.1961  0.1838
    1SOL     OW 8629   1.062   1.214   0.732  0.1852  0.0782  0.2519
    1SOL    HW2 8630   1.025   1.287   0.780 -0.6091  0.0760 -0.3559
    1SOL    HW3 8631   1.151   1.242   0.711 -0.0669  0.8103  0.1474
    1SOL    MW4 8632   1.069   1.227   0.735  0.0471  0.1744  0.1580
    1SOL     OW 8633   3.729   2.774   1.880 -0.0436 -0.1877  0.0992
    1SOL    HW2 8634   3.698   2.845   1.937 -0.9146  0.4324 -1.1115
    1SOL    HW3 8635   3.752   2.819   1.799  1.5062 -1.0168  0.0737
    1SOL    MW4 8636   3.728   2.789   1.877  0.0458 -0.2153 -0.0640
    1SOL     OW 8637   4.424   3.706   0.937  0.1642 -0.0856 -0.0940
    1SOL    HW2 8638   4.330   3.685   0.933  0.0040  0.6852 -0.3893
    1SOL    HW3 8639   4.431   3.775   1.003  0.7009 -1.0544  0.8907
    1SOL    MW4 8640   4.412   3.712   0.945  0.2141 -0.1116 -0.0030
    1SOL     OW 8641   2.210   2.010   2.406 -0.3592 -0.2385  0.2371
    1SOL    HW2 8642   2.151   2.006   2.481  1.6465  0.0685  1.8604
    1SOL    HW3 8643   2.241   1.920   2.395 -2.1260 -0.6702 -1.4650
    1SOL    MW4 8644   2.206   1.997   2.414 -0.3276 -0.2549  0.2267
    1SOL     OW 8645   1.069   0.199   3.682 -0.4880 -0.1068 -0.7859
    1SOL    HW2 8646   1.085   0.270   3.620  0.5709  0.4101  0.0612
    1SOL    HW3 8647   0.990   0.225   3.729 -1.2270 -0.4429 -1.8278
    1SOL    MW4 8648   1.061   0.212   3.680 -0.4457 -0.0830 -0.8118
    1SOL     OW 8649   1.132   2.776   4.330 -0.1505  0.3757  0.0036
    1SOL    HW2 8650   1.119   2.747   4.420  1.4839  0.8660  0.4191
    1SOL    HW3 8651   1.147   2.696   4.280 -1.8004  0.0386  0.0038
    1SOL    MW4 8652   1.132   2.762   4.335 -0.1526  0.3958  0.0587
    1SOL     OW 8653   2.300   1.145   2.699  0.6377  0.6322 -0.1943
    1SOL    HW2 8654   2.329   1.186   2.618 -0.1995  2.7473  0.5314
    1SOL    HW3 8655   2.261   1.217   2.750  0.7448 -0.7271  1.8885
    1SOL    MW4 8656   2.299   1.160   2.695  0.5414  0.7319  0.1762
    1SOL     OW 8657   0.333   0.614   4.045  0.2378  0.2423 -0.4029
    1SOL    HW2 8658   0.416   0.566   4.051 -0.0078  0.0542  1.9830
    1SOL    HW3 8659   0.266   0.546   4.042  0.1269  0.4024 -1.7676
    1SOL    MW4 8660   0.335   0.599   4.046  0.1908  0.2386 -0.2685
    1SOL     OW 8661   3.866   1.650   2.484  0.4844  0.2932 -0.5654
    1SOL    HW2 8662   3.846   1.710   2.411 -0.2147 -0.7550 -1.2413
    1SOL    HW3 8663   3.796   1.585   2.481  0.5094  0.1961  1.0059
    1SOL    MW4 8664   3.854   1.649   2.474  0.3955  0.1421 -0.4470
    1SOL     OW 8665   2.593   1.137   4.306  0.9519  0.3468  0.2346
    1SOL    HW2 8666   2.534   1.065   4.328  1.1288  0.0198 -0.3559
    1SOL    HW3 8667   2.638   1.158   4.388 -0.6146  1.1765  0.8871
    1SOL    MW4 8668   2.591   1.130   4.320  0.7684  0.4131  0.2422
    1SOL     OW 8669   0.792   2.302   3.209 -0.0105  0.3202 -0.0324
    1SOL    HW2 8670   0.708   2.313   3.164  0.8126  1.1378 -1.4008
    1SOL    HW3 8671   0.790   2.212   3.241 -0.8753 -0.1026 -1.2166
    1SOL    MW4 8672   0.781   2.291   3.207 -0.0160  0.3722 -0.3693
    1SOL     OW 8673   1.273   2.194   1.399  0.0610  0.3290  0.1663
    1SOL    HW2 8674   1.223   2.264   1.356 -0.0786 -1.7218 -3.1771
    1SOL    HW3 8675   1.206   2.137   1.437  0.0984  0.8546  1.0278
    1SOL    MW4 8676   1.257   2.196   1.399  0.0476  0.1278 -0.1613
    1SOL     OW 8677   3.894   3.379   3.678 -0.0476 -0.1387 -0.4148
    1SOL    HW2 8678   3.870   3.380   3.770 -1.5509  0.4551 -0.7895
    1SOL    HW3 8679   3.970   3.437   3.671 -1.6995  2.1521  0.0131
    1SOL    MW4 8680   3.901   3.387   3.689 -0.4637  0.2415 -0.4077
    1SOL     OW 8681   4.256   3.340   4.469  0.4699  0.2875  0.6732
    1SOL    HW2 8682   4.206   3.319   4.390 -2.5264 -0.0318  2.5975
    1SOL    HW3 8683   4.313   3.264   4.482  0.3321 -0.0539 -0.6803
    1SOL    MW4 8684   4.257   3.327   4.460  0.0567  0.2003  0.7477
    1SOL     OW 8685   3.872   3.422   0.887 -0.3220 -0.2464  0.2963
    1SOL    HW2 8686   3.935   3.401   0.956  2.0385  0.9785 -1.4000
    1SOL    HW3 8687   3.891   3.359   0.818 -2.8558 -1.6427  0.8478
    1SOL    MW4 8688   3.883   3.411   0.887 -0.3450 -0.2689  0.1453
    1SOL     OW 8689   1.498   1.811   0.807 -0.3610  0.0464  0.2631
    1SOL    HW2 8690   1.521   1.825   0.715 -0.7366  0.9103  0.2856
    1SOL    HW3 8691   1.570   1.761   0.843 -0.6674 -1.1387 -0.7373
    1SOL    MW4 8692   1.510   1.807   0.799 -0.4511  0.0041  0.1341
    1SOL     OW 8693   2.355   4.636   4.048 -0.1539  0.0900  0.3373
    1SOL    HW2 8694   2.269   4.598   4.032 -1.0161  1.8339  0.6210
    1SOL    HW3 8695   2.406   4.566   4.089 -1.8126 -0.5969  1.2490
    1SOL    MW4 8696   2.351   4.622   4.051 -0.4866  0.2294  0.4950
    1SOL     OW 8697   2.393   3.338   2.634  0.0561 -0.3419 -0.0488
    1SOL    HW2 8698   2.365   3.287   2.558 -0.1510 -0.9471  0.4275
    1SOL    HW3 8699   2.369   3.428   2.613 -0.3116 -0.5550 -0.5557
    1SOL    MW4 8700   2.386   3.343   2.621 -0.0200 -0.4499 -0.0527
    1SOL     OW 8701   0.069   2.217   2.375  0.5128 -0.1791  0.1570
    1SOL    HW2 8702  -0.023   2.202   2.396  0.9488 -1.0536  1.5536
    1SOL    HW3 8703   0.067   2.277   2.301 -1.1782 -0.0209  0.2963
    1SOL    MW4 8704   0.056   2.223   2.368  0.3473 -0.2737  0.3595
    1SOL     OW 8705   0.596   4.178   4.816  0.1719  0.3793 -0.0186
    1SOL    HW2 8706   0.664   4.201   4.752  0.5353  0.6850  0.4732
    1SOL    HW3 8707   0.604   4.245   4.884  0.3579 -0.4292  0.7647
    1SOL    MW4 8708   0.606   4.190   4.817  0.2443  0.3133  0.1497
    1SOL     OW 8709   4.282   4.021   3.613 -0.1508  0.1684  0.1883
    1SOL    HW2 8710   4.301   4.112   3.636 -0.4524  0.2205  0.2316
    1SOL    HW3 8711   4.365   3.975   3.626 -0.2365  0.2554  1.1130
    1SOL    MW4 8712   4.295   4.027   3.618 -0.2022  0.1864  0.3161
    1SOL     OW 8713   3.795   1.893   2.314  0.1712 -0.0948  0.4741
    1SOL    HW2 8714   3.786   1.920   2.405 -0.6063 -0.2100  0.4331
    1SOL    HW3 8715   3.707   1.902   2.277  0.4361 -0.2536 -0.2092
    1SOL    MW4 8716   3.782   1.898   2.321  0.1032 -0.1309  0.3786
    1SOL     OW 8717   2.822   3.718   3.639  0.2856  0.2509  0.0811
    1SOL    HW2 8718   2.806   3.805   3.676  1.0982  0.3999  0.0847
    1SOL    HW3 8719   2.871   3.735   3.558 -1.1244 -0.0922 -0.8585
    1SOL    MW4 8720   2.826   3.732   3.633  0.2069  0.2253 -0.0424
    1SOL     OW 8721   1.401   0.645   0.932 -0.3531  0.1587  0.1427
    1SOL    HW2 8722   1.385   0.738   0.917  0.3999  0.4241  0.9160
    1SOL    HW3 8723   1.423   0.640   1.025  0.0608 -0.7309 -0.0015
    1SOL    MW4 8724   1.401   0.657   0.942 -0.1990  0.0764  0.2258
    1SOL     OW 8725   0.353   0.116   2.348  0.3355  0.5007 -0.2914
    1SOL    HW2 8726   0.335   0.121   2.254  0.3743  1.3678 -0.2525
    1SOL    HW3 8727   0.363   0.207   2.376 -0.1404  0.2727  0.6461
    1SOL    MW4 8728   0.352   0.128   2.339  0.2779  0.5850 -0.1626
    1SOL     OW 8729   3.331   4.455   2.511  0.3363  0.0285  0.7096
    1SOL    HW2 8730   3.361   4.546   2.518 -0.2990  0.5736 -2.5931
    1SOL    HW3 8731   3.409   4.406   2.483 -0.3516  0.3935 -1.9609
    1SOL    MW4 8732   3.345   4.461   2.508  0.1616  0.1483 -0.0787
    1SOL     OW 8733   2.935   1.318   4.096 -0.0307  0.3225  0.1817
    1SOL    HW2 8734   2.850   1.274   4.105 -0.7152  1.9463  1.8241
    1SOL    HW3 8735   2.998   1.258   4.135 -0.8056  0.2739  1.3712
    1SOL    MW4 8736   2.932   1.304   4.102 -0.2234  0.5305  0.5550
    1SOL     OW 8737   2.808   0.442   1.639  0.5066  0.6521 -0.0870
    1SOL    HW2 8738   2.808   0.472   1.548  2.3878  3.3255  0.7235
    1SOL    HW3 8739   2.737   0.491   1.681  0.2577  0.1404  0.0940
    1SOL    MW4 8740   2.799   0.452   1.633  0.7222  0.9373  0.0437
    1SOL     OW 8741   3.512   3.783   0.575  0.5467 -0.4642 -0.0486
    1SOL    HW2 8742   3.543   3.872   0.587 -1.6762  0.3897 -0.5387
    1SOL    HW3 8743   3.506   3.747   0.664 -0.0166  0.3646  0.2440
    1SOL    MW4 8744   3.516   3.790   0.589  0.1793 -0.2425 -0.0747
    1SOL     OW 8745   3.258   3.121   2.947 -0.3239 -0.1217  0.1919
    1SOL    HW2 8746   3.303   3.036   2.948 -0.8271 -0.4909 -2.9132
    1SOL    HW3 8747   3.249   3.144   3.039  2.0336 -2.2578  1.0241
    1SOL    MW4 8748   3.263   3.113   2.959 -0.0794 -0.4520 -0.1078
    1SOL     OW 8749   1.620   0.447   4.563 -0.4180 -0.0591  0.1997
    1SOL    HW2 8750   1.698   0.439   4.507  0.6896  1.5880  1.4707
    1SOL    HW3 8751   1.564   0.374   4.536  0.5454  0.0727 -2.3371
    1SOL    MW4 8752   1.623   0.436   4.552 -0.1447  0.1757  0.0329
    1SOL     OW 8753   3.265   0.405   3.682 -0.0787 -0.5586 -0.2001
    1SOL    HW2 8754   3.339   0.447   3.726  0.4079  0.6582 -2.1209
    1SOL    HW3 8755   3.193   0.468   3.692  0.0555 -0.2395 -1.1654
    1SOL    MW4 8756   3.266   0.419   3.689  0.0031 -0.3560 -0.5808
    1SOL     OW 8757   3.155   3.206   3.214 -0.1217  0.6810  0.0125
    1SOL    HW2 8758   3.181   3.194   3.305  0.0816  0.6645 -0.0486
    1SOL    HW3 8759   3.072   3.158   3.206  0.3421 -0.1049 -0.0569
    1SOL    MW4 8760   3.147   3.198   3.225 -0.0336  0.5753 -0.0048
    1SOL     OW 8761   0.060   1.550   3.639 -0.3628  0.0238 -0.3445
    1SOL    HW2 8762   0.015   1.570   3.721 -1.1311  1.2514 -1.0391
    1SOL    HW3 8763   0.139   1.504   3.666 -0.0377  1.4007  1.1767
    1SOL    MW4 8764   0.064   1.547   3.653 -0.4213  0.3674 -0.2358
    1SOL     OW 8765   1.221   2.718   0.854 -0.0408 -0.0977 -0.4589
    1SOL    HW2 8766   1.256   2.684   0.936 -0.0160 -1.9901 -1.2286
    1SOL    HW3 8767   1.129   2.736   0.872  0.3195  0.9330  0.3981
    1SOL    MW4 8768   1.213   2.716   0.867  0.0099 -0.2110 -0.4475
    1SOL     OW 8769   0.568   4.486   0.592 -0.4183 -0.2085 -0.1483
    1SOL    HW2 8770   0.553   4.423   0.663 -0.0954 -0.4053 -0.2512
    1SOL    HW3 8771   0.661   4.509   0.600  0.0592 -1.5717 -1.5947
    1SOL    MW4 8772   0.578   4.481   0.603 -0.3127 -0.4144 -0.3528
    1SOL     OW 8773   1.566   2.843   1.082 -0.2050 -0.0550 -0.3820
    1SOL    HW2 8774   1.576   2.769   1.022 -1.0669 -0.2920 -0.2382
    1SOL    HW3 8775   1.547   2.917   1.026 -0.4472 -0.1678 -0.4531
    1SOL    MW4 8776   1.565   2.843   1.067 -0.3507 -0.1011 -0.3725
    1SOL     OW 8777   0.421   2.423   3.338  0.2086 -0.2389 -0.2829
    1SOL    HW2 8778   0.496   2.401   3.393  0.7144 -2.0971 -1.6726
    1SOL    HW3 8779   0.368   2.343   3.335 -1.0789  0.5966 -0.5329
    1SOL    MW4 8780   0.424   2.410   3.345  0.1055 -0.3738 -0.4992
    1SOL     OW 8781   3.176   4.107   2.366 -0.5672  0.1991  0.3554
    1SOL    HW2 8782   3.223   4.165   2.306  1.6419 -2.5250 -0.6654
    1SOL    HW3 8783   3.218   4.123   2.451  0.8903 -0.7600 -0.1609
    1SOL    MW4 8784   3.188   4.117   2.369 -0.0834 -0.2871  0.1526
    1SOL     OW 8785   1.146   3.825   2.916  0.1638  0.1001  0.1626
    1SOL    HW2 8786   1.144   3.909   2.870  0.5122  0.8908  1.5711
    1SOL    HW3 8787   1.240   3.809   2.931 -0.0245  0.7715  2.2328
    1SOL    MW4 8788   1.158   3.834   2.912  0.1850  0.2930  0.6216
    1SOL     OW 8789   2.867   2.157   0.505 -0.3812  0.2705  0.8500
    1SOL    HW2 8790   2.941   2.102   0.481 -1.6332 -0.6907 -0.8926
    1SOL    HW3 8791   2.898   2.247   0.489  0.5392 -0.1003  0.5261
    1SOL    MW4 8792   2.881   2.162   0.500 -0.4246  0.0949  0.5774
    1SOL     OW 8793   2.802   4.319   4.134 -0.2170 -0.0442 -0.2713
    1SOL    HW2 8794   2.765   4.388   4.189 -1.1405 -1.2465  0.6287
    1SOL    HW3 8795   2.751   4.323   4.053 -0.9263 -0.2997  0.1536
    1SOL    MW4 8796   2.790   4.329   4.130 -0.4323 -0.2365 -0.0968
    1SOL     OW 8797   4.373   4.334   2.309 -0.0911  0.6870  0.0460
    1SOL    HW2 8798   4.409   4.346   2.396 -0.0836  0.2639  0.0996
    1SOL    HW3 8799   4.279   4.352   2.318 -0.2713 -0.4290  0.3572
    1SOL    MW4 8800   4.365   4.338   2.321 -0.1135  0.4840  0.0939
    1SOL     OW 8801   3.631   1.556   0.959 -0.3018  0.1696  0.3095
    1SOL    HW2 8802   3.704   1.596   0.912 -0.5054 -0.4885 -0.5801
    1SOL    HW3 8803   3.665   1.541   1.048  0.0270  1.5746  0.4324
    1SOL    MW4 8804   3.645   1.559   0.965 -0.2851  0.2681  0.2083
    1SOL     OW 8805   0.437   1.618   3.945 -0.0499  0.0105  0.4697
    1SOL    HW2 8806   0.417   1.528   3.920  0.4869  0.2904 -0.9780
    1SOL    HW3 8807   0.503   1.610   4.014  1.5123 -0.6507 -1.0880
    1SOL    MW4 8808   0.443   1.605   3.951  0.2270 -0.0398  0.0732
    1SOL     OW 8809   3.514   2.470   3.416 -0.4585 -0.3180  0.1612
    1SOL    HW2 8810   3.549   2.484   3.327 -0.7554 -1.4749 -0.1396
    1SOL    HW3 8811   3.540   2.549   3.464 -1.5700  0.9991 -1.3485
    1SOL    MW4 8812   3.522   2.483   3.410 -0.6442 -0.2968 -0.0775
    1SOL     OW 8813   2.197   1.370   2.849 -0.3485  0.4824  0.2418
    1SOL    HW2 8814   2.241   1.394   2.931  0.4878  0.7737 -0.2853
    1SOL    HW3 8815   2.171   1.454   2.811 -1.2631  0.3161  0.4981
    1SOL    MW4 8816   2.200   1.384   2.855 -0.3588  0.4989  0.2060
    1SOL     OW 8817   3.959   4.301   0.545  0.3693  0.1498  0.0179
    1SOL    HW2 8818   4.033   4.248   0.515  0.8987  1.2694 -0.6900
    1SOL    HW3 8819   3.918   4.249   0.614  2.3184 -0.1287  0.9902
    1SOL    MW4 8820   3.963   4.288   0.550  0.6964  0.2608  0.0528
    1SOL     OW 8821   0.794   1.982   0.936 -0.0151 -0.1816 -0.1097
    1SOL    HW2 8822   0.750   1.905   0.970 -1.5442  1.4074  1.6781
    1SOL    HW3 8823   0.828   1.956   0.851  0.5345 -3.1463  0.9786
    1SOL    MW4 8824   0.792   1.969   0.929 -0.1444 -0.3630  0.2698
    1SOL     OW 8825   2.754   0.849   2.448 -0.3102  0.3801 -0.3144
    1SOL    HW2 8826   2.662   0.859   2.472 -0.3473  1.8374 -1.0015
    1SOL    HW3 8827   2.779   0.936   2.415  1.3473  0.0329  0.0202
    1SOL    MW4 8828   2.745   0.862   2.447 -0.0966  0.5266 -0.3607
    1SOL     OW 8829   3.271   1.273   2.019  0.6767 -0.2210 -0.5743
    1SOL    HW2 8830   3.271   1.202   2.082 -0.0420 -0.4636 -0.8426
    1SOL    HW3 8831   3.219   1.342   2.060  1.2653  0.1139 -0.3686
    1SOL    MW4 8832   3.264   1.273   2.032  0.6595 -0.2091 -0.5827
    1SOL     OW 8833   2.335   2.876   1.529 -0.2420  0.0598  0.0353
    1SOL    HW2 8834   2.396   2.933   1.575 -0.0112  0.2556 -0.5009
    1SOL    HW3 8835   2.358   2.787   1.557  0.5308  0.1043 -0.4320
    1SOL    MW4 8836   2.346   2.872   1.539 -0.1094  0.0913 -0.0970
    1SOL     OW 8837   0.993   4.544   1.471  0.9226  0.2098  0.1705
    1SOL    HW2 8838   1.009   4.578   1.559 -1.9703  0.5721  0.6260
    1SOL    HW3 8839   0.898   4.536   1.466  0.9606  0.9664 -3.1990
    1SOL    MW4 8840   0.982   4.548   1.482  0.5460  0.3576 -0.2140
    1SOL     OW 8841   3.859   3.537   4.181 -0.6264 -0.5576 -0.2769
    1SOL    HW2 8842   3.942   3.577   4.155 -1.1203  1.2319  0.7943
    1SOL    HW3 8843   3.883   3.468   4.243  0.1793 -1.2956 -1.4022
    1SOL    MW4 8844   3.873   3.533   4.186 -0.5853 -0.4189 -0.2842
    1SOL     OW 8845   3.196   3.897   0.770 -0.3577  0.2418  0.1723
    1SOL    HW2 8846   3.173   3.911   0.678 -2.0528 -0.4438  0.4709
    1SOL    HW3 8847   3.259   3.966   0.790  0.7914 -0.2370 -1.7774
    1SOL    MW4 8848   3.201   3.908   0.761 -0.4296  0.0882 -0.0455
    1SOL     OW 8849   0.914   0.205   0.751 -0.7229 -0.3456  0.3092
    1SOL    HW2 8850   0.825   0.242   0.744 -0.2860  0.7034  0.1676
    1SOL    HW3 8851   0.906   0.135   0.815 -1.9722 -1.2176 -0.7906
    1SOL    MW4 8852   0.901   0.201   0.758 -0.8300 -0.3222  0.1454
    1SOL     OW 8853   2.548   3.975   1.692 -0.5729  0.0284  0.7069
    1SOL    HW2 8854   2.547   4.000   1.784 -1.0523  1.0063  0.4413
    1SOL    HW3 8855   2.502   4.046   1.647  0.9688  0.3202 -0.4676
    1SOL    MW4 8856   2.542   3.988   1.698 -0.4327  0.1962  0.5169
    1SOL     OW 8857   2.207   2.552   3.925  0.5515  0.1682 -0.0754
    1SOL    HW2 8858   2.166   2.638   3.913 -0.0436 -0.0819  0.1707
    1SOL    HW3 8859   2.149   2.491   3.881 -0.6268 -0.5048  2.3455
    1SOL    MW4 8860   2.194   2.556   3.918  0.3173  0.0460  0.2766
    1SOL     OW 8861   1.658   1.205   3.302 -0.0799 -0.2800 -0.1370
    1SOL    HW2 8862   1.563   1.208   3.290 -0.0060  0.2465 -0.5945
    1SOL    HW3 8863   1.693   1.243   3.221  0.4707  1.7060  1.0145
    1SOL    MW4 8864   1.650   1.210   3.289  0.0024  0.0515 -0.0455
    1SOL     OW 8865   0.239   2.005   2.307  0.6415 -0.2222  0.2361
    1SOL    HW2 8866   0.174   2.073   2.327 -1.6702 -1.5603 -2.4195
    1SOL    HW3 8867   0.321   2.040   2.342 -1.3502  1.7537  3.2419
    1SOL    MW4 8868   0.241   2.019   2.314  0.0737 -0.1380  0.2825
    1SOL     OW 8869   1.916   3.621   3.801  0.0504  0.7983 -0.7232
    1SOL    HW2 8870   2.000   3.613   3.846 -0.1389  1.6170 -0.2231
    1SOL    HW3 8871   1.935   3.671   3.722 -0.1632  1.9436 -0.0590
    1SOL    MW4 8872   1.929   3.626   3.797 -0.0027  1.0571 -0.5693
    1SOL     OW 8873   4.405   1.756   4.365 -0.1549 -0.2411  0.2330
    1SOL    HW2 8874   4.434   1.713   4.445 -0.6941  1.3842  1.3400
    1SOL    HW3 8875   4.312   1.773   4.380  0.0262  1.2133 -0.1910
    1SOL    MW4 8876   4.396   1.753   4.378 -0.2022  0.1652  0.3228
    1SOL     OW 8877   2.323   0.343   1.399  0.4893  0.6661 -0.0489
    1SOL    HW2 8878   2.245   0.358   1.347 -0.0676 -0.8575  0.3237
    1SOL    HW3 8879   2.321   0.411   1.467 -2.6250 -1.7035  2.3660
    1SOL    MW4 8880   2.313   0.354   1.401  0.0050  0.1524  0.3189
    1SOL     OW 8881   0.251   1.982   4.479  0.4175  0.5466  0.3626
    1SOL    HW2 8882   0.235   1.897   4.522 -1.5975  1.5015  1.5513
    1SOL    HW3 8883   0.212   1.973   4.392 -0.2506  0.4312  0.6750
    1SOL    MW4 8884   0.244   1.969   4.473  0.0635  0.6574  0.5608
    1SOL     OW 8885   3.352   3.216   1.042  0.0289  0.4685 -0.0585
    1SOL    HW2 8886   3.369   3.218   0.948 -0.7826 -1.4541 -0.2758
    1SOL    HW3 8887   3.437   3.197   1.082 -0.0169 -0.8218 -0.5598
    1SOL    MW4 8888   3.366   3.214   1.035 -0.0844  0.0446 -0.1531
    1SOL     OW 8889   1.722   1.609   3.745  0.7077 -0.6548 -0.5119
    1SOL    HW2 8890   1.769   1.563   3.675  0.4704 -0.6000 -0.7097
    1SOL    HW3 8891   1.649   1.550   3.767  1.8560 -1.5468  0.9971
    1SOL    MW4 8892   1.718   1.595   3.739  0.8278 -0.7653 -0.3390
    1SOL     OW 8893   2.322   3.261   4.110  0.0997 -0.5151  0.0538
    1SOL    HW2 8894   2.355   3.350   4.104  0.1823 -0.4032  1.8246
    1SOL    HW3 8895   2.385   3.208   4.061  0.5884  0.2680 -0.1665
    1SOL    MW4 8896   2.334   3.266   4.103  0.1748 -0.3970  0.2584
    1SOL     OW 8897   0.566   3.300   1.718  0.2419  0.5635  0.1490
    1SOL    HW2 8898   0.573   3.313   1.813  2.5801  2.7370 -0.2520
    1SOL    HW3 8899   0.473   3.309   1.699 -0.1585  0.8809  2.1430
    1SOL    MW4 8900   0.555   3.303   1.728  0.4976  0.8922  0.3592
    1SOL     OW 8901   2.880   2.629   2.761  0.3244 -0.3267  0.4196
    1SOL    HW2 8902   2.824   2.669   2.694  0.5573  0.9895  0.9809
    1SOL    HW3 8903   2.819   2.598   2.827  0.1581 -0.4552  0.2047
    1SOL    MW4 8904   2.865   2.630   2.761  0.3331 -0.1698  0.4654
    1SOL     OW 8905   3.120   4.256   0.882  0.6227  0.1316 -0.1549
    1SOL    HW2 8906   3.164   4.322   0.828 -1.6898  1.2370 -0.7610
    1SOL    HW3 8907   3.065   4.208   0.821  0.8326 -1.1307  0.6235
    1SOL    MW4 8908   3.119   4.259   0.867  0.3450  0.1101 -0.1322
    1SOL     OW 8909   0.804   0.681   3.418 -0.0085  0.1703 -0.2069
    1SOL    HW2 8910   0.794   0.749   3.352 -0.0225  0.9252  0.5625
    1SOL    HW3 8911   0.816   0.600   3.368 -0.3794  0.6784 -1.1247
    1SOL    MW4 8912   0.805   0.679   3.403 -0.0594  0.3370 -0.2263
    1SOL     OW 8913   2.290   1.195   4.466  0.0530 -0.0238  0.3002
    1SOL    HW2 8914   2.284   1.245   4.385 -3.1034 -1.1758 -0.2699
    1SOL    HW3 8915   2.326   1.111   4.440 -0.6733 -0.2853  0.1233
    1SOL    MW4 8916   2.294   1.191   4.452 -0.4592 -0.2102  0.2017
    1SOL     OW 8917   2.465   1.016   1.230  0.1604  0.6490 -0.3166
    1SOL    HW2 8918   2.435   0.977   1.147 -1.9771  1.8539 -0.1488
    1SOL    HW3 8919   2.427   0.960   1.298  0.6733  0.5269 -0.1298
    1SOL    MW4 8920   2.456   1.003   1.228 -0.0539  0.7919 -0.2700
    1SOL     OW 8921   4.136   1.860   4.428 -0.3836  0.1593  0.4382
    1SOL    HW2 8922   4.143   1.954   4.443  0.5917  0.0390  0.7863
    1SOL    HW3 8923   4.050   1.848   4.388 -0.8292  1.1020  1.1149
    1SOL    MW4 8924   4.126   1.871   4.424 -0.3138  0.2677  0.5732
    1SOL     OW 8925   1.391   1.569   3.009  0.5074 -0.2426 -0.1596
    1SOL    HW2 8926   1.399   1.486   2.963 -0.3592 -0.4311  0.0147
    1SOL    HW3 8927   1.481   1.595   3.029  0.9728  0.3530 -2.8768
    1SOL    MW4 8928   1.404   1.562   3.006  0.4545 -0.1888 -0.4954
    1SOL     OW 8929   3.038   0.056   1.515 -0.7062  0.4451 -0.1100
    1SOL    HW2 8930   3.092   0.041   1.592  0.1369  0.2282 -0.7428
    1SOL    HW3 8931   3.092   0.028   1.441 -2.5893 -2.0921 -0.5855
    1SOL    MW4 8932   3.052   0.051   1.516 -0.8433  0.0818 -0.2562
    1SOL     OW 8933   4.414   1.673   3.426 -0.1549  0.3286 -0.2699
    1SOL    HW2 8934   4.451   1.649   3.341  0.4375  0.2742 -0.0037
    1SOL    HW3 8935   4.473   1.632   3.490 -1.8438 -1.4788  0.1665
    1SOL    MW4 8936   4.427   1.664   3.423 -0.2995  0.0827 -0.1774
    1SOL     OW 8937   3.948   3.791   3.941 -0.4086  0.1975 -0.1318
    1SOL    HW2 8938   3.958   3.733   3.865  0.1030 -0.0308  0.1050
    1SOL    HW3 8939   4.006   3.865   3.922 -1.3656  0.8263 -0.6187
    1SOL    MW4 8940   3.957   3.793   3.928 -0.4673  0.2501 -0.1650
    1SOL     OW 8941   1.336   0.921   0.851  0.0608 -0.3255  0.2498
    1SOL    HW2 8942   1.245   0.907   0.873 -0.7293  1.5416 -1.5759
    1SOL    HW3 8943   1.360   1.000   0.900  1.4883 -2.1847  2.6828
    1SOL    MW4 8944   1.327   0.930   0.860  0.1447 -0.3245  0.3299
    1SOL     OW 8945   1.876   1.461   4.182  0.2606 -1.0989 -0.4879
    1SOL    HW2 8946   1.802   1.472   4.241  1.4415  2.0424  0.5063
    1SOL    HW3 8947   1.838   1.427   4.101 -1.9928 -1.1952  0.5975
    1SOL    MW4 8948   1.862   1.458   4.179  0.1191 -0.6973 -0.2136
    1SOL     OW 8949   3.253   0.661   3.281  0.5107 -0.1009  0.4974
    1SOL    HW2 8950   3.206   0.657   3.198  1.2524 -0.6153  0.1009
    1SOL    HW3 8951   3.275   0.570   3.301  0.9354  0.0899  0.9143
    1SOL    MW4 8952   3.250   0.648   3.273  0.6645 -0.1435  0.5000
    1SOL     OW 8953   0.284   0.893   2.861  0.0615 -0.3389  0.2701
    1SOL    HW2 8954   0.277   0.823   2.796 -0.1894  0.0517 -0.1205
    1SOL    HW3 8955   0.258   0.852   2.943 -2.2987 -0.1224 -0.3484
    1SOL    MW4 8956   0.280   0.878   2.863 -0.2830 -0.2587  0.1371
    1SOL     OW 8957   1.865   2.855   3.659 -0.3704 -0.0331  0.5113
    1SOL    HW2 8958   1.901   2.943   3.671  0.8836 -0.2879 -1.2288
    1SOL    HW3 8959   1.774   2.869   3.635 -0.1490  0.7973  0.1425
    1SOL    MW4 8960   1.858   2.868   3.658 -0.1757  0.0427  0.2332
    1SOL     OW 8961   2.882   1.015   3.871 -0.3122 -0.0365 -0.5293
    1SOL    HW2 8962   2.891   0.929   3.912 -4.5229 -1.1592 -1.7576
    1SOL    HW3 8963   2.825   1.064   3.930  1.3143  1.6637 -0.3133
    1SOL    MW4 8964   2.876   1.010   3.884 -0.6530  0.0399 -0.6630
    1SOL     OW 8965   3.881   0.140   3.735  0.1561 -0.1804 -0.1570
    1SOL    HW2 8966   3.834   0.154   3.817  0.2730  0.0626 -0.1313
    1SOL    HW3 8967   3.890   0.228   3.698  2.9611  0.1096  1.1081
    1SOL    MW4 8968   3.876   0.153   3.741  0.5417 -0.1100  0.0131
    1SOL     OW 8969   3.073   3.420   2.594 -0.7413  0.7363 -0.0599
    1SOL    HW2 8970   3.083   3.501   2.546 -0.7634  0.4548 -0.5394
    1SOL    HW3 8971   3.007   3.440   2.661 -1.8140  0.7060 -1.0926
    1SOL    MW4 8972   3.066   3.433   2.597 -0.8857  0.6950 -0.2592
    1SOL     OW 8973   4.243   2.999   1.406  0.1434 -0.4831 -0.1340
    1SOL    HW2 8974   4.329   3.039   1.392  0.6192 -1.4215 -0.0138
    1SOL    HW3 8975   4.241   2.927   1.343 -1.3699  0.7467 -1.4897
    1SOL    MW4 8976   4.254   2.995   1.396  0.0062 -0.4449 -0.2970
    1SOL     OW 8977   3.343   3.208   1.377 -0.2017 -0.0519  0.7976
    1SOL    HW2 8978   3.271   3.265   1.401 -0.7646  0.1199 -1.2396
    1SOL    HW3 8979   3.303   3.140   1.323  1.2647  0.4200 -0.9031
    1SOL    MW4 8980   3.329   3.206   1.373 -0.0825  0.0331  0.3045
    1SOL     OW 8981   2.179   3.341   0.565 -1.2172  0.4417  0.1021
    1SOL    HW2 8982   2.178   3.432   0.536 -3.8018  0.6970  0.9387
    1SOL    HW3 8983   2.200   3.345   0.658 -0.6081  0.1068 -0.0120
    1SOL    MW4 8984   2.182   3.353   0.574 -1.4777  0.4311  0.1974
    1SOL     OW 8985   0.706   1.246   0.986  0.9678  0.2709  0.4292
    1SOL    HW2 8986   0.616   1.229   0.960  1.4519  0.1801 -1.2605
    1SOL    HW3 8987   0.750   1.161   0.977  0.7911 -0.1526  3.1903
    1SOL    MW4 8988   0.700   1.232   0.982  1.0083  0.2031  0.5706
    1SOL     OW 8989   4.285   2.874   2.280 -0.0494 -0.6371 -0.4580
    1SOL    HW2 8990   4.331   2.896   2.360 -2.1169 -0.9118  0.8370
    1SOL    HW3 8991   4.250   2.957   2.248  0.4069 -0.5966 -0.8750
    1SOL    MW4 8992   4.287   2.888   2.286 -0.2623 -0.6683 -0.3421
    1SOL     OW 8993   2.745   3.162   2.382  0.3542 -0.4388 -0.5660
    1SOL    HW2 8994   2.718   3.193   2.468 -0.4233 -2.0088 -0.2241
    1SOL    HW3 8995   2.841   3.158   2.387  0.4050  0.9280 -0.3013
    1SOL    MW4 8996   2.754   3.165   2.394  0.2584 -0.4654 -0.4859
    1SOL     OW 8997   3.513   4.477   1.194  0.5122  0.6747  0.4115
    1SOL    HW2 8998   3.476   4.561   1.169  0.6000  0.4183 -0.6067
    1SOL    HW3 8999   3.447   4.437   1.250 -0.0731  0.9026 -0.1073
    1SOL    MW4 9000   3.500   4.483   1.198  0.4466  0.6709  0.2085
    1SOL     OW 9001   3.813   3.378   3.953  0.2614  0.2305 -0.2629
    1SOL    HW2 9002   3.806   3.289   3.990 -1.3091  0.6208  0.4362
    1SOL    HW3 9003   3.819   3.435   4.030 -0.2920  0.8366 -0.6616
    1SOL    MW4 9004   3.813   3.373   3.968 -0.0188  0.3622 -0.2234
    1SOL     OW 9005   0.989   1.408   2.762  0.2897  0.0585  0.1968
    1SOL    HW2 9006   0.958   1.451   2.842 -1.2645 -0.5390 -0.0758
    1SOL    HW3 9007   0.912   1.366   2.726  1.2946 -0.9162 -0.8468
    1SOL    MW4 9008   0.975   1.408   2.768  0.2172 -0.1489  0.0231
    1SOL     OW 9009   3.233   4.651   1.698  0.2441 -0.1427  0.2350
    1SOL    HW2 9010   3.328   4.658   1.693  0.1967 -0.9714 -3.0149
    1SOL    HW3 9011   3.209   4.702   1.775  3.3578 -0.3867  1.4391
    1SOL    MW4 9012   3.242   4.658   1.707  0.6487 -0.2847 -0.0348
    1SOL     OW 9013   2.419   3.530   2.044  0.3410 -0.5738 -0.0686
    1SOL    HW2 9014   2.430   3.441   2.075  0.5572 -0.8479 -0.9208
    1SOL    HW3 9015   2.509   3.563   2.033  0.2708 -0.5776 -0.6694
    1SOL    MW4 9016   2.433   3.523   2.046  0.3600 -0.6101 -0.2604
    1SOL     OW 9017   3.434   1.852   2.975 -0.1887  0.4268 -0.1196
    1SOL    HW2 9018   3.491   1.827   3.048 -2.7499 -1.9300  1.1630
    1SOL    HW3 9019   3.462   1.796   2.903  0.0812  0.2782  0.0972
    1SOL    MW4 9020   3.445   1.841   2.975 -0.4909  0.0963  0.0782
    1SOL     OW 9021   0.152   2.612   3.961 -0.4048  0.1975 -0.7727
    1SOL    HW2 9022   0.149   2.669   3.885  1.3517  0.8281 -0.3887
    1SOL    HW3 9023   0.130   2.669   4.035 -1.5941 -0.2963 -0.7296
    1SOL    MW4 9024   0.149   2.627   3.961 -0.3299  0.2155 -0.7162
    1SOL     OW 9025   0.178   3.882   2.144 -0.2518 -0.3651  0.7773
    1SOL    HW2 9026   0.183   3.786   2.151  0.5310 -0.2129  2.4738
    1SOL    HW3 9027   0.251   3.906   2.087 -0.8735 -0.8356 -0.2228
    1SOL    MW4 9028   0.188   3.872   2.138 -0.2305 -0.4070  0.8690
    1SOL     OW 9029   1.061   4.612   1.726  0.2201  0.0379  0.5094
    1SOL    HW2 9030   1.099   4.528   1.752  1.8502  1.1316  1.8336
    1SOL    HW3 9031   0.999   4.633   1.796 -1.6971 -0.9965 -0.8491
    1SOL    MW4 9032   1.058   4.604   1.739  0.1823  0.0458  0.5049
    1SOL     OW 9033   2.065   0.079   2.538  0.0315 -0.2736 -0.3399
    1SOL    HW2 9034   2.041  -0.011   2.515  1.8849 -0.9143  0.1556
    1SOL    HW3 9035   2.115   0.070   2.619 -2.4869  1.5276  1.4993
    1SOL    MW4 9036   2.068   0.066   2.545 -0.0563 -0.1204 -0.0317
    1SOL     OW 9037   0.863   3.155   3.747  0.0684 -1.0987  0.2381
    1SOL    HW2 9038   0.835   3.069   3.717 -1.3209 -1.9427  3.6531
    1SOL    HW3 9039   0.796   3.181   3.811  0.3419  2.6234 -0.8315
    1SOL    MW4 9040   0.850   3.147   3.752 -0.0788 -0.7188  0.5476
    1SOL     OW 9041   0.028   0.702   1.443 -0.2341  0.4815  0.1218
    1SOL    HW2 9042  -0.001   0.787   1.477 -0.7902 -0.0865  1.0655
    1SOL    HW3 9043  -0.052   0.657   1.417  0.1239  0.5942 -1.2499
    1SOL    MW4 9044   0.014   0.708   1.444 -0.2602  0.4213  0.0652
    1SOL     OW 9045   0.845   1.442   4.459  0.2104  0.5110  0.5683
    1SOL    HW2 9046   0.864   1.369   4.518 -0.4965  0.2734  0.5079
    1SOL    HW3 9047   0.870   1.520   4.509  0.7545  0.2394  0.7191
    1SOL    MW4 9048   0.851   1.443   4.474  0.1889  0.4437  0.5803
    1SOL     OW 9049   0.488   3.153   1.231  0.0999  0.1771  0.4194
    1SOL    HW2 9050   0.444   3.070   1.212 -0.2024  0.3765  0.2422
    1SOL    HW3 9051   0.497   3.154   1.326 -0.1992  0.0925  0.4501
    1SOL    MW4 9052   0.483   3.142   1.241  0.0206  0.1924  0.4001
    1SOL     OW 9053   1.122   3.905   2.522  0.6755  0.0597 -0.0299
    1SOL    HW2 9054   1.149   3.821   2.558  1.7297  0.8936  1.1844
    1SOL    HW3 9055   1.026   3.898   2.514  0.4237 -0.2500  2.7576
    1SOL    MW4 9056   1.113   3.893   2.526  0.7814  0.1292  0.4981
    1SOL     OW 9057   1.118   1.446   1.324  0.1587  0.0273  0.4350
    1SOL    HW2 9058   1.075   1.361   1.332 -1.9672  1.1311  1.2310
    1SOL    HW3 9059   1.184   1.446   1.393 -0.5604 -0.5744  1.1355
    1SOL    MW4 9060   1.121   1.435   1.334 -0.2167  0.0935  0.6325
    1SOL     OW 9061   3.639   2.932   4.665 -0.4750 -0.0471 -0.2679
    1SOL    HW2 9062   3.577   2.871   4.704 -1.3177  0.8905 -0.1098
    1SOL    HW3 9063   3.724   2.888   4.672 -1.0000 -0.9910  0.2600
    1SOL    MW4 9064   3.642   2.918   4.671 -0.6554 -0.0479 -0.1779
    1SOL     OW 9065   2.755   3.618   1.248  0.0532 -0.1803 -0.2483
    1SOL    HW2 9066   2.767   3.598   1.341  0.3308 -0.2669 -0.3009
    1SOL    HW3 9067   2.717   3.538   1.211 -0.0596 -0.1453 -0.2077
    1SOL    MW4 9068   2.752   3.605   1.255  0.0749 -0.1872 -0.2500
    1SOL     OW 9069   2.986   4.462   2.117  0.4256  0.3817  0.1072
    1SOL    HW2 9070   3.047   4.484   2.187  0.8028 -0.2281 -0.0263
    1SOL    HW3 9071   2.999   4.369   2.102  0.6901  0.6045 -1.1110
    1SOL    MW4 9072   2.996   4.453   2.124  0.5105  0.3304 -0.0710
    1SOL     OW 9073   0.541   0.206   3.920  0.4301  0.1765  0.2222
    1SOL    HW2 9074   0.544   0.110   3.922  1.8923  0.2216  1.1020
    1SOL    HW3 9075   0.627   0.232   3.889  0.0013  1.2137 -0.1220
    1SOL    MW4 9076   0.553   0.197   3.917  0.5664  0.3193  0.2928
    1SOL     OW 9077   2.217   3.401   0.841 -0.2666  0.3962  0.3410
    1SOL    HW2 9078   2.145   3.375   0.898  1.2925 -0.3941  2.0242
    1SOL    HW3 9079   2.288   3.423   0.902  0.8240  1.4003 -1.2715
    1SOL    MW4 9080   2.217   3.401   0.857  0.0832  0.4246  0.3503
    1SOL     OW 9081   2.850   3.137   1.535 -0.2393 -0.5314  0.0811
    1SOL    HW2 9082   2.767   3.147   1.488 -1.0285 -1.6734  1.2089
    1SOL    HW3 9083   2.832   3.169   1.623  0.2240 -1.7226  0.6192
    1SOL    MW4 9084   2.837   3.143   1.540 -0.2825 -0.8392  0.3009
    1SOL     OW 9085   1.402   1.423   1.288  0.1213  0.1225 -0.1223
    1SOL    HW2 9086   1.473   1.393   1.230 -0.7269 -0.2446 -0.9818
    1SOL    HW3 9087   1.343   1.471   1.230 -0.2704  0.5388  0.6214
    1SOL    MW4 9088   1.404   1.426   1.272 -0.0423  0.1290 -0.1374
    1SOL     OW 9089   3.817   1.629   1.948 -0.2380  0.1712 -0.0925
    1SOL    HW2 9090   3.755   1.702   1.943  0.0749  0.5130  0.7028
    1SOL    HW3 9091   3.891   1.666   1.997  0.9022 -0.0079 -1.6658
    1SOL    MW4 9092   3.819   1.644   1.954 -0.0463  0.1926 -0.1951
    1SOL     OW 9093   3.928   4.316   1.154 -0.7206  0.3046  0.0700
    1SOL    HW2 9094   3.879   4.273   1.224 -0.6011  0.5431  0.2970
    1SOL    HW3 9095   3.878   4.395   1.135 -2.2693 -1.1051 -1.9784
    1SOL    MW4 9096   3.915   4.321   1.160 -0.9091  0.1502 -0.1701
    1SOL     OW 9097   3.965   3.412   3.266 -0.0532 -0.3330 -0.2947
    1SOL    HW2 9098   3.896   3.347   3.281 -0.7029  0.0499 -1.5661
    1SOL    HW3 9099   4.009   3.382   3.186  0.5558  0.0297 -0.0983
    1SOL    MW4 9100   3.962   3.399   3.257 -0.0584 -0.2346 -0.4365
    1SOL     OW 9101   0.249   2.451   4.392  0.1484  0.2480 -0.2185
    1SOL    HW2 9102   0.181   2.404   4.343  1.0228 -1.1846 -0.0676
    1SOL    HW3 9103   0.289   2.385   4.447 -0.2005  1.6797  1.7913
    1SOL    MW4 9104   0.245   2.436   4.393  0.2177  0.2477  0.0663
    1SOL     OW 9105   2.871   0.754   4.027 -0.0983  0.3939 -0.1127
    1SOL    HW2 9106   2.836   0.686   3.970 -1.6836  0.2217  1.0267
    1SOL    HW3 9107   2.965   0.738   4.030 -0.2805 -0.8828 -0.9671
    1SOL    MW4 9108   2.878   0.743   4.020 -0.3316  0.2027 -0.0753
    1SOL     OW 9109   0.619   2.748   1.254 -0.0806  0.2908 -0.5822
    1SOL    HW2 9110   0.633   2.662   1.216  1.4362 -0.5600  1.7733
    1SOL    HW3 9111   0.708   2.781   1.272 -0.6967  1.5125  0.2803
    1SOL    MW4 9112   0.633   2.741   1.252  0.0382  0.3395 -0.1575
    1SOL     OW 9113   2.014   2.745   3.458  0.0127 -0.1613 -0.1373
    1SOL    HW2 9114   1.975   2.780   3.377 -0.5922 -1.2658 -0.3305
    1SOL    HW3 9115   1.974   2.797   3.528 -0.6355 -0.2317 -0.4466
    1SOL    MW4 9116   2.003   2.757   3.456 -0.1528 -0.3164 -0.2034
    1SOL     OW 9117   1.173   2.168   2.325  0.5442  0.2097  0.6110
    1SOL    HW2 9118   1.185   2.092   2.268 -1.5084 -0.3453  0.8525
    1SOL    HW3 9119   1.258   2.211   2.327  1.1958 -0.9429 -1.1723
    1SOL    MW4 9120   1.186   2.164   2.318  0.3595 -0.0155  0.4075
    1SOL     OW 9121   4.396   2.042   4.293 -0.1498 -0.4975 -0.1234
    1SOL    HW2 9122   4.473   2.099   4.288 -0.4335 -0.2481 -1.7318
    1SOL    HW3 9123   4.430   1.959   4.326  0.5004  0.1709  0.9227
    1SOL    MW4 9124   4.410   2.039   4.297 -0.1016 -0.3765 -0.1979
    1SOL     OW 9125   2.004   2.172   2.299  0.1859  0.4752 -0.1551
    1SOL    HW2 9126   2.080   2.140   2.348  1.1388  1.3303 -1.0723
    1SOL    HW3 9127   1.955   2.224   2.364  1.6222  1.8861 -0.1659
    1SOL    MW4 9128   2.008   2.175   2.314  0.5009  0.7744 -0.2775
    1SOL     OW 9129   3.281   3.156   2.290  0.2831  0.1214 -0.0077
    1SOL    HW2 9130   3.193   3.183   2.316 -0.2662 -0.9544 -0.7096
    1SOL    HW3 9131   3.289   3.188   2.200  1.0835  1.3025  0.4760
    1SOL    MW4 9132   3.270   3.164   2.281  0.3161  0.1352 -0.0365
    1SOL     OW 9133   0.709   3.146   1.545 -0.3799 -0.1324 -0.3679
    1SOL    HW2 9134   0.731   3.057   1.573  1.8765  0.3798 -0.4660
    1SOL    HW3 9135   0.679   3.189   1.625  0.7065 -0.3159  0.1465
    1SOL    MW4 9136   0.708   3.140   1.559  0.0612 -0.0889 -0.3130
    1SOL     OW 9137   3.972   2.410   1.625  0.4710 -0.3674  0.0052
    1SOL    HW2 9138   3.931   2.367   1.701 -0.9282  0.0298 -0.4993
    1SOL    HW3 9139   3.903   2.467   1.590  1.0678 -0.6364 -1.6372
    1SOL    MW4 9140   3.957   2.412   1.631  0.3653 -0.3505 -0.2781
    1SOL     OW 9141   3.947   2.656   1.215  0.4340 -0.1082 -0.4153
    1SOL    HW2 9142   3.860   2.645   1.253  0.4071  2.0627  0.2054
    1SOL    HW3 9143   4.007   2.634   1.286  0.3880 -0.4154 -0.4716
    1SOL    MW4 9144   3.943   2.652   1.229  0.4244  0.1376 -0.3408
    1SOL     OW 9145   3.575   2.427   2.189 -0.0973 -0.6063  0.3485
    1SOL    HW2 9146   3.525   2.503   2.160  0.8675 -0.0008  0.2687
    1SOL    HW3 9147   3.562   2.425   2.284  0.2901 -0.0271  0.4216
    1SOL    MW4 9148   3.567   2.437   2.198  0.0813 -0.4501  0.3476
    1SOL     OW 9149   0.833   0.557   2.269  0.2722 -0.4042  0.5388
    1SOL    HW2 9150   0.810   0.524   2.182  0.1112 -0.4835  0.6099
    1SOL    HW3 9151   0.751   0.593   2.303  0.2742 -0.6129  0.7638
    1SOL    MW4 9152   0.819   0.557   2.262  0.2512 -0.4422  0.5782
    1SOL     OW 9153   2.714   4.013   3.088 -0.5471 -0.3087  0.1808
    1SOL    HW2 9154   2.694   4.025   3.181 -1.6408 -1.3797  0.1068
    1SOL    HW3 9155   2.765   4.090   3.064  1.5443 -1.0254  2.1668
    1SOL    MW4 9156   2.718   4.024   3.097 -0.4156 -0.5450  0.4332
    1SOL     OW 9157   3.260   3.661   1.246  0.2789  0.1493  0.3809
    1SOL    HW2 9158   3.231   3.574   1.220  0.2316  0.3654 -0.3022
    1SOL    HW3 9159   3.200   3.721   1.201  0.4465  0.5386  0.6722
    1SOL    MW4 9160   3.248   3.658   1.237  0.2949  0.2291  0.3293
    1SOL     OW 9161   4.429   0.861   3.409  0.2284 -0.0689  0.0435
    1SOL    HW2 9162   4.343   0.826   3.431  0.0382  0.7590  0.6205
    1SOL    HW3 9163   4.462   0.802   3.341 -0.2835 -1.0894  0.6796
    1SOL    MW4 9164   4.422   0.849   3.403  0.1359 -0.0944  0.2036
    1SOL     OW 9165   1.378   0.802   3.078 -0.4540 -0.2770 -0.0459
    1SOL    HW2 9166   1.438   0.740   3.119  0.0736  1.1125  1.3102
    1SOL    HW3 9167   1.292   0.780   3.113 -0.7203 -1.9999 -1.6752
    1SOL    MW4 9168   1.375   0.791   3.088 -0.4194 -0.3210 -0.0818
    1SOL     OW 9169   2.525   1.974   0.885  0.2632  0.0770  0.4654
    1SOL    HW2 9170   2.434   1.983   0.855  0.2800  0.1775  0.4457
    1SOL    HW3 9171   2.577   2.008   0.813  0.3885 -1.4561 -0.2022
    1SOL    MW4 9172   2.520   1.979   0.871  0.2823 -0.1119  0.3748
    1SOL     OW 9173   1.181   2.401   1.224  0.1963  0.2676 -0.4222
    1SOL    HW2 9174   1.236   2.435   1.153  1.3370  0.8589  0.7161
    1SOL    HW3 9175   1.110   2.464   1.232 -0.0516  0.0872 -1.1727
    1SOL    MW4 9176   1.179   2.414   1.216  0.3142  0.3219 -0.3712
    1SOL     OW 9177   0.864   0.406   2.619  0.0567 -0.2711 -0.4164
    1SOL    HW2 9178   0.835   0.372   2.534  0.6824  0.9870 -1.1452
    1SOL    HW3 9179   0.823   0.493   2.625  2.2717  0.8134 -0.6994
    1SOL    MW4 9180   0.855   0.413   2.609  0.4315  0.0380 -0.5498
    1SOL     OW 9181   0.758   1.084   4.114  0.0671 -0.0039 -0.0256
    1SOL    HW2 9182   0.714   1.004   4.084  2.7845 -0.8741 -1.9181
    1SOL    HW3 9183   0.692   1.152   4.104 -2.0604 -1.8591  0.8382
    1SOL    MW4 9184   0.744   1.082   4.108  0.1450 -0.3635 -0.1616
    1SOL     OW 9185   4.483   4.203   2.030 -0.5768 -0.5751 -0.1545
    1SOL    HW2 9186   4.486   4.204   2.126 -0.9881 -1.8912 -0.1187
    1SOL    HW3 9187   4.465   4.293   2.006 -0.7995 -0.2920  1.0258
    1SOL    MW4 9188   4.481   4.215   2.040 -0.6604 -0.7114  0.0060
    1SOL     OW 9189   3.816   1.861   3.353  0.0847  0.3015 -0.2373
    1SOL    HW2 9190   3.840   1.860   3.446  0.6317 -1.4327 -0.3788
    1SOL    HW3 9191   3.891   1.901   3.310  0.1681  0.3795 -0.0215
    1SOL    MW4 9192   3.829   1.866   3.360  0.1678  0.0830 -0.2275
    1SOL     OW 9193   3.030   2.096   2.863  0.2557 -0.0056  0.0639
    1SOL    HW2 9194   3.026   2.143   2.946 -0.4234  1.5249 -0.8031
    1SOL    HW3 9195   2.973   2.146   2.804  0.0602 -1.5428 -1.0875
    1SOL    MW4 9196   3.022   2.109   2.866  0.1407 -0.0067 -0.2024
    1SOL     OW 9197   1.504   4.487   3.072  0.5451 -0.5696 -0.1473
    1SOL    HW2 9198   1.475   4.514   3.160  1.5082  0.4747 -0.1370
    1SOL    HW3 9199   1.427   4.502   3.016  1.4153  3.5539 -0.3830
    1SOL    MW4 9200   1.490   4.493   3.076  0.7869  0.1125 -0.1771
    1SOL     OW 9201   0.552   2.350   1.792 -0.1439 -0.5537 -0.5271
    1SOL    HW2 9202   0.493   2.386   1.858 -2.0605 -0.3003 -2.3288
    1SOL    HW3 9203   0.568   2.260   1.821 -1.5354 -0.6717 -0.0813
    1SOL    MW4 9204   0.546   2.343   1.805 -0.5803 -0.5360 -0.7061
    1SOL     OW 9205   1.381   1.178   3.260  0.3213 -0.2032 -0.1445
    1SOL    HW2 9206   1.349   1.266   3.244 -0.0145 -0.4489 -0.8357
    1SOL    HW3 9207   1.338   1.150   3.341  0.3697  0.2338  0.0303
    1SOL    MW4 9208   1.371   1.186   3.269  0.2834 -0.1780 -0.2127
    1SOL     OW 9209   3.596   4.474   4.535  0.0332 -0.2247 -0.2181
    1SOL    HW2 9210   3.691   4.483   4.529  0.1076 -0.1376  1.0697
    1SOL    HW3 9211   3.573   4.421   4.458  1.2002 -0.8361 -0.1639
    1SOL    MW4 9212   3.606   4.468   4.524  0.1967 -0.2942 -0.0410
    1SOL     OW 9213   0.043   4.127   2.889  0.0024  0.0249  0.5159
    1SOL    HW2 9214   0.121   4.181   2.898  0.5954 -1.0857  2.4337
    1SOL    HW3 9215   0.001   4.130   2.975 -3.2477  2.2899 -1.0222
    1SOL    MW4 9216   0.048   4.134   2.902 -0.3482  0.1764  0.5660
    1SOL     OW 9217   1.112   0.538   2.311  0.0126 -0.1991  0.5542
    1SOL    HW2 9218   1.122   0.537   2.407  0.1313  0.4335  0.5484
    1SOL    HW3 9219   1.017   0.542   2.298  0.0586  1.7654  0.6681
    1SOL    MW4 9220   1.100   0.538   2.322  0.0345  0.1435  0.5686
    1SOL     OW 9221   3.178   3.675   4.409  0.7383  0.4976  0.2775
    1SOL    HW2 9222   3.266   3.648   4.435  0.5018 -0.7576 -0.1828
    1SOL    HW3 9223   3.160   3.752   4.462  2.0511  0.6603  0.4948
    1SOL    MW4 9224   3.187   3.681   4.420  0.8805  0.3533  0.2451
    1SOL     OW 9225   2.284   0.663   2.567 -0.0707 -0.2766 -0.7620
    1SOL    HW2 9226   2.349   0.678   2.636  1.3604  1.6150 -2.4400
    1SOL    HW3 9227   2.331   0.611   2.502  0.1591  2.0446 -2.5083
    1SOL    MW4 9228   2.299   0.658   2.568  0.1485  0.2792 -1.2138
    1SOL     OW 9229   0.073   1.761   2.903 -0.0238  0.3673 -0.2941
    1SOL    HW2 9230   0.078   1.712   2.821  0.3232  0.1636 -0.1530
    1SOL    HW3 9231   0.157   1.745   2.946 -0.1057  0.6767 -0.0139
    1SOL    MW4 9232   0.085   1.752   2.898  0.0112  0.3814 -0.2387
    1SOL     OW 9233   1.610   3.709   4.190  0.0406 -0.4417 -0.2187
    1SOL    HW2 9234   1.650   3.622   4.186 -0.1916 -0.6180  0.9999
    1SOL    HW3 9235   1.628   3.739   4.280 -0.0633  0.6755 -0.5669
    1SOL    MW4 9236   1.618   3.701   4.202 -0.0037 -0.3176 -0.1035
    1SOL     OW 9237   2.693   0.189   1.652  0.3768 -0.2186  0.5243
    1SOL    HW2 9238   2.727   0.279   1.648 -1.8294  0.6148 -0.7773
    1SOL    HW3 9239   2.615   0.195   1.707  0.0396 -1.2682  0.1739
    1SOL    MW4 9240   2.687   0.202   1.659  0.0412 -0.2471  0.3065
    1SOL     OW 9241   3.644   2.876   4.051  0.6956 -0.0511  0.8429
    1SOL    HW2 9242   3.678   2.965   4.050  0.3501  0.0729  0.1862
    1SOL    HW3 9243   3.628   2.858   4.144  1.4936  0.2881  1.0506
    1SOL    MW4 9244   3.646   2.885   4.063  0.7553  0.0098  0.7839
    1SOL     OW 9245   0.446   1.076   1.775  0.4718 -0.0322 -0.4707
    1SOL    HW2 9246   0.360   1.086   1.815  0.1418 -0.8153 -0.9784
    1SOL    HW3 9247   0.435   1.110   1.686  1.3753  2.3368  0.2934
    1SOL    MW4 9248   0.433   1.082   1.768  0.5475  0.1770 -0.4368
    1SOL     OW 9249   0.828   2.427   4.422 -0.1228 -0.2395  0.2417
    1SOL    HW2 9250   0.845   2.362   4.491  2.4051 -0.5312 -0.5717
    1SOL    HW3 9251   0.893   2.496   4.438  0.3773 -0.2293 -1.7157
    1SOL    MW4 9252   0.839   2.427   4.433  0.2767 -0.2766 -0.1235
    1SOL     OW 9253   3.021   1.668   4.128 -0.5046 -0.4253  0.0469
    1SOL    HW2 9254   3.023   1.763   4.137  1.5334 -0.5221  0.8680
    1SOL    HW3 9255   2.942   1.641   4.174 -1.9307  0.9716 -1.5018
    1SOL    MW4 9256   3.011   1.677   4.135 -0.4239 -0.2538 -0.0491
    1SOL     OW 9257   2.076   3.267   1.045 -0.5767 -0.1785  0.3393
    1SOL    HW2 9258   2.066   3.183   1.001  0.1811 -1.2449  2.1115
    1SOL    HW3 9259   1.988   3.291   1.074 -0.9355  0.1012 -0.9825
    1SOL    MW4 9260   2.063   3.259   1.043 -0.5240 -0.2823  0.3986
    1SOL     OW 9261   3.031   3.257   2.340 -0.3231  0.1000 -0.5667
    1SOL    HW2 9262   3.038   3.285   2.431 -0.9634 -0.2079 -0.4223
    1SOL    HW3 9263   2.996   3.333   2.294 -0.2314  0.1736 -0.5151
    1SOL    MW4 9264   3.028   3.271   2.346 -0.3955  0.0689 -0.5407
    1SOL     OW 9265   0.850   2.304   4.698  0.1718 -0.0715 -0.0235
    1SOL    HW2 9266   0.758   2.314   4.675  0.1314 -1.7026 -0.6494
    1SOL    HW3 9267   0.864   2.209   4.701  1.5885  0.1475  1.0440
    1SOL    MW4 9268   0.840   2.293   4.696  0.3534 -0.2577  0.0353
    1SOL     OW 9269   1.972   1.005   3.382 -0.0954  0.0621  0.3476
    1SOL    HW2 9270   1.979   0.998   3.286  1.3958  0.5171  0.4149
    1SOL    HW3 9271   1.961   1.098   3.398 -1.6746 -0.1493  0.5505
    1SOL    MW4 9272   1.971   1.016   3.371 -0.1068  0.0942  0.3831
    1SOL     OW 9273   0.243   1.819   0.824 -0.2890 -0.3064  0.1713
    1SOL    HW2 9274   0.271   1.896   0.873 -0.3099 -0.3205  0.2052
    1SOL    HW3 9275   0.211   1.854   0.740 -0.1673 -0.2909  0.1314
    1SOL    MW4 9276   0.242   1.834   0.819 -0.2757 -0.3064  0.1705
    1SOL     OW 9277   2.893   0.427   2.533 -0.2223 -0.2168 -0.4751
    1SOL    HW2 9278   2.844   0.359   2.579 -0.7920 -1.2904 -2.5928
    1SOL    HW3 9279   2.984   0.409   2.556 -0.5976  0.2986  1.5358
    1SOL    MW4 9280   2.899   0.416   2.542 -0.3471 -0.2905 -0.4890
    1SOL     OW 9281   3.703   3.733   1.670 -0.4658 -0.0004 -0.2018
    1SOL    HW2 9282   3.755   3.725   1.749  0.8975 -0.4755 -1.1300
    1SOL    HW3 9283   3.641   3.659   1.674  0.0815 -0.4442  0.0597
    1SOL    MW4 9284   3.701   3.722   1.681 -0.2136 -0.1218 -0.2898
    1SOL     OW 9285   2.772   3.390   2.022 -0.1896  0.4744 -0.4001
    1SOL    HW2 9286   2.850   3.412   2.072 -0.0448  1.1174 -0.9004
    1SOL    HW3 9287   2.705   3.373   2.088 -0.0214  1.3807  0.0083
    1SOL    MW4 9288   2.773   3.391   2.037 -0.1483  0.6790 -0.4120
    1SOL     OW 9289   3.499   1.145   1.546 -0.4818  0.2315 -0.0766
    1SOL    HW2 9290   3.531   1.176   1.631 -0.6486 -1.7174  0.7247
    1SOL    HW3 9291   3.566   1.083   1.517 -0.3606  0.9846 -1.4402
    1SOL    MW4 9292   3.512   1.141   1.554 -0.4878  0.0737 -0.1509
    1SOL     OW 9293   3.585   4.616   1.721  0.0053  0.4782 -0.1246
    1SOL    HW2 9294   3.676   4.632   1.749 -0.2317  0.8846  0.4199
    1SOL    HW3 9295   3.577   4.661   1.638 -0.3119  2.2094  0.8321
    1SOL    MW4 9296   3.596   4.624   1.714 -0.0677  0.7601  0.0736
    1SOL     OW 9297   1.917   1.754   4.171  0.1298  0.1589 -0.9397
    1SOL    HW2 9298   1.912   1.661   4.191 -1.0746  0.2188 -0.9491
    1SOL    HW3 9299   1.978   1.789   4.236 -1.5110 -0.1653  0.8273
    1SOL    MW4 9300   1.925   1.747   4.182 -0.2456  0.1241 -0.7076
    1SOL     OW 9301   1.663   1.492   4.360  0.9048  0.1711  0.0697
    1SOL    HW2 9302   1.672   1.563   4.423  1.1428  0.0393  0.1849
    1SOL    HW3 9303   1.647   1.414   4.412  1.4997 -0.0057 -0.0080
    1SOL    MW4 9304   1.662   1.491   4.375  1.0147  0.1304  0.0744
    1SOL     OW 9305   3.791   2.583   1.525 -0.3037  0.2358  0.1855
    1SOL    HW2 9306   3.777   2.674   1.550 -0.8420 -0.2632  1.7736
    1SOL    HW3 9307   3.702   2.546   1.520 -0.1789  0.1775 -1.9674
    1SOL    MW4 9308   3.777   2.590   1.528 -0.3583  0.1624  0.1111
    1SOL     OW 9309   4.131   4.117   2.451  0.6443  0.4048 -0.2307
    1SOL    HW2 9310   4.098   4.204   2.474 -2.0761 -0.0385 -2.2773
    1SOL    HW3 9311   4.069   4.056   2.489  0.2705 -0.5097 -2.2451
    1SOL    MW4 9312   4.119   4.121   2.459  0.2360  0.2255 -0.7668
    1SOL     OW 9313   1.329   3.934   1.889 -0.1174 -0.6096 -0.1208
    1SOL    HW2 9314   1.405   3.902   1.842 -0.4383 -0.6691 -0.6025
    1SOL    HW3 9315   1.353   4.023   1.916  0.0338 -0.5467 -0.4652
    1SOL    MW4 9316   1.342   3.942   1.886 -0.1397 -0.6094 -0.2298
    1SOL     OW 9317   1.177   4.047   2.755  0.4108  0.2198  0.1053
    1SOL    HW2 9318   1.151   4.139   2.753  0.4244  0.2109 -0.5607
    1SOL    HW3 9319   1.143   4.010   2.674 -0.2616 -0.5458  0.7214
    1SOL    MW4 9320   1.169   4.054   2.744  0.3239  0.1178  0.0985
    1SOL     OW 9321   4.111   4.083   0.816  0.3588  0.5311  0.2203
    1SOL    HW2 9322   4.200   4.065   0.785  0.1152  1.1044 -0.8407
    1SOL    HW3 9323   4.108   4.178   0.827 -0.2052  0.5483 -0.0478
    1SOL    MW4 9324   4.122   4.093   0.813  0.2527  0.6094  0.0450
    1SOL     OW 9325   3.413   0.417   3.014 -0.0845 -0.3683  0.3618
    1SOL    HW2 9326   3.383   0.328   3.031 -1.0067  0.1640  1.6315
    1SOL    HW3 9327   3.470   0.410   2.937 -0.3141 -2.0092  0.3394
    1SOL    MW4 9328   3.417   0.405   3.006 -0.2363 -0.5146  0.5264
    1SOL     OW 9329   1.160   1.218   1.644  0.1037 -0.7324 -0.1176
    1SOL    HW2 9330   1.191   1.308   1.630  0.2999 -0.6990  0.4847
    1SOL    HW3 9331   1.168   1.206   1.739 -0.4332 -1.1997 -0.1358
    1SOL    MW4 9332   1.166   1.228   1.655  0.0589 -0.7898 -0.0405
    1SOL     OW 9333   3.366   2.214   4.135  0.2305 -0.3094 -0.0397
    1SOL    HW2 9334   3.453   2.191   4.169  1.0919  1.9611 -0.6063
    1SOL    HW3 9335   3.384   2.271   4.061 -1.7320 -1.6705 -1.6071
    1SOL    MW4 9336   3.380   2.218   4.130  0.0854 -0.1891 -0.3214
    1SOL     OW 9337   3.894   0.124   2.995  0.3973 -0.1169  0.4474
    1SOL    HW2 9338   3.845   0.165   2.923  0.5389  0.9469  0.9457
    1SOL    HW3 9339   3.984   0.120   2.963  0.4692  0.4014  0.5806
    1SOL    MW4 9340   3.900   0.129   2.981  0.4253  0.0918  0.5307
    1SOL     OW 9341   2.056   2.034   2.628  0.5131 -0.1161  0.0405
    1SOL    HW2 9342   2.040   2.126   2.650  0.7918  0.6398 -2.6957
    1SOL    HW3 9343   2.127   2.008   2.686  1.5786  1.9235 -0.2854
    1SOL    MW4 9344   2.063   2.043   2.638  0.6905  0.2525 -0.3633
    1SOL     OW 9345   3.074   1.361   1.317 -0.3529  0.3274 -0.6936
    1SOL    HW2 9346   3.164   1.354   1.347 -0.8826 -0.0864  0.9111
    1SOL    HW3 9347   3.078   1.412   1.237  1.4238 -0.6784 -1.2645
    1SOL    MW4 9348   3.086   1.367   1.311 -0.1884  0.1402 -0.5571
    1SOL     OW 9349   3.262   2.791   1.008 -0.3167  0.6627 -0.1918
    1SOL    HW2 9350   3.275   2.864   1.067 -1.0781  1.9247 -1.5452
    1SOL    HW3 9351   3.198   2.735   1.053  0.2292  0.8496  0.8239
    1SOL    MW4 9352   3.255   2.793   1.022 -0.3452  0.8538 -0.2363
    1SOL     OW 9353   0.242   1.711   4.587 -0.0191  0.2305 -0.3109
    1SOL    HW2 9354   0.162   1.691   4.634  0.0761 -0.0028 -0.2481
    1SOL    HW3 9355   0.312   1.681   4.645  0.0770 -0.8810 -0.9928
    1SOL    MW4 9356   0.241   1.705   4.601  0.0062  0.0532 -0.3924
    1SOL     OW 9357   2.945   2.112   3.990 -0.6877 -0.9310  0.0280
    1SOL    HW2 9358   2.978   2.201   3.975 -1.7484 -0.7315 -1.1361
    1SOL    HW3 9359   3.013   2.055   3.953 -1.0744 -0.5437 -1.3204
    1SOL    MW4 9360   2.959   2.116   3.983 -0.8786 -0.8535 -0.3033
    1SOL     OW 9361   2.022   3.056   0.867  0.6109  0.2250 -0.4975
    1SOL    HW2 9362   1.978   2.971   0.859 -0.0352  0.5558 -0.4995
    1SOL    HW3 9363   1.993   3.105   0.790  1.2395  0.3325 -0.6689
    1SOL    MW4 9364   2.013   3.051   0.856  0.6087  0.2828 -0.5204
    1SOL     OW 9365   3.816   3.308   2.896  0.2596 -0.2603 -0.2389
    1SOL    HW2 9366   3.772   3.393   2.897 -1.2524 -1.0091 -1.3697
    1SOL    HW3 9367   3.848   3.299   2.806 -1.3956 -1.7966 -0.6862
    1SOL    MW4 9368   3.815   3.318   2.884 -0.1581 -0.5620 -0.4473
    1SOL     OW 9369   0.381   3.274   4.311  0.2975 -0.5717 -0.0494
    1SOL    HW2 9370   0.453   3.211   4.300  0.9128  0.1261 -0.0577
    1SOL    HW3 9371   0.364   3.274   4.405  1.3519  0.3959  0.1532
    1SOL    MW4 9372   0.388   3.265   4.322  0.5178 -0.3519 -0.0238
    1SOL     OW 9373   1.366   0.316   2.492  0.0794 -0.2152 -0.2697
    1SOL    HW2 9374   1.381   0.225   2.515 -0.8977 -0.2695  0.2006
    1SOL    HW3 9375   1.363   0.362   2.576  0.0783  0.1697 -0.4785
    1SOL    MW4 9376   1.367   0.310   2.506 -0.0497 -0.1715 -0.2351
    1SOL     OW 9377   3.205   2.358   2.221 -0.3983 -0.0415  0.4977
    1SOL    HW2 9378   3.155   2.348   2.302  1.3240  0.9432  1.7252
    1SOL    HW3 9379   3.241   2.447   2.226  0.4611 -0.2946 -0.9214
    1SOL    MW4 9380   3.204   2.368   2.232 -0.0577  0.0548  0.4723
    1SOL     OW 9381   1.691   2.346   2.967 -0.1488  0.2065  0.1265
    1SOL    HW2 9382   1.776   2.333   2.926 -0.6551  0.5813 -1.0697
    1SOL    HW3 9383   1.628   2.311   2.904 -0.8437 -0.7346  1.3069
    1SOL    MW4 9384   1.694   2.340   2.954 -0.3073  0.1318  0.1242
    1SOL     OW 9385   0.865   2.130   0.604  0.1741  0.3192  0.1212
    1SOL    HW2 9386   0.815   2.048   0.607  0.0738  0.3561 -0.4150
    1SOL    HW3 9387   0.954   2.105   0.631  0.2361 -0.0413 -0.3984
    1SOL    MW4 9388   0.870   2.116   0.608  0.1690  0.2766 -0.0181
    1SOL     OW 9389   4.261   0.261   2.384  0.1061 -0.3286  0.5638
    1SOL    HW2 9390   4.335   0.206   2.408  0.5127  0.3431  0.8759
    1SOL    HW3 9391   4.252   0.323   2.457 -0.8539 -0.5004  0.6012
    1SOL    MW4 9392   4.269   0.262   2.397  0.0329 -0.2626  0.6101
    1SOL     OW 9393   1.770   4.289   4.450  0.0632 -0.2064 -0.2876
    1SOL    HW2 9394   1.863   4.270   4.455 -0.0088 -0.3014  0.7884
    1SOL    HW3 9395   1.735   4.221   4.391  0.3625 -1.3214  0.8066
    1SOL    MW4 9396   1.777   4.277   4.443  0.0932 -0.3662 -0.0014
    1SOL     OW 9397   4.131   1.505   2.082 -0.0388  0.1342  0.4393
    1SOL    HW2 9398   4.141   1.451   2.160 -1.0187  1.5766  1.5786
    1SOL    HW3 9399   4.219   1.540   2.066  0.1640 -0.1708  0.8719
    1SOL    MW4 9400   4.144   1.503   2.090 -0.1416  0.2844  0.6468
    1SOL     OW 9401   2.302   0.327   3.142 -0.1625 -0.5630  0.0629
    1SOL    HW2 9402   2.330   0.258   3.203  1.0276  1.1431  1.4811
    1SOL    HW3 9403   2.222   0.362   3.181 -0.0300 -0.2455  0.0474
    1SOL    MW4 9404   2.295   0.322   3.155  0.0119 -0.2960  0.2480
    1SOL     OW 9405   0.275   2.638   3.494  0.1598  0.2510  0.0512
    1SOL    HW2 9406   0.205   2.583   3.529  0.9899 -0.9272 -0.1201
    1SOL    HW3 9407   0.328   2.579   3.441  1.4979  1.0580  0.4713
    1SOL    MW4 9408   0.272   2.623   3.492  0.4459  0.2019  0.0842
    1SOL     OW 9409   3.320   3.247   2.034 -0.1237  0.0297 -0.3181
    1SOL    HW2 9410   3.353   3.234   1.945 -0.3010 -0.6206 -0.2851
    1SOL    HW3 9411   3.340   3.339   2.053 -0.7259  0.3670 -1.2870
    1SOL    MW4 9412   3.327   3.258   2.025 -0.2267 -0.0117 -0.4416
    1SOL     OW 9413   3.259   4.373   3.382  0.5138 -0.7072  0.0820
    1SOL    HW2 9414   3.343   4.418   3.385 -0.5275  1.2534  1.3489
    1SOL    HW3 9415   3.200   4.431   3.431 -2.0102 -1.0958 -2.3981
    1SOL    MW4 9416   3.262   4.387   3.389  0.0434 -0.4997 -0.0780
    1SOL     OW 9417   2.104   2.013   1.282 -0.0585 -0.6010 -0.0129
    1SOL    HW2 9418   2.117   2.026   1.188 -1.0468 -0.7641 -0.1854
    1SOL    HW3 9419   2.072   2.097   1.313  3.0250  0.3385  0.7331
    1SOL    MW4 9420   2.101   2.026   1.273  0.2182 -0.4988  0.0628
    1SOL     OW 9421   1.814   0.134   3.834  0.2357  0.6521 -0.1163
    1SOL    HW2 9422   1.863   0.174   3.905  1.1468  0.2932 -0.5322
    1SOL    HW3 9423   1.737   0.096   3.876  1.0883 -0.1056  0.7650
    1SOL    MW4 9424   1.810   0.134   3.849  0.4685  0.5048 -0.0548
    1SOL     OW 9425   0.544   1.561   3.228 -0.5361 -0.1787  0.2631
    1SOL    HW2 9426   0.617   1.509   3.261 -0.0240 -0.3937 -1.1592
    1SOL    HW3 9427   0.484   1.498   3.188 -0.8574  0.1263  0.2572
    1SOL    MW4 9428   0.546   1.546   3.227 -0.5109 -0.1669  0.0746
    1SOL     OW 9429   1.394   4.474   4.511  0.0082  1.1093  0.1366
    1SOL    HW2 9430   1.304   4.452   4.489 -0.1965  1.8460  0.2251
    1SOL    HW3 9431   1.424   4.401   4.565 -0.1313  0.2626 -0.9082
    1SOL    MW4 9432   1.386   4.462   4.515 -0.0372  1.0948  0.0105
    1SOL     OW 9433   0.251   3.847   0.707  0.2483  0.3963  0.5721
    1SOL    HW2 9434   0.252   3.844   0.803  0.6398 -1.3984  0.5236
    1SOL    HW3 9435   0.337   3.813   0.681 -0.3170 -0.2810 -0.4407
    1SOL    MW4 9436   0.263   3.842   0.717  0.2254  0.0701  0.4321
    1SOL     OW 9437   3.969   1.489   0.722 -0.4470  0.3638 -0.1225
    1SOL    HW2 9438   3.903   1.525   0.662 -0.7403 -1.6799 -1.0693
    1SOL    HW3 9439   4.042   1.550   0.717 -0.3640  0.1182 -2.8096
    1SOL    MW4 9440   3.970   1.502   0.713 -0.4747  0.0616 -0.6019
    1SOL     OW 9441   1.901   0.686   0.874 -0.4750  0.8070 -0.2311
    1SOL    HW2 9442   1.912   0.713   0.965  0.5197  0.2692 -0.1775
    1SOL    HW3 9443   1.808   0.699   0.855 -0.7485  0.6277  0.9610
    1SOL    MW4 9444   1.890   0.691   0.884 -0.3798  0.7123 -0.0668
    1SOL     OW 9445   1.057   3.961   3.144  0.2324 -0.2408  0.6042
    1SOL    HW2 9446   1.135   4.007   3.174 -0.7035  2.0485 -0.3527
    1SOL    HW3 9447   1.083   3.923   3.059  0.8328 -1.0483  1.1353
    1SOL    MW4 9448   1.071   3.962   3.137  0.1881 -0.0453  0.5481
    1SOL     OW 9449   1.975   3.171   2.180  0.0019 -0.4452 -0.2799
    1SOL    HW2 9450   1.906   3.227   2.215  0.6837  1.1111 -1.3815
    1SOL    HW3 9451   2.019   3.225   2.115 -0.2810 -2.7673 -2.4769
    1SOL    MW4 9452   1.972   3.186   2.176  0.0546 -0.5460 -0.7150
    1SOL     OW 9453   2.792   4.602   3.970  0.5235 -0.3383  0.2821
    1SOL    HW2 9454   2.837   4.543   4.030  0.9259 -1.0095 -0.6710
    1SOL    HW3 9455   2.848   4.680   3.965  0.2894 -0.1200  1.0801
    1SOL    MW4 9456   2.805   4.605   3.977  0.5457 -0.3982  0.2618
    1SOL     OW 9457   3.479   2.126   2.860 -0.0747 -0.1745 -0.0816
    1SOL    HW2 9458   3.452   2.035   2.856 -0.5514  0.0282 -2.9271
    1SOL    HW3 9459   3.406   2.174   2.820  0.5998  1.3352  0.4621
    1SOL    MW4 9460   3.466   2.121   2.854 -0.0489  0.0515 -0.3853
    1SOL     OW 9461   1.366   0.657   3.842 -0.0117 -0.7000 -0.2758
    1SOL    HW2 9462   1.336   0.726   3.784  0.9805  0.7896  0.9600
    1SOL    HW3 9463   1.386   0.583   3.784  2.2334  1.1936 -2.0032
    1SOL    MW4 9464   1.365   0.656   3.827  0.4154 -0.2536 -0.3409
    1SOL     OW 9465   3.498   4.006   3.154 -0.1694 -0.5102  0.0935
    1SOL    HW2 9466   3.419   4.027   3.205  0.0655  0.3597  0.1049
    1SOL    HW3 9467   3.465   3.959   3.077 -0.5260 -1.8581  1.0471
    1SOL    MW4 9468   3.483   4.003   3.151 -0.1855 -0.5736  0.2208
    1SOL     OW 9469   0.769   4.084   1.209 -0.1493 -0.0841 -0.0562
    1SOL    HW2 9470   0.695   4.064   1.268  0.6227 -0.3115  0.8404
    1SOL    HW3 9471   0.794   3.998   1.173  2.4242 -0.6660  2.9169
    1SOL    MW4 9472   0.762   4.070   1.212  0.2921 -0.1907  0.4543
    1SOL     OW 9473   0.626   3.355   2.535 -0.5326 -0.5434 -0.1992
    1SOL    HW2 9474   0.560   3.347   2.466 -0.7301 -3.1553  0.2407
    1SOL    HW3 9475   0.710   3.345   2.489 -0.5362  0.4128 -0.4244
    1SOL    MW4 9476   0.628   3.353   2.520 -0.5592 -0.7617 -0.1712
    1SOL     OW 9477   0.069   1.435   4.307  0.1291 -0.4927 -0.1792
    1SOL    HW2 9478   0.154   1.463   4.342 -0.2329 -1.3927  1.4829
    1SOL    HW3 9479   0.047   1.501   4.241  1.6227  0.3321  0.1197
    1SOL    MW4 9480   0.078   1.447   4.303  0.2784 -0.5027  0.0796
    1SOL     OW 9481   0.807   4.264   0.606 -0.2782  0.1067 -0.6669
    1SOL    HW2 9482   0.854   4.348   0.612 -0.8897  0.4102  0.0222
    1SOL    HW3 9483   0.715   4.289   0.594 -0.4692 -0.4603 -0.4111
    1SOL    MW4 9484   0.801   4.279   0.605 -0.3842  0.0720 -0.5423
    1SOL     OW 9485   2.260   2.313   1.066  0.2215  0.6140 -0.4908
    1SOL    HW2 9486   2.320   2.347   0.999  1.0717  0.7519  0.3252
    1SOL    HW3 9487   2.213   2.390   1.098  1.2302  0.8625  0.4495
    1SOL    MW4 9488   2.262   2.328   1.062  0.4668  0.6649 -0.2592
    1SOL     OW 9489   3.772   2.636   2.290  0.3434 -0.3942  0.0782
    1SOL    HW2 9490   3.706   2.697   2.322  0.6180 -0.0409 -0.0189
    1SOL    HW3 9491   3.723   2.573   2.237  0.5530  2.2744 -3.4927
    1SOL    MW4 9492   3.757   2.636   2.287  0.4075  0.0048 -0.4058
    1SOL     OW 9493   2.941   3.832   0.873 -0.1152  0.5345 -0.4300
    1SOL    HW2 9494   2.902   3.913   0.906  0.1360  0.4218  0.1422
    1SOL    HW3 9495   3.024   3.859   0.834  0.5022  0.3930  0.7819
    1SOL    MW4 9496   2.947   3.846   0.872 -0.0005  0.5009 -0.1947
    1SOL     OW 9497   2.341   2.625   2.442 -0.0307  0.2169 -0.1645
    1SOL    HW2 9498   2.311   2.578   2.519 -0.2558 -1.3724 -1.1862
    1SOL    HW3 9499   2.263   2.635   2.387  0.8495 -2.4328 -2.0544
    1SOL    MW4 9500   2.327   2.620   2.445  0.0558 -0.3426 -0.5486
    1SOL     OW 9501   2.482   2.915   0.665 -0.1636 -0.0033 -0.2579
    1SOL    HW2 9502   2.458   2.941   0.576 -1.0223 -0.5151 -0.1721
    1SOL    HW3 9503   2.560   2.861   0.653 -1.1329 -1.2940 -0.8260
    1SOL    MW4 9504   2.490   2.912   0.651 -0.4046 -0.2413 -0.3214
    1SOL     OW 9505   2.204   0.474   1.894 -0.2339  0.1819 -0.7152
    1SOL    HW2 9506   2.280   0.523   1.923  0.3835 -0.1971 -1.6825
    1SOL    HW3 9507   2.146   0.473   1.970  1.6221 -1.3144  0.7554
    1SOL    MW4 9508   2.206   0.480   1.908  0.0923 -0.0655 -0.6489
    1SOL     OW 9509   3.143   0.009   2.831 -0.3755 -0.0854 -0.0664
    1SOL    HW2 9510   3.061  -0.020   2.869  0.3661  0.1431  1.7447
    1SOL    HW3 9511   3.179  -0.069   2.789 -0.9954 -0.4404  0.0628
    1SOL    MW4 9512   3.137  -0.005   2.830 -0.3593 -0.1020  0.1895
    1SOL     OW 9513   4.169   0.093   3.639 -0.0714 -0.3380 -0.4710
    1SOL    HW2 9514   4.183   0.142   3.558 -1.5493 -1.3080 -1.3529
    1SOL    HW3 9515   4.075   0.102   3.655  0.1680 -0.4077  0.9732
    1SOL    MW4 9516   4.158   0.101   3.630 -0.2351 -0.4752 -0.3970
    1SOL     OW 9517   4.367   0.810   4.459  0.2030 -0.4279  0.2379
    1SOL    HW2 9518   4.363   0.901   4.489 -0.6350  0.1768 -1.6371
    1SOL    HW3 9519   4.276   0.783   4.453  0.4145 -1.0436 -0.2030
    1SOL    MW4 9520   4.354   0.819   4.462  0.1197 -0.4293 -0.0677
    1SOL     OW 9521   1.711   3.251   1.530 -0.2878  0.2209  0.1014
    1SOL    HW2 9522   1.693   3.342   1.504 -0.0517  0.1410 -0.3542
    1SOL    HW3 9523   1.664   3.240   1.613 -1.1740  0.4380 -0.3621
    1SOL    MW4 9524   1.702   3.262   1.537 -0.3737  0.2391 -0.0199
    1SOL     OW 9525   3.710   3.208   1.883  0.1813 -0.0217 -0.5123
    1SOL    HW2 9526   3.705   3.135   1.945  0.9330 -0.5844 -1.1047
    1SOL    HW3 9527   3.734   3.167   1.800  1.3207  0.9899 -0.6927
    1SOL    MW4 9528   3.712   3.193   1.880  0.4306  0.0379 -0.6140
    1SOL     OW 9529   1.707   3.947   2.574  0.2207 -0.6487 -0.1414
    1SOL    HW2 9530   1.797   3.975   2.589  0.0978  0.7035 -1.7579
    1SOL    HW3 9531   1.714   3.866   2.524  0.5437 -0.4132 -0.4781
    1SOL    MW4 9532   1.720   3.940   2.570  0.2472 -0.4392 -0.3989
    1SOL     OW 9533   2.031   1.153   2.934  0.0901 -0.3622 -0.3303
    1SOL    HW2 9534   2.091   1.228   2.926  0.0053 -0.2712 -0.1083
    1SOL    HW3 9535   1.963   1.170   2.869  1.6348 -1.7177 -2.3633
    1SOL    MW4 9536   2.030   1.166   2.924  0.2825 -0.5291 -0.5693
    1SOL     OW 9537   3.281   2.630   2.233  0.4574 -0.4468  0.1368
    1SOL    HW2 9538   3.201   2.657   2.188 -0.3694 -1.0877  1.1832
    1SOL    HW3 9539   3.347   2.626   2.164 -0.3839  0.1982 -0.7247
    1SOL    MW4 9540   3.279   2.633   2.218  0.2372 -0.4463  0.1612
    1SOL     OW 9541   1.328   1.802   2.052  0.0863 -0.3451  0.2940
    1SOL    HW2 9542   1.412   1.839   2.080 -1.0195  1.4523  1.3834
    1SOL    HW3 9543   1.300   1.859   1.980 -1.4380  0.7701  1.7100
    1SOL    MW4 9544   1.336   1.815   2.047 -0.2606  0.0392  0.6244
    1SOL     OW 9545   2.143   3.079   3.907 -0.4632 -0.1043 -0.1390
    1SOL    HW2 9546   2.169   3.134   3.833  0.6511  0.2129  0.4835
    1SOL    HW3 9547   2.192   3.113   3.981 -2.0585  0.0027  0.9006
    1SOL    MW4 9548   2.153   3.091   3.907 -0.5267 -0.0484  0.0803
    1SOL     OW 9549   0.720   3.130   4.505 -0.1310 -0.0875 -0.8764
    1SOL    HW2 9550   0.786   3.167   4.447  0.1481 -0.0874 -0.5611
    1SOL    HW3 9551   0.672   3.205   4.539  1.2666  0.1019  0.7660
    1SOL    MW4 9552   0.722   3.145   4.502  0.0902 -0.0625 -0.6185
    1SOL     OW 9553   1.818   2.236   4.047 -0.0155 -0.1157 -0.0257
    1SOL    HW2 9554   1.785   2.178   4.115  0.3449 -2.1500 -1.5123
    1SOL    HW3 9555   1.816   2.183   3.967  0.4944  1.8772 -1.4109
    1SOL    MW4 9556   1.814   2.221   4.045  0.0995 -0.1211 -0.4044
    1SOL     OW 9557   3.479   0.684   2.048 -0.1981 -0.0868 -0.2528
    1SOL    HW2 9558   3.549   0.720   2.103 -0.8582  0.9384 -0.0799
    1SOL    HW3 9559   3.417   0.646   2.110 -0.3017 -0.0879 -0.3585
    1SOL    MW4 9560   3.480   0.683   2.063 -0.2992  0.0483 -0.2437
    1SOL     OW 9561   2.609   0.789   3.391  0.6351 -0.7131  0.2557
    1SOL    HW2 9562   2.531   0.743   3.359 -0.7842  1.4613  0.4441
    1SOL    HW3 9563   2.619   0.758   3.481  0.7002 -1.8852 -0.1441
    1SOL    MW4 9564   2.600   0.779   3.399  0.4566 -0.5807  0.2279
    1SOL     OW 9565   4.295   2.799   3.967 -0.2515 -0.7969 -0.0337
    1SOL    HW2 9566   4.359   2.823   4.033  0.6811 -0.1115 -1.1829
    1SOL    HW3 9567   4.238   2.736   4.011  0.8861 -1.0086  1.1503
    1SOL    MW4 9568   4.296   2.794   3.981  0.0224 -0.7343 -0.0291
    1SOL     OW 9569   2.622   0.832   4.141  0.1616 -0.2813 -0.1194
    1SOL    HW2 9570   2.700   0.797   4.098  0.2101 -2.3656  1.5508
    1SOL    HW3 9571   2.549   0.800   4.088  0.3200 -1.0011  0.0854
    1SOL    MW4 9572   2.623   0.823   4.129  0.1886 -0.6512  0.1283
    1SOL     OW 9573   2.875   3.997   1.690 -0.3036 -0.8928 -0.3282
    1SOL    HW2 9574   2.818   3.977   1.615  1.3700 -1.3663 -1.4983
    1SOL    HW3 9575   2.852   3.931   1.755 -0.9342 -1.2215 -0.8779
    1SOL    MW4 9576   2.864   3.986   1.688 -0.1659 -0.9985 -0.5550
    1SOL     OW 9577   2.898   1.083   2.296  0.5187 -0.2602  0.4317
    1SOL    HW2 9578   2.950   1.003   2.291  3.2736  1.4192  1.0955
    1SOL    HW3 9579   2.921   1.133   2.218 -1.6378 -0.3255 -0.2928
    1SOL    MW4 9580   2.908   1.079   2.285  0.5977 -0.0473  0.4239
    1SOL     OW 9581   2.184   4.140   2.592  0.4054  0.4817 -0.0389
    1SOL    HW2 9582   2.237   4.084   2.649  0.7245 -0.1314 -0.9252
    1SOL    HW3 9583   2.100   4.096   2.585  0.6602  0.1032 -0.7457
    1SOL    MW4 9584   2.180   4.127   2.599  0.4811  0.3505 -0.2494
    1SOL     OW 9585   3.440   3.574   1.464  0.6819 -0.1725  0.1648
    1SOL    HW2 9586   3.381   3.564   1.389  1.3985 -3.3733 -0.0654
    1SOL    HW3 9587   3.508   3.634   1.434  0.0696 -0.1425 -1.1754
    1SOL    MW4 9588   3.441   3.580   1.450  0.6955 -0.5908 -0.0423
    1SOL     OW 9589   0.808   2.847   2.790 -0.0758 -0.2353 -0.1451
    1SOL    HW2 9590   0.841   2.901   2.862 -0.1953 -1.0907  0.5656
    1SOL    HW3 9591   0.777   2.909   2.725  1.6097  0.5795 -0.1936
    1SOL    MW4 9592   0.808   2.862   2.791  0.1308 -0.2408 -0.0577
    1SOL     OW 9593   2.748   3.574   3.105  0.4916 -0.3644 -0.4473
    1SOL    HW2 9594   2.699   3.632   3.163  1.2151 -0.6002  0.4291
    1SOL    HW3 9595   2.683   3.539   3.045 -0.2196  0.1560  0.0122
    1SOL    MW4 9596   2.733   3.577   3.105  0.4933 -0.3271 -0.2708
    1SOL     OW 9597   3.680   3.372   2.299  0.5583  0.2609 -0.0681
    1SOL    HW2 9598   3.709   3.405   2.214  1.2364 -0.0208  0.0561
    1SOL    HW3 9599   3.586   3.359   2.288  0.3518  1.8067 -0.2652
    1SOL    MW4 9600   3.671   3.375   2.286  0.6206  0.4275 -0.0777
    1SOL     OW 9601   0.849   2.787   2.406 -0.3065 -0.3330  0.5436
    1SOL    HW2 9602   0.941   2.764   2.417  0.3358  2.0732  0.3152
    1SOL    HW3 9603   0.802   2.705   2.424  1.8126 -1.4125  1.3326
    1SOL    MW4 9604   0.855   2.773   2.410  0.0578 -0.1581  0.6177
    1SOL     OW 9605   0.859   2.788   4.274 -0.0204  0.0397 -0.0366
    1SOL    HW2 9606   0.856   2.780   4.179 -0.6222 -0.3628  0.0096
    1SOL    HW3 9607   0.952   2.789   4.296  0.1087 -0.6195 -0.5668
    1SOL    MW4 9608   0.871   2.787   4.264 -0.0827 -0.1004 -0.1001
    1SOL     OW 9609   3.037   0.019   3.146  0.2613  0.6295  0.2394
    1SOL    HW2 9610   3.065  -0.070   3.124 -1.4890 -0.3420  1.8215
    1SOL    HW3 9611   3.052   0.026   3.241 -2.8837  0.7479  0.7935
    1SOL    MW4 9612   3.043   0.008   3.156 -0.3846  0.5174  0.5214
    1SOL     OW 9613   1.012   4.184   4.520 -0.0894 -0.3456  0.3230
    1SOL    HW2 9614   1.071   4.251   4.486 -1.6389  0.3348 -1.0700
    1SOL    HW3 9615   1.070   4.111   4.543  1.2231 -0.0115 -1.8288
    1SOL    MW4 9616   1.028   4.183   4.519 -0.1206 -0.2117 -0.1450
    1SOL     OW 9617   2.480   2.157   3.790  0.2662  0.4855  0.2053
    1SOL    HW2 9618   2.574   2.141   3.776  0.1327  0.8298 -1.1544
    1SOL    HW3 9619   2.472   2.253   3.793 -0.0119  0.4531  0.5914
    1SOL    MW4 9620   2.492   2.168   3.789  0.2117  0.5264  0.0770
    1SOL     OW 9621   1.877   4.601   2.981  0.1231  0.1750  0.4263
    1SOL    HW2 9622   1.811   4.645   3.033  1.8008  2.1467  0.9643
    1SOL    HW3 9623   1.893   4.661   2.908  0.3615 -0.9026 -0.4177
    1SOL    MW4 9624   1.870   4.615   2.978  0.3760  0.2933  0.3858
    1SOL     OW 9625   1.156   3.757   4.159 -0.2982 -0.4749  0.3082
    1SOL    HW2 9626   1.120   3.759   4.248 -2.7717  1.6172 -0.6625
    1SOL    HW3 9627   1.140   3.668   4.128 -3.5517  0.0438  0.3767
    1SOL    MW4 9628   1.149   3.746   4.167 -1.0537 -0.1307  0.1888
    1SOL     OW 9629   1.748   4.552   0.838 -0.7820 -0.0110  0.3153
    1SOL    HW2 9630   1.695   4.586   0.911 -0.4665  0.6885  0.2248
    1SOL    HW3 9631   1.730   4.613   0.766 -0.4511 -0.2239  0.0537
    1SOL    MW4 9632   1.738   4.565   0.839 -0.6967  0.0529  0.2688
    1SOL     OW 9633   0.230   4.532   2.432 -0.2155 -0.2614 -0.0146
    1SOL    HW2 9634   0.165   4.512   2.365 -0.2557 -0.3804  0.0605
    1SOL    HW3 9635   0.282   4.602   2.394 -1.1816  0.7140  0.4206
    1SOL    MW4 9636   0.228   4.539   2.418 -0.3482 -0.1483  0.0527
    1SOL     OW 9637   3.887   0.565   3.210 -0.5126 -0.4443 -0.1838
    1SOL    HW2 9638   3.794   0.543   3.197 -0.8769  0.1171  1.4194
    1SOL    HW3 9639   3.887   0.656   3.240  0.6143 -0.2059 -0.8648
    1SOL    MW4 9640   3.875   0.574   3.212 -0.4122 -0.3388 -0.0622
    1SOL     OW 9641   1.725   0.883   4.173  0.1186 -0.3315  0.3293
    1SOL    HW2 9642   1.745   0.827   4.248  0.8329 -0.2587  0.2054
    1SOL    HW3 9643   1.692   0.824   4.106  1.1581 -0.6605  0.0915
    1SOL    MW4 9644   1.724   0.868   4.174  0.3500 -0.3653  0.2813
    1SOL     OW 9645   0.867   0.900   2.130  0.2389  0.6442 -0.2803
    1SOL    HW2 9646   0.885   0.907   2.224 -0.3876 -0.5654 -0.0627
    1SOL    HW3 9647   0.917   0.972   2.091  1.5314  0.3834  0.8435
    1SOL    MW4 9648   0.876   0.910   2.137  0.3268  0.4502 -0.1032
    1SOL     OW 9649   0.604   0.854   4.093 -0.2469 -0.0411  0.2817
    1SOL    HW2 9650   0.549   0.922   4.133  0.0519 -0.0174  0.6583
    1SOL    HW3 9651   0.624   0.794   4.166  1.9415  1.0610  0.6311
    1SOL    MW4 9652   0.599   0.855   4.108  0.0814  0.1074  0.3772
    1SOL     OW 9653   4.005   1.203   3.297  0.0736  0.4641  0.0441
    1SOL    HW2 9654   4.031   1.116   3.266  0.6038  0.3770  0.7331
    1SOL    HW3 9655   4.010   1.197   3.392 -2.7622  0.3432  0.2542
    1SOL    MW4 9656   4.009   1.191   3.305 -0.2308  0.4367  0.1626
    1SOL     OW 9657   1.441   1.165   1.764 -0.3961  0.4483 -0.3435
    1SOL    HW2 9658   1.409   1.108   1.694 -0.5012 -0.8972  0.7941
    1SOL    HW3 9659   1.368   1.170   1.826 -0.2905  1.6123 -0.3100
    1SOL    MW4 9660   1.427   1.158   1.763 -0.3960  0.4244 -0.1889
    1SOL     OW 9661   1.404   2.920   3.756 -0.1253 -0.5082  0.3258
    1SOL    HW2 9662   1.404   3.012   3.782 -1.8194 -0.7654  1.2683
    1SOL    HW3 9663   1.333   2.913   3.692  0.1254 -1.1158  0.1128
    1SOL    MW4 9664   1.395   2.931   3.751 -0.3158 -0.6223  0.4220
    1SOL     OW 9665   1.663   4.650   2.367 -0.6765  0.4617 -0.3804
    1SOL    HW2 9666   1.575   4.624   2.340 -1.1401  2.9928 -1.4338
    1SOL    HW3 9667   1.661   4.746   2.366  1.7424  0.5622  0.7641
    1SOL    MW4 9668   1.651   4.660   2.363 -0.4185  0.8092 -0.3681
    1SOL     OW 9669   3.272   1.003   4.653 -0.5838 -0.6975  0.4778
    1SOL    HW2 9670   3.198   1.033   4.601 -0.3126 -0.6842  0.0977
    1SOL    HW3 9671   3.259   0.908   4.661 -1.4028 -0.4872  1.6197
    1SOL    MW4 9672   3.261   0.994   4.647 -0.6564 -0.6679  0.5784
    1SOL     OW 9673   1.948   1.227   4.316 -0.2898 -0.0572 -0.7298
    1SOL    HW2 9674   2.021   1.203   4.260 -0.4979 -1.1198 -0.5555
    1SOL    HW3 9675   1.905   1.299   4.270  0.2238 -0.1463 -1.3553
    1SOL    MW4 9676   1.952   1.233   4.303 -0.2495 -0.2092 -0.7896
    1SOL     OW 9677   2.134   0.258   3.481  0.1382  0.3447  0.6679
    1SOL    HW2 9678   2.162   0.346   3.455  1.0787  0.2289  1.2282
    1SOL    HW3 9679   2.058   0.239   3.427  0.4529  1.1634 -0.0721
    1SOL    MW4 9680   2.128   0.267   3.470  0.3037  0.4375  0.6442
    1SOL     OW 9681   0.262   2.826   2.159 -0.2470 -0.4003 -0.6455
    1SOL    HW2 9682   0.238   2.734   2.170 -2.8352  0.5363  2.4577
    1SOL    HW3 9683   0.337   2.838   2.217  0.3683 -0.6586 -1.3886
    1SOL    MW4 9684   0.268   2.815   2.168 -0.5073 -0.3107 -0.3340
    1SOL     OW 9685   0.364   3.135   0.826  0.2262  0.1587  0.1228
    1SOL    HW2 9686   0.380   3.198   0.755 -1.3109  0.9808  0.4775
    1SOL    HW3 9687   0.310   3.184   0.888 -0.8522 -1.4716  0.4848
    1SOL    MW4 9688   0.359   3.150   0.825 -0.1189  0.0520  0.2173
    1SOL     OW 9689   0.624   0.685   4.322 -0.0093 -0.2411 -0.2359
    1SOL    HW2 9690   0.660   0.600   4.296 -0.2119 -0.9977  1.9269
    1SOL    HW3 9691   0.541   0.664   4.363 -0.4464  1.0905 -0.4320
    1SOL    MW4 9692   0.618   0.671   4.324 -0.0937 -0.1653  0.0234
    1SOL     OW 9693   0.284   1.326   1.032  0.3193  0.0172 -0.3056
    1SOL    HW2 9694   0.331   1.319   0.950 -2.2098  0.0203 -1.8016
    1SOL    HW3 9695   0.213   1.387   1.014 -0.3660 -0.1031  1.8283
    1SOL    MW4 9696   0.280   1.333   1.019 -0.1048  0.0018 -0.2215
    1SOL     OW 9697   4.379   0.972   1.222 -0.1800 -0.5328  0.2870
    1SOL    HW2 9698   4.374   0.951   1.316 -0.2120 -1.6867  0.0376
    1SOL    HW3 9699   4.473   0.987   1.206  0.1570 -2.7784  0.0115
    1SOL    MW4 9700   4.391   0.971   1.233 -0.1397 -0.9813  0.2177
    1SOL     OW 9701   3.900   2.149   0.748 -0.2681  0.2353 -0.1485
    1SOL    HW2 9702   3.904   2.154   0.843 -1.2371 -0.1110 -0.0851
    1SOL    HW3 9703   3.934   2.234   0.718  2.5085 -0.6058  0.4145
    1SOL    MW4 9704   3.905   2.161   0.757 -0.0296  0.0787 -0.0659
    1SOL     OW 9705   1.626   2.415   3.940 -0.2620 -0.1541 -0.5139
    1SOL    HW2 9706   1.675   2.441   3.862 -0.1843  2.6806  0.4277
    1SOL    HW3 9707   1.683   2.353   3.985  1.3587  1.1497 -0.7495
    1SOL    MW4 9708   1.640   2.410   3.936 -0.0379  0.3920 -0.4206
    1SOL     OW 9709   0.315   1.525   4.385  0.0619  0.3737 -0.0281
    1SOL    HW2 9710   0.288   1.613   4.411  1.2948  0.5111  0.8201
    1SOL    HW3 9711   0.369   1.494   4.457  0.8480 -0.5095 -0.9797
    1SOL    MW4 9712   0.318   1.532   4.398  0.3283  0.2753 -0.0429
    1SOL     OW 9713   1.566   3.802   3.198  0.5109 -0.1531  0.3000
    1SOL    HW2 9714   1.507   3.809   3.273 -0.2380 -1.1472 -0.1968
    1SOL    HW3 9715   1.615   3.721   3.213 -0.6625 -1.1170 -1.0129
    1SOL    MW4 9716   1.565   3.792   3.210  0.2574 -0.4113  0.0613
    1SOL     OW 9717   0.069   2.511   4.601  0.2081 -0.2223  0.5295
    1SOL    HW2 9718  -0.012   2.464   4.577  0.2119 -0.0600  0.1903
    1SOL    HW3 9719   0.127   2.496   4.526  0.2487  0.2309  0.4718
    1SOL    MW4 9720   0.066   2.503   4.588  0.2139 -0.1409  0.4773
    1SOL     OW 9721   2.712   1.177   2.558 -0.1401  0.3303 -0.0046
    1SOL    HW2 9722   2.673   1.197   2.473  1.7995  0.6845 -0.8375
    1SOL    HW3 9723   2.806   1.188   2.545  0.1139  1.8689  2.5661
    1SOL    MW4 9724   2.720   1.181   2.545  0.1490  0.5801  0.2246
    1SOL     OW 9725   3.854   2.191   3.437 -0.6417  0.5446 -0.5673
    1SOL    HW2 9726   3.765   2.180   3.470 -0.8821 -1.8743 -1.9335
    1SOL    HW3 9727   3.845   2.191   3.342  0.9460 -0.9877 -0.7406
    1SOL    MW4 9728   3.841   2.190   3.429 -0.4637  0.0236 -0.7703
    1SOL     OW 9729   0.160   4.459   2.982 -0.0898  0.2542  0.4755
    1SOL    HW2 9730   0.210   4.386   2.947 -0.5138  0.3250 -0.2888
    1SOL    HW3 9731   0.155   4.522   2.910 -1.1336  0.3165  0.5857
    1SOL    MW4 9732   0.166   4.458   2.968 -0.2834  0.2713  0.3893
    1SOL     OW 9733   2.011   4.032   4.230  0.0112 -0.4562 -0.0877
    1SOL    HW2 9734   2.005   3.939   4.209  1.1958 -0.6354  0.3197
    1SOL    HW3 9735   1.984   4.077   4.150  3.0255 -1.1237 -1.5461
    1SOL    MW4 9736   2.007   4.026   4.217  0.5655 -0.5679 -0.2255
    1SOL     OW 9737   2.944   4.559   4.248 -0.0202 -0.0240  0.6514
    1SOL    HW2 9738   2.976   4.650   4.248  0.2530 -0.1194 -0.1226
    1SOL    HW3 9739   3.023   4.506   4.238 -0.3825 -0.2668 -1.0699
    1SOL    MW4 9740   2.958   4.564   4.247 -0.0319 -0.0691  0.3223
    1SOL     OW 9741   1.865   0.603   3.229 -0.5081  0.1466  0.0952
    1SOL    HW2 9742   1.792   0.547   3.254  0.0089  0.2694  1.9131
    1SOL    HW3 9743   1.833   0.652   3.154 -2.8258  1.3024  1.8064
    1SOL    MW4 9744   1.851   0.602   3.222 -0.7458  0.3153  0.5605
    1SOL     OW 9745   3.360   3.665   3.096  0.4582 -0.0741  0.1778
    1SOL    HW2 9746   3.425   3.606   3.058 -0.4232 -0.8323 -0.1689
    1SOL    HW3 9747   3.356   3.641   3.188  0.6386 -0.0550  0.1910
    1SOL    MW4 9748   3.369   3.654   3.103  0.3655 -0.1714  0.1338
    1SOL     OW 9749   1.113   0.534   2.589  0.4313 -0.6018  0.2897
    1SOL    HW2 9750   1.178   0.474   2.626 -0.3443 -1.7308 -0.1513
    1SOL    HW3 9751   1.037   0.479   2.571  0.1096  0.3055 -1.1988
    1SOL    MW4 9752   1.112   0.519   2.592  0.2865 -0.6312  0.0353
    1SOL     OW 9753   0.773   3.208   1.127 -0.7012 -0.1313  0.2428
    1SOL    HW2 9754   0.812   3.125   1.101 -0.1790  0.1497  0.1174
    1SOL    HW3 9755   0.687   3.185   1.161 -0.2822 -0.7952  0.8639
    1SOL    MW4 9756   0.767   3.194   1.128 -0.5770 -0.1819  0.3082
    1SOL     OW 9757   0.598   3.536   3.712 -0.3567 -0.2368 -0.1032
    1SOL    HW2 9758   0.579   3.601   3.644  0.4345 -1.4659 -1.5132
    1SOL    HW3 9759   0.543   3.461   3.691 -1.0441 -0.1618  1.3521
    1SOL    MW4 9760   0.588   3.535   3.700 -0.3431 -0.3891 -0.0970
    1SOL     OW 9761   1.734   3.297   0.944  0.5337 -0.2279  0.1118
    1SOL    HW2 9762   1.695   3.381   0.920  1.9234  0.0456 -1.1917
    1SOL    HW3 9763   1.732   3.245   0.864  2.4468 -0.3693  0.1378
    1SOL    MW4 9764   1.728   3.301   0.930  0.9694 -0.2100 -0.0568
    1SOL     OW 9765   2.545   4.039   1.960 -0.0668 -0.1420 -0.0985
    1SOL    HW2 9766   2.554   4.134   1.953  0.7064 -0.2143 -0.0530
    1SOL    HW3 9767   2.620   4.011   2.011 -0.3824 -0.7641  0.0279
    1SOL    MW4 9768   2.556   4.048   1.966 -0.0062 -0.2341 -0.0757
    1SOL     OW 9769   1.031   2.345   1.660 -0.3069  0.3190 -0.6680
    1SOL    HW2 9770   0.958   2.379   1.609 -0.3409  1.1041 -0.1029
    1SOL    HW3 9771   1.107   2.397   1.631  0.1744 -0.9732 -1.7706
    1SOL    MW4 9772   1.032   2.357   1.649 -0.2477  0.2522 -0.7390
    1SOL     OW 9773   4.304   3.483   3.784 -0.1467  0.0948  0.5419
    1SOL    HW2 9774   4.286   3.450   3.872 -0.0415 -0.2482  0.4378
    1SOL    HW3 9775   4.344   3.409   3.738 -0.9462  0.0068 -0.0409
    1SOL    MW4 9776   4.307   3.469   3.789 -0.2379  0.0377  0.4511
    1SOL     OW 9777   3.254   4.170   4.212  0.0322  0.0390  0.1665
    1SOL    HW2 9778   3.263   4.108   4.284  1.0681 -0.2380 -0.1882
    1SOL    HW3 9779   3.175   4.143   4.166 -0.9306  0.5387  1.5021
    1SOL    MW4 9780   3.245   4.158   4.216  0.0417  0.0687  0.2956
    1SOL     OW 9781   4.379   2.534   1.892 -0.0389 -0.4642  0.0666
    1SOL    HW2 9782   4.309   2.469   1.891 -2.0400  1.5796  0.8938
    1SOL    HW3 9783   4.339   2.610   1.935  2.2889  1.2186 -0.6811
    1SOL    MW4 9784   4.364   2.535   1.898  0.0048  0.0274  0.0771
    1SOL     OW 9785   4.083   2.021   1.350  0.2754  0.0253 -0.0617
    1SOL    HW2 9786   4.019   2.086   1.379  0.2961  0.2875 -0.6069
    1SOL    HW3 9787   4.106   2.046   1.261 -0.7542 -1.5135 -0.7895
    1SOL    MW4 9788   4.078   2.033   1.342  0.1421 -0.1431 -0.2297
    1SOL     OW 9789   3.522   1.089   2.931 -0.3247  0.4837  0.3843
    1SOL    HW2 9790   3.576   1.029   2.983 -0.5745  1.6825  2.0907
    1SOL    HW3 9791   3.575   1.107   2.853  0.9735  0.2320  1.1787
    1SOL    MW4 9792   3.536   1.084   2.928 -0.1862  0.6087  0.7143
    1SOL     OW 9793   0.604   3.795   3.479 -0.1871 -0.3629 -0.4903
    1SOL    HW2 9794   0.568   3.713   3.446  1.2522 -1.3771  0.3535
    1SOL    HW3 9795   0.546   3.819   3.551 -1.6861  0.3579 -1.9166
    1SOL    MW4 9796   0.592   3.787   3.484 -0.1949 -0.4015 -0.5672
    1SOL     OW 9797   2.561   0.524   3.546  0.2877 -0.0887  0.1082
    1SOL    HW2 9798   2.646   0.507   3.586 -0.3110 -2.6201  0.3337
    1SOL    HW3 9799   2.574   0.507   3.453  0.0813 -0.2575  0.1097
    1SOL    MW4 9800   2.574   0.520   3.539  0.1814 -0.4449  0.1383
    1SOL     OW 9801   2.975   4.175   0.652 -0.0105 -0.3380 -0.4324
    1SOL    HW2 9802   3.041   4.136   0.594 -0.0912 -1.8757  0.4659
    1SOL    HW3 9803   2.893   4.134   0.625 -0.0058 -1.3091  0.9276
    1SOL    MW4 9804   2.973   4.164   0.641 -0.0207 -0.6700 -0.1345
    1SOL     OW 9805   1.177   2.346   4.407  0.2817 -0.4351 -0.0869
    1SOL    HW2 9806   1.154   2.253   4.413 -0.1128 -0.3291  0.0673
    1SOL    HW3 9807   1.140   2.385   4.487  0.8465 -0.2307  0.0774
    1SOL    MW4 9808   1.169   2.339   4.418  0.3041 -0.3943 -0.0453
    1SOL     OW 9809   2.914   0.891   3.582 -0.0151  0.2150 -0.0814
    1SOL    HW2 9810   3.009   0.881   3.577  0.1738  2.0392 -0.5277
    1SOL    HW3 9811   2.897   0.977   3.543 -1.8004  0.1330  0.4697
    1SOL    MW4 9812   2.925   0.901   3.576 -0.2255  0.4448 -0.0675
    1SOL     OW 9813   3.833   0.916   4.151 -0.4282 -0.4225 -0.3324
    1SOL    HW2 9814   3.790   0.897   4.234 -1.0673 -0.4111 -0.6573
    1SOL    HW3 9815   3.923   0.885   4.163 -0.2928  0.3445  0.6425
    1SOL    MW4 9816   3.839   0.909   4.163 -0.4945 -0.3198 -0.2465
    1SOL     OW 9817   4.361   0.470   2.600  0.3504 -0.1138 -0.3708
    1SOL    HW2 9818   4.353   0.393   2.655 -0.8414 -1.2392 -2.0777
    1SOL    HW3 9819   4.286   0.525   2.625  0.6900  0.0837  0.2152
    1SOL    MW4 9820   4.350   0.467   2.611  0.2375 -0.2362 -0.5188
    1SOL     OW 9821   4.239   0.355   3.134 -0.2688  0.3250 -0.2532
    1SOL    HW2 9822   4.160   0.381   3.087 -0.6874 -0.2796  0.0988
    1SOL    HW3 9823   4.273   0.436   3.171 -0.8026  0.5770 -0.2996
    1SOL    MW4 9824   4.233   0.369   3.133 -0.3948  0.2785 -0.2129
    1SOL     OW 9825   0.717   0.703   1.737  0.1857 -0.1486  0.6300
    1SOL    HW2 9826   0.698   0.620   1.693 -0.5292 -0.8076  2.1417
    1SOL    HW3 9827   0.746   0.761   1.667  1.6588 -1.9600 -0.3250
    1SOL    MW4 9828   0.718   0.700   1.722  0.2857 -0.4746  0.7036
    1SOL     OW 9829   3.116   3.378   1.521 -0.0300  0.7893  0.1502
    1SOL    HW2 9830   3.102   3.455   1.466 -1.3276  1.3462  1.2310
    1SOL    HW3 9831   3.028   3.344   1.537  0.1748  1.5405  3.1289
    1SOL    MW4 9832   3.103   3.384   1.516 -0.1743  0.9620  0.6857
    1SOL     OW 9833   0.256   1.725   1.836 -0.0115  0.1622  0.7948
    1SOL    HW2 9834   0.238   1.736   1.929 -2.0019  0.9051  0.3344
    1SOL    HW3 9835   0.196   1.784   1.792  0.5378 -0.5676 -0.9996
    1SOL    MW4 9836   0.246   1.734   1.842 -0.2016  0.1639  0.4973
    1SOL     OW 9837   1.375   0.849   4.353 -0.0693 -0.2439  0.0534
    1SOL    HW2 9838   1.285   0.819   4.371  0.5142 -1.1713  1.5511
    1SOL    HW3 9839   1.429   0.795   4.410  1.2381  1.9875  0.9884
    1SOL    MW4 9840   1.370   0.838   4.363  0.1802 -0.0719  0.3743
    1SOL     OW 9841   2.279   1.533   4.405 -0.2914 -0.5184 -0.3602
    1SOL    HW2 9842   2.301   1.472   4.335  0.6416 -3.0298  2.0222
    1SOL    HW3 9843   2.191   1.506   4.434 -0.5166  0.2534 -0.3110
    1SOL    MW4 9844   2.270   1.521   4.400 -0.1979 -0.7479 -0.0396
    1SOL     OW 9845   2.307   3.291   3.190 -0.0097 -0.4202  0.4553
    1SOL    HW2 9846   2.303   3.221   3.255  1.0144 -0.8157  0.0965
    1SOL    HW3 9847   2.378   3.348   3.220 -1.0042  0.6143  0.8844
    1SOL    MW4 9848   2.316   3.289   3.203 -0.0057 -0.3359  0.4647
    1SOL     OW 9849   2.577   4.380   2.941  0.5193 -0.0321 -0.0611
    1SOL    HW2 9850   2.549   4.290   2.957  2.0679 -0.7525 -1.2901
    1SOL    HW3 9851   2.548   4.399   2.852  1.2515  0.2507 -0.2450
    1SOL    MW4 9852   2.570   4.370   2.932  0.8204 -0.0901 -0.2475
    1SOL     OW 9853   0.038   0.671   4.301 -0.4145  0.4476 -0.1306
    1SOL    HW2 9854   0.002   0.583   4.298 -0.1384  0.3145  0.3918
    1SOL    HW3 9855  -0.011   0.715   4.370  1.8018 -0.3661  2.0114
    1SOL    MW4 9856   0.027   0.665   4.310 -0.0855  0.3227  0.2213
    1SOL     OW 9857   1.474   3.241   0.533  0.1877 -0.3977 -0.0353
    1SOL    HW2 9858   1.487   3.302   0.460  0.5630 -1.1533 -0.5966
    1SOL    HW3 9859   1.406   3.283   0.586  1.0131  0.9108  0.0236
    1SOL    MW4 9860   1.467   3.255   0.530  0.3461 -0.3247 -0.1016
    1SOL     OW 9861   3.027   0.643   1.437  0.0500  0.8032  0.2866
    1SOL    HW2 9862   3.085   0.632   1.513  1.3444  0.6635 -0.7095
    1SOL    HW3 9863   3.086   0.660   1.364 -1.1835  0.7238 -0.7418
    1SOL    MW4 9864   3.042   0.644   1.438  0.0579  0.7743  0.0194
    1SOL     OW 9865   0.759   0.571   0.958 -0.0061  0.1524 -0.1427
    1SOL    HW2 9866   0.765   0.498   1.019  0.9437  1.6208  1.5925
    1SOL    HW3 9867   0.836   0.625   0.978 -0.6774  1.6165 -1.3786
    1SOL    MW4 9868   0.770   0.569   0.969  0.0306  0.5394 -0.0768
    1SOL     OW 9869   3.237   0.039   1.287 -0.3661 -0.2598  0.4531
    1SOL    HW2 9870   3.182   0.117   1.276  0.6535  0.5199  0.7538
    1SOL    HW3 9871   3.239  -0.001   1.201 -1.8833 -0.6188  0.5799
    1SOL    MW4 9872   3.230   0.044   1.275 -0.4320 -0.2043  0.5096
    1SOL     OW 9873   3.679   2.584   1.256 -0.2503  0.3370  0.4483
    1SOL    HW2 9874   3.686   2.613   1.166 -1.4432  0.5628  0.4167
    1SOL    HW3 9875   3.584   2.580   1.273 -0.0567 -0.4915  1.4227
    1SOL    MW4 9876   3.667   2.587   1.247 -0.3822  0.2575  0.5728
    1SOL     OW 9877   3.036   0.640   2.146 -0.0006 -0.4880  0.0238
    1SOL    HW2 9878   2.955   0.615   2.102  0.7112  2.0305 -2.8596
    1SOL    HW3 9879   3.104   0.628   2.080  1.0316  3.9013  0.1680
    1SOL    MW4 9880   3.034   0.635   2.132  0.2294  0.4234 -0.3374
    1SOL     OW 9881   0.917   1.425   1.865 -0.4614  0.1801  0.4425
    1SOL    HW2 9882   0.850   1.386   1.921 -0.7900 -1.2509 -0.9156
    1SOL    HW3 9883   0.880   1.419   1.777 -0.2856  3.0851  0.1203
    1SOL    MW4 9884   0.903   1.419   1.861 -0.4815  0.3746  0.2208
    1SOL     OW 9885   0.229   3.548   3.491 -0.2984 -0.0404 -0.9820
    1SOL    HW2 9886   0.252   3.484   3.558  0.1916 -1.1812 -2.2294
    1SOL    HW3 9887   0.144   3.582   3.520  0.3142  0.1544  0.6926
    1SOL    MW4 9888   0.221   3.544   3.504 -0.1529 -0.1655 -0.9258
    1SOL     OW 9889   0.994   2.768   0.361  0.0755 -0.1186 -0.1931
    1SOL    HW2 9890   1.051   2.748   0.287 -0.6693 -0.4400 -0.6851
    1SOL    HW3 9891   1.002   2.692   0.418 -0.3616 -0.4585 -0.5780
    1SOL    MW4 9892   1.003   2.755   0.359 -0.0803 -0.2060 -0.3088
    1SOL     OW 9893   3.254   1.687   4.571  0.3134 -0.2742 -0.0785
    1SOL    HW2 9894   3.207   1.611   4.537 -1.2451  0.3873  0.5225
    1SOL    HW3 9895   3.317   1.650   4.634 -2.1038 -0.9429  2.0516
    1SOL    MW4 9896   3.256   1.672   4.575 -0.2110 -0.2751  0.2818
    1SOL     OW 9897   3.471   1.067   1.206 -0.2892 -0.0201 -0.2043
    1SOL    HW2 9898   3.464   1.014   1.126 -0.1783 -0.6823  0.2189
    1SOL    HW3 9899   3.434   1.012   1.275 -0.8249  0.7416  0.1216
    1SOL    MW4 9900   3.466   1.053   1.204 -0.3450 -0.0069 -0.1055
    1SOL     OW 9901   1.552   3.223   1.748  0.1179  0.0528  0.3565
    1SOL    HW2 9902   1.491   3.151   1.731  1.8160 -1.2577 -0.4328
    1SOL    HW3 9903   1.570   3.217   1.842  0.5334 -0.8197  0.2335
    1SOL    MW4 9904   1.546   3.213   1.758  0.3967 -0.2351  0.2363
    1SOL     OW 9905   1.431   2.785   4.172 -0.4069 -0.4847  0.1350
    1SOL    HW2 9906   1.386   2.726   4.233  0.0042 -0.0739  0.8544
    1SOL    HW3 9907   1.508   2.735   4.143  0.7553  0.2010  1.8904
    1SOL    MW4 9908   1.436   2.770   4.176 -0.1993 -0.3405  0.4621
    1SOL     OW 9909   1.841   3.344   1.200  0.3149 -0.6102 -0.2557
    1SOL    HW2 9910   1.841   3.264   1.253  0.9886 -0.7040 -0.3937
    1SOL    HW3 9911   1.804   3.316   1.116 -0.5823 -0.5024  0.1061
    1SOL    MW4 9912   1.836   3.330   1.196  0.2854 -0.6082 -0.2263
    1SOL     OW 9913   2.891   0.708   3.359  0.0083 -0.2797  0.3204
    1SOL    HW2 9914   2.796   0.698   3.368  0.3355 -2.5193  1.7323
    1SOL    HW3 9915   2.913   0.776   3.423 -0.4140 -1.0806  1.3310
    1SOL    MW4 9916   2.881   0.716   3.369 -0.0041 -0.6808  0.6402
    1SOL     OW 9917   2.128   0.523   3.440  0.2892 -0.3552  0.0043
    1SOL    HW2 9918   2.077   0.528   3.359  0.7412 -1.3244 -0.3503
    1SOL    HW3 9919   2.071   0.562   3.506  0.0063  0.6526 -0.8161
    1SOL    MW4 9920   2.114   0.529   3.438  0.3114 -0.3501 -0.1507
    1SOL     OW 9921   0.407   4.175   2.625 -0.0363 -0.2884  0.1176
    1SOL    HW2 9922   0.419   4.199   2.533 -0.6734  1.6597  0.5114
    1SOL    HW3 9923   0.409   4.079   2.626  0.8249 -0.3033 -1.7967
    1SOL    MW4 9924   0.409   4.166   2.613 -0.0068 -0.0329 -0.0830
    1SOL     OW 9925   4.046   3.436   1.097  0.3766 -0.0796 -0.8001
    1SOL    HW2 9926   4.115   3.370   1.098  1.7683  1.3814  2.1036
    1SOL    HW3 9927   4.084   3.509   1.049 -0.5383 -0.6730 -2.4724
    1SOL    MW4 9928   4.060   3.437   1.090  0.4396  0.0343 -0.6377
    1SOL     OW 9929   2.416   1.158   0.894 -0.4371 -0.3238 -0.1160
    1SOL    HW2 9930   2.451   1.163   0.805 -0.6419 -0.1257 -0.1831
    1SOL    HW3 9931   2.485   1.195   0.949 -0.1930 -0.7044 -0.1607
    1SOL    MW4 9932   2.430   1.163   0.889 -0.4320 -0.3479 -0.1308
    1SOL     OW 9933   4.379   3.817   4.426 -0.2440 -0.0161  0.0575
    1SOL    HW2 9934   4.431   3.889   4.461  0.7749 -1.2268  1.0588
    1SOL    HW3 9935   4.295   3.857   4.404  0.1377  1.3754  1.0607
    1SOL    MW4 9936   4.374   3.832   4.428 -0.0587  0.0079  0.3223
    1SOL     OW 9937   1.808   4.117   0.834 -0.1811 -1.0036 -0.4825
    1SOL    HW2 9938   1.881   4.125   0.773 -0.0892  0.1312 -0.2248
    1SOL    HW3 9939   1.747   4.186   0.809 -0.0270 -0.3489  0.8576
    1SOL    MW4 9940   1.809   4.127   0.823 -0.1485 -0.7677 -0.2717
    1SOL     OW 9941   3.172   3.415   1.188 -0.0567  0.5291  0.4762
    1SOL    HW2 9942   3.218   3.348   1.137 -0.8387 -1.6228  2.4546
    1SOL    HW3 9943   3.080   3.390   1.183 -0.1165 -0.0555  3.2492
    1SOL    MW4 9944   3.166   3.403   1.181 -0.1678  0.1683  1.1029
    1SOL     OW 9945   0.634   2.693   3.913 -0.1014 -0.3192 -0.1464
    1SOL    HW2 9946   0.586   2.713   3.993  1.8868 -0.7746  1.2094
    1SOL    HW3 9947   0.654   2.599   3.920  0.7353 -0.2000 -0.7996
    1SOL    MW4 9948   0.631   2.683   3.924  0.2713 -0.3636 -0.0536
    1SOL     OW 9949   3.262   4.087   3.317 -0.4860  0.2897  0.3405
    1SOL    HW2 9950   3.266   4.182   3.329 -0.4342  0.2786  0.4152
    1SOL    HW3 9951   3.178   4.072   3.273 -0.7920  0.3157  0.9057
    1SOL    MW4 9952   3.251   4.098   3.313 -0.5193  0.2913  0.4251
    1SOL     OW 9953   3.928   2.859   2.760 -0.2382 -0.2397 -0.1749
    1SOL    HW2 9954   3.879   2.900   2.688  1.3219  1.5537 -0.2522
    1SOL    HW3 9955   3.901   2.909   2.837  0.4876 -0.0667 -0.0284
    1SOL    MW4 9956   3.918   2.871   2.760  0.0632  0.0198 -0.1662
    1SOL     OW 9957   2.842   3.363   0.447  0.3652 -0.1502  0.0577
    1SOL    HW2 9958   2.814   3.375   0.538 -1.5973 -0.2798 -0.5179
    1SOL    HW3 9959   2.799   3.282   0.419 -0.6011  0.9235 -1.6024
    1SOL    MW4 9960   2.833   3.354   0.456 -0.0212 -0.0257 -0.2373
    1SOL     OW 9961   1.782   2.138   1.012  0.5338 -0.0929  0.2360
    1SOL    HW2 9962   1.776   2.066   1.074 -3.6778  0.7832  1.0162
    1SOL    HW3 9963   1.793   2.096   0.927 -1.3246 -1.6667  0.7360
    1SOL    MW4 9964   1.783   2.123   1.009 -0.2670 -0.1850  0.4050
    1SOL     OW 9965   1.708   4.270   2.700 -0.4694  0.0903 -0.1335
    1SOL    HW2 9966   1.655   4.286   2.778 -1.0894 -1.0130 -0.3132
    1SOL    HW3 9967   1.736   4.357   2.671  0.2954  0.4699  1.6811
    1SOL    MW4 9968   1.705   4.283   2.707 -0.4503 -0.0048  0.0823
    1SOL     OW 9969   0.790   0.964   0.990 -0.2550  0.2112 -0.2341
    1SOL    HW2 9970   0.867   0.955   0.933 -0.2462 -2.6895  0.1644
    1SOL    HW3 9971   0.716   0.962   0.930 -0.1760 -1.3883 -0.3133
    1SOL    MW4 9972   0.790   0.962   0.974 -0.2433 -0.3825 -0.1920
    1SOL     OW 9973   2.754   1.682   1.297 -0.3685 -0.1562  0.4444
    1SOL    HW2 9974   2.676   1.649   1.252 -1.1910 -0.3657  1.9563
    1SOL    HW3 9975   2.729   1.769   1.326 -0.4668 -0.6533  1.9130
    1SOL    MW4 9976   2.740   1.689   1.295 -0.4900 -0.2494  0.8377
    1SOL     OW 9977   2.352   2.578   1.545  0.5656  0.2298  0.0918
    1SOL    HW2 9978   2.343   2.538   1.632  0.2918 -0.5150 -0.2664
    1SOL    HW3 9979   2.281   2.538   1.494 -0.0808  1.6226 -0.1227
    1SOL    MW4 9980   2.341   2.567   1.550  0.4442  0.3154  0.0163
    1SOL     OW 9981   0.263   2.289   4.633  0.4014 -0.2072 -0.4382
    1SOL    HW2 9982   0.211   2.219   4.594 -0.1099 -0.3723  0.4966
    1SOL    HW3 9983   0.198   2.351   4.665  0.8326  0.3420 -0.6203
    1SOL    MW4 9984   0.247   2.288   4.632  0.3908 -0.1562 -0.3390
    1SOL     OW 9985   1.369   2.651   3.060 -0.6302  0.3622 -0.6383
    1SOL    HW2 9986   1.451   2.654   3.011  0.1691  0.0789  0.6601
    1SOL    HW3 9987   1.359   2.739   3.096 -0.1501 -0.0055  0.4022
    1SOL    MW4 9988   1.379   2.663   3.058 -0.4613  0.2763 -0.3295
    1SOL     OW 9989   3.100   3.727   1.895  0.6415  0.5519 -0.0969
    1SOL    HW2 9990   3.136   3.706   1.982 -0.4117 -0.1928  0.1665
    1SOL    HW3 9991   3.091   3.642   1.852 -0.7149  0.7322 -0.1889
    1SOL    MW4 9992   3.104   3.713   1.901  0.3238  0.4776 -0.0740
    1SOL     OW 9993   1.618   1.443   1.869 -0.3628  0.5433  0.1687
    1SOL    HW2 9994   1.674   1.375   1.831  0.5238  1.0614  0.5271
    1SOL    HW3 9995   1.601   1.414   1.958 -0.7134  0.3662  0.0475
    1SOL    MW4 9996   1.623   1.430   1.876 -0.2921  0.5883  0.2000
    1SOL     OW 9997   2.712   1.774   4.539 -0.3293  0.1439  0.0013
    1SOL    HW2 9998   2.645   1.827   4.494  0.6941  2.0931  0.7008
    1SOL    HW3 9999   2.795   1.811   4.510  0.4880 -2.5970 -1.2410
    1SOL    MW410000   2.714   1.786   4.529 -0.0865  0.0393 -0.0701
    1SOL     OW10001   0.219   3.846   4.305 -0.0053 -0.0408 -0.1566
    1SOL    HW210002   0.168   3.810   4.233 -0.9149  0.5128  0.2094
    1SOL    HW310003   0.275   3.773   4.333  1.2017  0.0666 -2.1696
    1SOL    MW410004   0.220   3.831   4.299  0.0339  0.0463 -0.3743
    1SOL     OW10005   4.220   3.307   0.530 -0.7436  0.0202 -0.1786
    1SOL    HW210006   4.258   3.394   0.543 -1.7358  0.3987  0.2270
    1SOL    HW310007   4.126   3.321   0.540 -1.0403 -0.8081 -1.7334
    1SOL    MW410008   4.212   3.321   0.533 -0.9131 -0.0391 -0.3302
    1SOL     OW10009   2.837   4.602   2.818  0.1650 -0.2007  0.6062
    1SOL    HW210010   2.834   4.507   2.830 -0.5781 -0.3261 -0.4830
    1SOL    HW310011   2.830   4.614   2.723  2.3243  0.8695  0.5468
    1SOL    MW410012   2.836   4.591   2.807  0.3517 -0.0758  0.4547
    1SOL     OW10013   2.683   3.142   0.346  0.3916 -0.3375 -0.4000
    1SOL    HW210014   2.602   3.150   0.397  1.7201  0.8021  1.5944
    1SOL    HW310015   2.669   3.200   0.271 -0.8395 -0.5803 -0.3843
    1SOL    MW410016   2.670   3.150   0.343  0.4046 -0.2191 -0.1348
    1SOL     OW10017   1.215   1.465   3.234 -0.1696  0.3375  0.2876
    1SOL    HW210018   1.217   1.505   3.147  0.3421 -0.4999 -0.0809
    1SOL    HW310019   1.126   1.483   3.266  0.0197  1.7062  0.0986
    1SOL    MW410020   1.203   1.473   3.227 -0.0770  0.4077  0.2139
    1SOL     OW10021   1.272   3.206   2.877  0.1591  0.1446 -0.0055
    1SOL    HW210022   1.305   3.234   2.963 -0.3565 -1.2449  0.6549
    1SOL    HW310023   1.243   3.287   2.836  1.9596  1.0579  0.4484
    1SOL    MW410024   1.273   3.220   2.883  0.3285  0.0820  0.1414
    1SOL     OW10025   2.717   1.970   0.672  0.3209  0.3533 -0.1297
    1SOL    HW210026   2.756   2.025   0.603 -1.9708  0.6429 -1.2490
    1SOL    HW310027   2.766   1.992   0.751  0.3606  3.0241 -0.8482
    1SOL    MW410028   2.728   1.980   0.673  0.0238  0.7439 -0.3722
    1SOL     OW10029   1.258   3.116   2.280 -0.4504 -0.1628  0.1518
    1SOL    HW210030   1.302   3.195   2.249  2.2309 -1.6009  0.1687
    1SOL    HW310031   1.292   3.046   2.225  0.1132 -1.8864  2.5859
    1SOL    MW410032   1.269   3.117   2.269 -0.0224 -0.5801  0.4749
    1SOL     OW10033   2.839   1.936   3.105  0.1139 -0.2748  0.1832
    1SOL    HW210034   2.808   1.963   3.019  1.0054 -0.9388 -0.3451
    1SOL    HW310035   2.927   1.973   3.112 -0.5857  1.2571  1.5193
    1SOL    MW410036   2.847   1.945   3.095  0.1390 -0.1602  0.2897
    1SOL     OW10037   2.347   1.431   1.525 -0.5040  0.3342 -0.0780
    1SOL    HW210038   2.354   1.377   1.446 -1.4327 -0.2490  0.2331
    1SOL    HW310039   2.312   1.515   1.493 -1.0105  0.0531 -0.2713
    1SOL    MW410040   2.343   1.435   1.510 -0.6936  0.2202 -0.0625
    1SOL     OW10041   0.466   2.822   4.091  0.3678 -0.5699  0.6033
    1SOL    HW210042   0.399   2.776   4.142 -0.0166 -1.3042 -0.5535
    1SOL    HW310043   0.510   2.878   4.155 -0.9851 -0.4857  1.4823
    1SOL    MW410044   0.463   2.823   4.106  0.1386 -0.6554  0.5670
    1SOL     OW10045   2.327   2.773   4.512 -0.0331 -0.0095  0.2529
    1SOL    HW210046   2.408   2.733   4.480 -0.7348 -2.6487  1.6187
    1SOL    HW310047   2.354   2.858   4.546  1.8618 -0.1361 -0.8262
    1SOL    MW410048   2.341   2.779   4.512  0.1245 -0.3743  0.2909
    1SOL     OW10049   3.435   3.558   4.388 -0.5873 -0.0398 -0.1849
    1SOL    HW210050   3.529   3.571   4.401 -0.2263 -3.1287  0.6320
    1SOL    HW310051   3.428   3.517   4.303 -1.3148  1.0466 -0.6675
    1SOL    MW410052   3.446   3.555   4.379 -0.6356 -0.3040 -0.1407
    1SOL     OW10053   0.572   2.741   2.977  0.2727 -0.0097 -0.7486
    1SOL    HW210054   0.664   2.757   2.954  0.4181  2.0372  1.1179
    1SOL    HW310055   0.522   2.783   2.907  0.7475 -0.2875 -1.2585
    1SOL    MW410056   0.578   2.748   2.965  0.3545  0.2239 -0.5698
    1SOL     OW10057   3.993   4.363   3.533 -0.3247 -0.0141  0.1059
    1SOL    HW210058   3.983   4.291   3.595  2.5136 -0.2569  0.3604
    1SOL    HW310059   3.908   4.370   3.490 -1.7782 -1.0709  2.6767
    1SOL    MW410060   3.980   4.354   3.536 -0.1419 -0.1860  0.4787
    1SOL     OW10061   0.891   4.649   3.646  0.3126  0.4274  0.0604
    1SOL    HW210062   0.943   4.726   3.622 -0.7186  1.1317  0.0585
    1SOL    HW310063   0.930   4.618   3.727  1.3989  0.3256 -0.4965
    1SOL    MW410064   0.903   4.655   3.653  0.3198  0.5064 -0.0134
    1SOL     OW10065   4.204   0.190   1.292  0.3450 -0.3572  0.4795
    1SOL    HW210066   4.182   0.178   1.384 -0.9073 -1.3724  0.0621
    1SOL    HW310067   4.133   0.147   1.245  0.6013  0.7674 -0.9744
    1SOL    MW410068   4.192   0.183   1.298  0.2136 -0.3428  0.2326
    1SOL     OW10069   2.240   1.031   1.539 -0.2655  0.2350  0.1167
    1SOL    HW210070   2.218   1.109   1.591 -1.9846  0.1384 -0.4230
    1SOL    HW310071   2.335   1.024   1.545 -0.1691  1.9093  0.8505
    1SOL    MW410072   2.250   1.040   1.546 -0.4797  0.4431  0.1423
    1SOL     OW10073   1.218   1.819   3.789  0.8846  0.4973  0.3863
    1SOL    HW210074   1.289   1.872   3.754 -0.5433  1.3839 -1.2778
    1SOL    HW310075   1.241   1.729   3.766  1.6203  0.7468  0.1423
    1SOL    MW410076   1.230   1.814   3.782  0.7932  0.6472  0.1345
    1SOL     OW10077   1.873   0.552   2.916 -0.8983  0.5851  0.3688
    1SOL    HW210078   1.815   0.610   2.868 -1.2357  0.1661  0.2638
    1SOL    HW310079   1.946   0.536   2.855 -0.8680  0.7925  0.3502
    1SOL    MW410080   1.875   0.557   2.901 -0.9388  0.5572  0.3526
    1SOL     OW10081   3.443   1.529   4.695  0.0057  0.0461  0.3728
    1SOL    HW210082   3.539   1.528   4.699 -0.0516 -0.6498  2.8642
    1SOL    HW310083   3.418   1.437   4.707 -1.0032  0.4797  1.6554
    1SOL    MW410084   3.453   1.517   4.697 -0.1349  0.0114  0.8712
    1SOL     OW10085   2.492   4.406   4.256  0.4244  0.6499 -0.3580
    1SOL    HW210086   2.510   4.484   4.309 -0.9500 -0.5598  1.9764
    1SOL    HW310087   2.495   4.333   4.318 -0.5394 -0.9072 -2.0731
    1SOL    MW410088   2.495   4.407   4.271  0.1161  0.2847 -0.2766
    1SOL     OW10089   1.183   1.706   1.706  0.1786  0.0542 -0.3946
    1SOL    HW210090   1.241   1.765   1.657 -0.3286  1.0467  0.1860
    1SOL    HW310091   1.241   1.657   1.763  0.7452 -0.8916 -1.7567
    1SOL    MW410092   1.198   1.708   1.707  0.1863  0.0604 -0.4978
    1SOL     OW10093   0.554   0.972   2.895 -0.4516 -0.1963  0.3036
    1SOL    HW210094   0.572   1.053   2.942 -0.4697 -1.1756  2.0502
    1SOL    HW310095   0.458   0.963   2.897 -0.4931  0.0252 -0.4043
    1SOL    MW410096   0.543   0.981   2.901 -0.4595 -0.2962  0.4404
    1SOL     OW10097   1.732   2.049   3.856 -0.2078 -0.4191  0.0740
    1SOL    HW210098   1.778   1.965   3.851  0.7221  0.1536 -1.3228
    1SOL    HW310099   1.645   2.027   3.890  0.4873 -1.7566  1.0231
    1SOL    MW410100   1.727   2.035   3.860  0.0066 -0.5202  0.0148
    1SOL     OW10101   1.024   1.761   0.683  0.0926 -0.0051  0.3467
    1SOL    HW210102   1.052   1.703   0.612 -1.1641  2.4791 -2.2884
    1SOL    HW310103   1.071   1.843   0.666 -1.2878  1.0677  1.5696
    1SOL    MW410104   1.034   1.764   0.672 -0.2553  0.4642  0.1604
    1SOL     OW10105   3.849   2.580   4.245 -0.1042 -0.5036 -0.3420
    1SOL    HW210106   3.758   2.584   4.216 -0.0833 -2.0340 -0.6701
    1SOL    HW310107   3.847   2.522   4.322  0.4738  0.0641  0.1037
    1SOL    MW410108   3.837   2.573   4.252 -0.0250 -0.6306 -0.3266
    1SOL     OW10109   1.650   4.080   1.477 -0.4296 -0.6798  0.6118
    1SOL    HW210110   1.737   4.079   1.517  0.4289  0.8512 -1.1335
    1SOL    HW310111   1.661   4.029   1.397 -0.7894  0.6002 -0.2713
    1SOL    MW410112   1.663   4.073   1.472 -0.3637 -0.3090  0.2649
    1SOL     OW10113   2.776   0.800   1.089 -0.1364  0.6535 -0.1185
    1SOL    HW210114   2.718   0.762   1.155  1.6818 -3.0872 -0.5537
    1SOL    HW310115   2.729   0.790   1.006 -0.0511  0.2260 -0.1137
    1SOL    MW410116   2.762   0.794   1.087  0.1149  0.1035 -0.1754
    1SOL     OW10117   0.602   1.518   3.624  0.5287 -0.3183  0.1277
    1SOL    HW210118   0.653   1.592   3.657 -1.9485  1.2938  0.4032
    1SOL    HW310119   0.533   1.557   3.571 -0.9626 -2.4120  0.4533
    1SOL    MW410120   0.600   1.533   3.621  0.0052 -0.3817  0.2069
    1SOL     OW10121   1.798   0.359   3.658  0.2698 -0.0572 -0.3210
    1SOL    HW210122   1.807   0.273   3.700 -0.5003 -0.5517 -1.1685
    1SOL    HW310123   1.824   0.344   3.567  2.2868  1.0968  0.0477
    1SOL    MW410124   1.803   0.345   3.652  0.4344  0.0298 -0.3843
    1SOL     OW10125   2.238   1.260   3.249 -0.0267  0.4495 -0.2751
    1SOL    HW210126   2.291   1.189   3.214  0.2115  0.6928 -0.4007
    1SOL    HW310127   2.273   1.275   3.337 -0.7921 -0.3376  0.1791
    1SOL    MW410128   2.249   1.253   3.256 -0.0966  0.3778 -0.2317
    1SOL     OW10129   0.305   3.544   3.131  0.0246  0.0701 -0.2909
    1SOL    HW210130   0.303   3.466   3.186  1.7665 -0.1468 -0.4902
    1SOL    HW310131   0.266   3.613   3.185  2.7132  0.1284  1.6929
    1SOL    MW410132   0.300   3.543   3.145  0.6092  0.0489 -0.0553
    1SOL     OW10133   3.008   2.648   2.150  0.1350 -0.5123 -0.1710
    1SOL    HW210134   2.961   2.566   2.161  1.1249 -0.9340  0.9982
    1SOL    HW310135   2.969   2.708   2.214  0.0032 -0.3222 -0.4246
    1SOL    MW410136   2.997   2.645   2.160  0.2480 -0.5431 -0.0505
    1SOL     OW10137   2.147   0.659   2.880  0.3895 -0.2031 -0.1945
    1SOL    HW210138   2.163   0.739   2.830  2.3042 -0.2011  0.3747
    1SOL    HW310139   2.135   0.689   2.970  1.5250 -0.5754  0.0889
    1SOL    MW410140   2.147   0.674   2.886  0.7920 -0.2519 -0.0820
    1SOL     OW10141   0.223   3.559   0.727 -0.2689 -0.0321  0.7556
    1SOL    HW210142   0.221   3.637   0.671  0.7868 -0.0107  0.7393
    1SOL    HW310143   0.285   3.581   0.796  0.1280 -0.9020  0.6821
    1SOL    MW410144   0.231   3.572   0.729 -0.0773 -0.1440  0.7438
    1SOL     OW10145   0.933   0.164   1.432 -0.0560 -0.0502 -0.0944
    1SOL    HW210146   0.921   0.071   1.449  3.1229 -0.5059 -0.1625
    1SOL    HW310147   0.866   0.207   1.486  0.2300 -2.2239  2.0537
    1SOL    MW410148   0.923   0.157   1.442  0.4011 -0.3971  0.1801
    1SOL     OW10149   1.988   0.733   3.916  0.0430  0.6724  0.3356
    1SOL    HW210150   1.902   0.719   3.955 -1.1676  1.5300 -1.9692
    1SOL    HW310151   2.001   0.659   3.857  1.4714 -0.1364  1.6098
    1SOL    MW410152   1.979   0.722   3.914  0.0716  0.6788  0.1998
    1SOL     OW10153   1.656   0.571   4.239  0.3036 -0.1006 -0.1570
    1SOL    HW210154   1.588   0.612   4.186  0.2546 -0.6056 -0.4885
    1SOL    HW310155   1.656   0.479   4.212  0.9779 -0.1504 -0.0175
    1SOL    MW410156   1.647   0.564   4.228  0.3861 -0.1738 -0.1826
    1SOL     OW10157   2.939   4.239   2.338  0.4773 -0.1395 -0.3069
    1SOL    HW210158   3.010   4.185   2.373  1.4471  1.8535  0.8889
    1SOL    HW310159   2.883   4.257   2.413  0.3800  0.8601 -0.6209
    1SOL    MW410160   2.941   4.234   2.352  0.5925  0.2556 -0.1907
    1SOL     OW10161   3.306   2.172   1.315 -0.3248  0.1972 -0.3673
    1SOL    HW210162   3.366   2.102   1.290 -0.5219 -0.2077  0.2804
    1SOL    HW310163   3.220   2.140   1.287 -0.6296 -0.5362  1.3807
    1SOL    MW410164   3.303   2.159   1.308 -0.3908  0.0470 -0.0511
    1SOL     OW10165   0.817   3.898   2.856  0.1529  0.0796  0.2605
    1SOL    HW210166   0.799   3.989   2.880  2.0889  0.3397  0.8390
    1SOL    HW310167   0.762   3.846   2.915 -2.4151  0.8768 -1.3561
    1SOL    MW410168   0.808   3.904   2.867  0.0694  0.2191  0.1233
    1SOL     OW10169   3.406   3.327   2.457  0.0979 -0.9355 -0.3151
    1SOL    HW210170   3.360   3.288   2.383  0.8376 -1.0694 -0.7132
    1SOL    HW310171   3.460   3.256   2.492 -1.1803 -1.2261  1.1458
    1SOL    MW410172   3.407   3.312   2.452  0.0269 -0.9916 -0.1748
    1SOL     OW10173   4.355   3.762   4.152 -0.4764  0.7776 -0.0489
    1SOL    HW210174   4.376   3.773   4.245 -1.1354  0.4134  0.1474
    1SOL    HW310175   4.374   3.847   4.113 -1.7654  1.4350  0.7308
    1SOL    MW410176   4.360   3.775   4.159 -0.7329  0.8166  0.0801
    1SOL     OW10177   0.897   4.170   3.243  0.3115  0.0972  0.0478
    1SOL    HW210178   0.828   4.128   3.293  0.9152 -1.7501 -0.6357
    1SOL    HW310179   0.958   4.099   3.221  0.2622  0.9202 -2.9760
    1SOL    MW410180   0.896   4.155   3.247  0.3846 -0.0381 -0.4416
    1SOL     OW10181   1.249   0.157   1.714 -0.2234  0.1884  0.5697
    1SOL    HW210182   1.259   0.165   1.619  1.9592 -0.9290  0.6966
    1SOL    HW310183   1.205   0.073   1.727  1.8431 -0.8941  0.6680
    1SOL    MW410184   1.244   0.147   1.703  0.3374 -0.1018  0.5995
    1SOL     OW10185   4.408   1.741   0.565  0.0322 -0.0695 -0.4549
    1SOL    HW210186   4.498   1.772   0.578  0.3053 -1.2067  0.4331
    1SOL    HW310187   4.360   1.818   0.535  1.3510  0.4991 -1.1190
    1SOL    MW410188   4.414   1.755   0.563  0.2422 -0.1445 -0.4254
    1SOL     OW10189   0.780   0.701   2.622  0.2900  0.0547  0.0437
    1SOL    HW210190   0.849   0.703   2.688  0.6147 -1.3110 -0.2446
    1SOL    HW310191   0.806   0.768   2.559 -0.2222  1.6321  1.4730
    1SOL    MW410192   0.793   0.710   2.622  0.2652  0.0826  0.1943
    1SOL     OW10193   1.501   0.585   2.328 -0.1978 -0.3140 -0.0242
    1SOL    HW210194   1.563   0.568   2.257 -0.4154 -0.5623 -0.1559
    1SOL    HW310195   1.432   0.520   2.315 -0.1370 -0.4921  0.5338
    1SOL    MW410196   1.500   0.574   2.317 -0.2185 -0.3703  0.0322
    1SOL     OW10197   1.397   3.873   4.091 -0.0612 -0.4967 -0.0654
    1SOL    HW210198   1.315   3.826   4.109 -0.2965 -0.0448  0.0488
    1SOL    HW310199   1.466   3.812   4.118 -0.3759 -0.5392  0.6475
    1SOL    MW410200   1.395   3.859   4.097 -0.1336 -0.4427  0.0439
    1SOL     OW10201   1.720   2.837   2.351 -0.1292 -0.6069  0.4041
    1SOL    HW210202   1.642   2.822   2.405 -1.9678  2.3493 -1.3038
    1SOL    HW310203   1.713   2.771   2.282 -0.8026 -0.7744  0.6210
    1SOL    MW410204   1.709   2.826   2.349 -0.4607 -0.2391  0.2072
    1SOL     OW10205   3.639   1.067   4.044  0.5181 -0.3193  0.2360
    1SOL    HW210206   3.652   1.154   4.007  0.6057 -1.1319 -1.7122
    1SOL    HW310207   3.727   1.041   4.074  0.6090  0.0007  0.2504
    1SOL    MW410208   3.653   1.075   4.043  0.5419 -0.3844 -0.0191
    1SOL     OW10209   3.687   1.694   3.927 -0.2162  0.0769  0.0006
    1SOL    HW210210   3.662   1.629   3.862  0.1334 -0.0759  0.0156
    1SOL    HW310211   3.657   1.777   3.891  1.7262  0.2522 -1.2950
    1SOL    MW410212   3.680   1.696   3.914  0.0861  0.0799 -0.1683
    1SOL     OW10213   1.480   2.758   2.443  0.1356  0.0160 -0.0363
    1SOL    HW210214   1.489   2.664   2.459 -2.0357 -0.3527 -0.9045
    1SOL    HW310215   1.411   2.787   2.502  0.4800  1.0041 -0.0976
    1SOL    MW410216   1.472   2.750   2.453 -0.1055  0.0975 -0.1588
    1SOL     OW10217   0.426   4.263   1.723  0.1188  0.2839 -0.2261
    1SOL    HW210218   0.502   4.302   1.766  0.0421  2.0461 -1.6548
    1SOL    HW310219   0.372   4.337   1.697 -1.6820 -0.9153 -0.0032
    1SOL    MW410220   0.429   4.278   1.725 -0.1290  0.3586 -0.3852
    1SOL     OW10221   2.558   2.000   1.961  0.2147 -0.0371  0.2301
    1SOL    HW210222   2.546   1.906   1.946 -0.2123 -0.1508  1.2315
    1SOL    HW310223   2.471   2.037   1.954  0.1434  0.0418  1.4310
    1SOL    MW410224   2.545   1.993   1.958  0.1493 -0.0417  0.5206
    1SOL     OW10225   4.333   1.253   2.218 -0.1343  0.2105 -0.3085
    1SOL    HW210226   4.367   1.207   2.295  0.5392  0.8257 -0.2268
    1SOL    HW310227   4.275   1.190   2.176  0.3245 -0.5036  0.1174
    1SOL    MW410228   4.330   1.239   2.223  0.0157  0.1974 -0.2415
    1SOL     OW10229   4.142   3.292   3.470  0.3553  0.2627  0.0930
    1SOL    HW210230   4.222   3.342   3.454  0.5173 -0.1004 -0.2287
    1SOL    HW310231   4.073   3.344   3.428  0.9182 -1.1889 -2.7049
    1SOL    MW410232   4.143   3.306   3.462  0.4511  0.0234 -0.3185
    1SOL     OW10233   1.416   4.548   2.336  0.3279 -0.4678  0.0902
    1SOL    HW210234   1.392   4.573   2.247  1.9005  1.8664  0.2920
    1SOL    HW310235   1.462   4.464   2.325  0.5306 -0.1902 -1.2952
    1SOL    MW410236   1.419   4.540   2.322  0.5621 -0.1230 -0.0663
    1SOL     OW10237   4.308   3.149   4.017  0.3284  0.5009  0.3040
    1SOL    HW210238   4.250   3.099   3.960 -0.3617  3.1197 -1.3908
    1SOL    HW310239   4.395   3.140   3.977  0.5022 -0.6368  0.9207
    1SOL    MW410240   4.312   3.142   4.004  0.2604  0.6959  0.1621
    1SOL     OW10241   3.169   0.678   3.971  0.5121 -0.3476  0.4398
    1SOL    HW210242   3.210   0.755   3.931 -1.5059  1.3807  1.6631
    1SOL    HW310243   3.229   0.654   4.042 -0.0056  1.5075  1.5314
    1SOL    MW410244   3.182   0.685   3.975  0.1774  0.1251  0.7453
    1SOL     OW10245   3.880   4.520   4.512  0.1739  0.5090 -0.0901
    1SOL    HW210246   3.892   4.508   4.418 -1.0136  0.7985 -0.2746
    1SOL    HW310247   3.970   4.520   4.547  0.5547 -1.5222 -0.9743
    1SOL    MW410248   3.894   4.518   4.504  0.0675  0.2789 -0.2317
    1SOL     OW10249   2.600   1.673   0.692 -0.0678 -0.2369 -0.1877
    1SOL    HW210250   2.693   1.658   0.710  0.0583  1.1696  0.4265
    1SOL    HW310251   2.595   1.766   0.672 -1.2825 -0.4070 -0.6852
    1SOL    MW410252   2.612   1.683   0.692 -0.2115 -0.0738 -0.1723
    1SOL     OW10253   0.339   2.931   1.903 -0.6671  0.4909  0.2390
    1SOL    HW210254   0.324   2.890   1.988  0.6457 -0.2910  0.1028
    1SOL    HW310255   0.281   2.884   1.843 -0.9958  0.5061  0.5433
    1SOL    MW410256   0.330   2.920   1.906 -0.5373  0.3898  0.2613
    1SOL     OW10257   4.040   2.393   3.170  0.1405 -0.0882 -0.2631
    1SOL    HW210258   3.962   2.415   3.118 -0.0373 -0.7681 -0.2861
    1SOL    HW310259   4.079   2.319   3.124  1.4661  1.0089 -0.9266
    1SOL    MW410260   4.035   2.387   3.157  0.2913 -0.0331 -0.3533
    1SOL     OW10261   2.853   3.829   1.931 -0.2777  0.0130 -0.4195
    1SOL    HW210262   2.796   3.761   1.968 -2.2048  1.3516 -0.8553
    1SOL    HW310263   2.932   3.783   1.904 -0.8363 -1.7645  0.9083
    1SOL    MW410264   2.856   3.814   1.933 -0.6056 -0.0448 -0.3017
    1SOL     OW10265   2.281   2.931   4.228  0.0060 -0.0920 -0.0510
    1SOL    HW210266   2.268   2.856   4.286 -0.1924 -0.8519 -1.0434
    1SOL    HW310267   2.374   2.951   4.235  0.2022 -0.8954 -0.3185
    1SOL    MW410268   2.291   2.923   4.236  0.0057 -0.2983 -0.2170
    1SOL     OW10269   3.998   4.124   3.220 -0.6260 -0.5349  0.1675
    1SOL    HW210270   4.073   4.178   3.245  0.3904 -2.1345  0.6591
    1SOL    HW310271   3.953   4.106   3.303 -0.1742 -1.5658  0.1986
    1SOL    MW410272   4.002   4.128   3.235 -0.4325 -0.8821  0.2363
    1SOL     OW10273   2.592   2.878   3.284  0.2320  0.2614  0.3007
    1SOL    HW210274   2.600   2.831   3.367 -1.9620 -0.3286  0.1889
    1SOL    HW310275   2.582   2.810   3.218 -0.0513  0.8066 -0.2244
    1SOL    MW410276   2.592   2.863   3.286 -0.0949  0.2553  0.2170
    1SOL     OW10277   0.608   0.469   1.612 -0.3368 -0.6659 -0.1905
    1SOL    HW210278   0.676   0.402   1.617 -1.7260 -2.0826  0.0282
    1SOL    HW310279   0.580   0.468   1.520 -0.6819 -0.7008 -0.0835
    1SOL    MW410280   0.613   0.460   1.600 -0.5656 -0.8574 -0.1476
    1SOL     OW10281   2.592   1.456   2.161  0.2882  0.2013 -0.8006
    1SOL    HW210282   2.621   1.521   2.224 -0.8098 -0.4467  0.4189
    1SOL    HW310283   2.543   1.505   2.096 -0.1107  0.6661 -0.1553
    1SOL    MW410284   2.589   1.471   2.161  0.0906  0.1771 -0.5546
    1SOL     OW10285   3.257   2.949   4.450 -0.0096  0.2138  0.2416
    1SOL    HW210286   3.239   2.861   4.483 -0.0423  0.6185  1.3084
    1SOL    HW310287   3.171   2.990   4.443  0.0883  0.5012  0.7103
    1SOL    MW410288   3.244   2.943   4.453 -0.0012  0.3052  0.4444
    1SOL     OW10289   3.524   1.043   2.359 -0.5835 -0.4197  0.0123
    1SOL    HW210290   3.459   1.067   2.425 -2.1639  2.1462 -2.3566
    1SOL    HW310291   3.596   1.104   2.373 -0.8720  0.0527 -0.5363
    1SOL    MW410292   3.525   1.054   2.370 -0.8299 -0.0188 -0.3726
    1SOL     OW10293   3.076   0.585   3.736  0.2622 -0.0889 -0.6372
    1SOL    HW210294   3.102   0.602   3.827 -1.4497  1.6838 -0.4588
    1SOL    HW310295   2.997   0.532   3.743 -0.8899  1.5495 -1.0551
    1SOL    MW410296   3.069   0.580   3.749 -0.1156  0.3611 -0.6688
    1SOL     OW10297   3.633   0.031   2.692  0.2042 -0.3487 -0.4676
    1SOL    HW210298   3.577   0.003   2.765 -1.1742  0.0294 -1.3587
    1SOL    HW310299   3.682   0.106   2.727 -0.4888 -0.1291  0.0516
    1SOL    MW410300   3.632   0.037   2.707 -0.0694 -0.2698 -0.5167
    1SOL     OW10301   4.487   0.869   2.607  0.6471  0.0452  0.3942
    1SOL    HW210302   4.559   0.806   2.600 -1.4372 -2.4469  0.4312
    1SOL    HW310303   4.482   0.909   2.521  1.4782 -0.4785  0.0943
    1SOL    MW410304   4.496   0.866   2.595  0.4821 -0.3526  0.3598
    1SOL     OW10305   0.564   0.966   0.491  0.3320  0.2287  0.1844
    1SOL    HW210306   0.495   0.953   0.556  0.6961  1.7663  0.8802
    1SOL    HW310307   0.623   0.892   0.504  0.1684  0.2936  1.3030
    1SOL    MW410308   0.562   0.954   0.501  0.3584  0.4401  0.4238
    1SOL     OW10309   0.810   3.545   4.335 -0.6711 -0.0530 -0.1057
    1SOL    HW210310   0.718   3.527   4.312 -1.0711  1.1564  0.4843
    1SOL    HW310311   0.827   3.632   4.299  0.4654 -0.5725 -0.8131
    1SOL    MW410312   0.800   3.554   4.327 -0.5739  0.0381 -0.1211
    1SOL     OW10313   1.923   4.351   3.344 -0.2137 -0.9376 -0.8596
    1SOL    HW210314   1.902   4.306   3.426 -1.1626  0.8613 -0.0722
    1SOL    HW310315   2.016   4.337   3.332 -0.3074 -2.2960 -0.1373
    1SOL    MW410316   1.932   4.343   3.354 -0.3514 -0.8793 -0.6607
    1SOL     OW10317   2.826   3.430   0.726  0.0951  0.0710  0.3775
    1SOL    HW210318   2.748   3.440   0.780  0.4844 -0.0733  0.9739
    1SOL    HW310319   2.873   3.356   0.766 -0.9652 -1.8374 -1.7875
    1SOL    MW410320   2.822   3.422   0.739  0.0067 -0.1998  0.1706
    1SOL     OW10321   4.219   0.448   3.579 -0.2885  0.1354 -0.6077
    1SOL    HW210322   4.283   0.396   3.530 -0.3270  0.8124 -1.3855
    1SOL    HW310323   4.243   0.435   3.671  0.9863  0.4041 -0.8919
    1SOL    MW410324   4.231   0.440   3.585 -0.1259  0.2601 -0.7477
    1SOL     OW10325   3.772   0.247   2.790  0.5717 -0.3060 -0.3509
    1SOL    HW210326   3.838   0.297   2.742 -0.0713 -1.1494 -2.1678
    1SOL    HW310327   3.690   0.295   2.777  0.5193 -0.1520  0.5107
    1SOL    MW410328   3.770   0.260   2.782  0.4799 -0.3970 -0.4771
    1SOL     OW10329   0.389   0.954   3.277 -0.3645 -0.6606 -0.1751
    1SOL    HW210330   0.312   0.925   3.327 -0.8755  0.3059 -0.3926
    1SOL    HW310331   0.353   1.014   3.211  0.3834 -1.3842 -1.2589
    1SOL    MW410332   0.374   0.958   3.275 -0.3333 -0.6286 -0.3467
    1SOL     OW10333   2.676   1.635   2.342  0.1967  0.0186 -0.0975
    1SOL    HW210334   2.679   1.708   2.281  0.8991 -0.3554 -0.5115
    1SOL    HW310335   2.732   1.662   2.415 -0.4278  0.3532  0.2601
    1SOL    MW410336   2.684   1.648   2.344  0.2072  0.0136 -0.1049
    1SOL     OW10337   2.542   4.165   4.367  0.2234 -0.4193  0.2269
    1SOL    HW210338   2.460   4.139   4.410  0.6547 -1.2704  0.5473
    1SOL    HW310339   2.540   4.119   4.284 -1.3750  2.4899 -1.4211
    1SOL    MW410340   2.531   4.155   4.362  0.0691 -0.1473  0.0520
    1SOL     OW10341   2.966   4.185   1.289  0.0250  0.0764  0.8215
    1SOL    HW210342   3.032   4.231   1.237  1.0813 -2.5876 -0.2971
    1SOL    HW310343   3.011   4.164   1.371  0.7258 -2.0284 -0.0702
    1SOL    MW410344   2.981   4.188   1.293  0.2568 -0.5527  0.5562
    1SOL     OW10345   0.067   2.790   4.689 -0.1678  0.1446 -0.5686
    1SOL    HW210346  -0.008   2.821   4.639 -0.8595 -0.7450 -0.0946
    1SOL    HW310347   0.062   2.694   4.683 -1.0029 -0.0353  2.2467
    1SOL    MW410348   0.057   2.781   4.682 -0.3692  0.0033 -0.1349
    1SOL     OW10349   3.087   2.538   3.206 -0.7966 -0.0069  0.1593
    1SOL    HW210350   3.170   2.561   3.164 -0.4620 -2.3760 -0.5393
    1SOL    HW310351   3.112   2.506   3.293 -1.0185 -0.3374  0.1009
    1SOL    MW410352   3.101   2.537   3.212 -0.7818 -0.3631  0.0596
    1SOL     OW10353   2.958   3.959   2.490  0.0230  0.3544 -0.0205
    1SOL    HW210354   2.990   3.944   2.401  0.1041 -2.6542  0.4839
    1SOL    HW310355   2.866   3.982   2.479  0.0049 -0.1175 -0.8816
    1SOL    MW410356   2.950   3.960   2.477  0.0315 -0.1047 -0.0675
    1SOL     OW10357   2.106   0.923   2.792  0.1806  0.0926 -0.0965
    1SOL    HW210358   2.109   1.005   2.841  1.6402  0.4674 -0.8011
    1SOL    HW310359   2.171   0.933   2.723 -0.8000 -1.0150 -1.2099
    1SOL    MW410360   2.115   0.935   2.790  0.2439 -0.0041 -0.3364
    1SOL     OW10361   1.243   3.198   4.045  0.0058 -0.0729  0.1913
    1SOL    HW210362   1.179   3.133   4.018 -0.7862  0.5108  0.6403
    1SOL    HW310363   1.300   3.152   4.106 -0.2868 -0.4629  0.1742
    1SOL    MW410364   1.242   3.184   4.049 -0.1372 -0.0474  0.2484
    1SOL     OW10365   1.349   0.792   0.597 -0.3083 -0.2156  0.4272
    1SOL    HW210366   1.377   0.838   0.518 -0.2494 -0.4341  0.3202
    1SOL    HW310367   1.362   0.856   0.668  0.8173 -0.4376  0.4272
    1SOL    MW410368   1.355   0.807   0.596 -0.1520 -0.2738  0.4130
    1SOL     OW10369   0.677   1.172   0.653 -0.0256  0.0262  0.2245
    1SOL    HW210370   0.606   1.178   0.718 -1.5683  0.1079 -1.4288
    1SOL    HW310371   0.644   1.111   0.587  1.7056 -0.3970 -0.2873
    1SOL    MW410372   0.663   1.165   0.653 -0.0007 -0.0187 -0.0612
    1SOL     OW10373   0.549   4.051   1.375 -0.0149 -0.1379  0.0786
    1SOL    HW210374   0.521   3.989   1.442  0.0934 -1.0248 -0.6831
    1SOL    HW310375   0.546   4.136   1.418 -0.4250 -0.6402  1.0587
    1SOL    MW410376   0.545   4.054   1.389 -0.0547 -0.3214  0.1074
    1SOL     OW10377   1.117   3.042   0.478  0.0551 -0.2132  1.0162
    1SOL    HW210378   1.209   3.016   0.482  0.6907  1.4929 -1.6321
    1SOL    HW310379   1.069   2.961   0.459  1.1759 -0.8141  0.7264
    1SOL    MW410380   1.123   3.028   0.476  0.2868 -0.0672  0.6286
    1SOL     OW10381   3.210   0.716   4.620 -0.3892 -0.6046 -0.0116
    1SOL    HW210382   3.188   0.674   4.703 -1.1122  0.4644  0.3506
    1SOL    HW310383   3.125   0.739   4.581 -0.0635 -1.2406 -1.1255
    1SOL    MW410384   3.196   0.714   4.626 -0.4416 -0.5475 -0.1106
    1SOL     OW10385   0.726   4.561   1.493  0.3456  0.0031 -0.6349
    1SOL    HW210386   0.678   4.478   1.500 -0.2333  0.3051 -0.9882
    1SOL    HW310387   0.697   4.598   1.410  1.8531 -0.2190 -1.2709
    1SOL    MW410388   0.716   4.555   1.483  0.4682  0.0138 -0.7656
    1SOL     OW10389   2.119   1.305   3.648  0.1102  0.0062  0.2305
    1SOL    HW210390   2.201   1.303   3.600  0.4042 -2.3042  0.7529
    1SOL    HW310391   2.143   1.336   3.735  0.5942 -1.4553  0.6318
    1SOL    MW410392   2.133   1.309   3.653  0.2127 -0.4915  0.3521
    1SOL     OW10393   2.366   0.105   1.521  0.1940 -0.1102 -0.3924
    1SOL    HW210394   2.400   0.113   1.610  2.1356 -1.1681 -1.0054
    1SOL    HW310395   2.351   0.195   1.493  1.0283  0.3050  0.4639
    1SOL    MW410396   2.368   0.118   1.529  0.5603 -0.1950 -0.3604
    1SOL     OW10397   2.020   2.273   1.378  0.4086 -0.4910  0.0649
    1SOL    HW210398   2.023   2.333   1.453  0.7878 -0.4458  0.0116
    1SOL    HW310399   1.955   2.312   1.319  0.4565 -0.2768  0.1526
    1SOL    MW410400   2.012   2.286   1.380  0.4649 -0.4570  0.0694
    1SOL     OW10401   1.935   3.544   1.392 -0.5427 -0.4429 -0.3000
    1SOL    HW210402   1.898   3.476   1.336  0.3150  0.9512 -2.6861
    1SOL    HW310403   1.954   3.616   1.331  1.7259  0.6149  1.5822
    1SOL    MW410404   1.933   3.545   1.377 -0.1303 -0.1194 -0.3664
    1SOL     OW10405   1.439   4.432   4.008  0.3614 -0.5445  0.1219
    1SOL    HW210406   1.516   4.393   4.050  0.5558  0.4668  0.7324
    1SOL    HW310407   1.364   4.393   4.052  0.5162 -1.8872 -0.7943
    1SOL    MW410408   1.440   4.422   4.019  0.4075 -0.5879  0.0811
    1SOL     OW10409   2.654   3.272   2.612 -0.0508 -0.3412  0.1323
    1SOL    HW210410   2.676   3.222   2.691 -0.2470 -1.0801 -0.2710
    1SOL    HW310411   2.563   3.298   2.625 -0.2955 -1.0382 -0.1405
    1SOL    MW410412   2.645   3.269   2.624 -0.1092 -0.5307  0.0432
    1SOL     OW10413   2.446   2.434   3.794  0.2623 -0.5076  0.8807
    1SOL    HW210414   2.508   2.454   3.864  1.3089  0.3229 -0.2482
    1SOL    HW310415   2.365   2.478   3.819  1.1655  1.2851  0.6934
    1SOL    MW410416   2.444   2.442   3.806  0.5195 -0.1614  0.7069
    1SOL     OW10417   0.485   3.052   3.624  0.2101 -0.8467  0.1608
    1SOL    HW210418   0.459   3.104   3.700 -0.8154 -1.5067  0.2623
    1SOL    HW310419   0.528   3.115   3.566 -1.3785  0.2153  0.1036
    1SOL    MW410420   0.487   3.067   3.626 -0.1348 -0.7935  0.1667
    1SOL     OW10421   0.579   1.088   2.614  0.0588 -0.0515  0.3385
    1SOL    HW210422   0.550   1.052   2.698 -0.8443  0.0178  0.0605
    1SOL    HW310423   0.529   1.039   2.549 -0.3457  0.9166 -0.0926
    1SOL    MW410424   0.568   1.077   2.617 -0.1137  0.0854  0.2449
    1SOL     OW10425   2.653   4.041   3.385  0.0802  0.3294  0.3404
    1SOL    HW210426   2.589   4.109   3.407  1.5429  1.6560  0.5973
    1SOL    HW310427   2.737   4.087   3.385  0.7891 -0.8841 -2.3568
    1SOL    MW410428   2.655   4.056   3.388  0.3667  0.3443  0.0184
    1SOL     OW10429   2.936   1.941   4.472  0.3364 -0.5617 -0.0658
    1SOL    HW210430   2.989   1.915   4.396  0.9185 -1.2264  0.5526
    1SOL    HW310431   2.993   1.923   4.547 -0.3789 -0.2752  0.5456
    1SOL    MW410432   2.951   1.935   4.472  0.3188 -0.6117  0.0963
    1SOL     OW10433   2.399   4.180   0.820  0.2884 -0.3985  0.3320
    1SOL    HW210434   2.458   4.203   0.891  0.7961  0.0235 -0.2305
    1SOL    HW310435   2.331   4.128   0.863  0.1370  0.5464  1.2771
    1SOL    MW410436   2.398   4.176   0.835  0.3355 -0.2179  0.3825
    1SOL     OW10437   0.259   2.487   1.423  0.1666 -0.0739 -0.3613
    1SOL    HW210438   0.251   2.458   1.332  0.4056 -0.9768 -0.1005
    1SOL    HW310439   0.352   2.476   1.443 -0.5307 -3.8393  1.2684
    1SOL    MW410440   0.270   2.482   1.414  0.1061 -0.6900 -0.1119
    1SOL     OW10441   1.369   1.864   1.529  0.3712 -0.2211  0.8540
    1SOL    HW210442   1.434   1.927   1.559 -0.4402  1.1504 -0.1715
    1SOL    HW310443   1.419   1.793   1.491  1.2865  0.5042  0.6955
    1SOL    MW410444   1.384   1.863   1.528  0.3849  0.0556  0.6977
    1SOL     OW10445   3.501   2.207   3.531 -0.1036  0.7148  0.0349
    1SOL    HW210446   3.514   2.296   3.499 -0.2621  0.6478 -0.2150
    1SOL    HW310447   3.406   2.193   3.525  0.0561  0.0481 -1.2252
    1SOL    MW410448   3.490   2.217   3.526 -0.1035  0.6180 -0.1643
    1SOL     OW10449   3.402   4.424   0.928 -0.0543 -0.5823  0.1639
    1SOL    HW210450   3.426   4.424   1.021  1.0840  1.1981 -0.1053
    1SOL    HW310451   3.477   4.386   0.883  0.4377  0.8639 -0.2569
    1SOL    MW410452   3.415   4.419   0.934  0.1607 -0.1564  0.0728
    1SOL     OW10453   0.417   3.907   2.677  0.7491  0.8489 -0.4029
    1SOL    HW210454   0.325   3.895   2.651 -0.2580  4.1567  1.4782
    1SOL    HW310455   0.432   3.840   2.743 -0.1841  0.0818 -0.9470
    1SOL    MW410456   0.406   3.896   2.682  0.4931  1.1845 -0.2267
    1SOL     OW10457   3.022   0.986   2.848 -0.1827  0.2019  0.1579
    1SOL    HW210458   2.968   0.928   2.795 -1.0494  2.1047 -1.0709
    1SOL    HW310459   3.110   0.948   2.843 -0.4021 -0.0427 -2.0170
    1SOL    MW410460   3.027   0.973   2.841 -0.3259  0.4207 -0.2913
    1SOL     OW10461   4.162   3.524   2.368 -0.3276  0.0898 -0.3517
    1SOL    HW210462   4.092   3.519   2.433 -0.8257 -0.1049 -0.8914
    1SOL    HW310463   4.234   3.474   2.407 -1.1695 -1.3618 -0.6088
    1SOL    MW410464   4.163   3.516   2.382 -0.5050 -0.1271 -0.4568
    1SOL     OW10465   0.767   1.993   4.158  0.4143  0.6291  0.0667
    1SOL    HW210466   0.692   2.047   4.184  1.1227  1.6581  0.0251
    1SOL    HW310467   0.751   1.972   4.066 -0.3375 -0.0437  0.3420
    1SOL    MW410468   0.755   1.998   4.149  0.4086  0.6762  0.0978
    1SOL     OW10469   3.061   0.246   1.220  0.5822 -0.0461  0.2591
    1SOL    HW210470   3.073   0.322   1.163  0.5122 -1.5722 -1.8592
    1SOL    HW310471   3.003   0.188   1.170 -0.6328 -0.8208  2.5020
    1SOL    MW410472   3.055   0.248   1.206  0.4129 -0.3497  0.2754
    1SOL     OW10473   3.273   1.323   3.393 -0.7683 -0.3898  0.2599
    1SOL    HW210474   3.248   1.249   3.448 -0.8567 -0.5550  0.0008
    1SOL    HW310475   3.219   1.395   3.424  0.8131  0.1238  1.9091
    1SOL    MW410476   3.263   1.322   3.404 -0.5713 -0.3439  0.4435
    1SOL     OW10477   4.135   1.304   1.440 -0.4876  0.3157 -0.3427
    1SOL    HW210478   4.121   1.321   1.347  0.6215  1.9938 -0.2185
    1SOL    HW310479   4.228   1.286   1.448 -0.5734  0.1751  0.4448
    1SOL    MW410480   4.145   1.304   1.429 -0.3524  0.5184 -0.2224
    1SOL     OW10481   0.964   0.167   1.139 -0.2439 -0.0421 -0.6331
    1SOL    HW210482   1.021   0.237   1.108  1.8167 -1.3742  0.0274
    1SOL    HW310483   0.975   0.168   1.234 -0.4005 -1.0692 -0.5997
    1SOL    MW410484   0.973   0.177   1.147  0.0073 -0.3534 -0.5416
    1SOL     OW10485   1.242   1.054   2.992 -0.2131  0.5658 -0.1926
    1SOL    HW210486   1.201   1.108   3.060  1.5850  1.4380  0.2291
    1SOL    HW310487   1.299   0.994   3.040 -0.0545  0.1952 -0.8430
    1SOL    MW410488   1.244   1.054   3.007  0.0451  0.6318 -0.2224
    1SOL     OW10489   0.320   1.360   3.522 -0.1166  0.1649  0.4626
    1SOL    HW210490   0.247   1.311   3.484  0.5550  0.7700 -1.7047
    1SOL    HW310491   0.382   1.293   3.550 -0.6836 -0.3062  0.5969
    1SOL    MW410492   0.319   1.345   3.520 -0.1028  0.1825  0.1943
    1SOL     OW10493   3.848   3.576   1.297  0.5713  0.4650 -0.1398
    1SOL    HW210494   3.764   3.531   1.282  1.6912 -2.6809  2.4316
    1SOL    HW310495   3.908   3.534   1.235  1.2412 -0.4665  1.1202
    1SOL    MW410496   3.845   3.564   1.287  0.8075 -0.0730  0.3659
    1SOL     OW10497   0.004   4.387   3.446  0.4387 -0.0042  0.2155
    1SOL    HW210498   0.066   4.317   3.429  0.8430  0.4176 -0.0500
    1SOL    HW310499   0.041   4.464   3.402 -0.7992  0.0070 -0.8478
    1SOL    MW410500   0.017   4.388   3.438  0.3290  0.0529  0.0403
    1SOL     OW10501   1.332   4.064   4.265  0.2823 -0.1439  0.0060
    1SOL    HW210502   1.347   4.034   4.355 -0.4993 -0.3309  0.0816
    1SOL    HW310503   1.374   3.998   4.210 -0.0747 -0.5500  0.2154
    1SOL    MW410504   1.340   4.051   4.270  0.1321 -0.2227  0.0439
    1SOL     OW10505   1.044   3.770   4.414 -0.3936 -0.4586  0.0372
    1SOL    HW210506   1.081   3.847   4.457  2.1482 -0.3711 -2.1746
    1SOL    HW310507   0.953   3.794   4.395  0.6494  2.4229 -1.5328
    1SOL    MW410508   1.037   3.783   4.417  0.0793 -0.0672 -0.4616
    1SOL     OW10509   0.399   3.996   4.155 -0.1957 -0.1612 -0.0528
    1SOL    HW210510   0.346   4.057   4.104 -0.5941  0.1563  0.7253
    1SOL    HW310511   0.335   3.939   4.197  0.0914  0.0262  0.6485
    1SOL    MW410512   0.384   3.997   4.154 -0.2104 -0.0944  0.1421
    1SOL     OW10513   0.513   0.324   0.987 -0.0913 -0.2341  0.3937
    1SOL    HW210514   0.480   0.393   0.928  0.9447  0.7294  0.9163
    1SOL    HW310515   0.451   0.252   0.976 -0.3672  0.2217 -1.2864
    1SOL    MW410516   0.500   0.324   0.977  0.0091 -0.0468  0.2409
    1SOL     OW10517   3.684   0.013   4.218 -0.2253 -0.2290  0.5968
    1SOL    HW210518   3.749  -0.049   4.253 -0.6670 -0.1422  1.5924
    1SOL    HW310519   3.629   0.033   4.293 -2.1063 -1.1679 -0.5103
    1SOL    MW410520   3.686   0.007   4.233 -0.5319 -0.3413  0.5827
    1SOL     OW10521   3.591   1.143   3.525  0.1112  0.4070 -0.0549
    1SOL    HW210522   3.559   1.233   3.538 -1.0011 -0.1569  1.1988
    1SOL    HW310523   3.512   1.089   3.529  0.8230 -0.6820 -0.4300
    1SOL    MW410524   3.576   1.148   3.527  0.0584  0.1889  0.0610
    1SOL     OW10525   2.596   3.158   1.432 -0.2540  0.0155  0.0527
    1SOL    HW210526   2.567   3.249   1.439  1.5487  0.5710  0.7012
    1SOL    HW310527   2.594   3.140   1.338  2.1861  1.7244 -0.4001
    1SOL    MW410528   2.592   3.168   1.420  0.3057  0.3142  0.0786
    1SOL     OW10529   1.959   1.720   1.106 -0.3655  0.2714  0.0543
    1SOL    HW210530   1.922   1.802   1.139 -0.1402  0.3845  0.0303
    1SOL    HW310531   1.883   1.665   1.087 -0.5678  0.8357 -0.8505
    1SOL    MW410532   1.944   1.724   1.108 -0.3626  0.3607 -0.0683
    1SOL     OW10533   3.378   2.952   2.642 -0.0739  0.6018 -0.9202
    1SOL    HW210534   3.374   2.895   2.565 -1.6947 -1.1208  0.3892
    1SOL    HW310535   3.297   3.003   2.637 -0.4985  0.0110  0.0049
    1SOL    MW410536   3.366   2.951   2.631 -0.3438  0.2966 -0.6254
    1SOL     OW10537   0.722   0.858   3.822 -0.1140  0.1833 -0.4224
    1SOL    HW210538   0.694   0.819   3.905  0.4439 -0.6859 -0.6453
    1SOL    HW310539   0.660   0.824   3.757 -0.7730  1.1464 -0.3170
    1SOL    MW410540   0.710   0.848   3.825 -0.1273  0.1957 -0.4382
    1SOL     OW10541   2.604   0.033   1.404  0.1286  0.0369  0.0978
    1SOL    HW210542   2.593  -0.046   1.351 -0.1386 -0.4075  0.8031
    1SOL    HW310543   2.521   0.041   1.452  0.1029  0.8228 -0.0720
    1SOL    MW410544   2.591   0.024   1.404  0.0901  0.0820  0.1686
    1SOL     OW10545   0.107   1.070   2.767  0.1240 -0.0978  0.4378
    1SOL    HW210546   0.184   1.027   2.803 -0.3042  0.0058  1.4906
    1SOL    HW310547   0.063   1.001   2.716  2.1733  0.4820 -2.2028
    1SOL    MW410548   0.111   1.055   2.765  0.3379 -0.0076  0.2282
    1SOL     OW10549   2.923   3.895   4.133 -0.5404 -0.1169  0.4028
    1SOL    HW210550   2.934   3.908   4.227  1.7980 -0.4606  0.2118
    1SOL    HW310551   2.984   3.825   4.112  0.3946  1.2972 -1.7121
    1SOL    MW410552   2.932   3.887   4.143 -0.1082  0.0243  0.0987
    1SOL     OW10553   1.717   0.699   2.758  0.0326  0.1152 -0.3325
    1SOL    HW210554   1.632   0.736   2.782  0.8089  1.2568  0.6906
    1SOL    HW310555   1.695   0.617   2.714 -1.6251  0.7142 -0.6733
    1SOL    MW410556   1.703   0.693   2.755 -0.0836  0.3448 -0.2425
    1SOL     OW10557   3.231   4.417   2.775  0.3047  0.6252 -0.0122
    1SOL    HW210558   3.289   4.408   2.851 -0.3457  0.2646  0.4486
    1SOL    HW310559   3.287   4.396   2.700  1.3789  2.6015  0.1985
    1SOL    MW410560   3.246   4.413   2.775  0.3603  0.8388  0.0765
    1SOL     OW10561   1.914   1.756   4.597  0.3443 -0.3618 -0.2790
    1SOL    HW210562   1.955   1.669   4.601 -1.1989 -1.1644 -1.5003
    1SOL    HW310563   1.968   1.804   4.534 -0.5558 -1.4246 -1.9054
    1SOL    MW410564   1.927   1.750   4.589  0.0219 -0.6080 -0.6547
    1SOL     OW10565   2.569   1.512   1.160  0.0931  0.0523 -0.5053
    1SOL    HW210566   2.586   1.568   1.084  0.0703  0.5521 -0.1464
    1SOL    HW310567   2.475   1.497   1.158 -0.1873  1.4920  0.3851
    1SOL    MW410568   2.559   1.518   1.150  0.0532  0.3082 -0.3405
    1SOL     OW10569   0.720   1.827   4.490  0.1034  0.1658  0.5007
    1SOL    HW210570   0.647   1.889   4.493  0.7193  0.9228  0.0368
    1SOL    HW310571   0.797   1.880   4.506  0.6324 -0.5107  0.2140
    1SOL    MW410572   0.720   1.842   4.493  0.2544  0.1764  0.4015
    1SOL     OW10573   0.634   0.707   2.874 -0.1608  0.3427  0.0582
    1SOL    HW210574   0.663   0.710   2.783 -0.6527 -1.0625 -0.1665
    1SOL    HW310575   0.607   0.797   2.894  0.1779  0.7111 -1.0997
    1SOL    MW410576   0.634   0.719   2.865 -0.1810  0.2059 -0.1240
    1SOL     OW10577   3.820   0.474   1.472 -0.9689 -0.0494 -0.1218
    1SOL    HW210578   3.789   0.503   1.387  0.1099 -2.3351 -1.3586
    1SOL    HW310579   3.914   0.459   1.460 -1.2308 -2.7764  0.6953
    1SOL    MW410580   3.829   0.476   1.460 -0.8614 -0.7108 -0.1773
    1SOL     OW10581   1.420   2.928   0.757  0.1804  0.2179 -0.1524
    1SOL    HW210582   1.384   2.841   0.771 -1.7799  0.8463 -1.1094
    1SOL    HW310583   1.433   2.933   0.662  2.2732  0.2279  0.1071
    1SOL    MW410584   1.417   2.917   0.746  0.1980  0.3021 -0.2444
    1SOL     OW10585   1.711   1.010   2.460 -0.1476  0.1186 -0.3061
    1SOL    HW210586   1.759   0.971   2.534 -0.2000  0.2316 -0.2145
    1SOL    HW310587   1.757   0.976   2.383  1.0840  1.4903 -0.2050
    1SOL    MW410588   1.724   1.000   2.460  0.0079  0.3144 -0.2809
    1SOL     OW10589   3.185   4.086   2.945  0.2552  0.1194  0.2522
    1SOL    HW210590   3.253   4.031   2.904 -0.0253  0.7926 -1.1585
    1SOL    HW310591   3.108   4.072   2.891 -0.3073  0.5462  0.9390
    1SOL    MW410592   3.184   4.077   2.932  0.1440  0.2642  0.1566
    1SOL     OW10593   2.642   1.476   1.539 -0.2238 -0.1277  0.7340
    1SOL    HW210594   2.677   1.551   1.491 -0.2332  0.3239  1.4162
    1SOL    HW310595   2.547   1.486   1.533 -0.2255  0.0922  1.0854
    1SOL    MW410596   2.634   1.488   1.532 -0.2251 -0.0392  0.8703
    1SOL     OW10597   3.828   1.005   1.575  0.0804  0.4416 -0.0948
    1SOL    HW210598   3.881   1.060   1.634  1.2135 -2.5339  1.8007
    1SOL    HW310599   3.893   0.958   1.523 -0.8024 -0.5678 -0.2826
    1SOL    MW410600   3.844   1.006   1.576  0.1132 -0.0842  0.1304
    1SOL     OW10601   1.066   0.845   1.715  0.0424 -0.5114 -0.0479
    1SOL    HW210602   0.997   0.908   1.735  1.4684  0.5110  1.8846
    1SOL    HW310603   1.066   0.785   1.790  1.5402 -0.2198  0.2013
    1SOL    MW410604   1.057   0.845   1.727  0.4281 -0.3381  0.2398
    1SOL     OW10605   2.117   3.198   3.477  0.0579  0.4390  0.1841
    1SOL    HW210606   2.024   3.219   3.464  0.0584  1.1307  1.2063
    1SOL    HW310607   2.138   3.137   3.406 -0.8876  1.1534 -0.7368
    1SOL    MW410608   2.108   3.193   3.466 -0.0670  0.6244  0.1976
    1SOL     OW10609   3.792   2.136   4.461  0.2864  0.1921  0.5016
    1SOL    HW210610   3.866   2.116   4.404  0.0684  0.3046  0.1793
    1SOL    HW310611   3.776   2.056   4.510  0.1584 -0.0560  0.0525
    1SOL    MW410612   3.800   2.123   4.460  0.2410  0.1740  0.4001
    1SOL     OW10613   1.395   0.465   2.725 -0.0361  0.4078  0.3516
    1SOL    HW210614   1.487   0.464   2.699  0.4226  0.8685  1.8743
    1SOL    HW310615   1.376   0.557   2.745 -0.8888  0.3505 -0.1799
    1SOL    MW410616   1.405   0.477   2.724 -0.0881  0.4610  0.4823
    1SOL     OW10617   1.576   0.609   0.523 -0.5889  0.3036  0.3552
    1SOL    HW210618   1.496   0.660   0.530  0.5378  2.4825 -1.8384
    1SOL    HW310619   1.642   0.671   0.490  2.0354 -1.3814  2.2254
    1SOL    MW410620   1.574   0.624   0.519 -0.0939  0.3688  0.3126
    1SOL     OW10621   4.397   0.139   4.157  0.7179  0.2158 -0.0843
    1SOL    HW210622   4.375   0.131   4.065  0.4965  1.4143 -0.1402
    1SOL    HW310623   4.491   0.120   4.161  0.8185  0.5843 -0.6193
    1SOL    MW410624   4.406   0.135   4.146  0.7019  0.4226 -0.1621
    1SOL     OW10625   1.503   2.596   0.589 -0.1872  0.3240  0.2442
    1SOL    HW210626   1.542   2.509   0.590  0.9041  0.8070  2.5062
    1SOL    HW310627   1.410   2.581   0.608 -0.3113 -0.4703 -0.9806
    1SOL    MW410628   1.496   2.583   0.592 -0.0596  0.2828  0.3810
    1SOL     OW10629   0.233   2.899   0.784  0.0968  0.4013 -0.0583
    1SOL    HW210630   0.252   2.993   0.791  0.9547  0.3552 -1.5019
    1SOL    HW310631   0.293   2.868   0.716 -0.4583 -1.1209  0.1351
    1SOL    MW410632   0.244   2.907   0.776  0.1368  0.1945 -0.2233
    1SOL     OW10633   2.036   1.912   3.099  0.0997 -0.2624 -0.2371
    1SOL    HW210634   2.032   1.977   3.169  0.3726  0.9157 -1.3032
    1SOL    HW310635   2.127   1.914   3.070  0.2717 -1.6162  0.1712
    1SOL    MW410636   2.048   1.920   3.105  0.1583 -0.2857 -0.3240
    1SOL     OW10637   4.368   3.577   2.770  0.5588 -0.1095  0.1899
    1SOL    HW210638   4.443   3.556   2.826  0.0910  0.2441  0.9570
    1SOL    HW310639   4.307   3.505   2.784  1.1170 -0.8281 -1.0858
    1SOL    MW410640   4.370   3.565   2.780  0.5708 -0.1578  0.1228
    1SOL     OW10641   2.120   2.575   2.873  0.0145 -0.0092  0.2594
    1SOL    HW210642   2.173   2.569   2.793 -0.5788  1.7973 -0.3025
    1SOL    HW310643   2.038   2.614   2.844 -0.1871  0.7283  1.7754
    1SOL    MW410644   2.116   2.579   2.858 -0.0901  0.3264  0.3850
    1SOL     OW10645   1.681   3.088   3.411 -0.3213  0.3454 -0.0841
    1SOL    HW210646   1.609   3.131   3.366 -0.8094 -0.7853 -0.3903
    1SOL    HW310647   1.641   3.048   3.488  0.2677  1.0619  0.6162
    1SOL    MW410648   1.666   3.089   3.415 -0.3079  0.2909 -0.0322
    1SOL     OW10649   3.455   4.550   3.387 -0.0136  0.4134 -0.0767
    1SOL    HW210650   3.498   4.520   3.468  0.7033  0.4598 -0.4413
    1SOL    HW310651   3.525   4.552   3.322 -0.4546  1.0466 -0.5311
    1SOL    MW410652   3.470   4.546   3.389  0.0229  0.5031 -0.1848
    1SOL     OW10653   1.388   3.602   3.891  0.4123  0.1127  0.5872
    1SOL    HW210654   1.450   3.530   3.901  1.6846  1.3490  1.8785
    1SOL    HW310655   1.364   3.600   3.799  2.5861 -0.2517 -0.0108
    1SOL    MW410656   1.393   3.592   3.880  0.8670  0.2279  0.6788
    1SOL     OW10657   1.123   0.822   3.937  0.2260 -0.0589 -0.5140
    1SOL    HW210658   1.069   0.899   3.956  0.3930 -0.3375  1.1725
    1SOL    HW310659   1.207   0.859   3.910 -0.2583  0.3565 -1.4895
    1SOL    MW410660   1.127   0.837   3.936  0.1843 -0.0409 -0.4199
    1SOL     OW10661   1.948   3.364   2.537  0.5144 -0.0667  0.2469
    1SOL    HW210662   1.893   3.331   2.467  0.6780 -1.7920  0.9164
    1SOL    HW310663   1.910   3.449   2.559 -0.9194 -0.5362 -0.3684
    1SOL    MW410664   1.935   3.371   2.531  0.3468 -0.3562  0.2542
    1SOL     OW10665   0.773   1.695   2.704  0.4102  0.1420  0.1216
    1SOL    HW210666   0.795   1.679   2.612  0.0532  0.5606 -0.0424
    1SOL    HW310667   0.849   1.741   2.739  1.0272 -1.0408  0.3418
    1SOL    MW410668   0.786   1.699   2.696  0.4445  0.0411  0.1292
    1SOL     OW10669   0.556   3.623   3.108  0.1998  0.0348 -0.4228
    1SOL    HW210670   0.610   3.560   3.060 -0.3634 -0.6708 -0.1274
    1SOL    HW310671   0.468   3.588   3.104  0.3192 -0.6756  2.1644
    1SOL    MW410672   0.552   3.610   3.101  0.1411 -0.1523 -0.0422
    1SOL     OW10673   3.623   3.668   3.745 -0.0595 -0.3991  0.3322
    1SOL    HW210674   3.706   3.645   3.704  0.1963 -1.9490  1.6669
    1SOL    HW310675   3.568   3.698   3.673  0.4317 -2.9371 -1.1593
    1SOL    MW410676   3.626   3.669   3.730  0.0389 -0.9387  0.3116
    1SOL     OW10677   2.766   2.936   1.917 -0.5358 -0.3667  0.7800
    1SOL    HW210678   2.691   2.901   1.965 -1.2549 -1.1170 -0.8433
    1SOL    HW310679   2.789   2.867   1.855  0.4059  0.5497  0.0858
    1SOL    MW410680   2.759   2.922   1.915 -0.5064 -0.3448  0.4742
    1SOL     OW10681   2.465   4.191   0.493 -0.2352  0.0487 -0.2278
    1SOL    HW210682   2.546   4.141   0.483  0.8600  1.6605  0.2242
    1SOL    HW310683   2.453   4.197   0.588 -0.8418 -0.1334 -0.2947
    1SOL    MW410684   2.474   4.185   0.505 -0.1707  0.2375 -0.1770
    1SOL     OW10685   1.223   2.492   2.566  0.1595  0.2518  0.0043
    1SOL    HW210686   1.244   2.530   2.651  1.2761  1.4383 -0.7722
    1SOL    HW310687   1.149   2.433   2.583  0.3034  0.5541  1.7591
    1SOL    MW410688   1.216   2.489   2.579  0.3259  0.4482  0.1335
    1SOL     OW10689   0.952   0.787   3.644  0.2016 -0.5133 -0.2455
    1SOL    HW210690   0.881   0.818   3.700  0.7797  1.5629 -0.6168
    1SOL    HW310691   0.909   0.744   3.571 -0.6349 -0.3477  0.1506
    1SOL    MW410692   0.937   0.786   3.642  0.1675 -0.2176 -0.2422
    1SOL     OW10693   4.321   2.360   4.483  0.0728 -0.0276 -0.0348
    1SOL    HW210694   4.280   2.411   4.414 -0.2613 -1.6341 -1.0650
    1SOL    HW310695   4.266   2.282   4.492  1.5469 -1.0733  0.2360
    1SOL    MW410696   4.309   2.356   4.475  0.2232 -0.3774 -0.1349
    1SOL     OW10697   4.087   0.842   2.934  0.5402  0.1685 -0.0712
    1SOL    HW210698   4.068   0.868   3.024 -2.5189 -0.3395 -0.4880
    1SOL    HW310699   4.008   0.868   2.885  1.3612 -1.2718 -2.2292
    1SOL    MW410700   4.074   0.848   2.939  0.2451 -0.0885 -0.4106
    1SOL     OW10701   4.143   2.613   1.381 -0.0553  0.5662 -0.2318
    1SOL    HW210702   4.213   2.666   1.343  0.2951  0.2455 -0.0449
    1SOL    HW310703   4.150   2.629   1.476  1.6150 -1.6379  0.0808
    1SOL    MW410704   4.153   2.622   1.389  0.2112  0.2332 -0.1658
    1SOL     OW10705   3.443   4.132   1.918  0.5326 -0.2893 -0.1677
    1SOL    HW210706   3.353   4.098   1.919 -0.0311  1.2151  1.6354
    1SOL    HW310707   3.436   4.215   1.871  0.5405  0.9708  2.0175
    1SOL    MW410708   3.430   4.138   1.912  0.4592  0.0758  0.3586
    1SOL     OW10709   2.334   1.900   2.131 -0.1566 -0.1303 -0.2592
    1SOL    HW210710   2.310   1.989   2.105  1.2937  0.5738  0.7803
    1SOL    HW310711   2.253   1.850   2.120 -0.8690  1.2129 -1.2851
    1SOL    MW410712   2.320   1.905   2.126 -0.0591  0.1398 -0.2573
    1SOL     OW10713   4.242   4.245   4.357  0.0489  0.3646 -0.2306
    1SOL    HW210714   4.324   4.199   4.338  0.7631  1.2814  0.5687
    1SOL    HW310715   4.184   4.177   4.391 -0.2483 -0.7189 -2.8029
    1SOL    MW410716   4.245   4.230   4.359  0.1040  0.3424 -0.4649
    1SOL     OW10717   3.675   4.308   1.721 -0.1878  0.1758 -0.5685
    1SOL    HW210718   3.618   4.249   1.672 -1.2058  1.8000 -1.3848
    1SOL    HW310719   3.730   4.349   1.653 -0.0477  0.7594 -0.1054
    1SOL    MW410720   3.675   4.305   1.705 -0.3035  0.4678 -0.6151
    1SOL     OW10721   0.436   0.811   1.703  0.1367  0.0371 -0.1880
    1SOL    HW210722   0.451   0.905   1.716 -0.0219  0.2411 -1.4797
    1SOL    HW310723   0.521   0.771   1.720  0.5247  0.5407 -0.9154
    1SOL    MW410724   0.449   0.818   1.707  0.1670  0.1304 -0.4544
    1SOL     OW10725   2.487   1.978   1.148  0.0889 -0.4441  0.3870
    1SOL    HW210726   2.493   1.976   1.053  0.1675 -0.1908  0.3862
    1SOL    HW310727   2.445   1.895   1.171  0.1966 -0.5668  0.1418
    1SOL    MW410728   2.482   1.967   1.139  0.1135 -0.4269  0.3546
    1SOL     OW10729   4.392   1.622   2.038  0.8733 -0.0234 -0.1082
    1SOL    HW210730   4.456   1.636   2.107  1.0831  0.9055 -0.4785
    1SOL    HW310731   4.391   1.705   1.989 -0.3750 -0.1382 -0.2936
    1SOL    MW410732   4.401   1.635   2.040  0.7358  0.0840 -0.1817
    1SOL     OW10733   1.407   3.895   4.479 -0.4543  0.4980  0.2561
    1SOL    HW210734   1.382   3.803   4.477 -1.0333  0.6711 -0.6689
    1SOL    HW310735   1.502   3.895   4.484 -0.5295 -0.1606  1.8560
    1SOL    MW410736   1.416   3.883   4.479 -0.5405  0.4337  0.3448
    1SOL     OW10737   0.885   4.299   1.070  0.0780 -0.1264  0.2717
    1SOL    HW210738   0.839   4.227   1.113 -0.7755 -0.7242 -1.5963
    1SOL    HW310739   0.823   4.372   1.072  0.9981  0.6317  2.2957
    1SOL    MW410740   0.871   4.299   1.076  0.0867 -0.1049  0.2922
    1SOL     OW10741   1.868   3.268   4.516 -0.0999 -0.0303  0.4247
    1SOL    HW210742   1.848   3.243   4.426  0.5222  0.1301  0.2402
    1SOL    HW310743   1.783   3.295   4.552 -0.4230 -0.4853  0.0173
    1SOL    MW410744   1.854   3.269   4.509 -0.0604 -0.0689  0.3467
    1SOL     OW10745   0.559   1.838   1.188  0.7838 -0.2758 -0.3553
    1SOL    HW210746   0.578   1.806   1.100  1.6235  1.2237 -0.7399
    1SOL    HW310747   0.632   1.897   1.209 -0.7658  1.4942  0.2382
    1SOL    MW410748   0.571   1.842   1.179  0.6901  0.1557 -0.3278
    1SOL     OW10749   0.151   3.236   1.032  0.2735 -0.2760  0.6213
    1SOL    HW210750   0.204   3.307   1.068  0.5392 -0.5756  0.8164
    1SOL    HW310751   0.084   3.281   0.980  2.8346 -0.0122 -2.5607
    1SOL    MW410752   0.149   3.251   1.030  0.6465 -0.2806  0.2271
    1SOL     OW10753   3.868   4.050   1.743 -0.2047 -0.6899 -0.1227
    1SOL    HW210754   3.834   3.989   1.808 -1.7364  0.3229  0.0456
    1SOL    HW310755   3.820   4.131   1.758  3.5969  1.4078  1.2994
    1SOL    MW410756   3.857   4.052   1.753  0.0949 -0.2789  0.0871
    1SOL     OW10757   4.177   1.696   2.627  0.1647  0.1201 -0.3747
    1SOL    HW210758   4.167   1.603   2.648  0.9605  0.5883  2.2911
    1SOL    HW310759   4.143   1.704   2.538  0.1588 -2.7313 -0.6881
    1SOL    MW410760   4.171   1.684   2.618  0.2689 -0.1943 -0.0641
    1SOL     OW10761   2.456   0.852   2.433 -0.3914  0.5748 -0.2671
    1SOL    HW210762   2.397   0.897   2.373 -1.1836 -0.8877 -0.6072
    1SOL    HW310763   2.399   0.796   2.486  0.5672 -0.0636  0.1092
    1SOL    MW410764   2.441   0.850   2.432 -0.3693  0.2975 -0.2623
    1SOL     OW10765   0.793   4.293   4.667  0.4659 -0.3997  0.1285
    1SOL    HW210766   0.799   4.386   4.646  2.2857 -0.2998  0.9857
    1SOL    HW310767   0.871   4.255   4.628 -0.9606 -1.8148 -1.3838
    1SOL    MW410768   0.804   4.300   4.659  0.5178 -0.5732  0.0424
    1SOL     OW10769   2.298   2.949   1.963  0.1383  0.2061  0.4663
    1SOL    HW210770   2.383   2.915   1.992 -0.0829 -0.7088  0.0802
    1SOL    HW310771   2.234   2.894   2.007 -0.2641  1.0244  0.9091
    1SOL    MW410772   2.301   2.937   1.972  0.0560  0.1934  0.4737
    1SOL     OW10773   3.363   1.281   1.360 -0.4309 -0.0893  0.3587
    1SOL    HW210774   3.371   1.221   1.286  1.4007  0.8372 -0.2368
    1SOL    HW310775   3.410   1.238   1.431  0.7860  0.5356 -0.0368
    1SOL    MW410776   3.371   1.268   1.359 -0.0288  0.1154  0.2279
    1SOL     OW10777   2.064   2.983   1.540 -0.0914 -0.6475 -0.3993
    1SOL    HW210778   2.158   2.967   1.530  0.2175  0.6485  0.2756
    1SOL    HW310779   2.048   2.978   1.634 -1.3217 -3.9982 -0.7238
    1SOL    MW410780   2.074   2.980   1.551 -0.2131 -0.9186 -0.3531
    1SOL     OW10781   1.422   3.778   1.153  0.0683  0.2993 -0.2183
    1SOL    HW210782   1.425   3.795   1.059 -1.4676 -2.3336 -0.7886
    1SOL    HW310783   1.439   3.685   1.162 -2.0045  0.0659  1.9122
    1SOL    MW410784   1.424   3.768   1.142 -0.4079 -0.0789 -0.0125
    1SOL     OW10785   4.070   4.571   2.736 -0.0699 -0.4328 -0.0112
    1SOL    HW210786   3.992   4.589   2.683  0.2469  1.8918  0.2488
    1SOL    HW310787   4.141   4.563   2.673 -0.4815 -2.4996 -0.2446
    1SOL    MW410788   4.069   4.572   2.721 -0.0825 -0.3986 -0.0079
    1SOL     OW10789   1.799   3.317   2.308  0.0275 -0.0273  0.1989
    1SOL    HW210790   1.754   3.395   2.276  1.5360  1.2717  1.1586
    1SOL    HW310791   1.734   3.248   2.303 -1.1709  1.1638 -1.2170
    1SOL    MW410792   1.785   3.318   2.303  0.0684  0.3014  0.1385
    1SOL     OW10793   0.189   2.578   2.225  0.1095  0.1172  0.1157
    1SOL    HW210794   0.253   2.515   2.257 -0.4956  0.6694  2.5955
    1SOL    HW310795   0.122   2.526   2.181  0.5386 -0.7996  0.5485
    1SOL    MW410796   0.188   2.563   2.224  0.0863  0.0691  0.5000
    1SOL     OW10797   1.965   2.411   1.614 -0.2419 -0.2150  0.6547
    1SOL    HW210798   1.994   2.326   1.645  0.3309  0.0101  0.7428
    1SOL    HW310799   1.993   2.473   1.681 -0.8943  0.0139  0.7255
    1SOL    MW410800   1.972   2.408   1.627 -0.2525 -0.1552  0.6756
    1SOL     OW10801   1.078   3.192   1.043 -0.2295 -0.1807 -0.0209
    1SOL    HW210802   1.102   3.132   1.114  0.6520 -0.0796 -0.2371
    1SOL    HW310803   1.137   3.170   0.971  0.0878  0.9323 -0.1092
    1SOL    MW410804   1.089   3.181   1.043 -0.0714 -0.0205 -0.0610
    1SOL     OW10805   1.826   1.925   2.334 -0.2894 -0.4290  0.5875
    1SOL    HW210806   1.911   1.964   2.313 -1.1417  1.4461  0.4956
    1SOL    HW310807   1.825   1.844   2.284  1.6462 -0.7236  0.9746
    1SOL    MW410808   1.837   1.920   2.324 -0.1466 -0.2205  0.6263
    1SOL     OW10809   4.108   4.568   1.747 -0.0876 -0.3348 -0.1788
    1SOL    HW210810   4.179   4.578   1.684  0.0790 -0.5282 -0.0220
    1SOL    HW310811   4.129   4.631   1.816  0.2333 -0.7961  0.1440
    1SOL    MW410812   4.120   4.578   1.748 -0.0234 -0.4210 -0.1155
    1SOL     OW10813   1.429   2.345   3.565 -0.2052  0.2567  0.3148
    1SOL    HW210814   1.421   2.374   3.475  0.3105 -1.3793 -0.2737
    1SOL    HW310815   1.515   2.302   3.570 -0.3377  0.0931  1.4996
    1SOL    MW410816   1.439   2.343   3.554 -0.1547  0.0191  0.3936
    1SOL     OW10817   4.439   0.320   3.504  0.1609 -0.2992 -0.1363
    1SOL    HW210818   4.474   0.279   3.425  0.5379 -0.7934  0.2841
    1SOL    HW310819   4.471   0.265   3.575  0.1608  0.3767  0.3873
    1SOL    MW410820   4.448   0.308   3.503  0.2108 -0.2752 -0.0114
    1SOL     OW10821   3.008   3.051   2.859 -0.3649  0.0076 -0.2618
    1SOL    HW210822   3.005   2.977   2.919 -0.1394 -0.6524 -1.0539
    1SOL    HW310823   3.079   3.106   2.893  0.9413 -1.2406 -0.9047
    1SOL    MW410824   3.017   3.049   2.871 -0.1628 -0.2444 -0.4513
    1SOL     OW10825   4.198   3.788   2.363  0.5655 -0.3555 -0.0217
    1SOL    HW210826   4.158   3.821   2.443  0.9310 -1.0774  0.4706
    1SOL    HW310827   4.180   3.694   2.365  0.8440 -0.4234 -0.6323
    1SOL    MW410828   4.190   3.780   2.374  0.6504 -0.4597 -0.0372
    1SOL     OW10829   4.236   0.473   0.807  0.3477 -0.2726  0.1902
    1SOL    HW210830   4.160   0.479   0.864 -0.9707 -2.3437 -1.2863
    1SOL    HW310831   4.263   0.564   0.794 -2.0347  0.5231  0.5258
    1SOL    MW410832   4.230   0.486   0.813 -0.1402 -0.4409  0.0397
    1SOL     OW10833   2.021   3.392   4.120  0.1944 -0.2855 -0.2454
    1SOL    HW210834   2.010   3.425   4.209  0.2198 -1.7000  0.2796
    1SOL    HW310835   2.076   3.458   4.077  0.2635  0.3476  0.7919
    1SOL    MW410836   2.027   3.405   4.126  0.2069 -0.3886 -0.0396
    1SOL     OW10837   4.067   0.809   2.480 -0.2359 -0.2588 -0.2721
    1SOL    HW210838   4.146   0.787   2.430 -0.5861 -2.8873  0.2731
    1SOL    HW310839   3.995   0.776   2.427 -0.6818 -1.9532  1.3791
    1SOL    MW410840   4.068   0.802   2.466 -0.3405 -0.8291  0.0179
    1SOL     OW10841   1.897   1.343   1.555  0.5862  0.0505 -0.1895
    1SOL    HW210842   1.848   1.319   1.477  0.6839 -0.1826 -0.1808
    1SOL    HW310843   1.841   1.318   1.629  0.4475  0.3705 -0.1852
    1SOL    MW410844   1.883   1.337   1.555  0.5808  0.0620 -0.1878
    1SOL     OW10845   3.203   4.269   1.148 -0.3656 -0.0678 -0.0555
    1SOL    HW210846   3.160   4.270   1.063 -1.9293 -0.1074  0.7085
    1SOL    HW310847   3.235   4.179   1.158 -1.0019 -0.3130 -0.2046
    1SOL    MW410848   3.201   4.257   1.138 -0.6561 -0.1054  0.0256
    1SOL     OW10849   3.321   1.341   3.829  0.7450 -0.1875  0.3346
    1SOL    HW210850   3.253   1.379   3.884  0.2383  1.6277 -1.4553
    1SOL    HW310851   3.290   1.252   3.810  0.4271 -0.4561  2.0869
    1SOL    MW410852   3.308   1.334   3.834  0.6363  0.0165  0.3295
    1SOL     OW10853   1.431   0.728   2.823 -0.7202  0.4389  0.6420
    1SOL    HW210854   1.400   0.769   2.903 -1.0620  1.4191  0.0200
    1SOL    HW310855   1.382   0.772   2.753 -0.4759 -0.4477 -0.0904
    1SOL    MW410856   1.421   0.740   2.824 -0.7330  0.4513  0.4635
    1SOL     OW10857   2.700   3.489   2.771  0.1527  0.1655  0.2918
    1SOL    HW210858   2.695   3.425   2.701  0.5880  0.3954  0.0487
    1SOL    HW310859   2.778   3.465   2.821 -0.0875  0.0757  0.6248
    1SOL    MW410860   2.709   3.478   2.768  0.1783  0.1841  0.3035
    1SOL     OW10861   3.311   2.529   0.519 -0.0096 -0.4262  0.8518
    1SOL    HW210862   3.397   2.566   0.505  0.3382 -0.4110  2.8336
    1SOL    HW310863   3.321   2.436   0.499  0.5229 -0.4615  1.2734
    1SOL    MW410864   3.323   2.521   0.515  0.1068 -0.4287  1.1689
    1SOL     OW10865   1.959   4.366   2.109 -0.0474  0.0852 -0.0022
    1SOL    HW210866   1.949   4.449   2.155 -1.8385 -0.2031  0.1627
    1SOL    HW310867   1.890   4.310   2.145 -0.0330 -0.8662 -1.4184
    1SOL    MW410868   1.948   4.370   2.119 -0.2819 -0.0782 -0.1674
    1SOL     OW10869   2.000   3.661   3.516 -0.0520  0.2307  0.3308
    1SOL    HW210870   1.958   3.725   3.459 -0.4516 -1.0185 -0.8008
    1SOL    HW310871   2.078   3.633   3.468 -1.4079 -2.2701 -0.5563
    1SOL    MW410872   2.005   3.665   3.502 -0.2837 -0.2642  0.0644
    1SOL     OW10873   0.497   4.284   0.760  0.3128 -0.0209 -0.1486
    1SOL    HW210874   0.425   4.243   0.712 -1.3235  0.9613  1.4168
    1SOL    HW310875   0.516   4.224   0.831  0.1289  0.3453  0.2140
    1SOL    MW410876   0.490   4.271   0.763  0.0727  0.1574  0.1059
    1SOL     OW10877   3.348   1.663   4.011  0.3280 -0.2324 -0.0754
    1SOL    HW210878   3.354   1.759   4.014  0.9508 -0.2853  0.5177
    1SOL    HW310879   3.393   1.634   4.090  1.5245 -1.0758 -1.0463
    1SOL    MW410880   3.354   1.672   4.022  0.5679 -0.3507 -0.1259
    1SOL     OW10881   2.749   2.257   0.871  0.2037 -0.2656 -0.0876
    1SOL    HW210882   2.682   2.269   0.937  2.5642  0.4635  2.2633
    1SOL    HW310883   2.778   2.166   0.882 -1.9766 -1.3720 -2.7249
    1SOL    MW410884   2.744   2.246   0.881  0.2277 -0.3154 -0.1254
    1SOL     OW10885   2.799   1.883   3.581 -0.2451  0.0416 -1.3319
    1SOL    HW210886   2.884   1.848   3.609 -0.1292  1.4314  0.1222
    1SOL    HW310887   2.744   1.806   3.569  0.4386 -0.7528  0.3971
    1SOL    MW410888   2.803   1.868   3.583 -0.1395  0.1202 -0.9117
    1SOL     OW10889   1.849   1.626   1.837 -0.2795 -0.3454  0.5302
    1SOL    HW210890   1.842   1.645   1.744 -0.2970  1.4525  0.8865
    1SOL    HW310891   1.774   1.569   1.855 -2.3808  2.2024  0.1404
    1SOL    MW410892   1.838   1.621   1.827 -0.5591  0.2279  0.5257
    1SOL     OW10893   2.770   4.625   2.551  0.5205  0.5049  0.1347
    1SOL    HW210894   2.767   4.587   2.463 -0.2281 -0.0433  0.3979
    1SOL    HW310895   2.682   4.613   2.586  0.4325  1.9673  0.4416
    1SOL    MW410896   2.758   4.619   2.544  0.4103  0.6256  0.2100
    1SOL     OW10897   0.469   2.802   0.669  0.0363  0.0227  0.1078
    1SOL    HW210898   0.540   2.797   0.605  0.7866 -1.1887  0.9993
    1SOL    HW310899   0.509   2.841   0.746 -1.1498  2.5458 -0.5011
    1SOL    MW410900   0.484   2.806   0.671 -0.0212  0.1957  0.1451
    1SOL     OW10901   3.354   1.788   0.557  0.0120  0.3134  0.8301
    1SOL    HW210902   3.408   1.859   0.593  1.8984 -0.8190  0.2875
    1SOL    HW310903   3.310   1.751   0.634  2.2665 -0.6227  1.7148
    1SOL    MW410904   3.355   1.793   0.572  0.5584  0.0405  0.8752
    1SOL     OW10905   0.192   4.122   2.364 -0.3058 -0.0504 -0.0931
    1SOL    HW210906   0.112   4.085   2.327 -0.7373  1.2894 -0.5150
    1SOL    HW310907   0.162   4.178   2.435  0.4068 -1.2245  1.1661
    1SOL    MW410908   0.178   4.124   2.369 -0.2687 -0.0281  0.0169
    1SOL     OW10909   2.101   3.869   1.793 -0.1568  0.4442 -0.0662
    1SOL    HW210910   2.124   3.959   1.772 -1.8827  0.6808 -1.0097
    1SOL    HW310911   2.008   3.862   1.772 -0.0538 -1.5455  0.0231
    1SOL    MW410912   2.092   3.880   1.788 -0.3710  0.2129 -0.1788
    1SOL     OW10913   2.535   2.550   1.919  0.0285  0.1165  0.1114
    1SOL    HW210914   2.573   2.468   1.886  1.4270  0.3894  1.0078
    1SOL    HW310915   2.581   2.618   1.870  0.7951  0.4524  1.2867
    1SOL    MW410916   2.546   2.548   1.908  0.3140  0.1967  0.3847
    1SOL     OW10917   1.405   2.772   4.837  0.6845 -0.3506 -0.4888
    1SOL    HW210918   1.339   2.822   4.789  0.1257 -2.7681 -2.3495
    1SOL    HW310919   1.489   2.808   4.806  0.2910  0.2725 -0.8425
    1SOL    MW410920   1.408   2.784   4.827  0.5589 -0.5875 -0.7811
    1SOL     OW10921   2.909   0.295   3.121  0.0925  0.5513  0.0205
    1SOL    HW210922   2.936   0.204   3.119 -0.8594  0.2306  1.1188
    1SOL    HW310923   2.952   0.332   3.199 -1.3733  0.4200  0.9132
    1SOL    MW410924   2.918   0.288   3.131 -0.2265  0.4916  0.2832
    1SOL     OW10925   1.387   0.758   1.995  0.0246 -0.1407 -0.0039
    1SOL    HW210926   1.303   0.726   2.027 -0.3786  0.0509 -0.8816
    1SOL    HW310927   1.376   0.767   1.901  1.1488 -0.4678 -0.1755
    1SOL    MW410928   1.375   0.755   1.987  0.1197 -0.1586 -0.1422
    1SOL     OW10929   0.563   3.335   2.016  0.8345 -0.4637  0.2718
    1SOL    HW210930   0.627   3.396   2.052  1.9033 -2.2735  1.5202
    1SOL    HW310931   0.601   3.249   2.031 -1.0046 -1.4806 -0.7539
    1SOL    MW410932   0.576   3.332   2.023  0.7328 -0.8366  0.3014
    1SOL     OW10933   0.493   3.755   4.607  0.2548  0.5745 -0.4876
    1SOL    HW210934   0.444   3.736   4.527 -0.2657  0.4299 -0.1353
    1SOL    HW310935   0.465   3.842   4.633 -0.1063  0.3371 -0.0729
    1SOL    MW410936   0.483   3.764   4.600  0.1386  0.5240 -0.3867
    1SOL     OW10937   2.112   2.589   2.274  0.0048 -0.3923  0.0442
    1SOL    HW210938   2.103   2.660   2.212  0.2082  0.2888  0.7815
    1SOL    HW310939   2.045   2.607   2.341 -1.0715 -1.8074 -0.6276
    1SOL    MW410940   2.102   2.601   2.275 -0.1104 -0.4890  0.0527
    1SOL     OW10941   1.768   2.615   3.460  0.3817 -0.1501 -0.0430
    1SOL    HW210942   1.852   2.660   3.452  0.6319 -0.7530 -0.9645
    1SOL    HW310943   1.762   2.562   3.380 -1.1108  0.2850 -0.2421
    1SOL    MW410944   1.778   2.614   3.448  0.2179 -0.1721 -0.1907
    1SOL     OW10945   3.203   4.593   1.047 -0.3836  0.3862  0.0005
    1SOL    HW210946   3.201   4.684   1.018 -0.9494  0.0508 -1.0186
    1SOL    HW310947   3.247   4.545   0.976  0.8579  0.0161  0.9879
    1SOL    MW410948   3.209   4.598   1.034 -0.2947  0.2928 -0.0036
    1SOL     OW10949   3.207   2.764   2.459 -0.3767 -0.1418  0.1766
    1SOL    HW210950   3.139   2.824   2.428  1.0838  1.4604 -0.0041
    1SOL    HW310951   3.242   2.724   2.380 -1.8854 -1.8644  0.3505
    1SOL    MW410952   3.203   2.767   2.445 -0.3831 -0.1576  0.1760
    1SOL     OW10953   0.235   3.458   4.551  0.0760  0.0302 -0.6291
    1SOL    HW210954   0.145   3.481   4.532 -0.5206  0.4927  2.4836
    1SOL    HW310955   0.231   3.368   4.582  0.5169  0.3795  0.4764
    1SOL    MW410956   0.223   3.449   4.552  0.0554  0.1371 -0.0730
    1SOL     OW10957   0.005   0.183   3.261  0.5244  0.0893  0.2255
    1SOL    HW210958   0.074   0.249   3.255  1.3319 -0.6660  1.1230
    1SOL    HW310959   0.052   0.100   3.270 -0.4802 -0.6435 -1.0451
    1SOL    MW410960   0.020   0.181   3.261  0.4988 -0.1070  0.1762
    1SOL     OW10961   1.046   2.596   3.849 -0.0439 -0.1665  0.1632
    1SOL    HW210962   1.115   2.650   3.886 -1.1933  1.8212 -0.5449
    1SOL    HW310963   1.071   2.506   3.872  3.3200  0.4125 -1.0135
    1SOL    MW410964   1.058   2.591   3.857  0.2483  0.1724 -0.0856
    1SOL     OW10965   2.296   4.226   2.347 -0.3200  0.3609  0.4075
    1SOL    HW210966   2.257   4.307   2.315 -1.4559 -0.3497 -0.0463
    1SOL    HW310967   2.263   4.218   2.437 -1.2292 -0.2239  0.0345
    1SOL    MW410968   2.286   4.236   2.354 -0.5898  0.1903  0.2987
    1SOL     OW10969   3.325   3.991   2.612 -0.4261 -0.2736 -0.3648
    1SOL    HW210970   3.382   3.998   2.535 -1.3704 -0.4444 -1.0962
    1SOL    HW310971   3.354   4.061   2.670 -2.0546  2.2062 -2.4299
    1SOL    MW410972   3.337   4.001   2.609 -0.7656  0.0310 -0.7339
    1SOL     OW10973   3.549   4.287   2.452  0.0348 -0.1555  0.3404
    1SOL    HW210974   3.525   4.237   2.374  1.0124  0.0124 -0.0742
    1SOL    HW310975   3.552   4.222   2.522  1.3081 -0.6996 -0.1970
    1SOL    MW410976   3.546   4.271   2.451  0.3319 -0.2046  0.2148
    1SOL     OW10977   1.243   0.242   3.303  0.9450 -0.0154  0.0981
    1SOL    HW210978   1.181   0.184   3.260  1.4126 -1.2211  0.9940
    1SOL    HW310979   1.193   0.282   3.374  0.9211 -0.2247  0.2011
    1SOL    MW410980   1.229   0.239   3.307  1.0034 -0.2021  0.2301
    1SOL     OW10981   3.895   2.853   4.827  0.0598  0.5638 -0.0074
    1SOL    HW210982   3.885   2.834   4.921 -0.0165 -0.8728 -0.2963
    1SOL    HW310983   3.988   2.871   4.817  0.5729 -1.8910 -0.0845
    1SOL    MW410984   3.906   2.853   4.838  0.1175  0.0503 -0.0553
    1SOL     OW10985   3.830   2.135   3.912 -0.0272 -0.1400  0.1456
    1SOL    HW210986   3.871   2.064   3.961  0.8199  0.6990  0.6504
    1SOL    HW310987   3.879   2.139   3.829 -0.9355 -1.0169 -0.4512
    1SOL    MW410988   3.842   2.126   3.907 -0.0350 -0.1450  0.1335
    1SOL     OW10989   0.592   2.448   0.884  0.5784  0.0865 -0.3122
    1SOL    HW210990   0.507   2.489   0.897  0.9515 -0.0309  2.7897
    1SOL    HW310991   0.578   2.356   0.909  1.6746  0.1138  0.4093
    1SOL    MW410992   0.579   2.441   0.889  0.7722  0.0746  0.1922
    1SOL     OW10993   1.750   2.136   4.554  0.0098  0.3386 -0.0008
    1SOL    HW210994   1.706   2.136   4.469  1.8072 -0.4946 -0.9555
    1SOL    HW310995   1.735   2.048   4.588 -1.4277  0.9355  0.9459
    1SOL    MW410996   1.742   2.124   4.547  0.0573  0.3073 -0.0024
    1SOL     OW10997   3.987   2.401   0.659  0.1418 -0.4467  0.8965
    1SOL    HW210998   3.987   2.399   0.563 -0.6177  0.6127  0.8727
    1SOL    HW310999   3.928   2.472   0.682  2.1377  0.8659  2.1253
    1SOL    MW411000   3.979   2.410   0.650  0.3047 -0.1335  1.0555
    1SOL     OW11001   3.542   2.656   2.640 -0.5755 -0.1996 -0.1538
    1SOL    HW211002   3.467   2.618   2.685  1.2512 -2.2386  1.2976
    1SOL    HW311003   3.602   2.681   2.711 -0.0799  1.8530 -1.2638
    1SOL    MW411004   3.540   2.655   2.656 -0.2692 -0.1976 -0.1087
    1SOL     OW11005   2.465   3.521   4.025 -0.0421  0.0145  0.0833
    1SOL    HW211006   2.469   3.605   3.980 -0.1924  0.6732  1.2772
    1SOL    HW311007   2.538   3.471   3.989  0.9013  1.1558  0.3679
    1SOL    MW411008   2.475   3.525   4.014  0.0625  0.2520  0.2785
    1SOL     OW11009   3.300   0.225   4.129 -0.1502 -0.2516 -0.2016
    1SOL    HW211010   3.247   0.231   4.050  1.4810 -2.8161 -1.5640
    1SOL    HW311011   3.389   0.245   4.100  0.2216  0.3259  1.2985
    1SOL    MW411012   3.305   0.228   4.115  0.1140 -0.5138 -0.1836
    1SOL     OW11013   0.969   3.113   2.237 -0.6919  0.4906 -0.0990
    1SOL    HW211014   1.057   3.085   2.263 -0.4294  1.4041  0.0157
    1SOL    HW311015   0.925   3.032   2.213  0.3873  0.0914 -0.7920
    1SOL    MW411016   0.975   3.099   2.237 -0.5149  0.5584 -0.1750
    1SOL     OW11017   1.552   2.118   0.709  0.1023 -0.1177  0.2226
    1SOL    HW211018   1.644   2.095   0.718  0.7801  2.4105 -0.1280
    1SOL    HW311019   1.512   2.088   0.791  1.9921  2.3173  2.0783
    1SOL    MW411020   1.559   2.111   0.721  0.4410  0.5369  0.4212
    1SOL     OW11021   0.268   2.260   1.634  0.3649 -0.1898  0.3675
    1SOL    HW211022   0.282   2.352   1.615  0.7380 -0.2691  0.2524
    1SOL    HW311023   0.184   2.257   1.681 -0.3441  0.0489 -0.8786
    1SOL    MW411024   0.259   2.272   1.638  0.3206 -0.1688  0.1879
    1SOL     OW11025   4.192   2.456   0.864 -0.4558 -0.2246  0.3314
    1SOL    HW211026   4.141   2.456   0.945  0.2040 -3.1643  0.7991
    1SOL    HW311027   4.136   2.413   0.800  0.9065 -2.3469  0.5274
    1SOL    MW411028   4.178   2.450   0.866 -0.1893 -0.8926  0.4190
    1SOL     OW11029   1.284   2.603   3.466  0.0783  0.1738 -0.1429
    1SOL    HW211030   1.296   2.520   3.512  0.4818 -1.2403 -2.7116
    1SOL    HW311031   1.208   2.642   3.509  0.3678 -1.1080  1.6483
    1SOL    MW411032   1.276   2.597   3.478  0.1698 -0.1817 -0.2453
    1SOL     OW11033   3.444   0.451   2.295 -0.3623 -0.2435 -0.1696
    1SOL    HW211034   3.348   0.449   2.291 -0.4248  0.5220  0.6814
    1SOL    HW311035   3.464   0.538   2.331  0.6440 -0.4339 -0.2676
    1SOL    MW411036   3.434   0.462   2.300 -0.2377 -0.1676 -0.0701
    1SOL     OW11037   2.488   4.541   3.826 -0.1185  0.2274 -0.9149
    1SOL    HW211038   2.426   4.575   3.762 -0.1566  0.9030 -0.5095
    1SOL    HW311039   2.456   4.570   3.911  1.5886  1.9438 -0.8101
    1SOL    MW411040   2.476   4.549   3.828  0.1018  0.5431 -0.8476
    1SOL     OW11041   1.040   2.282   2.559 -0.2806 -0.1080  0.0539
    1SOL    HW211042   1.081   2.246   2.480 -1.4305  2.6300 -1.8437
    1SOL    HW311043   0.964   2.225   2.573  0.4323 -1.1712 -0.2601
    1SOL    MW411044   1.036   2.270   2.550 -0.3382  0.1128 -0.2377
    1SOL     OW11045   4.328   3.796   3.439  0.3651  0.2325  0.7284
    1SOL    HW211046   4.312   3.875   3.490  1.0762 -0.4436  2.0037
    1SOL    HW311047   4.274   3.807   3.360 -1.7263  0.7242  2.1939
    1SOL    MW411048   4.319   3.808   3.435  0.1831  0.2081  1.0900
    1SOL     OW11049   0.218   2.994   1.188 -0.5684 -0.4857  0.0947
    1SOL    HW211050   0.195   3.070   1.135 -1.2094 -0.7903 -0.0766
    1SOL    HW311051   0.167   3.006   1.269 -1.2813 -1.1168 -0.2467
    1SOL    MW411052   0.208   3.006   1.192 -0.7470 -0.6092  0.0272
    1SOL     OW11053   1.675   1.266   1.382 -0.1333  0.2311  0.1245
    1SOL    HW211054   1.688   1.173   1.397 -1.2740 -0.4686 -2.7692
    1SOL    HW311055   1.605   1.291   1.442 -0.9717 -1.1863 -0.2487
    1SOL    MW411056   1.667   1.257   1.392 -0.3945 -0.0482 -0.3065
    1SOL     OW11057   1.938   4.524   3.832  0.3874  0.2900 -0.3931
    1SOL    HW211058   1.967   4.578   3.905  0.2016 -1.8532  1.3123
    1SOL    HW311059   1.866   4.574   3.792  1.2244  1.9894  0.1887
    1SOL    MW411060   1.932   4.538   3.836  0.4733  0.2313 -0.0916
    1SOL     OW11061   1.360   0.890   2.611  0.3540  0.4809  0.1443
    1SOL    HW211062   1.265   0.900   2.620  0.1604 -0.7679 -0.3417
    1SOL    HW311063   1.374   0.882   2.516  1.0581  1.6587  0.1417
    1SOL    MW411064   1.349   0.890   2.599  0.4213  0.4715  0.0796
    1SOL     OW11065   0.490   2.873   2.314  0.0841 -0.1999  0.3666
    1SOL    HW211066   0.478   2.844   2.404  0.7351  1.0320  0.8704
    1SOL    HW311067   0.539   2.956   2.322 -0.2594  0.1584 -1.0832
    1SOL    MW411068   0.495   2.880   2.327  0.1247  0.0098  0.2420
    1SOL     OW11069   2.921   3.482   3.314  0.3059 -0.1520 -0.0419
    1SOL    HW211070   2.845   3.494   3.257  0.0163 -0.0761  0.3562
    1SOL    HW311071   2.989   3.448   3.256 -0.2563 -0.9462 -0.2630
    1SOL    MW411072   2.920   3.479   3.299  0.1934 -0.2470 -0.0181
    1SOL     OW11073   3.805   1.555   1.671  0.5125 -0.5944  0.7939
    1SOL    HW211074   3.899   1.537   1.665  0.3468 -1.9432  2.0775
    1SOL    HW311075   3.788   1.564   1.764 -0.2398  1.9798  0.4657
    1SOL    MW411076   3.815   1.554   1.682  0.3917 -0.4327  0.9201
    1SOL     OW11077   2.334   2.066   3.997  0.0480  0.2507  0.2902
    1SOL    HW211078   2.391   2.081   3.921  0.2740 -0.1702  0.3741
    1SOL    HW311079   2.246   2.057   3.959  0.3911 -1.6208 -0.0902
    1SOL    MW411080   2.330   2.067   3.982  0.1233 -0.0520  0.2508
    1SOL     OW11081   2.744   2.746   4.020  0.5086  0.0033 -0.2033
    1SOL    HW211082   2.688   2.667   4.019 -0.8921  0.9597 -2.2432
    1SOL    HW311083   2.800   2.736   3.943  0.9590  0.5654  0.0497
    1SOL    MW411084   2.744   2.734   4.010  0.3831  0.2038 -0.4392
    1SOL     OW11085   3.847   0.658   3.587 -0.2888 -0.5434 -0.2170
    1SOL    HW211086   3.897   0.670   3.668 -1.1618 -0.8043  0.3648
    1SOL    HW311087   3.870   0.570   3.558  1.0448  0.0404 -0.9687
    1SOL    MW411088   3.857   0.648   3.594 -0.2282 -0.5008 -0.2394
    1SOL     OW11089   0.507   1.107   4.483  0.0374 -0.2639 -0.0349
    1SOL    HW211090   0.449   1.037   4.514 -0.1064 -0.6238 -1.0946
    1SOL    HW311091   0.490   1.112   4.389  0.5167  0.7656 -0.0742
    1SOL    MW411092   0.497   1.099   4.474  0.0817 -0.1756 -0.1798
    1SOL     OW11093   0.102   1.953   3.829 -0.0418 -0.3296  0.0334
    1SOL    HW211094   0.128   2.031   3.879 -0.6549  0.3138 -0.6349
    1SOL    HW311095   0.129   1.972   3.739 -0.3973 -0.7882 -0.1741
    1SOL    MW411096   0.109   1.966   3.824 -0.1696 -0.3052 -0.0820
    1SOL     OW11097   3.961   3.504   2.576 -0.4189  0.6854  0.0224
    1SOL    HW211098   4.010   3.555   2.640  1.4262 -0.0812 -0.7308
    1SOL    HW311099   3.912   3.569   2.526  0.6518  1.5821  0.1134
    1SOL    MW411100   3.961   3.519   2.578 -0.0339  0.7024 -0.0651
    1SOL     OW11101   3.414   2.978   0.318 -0.2233 -0.0083  0.3579
    1SOL    HW211102   3.356   2.913   0.358 -1.3374  0.0061 -1.1491
    1SOL    HW311103   3.425   2.947   0.228  1.9918  0.0995  0.5838
    1SOL    MW411104   3.408   2.965   0.311 -0.0780  0.0076  0.1888
    1SOL     OW11105   4.045   0.486   2.991 -0.1834  0.1632  0.2038
    1SOL    HW211106   3.975   0.503   3.054 -0.1089  1.2466 -0.0055
    1SOL    HW311107   4.004   0.431   2.924 -0.6602  0.2711  0.4090
    1SOL    MW411108   4.030   0.481   2.990 -0.2360  0.3204  0.2031
    1SOL     OW11109   4.137   1.630   4.171  0.1901  0.2241  0.5508
    1SOL    HW211110   4.193   1.573   4.118 -0.2330 -0.7845  1.1778
    1SOL    HW311111   4.182   1.715   4.171  0.1990  0.2540 -1.4168
    1SOL    MW411112   4.150   1.634   4.164  0.1354  0.0950  0.3738
    1SOL     OW11113   3.240   3.112   3.824 -0.1998 -0.8341 -0.1412
    1SOL    HW211114   3.300   3.041   3.847  1.7555  0.4822 -1.0472
    1SOL    HW311115   3.294   3.174   3.775 -1.8091  1.4251  0.8760
    1SOL    MW411116   3.255   3.111   3.821 -0.1540 -0.3624 -0.1264
    1SOL     OW11117   1.708   1.289   3.554  0.2577  0.1529 -0.2373
    1SOL    HW211118   1.798   1.317   3.566  0.8443 -1.8194  0.1742
    1SOL    HW311119   1.702   1.265   3.462 -0.7004  3.0824 -0.9982
    1SOL    MW411120   1.719   1.289   3.543  0.2087  0.2793 -0.2832
    1SOL     OW11121   3.085   1.491   4.446  0.1222 -0.1283  0.2382
    1SOL    HW211122   3.042   1.484   4.361 -0.3887 -0.7287  0.5405
    1SOL    HW311123   3.146   1.417   4.448  0.4915  0.1746  0.1924
    1SOL    MW411124   3.087   1.480   4.435  0.1037 -0.1675  0.2718
    1SOL     OW11125   0.538   3.740   2.225  0.2584  0.5024 -0.9228
    1SOL    HW211126   0.493   3.824   2.235 -1.4183 -0.3472 -1.1096
    1SOL    HW311127   0.511   3.708   2.139 -1.4921 -1.5793  0.3406
    1SOL    MW411128   0.529   3.746   2.215 -0.1938  0.1159 -0.7806
    1SOL     OW11129   0.114   4.599   3.318  0.2345  0.1235 -0.1645
    1SOL    HW211130   0.155   4.616   3.402  0.6924  2.5487 -0.8515
    1SOL    HW311131   0.183   4.612   3.253 -0.6554  0.4836 -1.0650
    1SOL    MW411132   0.128   4.603   3.320  0.1775  0.4911 -0.3738
    1SOL     OW11133   0.497   0.646   3.303 -0.1152 -0.1227 -0.2382
    1SOL    HW211134   0.532   0.697   3.376 -0.4892 -0.0372 -0.1167
    1SOL    HW311135   0.405   0.632   3.325 -0.7454  1.5727 -1.5967
    1SOL    MW411136   0.490   0.651   3.315 -0.2477  0.1122 -0.4013
    1SOL     OW11137   3.301   0.953   2.834  0.3545  0.2115  0.0280
    1SOL    HW211138   3.366   0.883   2.831  0.5571  0.4077 -0.2350
    1SOL    HW311139   3.345   1.025   2.879  0.3784  0.3980 -0.2845
    1SOL    MW411140   3.316   0.953   2.839  0.3846  0.2620 -0.0479
    1SOL     OW11141   4.133   0.143   2.876  0.0522 -0.1868 -0.2695
    1SOL    HW211142   4.190   0.118   2.949 -0.8288  0.3606  0.6204
    1SOL    HW311143   4.123   0.063   2.825 -0.1148 -0.8455  0.7634
    1SOL    MW411144   4.139   0.130   2.879 -0.0858 -0.2015 -0.0157
    1SOL     OW11145   3.152   0.710   0.723 -0.3029 -0.0668  0.4849
    1SOL    HW211146   3.137   0.791   0.772 -0.5716  0.0887  0.1493
    1SOL    HW311147   3.078   0.654   0.747 -1.9690  1.0380 -1.8744
    1SOL    MW411148   3.140   0.713   0.733 -0.5581  0.0995  0.1293
    1SOL     OW11149   0.693   1.733   0.986  0.2820  0.2441  0.5533
    1SOL    HW211150   0.708   1.683   0.906  3.0943  1.6977  0.1141
    1SOL    HW311151   0.713   1.671   1.056 -1.2718 -0.7481  0.1564
    1SOL    MW411152   0.698   1.718   0.985  0.4480  0.3051  0.4430
    1SOL     OW11153   3.618   1.950   3.871 -0.4149  0.0270  0.2547
    1SOL    HW211154   3.675   2.021   3.901  0.9135 -0.8225 -0.2177
    1SOL    HW311155   3.624   1.953   3.776 -1.5232  0.2081  0.1833
    1SOL    MW411156   3.626   1.960   3.863 -0.3858 -0.0613  0.1829
    1SOL     OW11157   1.110   1.577   2.473 -0.8142  0.2408  0.2797
    1SOL    HW211158   1.118   1.526   2.553  0.4007  0.3882  0.2591
    1SOL    HW311159   1.129   1.515   2.402 -2.6653 -0.0847  0.0406
    1SOL    MW411160   1.114   1.562   2.474 -0.8980  0.2173  0.2456
    1SOL     OW11161   2.936   3.511   2.232 -0.4351 -0.2258 -0.2734
    1SOL    HW211162   2.859   3.556   2.266  0.4048 -0.4784  2.1355
    1SOL    HW311163   2.994   3.581   2.202 -0.2384  0.1713  0.9974
    1SOL    MW411164   2.933   3.526   2.233 -0.2983 -0.2067  0.2120
    1SOL     OW11165   3.187   3.649   2.162 -0.5778 -0.0684  0.5783
    1SOL    HW211166   3.267   3.600   2.177  0.3325  1.5362  1.1100
    1SOL    HW311167   3.207   3.738   2.193 -1.7145  1.0085 -1.6842
    1SOL    MW411168   3.200   3.654   2.168 -0.6075  0.2856  0.3500
    1SOL     OW11169   0.934   4.176   4.087  0.1038  0.7225 -0.0416
    1SOL    HW211170   0.967   4.100   4.039  1.8648  1.2220  0.3372
    1SOL    HW311171   0.875   4.139   4.152 -1.2261 -0.0771 -1.6683
    1SOL    MW411172   0.931   4.161   4.089  0.1607  0.6833 -0.2060
    1SOL     OW11173   2.592   0.600   4.358  0.0362 -0.6052  0.1311
    1SOL    HW211174   2.587   0.678   4.303 -0.9239 -1.3491 -0.8528
    1SOL    HW311175   2.686   0.584   4.367  0.2194 -0.2904 -1.0555
    1SOL    MW411176   2.604   0.608   4.352 -0.0665 -0.6618 -0.1545
    1SOL     OW11177   3.106   3.674   1.507  0.2463  0.3205  0.0768
    1SOL    HW211178   3.156   3.694   1.428  0.3358 -1.8296 -0.4587
    1SOL    HW311179   3.171   3.679   1.578  0.2981  1.6469 -0.0561
    1SOL    MW411180   3.121   3.677   1.506  0.2649  0.2120 -0.0113
    1SOL     OW11181   3.782   4.548   1.093  0.0173 -0.2222  0.4986
    1SOL    HW211182   3.764   4.544   0.999 -0.1278  0.3440  0.4998
    1SOL    HW311183   3.697   4.532   1.134  0.0434 -0.2723  0.5336
    1SOL    MW411184   3.769   4.545   1.086  0.0017 -0.1545  0.5034
    1SOL     OW11185   1.262   2.763   3.932 -0.1090 -0.0498 -0.1505
    1SOL    HW211186   1.312   2.784   4.011 -1.3054 -0.5737  0.7569
    1SOL    HW311187   1.312   2.803   3.861  0.9108  0.5427  0.8829
    1SOL    MW411188   1.275   2.771   3.933 -0.1322 -0.0408  0.1056
    1SOL     OW11189   0.217   3.259   2.817  0.2168 -0.2415  0.5404
    1SOL    HW211190   0.288   3.207   2.856  0.8372 -0.0910 -0.3769
    1SOL    HW311191   0.146   3.253   2.881  1.4729  0.6316  2.0636
    1SOL    MW411192   0.217   3.251   2.831  0.4643 -0.1066  0.6204
    1SOL     OW11193   1.732   1.651   0.804 -0.2895  0.2670  0.1209
    1SOL    HW211194   1.816   1.692   0.783  0.0721 -1.2941 -1.5408
    1SOL    HW311195   1.741   1.561   0.775 -1.6250 -0.6321  2.3813
    1SOL    MW411196   1.744   1.645   0.798 -0.4179 -0.0576  0.1999
    1SOL     OW11197   3.382   3.883   2.933 -0.2041  0.3632 -0.0735
    1SOL    HW211198   3.455   3.856   2.877 -1.6644 -0.0195 -1.8360
    1SOL    HW311199   3.367   3.807   2.990  1.1790  0.6964  0.7841
    1SOL    MW411200   3.390   3.869   2.933 -0.2143  0.3569 -0.1929
    1SOL     OW11201   3.940   0.407   2.647  0.0217  0.8569  0.0637
    1SOL    HW211202   4.017   0.463   2.660 -0.6915  1.8190  0.2131
    1SOL    HW311203   3.896   0.444   2.570 -0.1483  0.1539 -0.1786
    1SOL    MW411204   3.944   0.420   2.638 -0.0949  0.8911  0.0513
    1SOL     OW11205   1.076   3.002   3.958 -0.6813  0.2025  0.2981
    1SOL    HW211206   1.080   2.907   3.966 -1.6922  0.2161  1.0684
    1SOL    HW311207   1.002   3.018   3.900 -0.3742  0.5080 -0.0075
    1SOL    MW411208   1.067   2.992   3.951 -0.7741  0.2444  0.3595
    1SOL     OW11209   3.592   2.559   4.119  0.0731  0.4575  0.3433
    1SOL    HW211210   3.553   2.547   4.206 -0.1704  0.4590  0.2336
    1SOL    HW311211   3.643   2.479   4.105  1.2750  1.0675  1.0881
    1SOL    MW411212   3.594   2.547   4.129  0.1993  0.5386  0.4268
    1SOL     OW11213   2.081   0.219   2.929  0.6622 -0.8020 -0.1443
    1SOL    HW211214   2.025   0.167   2.870  1.5415 -0.8461 -0.9390
    1SOL    HW311215   2.136   0.154   2.972  1.8379 -0.5292 -1.2171
    1SOL    MW411216   2.081   0.203   2.927  0.9334 -0.7718 -0.3908
    1SOL     OW11217   2.732   3.680   2.305  0.0361  0.5974 -0.2958
    1SOL    HW211218   2.641   3.696   2.279  0.6099  1.8425 -1.5490
    1SOL    HW311219   2.729   3.677   2.401 -1.3783  0.2215 -0.3325
    1SOL    MW411220   2.719   3.681   2.314 -0.0749  0.7122 -0.4659
    1SOL     OW11221   3.704   2.305   4.104 -0.3330 -0.8455 -0.5348
    1SOL    HW211222   3.672   2.227   4.149  0.2846 -1.0467 -0.4452
    1SOL    HW311223   3.759   2.271   4.033  1.3877 -0.4770  0.5851
    1SOL    MW411224   3.707   2.290   4.100 -0.0243 -0.8235 -0.3753
    1SOL     OW11225   4.396   0.962   1.505  0.4751  0.0485 -0.3474
    1SOL    HW211226   4.448   1.043   1.505  0.4447  0.0676  0.1261
    1SOL    HW311227   4.406   0.927   1.593  0.7254 -0.6211 -0.6385
    1SOL    MW411228   4.404   0.968   1.516  0.5040 -0.0373 -0.3233
    1SOL     OW11229   0.502   2.496   2.681 -0.0518  0.4719  0.4653
    1SOL    HW211230   0.473   2.563   2.619  1.0421  1.1438  0.6648
    1SOL    HW311231   0.430   2.488   2.744 -0.1361  1.5337  0.5013
    1SOL    MW411232   0.488   2.504   2.681  0.0814  0.7007  0.4969
    1SOL     OW11233   0.184   1.863   2.547  0.1942  0.1068 -0.3592
    1SOL    HW211234   0.201   1.901   2.461  1.1688 -1.0744 -0.6991
    1SOL    HW311235   0.111   1.802   2.533 -0.4683  0.8207 -0.0851
    1SOL    MW411236   0.176   1.860   2.534  0.2354  0.0451 -0.3679
    1SOL     OW11237   3.988   2.690   3.033 -0.0516  0.0860  0.1501
    1SOL    HW211238   4.041   2.769   3.024 -0.1502  0.0243 -1.1068
    1SOL    HW311239   4.035   2.624   2.982 -0.0680 -0.6283  1.0428
    1SOL    MW411240   4.001   2.692   3.025 -0.0668 -0.0167  0.1023
    1SOL     OW11241   0.805   4.224   1.466  0.5345  0.2437 -0.1044
    1SOL    HW211242   0.806   4.147   1.408  1.1149  0.9469 -1.0331
    1SOL    HW311243   0.716   4.259   1.459  1.2253  1.6035 -2.2739
    1SOL    MW411244   0.793   4.218   1.458  0.7022  0.5164 -0.5132
    1SOL     OW11245   1.728   2.428   3.240  0.0477  0.0547  0.5676
    1SOL    HW211246   1.751   2.400   3.152  2.0365  0.6252  0.8827
    1SOL    HW311247   1.633   2.419   3.244  0.2803 -3.6085 -0.3573
    1SOL    MW411248   1.719   2.423   3.229  0.3409 -0.3531  0.4869
    1SOL     OW11249   4.252   2.945   2.708 -0.5994 -0.3689  0.4111
    1SOL    HW211250   4.320   2.943   2.641 -0.2692 -0.5915  0.7512
    1SOL    HW311251   4.208   3.029   2.695 -0.5529 -0.4206 -0.0992
    1SOL    MW411252   4.255   2.956   2.698 -0.5493 -0.4051  0.3889
    1SOL     OW11253   2.305   0.521   1.645 -0.0213 -0.1501  0.5455
    1SOL    HW211254   2.268   0.609   1.639 -0.0875 -0.1472  0.9877
    1SOL    HW311255   2.259   0.480   1.718 -0.4603 -0.7830 -0.0873
    1SOL    MW411256   2.294   0.527   1.654 -0.0877 -0.2332  0.5205
    1SOL     OW11257   2.963   0.744   4.473 -0.5812  0.1159  0.1321
    1SOL    HW211258   2.915   0.672   4.432 -0.0409 -1.1838  1.7555
    1SOL    HW311259   2.895   0.795   4.518 -1.0538  1.0361 -1.5816
    1SOL    MW411260   2.947   0.741   4.474 -0.5722  0.0659  0.1202
    1SOL     OW11261   4.475   3.237   3.252  0.3559 -0.2328  0.4576
    1SOL    HW211262   4.426   3.306   3.298  0.2163  0.1503 -0.2697
    1SOL    HW311263   4.448   3.156   3.296 -0.9399 -0.0321  0.0697
    1SOL    MW411264   4.465   3.236   3.264  0.1669 -0.1559  0.3104
    1SOL     OW11265   3.247   4.453   3.789  0.0675 -0.4581  0.2137
    1SOL    HW211266   3.287   4.538   3.775  0.0700 -0.1477  2.0521
    1SOL    HW311267   3.315   4.390   3.766  0.5272  0.0437  0.1875
    1SOL    MW411268   3.261   4.456   3.784  0.1285 -0.3514  0.4525
    1SOL     OW11269   0.155   3.700   1.200  0.0072  0.1564  1.1647
    1SOL    HW211270   0.110   3.623   1.166  2.4722 -1.4213  1.3078
    1SOL    HW311271   0.090   3.770   1.197 -2.4297 -2.0261  1.4675
    1SOL    MW411272   0.141   3.699   1.195  0.0109 -0.3395  1.2234
    1SOL     OW11273   0.495   2.732   4.494  0.1483  0.5689 -0.2077
    1SOL    HW211274   0.577   2.759   4.537  0.1057  0.6903 -0.2040
    1SOL    HW311275   0.517   2.649   4.452 -0.6759 -1.2037  2.7629
    1SOL    MW411276   0.509   2.725   4.494  0.0340  0.3510  0.1845
    1SOL     OW11277   2.533   1.192   0.653 -0.1347 -0.1567 -0.0581
    1SOL    HW211278   2.484   1.208   0.573 -0.4832 -1.7106 -0.1715
    1SOL    HW311279   2.585   1.114   0.635  0.4450 -0.0106  0.9246
    1SOL    MW411280   2.533   1.184   0.640 -0.1042 -0.3425  0.0566
    1SOL     OW11281   4.133   3.192   2.643  0.0060 -0.1114  0.1253
    1SOL    HW211282   4.040   3.202   2.662  0.4064  1.5240  1.2714
    1SOL    HW311283   4.177   3.258   2.697  1.7369 -0.0171 -1.3400
    1SOL    MW411284   4.127   3.202   2.653  0.2875  0.1168  0.0832
    1SOL     OW11285   2.090   0.169   1.608 -0.4199  0.4154 -0.0926
    1SOL    HW211286   2.027   0.097   1.615  0.4433 -0.3677 -0.3418
    1SOL    HW311287   2.175   0.126   1.607  0.1971  1.5696  1.7860
    1SOL    MW411288   2.093   0.154   1.609 -0.2246  0.4644  0.1223
    1SOL     OW11289   4.129   1.721   2.894  0.4313  0.2392 -0.0372
    1SOL    HW211290   4.144   1.728   2.799  1.8366  3.0156  0.3345
    1SOL    HW311291   4.196   1.777   2.933 -0.8931  0.1009  2.5673
    1SOL    MW411292   4.140   1.730   2.886  0.4425  0.5873  0.3555
    1SOL     OW11293   2.499   2.652   3.158  0.1218 -0.0672  0.5190
    1SOL    HW211294   2.548   2.660   3.077 -0.7640  0.0769 -0.0023
    1SOL    HW311295   2.510   2.560   3.184 -1.3711 -0.6643 -0.9028
    1SOL    MW411296   2.507   2.641   3.151 -0.1922 -0.1271  0.2627
    1SOL     OW11297   2.319   0.500   4.358 -0.4157  0.4194 -0.6793
    1SOL    HW211298   2.278   0.552   4.427 -0.7305 -1.3361  0.5013
    1SOL    HW311299   2.413   0.514   4.371 -0.4179 -0.8109  0.8909
    1SOL    MW411300   2.326   0.509   4.369 -0.4578  0.0255 -0.3166
    1SOL     OW11301   1.409   3.191   3.815 -0.1458 -0.3545  0.4095
    1SOL    HW211302   1.351   3.208   3.741  0.1367  0.2144  0.3152
    1SOL    HW311303   1.351   3.191   3.891 -0.3682 -0.4730  0.2414
    1SOL    MW411304   1.394   3.193   3.815 -0.1378 -0.2949  0.3750
    1SOL     OW11305   1.424   0.941   0.343  0.0267  0.2916 -0.2483
    1SOL    HW211306   1.390   0.938   0.254 -0.6826 -1.6123  0.0762
    1SOL    HW311307   1.513   0.976   0.333 -0.9950  2.6686 -1.3824
    1SOL    MW411308   1.431   0.946   0.330 -0.2017  0.3540 -0.3551
    1SOL     OW11309   1.282   1.576   3.706 -0.0818  0.0357  0.0360
    1SOL    HW211310   1.371   1.551   3.734 -0.4374 -0.8065  0.4164
    1SOL    HW311311   1.293   1.604   3.615  0.7659  0.9883  0.4186
    1SOL    MW411312   1.295   1.576   3.698 -0.0168  0.0502  0.1369
    1SOL     OW11313   2.107   4.372   4.499 -0.2718 -0.3112  0.4964
    1SOL    HW211314   2.109   4.403   4.589  0.6302  2.5739 -0.4571
    1SOL    HW311315   2.086   4.449   4.447 -0.0081 -1.7556 -1.8445
    1SOL    MW411316   2.105   4.386   4.504 -0.1180 -0.1211  0.0615
    1SOL     OW11317   1.140   3.157   1.480  0.2303 -0.1174  0.0134
    1SOL    HW211318   1.200   3.231   1.470  0.7267 -0.6710 -1.2102
    1SOL    HW311319   1.056   3.190   1.447  0.0186  0.4410  1.0898
    1SOL    MW411320   1.137   3.171   1.475  0.2679 -0.1168 -0.0060
    1SOL     OW11321   4.354   3.446   3.383  0.0456  0.2736 -0.0405
    1SOL    HW211322   4.390   3.495   3.457  0.4387  0.4734 -0.3673
    1SOL    HW311323   4.342   3.511   3.314 -1.2296  0.2753  0.1571
    1SOL    MW411324   4.357   3.461   3.384 -0.0710  0.3004 -0.0575
    1SOL     OW11325   2.545   2.668   4.377  0.1827  0.2441 -0.4193
    1SOL    HW211326   2.508   2.662   4.289 -0.8130 -1.7615  0.0873
    1SOL    HW311327   2.578   2.579   4.394 -1.9377 -0.0888  2.1892
    1SOL    MW411328   2.544   2.655   4.368 -0.2284 -0.0646 -0.0081
    1SOL     OW11329   1.067   0.402   1.707 -0.2789 -0.3734  0.0887
    1SOL    HW211330   1.072   0.319   1.661 -0.1463  0.3392 -1.2119
    1SOL    HW311331   1.029   0.463   1.643  2.5122  1.2895 -0.0497
    1SOL    MW411332   1.063   0.399   1.692  0.1068 -0.0600 -0.1011
    1SOL     OW11333   1.838   3.793   4.024 -0.2989 -0.2401  0.1550
    1SOL    HW211334   1.748   3.791   4.057  0.3525 -0.7747  1.9654
    1SOL    HW311335   1.839   3.731   3.951 -1.4832  0.0632 -0.1257
    1SOL    MW411336   1.827   3.785   4.019 -0.3693 -0.2706  0.3567
    1SOL     OW11337   2.126   0.291   3.752 -0.6318 -0.1877  0.1394
    1SOL    HW211338   2.105   0.282   3.660  0.5245  0.2036 -0.1720
    1SOL    HW311339   2.203   0.348   3.754  0.0084 -1.0596  1.2651
    1SOL    MW411340   2.134   0.297   3.740 -0.3948 -0.2511  0.2468
    1SOL     OW11341   3.134   0.327   1.505 -0.4113  0.8300 -0.1999
    1SOL    HW211342   3.090   0.243   1.522 -0.1358  0.9316  1.1038
    1SOL    HW311343   3.123   0.342   1.411 -1.4041 -0.1392 -0.2471
    1SOL    MW411344   3.127   0.318   1.495 -0.5059  0.7155 -0.0341
    1SOL     OW11345   2.707   3.403   3.956  0.3719 -0.2717  0.3177
    1SOL    HW211346   2.701   3.389   4.050  0.7947 -0.6029  0.2993
    1SOL    HW311347   2.762   3.331   3.924  3.2008  1.8160  0.3150
    1SOL    MW411348   2.714   3.392   3.964  0.8006 -0.0398  0.3147
    1SOL     OW11349   0.478   0.614   2.554 -0.2395  0.1404  0.1928
    1SOL    HW211350   0.434   0.541   2.511 -0.5004  0.7708 -0.6268
    1SOL    HW311351   0.528   0.657   2.485  1.6499 -0.5279  1.1096
    1SOL    MW411352   0.479   0.610   2.539 -0.0246  0.1354  0.2058
    1SOL     OW11353   0.100   0.469   0.772 -0.5063  0.2634 -0.2554
    1SOL    HW211354   0.089   0.550   0.723 -1.1580 -0.0661 -0.6618
    1SOL    HW311355   0.195   0.459   0.781 -0.3825  0.3358 -1.4391
    1SOL    MW411356   0.111   0.478   0.767 -0.5760  0.2294 -0.4652
    1SOL     OW11357   1.607   2.910   3.589 -0.0601  0.5230 -0.1419
    1SOL    HW211358   1.537   2.915   3.654 -0.4230 -0.1436 -0.4795
    1SOL    HW311359   1.578   2.842   3.528  0.9991  0.0644 -0.1422
    1SOL    MW411360   1.594   2.902   3.590  0.0318  0.3746 -0.1864
    1SOL     OW11361   4.064   2.435   1.109 -0.1454 -0.1338 -0.2496
    1SOL    HW211362   4.085   2.387   1.189  0.9686 -0.6693 -0.8421
    1SOL    HW311363   4.012   2.509   1.138 -1.6328 -1.5169  0.7344
    1SOL    MW411364   4.060   2.438   1.123 -0.1950 -0.3870 -0.1979
    1SOL     OW11365   0.697   4.344   2.115 -0.8973  0.2455  0.3157
    1SOL    HW211366   0.670   4.421   2.165  0.5001  0.1190  1.2795
    1SOL    HW311367   0.762   4.301   2.171 -0.9488 -1.0990 -0.6447
    1SOL    MW411368   0.702   4.348   2.129 -0.7197  0.0515  0.3161
    1SOL     OW11369   3.215   2.219   3.617  0.7391  0.0735 -0.2906
    1SOL    HW211370   3.130   2.241   3.578  1.3793  0.5897 -1.4302
    1SOL    HW311371   3.195   2.200   3.709 -0.5788  0.3772 -0.5005
    1SOL    MW411372   3.201   2.220   3.624  0.6499  0.1819 -0.4687
    1SOL     OW11373   1.434   1.015   1.518 -0.0213  0.1729  0.4615
    1SOL    HW211374   1.516   0.987   1.478 -0.3544  0.1986 -0.2467
    1SOL    HW311375   1.409   0.942   1.575 -1.0715 -1.1757 -1.6589
    1SOL    MW411376   1.442   1.002   1.520 -0.2038 -0.0015  0.0882
    1SOL     OW11377   2.284   1.956   2.781 -0.3738 -0.2191 -0.2454
    1SOL    HW211378   2.298   1.968   2.875 -2.2092  0.0874  0.0014
    1SOL    HW311379   2.324   1.871   2.762  0.8500  0.1479  0.6120
    1SOL    MW411380   2.291   1.946   2.791 -0.4547 -0.1301 -0.0999
    1SOL     OW11381   2.782   2.488   0.704  0.4643  0.1095  0.5485
    1SOL    HW211382   2.862   2.473   0.653  0.0956 -0.2884  0.0855
    1SOL    HW311383   2.770   2.409   0.755  0.6219  0.3581  0.9730
    1SOL    MW411384   2.791   2.476   0.704  0.4365  0.0899  0.5434
    1SOL     OW11385   3.818   1.886   1.323 -0.0034 -0.1852 -0.1281
    1SOL    HW211386   3.913   1.889   1.313 -0.1912  1.7860 -1.8087
    1SOL    HW311387   3.804   1.861   1.414  2.1165 -0.9637  0.0129
    1SOL    MW411388   3.829   1.883   1.334  0.2515 -0.0278 -0.3312
    1SOL     OW11389   3.452   2.813   1.276  0.4615 -0.0546 -0.0841
    1SOL    HW211390   3.401   2.891   1.252  1.9820  0.3273 -2.1481
    1SOL    HW311391   3.393   2.763   1.333 -0.5027  2.6638  1.4456
    1SOL    MW411392   3.437   2.817   1.281  0.5348  0.3543 -0.1546
    1SOL     OW11393   2.893   0.797   2.701 -0.0338 -0.0638  0.0427
    1SOL    HW211394   2.860   0.830   2.618  1.3671  0.9511 -0.1359
    1SOL    HW311395   2.824   0.739   2.734 -1.9215  1.9047 -0.3478
    1SOL    MW411396   2.880   0.793   2.695 -0.0980  0.3298 -0.0324
    1SOL     OW11397   3.423   3.958   3.804  0.5412  0.1379 -0.0985
    1SOL    HW211398   3.414   3.916   3.889 -0.5464  0.1304 -0.2083
    1SOL    HW311399   3.517   3.958   3.787  0.6799 -0.8183  0.6189
    1SOL    MW411400   3.434   3.952   3.813  0.4158  0.0110 -0.0184
    1SOL     OW11401   0.134   1.682   1.201 -0.2828  0.1770 -0.0082
    1SOL    HW211402   0.216   1.673   1.249  0.3783  0.0876 -1.1388
    1SOL    HW311403   0.110   1.774   1.212  0.6466  0.5154 -0.7364
    1SOL    MW411404   0.142   1.693   1.209 -0.0730  0.2098 -0.2536
    1SOL     OW11405   0.864   1.117   2.615  0.0437 -0.1295 -0.0506
    1SOL    HW211406   0.777   1.116   2.655 -0.2817 -2.9795 -0.7410
    1SOL    HW311407   0.867   1.200   2.567 -2.7499 -0.5256 -0.9837
    1SOL    MW411408   0.853   1.128   2.614 -0.3678 -0.5578 -0.2646
    1SOL     OW11409   0.855   4.566   4.338 -0.0787 -0.5959 -0.1707
    1SOL    HW211410   0.813   4.487   4.305 -0.7384 -0.0690 -0.6303
    1SOL    HW311411   0.834   4.568   4.431  0.8921 -1.5426  0.0701
    1SOL    MW411412   0.846   4.556   4.346 -0.0377 -0.6514 -0.1998
    1SOL     OW11413   0.041   4.346   2.556 -0.4781  0.2800 -0.0363
    1SOL    HW211414   0.081   4.429   2.579 -0.3819 -0.0447  0.9838
    1SOL    HW311415   0.005   4.312   2.638 -0.1108 -0.8971 -0.3452
    1SOL    MW411416   0.041   4.352   2.570 -0.4169  0.0820  0.0575
    1SOL     OW11417   1.958   3.701   3.041  0.2332 -0.0536  0.1488
    1SOL    HW211418   1.955   3.612   3.076 -2.0571  0.0747  0.3450
    1SOL    HW311419   1.938   3.692   2.948  0.6665  0.2006  0.0255
    1SOL    MW411420   1.955   3.688   3.033 -0.0119 -0.0031  0.1585
    1SOL     OW11421   0.458   4.561   1.917 -0.0729  0.2328  0.3411
    1SOL    HW211422   0.387   4.540   1.857 -1.7088  1.1336  1.9207
    1SOL    HW311423   0.529   4.501   1.892 -1.0856 -0.1330 -1.7578
    1SOL    MW411424   0.458   4.550   1.906 -0.4223  0.3033  0.2726
    1SOL     OW11425   0.903   1.130   1.657  0.5044 -0.0171  0.2785
    1SOL    HW211426   0.995   1.150   1.637 -0.1957  1.6981 -1.3142
    1SOL    HW311427   0.858   1.214   1.652 -1.6298 -1.2154 -1.4929
    1SOL    MW411428   0.909   1.143   1.654  0.1304  0.0510 -0.1655
    1SOL     OW11429   1.903   1.939   3.547  0.3418  0.3079 -0.7055
    1SOL    HW211430   1.818   1.916   3.583  1.9121 -2.4438  1.4820
    1SOL    HW311431   1.925   1.868   3.487  1.9077 -0.0506  0.2403
    1SOL    MW411432   1.895   1.926   3.544  0.7555 -0.1024 -0.2921
    1SOL     OW11433   3.258   2.264   2.761  0.0996  0.6102  0.1486
    1SOL    HW211434   3.255   2.218   2.677  1.0152  1.1764 -0.2016
    1SOL    HW311435   3.179   2.236   2.806  0.6477 -1.3046 -0.0488
    1SOL    MW411436   3.247   2.254   2.756  0.2928  0.4325  0.0765
    1SOL     OW11437   2.253   2.393   3.546  0.1756 -0.1531 -0.1169
    1SOL    HW211438   2.202   2.357   3.618  0.3942 -0.9722 -0.3642
    1SOL    HW311439   2.262   2.486   3.566  0.7895 -0.5026  1.2284
    1SOL    MW411440   2.247   2.400   3.558  0.2854 -0.3071  0.0277
    1SOL     OW11441   4.101   1.431   2.617  0.1846 -0.2366 -0.1441
    1SOL    HW211442   4.063   1.429   2.529 -1.0152  0.2220  0.3566
    1SOL    HW311443   4.026   1.425   2.676  0.7858  1.7142  0.8607
    1SOL    MW411444   4.086   1.430   2.613  0.1054  0.0813  0.0544
    1SOL     OW11445   2.819   0.452   3.619 -0.9945 -0.8515 -0.4100
    1SOL    HW211446   2.824   0.366   3.662 -2.8479 -0.7265  0.0903
    1SOL    HW311447   2.852   0.436   3.530  1.3964 -1.4445  0.5333
    1SOL    MW411448   2.824   0.438   3.613 -0.9236 -0.9132 -0.2193
    1SOL     OW11449   1.447   2.033   0.956  0.1506 -0.6875  0.6726
    1SOL    HW211450   1.363   2.035   1.001  1.2211 -2.6773  2.8643
    1SOL    HW311451   1.450   1.948   0.912  1.6723 -1.3582  2.0034
    1SOL    MW411452   1.436   2.022   0.956  0.4926 -1.0388  1.1373
    1SOL     OW11453   2.432   4.653   2.962  0.3933 -0.1951 -0.4577
    1SOL    HW211454   2.358   4.674   3.019  1.4762  1.6324  0.3470
    1SOL    HW311455   2.467   4.571   2.997 -0.2144 -0.1664  0.2360
    1SOL    MW411456   2.427   4.645   2.974  0.4559  0.0496 -0.2601
    1SOL     OW11457   3.566   0.284   3.726 -0.2852  0.1614  0.0396
    1SOL    HW211458   3.614   0.315   3.650  1.0958  1.1410  1.2783
    1SOL    HW311459   3.526   0.362   3.763 -0.4265 -0.2016  0.6655
    1SOL    MW411460   3.567   0.298   3.721 -0.1216  0.2427  0.2856
    1SOL     OW11461   1.151   0.040   2.726  0.5371 -0.3715  0.5606
    1SOL    HW211462   1.177   0.115   2.781  2.1787 -1.0637  0.7621
    1SOL    HW311463   1.227   0.024   2.670 -0.0862 -1.4425 -0.0005
    1SOL    MW411464   1.164   0.048   2.726  0.6716 -0.6041  0.5133
    1SOL     OW11465   1.654   2.312   1.550  0.0468  0.2848 -0.0208
    1SOL    HW211466   1.726   2.352   1.597  0.4127 -1.4729  0.9694
    1SOL    HW311467   1.658   2.349   1.462  0.8543  1.7609  0.6420
    1SOL    MW411468   1.664   2.322   1.544  0.2016  0.2480  0.1973
    1SOL     OW11469   3.922   2.715   2.063 -0.2121 -0.4438  0.1482
    1SOL    HW211470   3.887   2.689   2.148 -1.0095  1.0345  0.2912
    1SOL    HW311471   3.848   2.712   2.004 -0.2117  0.9133  0.0549
    1SOL    MW411472   3.908   2.711   2.067 -0.3173 -0.0696  0.1545
    1SOL     OW11473   1.512   2.490   2.499 -0.3317  0.3672  0.4967
    1SOL    HW211474   1.548   2.407   2.530  0.2629  1.5745  3.1614
    1SOL    HW311475   1.418   2.474   2.491 -0.5580  0.0912  3.3197
    1SOL    MW411476   1.504   2.477   2.502 -0.2831  0.4902  1.2209
    1SOL     OW11477   3.903   1.202   4.279  0.2409  0.3977 -0.3853
    1SOL    HW211478   3.847   1.280   4.288 -0.3675 -0.1634  0.8055
    1SOL    HW311479   3.892   1.175   4.188  1.1436  2.2168 -1.0691
    1SOL    MW411480   3.894   1.209   4.268  0.2797  0.5636 -0.3181
    1SOL     OW11481   0.976   0.628   1.551  0.0133  0.4291 -0.3196
    1SOL    HW211482   0.955   0.718   1.576 -1.0250  0.1695 -0.2294
    1SOL    HW311483   0.914   0.607   1.481  0.7499  0.0349 -0.8579
    1SOL    MW411484   0.965   0.637   1.545 -0.0266  0.3428 -0.3786
    1SOL     OW11485   2.502   2.415   0.652 -0.3525 -0.0389  1.1689
    1SOL    HW211486   2.594   2.441   0.647 -0.4881  0.8547  3.0677
    1SOL    HW311487   2.453   2.495   0.631 -0.6992 -0.0750  1.8062
    1SOL    MW411488   2.507   2.429   0.649 -0.4163  0.0741  1.5035
    1SOL     OW11489   3.483   3.735   3.498  0.0821 -0.6809 -0.3486
    1SOL    HW211490   3.404   3.788   3.489  0.4738 -0.2433 -1.2179
    1SOL    HW311491   3.542   3.767   3.430  0.3731 -2.1375 -0.8079
    1SOL    MW411492   3.481   3.746   3.488  0.1721 -0.8152 -0.5240
    1SOL     OW11493   4.112   3.916   2.109 -0.3806  0.0712  0.3213
    1SOL    HW211494   4.165   3.888   2.184  0.0921  0.6203  0.1985
    1SOL    HW311495   4.025   3.881   2.127 -1.3088  3.5017  3.1353
    1SOL    MW411496   4.108   3.908   2.122 -0.4406  0.5963  0.6764
    1SOL     OW11497   2.808   0.506   1.364  0.0875  0.4451 -0.1280
    1SOL    HW211498   2.740   0.569   1.340  0.6384  1.5372  1.0802
    1SOL    HW311499   2.888   0.559   1.371  0.6894 -0.5005  0.2624
    1SOL    MW411500   2.810   0.522   1.362  0.2396  0.4644  0.0830
    1SOL     OW11501   3.178   3.503   3.572  0.4884 -0.6839  0.1656
    1SOL    HW211502   3.231   3.540   3.501 -0.0294 -0.1423  0.0639
    1SOL    HW311503   3.107   3.457   3.528 -0.4874  0.6256  0.3481
    1SOL    MW411504   3.176   3.502   3.557  0.2909 -0.4394  0.1764
    1SOL     OW11505   2.761   2.556   1.062  0.0356  0.0321 -0.2048
    1SOL    HW211506   2.709   2.618   1.011  1.0028  0.5954 -0.5173
    1SOL    HW311507   2.820   2.517   0.998 -0.4146 -1.0575  0.0292
    1SOL    MW411508   2.762   2.559   1.047  0.1040 -0.0374 -0.2152
    1SOL     OW11509   1.247   1.947   3.135  0.3994  0.1647  1.0929
    1SOL    HW211510   1.308   1.925   3.206  2.0641  1.3889  0.0685
    1SOL    HW311511   1.243   2.042   3.135 -1.3589  0.1071  0.9930
    1SOL    MW411512   1.255   1.956   3.144  0.3870  0.3186  0.9446
    1SOL     OW11513   2.730   1.377   1.787 -0.7167  0.0986 -0.0893
    1SOL    HW211514   2.723   1.396   1.694 -1.1502  1.4726  0.2162
    1SOL    HW311515   2.789   1.301   1.792 -1.8905 -0.9289 -1.5697
    1SOL    MW411516   2.737   1.369   1.776 -0.9286  0.1444 -0.2444
    1SOL     OW11517   0.800   1.353   3.142 -0.5336  0.1702  0.0306
    1SOL    HW211518   0.888   1.316   3.145 -1.1692 -1.6008 -1.6404
    1SOL    HW311519   0.766   1.344   3.231 -0.2616 -2.3282 -0.0836
    1SOL    MW411520   0.807   1.346   3.154 -0.5816 -0.3930 -0.2048
    1SOL     OW11521   0.748   2.852   4.547  0.2623  0.0124  0.3094
    1SOL    HW211522   0.783   2.825   4.462  0.5961 -0.4207  0.5818
    1SOL    HW311523   0.734   2.946   4.538 -0.1738 -0.1129 -0.3905
    1SOL    MW411524   0.751   2.861   4.535  0.2488 -0.0610  0.2532
    1SOL     OW11525   2.579   2.614   1.388 -0.0008 -0.2291 -0.4477
    1SOL    HW211526   2.520   2.592   1.460  2.4905 -0.4864  1.5883
    1SOL    HW311527   2.623   2.531   1.367 -0.4396 -0.0755 -2.0520
    1SOL    MW411528   2.577   2.600   1.395  0.2701 -0.2427 -0.3908
    1SOL     OW11529   4.252   1.417   0.856  0.3276 -0.9100  0.9278
    1SOL    HW211530   4.331   1.365   0.843 -0.8846 -2.9775  1.5920
    1SOL    HW311531   4.180   1.357   0.836 -1.0645  1.2660 -0.8119
    1SOL    MW411532   4.253   1.402   0.852 -0.0153 -0.8957  0.7859
    1SOL     OW11533   4.063   4.250   1.982  0.2295 -0.1732  0.3479
    1SOL    HW211534   4.101   4.333   2.010  1.2479 -0.9457  1.3358
    1SOL    HW311535   4.135   4.203   1.939  0.4465 -1.6164  2.1752
    1SOL    MW411536   4.077   4.254   1.980  0.3929 -0.4659  0.7193
    1SOL     OW11537   3.058   3.649   3.762  0.7271 -0.7403 -0.8472
    1SOL    HW211538   2.975   3.688   3.732  0.5122  0.0290  0.7165
    1SOL    HW311539   3.083   3.589   3.691 -0.9924 -0.7310 -1.4868
    1SOL    MW411540   3.050   3.646   3.749  0.4721 -0.6373 -0.7255
    1SOL     OW11541   1.015   2.460   1.901 -0.3877 -0.3981  0.1292
    1SOL    HW211542   1.019   2.423   1.813 -0.3599  2.3634 -1.0718
    1SOL    HW311543   0.940   2.520   1.898 -1.1399 -1.1859  2.3543
    1SOL    MW411544   1.006   2.463   1.889 -0.4832 -0.1376  0.2643
    1SOL     OW11545   2.830   0.211   1.362  0.3609  0.0448 -0.3809
    1SOL    HW211546   2.921   0.209   1.331  0.2206 -1.1756 -0.7221
    1SOL    HW311547   2.807   0.304   1.360  1.9882  0.5029  0.8325
    1SOL    MW411548   2.839   0.223   1.357  0.5572 -0.0558 -0.2658
    1SOL     OW11549   3.029   3.100   3.632  0.0477 -0.5205  0.3569
    1SOL    HW211550   2.985   3.183   3.617 -3.4857 -1.7930  2.8985
    1SOL    HW311551   3.090   3.117   3.704  0.2697  0.1465  0.0115
    1SOL    MW411552   3.032   3.113   3.639 -0.3893 -0.6006  0.6468
    1SOL     OW11553   2.979   2.943   2.392 -0.0475 -0.4169  0.4963
    1SOL    HW211554   3.016   3.006   2.454  0.1601 -0.4155  0.3701
    1SOL    HW311555   2.990   2.984   2.306 -0.9869 -0.1010  0.5215
    1SOL    MW411556   2.985   2.956   2.389 -0.1440 -0.3750  0.4830
    1NA      NA11557   3.736   0.822   1.680 -0.4720  0.3081  0.0971
    1NA      NA11558   2.803   0.053   1.517  0.4233 -0.2224 -0.3566
   4.49070   4.66690  10.00000
