Giant Rising Ordinary Mutants for A Clerical Setup
  164
    1DG     O5'    1   0.098   0.560   1.121
    1DG     H5T    2   0.167   0.583   1.189
    1DG     C5'    3  -0.003   0.655   1.124
    1DG    H5'1    4   0.039   0.744   1.105
    1DG    H5'2    5  -0.042   0.655   1.216
    1DG     C4'    6  -0.108   0.625   1.024
    1DG     H4'    7  -0.183   0.688   1.045
    1DG     O4'    8  -0.058   0.649   0.894
    1DG     C1'    9  -0.091   0.543   0.807
    1DG     H1'   10  -0.170   0.571   0.752
    1DG      N9   11  -0.001   0.516   0.710
    1DG      C8   12   0.130   0.485   0.718
    1DG      H8   13   0.175   0.460   0.804
    1DG      N7   14   0.192   0.490   0.604
    1DG      C5   15   0.094   0.527   0.514
    1DG      C6   16   0.100   0.551   0.374
    1DG      O6   17   0.197   0.544   0.300
    1DG      N1   18  -0.021   0.587   0.322
    1DG      H1   19  -0.026   0.604   0.224
    1DG      C2   20  -0.134   0.601   0.395
    1DG      N2   21  -0.245   0.636   0.328
    1DG     H21   22  -0.241   0.650   0.229
    1DG     H22   23  -0.331   0.648   0.377
    1DG      N3   24  -0.142   0.582   0.526
    1DG      C4   25  -0.024   0.544   0.578
    1DG     C3'   26  -0.157   0.481   1.024
    1DG     H3'   27  -0.133   0.426   1.104
    1DG     C2'   28  -0.101   0.424   0.896
    1DG    H2'1   29  -0.011   0.383   0.911
    1DG    H2'2   30  -0.163   0.356   0.857
    1DG     O3'   31  -0.300   0.481   1.024
    2DG       P   32  -0.381   0.355   1.030
    2DG     O1P   33  -0.492   0.385   1.120
    2DG     O2P   34  -0.295   0.242   1.062
    2DG     O5'   35  -0.437   0.339   0.885
    2DG     C5'   36  -0.513   0.438   0.824
    2DG    H5'1   37  -0.461   0.523   0.828
    2DG    H5'2   38  -0.597   0.448   0.877
    2DG     C4'   39  -0.544   0.403   0.684
    2DG     H4'   40  -0.612   0.471   0.656
    2DG     O4'   41  -0.426   0.413   0.605
    2DG     C1'   42  -0.413   0.301   0.521
    2DG     H1'   43  -0.444   0.327   0.430
    2DG      N9   44  -0.286   0.262   0.495
    2DG      C8   45  -0.186   0.226   0.579
    2DG      H8   46  -0.200   0.207   0.676
    2DG      N7   47  -0.070   0.218   0.521
    2DG      C5   48  -0.095   0.251   0.390
    2DG      C6   49  -0.008   0.262   0.279
    2DG      O6   50   0.113   0.244   0.275
    2DG      N1   51  -0.074   0.298   0.164
    2DG      H1   52  -0.020   0.306   0.080
    2DG      C2   53  -0.207   0.323   0.157
    2DG      N2   54  -0.255   0.356   0.037
    2DG     H21   55  -0.194   0.361  -0.042
    2DG     H22   56  -0.352   0.376   0.026
    2DG      N3   57  -0.290   0.316   0.260
    2DG      C4   58  -0.227   0.279   0.373
    2DG     C3'   59  -0.597   0.262   0.662
    2DG     H3'   60  -0.630   0.214   0.743
    2DG     C2'   61  -0.482   0.191   0.594
    2DG    H2'1   62  -0.421   0.149   0.661
    2DG    H2'2   63  -0.515   0.121   0.530
    2DG     O3'   64  -0.713   0.268   0.580
    3DG       P   65  -0.793   0.146   0.544
    3DG     O1P   66  -0.933   0.189   0.552
    3DG     O2P   67  -0.751   0.033   0.626
    3DG     O5'   68  -0.757   0.120   0.394
    3DG     C5'   69  -0.775   0.215   0.296
    3DG    H5'1   70  -0.727   0.298   0.326
    3DG    H5'2   71  -0.873   0.233   0.290
    3DG     C4'   72  -0.723   0.170   0.166
    3DG     H4'   73  -0.756   0.239   0.102
    3DG     O4'   74  -0.581   0.167   0.169
    3DG     C1'   75  -0.532   0.047   0.114
    3DG     H1'   76  -0.503   0.064   0.020
    3DG      N9   77  -0.417   0.001   0.169
    3DG      C8   78  -0.387  -0.031   0.296
    3DG      H8   79  -0.456  -0.040   0.368
    3DG      N7   80  -0.260  -0.049   0.317
    3DG      C5   81  -0.201  -0.027   0.194
    3DG      C6   82  -0.066  -0.030   0.153
    3DG      O6   83   0.033  -0.053   0.220
    3DG      N1   84  -0.051  -0.002   0.020
    3DG      H1   85   0.042  -0.004  -0.018
    3DG      C2   86  -0.153   0.028  -0.064
    3DG      N2   87  -0.121   0.052  -0.191
    3DG     H21   88  -0.025   0.047  -0.220
    3DG     H22   89  -0.192   0.075  -0.257
    3DG      N3   90  -0.280   0.034  -0.028
    3DG      C4   91  -0.297   0.005   0.102
    3DG     C3'   92  -0.766   0.029   0.125
    3DG     H3'   93  -0.843  -0.010   0.175
    3DG     C2'   94  -0.639  -0.052   0.139
    3DG    H2'1   95  -0.630  -0.091   0.231
    3DG    H2'2   96  -0.635  -0.126   0.071
    3DG     O3'   97  -0.813   0.032  -0.010
    4DG       P   98  -0.868  -0.089  -0.079
    4DG     O1P   99  -0.983  -0.040  -0.156
    4DG     O2P  100  -0.890  -0.196   0.018
    4DG     O5'  101  -0.755  -0.130  -0.179
    4DG     C5'  102  -0.705  -0.043  -0.275
    4DG    H5'1  103  -0.676   0.040  -0.228
    4DG    H5'2  104  -0.779  -0.021  -0.338
    4DG     C4'  105  -0.592  -0.103  -0.348
    4DG     H4'  106  -0.576  -0.039  -0.424
    4DG     O4'  107  -0.478  -0.111  -0.263
    4DG     C1'  108  -0.417  -0.237  -0.273
    4DG     H1'  109  -0.338  -0.228  -0.334
    4DG      N9  110  -0.358  -0.283  -0.160
    4DG      C8  111  -0.410  -0.304  -0.037
    4DG      H8  112  -0.508  -0.303  -0.018
    4DG      N7  113  -0.320  -0.325   0.054
    4DG      C5  114  -0.200  -0.317  -0.013
    4DG      C6  115  -0.066  -0.329   0.032
    4DG      O6  116  -0.026  -0.350   0.145
    4DG      N1  117   0.025  -0.314  -0.069
    4DG      H1  118   0.122  -0.323  -0.046
    4DG      C2  119  -0.008  -0.288  -0.198
    4DG      N2  120   0.093  -0.277  -0.285
    4DG     H21  121   0.187  -0.288  -0.254
    4DG     H22  122   0.074  -0.258  -0.381
    4DG      N3  123  -0.132  -0.274  -0.243
    4DG      C4  124  -0.222  -0.290  -0.145
    4DG     C3'  125  -0.615  -0.245  -0.399
    4DG     H3'  126  -0.710  -0.277  -0.401
    4DG     C2'  127  -0.527  -0.330  -0.310
    4DG    H2'1  128  -0.576  -0.361  -0.229
    4DG    H2'2  129  -0.491  -0.409  -0.359
    4DG     O3'  130  -0.576  -0.252  -0.536
    5DG       P  131  -0.591  -0.377  -0.618
    5DG     O1P  132  -0.637  -0.330  -0.749
    5DG     O2P  133  -0.675  -0.473  -0.547
    5DG     O5'  134  -0.446  -0.431  -0.632
    5DG     C5'  135  -0.343  -0.356  -0.685
    5DG    H5'1  136  -0.339  -0.270  -0.634
    5DG    H5'2  137  -0.366  -0.337  -0.781
    5DG     C4'  138  -0.214  -0.426  -0.676
    5DG     H4'  139  -0.152  -0.370  -0.731
    5DG     O4'  140  -0.171  -0.431  -0.541
    5DG     C1'  141  -0.126  -0.560  -0.508
    5DG     H1'  142  -0.026  -0.560  -0.514
    5DG      N9  143  -0.147  -0.598  -0.379
    5DG      C8  144  -0.261  -0.605  -0.308
    5DG      H8  145  -0.352  -0.598  -0.349
    5DG      N7  146  -0.242  -0.622  -0.181
    5DG      C5  147  -0.105  -0.625  -0.167
    5DG      C6  148  -0.023  -0.638  -0.052
    5DG      O6  149  -0.057  -0.651   0.064
    5DG      N1  150   0.111  -0.636  -0.082
    5DG      H1  151   0.176  -0.647  -0.007
    5DG      C2  152   0.160  -0.620  -0.208
    5DG      N2  153   0.293  -0.622  -0.220
    5DG     H21  154   0.350  -0.635  -0.139
    5DG     H22  155   0.335  -0.611  -0.310
    5DG      N3  156   0.086  -0.605  -0.316
    5DG      C4  157  -0.045  -0.609  -0.288
    5DG     C3'  158  -0.216  -0.571  -0.724
    5DG     H3'  159  -0.295  -0.599  -0.779
    5DG     C2'  160  -0.202  -0.651  -0.596
    5DG    H2'1  161  -0.291  -0.672  -0.556
    5DG    H2'2  162  -0.151  -0.736  -0.611
    5DG     O3'  163  -0.106  -0.592  -0.813
    5DG     H3T  164  -0.107  -0.687  -0.845
   1.33332   1.47981   2.06112
