Giant Rising Ordinary Mutants for A Clerical Setup
  107
    1DG     C4'    1  -0.108   0.625   1.024
    1DG     O5'    2   0.098   0.560   1.121
    1DG     O3'    3  -0.300   0.481   1.024
    1DG     O4'    4  -0.058   0.649   0.894
    1DG     C1'    5  -0.091   0.543   0.807
    1DG     C2'    6  -0.101   0.424   0.896
    1DG     C5'    7  -0.003   0.655   1.124
    1DG     C3'    8  -0.157   0.481   1.024
    1DG      C4    9  -0.024   0.544   0.578
    1DG      N1   10  -0.021   0.587   0.322
    1DG      N9   11  -0.001   0.516   0.710
    1DG      C8   12   0.130   0.485   0.718
    1DG      O6   13   0.197   0.544   0.300
    1DG      C2   14  -0.134   0.601   0.395
    1DG      N2   15  -0.245   0.636   0.328
    1DG      N3   16  -0.142   0.582   0.526
    1DG      C6   17   0.100   0.551   0.374
    1DG      C5   18   0.094   0.527   0.514
    1DG      N7   19   0.192   0.490   0.604
    2DG     C4'   20  -0.544   0.403   0.684
    2DG     O5'   21  -0.437   0.339   0.885
    2DG     O3'   22  -0.713   0.268   0.580
    2DG     O4'   23  -0.426   0.413   0.605
    2DG     C1'   24  -0.413   0.301   0.521
    2DG     OP1   25  -0.492   0.385   1.120
    2DG     C2'   26  -0.482   0.191   0.594
    2DG       P   27  -0.381   0.355   1.030
    2DG     OP2   28  -0.295   0.242   1.062
    2DG     C5'   29  -0.513   0.438   0.824
    2DG     C3'   30  -0.597   0.262   0.662
    2DG      C4   31  -0.227   0.279   0.373
    2DG      N1   32  -0.074   0.298   0.164
    2DG      N9   33  -0.286   0.262   0.495
    2DG      C8   34  -0.186   0.226   0.579
    2DG      O6   35   0.113   0.244   0.275
    2DG      C2   36  -0.207   0.323   0.157
    2DG      N2   37  -0.255   0.356   0.037
    2DG      N3   38  -0.290   0.316   0.260
    2DG      C6   39  -0.008   0.262   0.279
    2DG      C5   40  -0.095   0.251   0.390
    2DG      N7   41  -0.070   0.218   0.521
    3DG     C4'   42  -0.723   0.170   0.166
    3DG     O5'   43  -0.757   0.120   0.394
    3DG     O3'   44  -0.813   0.032  -0.010
    3DG     O4'   45  -0.581   0.167   0.169
    3DG     C1'   46  -0.532   0.047   0.114
    3DG     OP1   47  -0.933   0.189   0.552
    3DG     C2'   48  -0.639  -0.052   0.139
    3DG       P   49  -0.793   0.146   0.544
    3DG     OP2   50  -0.751   0.033   0.626
    3DG     C5'   51  -0.775   0.215   0.296
    3DG     C3'   52  -0.766   0.029   0.125
    3DG      C4   53  -0.297   0.005   0.102
    3DG      N1   54  -0.051  -0.002   0.020
    3DG      N9   55  -0.417   0.001   0.169
    3DG      C8   56  -0.387  -0.031   0.296
    3DG      O6   57   0.033  -0.053   0.220
    3DG      C2   58  -0.153   0.028  -0.064
    3DG      N2   59  -0.121   0.052  -0.191
    3DG      N3   60  -0.280   0.034  -0.028
    3DG      C6   61  -0.066  -0.030   0.153
    3DG      C5   62  -0.201  -0.027   0.194
    3DG      N7   63  -0.260  -0.049   0.317
    4DG     C4'   64  -0.592  -0.103  -0.348
    4DG     O5'   65  -0.755  -0.130  -0.179
    4DG     O3'   66  -0.576  -0.252  -0.536
    4DG     O4'   67  -0.478  -0.111  -0.263
    4DG     C1'   68  -0.417  -0.237  -0.273
    4DG     OP1   69  -0.983  -0.040  -0.156
    4DG     C2'   70  -0.527  -0.330  -0.310
    4DG       P   71  -0.868  -0.089  -0.079
    4DG     OP2   72  -0.890  -0.196   0.018
    4DG     C5'   73  -0.705  -0.043  -0.275
    4DG     C3'   74  -0.615  -0.245  -0.399
    4DG      C4   75  -0.222  -0.290  -0.145
    4DG      N1   76   0.025  -0.314  -0.069
    4DG      N9   77  -0.358  -0.283  -0.160
    4DG      C8   78  -0.410  -0.304  -0.037
    4DG      O6   79  -0.026  -0.350   0.145
    4DG      C2   80  -0.008  -0.288  -0.198
    4DG      N2   81   0.093  -0.277  -0.285
    4DG      N3   82  -0.132  -0.274  -0.243
    4DG      C6   83  -0.066  -0.329   0.032
    4DG      C5   84  -0.200  -0.317  -0.013
    4DG      N7   85  -0.320  -0.325   0.054
    5DG     C4'   86  -0.214  -0.426  -0.676
    5DG     O5'   87  -0.446  -0.431  -0.632
    5DG     O3'   88  -0.106  -0.592  -0.813
    5DG     O4'   89  -0.171  -0.431  -0.541
    5DG     C1'   90  -0.126  -0.560  -0.508
    5DG     OP1   91  -0.637  -0.330  -0.749
    5DG     C2'   92  -0.202  -0.651  -0.596
    5DG       P   93  -0.591  -0.377  -0.618
    5DG     OP2   94  -0.675  -0.473  -0.547
    5DG     C5'   95  -0.343  -0.356  -0.685
    5DG     C3'   96  -0.216  -0.571  -0.724
    5DG      C4   97  -0.045  -0.609  -0.288
    5DG      N1   98   0.111  -0.636  -0.082
    5DG      N9   99  -0.147  -0.598  -0.379
    5DG      C8  100  -0.261  -0.605  -0.308
    5DG      O6  101  -0.057  -0.651   0.064
    5DG      C2  102   0.160  -0.620  -0.208
    5DG      N2  103   0.293  -0.622  -0.220
    5DG      N3  104   0.086  -0.605  -0.316
    5DG      C6  105  -0.023  -0.638  -0.052
    5DG      C5  106  -0.105  -0.625  -0.167
    5DG      N7  107  -0.242  -0.622  -0.181
   0.00000   0.00000   0.00000
