;
;	File 'topol.top' was generated
;	By user: root (1000)
;	On host: Cas2
;	At date: Wed Jul  9 15:20:01 2025
;
;	This is a standalone topology file
;
;	Created by:
;	                    :-) GROMACS - gmx pdb2gmx, 2020.3 (-:
;	
;	Executable:   /usr/local/gromacs/bin/gmx
;	Data prefix:  /usr/local/gromacs
;	Working dir:  /home/chemistry/MD/GGGGG_DNA
;	Command line:
;	  gmx pdb2gmx -f GGGGG.gro -ignh -o conf.gro
;	Force field was read from the standard GROMACS share directory.
;

; Include forcefield parameters
#include "amber_na_desres.ff/forcefield.itp"

[ moleculetype ]
; Name            nrexcl
DNA                 3

[ atoms ]
;   nr       type  resnr residue  atom   cgnr     charge       mass  typeB    chargeB      massB
; residue   1 DG  rtp DG5  q -0.3
     1         OH      1     DG    O5'      1    -0.6318         16
     2         HO      1     DG    H5T      2     0.4422      1.008
     3         CI      1     DG    C5'      3    -0.0069      12.01
     4         H1      1     DG   H5'1      4     0.0754      1.008
     5         H1      1     DG   H5'2      5     0.0754      1.008
     6         CT      1     DG    C4'      6     0.1629      12.01
     7         H1      1     DG    H4'      7     0.1176      1.008
     8         OS      1     DG    O4'      8    -0.3691         16
     9         CT      1     DG    C1'      9     0.0358      12.01
    10         H2      1     DG    H1'     10     0.1746      1.008
    11         N*      1     DG     N9     11     0.0577      14.01
    12         CK      1     DG     C8     12     0.0736      12.01
    13         H5      1     DG     H8     13     0.1997      1.008
    14         NB      1     DG     N7     14    -0.5725      14.01
    15         CB      1     DG     C5     15     0.1991      12.01
    16          C      1     DG     C6     16     0.4918      12.01
    17          O      1     DG     O6     17    -0.5699         16
    18         NA      1     DG     N1     18    -0.5053      14.01
    19          H      1     DG     H1     19      0.352      1.008
    20         CA      1     DG     C2     20     0.7432      12.01
    21         N2      1     DG     N2     21     -0.923      14.01
    22          H      1     DG    H21     22     0.4235      1.008
    23          H      1     DG    H22     23     0.4235      1.008
    24         NC      1     DG     N3     24    -0.6636      14.01
    25         CB      1     DG     C4     25     0.1814      12.01
    26         CT      1     DG    C3'     26     0.0713      12.01
    27         H1      1     DG    H3'     27     0.0985      1.008
    28         CT      1     DG    C2'     28    -0.0854      12.01
    29         HC      1     DG   H2'1     29     0.0718      1.008
    30         HC      1     DG   H2'2     30     0.0718      1.008
    31         OS      1     DG    O3'     31    -0.5232         16   ; qtot -0.3079
; residue   2 DG  rtp DG   q -1.0
    32          P      2     DG      P     32     1.1659      30.97
    33         O2      2     DG    O1P     33    -0.7761         16
    34         O2      2     DG    O2P     34    -0.7761         16
    35         OS      2     DG    O5'     35    -0.4954         16
    36         CI      2     DG    C5'     36    -0.0069      12.01
    37         H1      2     DG   H5'1     37     0.0754      1.008
    38         H1      2     DG   H5'2     38     0.0754      1.008
    39         CT      2     DG    C4'     39     0.1629      12.01
    40         H1      2     DG    H4'     40     0.1176      1.008
    41         OS      2     DG    O4'     41    -0.3691         16
    42         CT      2     DG    C1'     42     0.0358      12.01
    43         H2      2     DG    H1'     43     0.1746      1.008
    44         N*      2     DG     N9     44     0.0577      14.01
    45         CK      2     DG     C8     45     0.0736      12.01
    46         H5      2     DG     H8     46     0.1997      1.008
    47         NB      2     DG     N7     47    -0.5725      14.01
    48         CB      2     DG     C5     48     0.1991      12.01
    49          C      2     DG     C6     49     0.4918      12.01
    50          O      2     DG     O6     50    -0.5699         16
    51         NA      2     DG     N1     51    -0.5053      14.01
    52          H      2     DG     H1     52      0.352      1.008
    53         CA      2     DG     C2     53     0.7432      12.01
    54         N2      2     DG     N2     54     -0.923      14.01
    55          H      2     DG    H21     55     0.4235      1.008
    56          H      2     DG    H22     56     0.4235      1.008
    57         NC      2     DG     N3     57    -0.6636      14.01
    58         CB      2     DG     C4     58     0.1814      12.01
    59         CT      2     DG    C3'     59     0.0713      12.01
    60         H1      2     DG    H3'     60     0.0985      1.008
    61         CT      2     DG    C2'     61    -0.0854      12.01
    62         HC      2     DG   H2'1     62     0.0718      1.008
    63         HC      2     DG   H2'2     63     0.0718      1.008
    64         OS      2     DG    O3'     64    -0.5232         16   ; qtot -1.308
; residue   3 DG  rtp DG   q -1.0
    65          P      3     DG      P     65     1.1659      30.97
    66         O2      3     DG    O1P     66    -0.7761         16
    67         O2      3     DG    O2P     67    -0.7761         16
    68         OS      3     DG    O5'     68    -0.4954         16
    69         CI      3     DG    C5'     69    -0.0069      12.01
    70         H1      3     DG   H5'1     70     0.0754      1.008
    71         H1      3     DG   H5'2     71     0.0754      1.008
    72         CT      3     DG    C4'     72     0.1629      12.01
    73         H1      3     DG    H4'     73     0.1176      1.008
    74         OS      3     DG    O4'     74    -0.3691         16
    75         CT      3     DG    C1'     75     0.0358      12.01
    76         H2      3     DG    H1'     76     0.1746      1.008
    77         N*      3     DG     N9     77     0.0577      14.01
    78         CK      3     DG     C8     78     0.0736      12.01
    79         H5      3     DG     H8     79     0.1997      1.008
    80         NB      3     DG     N7     80    -0.5725      14.01
    81         CB      3     DG     C5     81     0.1991      12.01
    82          C      3     DG     C6     82     0.4918      12.01
    83          O      3     DG     O6     83    -0.5699         16
    84         NA      3     DG     N1     84    -0.5053      14.01
    85          H      3     DG     H1     85      0.352      1.008
    86         CA      3     DG     C2     86     0.7432      12.01
    87         N2      3     DG     N2     87     -0.923      14.01
    88          H      3     DG    H21     88     0.4235      1.008
    89          H      3     DG    H22     89     0.4235      1.008
    90         NC      3     DG     N3     90    -0.6636      14.01
    91         CB      3     DG     C4     91     0.1814      12.01
    92         CT      3     DG    C3'     92     0.0713      12.01
    93         H1      3     DG    H3'     93     0.0985      1.008
    94         CT      3     DG    C2'     94    -0.0854      12.01
    95         HC      3     DG   H2'1     95     0.0718      1.008
    96         HC      3     DG   H2'2     96     0.0718      1.008
    97         OS      3     DG    O3'     97    -0.5232         16   ; qtot -2.308
; residue   4 DG  rtp DG   q -1.0
    98          P      4     DG      P     98     1.1659      30.97
    99         O2      4     DG    O1P     99    -0.7761         16
   100         O2      4     DG    O2P    100    -0.7761         16
   101         OS      4     DG    O5'    101    -0.4954         16
   102         CI      4     DG    C5'    102    -0.0069      12.01
   103         H1      4     DG   H5'1    103     0.0754      1.008
   104         H1      4     DG   H5'2    104     0.0754      1.008
   105         CT      4     DG    C4'    105     0.1629      12.01
   106         H1      4     DG    H4'    106     0.1176      1.008
   107         OS      4     DG    O4'    107    -0.3691         16
   108         CT      4     DG    C1'    108     0.0358      12.01
   109         H2      4     DG    H1'    109     0.1746      1.008
   110         N*      4     DG     N9    110     0.0577      14.01
   111         CK      4     DG     C8    111     0.0736      12.01
   112         H5      4     DG     H8    112     0.1997      1.008
   113         NB      4     DG     N7    113    -0.5725      14.01
   114         CB      4     DG     C5    114     0.1991      12.01
   115          C      4     DG     C6    115     0.4918      12.01
   116          O      4     DG     O6    116    -0.5699         16
   117         NA      4     DG     N1    117    -0.5053      14.01
   118          H      4     DG     H1    118      0.352      1.008
   119         CA      4     DG     C2    119     0.7432      12.01
   120         N2      4     DG     N2    120     -0.923      14.01
   121          H      4     DG    H21    121     0.4235      1.008
   122          H      4     DG    H22    122     0.4235      1.008
   123         NC      4     DG     N3    123    -0.6636      14.01
   124         CB      4     DG     C4    124     0.1814      12.01
   125         CT      4     DG    C3'    125     0.0713      12.01
   126         H1      4     DG    H3'    126     0.0985      1.008
   127         CT      4     DG    C2'    127    -0.0854      12.01
   128         HC      4     DG   H2'1    128     0.0718      1.008
   129         HC      4     DG   H2'2    129     0.0718      1.008
   130         OS      4     DG    O3'    130    -0.5232         16   ; qtot -3.308
; residue   5 DG  rtp DG3  q -0.7
   131          P      5     DG      P    131     1.1659      30.97
   132         O2      5     DG    O1P    132    -0.7761         16
   133         O2      5     DG    O2P    133    -0.7761         16
   134         OS      5     DG    O5'    134    -0.4954         16
   135         CI      5     DG    C5'    135    -0.0069      12.01
   136         H1      5     DG   H5'1    136     0.0754      1.008
   137         H1      5     DG   H5'2    137     0.0754      1.008
   138         CT      5     DG    C4'    138     0.1629      12.01
   139         H1      5     DG    H4'    139     0.1176      1.008
   140         OS      5     DG    O4'    140    -0.3691         16
   141         CT      5     DG    C1'    141     0.0358      12.01
   142         H2      5     DG    H1'    142     0.1746      1.008
   143         N*      5     DG     N9    143     0.0577      14.01
   144         CK      5     DG     C8    144     0.0736      12.01
   145         H5      5     DG     H8    145     0.1997      1.008
   146         NB      5     DG     N7    146    -0.5725      14.01
   147         CB      5     DG     C5    147     0.1991      12.01
   148          C      5     DG     C6    148     0.4918      12.01
   149          O      5     DG     O6    149    -0.5699         16
   150         NA      5     DG     N1    150    -0.5053      14.01
   151          H      5     DG     H1    151      0.352      1.008
   152         CA      5     DG     C2    152     0.7432      12.01
   153         N2      5     DG     N2    153     -0.923      14.01
   154          H      5     DG    H21    154     0.4235      1.008
   155          H      5     DG    H22    155     0.4235      1.008
   156         NC      5     DG     N3    156    -0.6636      14.01
   157         CB      5     DG     C4    157     0.1814      12.01
   158         CT      5     DG    C3'    158     0.0713      12.01
   159         H1      5     DG    H3'    159     0.0985      1.008
   160         CT      5     DG    C2'    160    -0.0854      12.01
   161         HC      5     DG   H2'1    161     0.0718      1.008
   162         HC      5     DG   H2'2    162     0.0718      1.008
   163         OH      5     DG    O3'    163    -0.6549         16
   164         HO      5     DG    H3T    164     0.4396      1.008   ; qtot -4

[ bonds ]
;  ai    aj funct            c0            c1            c2            c3
    1     2     1 
    1     3     1 
    3     4     1 
    3     5     1 
    3     6     1 
    6     7     1 
    6     8     1 
    6    26     1 
    8     9     1 
    9    10     1 
    9    11     1 
    9    28     1 
   11    12     1 
   11    25     1 
   12    13     1 
   12    14     1 
   14    15     1 
   15    16     1 
   15    25     1 
   16    17     1 
   16    18     1 
   18    19     1 
   18    20     1 
   20    21     1 
   20    24     1 
   21    22     1 
   21    23     1 
   24    25     1 
   26    27     1 
   26    28     1 
   26    31     1 
   28    29     1 
   28    30     1 
   31    32     1 
   32    33     1 
   32    34     1 
   32    35     1 
   35    36     1 
   36    37     1 
   36    38     1 
   36    39     1 
   39    40     1 
   39    41     1 
   39    59     1 
   41    42     1 
   42    43     1 
   42    44     1 
   42    61     1 
   44    45     1 
   44    58     1 
   45    46     1 
   45    47     1 
   47    48     1 
   48    49     1 
   48    58     1 
   49    50     1 
   49    51     1 
   51    52     1 
   51    53     1 
   53    54     1 
   53    57     1 
   54    55     1 
   54    56     1 
   57    58     1 
   59    60     1 
   59    61     1 
   59    64     1 
   61    62     1 
   61    63     1 
   64    65     1 
   65    66     1 
   65    67     1 
   65    68     1 
   68    69     1 
   69    70     1 
   69    71     1 
   69    72     1 
   72    73     1 
   72    74     1 
   72    92     1 
   74    75     1 
   75    76     1 
   75    77     1 
   75    94     1 
   77    78     1 
   77    91     1 
   78    79     1 
   78    80     1 
   80    81     1 
   81    82     1 
   81    91     1 
   82    83     1 
   82    84     1 
   84    85     1 
   84    86     1 
   86    87     1 
   86    90     1 
   87    88     1 
   87    89     1 
   90    91     1 
   92    93     1 
   92    94     1 
   92    97     1 
   94    95     1 
   94    96     1 
   97    98     1 
   98    99     1 
   98   100     1 
   98   101     1 
  101   102     1 
  102   103     1 
  102   104     1 
  102   105     1 
  105   106     1 
  105   107     1 
  105   125     1 
  107   108     1 
  108   109     1 
  108   110     1 
  108   127     1 
  110   111     1 
  110   124     1 
  111   112     1 
  111   113     1 
  113   114     1 
  114   115     1 
  114   124     1 
  115   116     1 
  115   117     1 
  117   118     1 
  117   119     1 
  119   120     1 
  119   123     1 
  120   121     1 
  120   122     1 
  123   124     1 
  125   126     1 
  125   127     1 
  125   130     1 
  127   128     1 
  127   129     1 
  130   131     1 
  131   132     1 
  131   133     1 
  131   134     1 
  134   135     1 
  135   136     1 
  135   137     1 
  135   138     1 
  138   139     1 
  138   140     1 
  138   158     1 
  140   141     1 
  141   142     1 
  141   143     1 
  141   160     1 
  143   144     1 
  143   157     1 
  144   145     1 
  144   146     1 
  146   147     1 
  147   148     1 
  147   157     1 
  148   149     1 
  148   150     1 
  150   151     1 
  150   152     1 
  152   153     1 
  152   156     1 
  153   154     1 
  153   155     1 
  156   157     1 
  158   159     1 
  158   160     1 
  158   163     1 
  160   161     1 
  160   162     1 
  163   164     1 

[ pairs ]
;  ai    aj funct            c0            c1            c2            c3
    1     7     1 
    1     8     1 
    1    26     1 
    2     4     1 
    2     5     1 
    2     6     1 
    3     9     1 
    3    27     1 
    3    28     1 
    3    31     1 
    4     7     1 
    4     8     1 
    4    26     1 
    5     7     1 
    5     8     1 
    5    26     1 
    6    10     1 
    6    11     1 
    6    29     1 
    6    30     1 
    6    32     1 
    7     9     1 
    7    27     1 
    7    28     1 
    7    31     1 
    8    12     1 
    8    25     1 
    8    27     1 
    8    29     1 
    8    30     1 
    8    31     1 
    9    13     1 
    9    14     1 
    9    15     1 
    9    24     1 
    9    27     1 
    9    31     1 
   10    12     1 
   10    25     1 
   10    26     1 
   10    29     1 
   10    30     1 
   11    16     1 
   11    20     1 
   11    26     1 
   11    29     1 
   11    30     1 
   12    16     1 
   12    24     1 
   12    28     1 
   13    15     1 
   13    25     1 
   14    17     1 
   14    18     1 
   14    24     1 
   15    19     1 
   15    20     1 
   16    21     1 
   16    24     1 
   17    19     1 
   17    20     1 
   17    25     1 
   18    22     1 
   18    23     1 
   18    25     1 
   19    21     1 
   19    24     1 
   21    25     1 
   22    24     1 
   23    24     1 
   25    28     1 
   26    33     1 
   26    34     1 
   26    35     1 
   27    29     1 
   27    30     1 
   27    32     1 
   28    32     1 
   29    31     1 
   30    31     1 
   31    36     1 
   32    37     1 
   32    38     1 
   32    39     1 
   33    36     1 
   34    36     1 
   35    40     1 
   35    41     1 
   35    59     1 
   36    42     1 
   36    60     1 
   36    61     1 
   36    64     1 
   37    40     1 
   37    41     1 
   37    59     1 
   38    40     1 
   38    41     1 
   38    59     1 
   39    43     1 
   39    44     1 
   39    62     1 
   39    63     1 
   39    65     1 
   40    42     1 
   40    60     1 
   40    61     1 
   40    64     1 
   41    45     1 
   41    58     1 
   41    60     1 
   41    62     1 
   41    63     1 
   41    64     1 
   42    46     1 
   42    47     1 
   42    48     1 
   42    57     1 
   42    60     1 
   42    64     1 
   43    45     1 
   43    58     1 
   43    59     1 
   43    62     1 
   43    63     1 
   44    49     1 
   44    53     1 
   44    59     1 
   44    62     1 
   44    63     1 
   45    49     1 
   45    57     1 
   45    61     1 
   46    48     1 
   46    58     1 
   47    50     1 
   47    51     1 
   47    57     1 
   48    52     1 
   48    53     1 
   49    54     1 
   49    57     1 
   50    52     1 
   50    53     1 
   50    58     1 
   51    55     1 
   51    56     1 
   51    58     1 
   52    54     1 
   52    57     1 
   54    58     1 
   55    57     1 
   56    57     1 
   58    61     1 
   59    66     1 
   59    67     1 
   59    68     1 
   60    62     1 
   60    63     1 
   60    65     1 
   61    65     1 
   62    64     1 
   63    64     1 
   64    69     1 
   65    70     1 
   65    71     1 
   65    72     1 
   66    69     1 
   67    69     1 
   68    73     1 
   68    74     1 
   68    92     1 
   69    75     1 
   69    93     1 
   69    94     1 
   69    97     1 
   70    73     1 
   70    74     1 
   70    92     1 
   71    73     1 
   71    74     1 
   71    92     1 
   72    76     1 
   72    77     1 
   72    95     1 
   72    96     1 
   72    98     1 
   73    75     1 
   73    93     1 
   73    94     1 
   73    97     1 
   74    78     1 
   74    91     1 
   74    93     1 
   74    95     1 
   74    96     1 
   74    97     1 
   75    79     1 
   75    80     1 
   75    81     1 
   75    90     1 
   75    93     1 
   75    97     1 
   76    78     1 
   76    91     1 
   76    92     1 
   76    95     1 
   76    96     1 
   77    82     1 
   77    86     1 
   77    92     1 
   77    95     1 
   77    96     1 
   78    82     1 
   78    90     1 
   78    94     1 
   79    81     1 
   79    91     1 
   80    83     1 
   80    84     1 
   80    90     1 
   81    85     1 
   81    86     1 
   82    87     1 
   82    90     1 
   83    85     1 
   83    86     1 
   83    91     1 
   84    88     1 
   84    89     1 
   84    91     1 
   85    87     1 
   85    90     1 
   87    91     1 
   88    90     1 
   89    90     1 
   91    94     1 
   92    99     1 
   92   100     1 
   92   101     1 
   93    95     1 
   93    96     1 
   93    98     1 
   94    98     1 
   95    97     1 
   96    97     1 
   97   102     1 
   98   103     1 
   98   104     1 
   98   105     1 
   99   102     1 
  100   102     1 
  101   106     1 
  101   107     1 
  101   125     1 
  102   108     1 
  102   126     1 
  102   127     1 
  102   130     1 
  103   106     1 
  103   107     1 
  103   125     1 
  104   106     1 
  104   107     1 
  104   125     1 
  105   109     1 
  105   110     1 
  105   128     1 
  105   129     1 
  105   131     1 
  106   108     1 
  106   126     1 
  106   127     1 
  106   130     1 
  107   111     1 
  107   124     1 
  107   126     1 
  107   128     1 
  107   129     1 
  107   130     1 
  108   112     1 
  108   113     1 
  108   114     1 
  108   123     1 
  108   126     1 
  108   130     1 
  109   111     1 
  109   124     1 
  109   125     1 
  109   128     1 
  109   129     1 
  110   115     1 
  110   119     1 
  110   125     1 
  110   128     1 
  110   129     1 
  111   115     1 
  111   123     1 
  111   127     1 
  112   114     1 
  112   124     1 
  113   116     1 
  113   117     1 
  113   123     1 
  114   118     1 
  114   119     1 
  115   120     1 
  115   123     1 
  116   118     1 
  116   119     1 
  116   124     1 
  117   121     1 
  117   122     1 
  117   124     1 
  118   120     1 
  118   123     1 
  120   124     1 
  121   123     1 
  122   123     1 
  124   127     1 
  125   132     1 
  125   133     1 
  125   134     1 
  126   128     1 
  126   129     1 
  126   131     1 
  127   131     1 
  128   130     1 
  129   130     1 
  130   135     1 
  131   136     1 
  131   137     1 
  131   138     1 
  132   135     1 
  133   135     1 
  134   139     1 
  134   140     1 
  134   158     1 
  135   141     1 
  135   159     1 
  135   160     1 
  135   163     1 
  136   139     1 
  136   140     1 
  136   158     1 
  137   139     1 
  137   140     1 
  137   158     1 
  138   142     1 
  138   143     1 
  138   161     1 
  138   162     1 
  138   164     1 
  139   141     1 
  139   159     1 
  139   160     1 
  139   163     1 
  140   144     1 
  140   157     1 
  140   159     1 
  140   161     1 
  140   162     1 
  140   163     1 
  141   145     1 
  141   146     1 
  141   147     1 
  141   156     1 
  141   159     1 
  141   163     1 
  142   144     1 
  142   157     1 
  142   158     1 
  142   161     1 
  142   162     1 
  143   148     1 
  143   152     1 
  143   158     1 
  143   161     1 
  143   162     1 
  144   148     1 
  144   156     1 
  144   160     1 
  145   147     1 
  145   157     1 
  146   149     1 
  146   150     1 
  146   156     1 
  147   151     1 
  147   152     1 
  148   153     1 
  148   156     1 
  149   151     1 
  149   152     1 
  149   157     1 
  150   154     1 
  150   155     1 
  150   157     1 
  151   153     1 
  151   156     1 
  153   157     1 
  154   156     1 
  155   156     1 
  157   160     1 
  159   161     1 
  159   162     1 
  159   164     1 
  160   164     1 
  161   163     1 
  162   163     1 

[ angles ]
;  ai    aj    ak funct            c0            c1            c2            c3
    2     1     3     1 
    1     3     4     1 
    1     3     5     1 
    1     3     6     1 
    4     3     5     1 
    4     3     6     1 
    5     3     6     1 
    3     6     7     1 
    3     6     8     1 
    3     6    26     1 
    7     6     8     1 
    7     6    26     1 
    8     6    26     1 
    6     8     9     1 
    8     9    10     1 
    8     9    11     1 
    8     9    28     1 
   10     9    11     1 
   10     9    28     1 
   11     9    28     1 
    9    11    12     1 
    9    11    25     1 
   12    11    25     1 
   11    12    13     1 
   11    12    14     1 
   13    12    14     1 
   12    14    15     1 
   14    15    16     1 
   14    15    25     1 
   16    15    25     1 
   15    16    17     1 
   15    16    18     1 
   17    16    18     1 
   16    18    19     1 
   16    18    20     1 
   19    18    20     1 
   18    20    21     1 
   18    20    24     1 
   21    20    24     1 
   20    21    22     1 
   20    21    23     1 
   22    21    23     1 
   20    24    25     1 
   11    25    15     1 
   11    25    24     1 
   15    25    24     1 
    6    26    27     1 
    6    26    28     1 
    6    26    31     1 
   27    26    28     1 
   27    26    31     1 
   28    26    31     1 
    9    28    26     1 
    9    28    29     1 
    9    28    30     1 
   26    28    29     1 
   26    28    30     1 
   29    28    30     1 
   26    31    32     1 
   31    32    33     1 
   31    32    34     1 
   31    32    35     1 
   33    32    34     1 
   33    32    35     1 
   34    32    35     1 
   32    35    36     1 
   35    36    37     1 
   35    36    38     1 
   35    36    39     1 
   37    36    38     1 
   37    36    39     1 
   38    36    39     1 
   36    39    40     1 
   36    39    41     1 
   36    39    59     1 
   40    39    41     1 
   40    39    59     1 
   41    39    59     1 
   39    41    42     1 
   41    42    43     1 
   41    42    44     1 
   41    42    61     1 
   43    42    44     1 
   43    42    61     1 
   44    42    61     1 
   42    44    45     1 
   42    44    58     1 
   45    44    58     1 
   44    45    46     1 
   44    45    47     1 
   46    45    47     1 
   45    47    48     1 
   47    48    49     1 
   47    48    58     1 
   49    48    58     1 
   48    49    50     1 
   48    49    51     1 
   50    49    51     1 
   49    51    52     1 
   49    51    53     1 
   52    51    53     1 
   51    53    54     1 
   51    53    57     1 
   54    53    57     1 
   53    54    55     1 
   53    54    56     1 
   55    54    56     1 
   53    57    58     1 
   44    58    48     1 
   44    58    57     1 
   48    58    57     1 
   39    59    60     1 
   39    59    61     1 
   39    59    64     1 
   60    59    61     1 
   60    59    64     1 
   61    59    64     1 
   42    61    59     1 
   42    61    62     1 
   42    61    63     1 
   59    61    62     1 
   59    61    63     1 
   62    61    63     1 
   59    64    65     1 
   64    65    66     1 
   64    65    67     1 
   64    65    68     1 
   66    65    67     1 
   66    65    68     1 
   67    65    68     1 
   65    68    69     1 
   68    69    70     1 
   68    69    71     1 
   68    69    72     1 
   70    69    71     1 
   70    69    72     1 
   71    69    72     1 
   69    72    73     1 
   69    72    74     1 
   69    72    92     1 
   73    72    74     1 
   73    72    92     1 
   74    72    92     1 
   72    74    75     1 
   74    75    76     1 
   74    75    77     1 
   74    75    94     1 
   76    75    77     1 
   76    75    94     1 
   77    75    94     1 
   75    77    78     1 
   75    77    91     1 
   78    77    91     1 
   77    78    79     1 
   77    78    80     1 
   79    78    80     1 
   78    80    81     1 
   80    81    82     1 
   80    81    91     1 
   82    81    91     1 
   81    82    83     1 
   81    82    84     1 
   83    82    84     1 
   82    84    85     1 
   82    84    86     1 
   85    84    86     1 
   84    86    87     1 
   84    86    90     1 
   87    86    90     1 
   86    87    88     1 
   86    87    89     1 
   88    87    89     1 
   86    90    91     1 
   77    91    81     1 
   77    91    90     1 
   81    91    90     1 
   72    92    93     1 
   72    92    94     1 
   72    92    97     1 
   93    92    94     1 
   93    92    97     1 
   94    92    97     1 
   75    94    92     1 
   75    94    95     1 
   75    94    96     1 
   92    94    95     1 
   92    94    96     1 
   95    94    96     1 
   92    97    98     1 
   97    98    99     1 
   97    98   100     1 
   97    98   101     1 
   99    98   100     1 
   99    98   101     1 
  100    98   101     1 
   98   101   102     1 
  101   102   103     1 
  101   102   104     1 
  101   102   105     1 
  103   102   104     1 
  103   102   105     1 
  104   102   105     1 
  102   105   106     1 
  102   105   107     1 
  102   105   125     1 
  106   105   107     1 
  106   105   125     1 
  107   105   125     1 
  105   107   108     1 
  107   108   109     1 
  107   108   110     1 
  107   108   127     1 
  109   108   110     1 
  109   108   127     1 
  110   108   127     1 
  108   110   111     1 
  108   110   124     1 
  111   110   124     1 
  110   111   112     1 
  110   111   113     1 
  112   111   113     1 
  111   113   114     1 
  113   114   115     1 
  113   114   124     1 
  115   114   124     1 
  114   115   116     1 
  114   115   117     1 
  116   115   117     1 
  115   117   118     1 
  115   117   119     1 
  118   117   119     1 
  117   119   120     1 
  117   119   123     1 
  120   119   123     1 
  119   120   121     1 
  119   120   122     1 
  121   120   122     1 
  119   123   124     1 
  110   124   114     1 
  110   124   123     1 
  114   124   123     1 
  105   125   126     1 
  105   125   127     1 
  105   125   130     1 
  126   125   127     1 
  126   125   130     1 
  127   125   130     1 
  108   127   125     1 
  108   127   128     1 
  108   127   129     1 
  125   127   128     1 
  125   127   129     1 
  128   127   129     1 
  125   130   131     1 
  130   131   132     1 
  130   131   133     1 
  130   131   134     1 
  132   131   133     1 
  132   131   134     1 
  133   131   134     1 
  131   134   135     1 
  134   135   136     1 
  134   135   137     1 
  134   135   138     1 
  136   135   137     1 
  136   135   138     1 
  137   135   138     1 
  135   138   139     1 
  135   138   140     1 
  135   138   158     1 
  139   138   140     1 
  139   138   158     1 
  140   138   158     1 
  138   140   141     1 
  140   141   142     1 
  140   141   143     1 
  140   141   160     1 
  142   141   143     1 
  142   141   160     1 
  143   141   160     1 
  141   143   144     1 
  141   143   157     1 
  144   143   157     1 
  143   144   145     1 
  143   144   146     1 
  145   144   146     1 
  144   146   147     1 
  146   147   148     1 
  146   147   157     1 
  148   147   157     1 
  147   148   149     1 
  147   148   150     1 
  149   148   150     1 
  148   150   151     1 
  148   150   152     1 
  151   150   152     1 
  150   152   153     1 
  150   152   156     1 
  153   152   156     1 
  152   153   154     1 
  152   153   155     1 
  154   153   155     1 
  152   156   157     1 
  143   157   147     1 
  143   157   156     1 
  147   157   156     1 
  138   158   159     1 
  138   158   160     1 
  138   158   163     1 
  159   158   160     1 
  159   158   163     1 
  160   158   163     1 
  141   160   158     1 
  141   160   161     1 
  141   160   162     1 
  158   160   161     1 
  158   160   162     1 
  161   160   162     1 
  158   163   164     1 

[ dihedrals ]
;  ai    aj    ak    al funct            c0            c1            c2            c3            c4            c5
    2     1     3     4     9 
    2     1     3     5     9 
    2     1     3     6     9 
    1     3     6     7     9 
    1     3     6     8     9 
    1     3     6    26     9 
    4     3     6     7     9 
    4     3     6     8     9 
    4     3     6    26     9 
    5     3     6     7     9 
    5     3     6     8     9 
    5     3     6    26     9 
    3     6     8     9     9 
    7     6     8     9     9 
   26     6     8     9     9 
    3     6    26    27     9 
    3     6    26    28     9 
    3     6    26    31     9 
    7     6    26    27     9 
    7     6    26    28     9 
    7     6    26    31     9 
    8     6    26    27     9 
    8     6    26    28     9 
    8     6    26    31     9 
    6     8     9    10     9 
    6     8     9    11     9 
    6     8     9    28     9 
    8     9    11    12     9 
    8     9    11    25     9 
   10     9    11    12     9 
   10     9    11    25     9 
   28     9    11    12     9 
   28     9    11    25     9 
    8     9    28    26     9 
    8     9    28    29     9 
    8     9    28    30     9 
   10     9    28    26     9 
   10     9    28    29     9 
   10     9    28    30     9 
   11     9    28    26     9 
   11     9    28    29     9 
   11     9    28    30     9 
    9    11    12    13     9 
    9    11    12    14     9 
   25    11    12    13     9 
   25    11    12    14     9 
    9    11    25    15     9 
    9    11    25    24     9 
   12    11    25    15     9 
   12    11    25    24     9 
   11    12    14    15     9 
   13    12    14    15     9 
   12    14    15    16     9 
   12    14    15    25     9 
   14    15    16    17     9 
   14    15    16    18     9 
   25    15    16    17     9 
   25    15    16    18     9 
   14    15    25    11     9 
   14    15    25    24     9 
   16    15    25    11     9 
   16    15    25    24     9 
   15    16    18    19     9 
   15    16    18    20     9 
   17    16    18    19     9 
   17    16    18    20     9 
   16    18    20    21     9 
   16    18    20    24     9 
   19    18    20    21     9 
   19    18    20    24     9 
   18    20    21    22     9 
   18    20    21    23     9 
   24    20    21    22     9 
   24    20    21    23     9 
   18    20    24    25     9 
   21    20    24    25     9 
   20    24    25    11     9 
   20    24    25    15     9 
    6    26    28     9     9 
    6    26    28    29     9 
    6    26    28    30     9 
   27    26    28     9     9 
   27    26    28    29     9 
   27    26    28    30     9 
   31    26    28     9     9 
   31    26    28    29     9 
   31    26    28    30     9 
    6    26    31    32     9 
   27    26    31    32     9 
   28    26    31    32     9 
   26    31    32    33     9 
   26    31    32    34     9 
   26    31    32    35     9 
   31    32    35    36     9 
   33    32    35    36     9 
   34    32    35    36     9 
   32    35    36    37     9 
   32    35    36    38     9 
   32    35    36    39     9 
   35    36    39    40     9 
   35    36    39    41     9 
   35    36    39    59     9 
   37    36    39    40     9 
   37    36    39    41     9 
   37    36    39    59     9 
   38    36    39    40     9 
   38    36    39    41     9 
   38    36    39    59     9 
   36    39    41    42     9 
   40    39    41    42     9 
   59    39    41    42     9 
   36    39    59    60     9 
   36    39    59    61     9 
   36    39    59    64     9 
   40    39    59    60     9 
   40    39    59    61     9 
   40    39    59    64     9 
   41    39    59    60     9 
   41    39    59    61     9 
   41    39    59    64     9 
   39    41    42    43     9 
   39    41    42    44     9 
   39    41    42    61     9 
   41    42    44    45     9 
   41    42    44    58     9 
   43    42    44    45     9 
   43    42    44    58     9 
   61    42    44    45     9 
   61    42    44    58     9 
   41    42    61    59     9 
   41    42    61    62     9 
   41    42    61    63     9 
   43    42    61    59     9 
   43    42    61    62     9 
   43    42    61    63     9 
   44    42    61    59     9 
   44    42    61    62     9 
   44    42    61    63     9 
   42    44    45    46     9 
   42    44    45    47     9 
   58    44    45    46     9 
   58    44    45    47     9 
   42    44    58    48     9 
   42    44    58    57     9 
   45    44    58    48     9 
   45    44    58    57     9 
   44    45    47    48     9 
   46    45    47    48     9 
   45    47    48    49     9 
   45    47    48    58     9 
   47    48    49    50     9 
   47    48    49    51     9 
   58    48    49    50     9 
   58    48    49    51     9 
   47    48    58    44     9 
   47    48    58    57     9 
   49    48    58    44     9 
   49    48    58    57     9 
   48    49    51    52     9 
   48    49    51    53     9 
   50    49    51    52     9 
   50    49    51    53     9 
   49    51    53    54     9 
   49    51    53    57     9 
   52    51    53    54     9 
   52    51    53    57     9 
   51    53    54    55     9 
   51    53    54    56     9 
   57    53    54    55     9 
   57    53    54    56     9 
   51    53    57    58     9 
   54    53    57    58     9 
   53    57    58    44     9 
   53    57    58    48     9 
   39    59    61    42     9 
   39    59    61    62     9 
   39    59    61    63     9 
   60    59    61    42     9 
   60    59    61    62     9 
   60    59    61    63     9 
   64    59    61    42     9 
   64    59    61    62     9 
   64    59    61    63     9 
   39    59    64    65     9 
   60    59    64    65     9 
   61    59    64    65     9 
   59    64    65    66     9 
   59    64    65    67     9 
   59    64    65    68     9 
   64    65    68    69     9 
   66    65    68    69     9 
   67    65    68    69     9 
   65    68    69    70     9 
   65    68    69    71     9 
   65    68    69    72     9 
   68    69    72    73     9 
   68    69    72    74     9 
   68    69    72    92     9 
   70    69    72    73     9 
   70    69    72    74     9 
   70    69    72    92     9 
   71    69    72    73     9 
   71    69    72    74     9 
   71    69    72    92     9 
   69    72    74    75     9 
   73    72    74    75     9 
   92    72    74    75     9 
   69    72    92    93     9 
   69    72    92    94     9 
   69    72    92    97     9 
   73    72    92    93     9 
   73    72    92    94     9 
   73    72    92    97     9 
   74    72    92    93     9 
   74    72    92    94     9 
   74    72    92    97     9 
   72    74    75    76     9 
   72    74    75    77     9 
   72    74    75    94     9 
   74    75    77    78     9 
   74    75    77    91     9 
   76    75    77    78     9 
   76    75    77    91     9 
   94    75    77    78     9 
   94    75    77    91     9 
   74    75    94    92     9 
   74    75    94    95     9 
   74    75    94    96     9 
   76    75    94    92     9 
   76    75    94    95     9 
   76    75    94    96     9 
   77    75    94    92     9 
   77    75    94    95     9 
   77    75    94    96     9 
   75    77    78    79     9 
   75    77    78    80     9 
   91    77    78    79     9 
   91    77    78    80     9 
   75    77    91    81     9 
   75    77    91    90     9 
   78    77    91    81     9 
   78    77    91    90     9 
   77    78    80    81     9 
   79    78    80    81     9 
   78    80    81    82     9 
   78    80    81    91     9 
   80    81    82    83     9 
   80    81    82    84     9 
   91    81    82    83     9 
   91    81    82    84     9 
   80    81    91    77     9 
   80    81    91    90     9 
   82    81    91    77     9 
   82    81    91    90     9 
   81    82    84    85     9 
   81    82    84    86     9 
   83    82    84    85     9 
   83    82    84    86     9 
   82    84    86    87     9 
   82    84    86    90     9 
   85    84    86    87     9 
   85    84    86    90     9 
   84    86    87    88     9 
   84    86    87    89     9 
   90    86    87    88     9 
   90    86    87    89     9 
   84    86    90    91     9 
   87    86    90    91     9 
   86    90    91    77     9 
   86    90    91    81     9 
   72    92    94    75     9 
   72    92    94    95     9 
   72    92    94    96     9 
   93    92    94    75     9 
   93    92    94    95     9 
   93    92    94    96     9 
   97    92    94    75     9 
   97    92    94    95     9 
   97    92    94    96     9 
   72    92    97    98     9 
   93    92    97    98     9 
   94    92    97    98     9 
   92    97    98    99     9 
   92    97    98   100     9 
   92    97    98   101     9 
   97    98   101   102     9 
   99    98   101   102     9 
  100    98   101   102     9 
   98   101   102   103     9 
   98   101   102   104     9 
   98   101   102   105     9 
  101   102   105   106     9 
  101   102   105   107     9 
  101   102   105   125     9 
  103   102   105   106     9 
  103   102   105   107     9 
  103   102   105   125     9 
  104   102   105   106     9 
  104   102   105   107     9 
  104   102   105   125     9 
  102   105   107   108     9 
  106   105   107   108     9 
  125   105   107   108     9 
  102   105   125   126     9 
  102   105   125   127     9 
  102   105   125   130     9 
  106   105   125   126     9 
  106   105   125   127     9 
  106   105   125   130     9 
  107   105   125   126     9 
  107   105   125   127     9 
  107   105   125   130     9 
  105   107   108   109     9 
  105   107   108   110     9 
  105   107   108   127     9 
  107   108   110   111     9 
  107   108   110   124     9 
  109   108   110   111     9 
  109   108   110   124     9 
  127   108   110   111     9 
  127   108   110   124     9 
  107   108   127   125     9 
  107   108   127   128     9 
  107   108   127   129     9 
  109   108   127   125     9 
  109   108   127   128     9 
  109   108   127   129     9 
  110   108   127   125     9 
  110   108   127   128     9 
  110   108   127   129     9 
  108   110   111   112     9 
  108   110   111   113     9 
  124   110   111   112     9 
  124   110   111   113     9 
  108   110   124   114     9 
  108   110   124   123     9 
  111   110   124   114     9 
  111   110   124   123     9 
  110   111   113   114     9 
  112   111   113   114     9 
  111   113   114   115     9 
  111   113   114   124     9 
  113   114   115   116     9 
  113   114   115   117     9 
  124   114   115   116     9 
  124   114   115   117     9 
  113   114   124   110     9 
  113   114   124   123     9 
  115   114   124   110     9 
  115   114   124   123     9 
  114   115   117   118     9 
  114   115   117   119     9 
  116   115   117   118     9 
  116   115   117   119     9 
  115   117   119   120     9 
  115   117   119   123     9 
  118   117   119   120     9 
  118   117   119   123     9 
  117   119   120   121     9 
  117   119   120   122     9 
  123   119   120   121     9 
  123   119   120   122     9 
  117   119   123   124     9 
  120   119   123   124     9 
  119   123   124   110     9 
  119   123   124   114     9 
  105   125   127   108     9 
  105   125   127   128     9 
  105   125   127   129     9 
  126   125   127   108     9 
  126   125   127   128     9 
  126   125   127   129     9 
  130   125   127   108     9 
  130   125   127   128     9 
  130   125   127   129     9 
  105   125   130   131     9 
  126   125   130   131     9 
  127   125   130   131     9 
  125   130   131   132     9 
  125   130   131   133     9 
  125   130   131   134     9 
  130   131   134   135     9 
  132   131   134   135     9 
  133   131   134   135     9 
  131   134   135   136     9 
  131   134   135   137     9 
  131   134   135   138     9 
  134   135   138   139     9 
  134   135   138   140     9 
  134   135   138   158     9 
  136   135   138   139     9 
  136   135   138   140     9 
  136   135   138   158     9 
  137   135   138   139     9 
  137   135   138   140     9 
  137   135   138   158     9 
  135   138   140   141     9 
  139   138   140   141     9 
  158   138   140   141     9 
  135   138   158   159     9 
  135   138   158   160     9 
  135   138   158   163     9 
  139   138   158   159     9 
  139   138   158   160     9 
  139   138   158   163     9 
  140   138   158   159     9 
  140   138   158   160     9 
  140   138   158   163     9 
  138   140   141   142     9 
  138   140   141   143     9 
  138   140   141   160     9 
  140   141   143   144     9 
  140   141   143   157     9 
  142   141   143   144     9 
  142   141   143   157     9 
  160   141   143   144     9 
  160   141   143   157     9 
  140   141   160   158     9 
  140   141   160   161     9 
  140   141   160   162     9 
  142   141   160   158     9 
  142   141   160   161     9 
  142   141   160   162     9 
  143   141   160   158     9 
  143   141   160   161     9 
  143   141   160   162     9 
  141   143   144   145     9 
  141   143   144   146     9 
  157   143   144   145     9 
  157   143   144   146     9 
  141   143   157   147     9 
  141   143   157   156     9 
  144   143   157   147     9 
  144   143   157   156     9 
  143   144   146   147     9 
  145   144   146   147     9 
  144   146   147   148     9 
  144   146   147   157     9 
  146   147   148   149     9 
  146   147   148   150     9 
  157   147   148   149     9 
  157   147   148   150     9 
  146   147   157   143     9 
  146   147   157   156     9 
  148   147   157   143     9 
  148   147   157   156     9 
  147   148   150   151     9 
  147   148   150   152     9 
  149   148   150   151     9 
  149   148   150   152     9 
  148   150   152   153     9 
  148   150   152   156     9 
  151   150   152   153     9 
  151   150   152   156     9 
  150   152   153   154     9 
  150   152   153   155     9 
  156   152   153   154     9 
  156   152   153   155     9 
  150   152   156   157     9 
  153   152   156   157     9 
  152   156   157   143     9 
  152   156   157   147     9 
  138   158   160   141     9 
  138   158   160   161     9 
  138   158   160   162     9 
  159   158   160   141     9 
  159   158   160   161     9 
  159   158   160   162     9 
  163   158   160   141     9 
  163   158   160   161     9 
  163   158   160   162     9 
  138   158   163   164     9 
  159   158   163   164     9 
  160   158   163   164     9 

[ dihedrals ]
;  ai    aj    ak    al funct            c0            c1            c2            c3
    9    11    12    25     4 
   11    14    12    13     4 
   15    18    16    17     4 
   16    20    18    19     4 
   20    22    21    23     4 
   21    18    20    24     4 
   42    44    45    58     4 
   44    47    45    46     4 
   48    51    49    50     4 
   49    53    51    52     4 
   53    55    54    56     4 
   54    51    53    57     4 
   75    77    78    91     4 
   77    80    78    79     4 
   81    84    82    83     4 
   82    86    84    85     4 
   86    88    87    89     4 
   87    84    86    90     4 
  108   110   111   124     4 
  110   113   111   112     4 
  114   117   115   116     4 
  115   119   117   118     4 
  119   121   120   122     4 
  120   117   119   123     4 
  141   143   144   157     4 
  143   146   144   145     4 
  147   150   148   149     4 
  148   152   150   151     4 
  152   154   153   155     4 
  153   150   152   156     4 

; Include Position restraint file
#ifdef POSRES
#include "posre.itp"
#endif

; Include water topology
#include "amber_na_desres.ff/tip4pd.itp"

#ifdef POSRES_WATER
; Position restraint for each water oxygen
[ position_restraints ]
;  i funct       fcx        fcy        fcz
   1    1       1000       1000       1000
#endif

; Include topology for ions
#include "amber_na_desres.ff/ions.itp"

[ system ]
; Name
Giant Rising Ordinary Mutants for A Clerical Setup in water

[ molecules ]
; Compound        #mols
DNA                 1
SOL              2873
NA                  4